<event>
 8    1  0.1143957E+005  0.1043930E+01  0.7957747E-01            NaN
         13   -1    0    0    0    0  0.00000000000E+00  0.00000000000E+00  0.74505805969E-08  0.10566000000E+00  0.10566000000E+00 0. -1.
     999900   -1    0    0    0    0 -0.00000000000E+00 -0.00000000000E+00 -0.74505805969E-08  0.93827000000E+00  0.93827000000E+00 0. -1.
     999902    2    1    2    0    0 -0.15617784361E-01  0.95211321049E-02 -0.13663965315E-01  0.10210986380E+01  0.10208433559E+01 0.  0.
     999903    2    3    3    0    0 -0.10479879287E+00 -0.66980341848E-01 -0.42472266999E-01  0.13282185336E+00  0.19198908405E-01 0.  0.
         14    1    1    2    0    0  0.15617784361E-01 -0.95211321049E-02  0.13663965315E-01  0.22831362050E-01  0.00000000000E+00 0. -1.
     999901    1    3    3    0    0  0.89181008513E-01  0.76501473953E-01  0.28808301684E-01  0.88827678459E+00  0.88000000000E+00 0.  1.
        -11    1    4    4    0    0 -0.48135843228E-01 -0.38170566075E-01 -0.13200392450E-01  0.62837592248E-01  0.51100000000E-03 0.  1.
         11    1    4    4    0    0 -0.56662949647E-01 -0.28809775773E-01 -0.29271874548E-01  0.69984261112E-01  0.51100000000E-03 0. -1.
</event>
<event>
 8    1  0.1143957E+005  0.1043930E+01  0.7957747E-01            NaN
         13   -1    0    0    0    0  0.00000000000E+00  0.00000000000E+00  0.74505805969E-08  0.10566000000E+00  0.10566000000E+00 0.  1.
     999900   -1    0    0    0    0 -0.00000000000E+00 -0.00000000000E+00 -0.74505805969E-08  0.93827000000E+00  0.93827000000E+00 0.  1.
     999902    2    1    2    0    0 -0.13970063931E-01  0.11166534880E-01 -0.14363551150E-01  0.10209916960E+01  0.10207339896E+01 0.  0.
     999903    2    3    3    0    0 -0.69511105842E-01  0.10752764955E+00  0.29298867136E-01  0.13291699279E+00  0.20359619437E-01 0.  0.
         14    1    1    2    0    0  0.13970063931E-01 -0.11166534880E-01  0.14363551150E-01  0.22938303972E-01  0.00000000000E+00 0.  1.
     999901    1    3    3    0    0  0.55541041911E-01 -0.96361114673E-01 -0.43662418286E-01  0.88807470324E+00  0.88000000000E+00 0.  1.
        -11    1    4    4    0    0 -0.33286791460E-01  0.34263059910E-01  0.13824583762E-01  0.49732765832E-01  0.51100000000E-03 0.  1.
         11    1    4    4    0    0 -0.36224314382E-01  0.73264589643E-01  0.15474283374E-01  0.83184226960E-01  0.51100000000E-03 0. -1.
</event>
<event>
 8    1  0.1143957E+005  0.1043930E+01  0.7957747E-01            NaN
         13   -1    0    0    0    0  0.00000000000E+00  0.00000000000E+00  0.74505805969E-08  0.10566000000E+00  0.10566000000E+00 0.  1.
     999900   -1    0    0    0    0 -0.00000000000E+00 -0.00000000000E+00 -0.74505805969E-08  0.93827000000E+00  0.93827000000E+00 0.  1.
     999902    2    1    2    0    0 -0.78179945550E-02 -0.20880731401E-01  0.52765030020E-02  0.10210178315E+01  0.10207607186E+01 0.  0.
     999903    2    3    3    0    0  0.70588916021E-01  0.55790894971E-01 -0.90137085406E-01  0.12909298331E+00  0.21092300674E-01 0.  0.
         14    1    1    2    0    0  0.78179945550E-02  0.20880731401E-01 -0.52765030020E-02  0.22912168528E-01  0.00000000000E+00 0.  1.
     999901    1    3    3    0    0 -0.78406910576E-01 -0.76671626372E-01  0.95413588408E-01  0.89192484816E+00  0.88000000000E+00 0. -1.
        -11    1    4    4    0    0  0.16343063325E-01  0.21691810970E-01 -0.36700670537E-01  0.45659946572E-01  0.51100000000E-03 0.  1.
         11    1    4    4    0    0  0.54245852696E-01  0.34099084000E-01 -0.53436414868E-01  0.83433036738E-01  0.51100000000E-03 0. -1.
</event>
<event>
 8    1  0.1143957E+005  0.1043930E+01  0.7957747E-01            NaN
         13   -1    0    0    0    0  0.00000000000E+00  0.00000000000E+00  0.74505805969E-08  0.10566000000E+00  0.10566000000E+00 0.  1.
     999900   -1    0    0    0    0 -0.00000000000E+00 -0.00000000000E+00 -0.74505805969E-08  0.93827000000E+00  0.93827000000E+00 0.  1.
     999902    2    1    2    0    0  0.68700514140E-03  0.14700519772E-01  0.17551559058E-01  0.10210250991E+01  0.10207681513E+01 0.  0.
     999903    2    3    3    0    0  0.47605367584E-01 -0.92568480473E-01 -0.72787661466E-01  0.12868595627E+00  0.20660035815E-01 0.  0.
         14    1    1    2    0    0 -0.68700514140E-03 -0.14700519772E-01 -0.17551559058E-01  0.22904900851E-01  0.00000000000E+00 0. -1.
     999901    1    3    3    0    0 -0.46918362443E-01  0.10726900024E+00  0.90339220523E-01  0.89233914288E+00  0.88000000000E+00 0. -1.
        -11    1    4    4    0    0  0.47055431610E-02 -0.10862521158E-01 -0.17413461070E-01  0.21062436939E-01  0.51100000000E-03 0.  1.
         11    1    4    4    0    0  0.42899824423E-01 -0.81705959314E-01 -0.55374200395E-01  0.10762351933E+00  0.51100000000E-03 0. -1.
</event>
<event>
 8    1  0.1143957E+005  0.1043930E+01  0.7957747E-01            NaN
         13   -1    0    0    0    0  0.00000000000E+00  0.00000000000E+00  0.74505805969E-08  0.10566000000E+00  0.10566000000E+00 0. -1.
     999900   -1    0    0    0    0 -0.00000000000E+00 -0.00000000000E+00 -0.74505805969E-08  0.93827000000E+00  0.93827000000E+00 0.  1.
     999902    2    1    2    0    0  0.15257458355E-01 -0.13700571645E-01 -0.11692049341E-01  0.10203249218E+01  0.10200518351E+01 0.  0.
     999903    2    3    3    0    0  0.73270423080E-01 -0.87891231952E-01  0.63205416313E-01  0.13213609700E+00  0.19276927291E-01 0.  0.
         14    1    1    2    0    0 -0.15257458355E-01  0.13700571645E-01  0.11692049341E-01  0.23605078196E-01  0.00000000000E+00 0. -1.
     999901    1    3    3    0    0 -0.58012964725E-01  0.74190660307E-01 -0.74897465654E-01  0.88818882481E+00  0.88000000000E+00 0.  1.
        -11    1    4    4    0    0  0.53078050690E-01 -0.49261299750E-01  0.40903787630E-01  0.83170524115E-01  0.51100000000E-03 0. -1.
         11    1    4    4    0    0  0.20192372390E-01 -0.38629932202E-01  0.22301628683E-01  0.48965572881E-01  0.51100000000E-03 0.  1.
</event>
<event>
 8    1  0.1143957E+005  0.1043930E+01  0.7957747E-01            NaN
         13   -1    0    0    0    0  0.00000000000E+00  0.00000000000E+00  0.74505805969E-08  0.10566000000E+00  0.10566000000E+00 0.  1.
     999900   -1    0    0    0    0 -0.00000000000E+00 -0.00000000000E+00 -0.74505805969E-08  0.93827000000E+00  0.93827000000E+00 0.  1.
     999902    2    1    2    0    0  0.16461396585E-01  0.71214287256E-02 -0.13360531863E-01  0.10215649349E+01  0.10213200870E+01 0.  0.
     999903    2    3    3    0    0 -0.72407296673E-01 -0.10005322989E+00 -0.36637863202E-01  0.13031531430E+00  0.19654075868E-01 0.  0.
         14    1    1    2    0    0 -0.16461396585E-01 -0.71214287256E-02  0.13360531863E-01  0.22365065085E-01  0.00000000000E+00 0.  1.
     999901    1    3    3    0    0  0.88868693258E-01  0.10717465862E+00  0.23277331339E-01  0.89124962061E+00  0.88000000000E+00 0. -1.
        -11    1    4    4    0    0 -0.65969954143E-01 -0.82045670845E-01 -0.35678395420E-01  0.11116085631E+00  0.51100000000E-03 0.  1.
         11    1    4    4    0    0 -0.64373425304E-02 -0.18007559045E-01 -0.95946778162E-03  0.19154457994E-01  0.51100000000E-03 0. -1.
</event>
<event>
 8    1  0.1143957E+005  0.1043930E+01  0.7957747E-01            NaN
         13   -1    0    0    0    0  0.00000000000E+00  0.00000000000E+00  0.74505805969E-08  0.10566000000E+00  0.10566000000E+00 0. -1.
     999900   -1    0    0    0    0 -0.00000000000E+00 -0.00000000000E+00 -0.74505805969E-08  0.93827000000E+00  0.93827000000E+00 0. -1.
     999902    2    1    2    0    0 -0.22071258810E-01  0.60681131621E-02 -0.69152923573E-02  0.10200180003E+01  0.10197376806E+01 0.  0.
     999903    2    3    3    0    0 -0.40973928503E-01 -0.12206313404E+00  0.75883604906E-02  0.13041961708E+00  0.19324124712E-01 0.  0.
         14    1    1    2    0    0  0.22071258810E-01 -0.60681131621E-02  0.69152923573E-02  0.23911999732E-01  0.00000000000E+00 0. -1.
     999901    1    3    3    0    0  0.18902669693E-01  0.12813124720E+00 -0.14503652848E-01  0.88959838319E+00  0.88000000000E+00 0. -1.
        -11    1    4    4    0    0 -0.28549787709E-01 -0.78313739783E-01  0.13878667367E-01  0.84504501335E-01  0.51100000000E-03 0.  1.
         11    1    4    4    0    0 -0.12424140794E-01 -0.43749394253E-01 -0.62903068766E-02  0.45915115742E-01  0.51100000000E-03 0. -1.
</event>
<event>
 8    1  0.1143957E+005  0.1043930E+01  0.7957747E-01            NaN
         13   -1    0    0    0    0  0.00000000000E+00  0.00000000000E+00  0.74505805969E-08  0.10566000000E+00  0.10566000000E+00 0. -1.
     999900   -1    0    0    0    0 -0.00000000000E+00 -0.00000000000E+00 -0.74505805969E-08  0.93827000000E+00  0.93827000000E+00 0. -1.
     999902    2    1    2    0    0 -0.67828274350E-02 -0.15462228435E-01  0.19118006940E-01  0.10184234235E+01  0.10181039652E+01 0.  0.
     999903    2    3    3    0    0 -0.10583564605E+00  0.16857186466E-01  0.72212690900E-01  0.13068751066E+00  0.19473161154E-01 0.  0.
         14    1    1    2    0    0  0.67828274350E-02  0.15462228435E-01 -0.19118006940E-01  0.25506576515E-01  0.00000000000E+00 0.  1.
     999901    1    3    3    0    0  0.99052818614E-01 -0.32319414901E-01 -0.53094683960E-01  0.88773591283E+00  0.88000000000E+00 0.  1.
        -11    1    4    4    0    0 -0.22724700222E-01  0.83008912825E-02  0.24666807975E-01  0.34554729531E-01  0.51100000000E-03 0. -1.
         11    1    4    4    0    0 -0.83110945827E-01  0.85562951835E-02  0.47545882925E-01  0.96132781129E-01  0.51100000000E-03 0.  1.
</event>
<event>
 8    1  0.1143957E+005  0.1043930E+01  0.7957747E-01            NaN
         13   -1    0    0    0    0  0.00000000000E+00  0.00000000000E+00  0.74505805969E-08  0.10566000000E+00  0.10566000000E+00 0. -1.
     999900   -1    0    0    0    0 -0.00000000000E+00 -0.00000000000E+00 -0.74505805969E-08  0.93827000000E+00  0.93827000000E+00 0. -1.
     999902    2    1    2    0    0  0.22334377288E-01 -0.16324112166E-02 -0.56584119145E-02  0.10208322339E+01  0.10205708907E+01 0.  0.
     999903    2    3    3    0    0 -0.15895049275E-01  0.11526573723E+00 -0.56254171136E-01  0.13083976366E+00  0.20387967361E-01 0.  0.
         14    1    1    2    0    0 -0.22334377288E-01  0.16324112166E-02  0.56584119145E-02  0.23097766139E-01  0.00000000000E+00 0.  1.
     999901    1    3    3    0    0  0.38229426563E-01 -0.11689814845E+00  0.50595759221E-01  0.88999247020E+00  0.88000000000E+00 0. -1.
        -11    1    4    4    0    0  0.35380374673E-02  0.47237289337E-01 -0.23171086011E-01  0.52735562583E-01  0.51100000000E-03 0.  1.
         11    1    4    4    0    0 -0.19433086743E-01  0.68028447895E-01 -0.33083085125E-01  0.78104201076E-01  0.51100000000E-03 0. -1.
</event>
<event>
 8    1  0.1143957E+005  0.1043930E+01  0.7957747E-01            NaN
         13   -1    0    0    0    0  0.00000000000E+00  0.00000000000E+00  0.74505805969E-08  0.10566000000E+00  0.10566000000E+00 0. -1.
     999900   -1    0    0    0    0 -0.00000000000E+00 -0.00000000000E+00 -0.74505805969E-08  0.93827000000E+00  0.93827000000E+00 0. -1.
     999902    2    1    2    0    0  0.17274952641E-01 -0.11801036318E-01 -0.11512443498E-01  0.10200506197E+01  0.10197710733E+01 0.  0.
     999903    2    3    3    0    0 -0.81154033155E-01 -0.70577348773E-01 -0.72404383066E-01  0.13052785529E+00  0.15099240437E-01 0.  0.
         14    1    1    2    0    0 -0.17274952641E-01  0.11801036318E-01  0.11512443498E-01  0.23879380273E-01  0.00000000000E+00 0. -1.
     999901    1    3    3    0    0  0.98428985796E-01  0.58776312456E-01  0.60891939569E-01  0.88952276444E+00  0.88000000000E+00 0. -1.
        -11    1    4    4    0    0 -0.41415808949E-01 -0.27261703385E-01 -0.37419410903E-01  0.62120392270E-01  0.51100000000E-03 0. -1.
         11    1    4    4    0    0 -0.39738224205E-01 -0.43315645388E-01 -0.34984972163E-01  0.68407463019E-01  0.51100000000E-03 0.  1.
</event>
<event>
 8    1  0.1143957E+005  0.1043930E+01  0.7957747E-01            NaN
         13   -1    0    0    0    0  0.00000000000E+00  0.00000000000E+00  0.74505805969E-08  0.10566000000E+00  0.10566000000E+00 0. -1.
     999900   -1    0    0    0    0 -0.00000000000E+00 -0.00000000000E+00 -0.74505805969E-08  0.93827000000E+00  0.93827000000E+00 0. -1.
     999902    2    1    2    0    0 -0.21116249174E-01 -0.18178674589E-02  0.11649201236E-01  0.10197452008E+01  0.10194583710E+01 0.  0.
     999903    2    3    3    0    0 -0.38985768263E-01  0.12221488080E+00  0.15459001430E-01  0.13085940562E+00  0.20708358195E-01 0.  0.
         14    1    1    2    0    0  0.21116249174E-01  0.18178674589E-02 -0.11649201236E-01  0.24184799166E-01  0.00000000000E+00 0.  1.
     999901    1    3    3    0    0  0.17869519089E-01 -0.12403274826E+00 -0.38098001942E-02  0.88888579521E+00  0.88000000000E+00 0.  1.
        -11    1    4    4    0    0 -0.12254188668E-01  0.15978111621E-01  0.53708851675E-02  0.20846407828E-01  0.51100000000E-03 0.  1.
         11    1    4    4    0    0 -0.26731579595E-01  0.10623676918E+00  0.10088116263E-01  0.11001299779E+00  0.51100000000E-03 0. -1.
</event>
<event>
 8    1  0.1143957E+005  0.1043930E+01  0.7957747E-01            NaN
         13   -1    0    0    0    0  0.00000000000E+00  0.00000000000E+00  0.74505805969E-08  0.10566000000E+00  0.10566000000E+00 0. -1.
     999900   -1    0    0    0    0 -0.00000000000E+00 -0.00000000000E+00 -0.74505805969E-08  0.93827000000E+00  0.93827000000E+00 0. -1.
     999902    2    1    2    0    0 -0.70446861890E-02  0.22606805453E-01 -0.68149828794E-03  0.10202411905E+01  0.10199661402E+01 0.  0.
     999903    2    3    3    0    0 -0.10456930333E+00 -0.42617740760E-03 -0.76866187939E-01  0.13128355584E+00  0.19800009110E-01 0.  0.
         14    1    1    2    0    0  0.70446861890E-02 -0.22606805453E-01  0.68149828794E-03  0.23688809515E-01  0.00000000000E+00 0. -1.
     999901    1    3    3    0    0  0.97524617141E-01  0.23032982861E-01  0.76184689651E-01  0.88895763464E+00  0.88000000000E+00 0.  1.
        -11    1    4    4    0    0 -0.82617421367E-01 -0.84471172065E-02 -0.59688738541E-01  0.10227413521E+00  0.51100000000E-03 0.  1.
         11    1    4    4    0    0 -0.21951881964E-01  0.80209397989E-02 -0.17177449398E-01  0.29009420639E-01  0.51100000000E-03 0. -1.
</event>
<event>
 8    1  0.1187976E+005  0.1043930E+01  0.7957747E-01            NaN
         13   -1    0    0    0    0  0.00000000000E+00  0.00000000000E+00  0.74505805969E-08  0.10566000000E+00  0.10566000000E+00 0. -1.
     999900   -1    0    0    0    0 -0.00000000000E+00 -0.00000000000E+00 -0.74505805969E-08  0.93827000000E+00  0.93827000000E+00 0.  1.
     999902    2    1    2    0    0  0.32566441991E-02 -0.19349916342E-01 -0.14593432055E-01  0.10194760994E+01  0.10191827726E+01 0.  0.
     999903    2    3    3    0    0 -0.62989153927E-01  0.10874150280E+00 -0.10721236224E-01  0.12773010907E+00  0.20191283100E-01 0.  0.
         14    1    1    2    0    0 -0.32566441991E-02  0.19349916342E-01  0.14593432055E-01  0.24453900569E-01  0.00000000000E+00 0. -1.
     999901    1    3    3    0    0  0.66245798126E-01 -0.12809141914E+00 -0.38721958311E-02  0.89174599036E+00  0.88000000000E+00 0.  1.
        -11    1    4    4    0    0 -0.36107102699E-01  0.43280365286E-01 -0.77853436836E-02  0.56901542878E-01  0.51100000000E-03 0.  1.
         11    1    4    4    0    0 -0.26882051228E-01  0.65461137513E-01 -0.29358925401E-02  0.70828566191E-01  0.51100000000E-03 0. -1.
</event>
<event>
 8    1  0.1143957E+005  0.1043930E+01  0.7957747E-01            NaN
         13   -1    0    0    0    0  0.00000000000E+00  0.00000000000E+00  0.74505805969E-08  0.10566000000E+00  0.10566000000E+00 0.  1.
     999900   -1    0    0    0    0 -0.00000000000E+00 -0.00000000000E+00 -0.74505805969E-08  0.93827000000E+00  0.93827000000E+00 0. -1.
     999902    2    1    2    0    0 -0.21782180578E-01  0.34751340985E-02 -0.11829626050E-01  0.10189004175E+01  0.10185929416E+01 0.  0.
     999903    2    3    3    0    0  0.10077190225E+00 -0.36001126451E-01 -0.66874587462E-01  0.12782924967E+00  0.20421783279E-01 0.  0.
         14    1    1    2    0    0  0.21782180578E-01 -0.34751340985E-02  0.11829626050E-01  0.25029582502E-01  0.00000000000E+00 0.  1.
     999901    1    3    3    0    0 -0.12255408283E+00  0.39476260549E-01  0.55044961412E-01  0.89107116783E+00  0.88000000000E+00 0. -1.
        -11    1    4    4    0    0  0.53006418608E-01 -0.28465819185E-01 -0.42578739468E-01  0.73710199099E-01  0.51100000000E-03 0. -1.
         11    1    4    4    0    0  0.47765483645E-01 -0.75353072658E-02 -0.24295847994E-01  0.54119050566E-01  0.51100000000E-03 0.  1.
</event>
<event>
 8    1  0.1143957E+005  0.1043930E+01  0.7957747E-01            NaN
         13   -1    0    0    0    0  0.00000000000E+00  0.00000000000E+00  0.74505805969E-08  0.10566000000E+00  0.10566000000E+00 0. -1.
     999900   -1    0    0    0    0 -0.00000000000E+00 -0.00000000000E+00 -0.74505805969E-08  0.93827000000E+00  0.93827000000E+00 0.  1.
     999902    2    1    2    0    0  0.26056345936E-02  0.23093705857E-01  0.46447731935E-02  0.10202301582E+01  0.10199548486E+01 0.  0.
     999903    2    3    3    0    0 -0.10272234564E+00 -0.48360220579E-01 -0.57584370568E-01  0.12889850651E+00  0.20205791746E-01 0.  0.
         14    1    1    2    0    0 -0.26056345936E-02 -0.23093705857E-01 -0.46447731935E-02  0.23699841769E-01  0.00000000000E+00 0.  1.
     999901    1    3    3    0    0  0.10532798023E+00  0.71453926436E-01  0.62229143761E-01  0.89133165172E+00  0.88000000000E+00 0. -1.
        -11    1    4    4    0    0 -0.21602132766E-01 -0.30750734050E-02 -0.60135078533E-02  0.22639161075E-01  0.51100000000E-03 0. -1.
         11    1    4    4    0    0 -0.81120212869E-01 -0.45285147174E-01 -0.51570862714E-01  0.10625934544E+00  0.51100000000E-03 0.  1.
</event>
<event>
 8    1  0.1143957E+005  0.1043930E+01  0.7957747E-01            NaN
         13   -1    0    0    0    0  0.00000000000E+00  0.00000000000E+00  0.74505805969E-08  0.10566000000E+00  0.10566000000E+00 0. -1.
     999900   -1    0    0    0    0 -0.00000000000E+00 -0.00000000000E+00 -0.74505805969E-08  0.93827000000E+00  0.93827000000E+00 0. -1.
     999902    2    1    2    0    0  0.58528152851E-02 -0.21891257574E-01 -0.70807708220E-02  0.10201893193E+01  0.10199130489E+01 0.  0.
     999903    2    3    3    0    0  0.12053176598E+00  0.39115920366E-01 -0.23410531593E-01  0.13050409486E+00  0.20622898673E-01 0.  0.
         14    1    1    2    0    0 -0.58528152851E-02  0.21891257574E-01  0.70807708220E-02  0.23740680706E-01  0.00000000000E+00 0. -1.
     999901    1    3    3    0    0 -0.11467895069E+00 -0.61007177941E-01  0.16329760771E-01  0.88968522444E+00  0.88000000000E+00 0.  1.
        -11    1    4    4    0    0  0.87011765816E-01  0.30736418140E-01 -0.78769008043E-02  0.92617932809E-01  0.51100000000E-03 0. -1.
         11    1    4    4    0    0  0.33520000161E-01  0.83795022263E-02 -0.15533630789E-01  0.37886162050E-01  0.51100000000E-03 0.  1.
</event>
<event>
 8    1  0.1143957E+005  0.1043930E+01  0.7957747E-01            NaN
         13   -1    0    0    0    0  0.00000000000E+00  0.00000000000E+00  0.74505805969E-08  0.10566000000E+00  0.10566000000E+00 0. -1.
     999900   -1    0    0    0    0 -0.00000000000E+00 -0.00000000000E+00 -0.74505805969E-08  0.93827000000E+00  0.93827000000E+00 0.  1.
     999902    2    1    2    0    0 -0.20426736912E-01  0.38898248099E-02  0.11723562197E-01  0.10200590086E+01  0.10197796609E+01 0.  0.
     999903    2    3    3    0    0  0.31585273844E-01  0.77522674148E-01  0.98671899520E-01  0.13119059367E+00  0.21620212360E-01 0.  0.
         14    1    1    2    0    0  0.20426736912E-01 -0.38898248099E-02 -0.11723562197E-01  0.23870991359E-01  0.00000000000E+00 0.  1.
     999901    1    3    3    0    0 -0.52012010755E-01 -0.73632849338E-01 -0.86948337323E-01  0.88886841497E+00  0.88000000000E+00 0.  1.
        -11    1    4    4    0    0  0.19327678736E-01  0.40916800406E-01  0.37111792889E-01  0.58525977252E-01  0.51100000000E-03 0. -1.
         11    1    4    4    0    0  0.12257595108E-01  0.36605873741E-01  0.61560106631E-01  0.72664616421E-01  0.51100000000E-03 0.  1.
</event>
<event>
 8    1  0.1143957E+005  0.1043930E+01  0.7957747E-01            NaN
         13   -1    0    0    0    0  0.00000000000E+00  0.00000000000E+00  0.74505805969E-08  0.10566000000E+00  0.10566000000E+00 0. -1.
     999900   -1    0    0    0    0 -0.00000000000E+00 -0.00000000000E+00 -0.74505805969E-08  0.93827000000E+00  0.93827000000E+00 0. -1.
     999902    2    1    2    0    0 -0.27673280478E-01 -0.18158795929E-02 -0.87020653702E-03  0.10161835564E+01  0.10158046836E+01 0.  0.
     999903    2    3    3    0    0  0.87312846442E-01 -0.59903494547E-01  0.62200031545E-01  0.12457050397E+00  0.20904657907E-01 0.  0.
         14    1    1    2    0    0  0.27673280478E-01  0.18158795929E-02  0.87020653702E-03  0.27746443565E-01  0.00000000000E+00 0. -1.
     999901    1    3    3    0    0 -0.11498612692E+00  0.58087614954E-01 -0.63070238082E-01  0.89161305247E+00  0.88000000000E+00 0. -1.
        -11    1    4    4    0    0  0.69834448938E-01 -0.39454539837E-01  0.52982634163E-01  0.96129764465E-01  0.51100000000E-03 0.  1.
         11    1    4    4    0    0  0.17478397504E-01 -0.20448954711E-01  0.92173973813E-02  0.28440739505E-01  0.51100000000E-03 0. -1.
</event>
<event>
 8    1  0.1143957E+005  0.1043930E+01  0.7957747E-01            NaN
         13   -1    0    0    0    0  0.00000000000E+00  0.00000000000E+00  0.74505805969E-08  0.10566000000E+00  0.10566000000E+00 0.  1.
     999900   -1    0    0    0    0 -0.00000000000E+00 -0.00000000000E+00 -0.74505805969E-08  0.93827000000E+00  0.93827000000E+00 0. -1.
     999902    2    1    2    0    0 -0.12844965057E-02  0.18041619132E-01 -0.10438188257E-01  0.10230468555E+01  0.10228336926E+01 0.  0.
     999903    2    3    3    0    0  0.12882940468E+00  0.14807665856E-01  0.21376680918E-01  0.13290514109E+00  0.19761871458E-01 0.  0.
         14    1    1    2    0    0  0.12844965057E-02 -0.18041619132E-01  0.10438188257E-01  0.20883144550E-01  0.00000000000E+00 0.  1.
     999901    1    3    3    0    0 -0.13011390119E+00  0.32339532765E-02 -0.31814869175E-01  0.89014171436E+00  0.88000000000E+00 0. -1.
        -11    1    4    4    0    0  0.98373795872E-01  0.13423528760E-01  0.79995910863E-02  0.99608480649E-01  0.51100000000E-03 0.  1.
         11    1    4    4    0    0  0.30455608810E-01  0.13841370960E-02  0.13377089831E-01  0.33296660446E-01  0.51100000000E-03 0. -1.
</event>
<event>
 8    1  0.1143957E+005  0.1043930E+01  0.7957747E-01            NaN
         13   -1    0    0    0    0  0.00000000000E+00  0.00000000000E+00  0.74505805969E-08  0.10566000000E+00  0.10566000000E+00 0.  1.
     999900   -1    0    0    0    0 -0.00000000000E+00 -0.00000000000E+00 -0.74505805969E-08  0.93827000000E+00  0.93827000000E+00 0.  1.
     999902    2    1    2    0    0 -0.79628571403E-02 -0.20729506121E-01 -0.67074740674E-02  0.10207328078E+01  0.10204691838E+01 0.  0.
     999903    2    3    3    0    0 -0.11482103970E+00  0.28965375748E-01  0.52240472311E-01  0.13092209037E+00  0.19714528892E-01 0.  0.
         14    1    1    2    0    0  0.79628571403E-02  0.20729506121E-01  0.67074740674E-02  0.23197192205E-01  0.00000000000E+00 0.  1.
     999901    1    3    3    0    0  0.10685818256E+00 -0.49694881869E-01 -0.58947946378E-01  0.88981071743E+00  0.88000000000E+00 0.  1.
        -11    1    4    4    0    0 -0.21649757815E-01 -0.19896734572E-02  0.11770051147E-01  0.24727839350E-01  0.51100000000E-03 0. -1.
         11    1    4    4    0    0 -0.93171281884E-01  0.30955049205E-01  0.40470421163E-01  0.10619425102E+00  0.51100000000E-03 0.  1.
</event>
<event>
 8    1  0.1143957E+005  0.1043930E+01  0.7957747E-01            NaN
         13   -1    0    0    0    0  0.00000000000E+00  0.00000000000E+00  0.74505805969E-08  0.10566000000E+00  0.10566000000E+00 0.  1.
     999900   -1    0    0    0    0 -0.00000000000E+00 -0.00000000000E+00 -0.74505805969E-08  0.93827000000E+00  0.93827000000E+00 0. -1.
     999902    2    1    2    0    0  0.18682388725E-01  0.15141375951E-01 -0.45688534385E-02  0.10194521052E+01  0.10191581955E+01 0.  0.
     999903    2    3    3    0    0 -0.63125542274E-01 -0.46508601306E-01  0.98076342392E-01  0.12758367680E+00  0.22599592179E-01 0.  0.
         14    1    1    2    0    0 -0.18682388725E-01 -0.15141375951E-01  0.45688534385E-02  0.24477894842E-01  0.00000000000E+00 0. -1.
     999901    1    3    3    0    0  0.81807930999E-01  0.61649977257E-01 -0.10264519583E+00  0.89186842836E+00  0.88000000000E+00 0. -1.
        -11    1    4    4    0    0 -0.12893156720E-01 -0.18390447164E-02  0.83891091358E-02  0.15500124153E-01  0.51100000000E-03 0.  1.
         11    1    4    4    0    0 -0.50232385555E-01 -0.44669556589E-01  0.89687233256E-01  0.11208355265E+00  0.51100000000E-03 0. -1.
</event>
<event>
 8    1  0.1143957E+005  0.1043930E+01  0.7957747E-01            NaN
         13   -1    0    0    0    0  0.00000000000E+00  0.00000000000E+00  0.74505805969E-08  0.10566000000E+00  0.10566000000E+00 0. -1.
     999900   -1    0    0    0    0 -0.00000000000E+00 -0.00000000000E+00 -0.74505805969E-08  0.93827000000E+00  0.93827000000E+00 0. -1.
     999902    2    1    2    0    0  0.20296830520E-01 -0.95394230627E-02 -0.61825396322E-02  0.10206666013E+01  0.10204014530E+01 0.  0.
     999903    2    3    3    0    0  0.31836234752E-01 -0.31513332417E-01 -0.12310456903E+00  0.13258621561E+00  0.20438534399E-01 0.  0.
         14    1    1    2    0    0 -0.20296830520E-01  0.95394230627E-02  0.61825396322E-02  0.23263398673E-01  0.00000000000E+00 0.  1.
     999901    1    3    3    0    0 -0.11539404232E-01  0.21973909354E-01  0.11692202940E+00  0.88808038572E+00  0.88000000000E+00 0.  1.
        -11    1    4    4    0    0  0.31052224725E-02 -0.57847462214E-02 -0.47894833245E-02  0.81428475956E-02  0.51100000000E-03 0.  1.
         11    1    4    4    0    0  0.28731012280E-01 -0.25728586195E-01 -0.11831508571E+00  0.12444336801E+00  0.51100000000E-03 0. -1.
</event>
<event>
 8    1  0.1143957E+005  0.1043930E+01  0.7957747E-01            NaN
         13   -1    0    0    0    0  0.00000000000E+00  0.00000000000E+00  0.74505805969E-08  0.10566000000E+00  0.10566000000E+00 0. -1.
     999900   -1    0    0    0    0 -0.00000000000E+00 -0.00000000000E+00 -0.74505805969E-08  0.93827000000E+00  0.93827000000E+00 0. -1.
     999902    2    1    2    0    0 -0.26933006659E-03 -0.21252124471E-01  0.12698568193E-01  0.10191715879E+01  0.10188708194E+01 0.  0.
     999903    2    3    3    0    0 -0.11958288445E-01 -0.49484722424E-01  0.12008001668E+00  0.13211776387E+00  0.21074978233E-01 0.  0.
         14    1    1    2    0    0  0.26933006659E-03  0.21252124471E-01 -0.12698568193E-01  0.24758412053E-01  0.00000000000E+00 0. -1.
     999901    1    3    3    0    0  0.11688958378E-01  0.28232597953E-01 -0.10738144849E+00  0.88705382408E+00  0.88000000000E+00 0. -1.
        -11    1    4    4    0    0  0.30363172685E-02 -0.30522901794E-01  0.73226194631E-01  0.79392716653E-01  0.51100000000E-03 0.  1.
         11    1    4    4    0    0 -0.14994605713E-01 -0.18961820630E-01  0.46853822050E-01  0.52725047215E-01  0.51100000000E-03 0. -1.
</event>
<event>
 8    1  0.1143957E+005  0.1043930E+01  0.7957747E-01            NaN
         13   -1    0    0    0    0  0.00000000000E+00  0.00000000000E+00  0.74505805969E-08  0.10566000000E+00  0.10566000000E+00 0.  1.
     999900   -1    0    0    0    0 -0.00000000000E+00 -0.00000000000E+00 -0.74505805969E-08  0.93827000000E+00  0.93827000000E+00 0. -1.
     999902    2    1    2    0    0 -0.25521927989E-02  0.11820049333E-01 -0.20641343002E-01  0.10200073686E+01  0.10197267966E+01 0.  0.
     999903    2    3    3    0    0  0.53980651868E-01 -0.11383468724E+00 -0.26615938056E-01  0.12926567135E+00  0.11356004452E-01 0.  0.
         14    1    1    2    0    0  0.25521927989E-02 -0.11820049333E-01  0.20641343002E-01  0.23922631445E-01  0.00000000000E+00 0.  1.
     999901    1    3    3    0    0 -0.56532844666E-01  0.12565473657E+00  0.59745950539E-02  0.89074169720E+00  0.88000000000E+00 0.  1.
        -11    1    4    4    0    0  0.26400911586E-01 -0.68562213788E-01 -0.14645124324E-01  0.74916794376E-01  0.51100000000E-03 0.  1.
         11    1    4    4    0    0  0.27579740281E-01 -0.45272473450E-01 -0.11970813732E-01  0.54348876977E-01  0.51100000000E-03 0. -1.
</event>
<event>
 8    1  0.1143957E+005  0.1043930E+01  0.7957747E-01            NaN
         13   -1    0    0    0    0  0.00000000000E+00  0.00000000000E+00  0.74505805969E-08  0.10566000000E+00  0.10566000000E+00 0. -1.
     999900   -1    0    0    0    0 -0.00000000000E+00 -0.00000000000E+00 -0.74505805969E-08  0.93827000000E+00  0.93827000000E+00 0. -1.
     999902    2    1    2    0    0  0.10876486436E-02  0.22081474956E-01 -0.80925601869E-02  0.10203871870E+01  0.10201155558E+01 0.  0.
     999903    2    3    3    0    0  0.69769751222E-01 -0.81718719484E-01 -0.69149328771E-01  0.12953386537E+00  0.21251477810E-01 0.  0.
         14    1    1    2    0    0 -0.10876486436E-02 -0.22081474956E-01  0.80925601869E-02  0.23542813048E-01  0.00000000000E+00 0. -1.
     999901    1    3    3    0    0 -0.68682102579E-01  0.10380019444E+00  0.61056768584E-01  0.89085332158E+00  0.88000000000E+00 0. -1.
        -11    1    4    4    0    0  0.55563839658E-01 -0.75917716495E-01 -0.61318160680E-01  0.11229878853E+00  0.51100000000E-03 0. -1.
         11    1    4    4    0    0  0.14205911564E-01 -0.58010029884E-02 -0.78311680911E-02  0.17235076841E-01  0.51100000000E-03 0.  1.
</event>
<event>
 8    1  0.1143957E+005  0.1043930E+01  0.7957747E-01            NaN
         13   -1    0    0    0    0  0.00000000000E+00  0.00000000000E+00  0.74505805969E-08  0.10566000000E+00  0.10566000000E+00 0.  1.
     999900   -1    0    0    0    0 -0.00000000000E+00 -0.00000000000E+00 -0.74505805969E-08  0.93827000000E+00  0.93827000000E+00 0. -1.
     999902    2    1    2    0    0  0.16064258092E-01  0.20764818187E-02  0.16729919790E-01  0.10206434721E+01  0.10203777902E+01 0.  0.
     999903    2    3    3    0    0 -0.11327758511E+00  0.22461921043E-01  0.56242862953E-01  0.13007839801E+00  0.20512942495E-01 0.  0.
         14    1    1    2    0    0 -0.16064258092E-01 -0.20764818187E-02 -0.16729919790E-01  0.23286527886E-01  0.00000000000E+00 0. -1.
     999901    1    3    3    0    0  0.12934184321E+00 -0.20385439224E-01 -0.39512943162E-01  0.89056507410E+00  0.88000000000E+00 0. -1.
        -11    1    4    4    0    0 -0.89609367076E-01  0.25611464200E-01  0.41576486418E-01  0.10205219797E+00  0.51100000000E-03 0.  1.
         11    1    4    4    0    0 -0.23668218038E-01 -0.31495431576E-02  0.14666376534E-01  0.28026200043E-01  0.51100000000E-03 0. -1.
</event>
<event>
 8    1  0.1143957E+005  0.1043930E+01  0.7957747E-01            NaN
         13   -1    0    0    0    0  0.00000000000E+00  0.00000000000E+00  0.74505805969E-08  0.10566000000E+00  0.10566000000E+00 0.  1.
     999900   -1    0    0    0    0 -0.00000000000E+00 -0.00000000000E+00 -0.74505805969E-08  0.93827000000E+00  0.93827000000E+00 0.  1.
     999902    2    1    2    0    0 -0.21744219021E-01  0.81516703378E-02  0.49316317191E-02  0.10201901225E+01  0.10199138710E+01 0.  0.
     999903    2    3    3    0    0 -0.10069688355E+00  0.44987220745E-01 -0.70864310711E-01  0.13264552879E+00  0.20232977791E-01 0.  0.
         14    1    1    2    0    0  0.21744219021E-01 -0.81516703378E-02 -0.49316317191E-02  0.23739877454E-01  0.00000000000E+00 0. -1.
     999901    1    3    3    0    0  0.78952664525E-01 -0.36835550407E-01  0.75795942430E-01  0.88754459375E+00  0.88000000000E+00 0. -1.
        -11    1    4    4    0    0 -0.15307254113E-01  0.35705714367E-02 -0.18397582990E-01  0.24203164871E-01  0.51100000000E-03 0.  1.
         11    1    4    4    0    0 -0.85389629432E-01  0.41416649308E-01 -0.52466727720E-01  0.10844236392E+00  0.51100000000E-03 0. -1.
</event>
<event>
 8    1  0.1143957E+005  0.1043930E+01  0.7957747E-01            NaN
         13   -1    0    0    0    0  0.00000000000E+00  0.00000000000E+00  0.74505805969E-08  0.10566000000E+00  0.10566000000E+00 0. -1.
     999900   -1    0    0    0    0 -0.00000000000E+00 -0.00000000000E+00 -0.74505805969E-08  0.93827000000E+00  0.93827000000E+00 0. -1.
     999902    2    1    2    0    0 -0.20530679544E-01 -0.88911977161E-02 -0.73883949857E-02  0.10203683664E+01  0.10200962957E+01 0.  0.
     999903    2    3    3    0    0  0.10696739720E+00 -0.68828554125E-01 -0.84034422241E-02  0.12916172557E+00  0.20802393716E-01 0.  0.
         14    1    1    2    0    0  0.20530679544E-01  0.88911977161E-02  0.73883949857E-02  0.23561633641E-01  0.00000000000E+00 0. -1.
     999901    1    3    3    0    0 -0.12749807674E+00  0.59937356409E-01  0.10150472384E-02  0.89120664079E+00  0.88000000000E+00 0.  1.
        -11    1    4    4    0    0  0.41606460723E-01 -0.27810882910E-01  0.68101422520E-02  0.50509226292E-01  0.51100000000E-03 0.  1.
         11    1    4    4    0    0  0.65360936477E-01 -0.41017671215E-01 -0.15213584476E-01  0.78652499278E-01  0.51100000000E-03 0. -1.
</event>
<event>
 8    1  0.1143957E+005  0.1043930E+01  0.7957747E-01            NaN
         13   -1    0    0    0    0  0.00000000000E+00  0.00000000000E+00  0.74505805969E-08  0.10566000000E+00  0.10566000000E+00 0. -1.
     999900   -1    0    0    0    0 -0.00000000000E+00 -0.00000000000E+00 -0.74505805969E-08  0.93827000000E+00  0.93827000000E+00 0.  1.
     999902    2    1    2    0    0  0.19143761346E-01  0.12455396459E-01  0.58642019289E-02  0.10203501492E+01  0.10200776527E+01 0.  0.
     999903    2    3    3    0    0  0.89124794058E-01  0.61702512289E-01 -0.74085133295E-01  0.13259200671E+00  0.18482541199E-01 0.  0.
         14    1    1    2    0    0 -0.19143761346E-01 -0.12455396459E-01 -0.58642019289E-02  0.23579850799E-01  0.00000000000E+00 0.  1.
     999901    1    3    3    0    0 -0.69981032712E-01 -0.49247115831E-01  0.79949335224E-01  0.88775814249E+00  0.88000000000E+00 0. -1.
        -11    1    4    4    0    0  0.20886579348E-01  0.12942800017E-01 -0.81036985987E-02  0.25878491477E-01  0.51100000000E-03 0.  1.
         11    1    4    4    0    0  0.68238214710E-01  0.48759712272E-01 -0.65981434697E-01  0.10671351523E+00  0.51100000000E-03 0. -1.
</event>
<event>
 8    1  0.1143957E+005  0.1043930E+01  0.7957747E-01            NaN
         13   -1    0    0    0    0  0.00000000000E+00  0.00000000000E+00  0.74505805969E-08  0.10566000000E+00  0.10566000000E+00 0. -1.
     999900   -1    0    0    0    0 -0.00000000000E+00 -0.00000000000E+00 -0.74505805969E-08  0.93827000000E+00  0.93827000000E+00 0.  1.
     999902    2    1    2    0    0  0.21808322701E-01 -0.43290575794E-02  0.59071675620E-02  0.10209248200E+01  0.10206655915E+01 0.  0.
     999903    2    3    3    0    0  0.12703289627E-01 -0.98923777170E-01  0.84520009166E-01  0.13232421147E+00  0.20464059593E-01 0.  0.
         14    1    1    2    0    0 -0.21808322701E-01  0.43290575794E-02 -0.59071675620E-02  0.23005180007E-01  0.00000000000E+00 0.  1.
     999901    1    3    3    0    0  0.91050330735E-02  0.94594719591E-01 -0.78612841604E-01  0.88860060852E+00  0.88000000000E+00 0. -1.
        -11    1    4    4    0    0 -0.23418458677E-02 -0.59890070647E-01  0.51593246759E-01  0.79084948229E-01  0.51100000000E-03 0.  1.
         11    1    4    4    0    0  0.15045135495E-01 -0.39033706523E-01  0.32926762406E-01  0.53239263242E-01  0.51100000000E-03 0. -1.
</event>
<event>
 8    1  0.1143957E+005  0.1043930E+01  0.7957747E-01            NaN
         13   -1    0    0    0    0  0.00000000000E+00  0.00000000000E+00  0.74505805969E-08  0.10566000000E+00  0.10566000000E+00 0.  1.
     999900   -1    0    0    0    0 -0.00000000000E+00 -0.00000000000E+00 -0.74505805969E-08  0.93827000000E+00  0.93827000000E+00 0.  1.
     999902    2    1    2    0    0 -0.10621638969E-01  0.16253452464E-01 -0.12603504395E-01  0.10207817332E+01  0.10205192329E+01 0.  0.
     999903    2    3    3    0    0  0.34519396357E-01 -0.13920518866E-01 -0.12506449834E+00  0.13196473476E+00  0.19702611602E-01 0.  0.
         14    1    1    2    0    0  0.10621638969E-01 -0.16253452464E-01  0.12603504395E-01  0.23148266770E-01  0.00000000000E+00 0.  1.
     999901    1    3    3    0    0 -0.45141035327E-01  0.30173971330E-01  0.11246099395E+00  0.88881699847E+00  0.88000000000E+00 0. -1.
        -11    1    4    4    0    0  0.25996996483E-01 -0.37271922290E-03 -0.81645838075E-01  0.85687144554E-01  0.51100000000E-03 0. -1.
         11    1    4    4    0    0  0.85223998739E-02 -0.13547799643E-01 -0.43418660265E-01  0.46277590203E-01  0.51100000000E-03 0.  1.
</event>
<event>
 8    1  0.1143957E+005  0.1043930E+01  0.7957747E-01            NaN
         13   -1    0    0    0    0  0.00000000000E+00  0.00000000000E+00  0.74505805969E-08  0.10566000000E+00  0.10566000000E+00 0.  1.
     999900   -1    0    0    0    0 -0.00000000000E+00 -0.00000000000E+00 -0.74505805969E-08  0.93827000000E+00  0.93827000000E+00 0.  1.
     999902    2    1    2    0    0 -0.27678359866E-02  0.10259794846E-01 -0.23101800448E-01  0.10185013254E+01  0.10181838402E+01 0.  0.
     999903    2    3    3    0    0  0.27878181977E-01  0.12321416748E+00 -0.16697157209E-01  0.13072945825E+00  0.29197124780E-01 0.  0.
         14    1    1    2    0    0  0.27678359866E-02 -0.10259794846E-01  0.23101800448E-01  0.25428674567E-01  0.00000000000E+00 0.  1.
     999901    1    3    3    0    0 -0.30646017963E-01 -0.11295437264E+00 -0.64046432385E-02  0.88777186719E+00  0.88000000000E+00 0. -1.
        -11    1    4    4    0    0  0.11353899099E-01  0.76721683528E-01  0.29561977967E-02  0.77615256068E-01  0.51100000000E-03 0.  1.
         11    1    4    4    0    0  0.16524282878E-01  0.46492483955E-01 -0.19653355006E-01  0.53114202177E-01  0.51100000000E-03 0. -1.
</event>
<event>
 8    1  0.1143957E+005  0.1043930E+01  0.7957747E-01            NaN
         13   -1    0    0    0    0  0.00000000000E+00  0.00000000000E+00  0.74505805969E-08  0.10566000000E+00  0.10566000000E+00 0.  1.
     999900   -1    0    0    0    0 -0.00000000000E+00 -0.00000000000E+00 -0.74505805969E-08  0.93827000000E+00  0.93827000000E+00 0. -1.
     999902    2    1    2    0    0  0.35773114672E-02  0.21173129252E-01 -0.10915556421E-01  0.10198416640E+01  0.10195571449E+01 0.  0.
     999903    2    3    3    0    0 -0.12435161880E+00 -0.29342941705E-01 -0.96487944689E-03  0.12910225171E+00  0.18496677464E-01 0.  0.
         14    1    1    2    0    0 -0.35773114672E-02 -0.21173129252E-01  0.10915556421E-01  0.24088336008E-01  0.00000000000E+00 0. -1.
     999901    1    3    3    0    0  0.12792893027E+00  0.50516070957E-01 -0.99506769738E-02  0.89073941228E+00  0.88000000000E+00 0.  1.
        -11    1    4    4    0    0 -0.72677230858E-01 -0.11331117002E-01 -0.77197446840E-02  0.73961001052E-01  0.51100000000E-03 0. -1.
         11    1    4    4    0    0 -0.51674387943E-01 -0.18011824703E-01  0.67548652371E-02  0.55141250655E-01  0.51100000000E-03 0.  1.
</event>
<event>
 8    1  0.1143957E+005  0.1043930E+01  0.7957747E-01            NaN
         13   -1    0    0    0    0  0.00000000000E+00  0.00000000000E+00  0.74505805969E-08  0.10566000000E+00  0.10566000000E+00 0.  1.
     999900   -1    0    0    0    0 -0.00000000000E+00 -0.00000000000E+00 -0.74505805969E-08  0.93827000000E+00  0.93827000000E+00 0.  1.
     999902    2    1    2    0    0  0.21617014348E-01  0.10516295530E-01 -0.64083845335E-02  0.10190511903E+01  0.10187474531E+01 0.  0.
     999903    2    3    3    0    0  0.56082537391E-01  0.85325842857E-01 -0.81288014548E-01  0.13203862010E+00  0.20017627990E-01 0.  0.
         14    1    1    2    0    0 -0.21617014348E-01 -0.10516295530E-01  0.64083845335E-02  0.24878809725E-01  0.00000000000E+00 0. -1.
     999901    1    3    3    0    0 -0.34465523043E-01 -0.74809547326E-01  0.74879630015E-01  0.88701257017E+00  0.88000000000E+00 0.  1.
        -11    1    4    4    0    0  0.33240148350E-01  0.58598937657E-01 -0.42364938536E-01  0.79585124835E-01  0.51100000000E-03 0. -1.
         11    1    4    4    0    0  0.22842389041E-01  0.26726905200E-01 -0.38923076013E-01  0.52453495269E-01  0.51100000000E-03 0.  1.
</event>
<event>
 8    1  0.1143957E+005  0.1043930E+01  0.7957747E-01            NaN
         13   -1    0    0    0    0  0.00000000000E+00  0.00000000000E+00  0.74505805969E-08  0.10566000000E+00  0.10566000000E+00 0.  1.
     999900   -1    0    0    0    0 -0.00000000000E+00 -0.00000000000E+00 -0.74505805969E-08  0.93827000000E+00  0.93827000000E+00 0.  1.
     999902    2    1    2    0    0 -0.14304825015E-01  0.12973170098E-01 -0.14038638364E-01  0.10200550230E+01  0.10197755809E+01 0.  0.
     999903    2    3    3    0    0  0.27074951902E-01  0.10785741832E+00  0.61975547466E-01  0.13073311109E+00  0.29730491847E-01 0.  0.
         14    1    1    2    0    0  0.14304825015E-01 -0.12973170098E-01  0.14038638364E-01  0.23874977031E-01  0.00000000000E+00 0.  1.
     999901    1    3    3    0    0 -0.41379776917E-01 -0.94884248219E-01 -0.76014185830E-01  0.88932191188E+00  0.88000000000E+00 0. -1.
        -11    1    4    4    0    0  0.31855284185E-01  0.72588512430E-01  0.46640366390E-01  0.91975193206E-01  0.51100000000E-03 0. -1.
         11    1    4    4    0    0 -0.47803322824E-02  0.35268905887E-01  0.15335181076E-01  0.38757917886E-01  0.51100000000E-03 0.  1.
</event>
<event>
 8    1  0.1143957E+005  0.1043930E+01  0.7957747E-01            NaN
         13   -1    0    0    0    0  0.00000000000E+00  0.00000000000E+00  0.74505805969E-08  0.10566000000E+00  0.10566000000E+00 0. -1.
     999900   -1    0    0    0    0 -0.00000000000E+00 -0.00000000000E+00 -0.74505805969E-08  0.93827000000E+00  0.93827000000E+00 0.  1.
     999902    2    1    2    0    0 -0.18699454410E-01 -0.29836417703E-01  0.41132522385E-02  0.10084786212E+01  0.10078553116E+01 0.  0.
     999903    2    3    3    0    0 -0.11381630279E+00 -0.37199974875E-01  0.20725840406E-01  0.12316657737E+00  0.20061316246E-01 0.  0.
         14    1    1    2    0    0  0.18699454410E-01  0.29836417703E-01 -0.41132522385E-02  0.35451378824E-01  0.00000000000E+00 0. -1.
     999901    1    3    3    0    0  0.95116848380E-01  0.73635571723E-02 -0.16612588167E-01  0.88531204380E+00  0.88000000000E+00 0.  1.
        -11    1    4    4    0    0 -0.68915008754E-01 -0.32522668119E-01  0.11177567444E-01  0.77020786209E-01  0.51100000000E-03 0.  1.
         11    1    4    4    0    0 -0.44901294035E-01 -0.46773067557E-02  0.95482729619E-02  0.46145791163E-01  0.51100000000E-03 0. -1.
</event>
<event>
 7    1  0.1143957E+005  0.1043930E+01  0.7957747E-01            NaN
         13   -1    0    0    0    0  0.00000000000E+00  0.00000000000E+00  0.74505805969E-08  0.10566000000E+00  0.10566000000E+00 0.  1.
     999900   -1    0    0    0    0 -0.00000000000E+00 -0.00000000000E+00 -0.74505805969E-08  0.93827000000E+00  0.93827000000E+00 0. -1.
     999902    2    1    2    0    0 -0.10989659754E-01 -0.18428234001E-01 -0.80736303652E-02  0.10210049932E+01  0.10207475889E+01 0.  0.
         14    1    1    2    0    0  0.10989659754E-01  0.18428234001E-01  0.80736303652E-02  0.22925006808E-01  0.00000000000E+00 0.  1.
     999901    1    3    3    0    0 -0.20546002365E-01  0.56899302760E-01 -0.10837738103E+00  0.88870992207E+00  0.88000000000E+00 0. -1.
        -11    1    3    3    0    0  0.11514439738E-01 -0.18564538976E-01  0.56465065627E-01  0.60545761100E-01  0.51100000000E-03 0. -1.
         11    1    3    3    0    0 -0.19580971268E-02 -0.56762997785E-01  0.43838685036E-01  0.71749310021E-01  0.51100000000E-03 0.  1.
</event>
<event>
 8    1  0.1143957E+005  0.1043930E+01  0.7957747E-01            NaN
         13   -1    0    0    0    0  0.00000000000E+00  0.00000000000E+00  0.74505805969E-08  0.10566000000E+00  0.10566000000E+00 0. -1.
     999900   -1    0    0    0    0 -0.00000000000E+00 -0.00000000000E+00 -0.74505805969E-08  0.93827000000E+00  0.93827000000E+00 0. -1.
     999902    2    1    2    0    0 -0.21785727148E-01 -0.93926383472E-02  0.55466471285E-02  0.10195659926E+01  0.10192748444E+01 0.  0.
     999903    2    3    3    0    0  0.59401777269E-01 -0.24955181024E-01  0.11056271236E+00  0.12947499861E+00  0.19706082807E-01 0.  0.
         14    1    1    2    0    0  0.21785727148E-01  0.93926383472E-02 -0.55466471285E-02  0.24364007405E-01  0.00000000000E+00 0. -1.
     999901    1    3    3    0    0 -0.81187504417E-01  0.15562542677E-01 -0.10501606523E+00  0.89009099398E+00  0.88000000000E+00 0. -1.
        -11    1    4    4    0    0  0.49945183596E-01 -0.20964626629E-01  0.75398333832E-01  0.92839683325E-01  0.51100000000E-03 0.  1.
         11    1    4    4    0    0  0.94565936727E-02 -0.39905543958E-02  0.35164378526E-01  0.36635315290E-01  0.51100000000E-03 0. -1.
</event>
<event>
 8    1  0.1143957E+005  0.1043930E+01  0.7957747E-01            NaN
         13   -1    0    0    0    0  0.00000000000E+00  0.00000000000E+00  0.74505805969E-08  0.10566000000E+00  0.10566000000E+00 0.  1.
     999900   -1    0    0    0    0 -0.00000000000E+00 -0.00000000000E+00 -0.74505805969E-08  0.93827000000E+00  0.93827000000E+00 0.  1.
     999902    2    1    2    0    0  0.15132335428E-01 -0.16133338967E-01 -0.78033655284E-02  0.10204744097E+01  0.10202048109E+01 0.  0.
     999903    2    3    3    0    0  0.10159906219E+00  0.77895821532E-01  0.15885497397E-01  0.13093568651E+00  0.22398136641E-01 0.  0.
         14    1    1    2    0    0 -0.15132335428E-01  0.16133338967E-01  0.78033655284E-02  0.23455590278E-01  0.00000000000E+00 0.  1.
     999901    1    3    3    0    0 -0.86466726763E-01 -0.94029160498E-01 -0.23688862925E-01  0.88953872321E+00  0.88000000000E+00 0.  1.
        -11    1    4    4    0    0  0.75378647744E-01  0.45263134576E-01  0.13955027234E-01  0.89026376953E-01  0.51100000000E-03 0. -1.
         11    1    4    4    0    0  0.26220414447E-01  0.32632686956E-01  0.19304701623E-02  0.41909309560E-01  0.51100000000E-03 0.  1.
</event>
<event>
 8    1  0.1143957E+005  0.1043930E+01  0.7957747E-01            NaN
         13   -1    0    0    0    0  0.00000000000E+00  0.00000000000E+00  0.74505805969E-08  0.10566000000E+00  0.10566000000E+00 0. -1.
     999900   -1    0    0    0    0 -0.00000000000E+00 -0.00000000000E+00 -0.74505805969E-08  0.93827000000E+00  0.93827000000E+00 0.  1.
     999902    2    1    2    0    0  0.76170532410E-02 -0.15595331332E-01 -0.15612848910E-01  0.10205848739E+01  0.10203178377E+01 0.  0.
     999903    2    3    3    0    0 -0.12373639215E+00  0.23039883308E-01 -0.25281493913E-01  0.12994471646E+00  0.20123231265E-01 0.  0.
         14    1    1    2    0    0 -0.76170532410E-02  0.15595331332E-01  0.15612848910E-01  0.23345126055E-01  0.00000000000E+00 0. -1.
     999901    1    3    3    0    0  0.13135344539E+00 -0.38635214640E-01  0.96686450034E-02  0.89064015748E+00  0.88000000000E+00 0. -1.
        -11    1    4    4    0    0 -0.49879119559E-01  0.15179629580E-01 -0.18641058730E-01  0.55372356946E-01  0.51100000000E-03 0. -1.
         11    1    4    4    0    0 -0.73857272592E-01  0.78602537281E-02 -0.66404351836E-02  0.74572359516E-01  0.51100000000E-03 0.  1.
</event>
<event>
 8    1  0.1143957E+005  0.1043930E+01  0.7957747E-01            NaN
         13   -1    0    0    0    0  0.00000000000E+00  0.00000000000E+00  0.74505805969E-08  0.10566000000E+00  0.10566000000E+00 0. -1.
     999900   -1    0    0    0    0 -0.00000000000E+00 -0.00000000000E+00 -0.74505805969E-08  0.93827000000E+00  0.93827000000E+00 0.  1.
     999902    2    1    2    0    0  0.43460583579E-02 -0.19608109563E-01 -0.12195325118E-01  0.10204333590E+01  0.10201628047E+01 0.  0.
     999903    2    3    3    0    0  0.49563546797E-01 -0.30409757756E-03 -0.12096591722E+00  0.13237462904E+00  0.20824304034E-01 0.  0.
         14    1    1    2    0    0 -0.43460583579E-02  0.19608109563E-01  0.12195325118E-01  0.23496641008E-01  0.00000000000E+00 0. -1.
     999901    1    3    3    0    0 -0.45217488439E-01 -0.19304011986E-01  0.10877059210E+00  0.88805872995E+00  0.88000000000E+00 0. -1.
        -11    1    4    4    0    0  0.31288702118E-01  0.99021990746E-02 -0.74285125335E-01  0.81213160226E-01  0.51100000000E-03 0. -1.
         11    1    4    4    0    0  0.18274844678E-01 -0.10206296652E-01 -0.46680791883E-01  0.51161468814E-01  0.51100000000E-03 0.  1.
</event>
<event>
 8    1  0.1143957E+005  0.1043930E+01  0.7957747E-01            NaN
         13   -1    0    0    0    0  0.00000000000E+00  0.00000000000E+00  0.74505805969E-08  0.10566000000E+00  0.10566000000E+00 0. -1.
     999900   -1    0    0    0    0 -0.00000000000E+00 -0.00000000000E+00 -0.74505805969E-08  0.93827000000E+00  0.93827000000E+00 0. -1.
     999902    2    1    2    0    0  0.10272441969E-01  0.18389036209E-01 -0.11981011227E-01  0.10196972877E+01  0.10194093065E+01 0.  0.
     999903    2    3    3    0    0 -0.67068485396E-01  0.62320506389E-01 -0.92229308735E-01  0.13158052600E+00  0.20619461246E-01 0.  0.
         14    1    1    2    0    0 -0.10272441969E-01 -0.18389036209E-01  0.11981011227E-01  0.24232712327E-01  0.00000000000E+00 0. -1.
     999901    1    3    3    0    0  0.77340927365E-01 -0.43931470180E-01  0.80248297508E-01  0.88811676168E+00  0.88000000000E+00 0.  1.
        -11    1    4    4    0    0 -0.37056200287E-01  0.20449830452E-01 -0.41354919884E-01  0.59176414769E-01  0.51100000000E-03 0. -1.
         11    1    4    4    0    0 -0.30012285108E-01  0.41870675936E-01 -0.50874388851E-01  0.72404111228E-01  0.51100000000E-03 0.  1.
</event>
<event>
 8    1  0.1143957E+005  0.1043930E+01  0.7957747E-01            NaN
         13   -1    0    0    0    0  0.00000000000E+00  0.00000000000E+00  0.74505805969E-08  0.10566000000E+00  0.10566000000E+00 0.  1.
     999900   -1    0    0    0    0 -0.00000000000E+00 -0.00000000000E+00 -0.74505805969E-08  0.93827000000E+00  0.93827000000E+00 0. -1.
     999902    2    1    2    0    0  0.12655765093E-01 -0.12996624481E-01  0.14078546165E-01  0.10209672889E+01  0.10207090276E+01 0.  0.
     999903    2    3    3    0    0 -0.10254410908E+00  0.72616457229E-01  0.21901035133E-01  0.12930490769E+00  0.21252285664E-01 0.  0.
         14    1    1    2    0    0 -0.12655765093E-01  0.12996624481E-01 -0.14078546165E-01  0.22962711079E-01  0.00000000000E+00 0. -1.
     999901    1    3    3    0    0  0.11519987417E+00 -0.85613081709E-01 -0.78224889687E-02  0.89166238123E+00  0.88000000000E+00 0.  1.
        -11    1    4    4    0    0 -0.57234531499E-01  0.51180776551E-01  0.18977605494E-01  0.79092819621E-01  0.51100000000E-03 0. -1.
         11    1    4    4    0    0 -0.45309577578E-01  0.21435680677E-01  0.29234296397E-02  0.50212088069E-01  0.51100000000E-03 0.  1.
</event>
<event>
 8    1  0.1143957E+005  0.1043930E+01  0.7957747E-01            NaN
         13   -1    0    0    0    0  0.00000000000E+00  0.00000000000E+00  0.74505805969E-08  0.10566000000E+00  0.10566000000E+00 0.  1.
     999900   -1    0    0    0    0 -0.00000000000E+00 -0.00000000000E+00 -0.74505805969E-08  0.93827000000E+00  0.93827000000E+00 0. -1.
     999902    2    1    2    0    0  0.17464985126E-01  0.16235747860E-01 -0.77171988519E-02  0.10188664733E+01  0.10185581525E+01 0.  0.
     999903    2    3    3    0    0 -0.11815315616E+00 -0.39633492563E-01 -0.90332154334E-02  0.12672557399E+00  0.21137409474E-01 0.  0.
         14    1    1    2    0    0 -0.17464985126E-01 -0.16235747860E-01  0.77171988519E-02  0.25063526730E-01  0.00000000000E+00 0.  1.
     999901    1    3    3    0    0  0.13561814128E+00  0.55869240423E-01  0.13160165815E-02  0.89214089928E+00  0.88000000000E+00 0.  1.
        -11    1    4    4    0    0 -0.51922881785E-01 -0.16773157186E-01 -0.14455902566E-01  0.56449611999E-01  0.51100000000E-03 0. -1.
         11    1    4    4    0    0 -0.66230274372E-01 -0.22860335377E-01  0.54226871323E-02  0.70275961990E-01  0.51100000000E-03 0.  1.
</event>
<event>
 8    1  0.1143957E+005  0.1043930E+01  0.7957747E-01            NaN
         13   -1    0    0    0    0  0.00000000000E+00  0.00000000000E+00  0.74505805969E-08  0.10566000000E+00  0.10566000000E+00 0. -1.
     999900   -1    0    0    0    0 -0.00000000000E+00 -0.00000000000E+00 -0.74505805969E-08  0.93827000000E+00  0.93827000000E+00 0.  1.
     999902    2    1    2    0    0 -0.16395932988E-01 -0.13917485507E-01  0.51075599747E-02  0.10218254713E+01  0.10215863564E+01 0.  0.
     999903    2    3    3    0    0 -0.21021325937E-01 -0.10290283526E+00  0.80499298878E-01  0.13411848075E+00  0.21834379093E-01 0.  0.
         14    1    1    2    0    0  0.16395932988E-01  0.13917485507E-01 -0.51075599747E-02  0.22104528728E-01  0.00000000000E+00 0.  1.
     999901    1    3    3    0    0  0.46253929490E-02  0.88985349750E-01 -0.75391738903E-01  0.88770699052E+00  0.88000000000E+00 0.  1.
        -11    1    4    4    0    0 -0.66406366465E-02 -0.76335485582E-01  0.63026325579E-01  0.99215841734E-01  0.51100000000E-03 0.  1.
         11    1    4    4    0    0 -0.14380689291E-01 -0.26567349675E-01  0.17472973299E-01  0.34902639014E-01  0.51100000000E-03 0. -1.
</event>
<event>
 8    1  0.1143957E+005  0.1043930E+01  0.7957747E-01            NaN
         13   -1    0    0    0    0  0.00000000000E+00  0.00000000000E+00  0.74505805969E-08  0.10566000000E+00  0.10566000000E+00 0.  1.
     999900   -1    0    0    0    0 -0.00000000000E+00 -0.00000000000E+00 -0.74505805969E-08  0.93827000000E+00  0.93827000000E+00 0. -1.
     999902    2    1    2    0    0 -0.22967994949E-01  0.32710193179E-02 -0.85122204602E-03  0.10207146400E+01  0.10204505982E+01 0.  0.
     999903    2    3    3    0    0 -0.92739521864E-02 -0.12901831481E+00 -0.71510144531E-02  0.13069908842E+00  0.17302686486E-01 0.  0.
         14    1    1    2    0    0  0.22967994949E-01 -0.32710193179E-02  0.85122204602E-03  0.23215359965E-01  0.00000000000E+00 0. -1.
     999901    1    3    3    0    0 -0.13694042762E-01  0.13228933413E+00  0.62997924071E-02  0.89001555161E+00  0.88000000000E+00 0. -1.
        -11    1    4    4    0    0 -0.10137635387E-01 -0.37481521419E-01  0.52841673826E-03  0.38835247448E-01  0.51100000000E-03 0.  1.
         11    1    4    4    0    0  0.86368320082E-03 -0.91536793395E-01 -0.76794311914E-02  0.91863840972E-01  0.51100000000E-03 0. -1.
</event>
<event>
 8    1  0.1143957E+005  0.1043930E+01  0.7957747E-01            NaN
         13   -1    0    0    0    0  0.00000000000E+00  0.00000000000E+00  0.74505805969E-08  0.10566000000E+00  0.10566000000E+00 0. -1.
     999900   -1    0    0    0    0 -0.00000000000E+00 -0.00000000000E+00 -0.74505805969E-08  0.93827000000E+00  0.93827000000E+00 0.  1.
     999902    2    1    2    0    0  0.12262003528E-01  0.17079389443E-02 -0.20000226997E-01  0.10204080344E+01  0.10201368897E+01 0.  0.
     999903    2    3    3    0    0  0.10669320430E+00  0.34170653771E-01 -0.69365303137E-01  0.13338605593E+00  0.20717654672E-01 0.  0.
         14    1    1    2    0    0 -0.12262003528E-01 -0.17079389443E-02  0.20000226997E-01  0.23521965604E-01  0.00000000000E+00 0. -1.
     999901    1    3    3    0    0 -0.94431200773E-01 -0.32462714827E-01  0.49365076140E-01  0.88702197846E+00  0.88000000000E+00 0.  1.
        -11    1    4    4    0    0  0.61352024030E-01  0.25034245712E-01 -0.50998848426E-01  0.83617749148E-01  0.51100000000E-03 0. -1.
         11    1    4    4    0    0  0.45341180271E-01  0.91364080593E-02 -0.18366454711E-01  0.49768306785E-01  0.51100000000E-03 0.  1.
</event>
<event>
 8    1  0.1143957E+005  0.1043930E+01  0.7957747E-01            NaN
         13   -1    0    0    0    0  0.00000000000E+00  0.00000000000E+00  0.74505805969E-08  0.10566000000E+00  0.10566000000E+00 0. -1.
     999900   -1    0    0    0    0 -0.00000000000E+00 -0.00000000000E+00 -0.74505805969E-08  0.93827000000E+00  0.93827000000E+00 0. -1.
     999902    2    1    2    0    0 -0.54195980592E-02 -0.13457045791E-01  0.16756538903E-01  0.10217659363E+01  0.10215255175E+01 0.  0.
     999903    2    3    3    0    0  0.31557312915E-01  0.12181631419E+00 -0.24716962441E-01  0.12969742704E+00  0.19375653458E-01 0.  0.
         14    1    1    2    0    0  0.54195980592E-02  0.13457045791E-01 -0.16756538903E-01  0.22164063719E-01  0.00000000000E+00 0.  1.
     999901    1    3    3    0    0 -0.36976910974E-01 -0.13527335998E+00  0.41473501344E-01  0.89206850924E+00  0.88000000000E+00 0.  1.
        -11    1    4    4    0    0  0.88992076635E-02  0.17348455155E-01  0.17159250977E-02  0.19579844566E-01  0.51100000000E-03 0. -1.
         11    1    4    4    0    0  0.22658105252E-01  0.10446785904E+00 -0.26432887539E-01  0.11011758247E+00  0.51100000000E-03 0.  1.
</event>
<event>
 8    1  0.1143957E+005  0.1043930E+01  0.7957747E-01            NaN
         13   -1    0    0    0    0  0.00000000000E+00  0.00000000000E+00  0.74505805969E-08  0.10566000000E+00  0.10566000000E+00 0.  1.
     999900   -1    0    0    0    0 -0.00000000000E+00 -0.00000000000E+00 -0.74505805969E-08  0.93827000000E+00  0.93827000000E+00 0. -1.
     999902    2    1    2    0    0  0.24055124543E-01 -0.15598727308E-02 -0.10431565876E-01  0.10176640565E+01  0.10173250376E+01 0.  0.
     999903    2    3    3    0    0  0.40546577145E-01 -0.11933387434E+00  0.20872032085E-01  0.12911321459E+00  0.18707805236E-01 0.  0.
         14    1    1    2    0    0 -0.24055124543E-01  0.15598727308E-02  0.10431565876E-01  0.26265943469E-01  0.00000000000E+00 0. -1.
     999901    1    3    3    0    0 -0.16491452603E-01  0.11777400161E+00 -0.31303597961E-01  0.88855084194E+00  0.88000000000E+00 0.  1.
        -11    1    4    4    0    0  0.19144584393E-02 -0.60112856514E-02 -0.30390653355E-02  0.70212353195E-02  0.51100000000E-03 0.  1.
         11    1    4    4    0    0  0.38632118706E-01 -0.11332258869E+00  0.23911097421E-01  0.12209197927E+00  0.51100000000E-03 0. -1.
</event>
<event>
 8    1  0.1143957E+005  0.1043930E+01  0.7957747E-01            NaN
         13   -1    0    0    0    0  0.00000000000E+00  0.00000000000E+00  0.74505805969E-08  0.10566000000E+00  0.10566000000E+00 0.  1.
     999900   -1    0    0    0    0 -0.00000000000E+00 -0.00000000000E+00 -0.74505805969E-08  0.93827000000E+00  0.93827000000E+00 0.  1.
     999902    2    1    2    0    0 -0.15235687266E-01 -0.12737965149E-01  0.13207598755E-01  0.10200799982E+01  0.10198011473E+01 0.  0.
     999903    2    3    3    0    0 -0.80753856777E-02  0.60001668336E-01  0.11425162253E+00  0.13128743579E+00  0.22749626130E-01 0.  0.
         14    1    1    2    0    0  0.15235687266E-01  0.12737965149E-01 -0.13207598755E-01  0.23850001834E-01  0.00000000000E+00 0. -1.
     999901    1    3    3    0    0 -0.71603015882E-02 -0.72739633485E-01 -0.10104402377E+00  0.88879256238E+00  0.88000000000E+00 0.  1.
        -11    1    4    4    0    0  0.55508063402E-02  0.40298882980E-01  0.69889975515E-01  0.80868295512E-01  0.51100000000E-03 0.  1.
         11    1    4    4    0    0 -0.13626192018E-01  0.19702785355E-01  0.44361647011E-01  0.50419140276E-01  0.51100000000E-03 0. -1.
</event>
<event>
 8    1  0.1143957E+005  0.1043930E+01  0.7957747E-01            NaN
         13   -1    0    0    0    0  0.00000000000E+00  0.00000000000E+00  0.74505805969E-08  0.10566000000E+00  0.10566000000E+00 0.  1.
     999900   -1    0    0    0    0 -0.00000000000E+00 -0.00000000000E+00 -0.74505805969E-08  0.93827000000E+00  0.93827000000E+00 0.  1.
     999902    2    1    2    0    0 -0.17363806730E-01 -0.26955056009E-02  0.16294354277E-01  0.10199659954E+01  0.10196844405E+01 0.  0.
     999903    2    3    3    0    0  0.39909883500E-01  0.75284787533E-01  0.97426883465E-01  0.13095323453E+00  0.19903617223E-01 0.  0.
         14    1    1    2    0    0  0.17363806730E-01  0.26955056009E-02 -0.16294354277E-01  0.23964004588E-01  0.00000000000E+00 0. -1.
     999901    1    3    3    0    0 -0.57273690230E-01 -0.77980293134E-01 -0.81132529188E-01  0.88901276088E+00  0.88000000000E+00 0.  1.
        -11    1    4    4    0    0  0.79543123437E-02  0.34749610814E-01  0.44531305634E-01  0.57044761714E-01  0.51100000000E-03 0.  1.
         11    1    4    4    0    0  0.31955571157E-01  0.40535176718E-01  0.52895577831E-01  0.73908472821E-01  0.51100000000E-03 0. -1.
</event>
<event>
 8    1  0.1143957E+005  0.1043930E+01  0.7957747E-01            NaN
         13   -1    0    0    0    0  0.00000000000E+00  0.00000000000E+00  0.74505805969E-08  0.10566000000E+00  0.10566000000E+00 0.  1.
     999900   -1    0    0    0    0 -0.00000000000E+00 -0.00000000000E+00 -0.74505805969E-08  0.93827000000E+00  0.93827000000E+00 0. -1.
     999902    2    1    2    0    0  0.10514356300E-01 -0.65390898449E-02  0.20222946294E-01  0.10202175783E+01  0.10199419730E+01 0.  0.
     999903    2    3    3    0    0 -0.18481627259E-01  0.12700144293E+00 -0.87520467169E-02  0.12919940165E+00  0.12039518830E-01 0.  0.
         14    1    1    2    0    0 -0.10514356300E-01  0.65390898449E-02 -0.20222946294E-01  0.23712421665E-01  0.00000000000E+00 0. -1.
     999901    1    3    3    0    0  0.28995983559E-01 -0.13354053277E+00  0.28974993011E-01  0.89101817668E+00  0.88000000000E+00 0.  1.
        -11    1    4    4    0    0 -0.83006991544E-02  0.66059306865E-01 -0.10402951794E-01  0.67388546185E-01  0.51100000000E-03 0. -1.
         11    1    4    4    0    0 -0.10180928104E-01  0.60942136065E-01  0.16509050773E-02  0.61810855469E-01  0.51100000000E-03 0.  1.
</event>
<event>
 8    1  0.1143957E+005  0.1043930E+01  0.7957747E-01            NaN
         13   -1    0    0    0    0  0.00000000000E+00  0.00000000000E+00  0.74505805969E-08  0.10566000000E+00  0.10566000000E+00 0. -1.
     999900   -1    0    0    0    0 -0.00000000000E+00 -0.00000000000E+00 -0.74505805969E-08  0.93827000000E+00  0.93827000000E+00 0.  1.
     999902    2    1    2    0    0 -0.76147432947E-02  0.17721936261E-02 -0.21403843860E-01  0.10211429529E+01  0.10208886720E+01 0.  0.
     999903    2    3    3    0    0 -0.78551148119E-01  0.57790665898E-01  0.83582230152E-01  0.13030507843E+00  0.21985912136E-01 0.  0.
         14    1    1    2    0    0  0.76147432947E-02 -0.17721936261E-02  0.21403843860E-01  0.22787047147E-01  0.00000000000E+00 0. -1.
     999901    1    3    3    0    0  0.70936404825E-01 -0.56018472272E-01 -0.10498607401E+00  0.89083787442E+00  0.88000000000E+00 0.  1.
        -11    1    4    4    0    0 -0.40422778504E-01  0.16320570649E-01  0.38163654545E-01  0.57940380543E-01  0.51100000000E-03 0.  1.
         11    1    4    4    0    0 -0.38128369616E-01  0.41470095249E-01  0.45418575607E-01  0.72364697890E-01  0.51100000000E-03 0. -1.
</event>
<event>
 8    1  0.1143957E+005  0.1043930E+01  0.7957747E-01            NaN
         13   -1    0    0    0    0  0.00000000000E+00  0.00000000000E+00  0.74505805969E-08  0.10566000000E+00  0.10566000000E+00 0. -1.
     999900   -1    0    0    0    0 -0.00000000000E+00 -0.00000000000E+00 -0.74505805969E-08  0.93827000000E+00  0.93827000000E+00 0. -1.
     999902    2    1    2    0    0  0.19385218664E-01  0.73561152053E-02 -0.94485485611E-02  0.10211446055E+01  0.10208903619E+01 0.  0.
     999903    2    3    3    0    0  0.85016570015E-01  0.98907810019E-01  0.17231310450E-01  0.13356305881E+00  0.23056464605E-01 0.  0.
         14    1    1    2    0    0 -0.19385218664E-01 -0.73561152053E-02  0.94485485611E-02  0.22785394521E-01  0.00000000000E+00 0. -1.
     999901    1    3    3    0    0 -0.65631351351E-01 -0.91551694814E-01 -0.26679859011E-01  0.88758154667E+00  0.88000000000E+00 0. -1.
        -11    1    4    4    0    0  0.24181144617E-01  0.43790640949E-01  0.11096937353E-01  0.51242083577E-01  0.51100000000E-03 0. -1.
         11    1    4    4    0    0  0.60835425398E-01  0.55117169070E-01  0.61343730963E-02  0.82320975237E-01  0.51100000000E-03 0.  1.
</event>
<event>
 8    1  0.1143957E+005  0.1043930E+01  0.7957747E-01            NaN
         13   -1    0    0    0    0  0.00000000000E+00  0.00000000000E+00  0.74505805969E-08  0.10566000000E+00  0.10566000000E+00 0.  1.
     999900   -1    0    0    0    0 -0.00000000000E+00 -0.00000000000E+00 -0.74505805969E-08  0.93827000000E+00  0.93827000000E+00 0. -1.
     999902    2    1    2    0    0  0.22927398580E-01  0.17301035448E-02 -0.51409938426E-02  0.10203696799E+01  0.10200976400E+01 0.  0.
     999903    2    3    3    0    0  0.11891267657E+00 -0.50891175483E-01 -0.26134860866E-01  0.13333928866E+00  0.19136315074E-01 0.  0.
         14    1    1    2    0    0 -0.22927398580E-01 -0.17301035448E-02  0.51409938426E-02  0.23560320066E-01  0.00000000000E+00 0.  1.
     999901    1    3    3    0    0 -0.95985277995E-01  0.52621279027E-01  0.20993867023E-01  0.88703039128E+00  0.88000000000E+00 0.  1.
        -11    1    4    4    0    0  0.63640570765E-01 -0.36727149203E-01 -0.18478394010E-01  0.75767525379E-01  0.51100000000E-03 0.  1.
         11    1    4    4    0    0  0.55272105810E-01 -0.14164026280E-01 -0.76564668558E-02  0.57571763277E-01  0.51100000000E-03 0. -1.
</event>
<event>
 8    1  0.1143957E+005  0.1043930E+01  0.7957747E-01            NaN
         13   -1    0    0    0    0  0.00000000000E+00  0.00000000000E+00  0.74505805969E-08  0.10566000000E+00  0.10566000000E+00 0.  1.
     999900   -1    0    0    0    0 -0.00000000000E+00 -0.00000000000E+00 -0.74505805969E-08  0.93827000000E+00  0.93827000000E+00 0. -1.
     999902    2    1    2    0    0 -0.35638025603E-02  0.81416882147E-02 -0.22134438965E-01  0.10200779317E+01  0.10197990319E+01 0.  0.
     999903    2    3    3    0    0 -0.11699803074E+00 -0.40062267031E-01 -0.39317050969E-01  0.13132251673E+00  0.20155606288E-01 0.  0.
         14    1    1    2    0    0  0.35638025603E-02 -0.81416882147E-02  0.22134438965E-01  0.23852068338E-01  0.00000000000E+00 0.  1.
     999901    1    3    3    0    0  0.11343422818E+00  0.48203955246E-01  0.17182612004E-01  0.88875541494E+00  0.88000000000E+00 0. -1.
        -11    1    4    4    0    0 -0.89600237154E-01 -0.28735170483E-01 -0.38476314961E-01  0.10165923694E+00  0.51100000000E-03 0.  1.
         11    1    4    4    0    0 -0.27397793588E-01 -0.11327096549E-01 -0.84073600823E-03  0.29663279788E-01  0.51100000000E-03 0. -1.
</event>
<event>
 8    1  0.1143957E+005  0.1043930E+01  0.7957747E-01            NaN
         13   -1    0    0    0    0  0.00000000000E+00  0.00000000000E+00  0.74505805969E-08  0.10566000000E+00  0.10566000000E+00 0. -1.
     999900   -1    0    0    0    0 -0.00000000000E+00 -0.00000000000E+00 -0.74505805969E-08  0.93827000000E+00  0.93827000000E+00 0. -1.
     999902    2    1    2    0    0  0.21920152568E-01  0.68328060331E-03  0.87685095706E-02  0.10203112210E+01  0.10200378135E+01 0.  0.
     999903    2    3    3    0    0  0.92318099290E-01  0.65218826265E-01 -0.65429647852E-01  0.13203982435E+00  0.19425489448E-01 0.  0.
         14    1    1    2    0    0 -0.21920152568E-01 -0.68328060331E-03 -0.87685095706E-02  0.23618778992E-01  0.00000000000E+00 0.  1.
     999901    1    3    3    0    0 -0.70397946722E-01 -0.64535545662E-01  0.74198157423E-01  0.88827139666E+00  0.88000000000E+00 0. -1.
        -11    1    4    4    0    0  0.85784385112E-01  0.53881688226E-01 -0.60810002213E-01  0.11815377499E+00  0.51100000000E-03 0.  1.
         11    1    4    4    0    0  0.65337141780E-02  0.11337138039E-01 -0.46196456389E-02  0.13886049356E-01  0.51100000000E-03 0. -1.
</event>
<event>
 8    1  0.1143957E+005  0.1043930E+01  0.7957747E-01            NaN
         13   -1    0    0    0    0  0.00000000000E+00  0.00000000000E+00  0.74505805969E-08  0.10566000000E+00  0.10566000000E+00 0.  1.
     999900   -1    0    0    0    0 -0.00000000000E+00 -0.00000000000E+00 -0.74505805969E-08  0.93827000000E+00  0.93827000000E+00 0.  1.
     999902    2    1    2    0    0 -0.11045599132E-01  0.21572541444E-01  0.12126328624E-01  0.10168296743E+01  0.10164684742E+01 0.  0.
     999903    2    3    3    0    0  0.82043216625E-01  0.59438319177E-01  0.77262121855E-01  0.12871818568E+00  0.18301165825E-01 0.  0.
         14    1    1    2    0    0  0.11045599132E-01 -0.21572541444E-01 -0.12126328624E-01  0.27100325652E-01  0.00000000000E+00 0.  1.
     999901    1    3    3    0    0 -0.93088815758E-01 -0.37865777733E-01 -0.65135793232E-01  0.88811148867E+00  0.88000000000E+00 0.  1.
        -11    1    4    4    0    0  0.40614294282E-01  0.33629591365E-01  0.50672467935E-01  0.73132964133E-01  0.51100000000E-03 0. -1.
         11    1    4    4    0    0  0.41428922344E-01  0.25808727812E-01  0.26589653920E-01  0.55585221547E-01  0.51100000000E-03 0.  1.
</event>
<event>
 8    1  0.1143957E+005  0.1043930E+01  0.7957747E-01            NaN
         13   -1    0    0    0    0  0.00000000000E+00  0.00000000000E+00  0.74505805969E-08  0.10566000000E+00  0.10566000000E+00 0.  1.
     999900   -1    0    0    0    0 -0.00000000000E+00 -0.00000000000E+00 -0.74505805969E-08  0.93827000000E+00  0.93827000000E+00 0. -1.
     999902    2    1    2    0    0  0.54914272102E-02  0.16091982648E-01 -0.20633402868E-01  0.10171934147E+01  0.10168419730E+01 0.  0.
     999903    2    3    3    0    0  0.72065413863E-01  0.81983996839E-01  0.64327094385E-01  0.12815340475E+00  0.19248908147E-01 0.  0.
         14    1    1    2    0    0 -0.54914272102E-02 -0.16091982648E-01  0.20633402868E-01  0.26736585277E-01  0.00000000000E+00 0.  1.
     999901    1    3    3    0    0 -0.66573986652E-01 -0.65892014191E-01 -0.84960497254E-01  0.88904000997E+00  0.88000000000E+00 0. -1.
        -11    1    4    4    0    0  0.51089261305E-01  0.67530865345E-01  0.43245533833E-01  0.95084003451E-01  0.51100000000E-03 0. -1.
         11    1    4    4    0    0  0.20976152558E-01  0.14453131495E-01  0.21081560553E-01  0.33069401302E-01  0.51100000000E-03 0.  1.
</event>
<event>
 8    1  0.1143957E+005  0.1043930E+01  0.7957747E-01            NaN
         13   -1    0    0    0    0  0.00000000000E+00  0.00000000000E+00  0.74505805969E-08  0.10566000000E+00  0.10566000000E+00 0. -1.
     999900   -1    0    0    0    0 -0.00000000000E+00 -0.00000000000E+00 -0.74505805969E-08  0.93827000000E+00  0.93827000000E+00 0. -1.
     999902    2    1    2    0    0 -0.21305707330E-01  0.12309774942E-01 -0.30081898712E-02  0.10191406287E+01  0.10188390982E+01 0.  0.
     999903    2    3    3    0    0  0.71005696102E-01  0.21406182919E-01 -0.10327755208E+00  0.12860254144E+00  0.19295785898E-01 0.  0.
         14    1    1    2    0    0  0.21305707330E-01 -0.12309774942E-01  0.30081898712E-02  0.24789371316E-01  0.00000000000E+00 0.  1.
     999901    1    3    3    0    0 -0.92311403432E-01 -0.90964079769E-02  0.10026936221E+00  0.89053808725E+00  0.88000000000E+00 0.  1.
        -11    1    4    4    0    0  0.25599665969E-01 -0.16663949553E-02 -0.32703603932E-01  0.41568095951E-01  0.51100000000E-03 0. -1.
         11    1    4    4    0    0  0.45406030133E-01  0.23072577874E-01 -0.70573948150E-01  0.87034445484E-01  0.51100000000E-03 0.  1.
</event>
<event>
 8    1  0.1143957E+005  0.1043930E+01  0.7957747E-01            NaN
         13   -1    0    0    0    0  0.00000000000E+00  0.00000000000E+00  0.74505805969E-08  0.10566000000E+00  0.10566000000E+00 0.  1.
     999900   -1    0    0    0    0 -0.00000000000E+00 -0.00000000000E+00 -0.74505805969E-08  0.93827000000E+00  0.93827000000E+00 0. -1.
     999902    2    1    2    0    0  0.11536669075E-02  0.22816530589E-01  0.59854501027E-02  0.10203132553E+01  0.10200398955E+01 0.  0.
     999903    2    3    3    0    0 -0.11523024695E+00 -0.43580682709E-02 -0.56742102106E-01  0.13002205577E+00  0.19724762716E-01 0.  0.
         14    1    1    2    0    0 -0.11536669075E-02 -0.22816530589E-01 -0.59854501027E-02  0.23616744661E-01  0.00000000000E+00 0.  1.
     999901    1    3    3    0    0  0.11638391385E+00  0.27174598860E-01  0.62727552209E-01  0.89029119957E+00  0.88000000000E+00 0.  1.
        -11    1    4    4    0    0 -0.88104343264E-01 -0.68680452595E-02 -0.51473226971E-01  0.10227071704E+00  0.51100000000E-03 0.  1.
         11    1    4    4    0    0 -0.27125903683E-01  0.25099769886E-02 -0.52688751345E-02  0.27751338730E-01  0.51100000000E-03 0. -1.
</event>
<event>
 8    1  0.1143957E+005  0.1043930E+01  0.7957747E-01            NaN
         13   -1    0    0    0    0  0.00000000000E+00  0.00000000000E+00  0.74505805969E-08  0.10566000000E+00  0.10566000000E+00 0.  1.
     999900   -1    0    0    0    0 -0.00000000000E+00 -0.00000000000E+00 -0.74505805969E-08  0.93827000000E+00  0.93827000000E+00 0. -1.
     999902    2    1    2    0    0 -0.83008669340E-02 -0.18810509251E-01  0.10864254752E-01  0.10206755019E+01  0.10204105588E+01 0.  0.
     999903    2    3    3    0    0  0.51874300658E-01 -0.11754903351E+00  0.27264568539E-01  0.13295971560E+00  0.20644876527E-01 0.  0.
         14    1    1    2    0    0  0.83008669340E-02  0.18810509251E-01 -0.10864254752E-01  0.23254498091E-01  0.00000000000E+00 0.  1.
     999901    1    3    3    0    0 -0.60175167592E-01  0.98738524260E-01 -0.16400313787E-01  0.88771578631E+00  0.88000000000E+00 0.  1.
        -11    1    4    4    0    0  0.31778454994E-01 -0.72861881407E-01  0.27019766412E-01  0.83958637804E-01  0.51100000000E-03 0. -1.
         11    1    4    4    0    0  0.20095845664E-01 -0.44687152105E-01  0.24480212721E-03  0.49001077797E-01  0.51100000000E-03 0.  1.
</event>
<event>
 8    1  0.1143957E+005  0.1043930E+01  0.7957747E-01            NaN
         13   -1    0    0    0    0  0.00000000000E+00  0.00000000000E+00  0.74505805969E-08  0.10566000000E+00  0.10566000000E+00 0. -1.
     999900   -1    0    0    0    0 -0.00000000000E+00 -0.00000000000E+00 -0.74505805969E-08  0.93827000000E+00  0.93827000000E+00 0. -1.
     999902    2    1    2    0    0  0.14367213217E-01  0.17825892959E-01 -0.69150403159E-02  0.10200135400E+01  0.10197331145E+01 0.  0.
     999903    2    3    3    0    0 -0.77232155509E-01  0.45559102679E-01 -0.92922105807E-01  0.13065602440E+00  0.19900785999E-01 0.  0.
         14    1    1    2    0    0 -0.14367213217E-01 -0.17825892959E-01  0.69150403159E-02  0.23916459980E-01  0.00000000000E+00 0. -1.
     999901    1    3    3    0    0  0.91599368726E-01 -0.27733209720E-01  0.86007065491E-01  0.88935751562E+00  0.88000000000E+00 0.  1.
        -11    1    4    4    0    0 -0.70081009791E-01  0.41734477798E-01 -0.91189789554E-01  0.12234767432E+00  0.51100000000E-03 0.  1.
         11    1    4    4    0    0 -0.71511457181E-02  0.38246248811E-02 -0.17323162528E-02  0.83083500867E-02  0.51100000000E-03 0. -1.
</event>
<event>
 8    1  0.1143957E+005  0.1043930E+01  0.7957747E-01            NaN
         13   -1    0    0    0    0  0.00000000000E+00  0.00000000000E+00  0.74505805969E-08  0.10566000000E+00  0.10566000000E+00 0.  1.
     999900   -1    0    0    0    0 -0.00000000000E+00 -0.00000000000E+00 -0.74505805969E-08  0.93827000000E+00  0.93827000000E+00 0.  1.
     999902    2    1    2    0    0  0.19795018457E-02  0.23584378382E-01  0.10241653953E-01  0.10181417700E+01  0.10178151261E+01 0.  0.
     999903    2    3    3    0    0  0.39032505926E-01 -0.11341518689E+00 -0.28629798169E-01  0.12592386175E+00  0.25507106463E-01 0.  0.
         14    1    1    2    0    0 -0.19795018457E-02 -0.23584378382E-01 -0.10241653953E-01  0.25788230007E-01  0.00000000000E+00 0.  1.
     999901    1    3    3    0    0 -0.37053004080E-01  0.13699956527E+00  0.38871452122E-01  0.89221790824E+00  0.88000000000E+00 0. -1.
        -11    1    4    4    0    0  0.18753538203E-01 -0.21676071747E-01 -0.62762877788E-02  0.29346212546E-01  0.51100000000E-03 0.  1.
         11    1    4    4    0    0  0.20278967723E-01 -0.91739115139E-01 -0.22353510390E-01  0.96577649206E-01  0.51100000000E-03 0. -1.
</event>
<event>
 8    1  0.1143957E+005  0.1043930E+01  0.7957747E-01            NaN
         13   -1    0    0    0    0  0.00000000000E+00  0.00000000000E+00  0.74505805969E-08  0.10566000000E+00  0.10566000000E+00 0. -1.
     999900   -1    0    0    0    0 -0.00000000000E+00 -0.00000000000E+00 -0.74505805969E-08  0.93827000000E+00  0.93827000000E+00 0. -1.
     999902    2    1    2    0    0 -0.20063500523E-01  0.11298923166E-01  0.61253137732E-02  0.10201029316E+01  0.10198246231E+01 0.  0.
     999903    2    3    3    0    0 -0.10836824830E-01  0.10551505994E+00 -0.74798410048E-01  0.13133386093E+00  0.20072773462E-01 0.  0.
         14    1    1    2    0    0  0.20063500523E-01 -0.11298923166E-01 -0.61253137732E-02  0.23827068363E-01  0.00000000000E+00 0. -1.
     999901    1    3    3    0    0 -0.92266756935E-02 -0.94216136770E-01  0.80923723822E-01  0.88876907071E+00  0.88000000000E+00 0.  1.
        -11    1    4    4    0    0 -0.47609721099E-02  0.54150570312E-01 -0.50448993308E-01  0.74164096215E-01  0.51100000000E-03 0.  1.
         11    1    4    4    0    0 -0.60758527199E-02  0.51364489625E-01 -0.24349416740E-01  0.57169764713E-01  0.51100000000E-03 0. -1.
</event>
<event>
 8    1  0.1143957E+005  0.1043930E+01  0.7957747E-01            NaN
         13   -1    0    0    0    0  0.00000000000E+00  0.00000000000E+00  0.74505805969E-08  0.10566000000E+00  0.10566000000E+00 0. -1.
     999900   -1    0    0    0    0 -0.00000000000E+00 -0.00000000000E+00 -0.74505805969E-08  0.93827000000E+00  0.93827000000E+00 0.  1.
     999902    2    1    2    0    0 -0.11948134096E-01 -0.79321263701E-02 -0.18541876886E-01  0.10204890586E+01  0.10202198003E+01 0.  0.
     999903    2    3    3    0    0 -0.12960752370E+00 -0.23700784585E-02 -0.18143055457E-01  0.13264063265E+00  0.21462513732E-01 0.  0.
         14    1    1    2    0    0  0.11948134096E-01  0.79321263701E-02  0.18541876886E-01  0.23440941439E-01  0.00000000000E+00 0. -1.
     999901    1    3    3    0    0  0.11765938961E+00 -0.55620479116E-02 -0.39882142876E-03  0.88784842591E+00  0.88000000000E+00 0. -1.
        -11    1    4    4    0    0 -0.53539248095E-01 -0.96039665771E-02 -0.13977120531E-02  0.54414170770E-01  0.51100000000E-03 0. -1.
         11    1    4    4    0    0 -0.76068275606E-01  0.72338881185E-02 -0.16745343404E-01  0.78226461877E-01  0.51100000000E-03 0.  1.
</event>
<event>
 8    1  0.1143957E+005  0.1043930E+01  0.7957747E-01            NaN
         13   -1    0    0    0    0  0.00000000000E+00  0.00000000000E+00  0.74505805969E-08  0.10566000000E+00  0.10566000000E+00 0. -1.
     999900   -1    0    0    0    0 -0.00000000000E+00 -0.00000000000E+00 -0.74505805969E-08  0.93827000000E+00  0.93827000000E+00 0.  1.
     999902    2    1    2    0    0 -0.46022449028E-02  0.90345307108E-02  0.22047213306E-01  0.10196630880E+01  0.10193742836E+01 0.  0.
     999903    2    3    3    0    0  0.63759944801E-01  0.10887788143E+00 -0.24413441307E-01  0.13016846964E+00  0.20690353987E-01 0.  0.
         14    1    1    2    0    0  0.46022449028E-02 -0.90345307108E-02 -0.22047213306E-01  0.24266911997E-01  0.00000000000E+00 0. -1.
     999901    1    3    3    0    0 -0.68362189704E-01 -0.99843350715E-01  0.46460654613E-01  0.88949461836E+00  0.88000000000E+00 0.  1.
        -11    1    4    4    0    0  0.24668095175E-01  0.25921449841E-01 -0.24664046358E-02  0.35871726391E-01  0.51100000000E-03 0.  1.
         11    1    4    4    0    0  0.39091849626E-01  0.82956431584E-01 -0.21947036671E-01  0.94296743252E-01  0.51100000000E-03 0. -1.
</event>
<event>
 8    1  0.1143957E+005  0.1043930E+01  0.7957747E-01            NaN
         13   -1    0    0    0    0  0.00000000000E+00  0.00000000000E+00  0.74505805969E-08  0.10566000000E+00  0.10566000000E+00 0. -1.
     999900   -1    0    0    0    0 -0.00000000000E+00 -0.00000000000E+00 -0.74505805969E-08  0.93827000000E+00  0.93827000000E+00 0.  1.
     999902    2    1    2    0    0  0.18862148923E-01 -0.68854644665E-02  0.13602148214E-01  0.10196769854E+01  0.10193885156E+01 0.  0.
     999903    2    3    3    0    0  0.11335602872E+00 -0.65221781152E-01 -0.66180779551E-02  0.13246727131E+00  0.20007724204E-01 0.  0.
         14    1    1    2    0    0 -0.18862148923E-01  0.68854644665E-02 -0.13602148214E-01  0.24253014636E-01  0.00000000000E+00 0.  1.
     999901    1    3    3    0    0 -0.94493879802E-01  0.58336316685E-01  0.20220226170E-01  0.88720971405E+00  0.88000000000E+00 0.  1.
        -11    1    4    4    0    0  0.45449399935E-01 -0.21339729072E-01 -0.11338013124E-01  0.51476632115E-01  0.51100000000E-03 0.  1.
         11    1    4    4    0    0  0.67906628790E-01 -0.43882052080E-01  0.47199351689E-02  0.80990639196E-01  0.51100000000E-03 0. -1.
</event>
<event>
 8    1  0.1143957E+005  0.1043930E+01  0.7957747E-01            NaN
         13   -1    0    0    0    0  0.00000000000E+00  0.00000000000E+00  0.74505805969E-08  0.10566000000E+00  0.10566000000E+00 0.  1.
     999900   -1    0    0    0    0 -0.00000000000E+00 -0.00000000000E+00 -0.74505805969E-08  0.93827000000E+00  0.93827000000E+00 0.  1.
     999902    2    1    2    0    0 -0.99189578088E-04  0.22997118515E-01  0.50117190484E-03  0.10209272073E+01  0.10206680333E+01 0.  0.
     999903    2    3    3    0    0 -0.49362295337E-02  0.85257019276E-01 -0.10003380825E+00  0.13300436469E+00  0.19755316644E-01 0.  0.
         14    1    1    2    0    0  0.99189578088E-04 -0.22997118515E-01 -0.50117190484E-03  0.23002792697E-01  0.00000000000E+00 0. -1.
     999901    1    3    3    0    0  0.48370399556E-02 -0.62259900761E-01  0.10053498016E+00  0.88792284261E+00  0.88000000000E+00 0. -1.
        -11    1    4    4    0    0  0.55362052721E-02  0.60132762210E-01 -0.67038620741E-01  0.90227692266E-01  0.51100000000E-03 0. -1.
         11    1    4    4    0    0 -0.10472434806E-01  0.25124257066E-01 -0.32995187510E-01  0.42776672425E-01  0.51100000000E-03 0.  1.
</event>
<event>
 8    1  0.1143957E+005  0.1043930E+01  0.7957747E-01            NaN
         13   -1    0    0    0    0  0.00000000000E+00  0.00000000000E+00  0.74505805969E-08  0.10566000000E+00  0.10566000000E+00 0. -1.
     999900   -1    0    0    0    0 -0.00000000000E+00 -0.00000000000E+00 -0.74505805969E-08  0.93827000000E+00  0.93827000000E+00 0. -1.
     999902    2    1    2    0    0  0.15121197126E-01  0.19223789473E-01 -0.12090100119E-02  0.10194419133E+01  0.10191477558E+01 0.  0.
     999903    2    3    3    0    0  0.55284196803E-01 -0.94243837130E-01 -0.65513519232E-01  0.12892350321E+00  0.19773852048E-01 0.  0.
         14    1    1    2    0    0 -0.15121197126E-01 -0.19223789473E-01  0.12090100119E-02  0.24488086684E-01  0.00000000000E+00 0.  1.
     999901    1    3    3    0    0 -0.40162999677E-01  0.11346762660E+00  0.64304509221E-01  0.89051841011E+00  0.88000000000E+00 0. -1.
        -11    1    4    4    0    0  0.17987622442E-01 -0.18773606469E-01 -0.22494790873E-01  0.34384292902E-01  0.51100000000E-03 0.  1.
         11    1    4    4    0    0  0.37296574361E-01 -0.75470230661E-01 -0.43018728359E-01  0.94539210308E-01  0.51100000000E-03 0. -1.
</event>
<event>
 8    1  0.1143957E+005  0.1043930E+01  0.7957747E-01            NaN
         13   -1    0    0    0    0  0.00000000000E+00  0.00000000000E+00  0.74505805969E-08  0.10566000000E+00  0.10566000000E+00 0. -1.
     999900   -1    0    0    0    0 -0.00000000000E+00 -0.00000000000E+00 -0.74505805969E-08  0.93827000000E+00  0.93827000000E+00 0. -1.
     999902    2    1    2    0    0  0.16575078667E-01  0.16841722659E-01  0.41171082399E-03  0.10202964146E+01  0.10200226601E+01 0.  0.
     999903    2    3    3    0    0  0.53189854426E-01  0.10875958629E+00 -0.51771129621E-01  0.13321548009E+00  0.20206584300E-01 0.  0.
         14    1    1    2    0    0 -0.16575078667E-01 -0.16841722659E-01 -0.41171082399E-03  0.23633585440E-01  0.00000000000E+00 0. -1.
     999901    1    3    3    0    0 -0.36614775759E-01 -0.91917863635E-01  0.52182840445E-01  0.88708093447E+00  0.88000000000E+00 0.  1.
        -11    1    4    4    0    0  0.34062171680E-01  0.87176093254E-01 -0.35524902859E-01  0.10011085165E+00  0.51100000000E-03 0. -1.
         11    1    4    4    0    0  0.19127682746E-01  0.21583493041E-01 -0.16246226762E-01  0.33104628439E-01  0.51100000000E-03 0.  1.
</event>
<event>
 8    1  0.1143957E+005  0.1043930E+01  0.7957747E-01            NaN
         13   -1    0    0    0    0  0.00000000000E+00  0.00000000000E+00  0.74505805969E-08  0.10566000000E+00  0.10566000000E+00 0.  1.
     999900   -1    0    0    0    0 -0.00000000000E+00 -0.00000000000E+00 -0.74505805969E-08  0.93827000000E+00  0.93827000000E+00 0. -1.
     999902    2    1    2    0    0 -0.39521454836E-02 -0.23106224610E-01  0.14905788064E-01  0.10161505186E+01  0.10157707305E+01 0.  0.
     999903    2    3    3    0    0  0.11153956315E+00 -0.16683623262E-01  0.54721282032E-01  0.12768844392E+00  0.24300258621E-01 0.  0.
         14    1    1    2    0    0  0.39521454836E-02  0.23106224610E-01 -0.14905788064E-01  0.27779481411E-01  0.00000000000E+00 0. -1.
     999901    1    3    3    0    0 -0.11549170864E+00 -0.64226013486E-02 -0.39815493967E-01  0.88846207467E+00  0.88000000000E+00 0. -1.
        -11    1    4    4    0    0  0.35457278279E-01  0.44164959633E-02  0.23579199505E-01  0.42813126373E-01  0.51100000000E-03 0.  1.
         11    1    4    4    0    0  0.76082284874E-01 -0.21100119225E-01  0.31142082527E-01  0.84875317543E-01  0.51100000000E-03 0. -1.
</event>
<event>
 8    1  0.1143957E+005  0.1043930E+01  0.7957747E-01            NaN
         13   -1    0    0    0    0  0.00000000000E+00  0.00000000000E+00  0.74505805969E-08  0.10566000000E+00  0.10566000000E+00 0.  1.
     999900   -1    0    0    0    0 -0.00000000000E+00 -0.00000000000E+00 -0.74505805969E-08  0.93827000000E+00  0.93827000000E+00 0.  1.
     999902    2    1    2    0    0 -0.61270464698E-02  0.13297553553E-01  0.18865497706E-01  0.10200496182E+01  0.10197700481E+01 0.  0.
     999903    2    3    3    0    0  0.87846464864E-01 -0.87181979250E-01  0.31383536225E-01  0.12927250885E+00  0.20217722481E-01 0.  0.
         14    1    1    2    0    0  0.61270464698E-02 -0.13297553553E-01 -0.18865497706E-01  0.23880381752E-01  0.00000000000E+00 0. -1.
     999901    1    3    3    0    0 -0.93973511334E-01  0.10047953280E+00 -0.12518038520E-01  0.89077710940E+00  0.88000000000E+00 0.  1.
        -11    1    4    4    0    0  0.12656248338E-01 -0.54753594747E-02  0.74532890053E-02  0.15683520694E-01  0.51100000000E-03 0. -1.
         11    1    4    4    0    0  0.75190216526E-01 -0.81706619776E-01  0.23930247220E-01  0.11358898815E+00  0.51100000000E-03 0.  1.
</event>
<event>
 8    1  0.1143957E+005  0.1043930E+01  0.7957747E-01            NaN
         13   -1    0    0    0    0  0.00000000000E+00  0.00000000000E+00  0.74505805969E-08  0.10566000000E+00  0.10566000000E+00 0.  1.
     999900   -1    0    0    0    0 -0.00000000000E+00 -0.00000000000E+00 -0.74505805969E-08  0.93827000000E+00  0.93827000000E+00 0.  1.
     999902    2    1    2    0    0 -0.87120035287E-02  0.19378352518E-01 -0.89905749492E-03  0.10226643503E+01  0.10224432236E+01 0.  0.
     999903    2    3    3    0    0 -0.52966903994E-01  0.12131610659E+00  0.20110653955E-01  0.13542638343E+00  0.20316896672E-01 0.  0.
         14    1    1    2    0    0  0.87120035287E-02 -0.19378352518E-01  0.89905749492E-03  0.21265649677E-01  0.00000000000E+00 0.  1.
     999901    1    3    3    0    0  0.44254900466E-01 -0.10193775407E+00 -0.21009711450E-01  0.88723796689E+00  0.88000000000E+00 0.  1.
        -11    1    4    4    0    0 -0.34100141676E-01  0.61866475882E-01  0.18526143525E-01  0.73032592829E-01  0.51100000000E-03 0. -1.
         11    1    4    4    0    0 -0.18866762318E-01  0.59449630705E-01  0.15845104297E-02  0.62393790602E-01  0.51100000000E-03 0.  1.
</event>
<event>
 8    1  0.1143957E+005  0.1043930E+01  0.7957747E-01            NaN
         13   -1    0    0    0    0  0.00000000000E+00  0.00000000000E+00  0.74505805969E-08  0.10566000000E+00  0.10566000000E+00 0.  1.
     999900   -1    0    0    0    0 -0.00000000000E+00 -0.00000000000E+00 -0.74505805969E-08  0.93827000000E+00  0.93827000000E+00 0.  1.
     999902    2    1    2    0    0 -0.41927612793E-02 -0.41156286432E-02 -0.22325719723E-01  0.10208441730E+01  0.10205831030E+01 0.  0.
     999903    2    3    3    0    0 -0.66598556898E-01  0.24517926281E-01 -0.11130644219E+00  0.13369597076E+00  0.21189432186E-01 0.  0.
         14    1    1    2    0    0  0.41927612793E-02  0.41156286432E-02  0.22325719723E-01  0.23085826982E-01  0.00000000000E+00 0.  1.
     999901    1    3    3    0    0  0.62405795618E-01 -0.28633554925E-01  0.88980722463E-01  0.88714820226E+00  0.88000000000E+00 0. -1.
        -11    1    4    4    0    0 -0.53413911622E-01  0.23645756274E-01 -0.75059586473E-01  0.95112409217E-01  0.51100000000E-03 0.  1.
         11    1    4    4    0    0 -0.13184645276E-01  0.87217000741E-03 -0.36246855713E-01  0.38583561547E-01  0.51100000000E-03 0. -1.
</event>
<event>
 8    1  0.1143957E+005  0.1043930E+01  0.7957747E-01            NaN
         13   -1    0    0    0    0  0.00000000000E+00  0.00000000000E+00  0.74505805969E-08  0.10566000000E+00  0.10566000000E+00 0. -1.
     999900   -1    0    0    0    0 -0.00000000000E+00 -0.00000000000E+00 -0.74505805969E-08  0.93827000000E+00  0.93827000000E+00 0.  1.
     999902    2    1    2    0    0 -0.13584336971E-01 -0.10691163229E-01  0.15137932595E-01  0.10209519195E+01  0.10206933083E+01 0.  0.
     999903    2    3    3    0    0 -0.13083612668E+00  0.15392707097E-01  0.29303765125E-04  0.13266332832E+00  0.15637466056E-01 0.  0.
         14    1    1    2    0    0  0.13584336971E-01  0.10691163229E-01 -0.15137932595E-01  0.22978080542E-01  0.00000000000E+00 0.  1.
     999901    1    3    3    0    0  0.11725178971E+00 -0.26083870326E-01  0.15108628830E-01  0.88828859114E+00  0.88000000000E+00 0. -1.
        -11    1    4    4    0    0 -0.68809082142E-01  0.27561542307E-02 -0.56983987585E-02  0.69101512580E-01  0.51100000000E-03 0. -1.
         11    1    4    4    0    0 -0.62027044542E-01  0.12636552866E-01  0.57277025236E-02  0.63561815740E-01  0.51100000000E-03 0.  1.
</event>
<event>
 8    1  0.1143957E+005  0.1043930E+01  0.7957747E-01            NaN
         13   -1    0    0    0    0  0.00000000000E+00  0.00000000000E+00  0.74505805969E-08  0.10566000000E+00  0.10566000000E+00 0.  1.
     999900   -1    0    0    0    0 -0.00000000000E+00 -0.00000000000E+00 -0.74505805969E-08  0.93827000000E+00  0.93827000000E+00 0. -1.
     999902    2    1    2    0    0 -0.18634616005E-01  0.34416420803E-02  0.17171682782E-01  0.10183573485E+01  0.10180362119E+01 0.  0.
     999903    2    3    3    0    0 -0.98570440438E-01  0.56780237004E-01  0.63606339919E-01  0.13190886208E+00  0.20348326108E-01 0.  0.
         14    1    1    2    0    0  0.18634616005E-01 -0.34416420803E-02 -0.17171682782E-01  0.25572651475E-01  0.00000000000E+00 0. -1.
     999901    1    3    3    0    0  0.79935824433E-01 -0.53338594923E-01 -0.46434657136E-01  0.88644848644E+00  0.88000000000E+00 0.  1.
        -11    1    4    4    0    0 -0.59743366578E-02  0.97600746242E-02  0.38073214461E-02  0.12070980605E-01  0.51100000000E-03 0.  1.
         11    1    4    4    0    0 -0.92596103780E-01  0.47020162379E-01  0.59799018473E-01  0.11983788148E+00  0.51100000000E-03 0. -1.
</event>
<event>
 8    1  0.1143957E+005  0.1043930E+01  0.7957747E-01            NaN
         13   -1    0    0    0    0  0.00000000000E+00  0.00000000000E+00  0.74505805969E-08  0.10566000000E+00  0.10566000000E+00 0.  1.
     999900   -1    0    0    0    0 -0.00000000000E+00 -0.00000000000E+00 -0.74505805969E-08  0.93827000000E+00  0.93827000000E+00 0.  1.
     999902    2    1    2    0    0  0.19760022133E-02 -0.31262932317E-02 -0.23723829617E-01  0.10199196192E+01  0.10196369605E+01 0.  0.
     999903    2    3    3    0    0 -0.10976775492E+00  0.45278489740E-01  0.45672782074E-01  0.12882726710E+00  0.20282013540E-01 0.  0.
         14    1    1    2    0    0 -0.19760022133E-02  0.31262932317E-02  0.23723829617E-01  0.24010380793E-01  0.00000000000E+00 0.  1.
     999901    1    3    3    0    0  0.11174375713E+00 -0.48404782972E-01 -0.69396611691E-01  0.89109235211E+00  0.88000000000E+00 0. -1.
        -11    1    4    4    0    0 -0.32462947135E-01  0.17231280712E-01  0.23596522805E-01  0.43678564321E-01  0.51100000000E-03 0. -1.
         11    1    4    4    0    0 -0.77304807782E-01  0.28047209028E-01  0.22076259268E-01  0.85148702778E-01  0.51100000000E-03 0.  1.
</event>
<event>
 8    1  0.1143957E+005  0.1043930E+01  0.7957747E-01            NaN
         13   -1    0    0    0    0  0.00000000000E+00  0.00000000000E+00  0.74505805969E-08  0.10566000000E+00  0.10566000000E+00 0.  1.
     999900   -1    0    0    0    0 -0.00000000000E+00 -0.00000000000E+00 -0.74505805969E-08  0.93827000000E+00  0.93827000000E+00 0. -1.
     999902    2    1    2    0    0 -0.67402241179E-02  0.15663692909E-01  0.15530855203E-01  0.10208651055E+01  0.10206045141E+01 0.  0.
     999903    2    3    3    0    0  0.71103340515E-01 -0.71418448266E-01 -0.76883080774E-01  0.12834997650E+00  0.20160073727E-01 0.  0.
         14    1    1    2    0    0  0.67402241179E-02 -0.15663692909E-01 -0.15530855203E-01  0.23064894538E-01  0.00000000000E+00 0.  1.
     999901    1    3    3    0    0 -0.77843564633E-01  0.87082141176E-01  0.92413935976E-01  0.89251512896E+00  0.88000000000E+00 0.  1.
        -11    1    4    4    0    0  0.55533136324E-01 -0.64768572798E-01 -0.68695462227E-01  0.10953640903E+00  0.51100000000E-03 0.  1.
         11    1    4    4    0    0  0.15570204191E-01 -0.66498754682E-02 -0.81876185463E-02  0.18813567465E-01  0.51100000000E-03 0. -1.
</event>
<event>
 8    1  0.1143957E+005  0.1043930E+01  0.7957747E-01            NaN
         13   -1    0    0    0    0  0.00000000000E+00  0.00000000000E+00  0.74505805969E-08  0.10566000000E+00  0.10566000000E+00 0. -1.
     999900   -1    0    0    0    0 -0.00000000000E+00 -0.00000000000E+00 -0.74505805969E-08  0.93827000000E+00  0.93827000000E+00 0. -1.
     999902    2    1    2    0    0  0.23952431832E-01 -0.83701093859E-02  0.17834841812E-02  0.10184946204E+01  0.10181769655E+01 0.  0.
     999903    2    3    3    0    0 -0.10669762385E+00  0.20132576116E-01 -0.62353032574E-01  0.12608477454E+00  0.14824511586E-01 0.  0.
         14    1    1    2    0    0 -0.23952431832E-01  0.83701093859E-02 -0.17834841812E-02  0.25435379643E-01  0.00000000000E+00 0.  1.
     999901    1    3    3    0    0  0.13065005568E+00 -0.28502685502E-01  0.64136516755E-01  0.89240984582E+00  0.88000000000E+00 0.  1.
        -11    1    4    4    0    0 -0.19730434304E-01  0.95372471192E-02 -0.10892407265E-01  0.24477638314E-01  0.51100000000E-03 0.  1.
         11    1    4    4    0    0 -0.86967189544E-01  0.10595328997E-01 -0.51460625309E-01  0.10160713623E+00  0.51100000000E-03 0. -1.
</event>
<event>
 8    1  0.1143957E+005  0.1043930E+01  0.7957747E-01            NaN
         13   -1    0    0    0    0  0.00000000000E+00  0.00000000000E+00  0.74505805969E-08  0.10566000000E+00  0.10566000000E+00 0. -1.
     999900   -1    0    0    0    0 -0.00000000000E+00 -0.00000000000E+00 -0.74505805969E-08  0.93827000000E+00  0.93827000000E+00 0. -1.
     999902    2    1    2    0    0  0.80331575284E-02 -0.13995896461E-01 -0.17865048704E-01  0.10198556007E+01  0.10195714146E+01 0.  0.
     999903    2    3    3    0    0 -0.11097875123E+00  0.32493771638E-01  0.51145547082E-01  0.12795449293E+00  0.19605021137E-01 0.  0.
         14    1    1    2    0    0 -0.80331575284E-02  0.13995896461E-01  0.17865048704E-01  0.24074399324E-01  0.00000000000E+00 0. -1.
     999901    1    3    3    0    0  0.11901190876E+00 -0.46489668100E-01 -0.69010595786E-01  0.89190110775E+00  0.88000000000E+00 0.  1.
        -11    1    4    4    0    0 -0.66247637282E-01  0.10380873307E-01  0.24565864717E-01  0.71416068264E-01  0.51100000000E-03 0. -1.
         11    1    4    4    0    0 -0.44731113953E-01  0.22112898331E-01  0.26579682365E-01  0.56538424666E-01  0.51100000000E-03 0.  1.
</event>
<event>
 8    1  0.1143957E+005  0.1043930E+01  0.7957747E-01            NaN
         13   -1    0    0    0    0  0.00000000000E+00  0.00000000000E+00  0.74505805969E-08  0.10566000000E+00  0.10566000000E+00 0. -1.
     999900   -1    0    0    0    0 -0.00000000000E+00 -0.00000000000E+00 -0.74505805969E-08  0.93827000000E+00  0.93827000000E+00 0. -1.
     999902    2    1    2    0    0  0.14127913962E-01 -0.15804035431E-01 -0.10922039400E-01  0.10200834817E+01  0.10198047133E+01 0.  0.
     999903    2    3    3    0    0 -0.58015537839E-01  0.11183565732E+00 -0.89826373523E-02  0.12795101955E+00  0.20439147494E-01 0.  0.
         14    1    1    2    0    0 -0.14127913962E-01  0.15804035431E-01  0.10922039400E-01  0.23846518268E-01  0.00000000000E+00 0. -1.
     999901    1    3    3    0    0  0.72143451801E-01 -0.12763969275E+00 -0.19394020475E-02  0.89213246218E+00  0.88000000000E+00 0. -1.
        -11    1    4    4    0    0 -0.43957660729E-01  0.63139598035E-01 -0.62786395895E-02  0.77191756120E-01  0.51100000000E-03 0.  1.
         11    1    4    4    0    0 -0.14057877110E-01  0.48696059286E-01 -0.27039977629E-02  0.50759263428E-01  0.51100000000E-03 0. -1.
</event>
<event>
 8    1  0.1143957E+005  0.1043930E+01  0.7957747E-01            NaN
         13   -1    0    0    0    0  0.00000000000E+00  0.00000000000E+00  0.74505805969E-08  0.10566000000E+00  0.10566000000E+00 0.  1.
     999900   -1    0    0    0    0 -0.00000000000E+00 -0.00000000000E+00 -0.74505805969E-08  0.93827000000E+00  0.93827000000E+00 0. -1.
     999902    2    1    2    0    0 -0.88639366728E-02  0.11050294264E-01 -0.18120053577E-01  0.10209296800E+01  0.10206705624E+01 0.  0.
     999903    2    3    3    0    0 -0.30669680382E-01 -0.12382377952E+00 -0.16677391453E-01  0.13038569600E+00  0.21197562766E-01 0.  0.
         14    1    1    2    0    0  0.88639366728E-02 -0.11050294264E-01  0.18120053577E-01  0.23000319961E-01  0.00000000000E+00 0.  1.
     999901    1    3    3    0    0  0.21805743709E-01  0.13487407378E+00 -0.14426621232E-02  0.89054398404E+00  0.88000000000E+00 0. -1.
        -11    1    4    4    0    0 -0.22190840913E-01 -0.86532930910E-01 -0.18134960165E-02  0.89352847974E-01  0.51100000000E-03 0.  1.
         11    1    4    4    0    0 -0.84788394692E-02 -0.37290848606E-01 -0.14863895437E-01  0.41032848025E-01  0.51100000000E-03 0. -1.
</event>
<event>
 8    1  0.1143957E+005  0.1043930E+01  0.7957747E-01            NaN
         13   -1    0    0    0    0  0.00000000000E+00  0.00000000000E+00  0.74505805969E-08  0.10566000000E+00  0.10566000000E+00 0. -1.
     999900   -1    0    0    0    0 -0.00000000000E+00 -0.00000000000E+00 -0.74505805969E-08  0.93827000000E+00  0.93827000000E+00 0.  1.
     999902    2    1    2    0    0  0.13642523577E-01 -0.12180068275E-01 -0.16108705878E-01  0.10195586455E+01  0.10192673196E+01 0.  0.
     999903    2    3    3    0    0 -0.25651379653E-01 -0.12265336833E+00  0.31267229294E-01  0.13051824147E+00  0.18855494864E-01 0.  0.
         14    1    1    2    0    0 -0.13642523577E-01  0.12180068275E-01  0.16108705878E-01  0.24371354451E-01  0.00000000000E+00 0.  1.
     999901    1    3    3    0    0  0.39293903230E-01  0.11047330006E+00 -0.47375935172E-01  0.88904040408E+00  0.88000000000E+00 0. -1.
        -11    1    4    4    0    0  0.17970102163E-02 -0.23818495614E-01  0.91515078569E-02  0.25584393604E-01  0.51100000000E-03 0.  1.
         11    1    4    4    0    0 -0.27448389869E-01 -0.98834872718E-01  0.22115721437E-01  0.10493384786E+00  0.51100000000E-03 0. -1.
</event>
<event>
 8    1  0.1143957E+005  0.1043930E+01  0.7957747E-01            NaN
         13   -1    0    0    0    0  0.00000000000E+00  0.00000000000E+00  0.74505805969E-08  0.10566000000E+00  0.10566000000E+00 0.  1.
     999900   -1    0    0    0    0 -0.00000000000E+00 -0.00000000000E+00 -0.74505805969E-08  0.93827000000E+00  0.93827000000E+00 0. -1.
     999902    2    1    2    0    0 -0.15842967746E-02 -0.14950068690E-01  0.18297933334E-01  0.10202481733E+01  0.10199732870E+01 0.  0.
     999903    2    3    3    0    0  0.11266892617E+00 -0.83274220470E-02 -0.59927627147E-01  0.12939639177E+00  0.19709713967E-01 0.  0.
         14    1    1    2    0    0  0.15842967746E-02  0.14950068690E-01 -0.18297933334E-01  0.23681826669E-01  0.00000000000E+00 0. -1.
     999901    1    3    3    0    0 -0.11425322295E+00 -0.66226466426E-02  0.78225560480E-01  0.89085178156E+00  0.88000000000E+00 0. -1.
        -11    1    4    4    0    0  0.90767033343E-02 -0.13606551433E-02 -0.11797060320E-01  0.14955590227E-01  0.51100000000E-03 0. -1.
         11    1    4    4    0    0  0.10359222284E+00 -0.69667669036E-02 -0.48130566827E-01  0.11444080154E+00  0.51100000000E-03 0.  1.
</event>
<event>
 8    1  0.1143957E+005  0.1043930E+01  0.7957747E-01            NaN
         13   -1    0    0    0    0  0.00000000000E+00  0.00000000000E+00  0.74505805969E-08  0.10566000000E+00  0.10566000000E+00 0. -1.
     999900   -1    0    0    0    0 -0.00000000000E+00 -0.00000000000E+00 -0.74505805969E-08  0.93827000000E+00  0.93827000000E+00 0.  1.
     999902    2    1    2    0    0 -0.11770435393E-01 -0.19822981511E-01 -0.67325164127E-03  0.10208660235E+01  0.10206054531E+01 0.  0.
     999903    2    3    3    0    0 -0.12847732161E+00 -0.12634033885E-01  0.23095275811E-01  0.13281359194E+00  0.20976593121E-01 0.  0.
         14    1    1    2    0    0  0.11770435393E-01  0.19822981511E-01  0.67325164127E-03  0.23063976524E-01  0.00000000000E+00 0. -1.
     999901    1    3    3    0    0  0.11670688622E+00 -0.71889476261E-02 -0.23768527452E-01  0.88805243154E+00  0.88000000000E+00 0.  1.
        -11    1    4    4    0    0 -0.10488529148E+00 -0.13133845744E-01  0.26473207118E-01  0.10897024405E+00  0.51100000000E-03 0.  1.
         11    1    4    4    0    0 -0.23592030132E-01  0.49981185867E-03 -0.33779313071E-02  0.23843347889E-01  0.51100000000E-03 0. -1.
</event>
<event>
 8    1  0.1143957E+005  0.1043930E+01  0.7957747E-01            NaN
         13   -1    0    0    0    0  0.00000000000E+00  0.00000000000E+00  0.74505805969E-08  0.10566000000E+00  0.10566000000E+00 0.  1.
     999900   -1    0    0    0    0 -0.00000000000E+00 -0.00000000000E+00 -0.74505805969E-08  0.93827000000E+00  0.93827000000E+00 0.  1.
     999902    2    1    2    0    0  0.22869752028E-01  0.65958127501E-03  0.25104706136E-02  0.10209134175E+01  0.10206539291E+01 0.  0.
     999903    2    3    3    0    0 -0.70123639938E-01 -0.77394246245E-01 -0.73657771912E-01  0.12931834571E+00  0.19762918443E-01 0.  0.
         14    1    1    2    0    0 -0.22869752028E-01 -0.65958127501E-03 -0.25104706136E-02  0.23016582457E-01  0.00000000000E+00 0. -1.
     999901    1    3    3    0    0  0.92993391966E-01  0.78053827520E-01  0.76168242525E-01  0.89159507183E+00  0.88000000000E+00 0. -1.
        -11    1    4    4    0    0 -0.57353351012E-02 -0.58461173360E-02 -0.13535545274E-01  0.15828558478E-01  0.51100000000E-03 0. -1.
         11    1    4    4    0    0 -0.64388304837E-01 -0.71548128909E-01 -0.60122226638E-01  0.11348978724E+00  0.51100000000E-03 0.  1.
</event>
<event>
 8    1  0.1143957E+005  0.1043930E+01  0.7957747E-01            NaN
         13   -1    0    0    0    0  0.00000000000E+00  0.00000000000E+00  0.74505805969E-08  0.10566000000E+00  0.10566000000E+00 0.  1.
     999900   -1    0    0    0    0 -0.00000000000E+00 -0.00000000000E+00 -0.74505805969E-08  0.93827000000E+00  0.93827000000E+00 0.  1.
     999902    2    1    2    0    0  0.12071084607E-01  0.20277323566E-01 -0.43040302265E-02  0.10199423863E+01  0.10196602698E+01 0.  0.
     999903    2    3    3    0    0 -0.32350887889E-01 -0.11835986087E+00 -0.26260907237E-01  0.12771165102E+00  0.23769601243E-01 0.  0.
         14    1    1    2    0    0 -0.12071084607E-01 -0.20277323566E-01  0.43040302265E-02  0.23987613694E-01  0.00000000000E+00 0.  1.
     999901    1    3    3    0    0  0.44421972496E-01  0.13863718444E+00  0.21956877011E-01  0.89223073529E+00  0.88000000000E+00 0.  1.
        -11    1    4    4    0    0  0.90928356007E-03 -0.30269709829E-01 -0.13830533130E-02  0.30319236257E-01  0.51100000000E-03 0. -1.
         11    1    4    4    0    0 -0.33260171449E-01 -0.88090151042E-01 -0.24877853924E-01  0.97392414758E-01  0.51100000000E-03 0.  1.
</event>
<event>
 8    1  0.1143957E+005  0.1043930E+01  0.7957747E-01            NaN
         13   -1    0    0    0    0  0.00000000000E+00  0.00000000000E+00  0.74505805969E-08  0.10566000000E+00  0.10566000000E+00 0.  1.
     999900   -1    0    0    0    0 -0.00000000000E+00 -0.00000000000E+00 -0.74505805969E-08  0.93827000000E+00  0.93827000000E+00 0.  1.
     999902    2    1    2    0    0 -0.11108091541E-01  0.19001382725E-02 -0.19826510730E-01  0.10211245017E+01  0.10208698043E+01 0.  0.
     999903    2    3    3    0    0  0.86628577222E-01  0.89737337467E-01 -0.32189936488E-01  0.13128143452E+00  0.25324354117E-01 0.  0.
         14    1    1    2    0    0  0.11108091541E-01 -0.19001382725E-02  0.19826510730E-01  0.22805498259E-01  0.00000000000E+00 0.  1.
     999901    1    3    3    0    0 -0.97736668763E-01 -0.87837199195E-01  0.12363425758E-01  0.88984306722E+00  0.88000000000E+00 0.  1.
        -11    1    4    4    0    0  0.64560265029E-01  0.54228299586E-01 -0.13130416541E-01  0.85331150562E-01  0.51100000000E-03 0. -1.
         11    1    4    4    0    0  0.22068312192E-01  0.35509037881E-01 -0.19059519947E-01  0.45950283959E-01  0.51100000000E-03 0.  1.
</event>
<event>
 8    1  0.1143957E+005  0.1043930E+01  0.7957747E-01            NaN
         13   -1    0    0    0    0  0.00000000000E+00  0.00000000000E+00  0.74505805969E-08  0.10566000000E+00  0.10566000000E+00 0. -1.
     999900   -1    0    0    0    0 -0.00000000000E+00 -0.00000000000E+00 -0.74505805969E-08  0.93827000000E+00  0.93827000000E+00 0.  1.
     999902    2    1    2    0    0  0.16001535232E-01 -0.15803064912E-01  0.75205313421E-02  0.10202161985E+01  0.10199405607E+01 0.  0.
     999903    2    3    3    0    0 -0.27274477685E-01 -0.55936634193E-01  0.11444487246E+00  0.13178143364E+00  0.19897568701E-01 0.  0.
         14    1    1    2    0    0 -0.16001535232E-01  0.15803064912E-01 -0.75205313421E-02  0.23713801510E-01  0.00000000000E+00 0.  1.
     999901    1    3    3    0    0  0.43276012916E-01  0.40133569281E-01 -0.10692434112E+00  0.88843476485E+00  0.88000000000E+00 0.  1.
        -11    1    4    4    0    0 -0.15929831132E-01 -0.33363002329E-01  0.86694542144E-01  0.94249955984E-01  0.51100000000E-03 0. -1.
         11    1    4    4    0    0 -0.11344646553E-01 -0.22573631865E-01  0.27750330318E-01  0.37531477652E-01  0.51100000000E-03 0.  1.
</event>
<event>
 8    1  0.1143957E+005  0.1043930E+01  0.7957747E-01            NaN
         13   -1    0    0    0    0  0.00000000000E+00  0.00000000000E+00  0.74505805969E-08  0.10566000000E+00  0.10566000000E+00 0. -1.
     999900   -1    0    0    0    0 -0.00000000000E+00 -0.00000000000E+00 -0.74505805969E-08  0.93827000000E+00  0.93827000000E+00 0. -1.
     999902    2    1    2    0    0 -0.23903568747E-01  0.63080651885E-03  0.60107728529E-02  0.10192742115E+01  0.10189759616E+01 0.  0.
     999903    2    3    3    0    0  0.53690538310E-01  0.27422302094E-01 -0.11099690288E+00  0.12774214486E+00  0.19054830575E-01 0.  0.
         14    1    1    2    0    0  0.23903568747E-01 -0.63080651885E-03 -0.60107728529E-02  0.24655788489E-01  0.00000000000E+00 0.  1.
     999901    1    3    3    0    0 -0.77594107057E-01 -0.26791495575E-01  0.11700767573E+00  0.89153206665E+00  0.88000000000E+00 0.  1.
        -11    1    4    4    0    0  0.45768511449E-01  0.17108396852E-01 -0.97101108850E-01  0.10870299142E+00  0.51100000000E-03 0. -1.
         11    1    4    4    0    0  0.79220268607E-02  0.10313905241E-01 -0.13895794031E-01  0.19039153439E-01  0.51100000000E-03 0.  1.
</event>
<event>
 8    1  0.1143957E+005  0.1043930E+01  0.7957747E-01            NaN
         13   -1    0    0    0    0  0.00000000000E+00  0.00000000000E+00  0.74505805969E-08  0.10566000000E+00  0.10566000000E+00 0. -1.
     999900   -1    0    0    0    0 -0.00000000000E+00 -0.00000000000E+00 -0.74505805969E-08  0.93827000000E+00  0.93827000000E+00 0.  1.
     999902    2    1    2    0    0  0.43799852134E-02  0.23095808206E-01  0.40815620854E-02  0.10200708345E+01  0.10197917668E+01 0.  0.
     999903    2    3    3    0    0  0.15375385270E-01 -0.96457415834E-01  0.82023359657E-01  0.12850547182E+00  0.15664903986E-01 0.  0.
         14    1    1    2    0    0 -0.43799852134E-02 -0.23095808206E-01 -0.40815620854E-02  0.23859165455E-01  0.00000000000E+00 0.  1.
     999901    1    3    3    0    0 -0.10995400057E-01  0.11955322404E+00 -0.77941797572E-01  0.89156536272E+00  0.88000000000E+00 0.  1.
        -11    1    4    4    0    0  0.12798921321E-01 -0.82447439111E-01  0.76563698443E-01  0.11324157206E+00  0.51100000000E-03 0. -1.
         11    1    4    4    0    0  0.25764639489E-02 -0.14009976723E-01  0.54596612144E-02  0.15263899758E-01  0.51100000000E-03 0.  1.
</event>
<event>
 8    1  0.1143957E+005  0.1043930E+01  0.7957747E-01            NaN
         13   -1    0    0    0    0  0.00000000000E+00  0.00000000000E+00  0.74505805969E-08  0.10566000000E+00  0.10566000000E+00 0. -1.
     999900   -1    0    0    0    0 -0.00000000000E+00 -0.00000000000E+00 -0.74505805969E-08  0.93827000000E+00  0.93827000000E+00 0. -1.
     999902    2    1    2    0    0  0.13322032288E-01 -0.40026348708E-02  0.19668871956E-01  0.10198392932E+01  0.10195547174E+01 0.  0.
     999903    2    3    3    0    0 -0.66627572817E-02  0.11827545081E+00 -0.45913454964E-01  0.12874313472E+00  0.20815253801E-01 0.  0.
         14    1    1    2    0    0 -0.13322032288E-01  0.40026348708E-02 -0.19668871956E-01  0.24090706802E-01  0.00000000000E+00 0.  1.
     999901    1    3    3    0    0  0.19984789570E-01 -0.12227808568E+00  0.65582326920E-01  0.89109615848E+00  0.88000000000E+00 0.  1.
        -11    1    4    4    0    0 -0.10645126621E-01  0.87214713515E-01 -0.26001174073E-01  0.91629946788E-01  0.51100000000E-03 0. -1.
         11    1    4    4    0    0  0.39823693392E-02  0.31060737298E-01 -0.19912280891E-01  0.37113187930E-01  0.51100000000E-03 0.  1.
</event>
<event>
 7    1  0.1143957E+005  0.1043930E+01  0.7957747E-01            NaN
         13   -1    0    0    0    0  0.00000000000E+00  0.00000000000E+00  0.74505805969E-08  0.10566000000E+00  0.10566000000E+00 0.  1.
     999900   -1    0    0    0    0 -0.00000000000E+00 -0.00000000000E+00 -0.74505805969E-08  0.93827000000E+00  0.93827000000E+00 0. -1.
     999903    2    1    2    0    0  0.59368682891E-01 -0.36692044870E-01  0.90939891612E-01  0.11633928071E+00  0.19844840257E-01 0.  0.
         14    1    1    2    0    0 -0.10660154107E-01  0.30270101447E-01  0.22150689971E-01  0.38994499527E-01  0.00000000000E+00 0.  1.
     999901    1    1    2    0    0 -0.48708528783E-01  0.64219434226E-02 -0.11309058158E+00  0.88859621976E+00  0.88000000000E+00 0. -1.
        -11    1    3    3    0    0  0.24667694553E-01 -0.13132096210E-01  0.21701478141E-01  0.35385906515E-01  0.51100000000E-03 0.  1.
         11    1    3    3    0    0  0.34700988337E-01 -0.23559948660E-01  0.69238413471E-01  0.80953374195E-01  0.51100000000E-03 0. -1.
</event>
<event>
 8    1  0.1143957E+005  0.1043930E+01  0.7957747E-01            NaN
         13   -1    0    0    0    0  0.00000000000E+00  0.00000000000E+00  0.74505805969E-08  0.10566000000E+00  0.10566000000E+00 0.  1.
     999900   -1    0    0    0    0 -0.00000000000E+00 -0.00000000000E+00 -0.74505805969E-08  0.93827000000E+00  0.93827000000E+00 0.  1.
     999902    2    1    2    0    0  0.11008237612E-01  0.33782610026E-03  0.20612278347E-01  0.10205599029E+01  0.10202922885E+01 0.  0.
     999903    2    3    3    0    0  0.71196564129E-01 -0.10806083306E+00 -0.89056831885E-02  0.13137813628E+00  0.20852076960E-01 0.  0.
         14    1    1    2    0    0 -0.11008237612E-01 -0.33782610026E-03 -0.20612278347E-01  0.23370097143E-01  0.00000000000E+00 0. -1.
     999901    1    3    3    0    0 -0.60188326517E-01  0.10839865916E+00  0.29517961535E-01  0.88918176658E+00  0.88000000000E+00 0. -1.
        -11    1    4    4    0    0  0.22307975767E-01 -0.44695594913E-01 -0.11650880815E-01  0.51296648353E-01  0.51100000000E-03 0. -1.
         11    1    4    4    0    0  0.48888588361E-01 -0.63365238151E-01  0.27451976262E-02  0.80081487929E-01  0.51100000000E-03 0.  1.
</event>
<event>
 8    1  0.1143957E+005  0.1043930E+01  0.7957747E-01            NaN
         13   -1    0    0    0    0  0.00000000000E+00  0.00000000000E+00  0.74505805969E-08  0.10566000000E+00  0.10566000000E+00 0.  1.
     999900   -1    0    0    0    0 -0.00000000000E+00 -0.00000000000E+00 -0.74505805969E-08  0.93827000000E+00  0.93827000000E+00 0.  1.
     999902    2    1    2    0    0  0.15176861970E-01  0.17357850405E-01 -0.59878595026E-02  0.10201080234E+01  0.10198298352E+01 0.  0.
     999903    2    3    3    0    0  0.98403286400E-01 -0.40578941230E-01 -0.74516227878E-01  0.13163773864E+00  0.21117972699E-01 0.  0.
         14    1    1    2    0    0 -0.15176861970E-01 -0.17357850405E-01  0.59878595026E-02  0.23821976647E-01  0.00000000000E+00 0. -1.
     999901    1    3    3    0    0 -0.83226424431E-01  0.57936791635E-01  0.68528368376E-01  0.88847028471E+00  0.88000000000E+00 0. -1.
        -11    1    4    4    0    0  0.37795703566E-01 -0.26834500732E-01 -0.30868194731E-01  0.55693017557E-01  0.51100000000E-03 0.  1.
         11    1    4    4    0    0  0.60607582835E-01 -0.13744440498E-01 -0.43648033147E-01  0.75944721082E-01  0.51100000000E-03 0. -1.
</event>
<event>
 8    1  0.1143957E+005  0.1043930E+01  0.7957747E-01            NaN
         13   -1    0    0    0    0  0.00000000000E+00  0.00000000000E+00  0.74505805969E-08  0.10566000000E+00  0.10566000000E+00 0.  1.
     999900   -1    0    0    0    0 -0.00000000000E+00 -0.00000000000E+00 -0.74505805969E-08  0.93827000000E+00  0.93827000000E+00 0.  1.
     999902    2    1    2    0    0  0.14755706235E-01  0.90980006345E-02  0.16175242261E-01  0.10202204461E+01  0.10199449082E+01 0.  0.
     999903    2    3    3    0    0 -0.15300405067E-01 -0.12213198036E+00  0.36099236345E-01  0.12975896843E+00  0.19593672482E-01 0.  0.
         14    1    1    2    0    0 -0.14755706235E-01 -0.90980006345E-02 -0.16175242261E-01  0.23709553860E-01  0.00000000000E+00 0. -1.
     999901    1    3    3    0    0  0.30056111301E-01  0.13122998100E+00 -0.19923994084E-01  0.89046147771E+00  0.88000000000E+00 0.  1.
        -11    1    4    4    0    0 -0.10503986870E-01 -0.41156290500E-01  0.20446620688E-01  0.47143391970E-01  0.51100000000E-03 0.  1.
         11    1    4    4    0    0 -0.47964181969E-02 -0.80975689863E-01  0.15652615657E-01  0.82615576463E-01  0.51100000000E-03 0. -1.
</event>
<event>
 8    1  0.1143957E+005  0.1043930E+01  0.7957747E-01            NaN
         13   -1    0    0    0    0  0.00000000000E+00  0.00000000000E+00  0.74505805969E-08  0.10566000000E+00  0.10566000000E+00 0. -1.
     999900   -1    0    0    0    0 -0.00000000000E+00 -0.00000000000E+00 -0.74505805969E-08  0.93827000000E+00  0.93827000000E+00 0.  1.
     999902    2    1    2    0    0  0.78163057834E-02  0.23971277281E-01  0.18771881665E-02  0.10186467920E+01  0.10183329742E+01 0.  0.
     999903    2    3    3    0    0  0.10550188202E+00 -0.69913954553E-01 -0.87405891016E-02  0.12821451174E+00  0.18546023111E-01 0.  0.
         14    1    1    2    0    0 -0.78163057834E-02 -0.23971277281E-01 -0.18771881665E-02  0.25283207984E-01  0.00000000000E+00 0. -1.
     999901    1    3    3    0    0 -0.97685576232E-01  0.93885231833E-01  0.10617777268E-01  0.89043228027E+00  0.88000000000E+00 0.  1.
        -11    1    4    4    0    0  0.26269168990E-01 -0.15631516219E-01  0.56716054205E-02  0.31094079305E-01  0.51100000000E-03 0. -1.
         11    1    4    4    0    0  0.79232713025E-01 -0.54282438333E-01 -0.14412194522E-01  0.97120432437E-01  0.51100000000E-03 0.  1.
</event>
<event>
 8    1  0.1143957E+005  0.1043930E+01  0.7957747E-01            NaN
         13   -1    0    0    0    0  0.00000000000E+00  0.00000000000E+00  0.74505805969E-08  0.10566000000E+00  0.10566000000E+00 0.  1.
     999900   -1    0    0    0    0 -0.00000000000E+00 -0.00000000000E+00 -0.74505805969E-08  0.93827000000E+00  0.93827000000E+00 0.  1.
     999902    2    1    2    0    0  0.10150787246E-02 -0.17006822095E-01  0.21708731994E-01  0.10163341411E+01  0.10159594259E+01 0.  0.
     999903    2    3    3    0    0 -0.87414656244E-01  0.83852312207E-01 -0.15781930594E-01  0.12538075694E+00  0.28261855726E-01 0.  0.
         14    1    1    2    0    0 -0.10150787246E-02  0.17006822095E-01 -0.21708731994E-01  0.27595858881E-01  0.00000000000E+00 0. -1.
     999901    1    3    3    0    0  0.88429734968E-01 -0.10085913430E+00  0.37490662588E-01  0.89095338418E+00  0.88000000000E+00 0.  1.
        -11    1    4    4    0    0 -0.23810103159E-01  0.84223090275E-02  0.10690536586E-02  0.25283597420E-01  0.51100000000E-03 0.  1.
         11    1    4    4    0    0 -0.63604553085E-01  0.75430003179E-01 -0.16850984253E-01  0.10009715952E+00  0.51100000000E-03 0. -1.
</event>
<event>
 8    1  0.1143957E+005  0.1043930E+01  0.7957747E-01            NaN
         13   -1    0    0    0    0  0.00000000000E+00  0.00000000000E+00  0.74505805969E-08  0.10566000000E+00  0.10566000000E+00 0. -1.
     999900   -1    0    0    0    0 -0.00000000000E+00 -0.00000000000E+00 -0.74505805969E-08  0.93827000000E+00  0.93827000000E+00 0. -1.
     999902    2    1    2    0    0  0.11986805729E-01  0.52381103585E-02  0.20359780373E-01  0.10197299593E+01  0.10194427635E+01 0.  0.
     999903    2    3    3    0    0  0.10128673131E+00  0.80838866389E-01 -0.12854682036E-01  0.13136452127E+00  0.17247328512E-01 0.  0.
         14    1    1    2    0    0 -0.11986805729E-01 -0.52381103585E-02 -0.20359780373E-01  0.24200040673E-01  0.00000000000E+00 0.  1.
     999901    1    3    3    0    0 -0.89299925577E-01 -0.75600756030E-01  0.33214462409E-01  0.88836543806E+00  0.88000000000E+00 0.  1.
        -11    1    4    4    0    0  0.34831388447E-01  0.25785048795E-01  0.36798565087E-02  0.43495940356E-01  0.51100000000E-03 0. -1.
         11    1    4    4    0    0  0.66455342859E-01  0.55053817593E-01 -0.16534538545E-01  0.87868580915E-01  0.51100000000E-03 0.  1.
</event>
<event>
 8    1  0.1143957E+005  0.1043930E+01  0.7957747E-01            NaN
         13   -1    0    0    0    0  0.00000000000E+00  0.00000000000E+00  0.74505805969E-08  0.10566000000E+00  0.10566000000E+00 0.  1.
     999900   -1    0    0    0    0 -0.00000000000E+00 -0.00000000000E+00 -0.74505805969E-08  0.93827000000E+00  0.93827000000E+00 0.  1.
     999902    2    1    2    0    0 -0.75218776996E-03 -0.49315642664E-02 -0.21697774821E-01  0.10216661381E+01  0.10214235254E+01 0.  0.
     999903    2    3    3    0    0  0.13564137919E-01  0.12473472950E+00 -0.36880582082E-01  0.13191964472E+00  0.17316949702E-01 0.  0.
         14    1    1    2    0    0  0.75218776996E-03  0.49315642664E-02  0.21697774821E-01  0.22263861856E-01  0.00000000000E+00 0.  1.
     999901    1    3    3    0    0 -0.14316325689E-01 -0.12966629377E+00  0.15182807261E-01  0.88974649342E+00  0.88000000000E+00 0.  1.
        -11    1    4    4    0    0  0.38991462249E-02  0.92543049786E-02  0.73582278837E-03  0.10082066162E-01  0.51100000000E-03 0. -1.
         11    1    4    4    0    0  0.96649916940E-02  0.11548042452E+00 -0.37616404871E-01  0.12183757856E+00  0.51100000000E-03 0.  1.
</event>
<event>
 8    1  0.1143957E+005  0.1043930E+01  0.7957747E-01            NaN
         13   -1    0    0    0    0  0.00000000000E+00  0.00000000000E+00  0.74505805969E-08  0.10566000000E+00  0.10566000000E+00 0.  1.
     999900   -1    0    0    0    0 -0.00000000000E+00 -0.00000000000E+00 -0.74505805969E-08  0.93827000000E+00  0.93827000000E+00 0. -1.
     999902    2    1    2    0    0 -0.18852388692E-01  0.10233815771E-02  0.56631288126E-02  0.10242188129E+01  0.10240291235E+01 0.  0.
     999903    2    3    3    0    0  0.68767272247E-03  0.89644284075E-01 -0.97142111225E-01  0.13359858196E+00  0.19375777880E-01 0.  0.
         14    1    1    2    0    0  0.18852388692E-01 -0.10233815771E-02 -0.56631288126E-02  0.19711187108E-01  0.00000000000E+00 0. -1.
     999901    1    3    3    0    0 -0.19540061415E-01 -0.88620902498E-01  0.10280524004E+00  0.89062023093E+00  0.88000000000E+00 0.  1.
        -11    1    4    4    0    0  0.84550516644E-02  0.66171920154E-01 -0.66136375065E-01  0.93938768052E-01  0.51100000000E-03 0. -1.
         11    1    4    4    0    0 -0.77673789419E-02  0.23472363921E-01 -0.31005736160E-01  0.39659813911E-01  0.51100000000E-03 0.  1.
</event>
<event>
 8    1  0.1143957E+005  0.1043930E+01  0.7957747E-01            NaN
         13   -1    0    0    0    0  0.00000000000E+00  0.00000000000E+00  0.74505805969E-08  0.10566000000E+00  0.10566000000E+00 0. -1.
     999900   -1    0    0    0    0 -0.00000000000E+00 -0.00000000000E+00 -0.74505805969E-08  0.93827000000E+00  0.93827000000E+00 0. -1.
     999902    2    1    2    0    0  0.28942655500E-02  0.21111644035E-01  0.10513050187E-01  0.10201686341E+01  0.10198918763E+01 0.  0.
     999903    2    3    3    0    0  0.37982969782E-01 -0.79167112259E-01 -0.91056989590E-01  0.12797834096E+00  0.19415013384E-01 0.  0.
         14    1    1    2    0    0 -0.28942655500E-02 -0.21111644035E-01 -0.10513050187E-01  0.23761365937E-01  0.00000000000E+00 0.  1.
     999901    1    3    3    0    0 -0.35088704232E-01  0.10027875629E+00  0.10157003978E+00  0.89219029310E+00  0.88000000000E+00 0. -1.
        -11    1    4    4    0    0  0.97813187852E-02 -0.28761533468E-01 -0.44022734205E-01  0.53489833170E-01  0.51100000000E-03 0. -1.
         11    1    4    4    0    0  0.28201650996E-01 -0.50405578791E-01 -0.47034255385E-01  0.74488507790E-01  0.51100000000E-03 0.  1.
</event>
<event>
 8    1  0.1143957E+005  0.1043930E+01  0.7957747E-01            NaN
         13   -1    0    0    0    0  0.00000000000E+00  0.00000000000E+00  0.74505805969E-08  0.10566000000E+00  0.10566000000E+00 0.  1.
     999900   -1    0    0    0    0 -0.00000000000E+00 -0.00000000000E+00 -0.74505805969E-08  0.93827000000E+00  0.93827000000E+00 0.  1.
     999902    2    1    2    0    0  0.72022650188E-02  0.19858788919E-01 -0.11676523364E-01  0.10197931958E+01  0.10195075168E+01 0.  0.
     999903    2    3    3    0    0  0.99301196986E-01 -0.65030096987E-01  0.46742997748E-01  0.12900636572E+00  0.19185758247E-01 0.  0.
         14    1    1    2    0    0 -0.72022650188E-02 -0.19858788919E-01  0.11676523364E-01  0.24136804192E-01  0.00000000000E+00 0.  1.
     999901    1    3    3    0    0 -0.92098931967E-01  0.84888885906E-01 -0.58419521112E-01  0.89078683009E+00  0.88000000000E+00 0.  1.
        -11    1    4    4    0    0  0.39669361679E-01 -0.16155757896E-01  0.12355688281E-01  0.44582405981E-01  0.51100000000E-03 0. -1.
         11    1    4    4    0    0  0.59631835308E-01 -0.48874339092E-01  0.34387309467E-01  0.84423959734E-01  0.51100000000E-03 0.  1.
</event>
<event>
 8    1  0.1143957E+005  0.1043930E+01  0.7957747E-01            NaN
         13   -1    0    0    0    0  0.00000000000E+00  0.00000000000E+00  0.74505805969E-08  0.10566000000E+00  0.10566000000E+00 0.  1.
     999900   -1    0    0    0    0 -0.00000000000E+00 -0.00000000000E+00 -0.74505805969E-08  0.93827000000E+00  0.93827000000E+00 0.  1.
     999902    2    1    2    0    0  0.11669714541E-01 -0.20813588330E-01 -0.63652505481E-02  0.10192337632E+01  0.10189345219E+01 0.  0.
     999903    2    3    3    0    0  0.73201127858E-01 -0.25148786424E-02  0.10527281840E+00  0.12986094148E+00  0.20414898853E-01 0.  0.
         14    1    1    2    0    0 -0.11669714541E-01  0.20813588330E-01  0.63652505481E-02  0.24696236782E-01  0.00000000000E+00 0.  1.
     999901    1    3    3    0    0 -0.61531413317E-01 -0.18298709688E-01 -0.11163806895E+00  0.88937282173E+00  0.88000000000E+00 0.  1.
        -11    1    4    4    0    0  0.24250364390E-01  0.18777915173E-02  0.51815785978E-01  0.57242842972E-01  0.51100000000E-03 0. -1.
         11    1    4    4    0    0  0.48950763468E-01 -0.43926701597E-02  0.53457032421E-01  0.72618098512E-01  0.51100000000E-03 0.  1.
</event>
<event>
 8    1  0.1143957E+005  0.1043930E+01  0.7957747E-01            NaN
         13   -1    0    0    0    0  0.00000000000E+00  0.00000000000E+00  0.74505805969E-08  0.10566000000E+00  0.10566000000E+00 0.  1.
     999900   -1    0    0    0    0 -0.00000000000E+00 -0.00000000000E+00 -0.74505805969E-08  0.93827000000E+00  0.93827000000E+00 0. -1.
     999902    2    1    2    0    0  0.31708218334E-02 -0.20894279291E-01  0.10456916817E-01  0.10203509388E+01  0.10200784608E+01 0.  0.
     999903    2    3    3    0    0  0.67393932012E-01  0.66211440645E-01  0.87563530173E-01  0.13037484689E+00  0.20108006910E-01 0.  0.
         14    1    1    2    0    0 -0.31708218334E-02  0.20894279291E-01 -0.10456916817E-01  0.23579061209E-01  0.00000000000E+00 0. -1.
     999901    1    3    3    0    0 -0.64223110178E-01 -0.87105719936E-01 -0.77106613356E-01  0.88997609190E+00  0.88000000000E+00 0. -1.
        -11    1    4    4    0    0  0.11176385930E-01  0.28746874400E-02  0.71170555278E-02  0.13567941285E-01  0.51100000000E-03 0.  1.
         11    1    4    4    0    0  0.56217546082E-01  0.63336753205E-01  0.80446474645E-01  0.11680690561E+00  0.51100000000E-03 0. -1.
</event>
<event>
 8    1  0.1143957E+005  0.1043930E+01  0.7957747E-01            NaN
         13   -1    0    0    0    0  0.00000000000E+00  0.00000000000E+00  0.74505805969E-08  0.10566000000E+00  0.10566000000E+00 0. -1.
     999900   -1    0    0    0    0 -0.00000000000E+00 -0.00000000000E+00 -0.74505805969E-08  0.93827000000E+00  0.93827000000E+00 0.  1.
     999902    2    1    2    0    0 -0.64035726513E-02 -0.27480432291E-01 -0.11854369663E-02  0.10156884497E+01  0.10152957410E+01 0.  0.
     999903    2    3    3    0    0  0.72737001306E-01 -0.33586506661E-01 -0.96434306341E-01  0.12699679244E+00  0.20245618359E-01 0.  0.
         14    1    1    2    0    0  0.64035726513E-02  0.27480432291E-01  0.11854369663E-02  0.28241550283E-01  0.00000000000E+00 0. -1.
     999901    1    3    3    0    0 -0.79140573958E-01  0.61060743703E-02  0.95248869375E-01  0.88869165727E+00  0.88000000000E+00 0. -1.
        -11    1    4    4    0    0  0.57188478157E-01 -0.17552083666E-01 -0.75995743988E-01  0.96717174794E-01  0.51100000000E-03 0. -1.
         11    1    4    4    0    0  0.15548523149E-01 -0.16034422995E-01 -0.20438562353E-01  0.30279617649E-01  0.51100000000E-03 0.  1.
</event>
<event>
 8    1  0.1143957E+005  0.1043930E+01  0.7957747E-01            NaN
         13   -1    0    0    0    0  0.00000000000E+00  0.00000000000E+00  0.74505805969E-08  0.10566000000E+00  0.10566000000E+00 0.  1.
     999900   -1    0    0    0    0 -0.00000000000E+00 -0.00000000000E+00 -0.74505805969E-08  0.93827000000E+00  0.93827000000E+00 0.  1.
     999902    2    1    2    0    0  0.80494888378E-02  0.21291453664E-01  0.32980237786E-02  0.10209300602E+01  0.10206709512E+01 0.  0.
     999903    2    3    3    0    0  0.22049280656E-01 -0.37159250005E-01  0.12187644792E+00  0.13094504820E+00  0.20633866635E-01 0.  0.
         14    1    1    2    0    0 -0.80494888378E-02 -0.21291453664E-01 -0.32980237786E-02  0.22999939794E-01  0.00000000000E+00 0. -1.
     999901    1    3    3    0    0 -0.13999791819E-01  0.58450703669E-01 -0.11857842414E+00  0.88998501201E+00  0.88000000000E+00 0.  1.
        -11    1    4    4    0    0  0.10901194360E-01 -0.92748299567E-02  0.65707142672E-01  0.67249893890E-01  0.51100000000E-03 0.  1.
         11    1    4    4    0    0  0.11148086296E-01 -0.27884420049E-01  0.56169305244E-01  0.63695154307E-01  0.51100000000E-03 0. -1.
</event>
<event>
 8    1  0.1143957E+005  0.1043930E+01  0.7957747E-01            NaN
         13   -1    0    0    0    0  0.00000000000E+00  0.00000000000E+00  0.74505805969E-08  0.10566000000E+00  0.10566000000E+00 0. -1.
     999900   -1    0    0    0    0 -0.00000000000E+00 -0.00000000000E+00 -0.74505805969E-08  0.93827000000E+00  0.93827000000E+00 0.  1.
     999902    2    1    2    0    0  0.63327951913E-02 -0.19176265231E-01  0.11808935116E-01  0.10205358898E+01  0.10202677188E+01 0.  0.
     999903    2    3    3    0    0  0.11278746782E+00  0.48067119873E-01 -0.38489721346E-01  0.13015157671E+00  0.20652199906E-01 0.  0.
         14    1    1    2    0    0 -0.63327951913E-02  0.19176265231E-01 -0.11808935116E-01  0.23394110193E-01  0.00000000000E+00 0.  1.
     999901    1    3    3    0    0 -0.10645467263E+00 -0.67243385104E-01  0.50298656462E-01  0.89038431310E+00  0.88000000000E+00 0. -1.
        -11    1    4    4    0    0  0.66368927480E-01  0.38695948588E-01 -0.20751228090E-01  0.79580685849E-01  0.51100000000E-03 0. -1.
         11    1    4    4    0    0  0.46418540341E-01  0.93711712844E-02 -0.17738493257E-01  0.50570890863E-01  0.51100000000E-03 0.  1.
</event>
<event>
 8    1  0.1143957E+005  0.1043930E+01  0.7957747E-01            NaN
         13   -1    0    0    0    0  0.00000000000E+00  0.00000000000E+00  0.74505805969E-08  0.10566000000E+00  0.10566000000E+00 0. -1.
     999900   -1    0    0    0    0 -0.00000000000E+00 -0.00000000000E+00 -0.74505805969E-08  0.93827000000E+00  0.93827000000E+00 0. -1.
     999902    2    1    2    0    0 -0.28402419033E-02 -0.25061495361E-02  0.22751873885E-01  0.10208649718E+01  0.10206043774E+01 0.  0.
     999903    2    3    3    0    0 -0.91815368085E-01 -0.48640440666E-01  0.81144836703E-01  0.13325318506E+00  0.19390010822E-01 0.  0.
         14    1    1    2    0    0  0.28402419033E-02  0.25061495361E-02 -0.22751873885E-01  0.23065028178E-01  0.00000000000E+00 0.  1.
     999901    1    3    3    0    0  0.88975126182E-01  0.46134291130E-01 -0.58392962818E-01  0.88761178676E+00  0.88000000000E+00 0.  1.
        -11    1    4    4    0    0 -0.14688931806E-01 -0.14195531912E-01  0.96935413171E-02  0.22616447734E-01  0.51100000000E-03 0. -1.
         11    1    4    4    0    0 -0.77126436280E-01 -0.34444908754E-01  0.71451295386E-01  0.11063673732E+00  0.51100000000E-03 0.  1.
</event>
<event>
 8    1  0.1143957E+005  0.1043930E+01  0.7957747E-01            NaN
         13   -1    0    0    0    0  0.00000000000E+00  0.00000000000E+00  0.74505805969E-08  0.10566000000E+00  0.10566000000E+00 0. -1.
     999900   -1    0    0    0    0 -0.00000000000E+00 -0.00000000000E+00 -0.74505805969E-08  0.93827000000E+00  0.93827000000E+00 0.  1.
     999902    2    1    2    0    0  0.75698259212E-02  0.10503584064E-01 -0.20326052488E-01  0.10198307064E+01  0.10195459253E+01 0.  0.
     999903    2    3    3    0    0 -0.11945922157E+00  0.43143387982E-01 -0.20687437761E-01  0.13011060079E+00  0.19207832070E-01 0.  0.
         14    1    1    2    0    0 -0.75698259212E-02 -0.10503584064E-01  0.20326052488E-01  0.24099293608E-01  0.00000000000E+00 0. -1.
     999901    1    3    3    0    0  0.12702904749E+00 -0.32639803918E-01  0.36138527339E-03  0.88972010560E+00  0.88000000000E+00 0.  1.
        -11    1    4    4    0    0 -0.29638366199E-01  0.10701599007E-01 -0.13667954433E-01  0.34351580337E-01  0.51100000000E-03 0.  1.
         11    1    4    4    0    0 -0.89820855372E-01  0.32441788975E-01 -0.70194833282E-02  0.95759020457E-01  0.51100000000E-03 0. -1.
</event>
<event>
 8    1  0.1143957E+005  0.1043930E+01  0.7957747E-01            NaN
         13   -1    0    0    0    0  0.00000000000E+00  0.00000000000E+00  0.74505805969E-08  0.10566000000E+00  0.10566000000E+00 0. -1.
     999900   -1    0    0    0    0 -0.00000000000E+00 -0.00000000000E+00 -0.74505805969E-08  0.93827000000E+00  0.93827000000E+00 0.  1.
     999902    2    1    2    0    0  0.16274630167E-02  0.47642027588E-02  0.22673922258E-01  0.10207038722E+01  0.10204395825E+01 0.  0.
     999903    2    3    3    0    0  0.20001956363E-01 -0.12368684765E+00 -0.27386640597E-01  0.12978111776E+00  0.19864438176E-01 0.  0.
         14    1    1    2    0    0 -0.16274630167E-02 -0.47642027588E-02 -0.22673922258E-01  0.23226127838E-01  0.00000000000E+00 0.  1.
     999901    1    3    3    0    0 -0.18374493346E-01  0.12845105041E+00  0.50060562855E-01  0.89092275440E+00  0.88000000000E+00 0. -1.
        -11    1    4    4    0    0  0.48411904130E-02 -0.71390091139E-01 -0.22959537003E-01  0.75149076493E-01  0.51100000000E-03 0.  1.
         11    1    4    4    0    0  0.15160765950E-01 -0.52296756511E-01 -0.44271035942E-02  0.54632041267E-01  0.51100000000E-03 0. -1.
</event>
<event>
 8    1  0.1143957E+005  0.1043930E+01  0.7957747E-01            NaN
         13   -1    0    0    0    0  0.00000000000E+00  0.00000000000E+00  0.74505805969E-08  0.10566000000E+00  0.10566000000E+00 0.  1.
     999900   -1    0    0    0    0 -0.00000000000E+00 -0.00000000000E+00 -0.74505805969E-08  0.93827000000E+00  0.93827000000E+00 0. -1.
     999902    2    1    2    0    0 -0.36128173726E-02 -0.22600406302E-01 -0.59514428371E-03  0.10210349129E+01  0.10207781877E+01 0.  0.
     999903    2    3    3    0    0  0.74550182439E-01 -0.95787830696E-01  0.50617259669E-01  0.13306612749E+00  0.20284208083E-01 0.  0.
         14    1    1    2    0    0  0.36128173726E-02  0.22600406302E-01  0.59514428371E-03  0.22895087052E-01  0.00000000000E+00 0. -1.
     999901    1    3    3    0    0 -0.78162999812E-01  0.73187424394E-01 -0.51212403953E-01  0.88796878546E+00  0.88000000000E+00 0.  1.
        -11    1    4    4    0    0  0.38482043839E-01 -0.46545338981E-01  0.14395776703E-01  0.62087323881E-01  0.51100000000E-03 0.  1.
         11    1    4    4    0    0  0.36068138600E-01 -0.49242491715E-01  0.36221482967E-01  0.70978803609E-01  0.51100000000E-03 0. -1.
</event>
<event>
 8    1  0.1143957E+005  0.1043930E+01  0.7957747E-01            NaN
         13   -1    0    0    0    0  0.00000000000E+00  0.00000000000E+00  0.74505805969E-08  0.10566000000E+00  0.10566000000E+00 0.  1.
     999900   -1    0    0    0    0 -0.00000000000E+00 -0.00000000000E+00 -0.74505805969E-08  0.93827000000E+00  0.93827000000E+00 0.  1.
     999902    2    1    2    0    0 -0.20433679186E-01 -0.89952501583E-02  0.85215772991E-02  0.10200329908E+01  0.10197530266E+01 0.  0.
     999903    2    3    3    0    0  0.94335095149E-01  0.24113401901E-01 -0.80650564973E-01  0.12749743105E+00  0.16447339183E-01 0.  0.
         14    1    1    2    0    0  0.20433679186E-01  0.89952501583E-02 -0.85215772991E-02  0.23897009231E-01  0.00000000000E+00 0. -1.
     999901    1    3    3    0    0 -0.11476877434E+00 -0.33108652060E-01  0.89172142272E-01  0.89253555972E+00  0.88000000000E+00 0.  1.
        -11    1    4    4    0    0  0.34787243778E-01  0.13859724099E-01 -0.39242512773E-01  0.54244633020E-01  0.51100000000E-03 0. -1.
         11    1    4    4    0    0  0.59547851371E-01  0.10253677803E-01 -0.41408052200E-01  0.73252798031E-01  0.51100000000E-03 0.  1.
</event>
<event>
 8    1  0.1143957E+005  0.1043930E+01  0.7957747E-01            NaN
         13   -1    0    0    0    0  0.00000000000E+00  0.00000000000E+00  0.74505805969E-08  0.10566000000E+00  0.10566000000E+00 0. -1.
     999900   -1    0    0    0    0 -0.00000000000E+00 -0.00000000000E+00 -0.74505805969E-08  0.93827000000E+00  0.93827000000E+00 0. -1.
     999902    2    1    2    0    0  0.13275623787E-01  0.14708819984E-01  0.15377941786E-01  0.10188486789E+01  0.10185399147E+01 0.  0.
     999903    2    3    3    0    0  0.47964994191E-01 -0.11730164323E+00  0.21702384605E-02  0.12822835679E+00  0.19428982879E-01 0.  0.
         14    1    1    2    0    0 -0.13275623787E-01 -0.14708819984E-01 -0.15377941786E-01  0.25081321054E-01  0.00000000000E+00 0.  1.
     999901    1    3    3    0    0 -0.34689370405E-01  0.13201046322E+00  0.13207703325E-01  0.89062032216E+00  0.88000000000E+00 0.  1.
        -11    1    4    4    0    0  0.49084264352E-02 -0.23945440353E-01 -0.57495534420E-02  0.25115637550E-01  0.51100000000E-03 0. -1.
         11    1    4    4    0    0  0.43056567756E-01 -0.93356202881E-01  0.79197919025E-02  0.10311271924E+00  0.51100000000E-03 0.  1.
</event>
<event>
 8    1  0.1143957E+005  0.1043930E+01  0.7957747E-01            NaN
         13   -1    0    0    0    0  0.00000000000E+00  0.00000000000E+00  0.74505805969E-08  0.10566000000E+00  0.10566000000E+00 0.  1.
     999900   -1    0    0    0    0 -0.00000000000E+00 -0.00000000000E+00 -0.74505805969E-08  0.93827000000E+00  0.93827000000E+00 0.  1.
     999902    2    1    2    0    0  0.20688135187E-02  0.33393914172E-02 -0.22413293706E-01  0.10211750608E+01  0.10209215041E+01 0.  0.
     999903    2    3    3    0    0 -0.21479883347E-01  0.23592813192E-01  0.12313222180E+00  0.12867954857E+00  0.19464736153E-01 0.  0.
         14    1    1    2    0    0 -0.20688135187E-02 -0.33393914172E-02  0.22413293706E-01  0.22754939226E-01  0.00000000000E+00 0.  1.
     999901    1    3    3    0    0  0.23548696866E-01 -0.20253421775E-01 -0.14554551550E+00  0.89249551220E+00  0.88000000000E+00 0.  1.
        -11    1    4    4    0    0 -0.13151647328E-01  0.20296771872E-01  0.56706405417E-01  0.61650647298E-01  0.51100000000E-03 0.  1.
         11    1    4    4    0    0 -0.83282360186E-02  0.32960413206E-02  0.66425816379E-01  0.67028901275E-01  0.51100000000E-03 0. -1.
</event>
<event>
 8    1  0.1143957E+005  0.1043930E+01  0.7957747E-01            NaN
         13   -1    0    0    0    0  0.00000000000E+00  0.00000000000E+00  0.74505805969E-08  0.10566000000E+00  0.10566000000E+00 0. -1.
     999900   -1    0    0    0    0 -0.00000000000E+00 -0.00000000000E+00 -0.74505805969E-08  0.93827000000E+00  0.93827000000E+00 0.  1.
     999902    2    1    2    0    0  0.57774873962E-02 -0.12858167665E-01  0.18909696983E-01  0.10203442315E+01  0.10200715966E+01 0.  0.
     999903    2    3    3    0    0 -0.40407000289E-01  0.81370748301E-01  0.91473285394E-01  0.13114370862E+00  0.24028858034E-01 0.  0.
         14    1    1    2    0    0 -0.57774873962E-02  0.12858167665E-01 -0.18909696983E-01  0.23585768512E-01  0.00000000000E+00 0.  1.
     999901    1    3    3    0    0  0.46184487685E-01 -0.94228915966E-01 -0.72563588411E-01  0.88920052287E+00  0.88000000000E+00 0.  1.
        -11    1    4    4    0    0  0.67848050182E-03  0.20489385352E-01  0.21054291269E-01  0.29390807232E-01  0.51100000000E-03 0.  1.
         11    1    4    4    0    0 -0.41085480790E-01  0.60881362948E-01  0.70418994125E-01  0.10175290139E+00  0.51100000000E-03 0. -1.
</event>
<event>
 8    1  0.1143957E+005  0.1043930E+01  0.7957747E-01            NaN
         13   -1    0    0    0    0  0.00000000000E+00  0.00000000000E+00  0.74505805969E-08  0.10566000000E+00  0.10566000000E+00 0.  1.
     999900   -1    0    0    0    0 -0.00000000000E+00 -0.00000000000E+00 -0.74505805969E-08  0.93827000000E+00  0.93827000000E+00 0. -1.
     999902    2    1    2    0    0 -0.20997899572E-01 -0.36752254992E-02 -0.10458510445E-01  0.10201855373E+01  0.10199091778E+01 0.  0.
     999903    2    3    3    0    0  0.61207829445E-01  0.66582121571E-01  0.88458998862E-01  0.12806528174E+00  0.19903381876E-01 0.  0.
         14    1    1    2    0    0  0.20997899572E-01  0.36752254992E-02  0.10458510445E-01  0.23744462715E-01  0.00000000000E+00 0. -1.
     999901    1    3    3    0    0 -0.82205729016E-01 -0.70257347070E-01 -0.98917509307E-01  0.89212025554E+00  0.88000000000E+00 0. -1.
        -11    1    4    4    0    0  0.37597420686E-01  0.27182584863E-01  0.39539696557E-01  0.60959885883E-01  0.51100000000E-03 0. -1.
         11    1    4    4    0    0  0.23610408759E-01  0.39399536707E-01  0.48919302305E-01  0.67105395860E-01  0.51100000000E-03 0.  1.
</event>
<event>
 8    1  0.1143957E+005  0.1043930E+01  0.7957747E-01            NaN
         13   -1    0    0    0    0  0.00000000000E+00  0.00000000000E+00  0.74505805969E-08  0.10566000000E+00  0.10566000000E+00 0.  1.
     999900   -1    0    0    0    0 -0.00000000000E+00 -0.00000000000E+00 -0.74505805969E-08  0.93827000000E+00  0.93827000000E+00 0.  1.
     999902    2    1    2    0    0 -0.18244868935E-01  0.96143324121E-02  0.11501800646E-01  0.10203164012E+01  0.10200431150E+01 0.  0.
     999903    2    3    3    0    0  0.45477537895E-01  0.95855665593E-01 -0.71862069578E-01  0.12989647356E+00  0.21270207332E-01 0.  0.
         14    1    1    2    0    0  0.18244868935E-01 -0.96143324121E-02 -0.11501800646E-01  0.23613598800E-01  0.00000000000E+00 0. -1.
     999901    1    3    3    0    0 -0.63722406830E-01 -0.86241333181E-01  0.83363870224E-01  0.89041992764E+00  0.88000000000E+00 0. -1.
        -11    1    4    4    0    0  0.33509620824E-01  0.73464671186E-01 -0.64814159194E-01  0.10354269145E+00  0.51100000000E-03 0.  1.
         11    1    4    4    0    0  0.11967917071E-01  0.22390994407E-01 -0.70479103837E-02  0.26353782107E-01  0.51100000000E-03 0. -1.
</event>
<event>
 8    1  0.1143957E+005  0.1043930E+01  0.7957747E-01            NaN
         13   -1    0    0    0    0  0.00000000000E+00  0.00000000000E+00  0.74505805969E-08  0.10566000000E+00  0.10566000000E+00 0.  1.
     999900   -1    0    0    0    0 -0.00000000000E+00 -0.00000000000E+00 -0.74505805969E-08  0.93827000000E+00  0.93827000000E+00 0. -1.
     999902    2    1    2    0    0 -0.66600658245E-02 -0.94712349330E-02 -0.19638733610E-01  0.10211321794E+01  0.10208776553E+01 0.  0.
     999903    2    3    3    0    0 -0.84936927851E-01  0.64576249707E-01  0.71234858112E-01  0.12991486199E+00  0.20471751693E-01 0.  0.
         14    1    1    2    0    0  0.66600658245E-02  0.94712349330E-02  0.19638733610E-01  0.22797820636E-01  0.00000000000E+00 0.  1.
     999901    1    3    3    0    0  0.78276862027E-01 -0.74047484640E-01 -0.90873591722E-01  0.89121731737E+00  0.88000000000E+00 0. -1.
        -11    1    4    4    0    0 -0.59476558855E-01  0.40975516537E-01  0.36989000010E-01  0.81147404465E-01  0.51100000000E-03 0.  1.
         11    1    4    4    0    0 -0.25460368996E-01  0.23600733171E-01  0.34245858101E-01  0.48767457528E-01  0.51100000000E-03 0. -1.
</event>
<event>
 8    1  0.1143957E+005  0.1043930E+01  0.7957747E-01            NaN
         13   -1    0    0    0    0  0.00000000000E+00  0.00000000000E+00  0.74505805969E-08  0.10566000000E+00  0.10566000000E+00 0.  1.
     999900   -1    0    0    0    0 -0.00000000000E+00 -0.00000000000E+00 -0.74505805969E-08  0.93827000000E+00  0.93827000000E+00 0. -1.
     999902    2    1    2    0    0  0.18046107807E-01  0.98511487912E-02  0.10880966279E-01  0.10206683886E+01  0.10204032815E+01 0.  0.
     999903    2    3    3    0    0  0.10857562558E+00 -0.25153143873E-01 -0.67566248266E-01  0.13186308954E+00  0.20033206495E-01 0.  0.
         14    1    1    2    0    0 -0.18046107807E-01 -0.98511487912E-02 -0.10880966279E-01  0.23261611437E-01  0.00000000000E+00 0.  1.
     999901    1    3    3    0    0 -0.90529517774E-01  0.35004292664E-01  0.78447214544E-01  0.88880529902E+00  0.88000000000E+00 0. -1.
        -11    1    4    4    0    0  0.10369878016E+00 -0.28135145456E-01 -0.63259843214E-01  0.12468797978E+00  0.51100000000E-03 0. -1.
         11    1    4    4    0    0  0.48768454202E-02  0.29820015825E-02 -0.43064050516E-02  0.71751097663E-02  0.51100000000E-03 0.  1.
</event>
<event>
 8    1  0.1143957E+005  0.1043930E+01  0.7957747E-01            NaN
         13   -1    0    0    0    0  0.00000000000E+00  0.00000000000E+00  0.74505805969E-08  0.10566000000E+00  0.10566000000E+00 0. -1.
     999900   -1    0    0    0    0 -0.00000000000E+00 -0.00000000000E+00 -0.74505805969E-08  0.93827000000E+00  0.93827000000E+00 0. -1.
     999902    2    1    2    0    0 -0.18335617935E-01 -0.12960811707E-01 -0.90195625761E-02  0.10197322721E+01  0.10194451318E+01 0.  0.
     999903    2    3    3    0    0 -0.48051210116E-02  0.54065735166E-01  0.11492241315E+00  0.12842017994E+00  0.18395343557E-01 0.  0.
         14    1    1    2    0    0  0.18335617935E-01  0.12960811707E-01  0.90195625761E-02  0.24197727873E-01  0.00000000000E+00 0.  1.
     999901    1    3    3    0    0 -0.13530496924E-01 -0.67026546873E-01 -0.12394197573E+00  0.89131209219E+00  0.88000000000E+00 0. -1.
        -11    1    4    4    0    0  0.31694590135E-02  0.63175166027E-02  0.28437766871E-01  0.29307408485E-01  0.51100000000E-03 0.  1.
         11    1    4    4    0    0 -0.79745800251E-02  0.47748218563E-01  0.86484646278E-01  0.99112771455E-01  0.51100000000E-03 0. -1.
</event>
<event>
 8    1  0.1143957E+005  0.1043930E+01  0.7957747E-01            NaN
         13   -1    0    0    0    0  0.00000000000E+00  0.00000000000E+00  0.74505805969E-08  0.10566000000E+00  0.10566000000E+00 0. -1.
     999900   -1    0    0    0    0 -0.00000000000E+00 -0.00000000000E+00 -0.74505805969E-08  0.93827000000E+00  0.93827000000E+00 0. -1.
     999902    2    1    2    0    0 -0.11070432230E-01  0.76538844138E-02 -0.18457561993E-01  0.10210866637E+01  0.10208311108E+01 0.  0.
     999903    2    3    3    0    0 -0.10975723996E+00 -0.64037231644E-01 -0.29218470497E-01  0.13260790807E+00  0.24160287767E-01 0.  0.
         14    1    1    2    0    0  0.11070432230E-01 -0.76538844138E-02  0.18457561993E-01  0.22843336251E-01  0.00000000000E+00 0. -1.
     999901    1    3    3    0    0  0.98686807727E-01  0.71691116057E-01  0.10760908504E-01  0.88847875568E+00  0.88000000000E+00 0. -1.
        -11    1    4    4    0    0 -0.10673022641E+00 -0.62602525492E-01 -0.32455168158E-01  0.12792191559E+00  0.51100000000E-03 0. -1.
         11    1    4    4    0    0 -0.30270135465E-02 -0.14347061517E-02  0.32366976612E-02  0.46859924779E-02  0.51100000000E-03 0.  1.
</event>
<event>
 8    1  0.1143957E+005  0.1043930E+01  0.7957747E-01            NaN
         13   -1    0    0    0    0  0.00000000000E+00  0.00000000000E+00  0.74505805969E-08  0.10566000000E+00  0.10566000000E+00 0. -1.
     999900   -1    0    0    0    0 -0.00000000000E+00 -0.00000000000E+00 -0.74505805969E-08  0.93827000000E+00  0.93827000000E+00 0. -1.
     999902    2    1    2    0    0 -0.78753306604E-03 -0.23626541868E-01 -0.36871785049E-03  0.10202874612E+01  0.10200134969E+01 0.  0.
     999903    2    3    3    0    0 -0.13844026256E-01 -0.12925596213E+00  0.23540253224E-01  0.13355205231E+00  0.19576678622E-01 0.  0.
         14    1    1    2    0    0  0.78753306604E-03  0.23626541868E-01  0.36871785049E-03  0.23642538819E-01  0.00000000000E+00 0.  1.
     999901    1    3    3    0    0  0.13056493190E-01  0.10562942026E+00 -0.23908971074E-01  0.88673540887E+00  0.88000000000E+00 0.  1.
        -11    1    4    4    0    0 -0.15313497748E-01 -0.12518191467E+00  0.25664844930E-01  0.12870105035E+00  0.51100000000E-03 0.  1.
         11    1    4    4    0    0  0.14694714914E-02 -0.40740474620E-02 -0.21245917059E-02  0.48510019690E-02  0.51100000000E-03 0. -1.
</event>
<event>
 8    1  0.1143957E+005  0.1043930E+01  0.7957747E-01            NaN
         13   -1    0    0    0    0  0.00000000000E+00  0.00000000000E+00  0.74505805969E-08  0.10566000000E+00  0.10566000000E+00 0.  1.
     999900   -1    0    0    0    0 -0.00000000000E+00 -0.00000000000E+00 -0.74505805969E-08  0.93827000000E+00  0.93827000000E+00 0.  1.
     999902    2    1    2    0    0 -0.93979470952E-03  0.23976896798E-01  0.46701515599E-02  0.10194844460E+01  0.10191913219E+01 0.  0.
     999903    2    3    3    0    0 -0.61179539065E-01  0.52293113238E-01 -0.10091338655E+00  0.13067708869E+00  0.20383430286E-01 0.  0.
         14    1    1    2    0    0  0.93979470952E-03 -0.23976896798E-01 -0.46701515599E-02  0.24445553988E-01  0.00000000000E+00 0. -1.
     999901    1    3    3    0    0  0.60239744356E-01 -0.28316216439E-01  0.10558353811E+00  0.88880735732E+00  0.88000000000E+00 0. -1.
        -11    1    4    4    0    0 -0.17044981102E-01  0.26540117395E-01 -0.44666673717E-01  0.54683471672E-01  0.51100000000E-03 0. -1.
         11    1    4    4    0    0 -0.44134557963E-01  0.25752995842E-01 -0.56246712835E-01  0.75993617016E-01  0.51100000000E-03 0.  1.
</event>
<event>
 8    1  0.1143957E+005  0.1043930E+01  0.7957747E-01            NaN
         13   -1    0    0    0    0  0.00000000000E+00  0.00000000000E+00  0.74505805969E-08  0.10566000000E+00  0.10566000000E+00 0. -1.
     999900   -1    0    0    0    0 -0.00000000000E+00 -0.00000000000E+00 -0.74505805969E-08  0.93827000000E+00  0.93827000000E+00 0.  1.
     999902    2    1    2    0    0  0.19003540062E-01  0.14152541825E-01 -0.15568619880E-03  0.10202349960E+01  0.10199598001E+01 0.  0.
     999903    2    3    3    0    0 -0.58815619953E-01  0.97719301326E-01  0.60597911214E-01  0.13077998055E+00  0.20565929773E-01 0.  0.
         14    1    1    2    0    0 -0.19003540062E-01 -0.14152541825E-01  0.15568619880E-03  0.23695003971E-01  0.00000000000E+00 0. -1.
     999901    1    3    3    0    0  0.77819160015E-01 -0.83566759501E-01 -0.60753597413E-01  0.88945501548E+00  0.88000000000E+00 0. -1.
        -11    1    4    4    0    0 -0.45390186519E-01  0.68023976255E-01  0.52551398833E-01  0.97208235341E-01  0.51100000000E-03 0. -1.
         11    1    4    4    0    0 -0.13425433433E-01  0.29695325072E-01  0.80465123805E-02  0.33571745210E-01  0.51100000000E-03 0.  1.
</event>
<event>
 8    1  0.1143957E+005  0.1043930E+01  0.7957747E-01            NaN
         13   -1    0    0    0    0  0.00000000000E+00  0.00000000000E+00  0.74505805969E-08  0.10566000000E+00  0.10566000000E+00 0.  1.
     999900   -1    0    0    0    0 -0.00000000000E+00 -0.00000000000E+00 -0.74505805969E-08  0.93827000000E+00  0.93827000000E+00 0. -1.
     999902    2    1    2    0    0 -0.10014336095E-01 -0.21566496097E-01 -0.70080858950E-02  0.10191406081E+01  0.10188390772E+01 0.  0.
     999903    2    3    3    0    0  0.52534114130E-02  0.12352044628E+00 -0.21190458040E-01  0.12701703785E+00  0.19984829541E-01 0.  0.
         14    1    1    2    0    0  0.10014336095E-01  0.21566496097E-01  0.70080858950E-02  0.24789391869E-01  0.00000000000E+00 0. -1.
     999901    1    3    3    0    0 -0.15267747508E-01 -0.14508694238E+00  0.14182372145E-01  0.89212357028E+00  0.88000000000E+00 0.  1.
        -11    1    4    4    0    0  0.10486431132E-01  0.91098272889E-01 -0.21423244654E-01  0.94170468268E-01  0.51100000000E-03 0.  1.
         11    1    4    4    0    0 -0.52330197193E-02  0.32422173394E-01  0.23278661343E-03  0.32846569586E-01  0.51100000000E-03 0. -1.
</event>
<event>
 8    1  0.1143957E+005  0.1043930E+01  0.7957747E-01            NaN
         13   -1    0    0    0    0  0.00000000000E+00  0.00000000000E+00  0.74505805969E-08  0.10566000000E+00  0.10566000000E+00 0. -1.
     999900   -1    0    0    0    0 -0.00000000000E+00 -0.00000000000E+00 -0.74505805969E-08  0.93827000000E+00  0.93827000000E+00 0. -1.
     999902    2    1    2    0    0  0.20272006555E-01 -0.81412658517E-02 -0.48120002302E-02  0.10215606056E+01  0.10213156618E+01 0.  0.
     999903    2    3    3    0    0 -0.56530860437E-01  0.66283955227E-01 -0.95088368051E-01  0.13050077793E+00  0.19983853454E-01 0.  0.
         14    1    1    2    0    0 -0.20272006555E-01  0.81412658517E-02  0.48120002302E-02  0.22369394396E-01  0.00000000000E+00 0.  1.
     999901    1    3    3    0    0  0.76802866992E-01 -0.74425221079E-01  0.90276367821E-01  0.89105982768E+00  0.88000000000E+00 0. -1.
        -11    1    4    4    0    0 -0.37963792743E-01  0.56855240860E-01 -0.76305506962E-01  0.10245271830E+00  0.51100000000E-03 0.  1.
         11    1    4    4    0    0 -0.18567067694E-01  0.94287143671E-02 -0.18782861088E-01  0.28048059631E-01  0.51100000000E-03 0. -1.
</event>
<event>
 8    1  0.1143957E+005  0.1043930E+01  0.7957747E-01            NaN
         13   -1    0    0    0    0  0.00000000000E+00  0.00000000000E+00  0.74505805969E-08  0.10566000000E+00  0.10566000000E+00 0. -1.
     999900   -1    0    0    0    0 -0.00000000000E+00 -0.00000000000E+00 -0.74505805969E-08  0.93827000000E+00  0.93827000000E+00 0.  1.
     999902    2    1    2    0    0  0.26728620836E-02  0.21201520216E-01 -0.10386490014E-01  0.10201702057E+01  0.10198934850E+01 0.  0.
     999903    2    3    3    0    0  0.77623817904E-01  0.38562878073E-01 -0.98250743790E-01  0.13245449127E+00  0.19453301282E-01 0.  0.
         14    1    1    2    0    0 -0.26728620836E-02 -0.21201520216E-01  0.10386490014E-01  0.23759794317E-01  0.00000000000E+00 0. -1.
     999901    1    3    3    0    0 -0.74950955820E-01 -0.17361357857E-01  0.87864253776E-01  0.88771571441E+00  0.88000000000E+00 0. -1.
        -11    1    4    4    0    0  0.13198618414E-01  0.13287855563E-01 -0.29178039962E-01  0.34675492362E-01  0.51100000000E-03 0. -1.
         11    1    4    4    0    0  0.64425199490E-01  0.25275022510E-01 -0.69072703828E-01  0.97778998907E-01  0.51100000000E-03 0.  1.
</event>
<event>
 8    1  0.1143957E+005  0.1043930E+01  0.7957747E-01            NaN
         13   -1    0    0    0    0  0.00000000000E+00  0.00000000000E+00  0.74505805969E-08  0.10566000000E+00  0.10566000000E+00 0. -1.
     999900   -1    0    0    0    0 -0.00000000000E+00 -0.00000000000E+00 -0.74505805969E-08  0.93827000000E+00  0.93827000000E+00 0. -1.
     999902    2    1    2    0    0  0.17402732393E-01 -0.13154049960E-01 -0.89335394900E-02  0.10203568743E+01  0.10200845351E+01 0.  0.
     999903    2    3    3    0    0  0.94129621140E-01  0.59614763711E-01  0.65757811878E-01  0.13088449498E+00  0.19807967434E-01 0.  0.
         14    1    1    2    0    0 -0.17402732393E-01  0.13154049960E-01  0.89335394900E-02  0.23573125650E-01  0.00000000000E+00 0.  1.
     999901    1    3    3    0    0 -0.76726888747E-01 -0.72768813671E-01 -0.74691351368E-01  0.88947237937E+00  0.88000000000E+00 0. -1.
        -11    1    4    4    0    0  0.34965766413E-01  0.26516191491E-01  0.36354766106E-01  0.56988098508E-01  0.51100000000E-03 0. -1.
         11    1    4    4    0    0  0.59163854727E-01  0.33098572220E-01  0.29403045773E-01  0.73896396468E-01  0.51100000000E-03 0.  1.
</event>
<event>
 8    1  0.1143957E+005  0.1043930E+01  0.7957747E-01            NaN
         13   -1    0    0    0    0  0.00000000000E+00  0.00000000000E+00  0.74505805969E-08  0.10566000000E+00  0.10566000000E+00 0.  1.
     999900   -1    0    0    0    0 -0.00000000000E+00 -0.00000000000E+00 -0.74505805969E-08  0.93827000000E+00  0.93827000000E+00 0. -1.
     999902    2    1    2    0    0  0.21806704408E-01 -0.59133182639E-02 -0.46914415278E-02  0.10208538367E+01  0.10205929877E+01 0.  0.
     999903    2    3    3    0    0 -0.46160126930E-01 -0.42073507439E-01  0.11212655203E+00  0.12980193411E+00  0.19371140460E-01 0.  0.
         14    1    1    2    0    0 -0.21806704408E-01  0.59133182639E-02  0.46914415278E-02  0.23076163321E-01  0.00000000000E+00 0.  1.
     999901    1    3    3    0    0  0.67966831338E-01  0.36160189175E-01 -0.11681799356E+00  0.89105190256E+00  0.88000000000E+00 0. -1.
        -11    1    4    4    0    0 -0.11079030152E-02 -0.87583266688E-02  0.21550857036E-01  0.23294555053E-01  0.51100000000E-03 0. -1.
         11    1    4    4    0    0 -0.45052223915E-01 -0.33315180770E-01  0.90575694997E-01  0.10650737906E+00  0.51100000000E-03 0.  1.
</event>
<event>
 8    1  0.1143957E+005  0.1043930E+01  0.7957747E-01            NaN
         13   -1    0    0    0    0  0.00000000000E+00  0.00000000000E+00  0.74505805969E-08  0.10566000000E+00  0.10566000000E+00 0.  1.
     999900   -1    0    0    0    0 -0.00000000000E+00 -0.00000000000E+00 -0.74505805969E-08  0.93827000000E+00  0.93827000000E+00 0. -1.
     999902    2    1    2    0    0  0.32554184415E-02 -0.87098305497E-02  0.23368990522E-01  0.10187790832E+01  0.10184685816E+01 0.  0.
     999903    2    3    3    0    0  0.90815376591E-01 -0.89654089713E-01  0.21166517050E-01  0.13073428127E+00  0.18924651312E-01 0.  0.
         14    1    1    2    0    0 -0.32554184415E-02  0.87098305497E-02 -0.23368990522E-01  0.25150916792E-01  0.00000000000E+00 0. -1.
     999901    1    3    3    0    0 -0.87559958149E-01  0.80944259163E-01  0.22024734718E-02  0.88804480194E+00  0.88000000000E+00 0.  1.
        -11    1    4    4    0    0  0.39324364451E-01 -0.50709889428E-01  0.62883348540E-02  0.64480251252E-01  0.51100000000E-03 0. -1.
         11    1    4    4    0    0  0.51491012140E-01 -0.38944200285E-01  0.14878182196E-01  0.66254030017E-01  0.51100000000E-03 0.  1.
</event>
<event>
 8    1  0.1143957E+005  0.1043930E+01  0.7957747E-01            NaN
         13   -1    0    0    0    0  0.00000000000E+00  0.00000000000E+00  0.74505805969E-08  0.10566000000E+00  0.10566000000E+00 0. -1.
     999900   -1    0    0    0    0 -0.00000000000E+00 -0.00000000000E+00 -0.74505805969E-08  0.93827000000E+00  0.93827000000E+00 0.  1.
     999902    2    1    2    0    0 -0.91602360663E-02 -0.91291307413E-02  0.25402097478E-01  0.10154253072E+01  0.10150251411E+01 0.  0.
     999903    2    3    3    0    0 -0.41054357584E-01 -0.11900671063E+00  0.92342896861E-02  0.12787152546E+00  0.20440094532E-01 0.  0.
         14    1    1    2    0    0  0.91602360663E-02  0.91291307413E-02 -0.25402097478E-01  0.28504692757E-01  0.00000000000E+00 0.  1.
     999901    1    3    3    0    0  0.31894121518E-01  0.10987757989E+00  0.16167807792E-01  0.88755378178E+00  0.88000000000E+00 0. -1.
        -11    1    4    4    0    0 -0.17994645228E-01 -0.31652666634E-01  0.90581994012E-02  0.37523468114E-01  0.51100000000E-03 0.  1.
         11    1    4    4    0    0 -0.23059712357E-01 -0.87354044000E-01  0.17609028489E-03  0.90348057344E-01  0.51100000000E-03 0. -1.
</event>
<event>
 8    1  0.1143957E+005  0.1043930E+01  0.7957747E-01            NaN
         13   -1    0    0    0    0  0.00000000000E+00  0.00000000000E+00  0.74505805969E-08  0.10566000000E+00  0.10566000000E+00 0.  1.
     999900   -1    0    0    0    0 -0.00000000000E+00 -0.00000000000E+00 -0.74505805969E-08  0.93827000000E+00  0.93827000000E+00 0.  1.
     999902    2    1    2    0    0  0.40666359869E-03 -0.11307241170E-02 -0.23676542391E-01  0.10202229848E+01  0.10199475065E+01 0.  0.
     999903    2    3    3    0    0 -0.52200488368E-01  0.97429644143E-01 -0.69162801932E-01  0.13199403992E+00  0.20530632234E-01 0.  0.
         14    1    1    2    0    0 -0.40666359869E-03  0.11307241170E-02  0.23676542391E-01  0.23707015247E-01  0.00000000000E+00 0.  1.
     999901    1    3    3    0    0  0.52607151967E-01 -0.98560368261E-01  0.45486259541E-01  0.88822894483E+00  0.88000000000E+00 0. -1.
        -11    1    4    4    0    0 -0.28754278333E-01  0.56764563185E-01 -0.27852178893E-01  0.69462429745E-01  0.51100000000E-03 0. -1.
         11    1    4    4    0    0 -0.23446210035E-01  0.40665080959E-01 -0.41310623039E-01  0.62531610177E-01  0.51100000000E-03 0.  1.
</event>
<event>
 8    1  0.1143957E+005  0.1043930E+01  0.7957747E-01            NaN
         13   -1    0    0    0    0  0.00000000000E+00  0.00000000000E+00  0.74505805969E-08  0.10566000000E+00  0.10566000000E+00 0.  1.
     999900   -1    0    0    0    0 -0.00000000000E+00 -0.00000000000E+00 -0.74505805969E-08  0.93827000000E+00  0.93827000000E+00 0. -1.
     999902    2    1    2    0    0  0.16500486232E-02 -0.16735055328E-01  0.19181191744E-01  0.10184211221E+01  0.10181016054E+01 0.  0.
     999903    2    3    3    0    0 -0.22270872144E-01 -0.12647073300E+00 -0.13662345676E-01  0.13067519705E+00  0.19962699799E-01 0.  0.
         14    1    1    2    0    0 -0.16500486232E-02  0.16735055328E-01 -0.19181191744E-01  0.25508877945E-01  0.00000000000E+00 0. -1.
     999901    1    3    3    0    0  0.23920920767E-01  0.10973567768E+00  0.32843537420E-01  0.88774592500E+00  0.88000000000E+00 0.  1.
        -11    1    4    4    0    0 -0.12742809268E-01 -0.42000967371E-01 -0.12579122042E-01  0.45661317113E-01  0.51100000000E-03 0.  1.
         11    1    4    4    0    0 -0.95280628757E-02 -0.84469765633E-01 -0.10832236335E-02  0.85013879941E-01  0.51100000000E-03 0. -1.
</event>
<event>
 8    1  0.1143957E+005  0.1043930E+01  0.7957747E-01            NaN
         13   -1    0    0    0    0  0.00000000000E+00  0.00000000000E+00  0.74505805969E-08  0.10566000000E+00  0.10566000000E+00 0. -1.
     999900   -1    0    0    0    0 -0.00000000000E+00 -0.00000000000E+00 -0.74505805969E-08  0.93827000000E+00  0.93827000000E+00 0. -1.
     999902    2    1    2    0    0 -0.17144560173E-01 -0.38998362475E-02  0.15149464565E-01  0.10207211452E+01  0.10204572530E+01 0.  0.
     999903    2    3    3    0    0  0.28873303669E-01 -0.14309055580E-01  0.12706155577E+00  0.13237981898E+00  0.18475951445E-01 0.  0.
         14    1    1    2    0    0  0.17144560173E-01  0.38998362475E-02 -0.15149464565E-01  0.23208854838E-01  0.00000000000E+00 0.  1.
     999901    1    3    3    0    0 -0.46017863841E-01  0.10409219333E-01 -0.11191209121E+00  0.88834132618E+00  0.88000000000E+00 0. -1.
        -11    1    4    4    0    0 -0.35010228562E-03 -0.62336025951E-02  0.31709919839E-01  0.32322755299E-01  0.51100000000E-03 0. -1.
         11    1    4    4    0    0  0.29223405955E-01 -0.80754529852E-02  0.95351635935E-01  0.10005706368E+00  0.51100000000E-03 0.  1.
</event>
<event>
 8    1  0.1143957E+005  0.1043930E+01  0.7957747E-01            NaN
         13   -1    0    0    0    0  0.00000000000E+00  0.00000000000E+00  0.74505805969E-08  0.10566000000E+00  0.10566000000E+00 0. -1.
     999900   -1    0    0    0    0 -0.00000000000E+00 -0.00000000000E+00 -0.74505805969E-08  0.93827000000E+00  0.93827000000E+00 0.  1.
     999902    2    1    2    0    0  0.13670244501E-01  0.18423544521E-01  0.14040158520E-02  0.10209457916E+01  0.10206870409E+01 0.  0.
     999903    2    3    3    0    0 -0.10380849029E+00  0.41198907291E-01  0.64712582161E-01  0.13059308344E+00  0.19831352306E-01 0.  0.
         14    1    1    2    0    0 -0.13670244501E-01 -0.18423544521E-01 -0.14040158520E-02  0.22984208447E-01  0.00000000000E+00 0. -1.
     999901    1    3    3    0    0  0.11747873479E+00 -0.22775362770E-01 -0.63308566309E-01  0.89035270811E+00  0.88000000000E+00 0.  1.
        -11    1    4    4    0    0 -0.75994105898E-01  0.23762811062E-01  0.53375298228E-01  0.95859057489E-01  0.51100000000E-03 0.  1.
         11    1    4    4    0    0 -0.27814384390E-01  0.17436096229E-01  0.11337283934E-01  0.34734025950E-01  0.51100000000E-03 0. -1.
</event>
<event>
 8    1  0.1143957E+005  0.1043930E+01  0.7957747E-01            NaN
         13   -1    0    0    0    0  0.00000000000E+00  0.00000000000E+00  0.74505805969E-08  0.10566000000E+00  0.10566000000E+00 0. -1.
     999900   -1    0    0    0    0 -0.00000000000E+00 -0.00000000000E+00 -0.74505805969E-08  0.93827000000E+00  0.93827000000E+00 0.  1.
     999902    2    1    2    0    0 -0.53999405320E-02 -0.55642547394E-02 -0.22566667443E-01  0.10200684249E+01  0.10197893001E+01 0.  0.
     999903    2    3    3    0    0 -0.57748194441E-01 -0.59039770002E-01 -0.10255951461E+00  0.13327711569E+00  0.20586090638E-01 0.  0.
         14    1    1    2    0    0  0.53999405320E-02  0.55642547394E-02  0.22566667443E-01  0.23861575137E-01  0.00000000000E+00 0. -1.
     999901    1    3    3    0    0  0.52348253909E-01  0.53475515263E-01  0.79992847166E-01  0.88679130917E+00  0.88000000000E+00 0. -1.
        -11    1    4    4    0    0 -0.47198556313E-01 -0.52311931906E-01 -0.74454399244E-01  0.10250834418E+00  0.51100000000E-03 0. -1.
         11    1    4    4    0    0 -0.10549638128E-01 -0.67278380958E-02 -0.28105115365E-01  0.30768771518E-01  0.51100000000E-03 0.  1.
</event>
<event>
 7    1  0.1143957E+005  0.1043930E+01  0.7957747E-01            NaN
         13   -1    0    0    0    0  0.00000000000E+00  0.00000000000E+00  0.74505805969E-08  0.10566000000E+00  0.10566000000E+00 0. -1.
     999900   -1    0    0    0    0 -0.00000000000E+00 -0.00000000000E+00 -0.74505805969E-08  0.93827000000E+00  0.93827000000E+00 0.  1.
     999902    2    1    2    0    0  0.54469507456E-03 -0.62190766994E-02 -0.23119655444E-01  0.10199823054E+01  0.10197011382E+01 0.  0.
         14    1    1    2    0    0 -0.54469507456E-03  0.62190766994E-02  0.23119655444E-01  0.23947694577E-01  0.00000000000E+00 0. -1.
     999901    1    3    3    0    0  0.48071754082E-01 -0.10908226812E+00 -0.54378737843E-01  0.88970044503E+00  0.88000000000E+00 0.  1.
        -11    1    3    3    0    0  0.45211028143E-02  0.56762139259E-01  0.13832907110E-01  0.58600266757E-01  0.51100000000E-03 0.  1.
         11    1    3    3    0    0 -0.52048161822E-01  0.46101052165E-01  0.17426175289E-01  0.71681593634E-01  0.51100000000E-03 0. -1.
</event>
<event>
 8    1  0.1143957E+005  0.1043930E+01  0.7957747E-01            NaN
         13   -1    0    0    0    0  0.00000000000E+00  0.00000000000E+00  0.74505805969E-08  0.10566000000E+00  0.10566000000E+00 0. -1.
     999900   -1    0    0    0    0 -0.00000000000E+00 -0.00000000000E+00 -0.74505805969E-08  0.93827000000E+00  0.93827000000E+00 0.  1.
     999902    2    1    2    0    0 -0.20393032568E-01 -0.13070171176E-01  0.38056495218E-03  0.10197050133E+01  0.10194172179E+01 0.  0.
     999903    2    3    3    0    0 -0.59866196537E-01 -0.10114878989E+00  0.58015146617E-01  0.13255355003E+00  0.19739483342E-01 0.  0.
         14    1    1    2    0    0  0.20393032568E-01  0.13070171176E-01 -0.38056495218E-03  0.24224986720E-01  0.00000000000E+00 0. -1.
     999901    1    3    3    0    0  0.39473163969E-01  0.88078618719E-01 -0.57634581665E-01  0.88715146325E+00  0.88000000000E+00 0.  1.
        -11    1    4    4    0    0 -0.48130243347E-01 -0.63399858643E-01  0.36985741967E-01  0.87773963283E-01  0.51100000000E-03 0. -1.
         11    1    4    4    0    0 -0.11735953190E-01 -0.37748931252E-01  0.21029404650E-01  0.44779586743E-01  0.51100000000E-03 0.  1.
</event>
<event>
 8    1  0.1143957E+005  0.1043930E+01  0.7957747E-01            NaN
         13   -1    0    0    0    0  0.00000000000E+00  0.00000000000E+00  0.74505805969E-08  0.10566000000E+00  0.10566000000E+00 0.  1.
     999900   -1    0    0    0    0 -0.00000000000E+00 -0.00000000000E+00 -0.74505805969E-08  0.93827000000E+00  0.93827000000E+00 0. -1.
     999902    2    1    2    0    0  0.23319211809E-02 -0.11695491933E-01  0.21322633710E-01  0.10194989317E+01  0.10192061591E+01 0.  0.
     999903    2    3    3    0    0  0.71477528524E-01  0.18894986282E-01  0.10768970899E+00  0.13204405172E+00  0.19300274185E-01 0.  0.
         14    1    1    2    0    0 -0.23319211809E-02  0.11695491933E-01 -0.21322633710E-01  0.24431068260E-01  0.00000000000E+00 0. -1.
     999901    1    3    3    0    0 -0.69145607343E-01 -0.30590478215E-01 -0.86367075276E-01  0.88745488002E+00  0.88000000000E+00 0. -1.
        -11    1    4    4    0    0  0.28601723165E-01  0.17013481296E-01  0.42254203493E-01  0.53788436932E-01  0.51100000000E-03 0. -1.
         11    1    4    4    0    0  0.42875805359E-01  0.18815049855E-02  0.65435505494E-01  0.78255614792E-01  0.51100000000E-03 0.  1.
</event>
<event>
 8    1  0.1143957E+005  0.1043930E+01  0.7957747E-01            NaN
         13   -1    0    0    0    0  0.00000000000E+00  0.00000000000E+00  0.74505805969E-08  0.10566000000E+00  0.10566000000E+00 0.  1.
     999900   -1    0    0    0    0 -0.00000000000E+00 -0.00000000000E+00 -0.74505805969E-08  0.93827000000E+00  0.93827000000E+00 0.  1.
     999902    2    1    2    0    0 -0.11195718516E-01 -0.20603265098E-01  0.10313264277E-02  0.10204586924E+01  0.10201887279E+01 0.  0.
     999903    2    3    3    0    0  0.68828627648E-01  0.10578578767E+00  0.21605308949E-02  0.12783370747E+00  0.20218210000E-01 0.  0.
         14    1    1    2    0    0  0.11195718516E-01  0.20603265098E-01 -0.10313264277E-02  0.23471307590E-01  0.00000000000E+00 0. -1.
     999901    1    3    3    0    0 -0.80024346164E-01 -0.12638905276E+00 -0.11292044671E-02  0.89262498494E+00  0.88000000000E+00 0.  1.
        -11    1    4    4    0    0  0.37107437521E-01  0.71817534014E-01 -0.40531435451E-02  0.80940775910E-01  0.51100000000E-03 0.  1.
         11    1    4    4    0    0  0.31721190127E-01  0.33968253651E-01  0.62136744400E-02  0.46892931559E-01  0.51100000000E-03 0. -1.
</event>
<event>
 8    1  0.1143957E+005  0.1043930E+01  0.7957747E-01            NaN
         13   -1    0    0    0    0  0.00000000000E+00  0.00000000000E+00  0.74505805969E-08  0.10566000000E+00  0.10566000000E+00 0. -1.
     999900   -1    0    0    0    0 -0.00000000000E+00 -0.00000000000E+00 -0.74505805969E-08  0.93827000000E+00  0.93827000000E+00 0.  1.
     999902    2    1    2    0    0 -0.17629816389E-01 -0.26141995506E-02 -0.14557109824E-01  0.10209179616E+01  0.10206585768E+01 0.  0.
     999903    2    3    3    0    0  0.10621043802E+00  0.59947944288E-01 -0.38658147125E-01  0.12972141175E+00  0.21419130665E-01 0.  0.
         14    1    1    2    0    0  0.17629816389E-01  0.26141995506E-02  0.14557109824E-01  0.23012038406E-01  0.00000000000E+00 0. -1.
     999901    1    3    3    0    0 -0.12384025441E+00 -0.62562143838E-01  0.24101037302E-01  0.89119654984E+00  0.88000000000E+00 0. -1.
        -11    1    4    4    0    0  0.53990268520E-01  0.40878877038E-01 -0.27065506540E-01  0.72930339695E-01  0.51100000000E-03 0. -1.
         11    1    4    4    0    0  0.52220169500E-01  0.19069067249E-01 -0.11592640586E-01  0.56791072055E-01  0.51100000000E-03 0.  1.
</event>
<event>
 8    1  0.1143957E+005  0.1043930E+01  0.7957747E-01            NaN
         13   -1    0    0    0    0  0.00000000000E+00  0.00000000000E+00  0.74505805969E-08  0.10566000000E+00  0.10566000000E+00 0.  1.
     999900   -1    0    0    0    0 -0.00000000000E+00 -0.00000000000E+00 -0.74505805969E-08  0.93827000000E+00  0.93827000000E+00 0. -1.
     999902    2    1    2    0    0 -0.17011786015E-01  0.15093612372E-01  0.67840722833E-02  0.10201972877E+01  0.10199212049E+01 0.  0.
     999903    2    3    3    0    0  0.84060645143E-02  0.11633269537E+00 -0.58035387307E-01  0.13166086107E+00  0.19039911371E-01 0.  0.
         14    1    1    2    0    0  0.17011786015E-01 -0.15093612372E-01 -0.67840722833E-02  0.23732712331E-01  0.00000000000E+00 0. -1.
     999901    1    3    3    0    0 -0.25417850529E-01 -0.10123908300E+00  0.64819459590E-01  0.88853642660E+00  0.88000000000E+00 0. -1.
        -11    1    4    4    0    0  0.57739977754E-02  0.61976767782E-01 -0.20445754230E-01  0.65519071895E-01  0.51100000000E-03 0. -1.
         11    1    4    4    0    0  0.26320667389E-02  0.54355927589E-01 -0.37589633077E-01  0.66141789175E-01  0.51100000000E-03 0.  1.
</event>
<event>
 8    1  0.1143957E+005  0.1043930E+01  0.7957747E-01            NaN
         13   -1    0    0    0    0  0.00000000000E+00  0.00000000000E+00  0.74505805969E-08  0.10566000000E+00  0.10566000000E+00 0.  1.
     999900   -1    0    0    0    0 -0.00000000000E+00 -0.00000000000E+00 -0.74505805969E-08  0.93827000000E+00  0.93827000000E+00 0.  1.
     999902    2    1    2    0    0  0.33314005555E-03  0.14804781430E-03  0.25116855037E-01  0.10188104995E+01  0.10185007828E+01 0.  0.
     999903    2    3    3    0    0 -0.11050801689E+00 -0.55103518052E-01 -0.29641219251E-01  0.12845273749E+00  0.19315392614E-01 0.  0.
         14    1    1    2    0    0 -0.33314005555E-03 -0.14804781430E-03 -0.25116855037E-01  0.25119500540E-01  0.00000000000E+00 0. -1.
     999901    1    3    3    0    0  0.11084115694E+00  0.55251565867E-01  0.54758074288E-01  0.89035776197E+00  0.88000000000E+00 0. -1.
        -11    1    4    4    0    0 -0.21774342836E-01 -0.19297418138E-01 -0.10008190950E-01  0.30772347324E-01  0.51100000000E-03 0. -1.
         11    1    4    4    0    0 -0.88733674049E-01 -0.35806099914E-01 -0.19633028301E-01  0.97680390164E-01  0.51100000000E-03 0.  1.
</event>
<event>
 8    1  0.1143957E+005  0.1043930E+01  0.7957747E-01            NaN
         13   -1    0    0    0    0  0.00000000000E+00  0.00000000000E+00  0.74505805969E-08  0.10566000000E+00  0.10566000000E+00 0. -1.
     999900   -1    0    0    0    0 -0.00000000000E+00 -0.00000000000E+00 -0.74505805969E-08  0.93827000000E+00  0.93827000000E+00 0.  1.
     999902    2    1    2    0    0 -0.22420927846E-01 -0.24995147810E-03 -0.19428396580E-01  0.10142614464E+01  0.10138274303E+01 0.  0.
     999903    2    3    3    0    0 -0.11820681140E+00  0.42150821801E-01 -0.15779229203E-01  0.12804133968E+00  0.19901219909E-01 0.  0.
         14    1    1    2    0    0  0.22420927846E-01  0.24995147810E-03  0.19428396580E-01  0.29668553636E-01  0.00000000000E+00 0. -1.
     999901    1    3    3    0    0  0.95785883554E-01 -0.42400773279E-01 -0.36491673772E-02  0.88622010668E+00  0.88000000000E+00 0.  1.
        -11    1    4    4    0    0 -0.58756280734E-01  0.29588696217E-01 -0.13937161688E-01  0.67248026487E-01  0.51100000000E-03 0. -1.
         11    1    4    4    0    0 -0.59450530665E-01  0.12562125584E-01 -0.18420675143E-02  0.60793313196E-01  0.51100000000E-03 0.  1.
</event>
<event>
 8    1  0.1143957E+005  0.1043930E+01  0.7957747E-01            NaN
         13   -1    0    0    0    0  0.00000000000E+00  0.00000000000E+00  0.74505805969E-08  0.10566000000E+00  0.10566000000E+00 0. -1.
     999900   -1    0    0    0    0 -0.00000000000E+00 -0.00000000000E+00 -0.74505805969E-08  0.93827000000E+00  0.93827000000E+00 0. -1.
     999902    2    1    2    0    0  0.19980712982E-01  0.10917064112E-01 -0.72021687655E-02  0.10200494134E+01  0.10197698385E+01 0.  0.
     999903    2    3    3    0    0 -0.10183171604E+00  0.40281768366E-01  0.63364886216E-01  0.12837668032E+00  0.21751873284E-01 0.  0.
         14    1    1    2    0    0 -0.19980712982E-01 -0.10917064112E-01  0.72021687655E-02  0.23880586572E-01  0.00000000000E+00 0. -1.
     999901    1    3    3    0    0  0.12181242902E+00 -0.29364704254E-01 -0.70567054982E-01  0.89167273311E+00  0.88000000000E+00 0. -1.
        -11    1    4    4    0    0 -0.43127063633E-01  0.19474303013E-01  0.15407905023E-01  0.49768029433E-01  0.51100000000E-03 0. -1.
         11    1    4    4    0    0 -0.58704652402E-01  0.20807465354E-01  0.47956981193E-01  0.78608650887E-01  0.51100000000E-03 0.  1.
</event>
<event>
 8    1  0.1143957E+005  0.1043930E+01  0.7957747E-01            NaN
         13   -1    0    0    0    0  0.00000000000E+00  0.00000000000E+00  0.74505805969E-08  0.10566000000E+00  0.10566000000E+00 0. -1.
     999900   -1    0    0    0    0 -0.00000000000E+00 -0.00000000000E+00 -0.74505805969E-08  0.93827000000E+00  0.93827000000E+00 0.  1.
     999902    2    1    2    0    0  0.99104566701E-02 -0.25335939199E-02 -0.11349043845E-01  0.10286513533E+01  0.10285378795E+01 0.  0.
     999903    2    3    3    0    0 -0.14664269446E-01  0.80710310797E-01 -0.11026427467E+00  0.13886616137E+00  0.19909933152E-01 0.  0.
         14    1    1    2    0    0 -0.99104566701E-02  0.25335939199E-02  0.11349043845E-01  0.15278646725E-01  0.00000000000E+00 0. -1.
     999901    1    3    3    0    0  0.24574726116E-01 -0.83243904716E-01  0.98915230828E-01  0.88978519190E+00  0.88000000000E+00 0. -1.
        -11    1    4    4    0    0 -0.60264271313E-02  0.47062957413E-01 -0.78856107564E-01  0.92031443570E-01  0.51100000000E-03 0.  1.
         11    1    4    4    0    0 -0.86378423146E-02  0.33647353384E-01 -0.31408167110E-01  0.46834717804E-01  0.51100000000E-03 0. -1.
</event>
<event>
 8    1  0.1143957E+005  0.1043930E+01  0.7957747E-01            NaN
         13   -1    0    0    0    0  0.00000000000E+00  0.00000000000E+00  0.74505805969E-08  0.10566000000E+00  0.10566000000E+00 0.  1.
     999900   -1    0    0    0    0 -0.00000000000E+00 -0.00000000000E+00 -0.74505805969E-08  0.93827000000E+00  0.93827000000E+00 0. -1.
     999902    2    1    2    0    0 -0.69843659284E-03  0.21544152777E-01  0.82379285380E-02  0.10208539995E+01  0.10205931542E+01 0.  0.
     999903    2    3    3    0    0 -0.41159280443E-01  0.74041685026E-01 -0.98998200248E-01  0.13186993997E+00  0.20316986179E-01 0.  0.
         14    1    1    2    0    0  0.69843659284E-03 -0.21544152777E-01 -0.82379285380E-02  0.23076000502E-01  0.00000000000E+00 0. -1.
     999901    1    3    3    0    0  0.40460843851E-01 -0.52497532249E-01  0.10723612879E+00  0.88898405953E+00  0.88000000000E+00 0.  1.
        -11    1    4    4    0    0 -0.20761082386E-01  0.24743885422E-01 -0.26084229236E-01  0.41520242575E-01  0.51100000000E-03 0.  1.
         11    1    4    4    0    0 -0.20398198057E-01  0.49297799605E-01 -0.72913971012E-01  0.90349697396E-01  0.51100000000E-03 0. -1.
</event>
<event>
 8    1  0.1143957E+005  0.1043930E+01  0.7957747E-01            NaN
         13   -1    0    0    0    0  0.00000000000E+00  0.00000000000E+00  0.74505805969E-08  0.10566000000E+00  0.10566000000E+00 0.  1.
     999900   -1    0    0    0    0 -0.00000000000E+00 -0.00000000000E+00 -0.74505805969E-08  0.93827000000E+00  0.93827000000E+00 0.  1.
     999902    2    1    2    0    0 -0.26005927557E-02  0.11312911594E-01  0.19799175065E-01  0.10209789132E+01  0.10207209162E+01 0.  0.
     999903    2    3    3    0    0 -0.80150218998E-01 -0.22547864658E-02  0.10471329647E+00  0.13339317934E+00  0.19993103073E-01 0.  0.
         14    1    1    2    0    0  0.26005927557E-02 -0.11312911594E-01 -0.19799175065E-01  0.22951086787E-01  0.00000000000E+00 0. -1.
     999901    1    3    3    0    0  0.77549626243E-01  0.13567698060E-01 -0.84914121400E-01  0.88758573387E+00  0.88000000000E+00 0.  1.
        -11    1    4    4    0    0 -0.59066972617E-01  0.72062598922E-02  0.74253288980E-01  0.95155921945E-01  0.51100000000E-03 0. -1.
         11    1    4    4    0    0 -0.21083246381E-01 -0.94610463580E-02  0.30460007485E-01  0.38237257396E-01  0.51100000000E-03 0.  1.
</event>
<event>
 8    1  0.1143957E+005  0.1043930E+01  0.7957747E-01            NaN
         13   -1    0    0    0    0  0.00000000000E+00  0.00000000000E+00  0.74505805969E-08  0.10566000000E+00  0.10566000000E+00 0. -1.
     999900   -1    0    0    0    0 -0.00000000000E+00 -0.00000000000E+00 -0.74505805969E-08  0.93827000000E+00  0.93827000000E+00 0. -1.
     999902    2    1    2    0    0  0.12370798049E-01 -0.18441553333E-01 -0.83859562730E-02  0.10201928604E+01  0.10199166734E+01 0.  0.
     999903    2    3    3    0    0 -0.15999215110E-01  0.10305289749E+00 -0.73544929601E-01  0.12900744140E+00  0.18925873884E-01 0.  0.
         14    1    1    2    0    0 -0.12370798049E-01  0.18441553333E-01  0.83859562730E-02  0.23737139599E-01  0.00000000000E+00 0.  1.
     999901    1    3    3    0    0  0.28370013159E-01 -0.12149445082E+00  0.65158973328E-01  0.89118541900E+00  0.88000000000E+00 0. -1.
        -11    1    4    4    0    0  0.30291959097E-02  0.14444562476E-01 -0.58403048189E-02  0.15880544523E-01  0.51100000000E-03 0. -1.
         11    1    4    4    0    0 -0.19028411019E-01  0.88608335015E-01 -0.67704624782E-01  0.11312689688E+00  0.51100000000E-03 0.  1.
</event>
<event>
 8    1  0.1143957E+005  0.1043930E+01  0.7957747E-01            NaN
         13   -1    0    0    0    0  0.00000000000E+00  0.00000000000E+00  0.74505805969E-08  0.10566000000E+00  0.10566000000E+00 0. -1.
     999900   -1    0    0    0    0 -0.00000000000E+00 -0.00000000000E+00 -0.74505805969E-08  0.93827000000E+00  0.93827000000E+00 0. -1.
     999902    2    1    2    0    0  0.16155308457E-01 -0.17251164498E-01 -0.35858382963E-02  0.10200248770E+01  0.10197447204E+01 0.  0.
     999903    2    3    3    0    0  0.93661675376E-02  0.33677146774E-02 -0.12903285076E+00  0.13086337115E+00  0.19408213130E-01 0.  0.
         14    1    1    2    0    0 -0.16155308457E-01  0.17251164498E-01  0.35858382963E-02  0.23905122969E-01  0.00000000000E+00 0. -1.
     999901    1    3    3    0    0  0.67891409191E-02 -0.20618879175E-01  0.12544701246E+00  0.88916150589E+00  0.88000000000E+00 0.  1.
        -11    1    4    4    0    0  0.15006268903E-01  0.52380715467E-03 -0.77548128111E-01  0.78990099220E-01  0.51100000000E-03 0.  1.
         11    1    4    4    0    0 -0.56401013650E-02  0.28439075228E-02 -0.51484722646E-01  0.51873271926E-01  0.51100000000E-03 0. -1.
</event>
<event>
 8    1  0.1143957E+005  0.1043930E+01  0.7957747E-01            NaN
         13   -1    0    0    0    0  0.00000000000E+00  0.00000000000E+00  0.74505805969E-08  0.10566000000E+00  0.10566000000E+00 0.  1.
     999900   -1    0    0    0    0 -0.00000000000E+00 -0.00000000000E+00 -0.74505805969E-08  0.93827000000E+00  0.93827000000E+00 0.  1.
     999902    2    1    2    0    0  0.14438256407E-01 -0.18194449758E-01  0.94346149492E-02  0.10188598343E+01  0.10185513481E+01 0.  0.
     999903    2    3    3    0    0  0.75846708297E-01 -0.48784512474E-02 -0.10306608368E+00  0.12947537243E+00  0.19097958391E-01 0.  0.
         14    1    1    2    0    0 -0.14438256407E-01  0.18194449758E-01 -0.94346149492E-02  0.25070165722E-01  0.00000000000E+00 0.  1.
     999901    1    3    3    0    0 -0.61408451890E-01 -0.13315998511E-01  0.11250069863E+00  0.88938446185E+00  0.88000000000E+00 0. -1.
        -11    1    4    4    0    0  0.42289548031E-01 -0.12182224768E-01 -0.57008392942E-01  0.72021041785E-01  0.51100000000E-03 0.  1.
         11    1    4    4    0    0  0.33557160266E-01  0.73037735204E-02 -0.46057690740E-01  0.57454330647E-01  0.51100000000E-03 0. -1.
</event>
<event>
 8    1  0.1143957E+005  0.1043930E+01  0.7957747E-01            NaN
         13   -1    0    0    0    0  0.00000000000E+00  0.00000000000E+00  0.74505805969E-08  0.10566000000E+00  0.10566000000E+00 0. -1.
     999900   -1    0    0    0    0 -0.00000000000E+00 -0.00000000000E+00 -0.74505805969E-08  0.93827000000E+00  0.93827000000E+00 0. -1.
     999902    2    1    2    0    0  0.61501091756E-02 -0.80554397310E-02  0.21260870648E-01  0.10203771112E+01  0.10201052448E+01 0.  0.
     999903    2    3    3    0    0 -0.22787880151E-02 -0.12953865989E+00  0.12372545308E-01  0.13194691051E+00  0.21712900214E-01 0.  0.
         14    1    1    2    0    0 -0.61501091756E-02  0.80554397310E-02 -0.21260870648E-01  0.23552888843E-01  0.00000000000E+00 0.  1.
     999901    1    3    3    0    0  0.84288971907E-02  0.12148322016E+00  0.88883253393E-02  0.88843020064E+00  0.88000000000E+00 0. -1.
        -11    1    4    4    0    0  0.81781703603E-02 -0.57110725782E-01 -0.18933986806E-03  0.57695878885E-01  0.51100000000E-03 0.  1.
         11    1    4    4    0    0 -0.10456958375E-01 -0.72427934109E-01  0.12561885176E-01  0.74251031629E-01  0.51100000000E-03 0. -1.
</event>
<event>
 8    1  0.1143957E+005  0.1043930E+01  0.7957747E-01            NaN
         13   -1    0    0    0    0  0.00000000000E+00  0.00000000000E+00  0.74505805969E-08  0.10566000000E+00  0.10566000000E+00 0. -1.
     999900   -1    0    0    0    0 -0.00000000000E+00 -0.00000000000E+00 -0.74505805969E-08  0.93827000000E+00  0.93827000000E+00 0.  1.
     999902    2    1    2    0    0 -0.12211428008E-01 -0.18344451592E-01 -0.76484192777E-02  0.10206032729E+01  0.10203366623E+01 0.  0.
     999903    2    3    3    0    0  0.71979956192E-01 -0.26119021048E-01  0.10279015910E+00  0.12967941945E+00  0.19688008248E-01 0.  0.
         14    1    1    2    0    0  0.12211428008E-01  0.18344451592E-01  0.76484192777E-02  0.23326727067E-01  0.00000000000E+00 0. -1.
     999901    1    3    3    0    0 -0.84191384200E-01  0.77745694554E-02 -0.11043857838E+00  0.89092385348E+00  0.88000000000E+00 0.  1.
        -11    1    4    4    0    0  0.38538593195E-01 -0.10502369383E-01  0.38121699884E-01  0.55218185874E-01  0.51100000000E-03 0.  1.
         11    1    4    4    0    0  0.33441362997E-01 -0.15616651664E-01  0.64668459213E-01  0.74461233580E-01  0.51100000000E-03 0. -1.
</event>
<event>
 8    1  0.1143957E+005  0.1043930E+01  0.7957747E-01            NaN
         13   -1    0    0    0    0  0.00000000000E+00  0.00000000000E+00  0.74505805969E-08  0.10566000000E+00  0.10566000000E+00 0.  1.
     999900   -1    0    0    0    0 -0.00000000000E+00 -0.00000000000E+00 -0.74505805969E-08  0.93827000000E+00  0.93827000000E+00 0. -1.
     999902    2    1    2    0    0  0.15413525368E-01 -0.21350292858E-01  0.30559939294E-03  0.10175955139E+01  0.10172547000E+01 0.  0.
     999903    2    3    3    0    0 -0.89177549323E-01 -0.91009346141E-02  0.87915054314E-01  0.12699753706E+00  0.19074992280E-01 0.  0.
         14    1    1    2    0    0 -0.15413525368E-01  0.21350292858E-01 -0.30559939294E-03  0.26334486142E-01  0.00000000000E+00 0.  1.
     999901    1    3    3    0    0  0.10459107469E+00 -0.12249358244E-01 -0.87609454922E-01  0.89059797680E+00  0.88000000000E+00 0. -1.
        -11    1    4    4    0    0 -0.43058216734E-01 -0.21028894344E-02  0.55099185809E-01  0.69961514921E-01  0.51100000000E-03 0. -1.
         11    1    4    4    0    0 -0.46119332589E-01 -0.69980451796E-02  0.32815868505E-01  0.57036022140E-01  0.51100000000E-03 0.  1.
</event>
<event>
 8    1  0.1143957E+005  0.1043930E+01  0.7957747E-01            NaN
         13   -1    0    0    0    0  0.00000000000E+00  0.00000000000E+00  0.74505805969E-08  0.10566000000E+00  0.10566000000E+00 0. -1.
     999900   -1    0    0    0    0 -0.00000000000E+00 -0.00000000000E+00 -0.74505805969E-08  0.93827000000E+00  0.93827000000E+00 0. -1.
     999902    2    1    2    0    0  0.21793508509E-01 -0.64413703677E-02 -0.29820789910E-02  0.10210096802E+01  0.10207523823E+01 0.  0.
     999903    2    3    3    0    0  0.11372509934E+00 -0.28493468948E-01 -0.61424116719E-01  0.13401859555E+00  0.21042477209E-01 0.  0.
         14    1    1    2    0    0 -0.21793508509E-01  0.64413703677E-02  0.29820789910E-02  0.22920319816E-01  0.00000000000E+00 0. -1.
     999901    1    3    3    0    0 -0.91931590828E-01  0.22052098581E-01  0.58442037728E-01  0.88699108463E+00  0.88000000000E+00 0.  1.
        -11    1    4    4    0    0  0.77669071450E-01 -0.29338307964E-01 -0.41773970741E-01  0.92943782614E-01  0.51100000000E-03 0.  1.
         11    1    4    4    0    0  0.36056027887E-01  0.84483901535E-03 -0.19650145978E-01  0.41074812938E-01  0.51100000000E-03 0. -1.
</event>
<event>
 8    1  0.1143957E+005  0.1043930E+01  0.7957747E-01            NaN
         13   -1    0    0    0    0  0.00000000000E+00  0.00000000000E+00  0.74505805969E-08  0.10566000000E+00  0.10566000000E+00 0.  1.
     999900   -1    0    0    0    0 -0.00000000000E+00 -0.00000000000E+00 -0.74505805969E-08  0.93827000000E+00  0.93827000000E+00 0.  1.
     999902    2    1    2    0    0  0.15532092640E-02 -0.15470320172E-01  0.17337940886E-01  0.10206416454E+01  0.10203759214E+01 0.  0.
     999903    2    3    3    0    0  0.56000715158E-01  0.87156399766E-01 -0.72770455160E-01  0.12844419104E+00  0.21680704562E-01 0.  0.
         14    1    1    2    0    0 -0.15532092640E-02  0.15470320172E-01 -0.17337940886E-01  0.23288354587E-01  0.00000000000E+00 0.  1.
     999901    1    3    3    0    0 -0.54447505894E-01 -0.10262671994E+00  0.90108396046E-01  0.89219745437E+00  0.88000000000E+00 0.  1.
        -11    1    4    4    0    0  0.38245447026E-01  0.71489767981E-01 -0.63596668272E-01  0.10304512837E+00  0.51100000000E-03 0.  1.
         11    1    4    4    0    0  0.17755268132E-01  0.15666631786E-01 -0.91737868885E-02  0.25399062676E-01  0.51100000000E-03 0. -1.
</event>
<event>
 8    1  0.1143957E+005  0.1043930E+01  0.7957747E-01            NaN
         13   -1    0    0    0    0  0.00000000000E+00  0.00000000000E+00  0.74505805969E-08  0.10566000000E+00  0.10566000000E+00 0.  1.
     999900   -1    0    0    0    0 -0.00000000000E+00 -0.00000000000E+00 -0.74505805969E-08  0.93827000000E+00  0.93827000000E+00 0.  1.
     999902    2    1    2    0    0  0.16222161272E-01  0.13797372771E-01 -0.10537665891E-01  0.10201693516E+01  0.10198926107E+01 0.  0.
     999903    2    3    3    0    0 -0.10509800909E+00  0.12241722861E-01 -0.72255687252E-01  0.12970311529E+00  0.20163394590E-01 0.  0.
         14    1    1    2    0    0 -0.16222161272E-01 -0.13797372771E-01  0.10537665891E-01  0.23760648437E-01  0.00000000000E+00 0.  1.
     999901    1    3    3    0    0  0.12132017036E+00  0.15556499103E-02  0.61718021361E-01  0.89046623627E+00  0.88000000000E+00 0. -1.
        -11    1    4    4    0    0 -0.64129337162E-01  0.15908820272E-01 -0.38370694978E-01  0.76408335942E-01  0.51100000000E-03 0. -1.
         11    1    4    4    0    0 -0.40968671930E-01 -0.36670974117E-02 -0.33884992274E-01  0.53294779347E-01  0.51100000000E-03 0.  1.
</event>
<event>
 8    1  0.1143957E+005  0.1043930E+01  0.7957747E-01            NaN
         13   -1    0    0    0    0  0.00000000000E+00  0.00000000000E+00  0.74505805969E-08  0.10566000000E+00  0.10566000000E+00 0. -1.
     999900   -1    0    0    0    0 -0.00000000000E+00 -0.00000000000E+00 -0.74505805969E-08  0.93827000000E+00  0.93827000000E+00 0. -1.
     999902    2    1    2    0    0 -0.63317611397E-02 -0.23646665131E-01  0.38797587958E-02  0.10191447524E+01  0.10188433235E+01 0.  0.
     999903    2    3    3    0    0  0.34662838078E-01  0.71501955144E-01 -0.97351609984E-01  0.12730305840E+00  0.20363957839E-01 0.  0.
         14    1    1    2    0    0  0.63317611397E-02  0.23646665131E-01 -0.38797587958E-02  0.24785247613E-01  0.00000000000E+00 0.  1.
     999901    1    3    3    0    0 -0.40994599218E-01 -0.95148620275E-01  0.10123136878E+00  0.89184169399E+00  0.88000000000E+00 0.  1.
        -11    1    4    4    0    0  0.21261983492E-01  0.24064731824E-01 -0.30942164504E-01  0.44596658227E-01  0.51100000000E-03 0. -1.
         11    1    4    4    0    0  0.13400854586E-01  0.47437223320E-01 -0.66409445480E-01  0.82706400175E-01  0.51100000000E-03 0.  1.
</event>
<event>
 8    1  0.1143957E+005  0.1043930E+01  0.7957747E-01            NaN
         13   -1    0    0    0    0  0.00000000000E+00  0.00000000000E+00  0.74505805969E-08  0.10566000000E+00  0.10566000000E+00 0.  1.
     999900   -1    0    0    0    0 -0.00000000000E+00 -0.00000000000E+00 -0.74505805969E-08  0.93827000000E+00  0.93827000000E+00 0. -1.
     999902    2    1    2    0    0  0.13011612174E-01  0.14432899857E-01  0.15699801013E-01  0.10189481185E+01  0.10186418281E+01 0.  0.
     999903    2    3    3    0    0  0.16108576034E-01 -0.47723901168E-01  0.11896891058E+00  0.13072654253E+00  0.19969233138E-01 0.  0.
         14    1    1    2    0    0 -0.13011612174E-01 -0.14432899857E-01 -0.15699801013E-01  0.24981881464E-01  0.00000000000E+00 0. -1.
     999901    1    3    3    0    0 -0.30969638593E-02  0.62156801025E-01 -0.10326910956E+00  0.88822157601E+00  0.88000000000E+00 0. -1.
        -11    1    4    4    0    0  0.11449945977E-01 -0.77111818081E-02  0.33624028968E-01  0.36351066461E-01  0.51100000000E-03 0.  1.
         11    1    4    4    0    0  0.46586300567E-02 -0.40012719360E-01  0.85344881610E-01  0.94375476065E-01  0.51100000000E-03 0. -1.
</event>
<event>
 8    1  0.1143957E+005  0.1043930E+01  0.7957747E-01            NaN
         13   -1    0    0    0    0  0.00000000000E+00  0.00000000000E+00  0.74505805969E-08  0.10566000000E+00  0.10566000000E+00 0.  1.
     999900   -1    0    0    0    0 -0.00000000000E+00 -0.00000000000E+00 -0.74505805969E-08  0.93827000000E+00  0.93827000000E+00 0.  1.
     999902    2    1    2    0    0  0.32480290736E-02 -0.21231552050E-01 -0.83003074269E-02  0.10209034154E+01  0.10206436988E+01 0.  0.
     999903    2    3    3    0    0  0.54839201800E-01 -0.75517373746E-01  0.91279853068E-01  0.13212627353E+00  0.20374709521E-01 0.  0.
         14    1    1    2    0    0 -0.32480290736E-02  0.21231552050E-01  0.83003074269E-02  0.23026584608E-01  0.00000000000E+00 0. -1.
     999901    1    3    3    0    0 -0.51591172726E-01  0.54285821696E-01 -0.99580160495E-01  0.88877714187E+00  0.88000000000E+00 0.  1.
        -11    1    4    4    0    0  0.43978551069E-01 -0.46687660619E-01  0.68242159839E-01  0.93654172938E-01  0.51100000000E-03 0. -1.
         11    1    4    4    0    0  0.10860650730E-01 -0.28829713127E-01  0.23037693229E-01  0.38472100588E-01  0.51100000000E-03 0.  1.
</event>
<event>
 8    1  0.1143957E+005  0.1043930E+01  0.7957747E-01            NaN
         13   -1    0    0    0    0  0.00000000000E+00  0.00000000000E+00  0.74505805969E-08  0.10566000000E+00  0.10566000000E+00 0.  1.
     999900   -1    0    0    0    0 -0.00000000000E+00 -0.00000000000E+00 -0.74505805969E-08  0.93827000000E+00  0.93827000000E+00 0.  1.
     999902    2    1    2    0    0  0.19636902936E-01 -0.85082703506E-02 -0.11202102542E-01  0.10197745509E+01  0.10194884251E+01 0.  0.
     999903    2    3    3    0    0  0.61892990080E-01  0.11297974761E+00  0.11529443513E-02  0.13033789625E+00  0.19785659621E-01 0.  0.
         14    1    1    2    0    0 -0.19636902936E-01  0.85082703506E-02  0.11202102542E-01  0.24155449129E-01  0.00000000000E+00 0.  1.
     999901    1    3    3    0    0 -0.42256087144E-01 -0.12148801796E+00 -0.12355046893E-01  0.88943665463E+00  0.88000000000E+00 0.  1.
        -11    1    4    4    0    0  0.35629109745E-01  0.47738805688E-01  0.58067652270E-02  0.59853209381E-01  0.51100000000E-03 0. -1.
         11    1    4    4    0    0  0.26263880335E-01  0.65240941918E-01 -0.46538208757E-02  0.70484686865E-01  0.51100000000E-03 0.  1.
</event>
<event>
 8    1  0.1143957E+005  0.1043930E+01  0.7957747E-01            NaN
         13   -1    0    0    0    0  0.00000000000E+00  0.00000000000E+00  0.74505805969E-08  0.10566000000E+00  0.10566000000E+00 0.  1.
     999900   -1    0    0    0    0 -0.00000000000E+00 -0.00000000000E+00 -0.74505805969E-08  0.93827000000E+00  0.93827000000E+00 0. -1.
     999902    2    1    2    0    0  0.20605701449E-01  0.67827297753E-02 -0.96798678273E-02  0.10201749964E+01  0.10198983886E+01 0.  0.
     999903    2    3    3    0    0 -0.21526112277E-01  0.12693213288E+00 -0.13093595175E-01  0.13100537122E+00  0.20391792120E-01 0.  0.
         14    1    1    2    0    0 -0.20605701449E-01 -0.67827297753E-02  0.96798678273E-02  0.23755003611E-01  0.00000000000E+00 0.  1.
     999901    1    3    3    0    0  0.42131813725E-01 -0.12014940310E+00  0.34137273476E-02  0.88916962517E+00  0.88000000000E+00 0. -1.
        -11    1    4    4    0    0 -0.17420653480E-01  0.82710071012E-01 -0.17675119553E-01  0.86354536573E-01  0.51100000000E-03 0.  1.
         11    1    4    4    0    0 -0.41054587969E-02  0.44222061868E-01  0.45815243785E-02  0.44650834644E-01  0.51100000000E-03 0. -1.
</event>
<event>
 8    1  0.1143957E+005  0.1043930E+01  0.7957747E-01            NaN
         13   -1    0    0    0    0  0.00000000000E+00  0.00000000000E+00  0.74505805969E-08  0.10566000000E+00  0.10566000000E+00 0. -1.
     999900   -1    0    0    0    0 -0.00000000000E+00 -0.00000000000E+00 -0.74505805969E-08  0.93827000000E+00  0.93827000000E+00 0. -1.
     999902    2    1    2    0    0  0.16915322391E-01  0.47283722159E-02 -0.16142064657E-01  0.10200751915E+01  0.10197962270E+01 0.  0.
     999903    2    3    3    0    0  0.96152980203E-01 -0.87497288979E-01 -0.61642693853E-02  0.13165877150E+00  0.19871152820E-01 0.  0.
         14    1    1    2    0    0 -0.16915322391E-01 -0.47283722159E-02  0.16142064657E-01  0.23854808463E-01  0.00000000000E+00 0. -1.
     999901    1    3    3    0    0 -0.79237657812E-01  0.92225661195E-01 -0.99777952720E-02  0.88841642004E+00  0.88000000000E+00 0.  1.
        -11    1    4    4    0    0  0.43271400545E-01 -0.44367173162E-01 -0.12144844140E-01  0.63155510605E-01  0.51100000000E-03 0.  1.
         11    1    4    4    0    0  0.52881579658E-01 -0.43130115817E-01  0.59805747544E-02  0.68503260892E-01  0.51100000000E-03 0. -1.
</event>
<event>
 8    1  0.1143957E+005  0.1043930E+01  0.7957747E-01            NaN
         13   -1    0    0    0    0  0.00000000000E+00  0.00000000000E+00  0.74505805969E-08  0.10566000000E+00  0.10566000000E+00 0.  1.
     999900   -1    0    0    0    0 -0.00000000000E+00 -0.00000000000E+00 -0.74505805969E-08  0.93827000000E+00  0.93827000000E+00 0. -1.
     999902    2    1    2    0    0 -0.18408393230E-01 -0.14659945756E-01  0.94990327002E-03  0.10203782428E+01  0.10201064028E+01 0.  0.
     999903    2    3    3    0    0 -0.82364635431E-01  0.32590438992E-01 -0.95205440812E-01  0.13157632450E+00  0.20054508880E-01 0.  0.
         14    1    1    2    0    0  0.18408393230E-01  0.14659945756E-01 -0.94990327002E-03  0.23551757198E-01  0.00000000000E+00 0.  1.
     999901    1    3    3    0    0  0.63956242201E-01 -0.47250384748E-01  0.96155344082E-01  0.88880191830E+00  0.88000000000E+00 0.  1.
        -11    1    4    4    0    0 -0.32796091700E-01  0.82885731722E-02 -0.49219090203E-01  0.59724902993E-01  0.51100000000E-03 0. -1.
         11    1    4    4    0    0 -0.49568543730E-01  0.24301865820E-01 -0.45986350609E-01  0.71851421511E-01  0.51100000000E-03 0.  1.
</event>
<event>
 8    1  0.1143957E+005  0.1043930E+01  0.7957747E-01            NaN
         13   -1    0    0    0    0  0.00000000000E+00  0.00000000000E+00  0.74505805969E-08  0.10566000000E+00  0.10566000000E+00 0.  1.
     999900   -1    0    0    0    0 -0.00000000000E+00 -0.00000000000E+00 -0.74505805969E-08  0.93827000000E+00  0.93827000000E+00 0. -1.
     999902    2    1    2    0    0  0.18513192590E-01 -0.43056946015E-02 -0.17802015070E-01  0.10178879370E+01  0.10175547470E+01 0.  0.
     999903    2    3    3    0    0  0.83334532530E-01  0.95341363760E-01 -0.20764618350E-01  0.12989012202E+00  0.20140865616E-01 0.  0.
         14    1    1    2    0    0 -0.18513192590E-01  0.43056946015E-02  0.17802015070E-01  0.26042063021E-01  0.00000000000E+00 0.  1.
     999901    1    3    3    0    0 -0.64821339940E-01 -0.99647058361E-01  0.29626032801E-02  0.88799781496E+00  0.88000000000E+00 0. -1.
        -11    1    4    4    0    0  0.32505993294E-01  0.39513227025E-01 -0.18317750015E-01  0.54348282370E-01  0.51100000000E-03 0. -1.
         11    1    4    4    0    0  0.50828539236E-01  0.55828136735E-01 -0.24468683349E-02  0.75541839651E-01  0.51100000000E-03 0.  1.
</event>
<event>
 8    1  0.1143957E+005  0.1043930E+01  0.7957747E-01            NaN
         13   -1    0    0    0    0  0.00000000000E+00  0.00000000000E+00  0.74505805969E-08  0.10566000000E+00  0.10566000000E+00 0. -1.
     999900   -1    0    0    0    0 -0.00000000000E+00 -0.00000000000E+00 -0.74505805969E-08  0.93827000000E+00  0.93827000000E+00 0. -1.
     999902    2    1    2    0    0  0.16962034356E-01 -0.15618809170E-01  0.47334686694E-02  0.10203914458E+01  0.10201199141E+01 0.  0.
     999903    2    3    3    0    0 -0.27247444656E-03 -0.46422893709E-01  0.12184610502E+00  0.13193137942E+00  0.20106125042E-01 0.  0.
         14    1    1    2    0    0 -0.16962034356E-01  0.15618809170E-01 -0.47334686694E-02  0.23538554225E-01  0.00000000000E+00 0.  1.
     999901    1    3    3    0    0  0.17234508802E-01  0.30804084539E-01 -0.11711263635E+00  0.88846006636E+00  0.88000000000E+00 0. -1.
        -11    1    4    4    0    0  0.42708814077E-02 -0.33291075088E-01  0.10414976158E+00  0.10942563716E+00  0.51100000000E-03 0.  1.
         11    1    4    4    0    0 -0.45433558543E-02 -0.13131818621E-01  0.17696343438E-01  0.22505742262E-01  0.51100000000E-03 0. -1.
</event>
<event>
 8    1  0.1143957E+005  0.1043930E+01  0.7957747E-01            NaN
         13   -1    0    0    0    0  0.00000000000E+00  0.00000000000E+00  0.74505805969E-08  0.10566000000E+00  0.10566000000E+00 0. -1.
     999900   -1    0    0    0    0 -0.00000000000E+00 -0.00000000000E+00 -0.74505805969E-08  0.93827000000E+00  0.93827000000E+00 0.  1.
     999902    2    1    2    0    0  0.82878778897E-02 -0.33871452023E-02  0.21956963113E-01  0.10202177689E+01  0.10199421680E+01 0.  0.
     999903    2    3    3    0    0  0.12898234607E+00 -0.15294856392E-02  0.19459787007E-01  0.13197408535E+00  0.19992272799E-01 0.  0.
         14    1    1    2    0    0 -0.82878778897E-02  0.33871452023E-02 -0.21956963113E-01  0.23712231057E-01  0.00000000000E+00 0.  1.
     999901    1    3    3    0    0 -0.12069446818E+00 -0.18576595631E-02  0.24971761059E-02  0.88824368359E+00  0.88000000000E+00 0. -1.
        -11    1    4    4    0    0  0.22883586391E-01  0.63126837064E-02 -0.39860473543E-03  0.23747178957E-01  0.51100000000E-03 0.  1.
         11    1    4    4    0    0  0.10609875968E+00 -0.78421693456E-02  0.19858391742E-01  0.10822690640E+00  0.51100000000E-03 0. -1.
</event>
<event>
 8    1  0.1143957E+005  0.1043930E+01  0.7957747E-01            NaN
         13   -1    0    0    0    0  0.00000000000E+00  0.00000000000E+00  0.74505805969E-08  0.10566000000E+00  0.10566000000E+00 0. -1.
     999900   -1    0    0    0    0 -0.00000000000E+00 -0.00000000000E+00 -0.74505805969E-08  0.93827000000E+00  0.93827000000E+00 0. -1.
     999902    2    1    2    0    0 -0.26342431695E-02  0.24734150720E-01  0.60787283013E-02  0.10183239775E+01  0.10180019916E+01 0.  0.
     999903    2    3    3    0    0  0.64329293534E-01  0.95695530921E-01  0.59743698225E-01  0.13130675012E+00  0.19397435514E-01 0.  0.
         14    1    1    2    0    0  0.26342431695E-02 -0.24734150720E-01 -0.60787283013E-02  0.25606022469E-01  0.00000000000E+00 0.  1.
     999901    1    3    3    0    0 -0.66963536703E-01 -0.70961380200E-01 -0.53664969924E-01  0.88701722741E+00  0.88000000000E+00 0.  1.
        -11    1    4    4    0    0  0.17717861037E-01  0.41830744428E-01  0.27584222533E-01  0.53149640007E-01  0.51100000000E-03 0.  1.
         11    1    4    4    0    0  0.46611432497E-01  0.53864786493E-01  0.32159475692E-01  0.78157110113E-01  0.51100000000E-03 0. -1.
</event>
<event>
 8    1  0.1143957E+005  0.1043930E+01  0.7957747E-01            NaN
         13   -1    0    0    0    0  0.00000000000E+00  0.00000000000E+00  0.74505805969E-08  0.10566000000E+00  0.10566000000E+00 0.  1.
     999900   -1    0    0    0    0 -0.00000000000E+00 -0.00000000000E+00 -0.74505805969E-08  0.93827000000E+00  0.93827000000E+00 0.  1.
     999902    2    1    2    0    0 -0.10736923414E-01 -0.89453379165E-02  0.18996282166E-01  0.10203469694E+01  0.10200743986E+01 0.  0.
     999903    2    3    3    0    0  0.56188476646E-03 -0.12120248943E+00  0.50053173019E-01  0.13260046192E+00  0.19677479828E-01 0.  0.
         14    1    1    2    0    0  0.10736923414E-01  0.89453379165E-02 -0.18996282166E-01  0.23583030572E-01  0.00000000000E+00 0.  1.
     999901    1    3    3    0    0 -0.11298808180E-01  0.11225715151E+00 -0.31056890853E-01  0.88774650751E+00  0.88000000000E+00 0. -1.
        -11    1    4    4    0    0  0.81008909745E-02 -0.57998022179E-01  0.17602176782E-01  0.61151392133E-01  0.51100000000E-03 0.  1.
         11    1    4    4    0    0 -0.75390062081E-02 -0.63204467251E-01  0.32450996236E-01  0.71449069782E-01  0.51100000000E-03 0. -1.
</event>
<event>
 8    1  0.1143957E+005  0.1043930E+01  0.7957747E-01            NaN
         13   -1    0    0    0    0  0.00000000000E+00  0.00000000000E+00  0.74505805969E-08  0.10566000000E+00  0.10566000000E+00 0. -1.
     999900   -1    0    0    0    0 -0.00000000000E+00 -0.00000000000E+00 -0.74505805969E-08  0.93827000000E+00  0.93827000000E+00 0. -1.
     999902    2    1    2    0    0  0.39985353593E-02  0.17517346610E-01  0.10352630069E-01  0.10231930121E+01  0.10229828529E+01 0.  0.
     999903    2    3    3    0    0  0.60992216913E-01  0.23191364396E-01  0.11548099573E+00  0.13508691063E+00  0.25587558363E-01 0.  0.
         14    1    1    2    0    0 -0.39985353593E-02 -0.17517346610E-01 -0.10352630069E-01  0.20736987887E-01  0.00000000000E+00 0.  1.
     999901    1    3    3    0    0 -0.56993681554E-01 -0.56740177853E-02 -0.10512836566E+00  0.88810610148E+00  0.88000000000E+00 0. -1.
        -11    1    4    4    0    0  0.47797257847E-01  0.85197468713E-02  0.67013104843E-01  0.82753738804E-01  0.51100000000E-03 0.  1.
         11    1    4    4    0    0  0.13194959066E-01  0.14671617524E-01  0.48467890890E-01  0.52333171830E-01  0.51100000000E-03 0. -1.
</event>
<event>
 8    1  0.1143957E+005  0.1043930E+01  0.7957747E-01            NaN
         13   -1    0    0    0    0  0.00000000000E+00  0.00000000000E+00  0.74505805969E-08  0.10566000000E+00  0.10566000000E+00 0.  1.
     999900   -1    0    0    0    0 -0.00000000000E+00 -0.00000000000E+00 -0.74505805969E-08  0.93827000000E+00  0.93827000000E+00 0. -1.
     999902    2    1    2    0    0 -0.44413494595E-02 -0.22929922415E-01 -0.55927953875E-02  0.10199136246E+01  0.10196308231E+01 0.  0.
     999903    2    3    3    0    0 -0.23697379633E-01 -0.11668430845E+00  0.55057919358E-01  0.13264861977E+00  0.19684720038E-01 0.  0.
         14    1    1    2    0    0  0.44413494595E-02  0.22929922415E-01  0.55927953875E-02  0.24016375397E-01  0.00000000000E+00 0.  1.
     999901    1    3    3    0    0  0.19256030173E-01  0.93754386036E-01 -0.60650714746E-01  0.88726500483E+00  0.88000000000E+00 0. -1.
        -11    1    4    4    0    0 -0.27001076796E-01 -0.10125628048E+00  0.45986428979E-01  0.11444171117E+00  0.51100000000E-03 0.  1.
         11    1    4    4    0    0  0.33036971636E-02 -0.15428027971E-01  0.90714903792E-02  0.18206908599E-01  0.51100000000E-03 0. -1.
</event>
<event>
 8    1  0.1143957E+005  0.1043930E+01  0.7957747E-01            NaN
         13   -1    0    0    0    0  0.00000000000E+00  0.00000000000E+00  0.74505805969E-08  0.10566000000E+00  0.10566000000E+00 0.  1.
     999900   -1    0    0    0    0 -0.00000000000E+00 -0.00000000000E+00 -0.74505805969E-08  0.93827000000E+00  0.93827000000E+00 0. -1.
     999902    2    1    2    0    0 -0.11241347717E-01  0.16822885382E-01  0.12502118769E-01  0.10201459645E+01  0.10198686722E+01 0.  0.
     999903    2    3    3    0    0 -0.87486399342E-01 -0.20469215928E-01  0.94811857345E-01  0.13223893007E+00  0.20615224053E-01 0.  0.
         14    1    1    2    0    0  0.11241347717E-01 -0.16822885382E-01 -0.12502118769E-01  0.23784035503E-01  0.00000000000E+00 0. -1.
     999901    1    3    3    0    0  0.76245051625E-01  0.37292101310E-01 -0.82309738576E-01  0.88790703443E+00  0.88000000000E+00 0. -1.
        -11    1    4    4    0    0 -0.60824733449E-01 -0.10403478419E-01  0.76802970665E-01  0.98523286518E-01  0.51100000000E-03 0.  1.
         11    1    4    4    0    0 -0.26661665893E-01 -0.10065737509E-01  0.18008886680E-01  0.33715643553E-01  0.51100000000E-03 0. -1.
</event>
<event>
 8    1  0.1143957E+005  0.1043930E+01  0.7957747E-01            NaN
         13   -1    0    0    0    0  0.00000000000E+00  0.00000000000E+00  0.74505805969E-08  0.10566000000E+00  0.10566000000E+00 0.  1.
     999900   -1    0    0    0    0 -0.00000000000E+00 -0.00000000000E+00 -0.74505805969E-08  0.93827000000E+00  0.93827000000E+00 0.  1.
     999902    2    1    2    0    0 -0.19201796726E-01 -0.13293769221E-01 -0.35533719714E-02  0.10203067117E+01  0.10200331986E+01 0.  0.
     999903    2    3    3    0    0  0.45709424942E-01 -0.11527181213E+00 -0.38766758270E-01  0.13134497433E+00  0.19279484814E-01 0.  0.
         14    1    1    2    0    0  0.19201796726E-01  0.13293769221E-01  0.35533719714E-02  0.23623288298E-01  0.00000000000E+00 0. -1.
     999901    1    3    3    0    0 -0.64911221668E-01  0.10197804291E+00  0.35213386299E-01  0.88896173737E+00  0.88000000000E+00 0. -1.
        -11    1    4    4    0    0  0.45663852202E-01 -0.10703528417E+00 -0.32045612017E-01  0.12070178883E+00  0.51100000000E-03 0. -1.
         11    1    4    4    0    0  0.45572739266E-04 -0.82365279616E-02 -0.67211462530E-02  0.10643185505E-01  0.51100000000E-03 0.  1.
</event>
<event>
 8    1  0.1143957E+005  0.1043930E+01  0.7957747E-01            NaN
         13   -1    0    0    0    0  0.00000000000E+00  0.00000000000E+00  0.74505805969E-08  0.10566000000E+00  0.10566000000E+00 0.  1.
     999900   -1    0    0    0    0 -0.00000000000E+00 -0.00000000000E+00 -0.74505805969E-08  0.93827000000E+00  0.93827000000E+00 0.  1.
     999902    2    1    2    0    0 -0.21046729583E-01 -0.35789212540E-02  0.81695545774E-02  0.10210714102E+01  0.10208155121E+01 0.  0.
     999903    2    3    3    0    0 -0.14223145810E-02 -0.10981262268E+00 -0.68758509997E-01  0.13113397194E+00  0.20187887974E-01 0.  0.
         14    1    1    2    0    0  0.21046729583E-01  0.35789212540E-02 -0.81695545774E-02  0.22858589753E-01  0.00000000000E+00 0.  1.
     999901    1    3    3    0    0 -0.19624415002E-01  0.10623370143E+00  0.76928064574E-01  0.88993743831E+00  0.88000000000E+00 0. -1.
        -11    1    4    4    0    0 -0.45406580162E-02 -0.15840675233E-01 -0.17507015071E-01  0.24047895225E-01  0.51100000000E-03 0.  1.
         11    1    4    4    0    0  0.31183434352E-02 -0.93971947448E-01 -0.51251494925E-01  0.10708607671E+00  0.51100000000E-03 0. -1.
</event>
<event>
 8    1  0.1143957E+005  0.1043930E+01  0.7957747E-01            NaN
         13   -1    0    0    0    0  0.00000000000E+00  0.00000000000E+00  0.74505805969E-08  0.10566000000E+00  0.10566000000E+00 0.  1.
     999900   -1    0    0    0    0 -0.00000000000E+00 -0.00000000000E+00 -0.74505805969E-08  0.93827000000E+00  0.93827000000E+00 0. -1.
     999902    2    1    2    0    0 -0.21812046480E-01  0.64452407040E-02  0.77708403531E-02  0.10198947663E+01  0.10196115152E+01 0.  0.
     999903    2    3    3    0    0  0.77713335754E-01 -0.88069739936E-01  0.47780645696E-01  0.12835723607E+00  0.19923561498E-01 0.  0.
         14    1    1    2    0    0  0.21812046480E-01 -0.64452407040E-02 -0.77708403531E-02  0.24035233703E-01  0.00000000000E+00 0. -1.
     999901    1    3    3    0    0 -0.99525382234E-01  0.94514980640E-01 -0.40009805343E-01  0.89153753022E+00  0.88000000000E+00 0.  1.
        -11    1    4    4    0    0  0.56239070739E-01 -0.67884403725E-01  0.26671396463E-01  0.92101845025E-01  0.51100000000E-03 0. -1.
         11    1    4    4    0    0  0.21474265015E-01 -0.20185336211E-01  0.21109249233E-01  0.36255391048E-01  0.51100000000E-03 0.  1.
</event>
<event>
 8    1  0.1143957E+005  0.1043930E+01  0.7957747E-01            NaN
         13   -1    0    0    0    0  0.00000000000E+00  0.00000000000E+00  0.74505805969E-08  0.10566000000E+00  0.10566000000E+00 0. -1.
     999900   -1    0    0    0    0 -0.00000000000E+00 -0.00000000000E+00 -0.74505805969E-08  0.93827000000E+00  0.93827000000E+00 0. -1.
     999902    2    1    2    0    0  0.55230508762E-02  0.23294305561E-01  0.72393887066E-03  0.10199789489E+01  0.10196977019E+01 0.  0.
     999903    2    3    3    0    0  0.11427839099E+00  0.61974695100E-01  0.13714221532E-01  0.13234577916E+00  0.20661846693E-01 0.  0.
         14    1    1    2    0    0 -0.55230508762E-02 -0.23294305561E-01 -0.72393887066E-03  0.23951051126E-01  0.00000000000E+00 0. -1.
     999901    1    3    3    0    0 -0.10875534011E+00 -0.38680389539E-01 -0.12990282662E-01  0.88763316972E+00  0.88000000000E+00 0. -1.
        -11    1    4    4    0    0  0.55397386508E-01  0.29296315759E-01  0.16963174922E-01  0.64924224858E-01  0.51100000000E-03 0.  1.
         11    1    4    4    0    0  0.58881004480E-01  0.32678379341E-01 -0.32489533893E-02  0.67421554299E-01  0.51100000000E-03 0. -1.
</event>
<event>
 8    1  0.1143957E+005  0.1043930E+01  0.7957747E-01            NaN
         13   -1    0    0    0    0  0.00000000000E+00  0.00000000000E+00  0.74505805969E-08  0.10566000000E+00  0.10566000000E+00 0.  1.
     999900   -1    0    0    0    0 -0.00000000000E+00 -0.00000000000E+00 -0.74505805969E-08  0.93827000000E+00  0.93827000000E+00 0.  1.
     999902    2    1    2    0    0 -0.22711695700E-01  0.57461231325E-02 -0.20403273241E-02  0.10204140057E+01  0.10201430003E+01 0.  0.
     999903    2    3    3    0    0 -0.75890623065E-01 -0.10492640770E+00  0.12547778210E-01  0.13176940845E+00  0.20899582823E-01 0.  0.
         14    1    1    2    0    0  0.22711695700E-01 -0.57461231325E-02  0.20403273241E-02  0.23515994306E-01  0.00000000000E+00 0.  1.
     999901    1    3    3    0    0  0.53178927365E-01  0.11067253083E+00 -0.14588105534E-01  0.88864459725E+00  0.88000000000E+00 0. -1.
        -11    1    4    4    0    0 -0.59380335617E-01 -0.85512155635E-01  0.18499321800E-02  0.10412509971E+00  0.51100000000E-03 0.  1.
         11    1    4    4    0    0 -0.16510287448E-01 -0.19414252064E-01  0.10697846030E-01  0.27644308736E-01  0.51100000000E-03 0. -1.
</event>
<event>
 8    1  0.1143957E+005  0.1043930E+01  0.7957747E-01            NaN
         13   -1    0    0    0    0  0.00000000000E+00  0.00000000000E+00  0.74505805969E-08  0.10566000000E+00  0.10566000000E+00 0.  1.
     999900   -1    0    0    0    0 -0.00000000000E+00 -0.00000000000E+00 -0.74505805969E-08  0.93827000000E+00  0.93827000000E+00 0.  1.
     999902    2    1    2    0    0  0.24755092181E-01 -0.13798167797E-02  0.78418667846E-03  0.10191240847E+01  0.10188221467E+01 0.  0.
     999903    2    3    3    0    0 -0.10602740950E+00  0.12296731356E-01 -0.65706233293E-01  0.12687295044E+00  0.19657448774E-01 0.  0.
         14    1    1    2    0    0 -0.24755092181E-01  0.13798167797E-02 -0.78418667846E-03  0.24805915262E-01  0.00000000000E+00 0. -1.
     999901    1    3    3    0    0  0.13078250168E+00 -0.13676548136E-01  0.66490419971E-01  0.89225113430E+00  0.88000000000E+00 0. -1.
        -11    1    4    4    0    0 -0.28065276576E-01  0.28782926632E-02 -0.77204729566E-02  0.29254249976E-01  0.51100000000E-03 0. -1.
         11    1    4    4    0    0 -0.77962132920E-01  0.94184386927E-02 -0.57985760336E-01  0.97618700461E-01  0.51100000000E-03 0.  1.
</event>
<event>
 8    1  0.1143957E+005  0.1043930E+01  0.7957747E-01            NaN
         13   -1    0    0    0    0  0.00000000000E+00  0.00000000000E+00  0.74505805969E-08  0.10566000000E+00  0.10566000000E+00 0.  1.
     999900   -1    0    0    0    0 -0.00000000000E+00 -0.00000000000E+00 -0.74505805969E-08  0.93827000000E+00  0.93827000000E+00 0. -1.
     999902    2    1    2    0    0  0.21290902149E-01 -0.35146563491E-03  0.92949968768E-02  0.10206959085E+01  0.10204314355E+01 0.  0.
     999903    2    3    3    0    0  0.81328751370E-02 -0.60900110529E-01 -0.11315847203E+00  0.13005898799E+00  0.18317572001E-01 0.  0.
         14    1    1    2    0    0 -0.21290902149E-01  0.35146563491E-03 -0.92949968768E-02  0.23234091533E-01  0.00000000000E+00 0. -1.
     999901    1    3    3    0    0  0.13158027012E-01  0.60548644894E-01  0.12245346891E+00  0.89063692048E+00  0.88000000000E+00 0.  1.
        -11    1    4    4    0    0 -0.33261081097E-02 -0.33476191480E-01 -0.69845214541E-01  0.77526340727E-01  0.51100000000E-03 0.  1.
         11    1    4    4    0    0  0.11458983247E-01 -0.27423919049E-01 -0.43313257488E-01  0.52532647261E-01  0.51100000000E-03 0. -1.
</event>
<event>
 8    1  0.1143957E+005  0.1043930E+01  0.7957747E-01            NaN
         13   -1    0    0    0    0  0.00000000000E+00  0.00000000000E+00  0.74505805969E-08  0.10566000000E+00  0.10566000000E+00 0. -1.
     999900   -1    0    0    0    0 -0.00000000000E+00 -0.00000000000E+00 -0.74505805969E-08  0.93827000000E+00  0.93827000000E+00 0. -1.
     999902    2    1    2    0    0  0.35883776720E-02  0.39324469828E-02 -0.21845012818E-01  0.10214456682E+01  0.10211981726E+01 0.  0.
     999903    2    3    3    0    0 -0.19472274623E-01  0.37948293977E-01 -0.12575519085E+00  0.13437960712E+00  0.20597773911E-01 0.  0.
         14    1    1    2    0    0 -0.35883776720E-02 -0.39324469828E-02  0.21845012818E-01  0.22484331847E-01  0.00000000000E+00 0. -1.
     999901    1    3    3    0    0  0.23060652295E-01 -0.34015846994E-01  0.10391017803E+00  0.88706606103E+00  0.88000000000E+00 0.  1.
        -11    1    4    4    0    0 -0.17371973975E-01  0.14543505904E-01 -0.46764961125E-01  0.51966544563E-01  0.51100000000E-03 0.  1.
         11    1    4    4    0    0 -0.21003006479E-02  0.23404788073E-01 -0.78990229726E-01  0.82413062561E-01  0.51100000000E-03 0. -1.
</event>
<event>
 8    1  0.1143957E+005  0.1043930E+01  0.7957747E-01            NaN
         13   -1    0    0    0    0  0.00000000000E+00  0.00000000000E+00  0.74505805969E-08  0.10566000000E+00  0.10566000000E+00 0.  1.
     999900   -1    0    0    0    0 -0.00000000000E+00 -0.00000000000E+00 -0.74505805969E-08  0.93827000000E+00  0.93827000000E+00 0. -1.
     999902    2    1    2    0    0 -0.53113437913E-02  0.14695913947E-01 -0.17211586407E-01  0.10206830870E+01  0.10204183186E+01 0.  0.
     999903    2    3    3    0    0  0.16280697150E-01 -0.68918020305E-01 -0.10928817273E+00  0.13167487328E+00  0.19483658045E-01 0.  0.
         14    1    1    2    0    0  0.53113437913E-02 -0.14695913947E-01  0.17211586407E-01  0.23246913047E-01  0.00000000000E+00 0.  1.
     999901    1    3    3    0    0 -0.21592040942E-01  0.83613934251E-01  0.92076586326E-01  0.88900821368E+00  0.88000000000E+00 0.  1.
        -11    1    4    4    0    0 -0.39805957378E-02 -0.21284777170E-01 -0.30827628674E-01  0.37676128945E-01  0.51100000000E-03 0.  1.
         11    1    4    4    0    0  0.20261292888E-01 -0.47633243135E-01 -0.78460544059E-01  0.93998744332E-01  0.51100000000E-03 0. -1.
</event>
<event>
 8    1  0.1143957E+005  0.1043930E+01  0.7957747E-01            NaN
         13   -1    0    0    0    0  0.00000000000E+00  0.00000000000E+00  0.74505805969E-08  0.10566000000E+00  0.10566000000E+00 0. -1.
     999900   -1    0    0    0    0 -0.00000000000E+00 -0.00000000000E+00 -0.74505805969E-08  0.93827000000E+00  0.93827000000E+00 0. -1.
     999902    2    1    2    0    0  0.22574113515E-01  0.18067121997E-02  0.36320153216E-02  0.10209942998E+01  0.10207366525E+01 0.  0.
     999903    2    3    3    0    0 -0.76118347938E-01  0.59758381367E-01 -0.83224496269E-01  0.12934265730E+00  0.20931774451E-01 0.  0.
         14    1    1    2    0    0 -0.22574113515E-01 -0.18067121997E-02 -0.36320153216E-02  0.22935700234E-01  0.00000000000E+00 0. -1.
     999901    1    3    3    0    0  0.98692461453E-01 -0.57951669167E-01  0.86856511591E-01  0.89165164247E+00  0.88000000000E+00 0.  1.
        -11    1    4    4    0    0 -0.62976463497E-01  0.53929863280E-01 -0.61273385341E-01  0.10309778843E+00  0.51100000000E-03 0.  1.
         11    1    4    4    0    0 -0.13141884440E-01  0.58285180870E-02 -0.21951110928E-01  0.26244868865E-01  0.51100000000E-03 0. -1.
</event>
<event>
 8    1  0.1143957E+005  0.1043930E+01  0.7957747E-01            NaN
         13   -1    0    0    0    0  0.00000000000E+00  0.00000000000E+00  0.74505805969E-08  0.10566000000E+00  0.10566000000E+00 0. -1.
     999900   -1    0    0    0    0 -0.00000000000E+00 -0.00000000000E+00 -0.74505805969E-08  0.93827000000E+00  0.93827000000E+00 0. -1.
     999902    2    1    2    0    0 -0.12977656559E-01  0.19799511482E-01  0.14611427771E-02  0.10202113330E+01  0.10199355807E+01 0.  0.
     999903    2    3    3    0    0 -0.54583615222E-01 -0.62296225658E-01  0.98254619880E-01  0.13013282915E+00  0.20503465886E-01 0.  0.
         14    1    1    2    0    0  0.12977656559E-01 -0.19799511482E-01 -0.14611427771E-02  0.23718666972E-01  0.00000000000E+00 0.  1.
     999901    1    3    3    0    0  0.41605958663E-01  0.82095737140E-01 -0.96793477103E-01  0.89007850388E+00  0.88000000000E+00 0. -1.
        -11    1    4    4    0    0 -0.33172980894E-01 -0.34292031006E-01  0.41077474767E-01  0.62960385213E-01  0.51100000000E-03 0.  1.
         11    1    4    4    0    0 -0.21410634328E-01 -0.28004194652E-01  0.57177145114E-01  0.67172443939E-01  0.51100000000E-03 0. -1.
</event>
<event>
 8    1  0.1143957E+005  0.1043930E+01  0.7957747E-01            NaN
         13   -1    0    0    0    0  0.00000000000E+00  0.00000000000E+00  0.74505805969E-08  0.10566000000E+00  0.10566000000E+00 0. -1.
     999900   -1    0    0    0    0 -0.00000000000E+00 -0.00000000000E+00 -0.74505805969E-08  0.93827000000E+00  0.93827000000E+00 0.  1.
     999902    2    1    2    0    0 -0.38882026683E-02 -0.22387087898E-01  0.45770082376E-03  0.10212031587E+01  0.10209502349E+01 0.  0.
     999903    2    3    3    0    0 -0.13033779675E+00  0.13963267095E-02 -0.21510784032E-02  0.13184273888E+00  0.19697453282E-01 0.  0.
         14    1    1    2    0    0  0.38882026683E-02  0.22387087898E-01 -0.45770082376E-03  0.22726841281E-01  0.00000000000E+00 0. -1.
     999901    1    3    3    0    0  0.12644959408E+00 -0.23783414608E-01  0.26087792269E-02  0.88936041984E+00  0.88000000000E+00 0.  1.
        -11    1    4    4    0    0 -0.18007942128E-01  0.70432581487E-02 -0.86844344776E-03  0.19362561299E-01  0.51100000000E-03 0. -1.
         11    1    4    4    0    0 -0.11232985462E+00 -0.56469314392E-02 -0.12826349554E-02  0.11248017758E+00  0.51100000000E-03 0.  1.
</event>
<event>
 8    1  0.1143957E+005  0.1043930E+01  0.7957747E-01            NaN
         13   -1    0    0    0    0  0.00000000000E+00  0.00000000000E+00  0.74505805969E-08  0.10566000000E+00  0.10566000000E+00 0.  1.
     999900   -1    0    0    0    0 -0.00000000000E+00 -0.00000000000E+00 -0.74505805969E-08  0.93827000000E+00  0.93827000000E+00 0.  1.
     999902    2    1    2    0    0  0.54700954236E-02  0.22916874770E-01  0.43087161072E-03  0.10203653921E+01  0.10200932520E+01 0.  0.
     999903    2    3    3    0    0 -0.10176678960E-01 -0.12511210165E+00  0.13013913004E-01  0.12777605076E+00  0.20018852189E-01 0.  0.
         14    1    1    2    0    0 -0.54700954236E-02 -0.22916874770E-01 -0.43087161072E-03  0.23564607858E-01  0.00000000000E+00 0.  1.
     999901    1    3    3    0    0  0.15646774383E-01  0.14802897642E+00 -0.12583041393E-01  0.89258934138E+00  0.88000000000E+00 0. -1.
        -11    1    4    4    0    0 -0.22318740534E-02 -0.45026022626E-01  0.14259819394E-01  0.47285595539E-01  0.51100000000E-03 0.  1.
         11    1    4    4    0    0 -0.79448049064E-02 -0.80086079025E-01 -0.12459063904E-02  0.80490455225E-01  0.51100000000E-03 0. -1.
</event>
<event>
 8    1  0.1143957E+005  0.1043930E+01  0.7957747E-01            NaN
         13   -1    0    0    0    0  0.00000000000E+00  0.00000000000E+00  0.74505805969E-08  0.10566000000E+00  0.10566000000E+00 0. -1.
     999900   -1    0    0    0    0 -0.00000000000E+00 -0.00000000000E+00 -0.74505805969E-08  0.93827000000E+00  0.93827000000E+00 0.  1.
     999902    2    1    2    0    0  0.24537282336E-02 -0.21733864411E-01 -0.87841060552E-02  0.10203600580E+01  0.10200877932E+01 0.  0.
     999903    2    3    3    0    0  0.67680189324E-01 -0.11544458620E-01  0.10865146259E+00  0.13010760621E+00  0.20222915681E-01 0.  0.
         14    1    1    2    0    0 -0.24537282336E-02  0.21733864411E-01  0.87841060552E-02  0.23569941953E-01  0.00000000000E+00 0. -1.
     999901    1    3    3    0    0 -0.65226461091E-01 -0.10189405791E-01 -0.11743556865E+00  0.89025245184E+00  0.88000000000E+00 0.  1.
        -11    1    4    4    0    0  0.38930661826E-01  0.13551956665E-02  0.71194977337E-01  0.81156755138E-01  0.51100000000E-03 0. -1.
         11    1    4    4    0    0  0.28749527498E-01 -0.12899654286E-01  0.37456485256E-01  0.48950851073E-01  0.51100000000E-03 0.  1.
</event>
<event>
 8    1  0.1143957E+005  0.1043930E+01  0.7957747E-01            NaN
         13   -1    0    0    0    0  0.00000000000E+00  0.00000000000E+00  0.74505805969E-08  0.10566000000E+00  0.10566000000E+00 0.  1.
     999900   -1    0    0    0    0 -0.00000000000E+00 -0.00000000000E+00 -0.74505805969E-08  0.93827000000E+00  0.93827000000E+00 0.  1.
     999902    2    1    2    0    0 -0.16201640077E-01  0.14667028252E-01  0.62029383465E-02  0.10212123570E+01  0.10209596401E+01 0.  0.
     999903    2    3    3    0    0 -0.15368837347E-01  0.13087466190E+00 -0.89772171300E-02  0.13344248548E+00  0.19024411039E-01 0.  0.
         14    1    1    2    0    0  0.16201640077E-01 -0.14667028252E-01 -0.62029383465E-02  0.22717642991E-01  0.00000000000E+00 0. -1.
     999901    1    3    3    0    0 -0.83280272963E-03 -0.11620763364E+00  0.15180155477E-01  0.88776987153E+00  0.88000000000E+00 0. -1.
        -11    1    4    4    0    0 -0.19400184172E-01  0.11302284646E+00 -0.99531158527E-02  0.11510802146E+00  0.51100000000E-03 0. -1.
         11    1    4    4    0    0  0.40313468246E-02  0.17851815434E-01  0.97589872267E-03  0.18334464018E-01  0.51100000000E-03 0.  1.
</event>
<event>
 8    1  0.1143957E+005  0.1043930E+01  0.7957747E-01            NaN
         13   -1    0    0    0    0  0.00000000000E+00  0.00000000000E+00  0.74505805969E-08  0.10566000000E+00  0.10566000000E+00 0.  1.
     999900   -1    0    0    0    0 -0.00000000000E+00 -0.00000000000E+00 -0.74505805969E-08  0.93827000000E+00  0.93827000000E+00 0.  1.
     999902    2    1    2    0    0  0.22465063936E-01  0.30628415379E-02  0.59967468744E-02  0.10204774720E+01  0.10202079444E+01 0.  0.
     999903    2    3    3    0    0  0.12488561022E+00  0.41430824175E-01  0.13020784135E-01  0.13367906905E+00  0.19688165296E-01 0.  0.
         14    1    1    2    0    0 -0.22465063936E-01 -0.30628415379E-02 -0.59967468744E-02  0.23452527988E-01  0.00000000000E+00 0.  1.
     999901    1    3    3    0    0 -0.10242054628E+00 -0.38367982637E-01 -0.70240372604E-02  0.88679840296E+00  0.88000000000E+00 0. -1.
        -11    1    4    4    0    0  0.10467763877E+00  0.35856901627E-01  0.36457253006E-02  0.11070988162E+00  0.51100000000E-03 0. -1.
         11    1    4    4    0    0  0.20207971441E-01  0.55739225483E-02  0.93750588342E-02  0.22969187436E-01  0.51100000000E-03 0.  1.
</event>
<event>
 8    1  0.1143957E+005  0.1043930E+01  0.7957747E-01            NaN
         13   -1    0    0    0    0  0.00000000000E+00  0.00000000000E+00  0.74505805969E-08  0.10566000000E+00  0.10566000000E+00 0.  1.
     999900   -1    0    0    0    0 -0.00000000000E+00 -0.00000000000E+00 -0.74505805969E-08  0.93827000000E+00  0.93827000000E+00 0. -1.
     999902    2    1    2    0    0  0.10584060567E-01  0.90634596556E-02 -0.19324990953E-01  0.10201051408E+01  0.10198268845E+01 0.  0.
     999903    2    3    3    0    0 -0.11017511359E+00 -0.58971266531E-01  0.15313705475E-01  0.12858321659E+00  0.26133658050E-01 0.  0.
         14    1    1    2    0    0 -0.10584060567E-01 -0.90634596556E-02  0.19324990953E-01  0.23824859167E-01  0.00000000000E+00 0. -1.
     999901    1    3    3    0    0  0.12075917416E+00  0.68034726187E-01 -0.34638696427E-01  0.89152192424E+00  0.88000000000E+00 0. -1.
        -11    1    4    4    0    0 -0.62393069525E-01 -0.19207695459E-01  0.11598438837E-01  0.66306979980E-01  0.51100000000E-03 0. -1.
         11    1    4    4    0    0 -0.47782044065E-01 -0.39763571073E-01  0.37152666378E-02  0.62276236613E-01  0.51100000000E-03 0.  1.
</event>
<event>
 8    1  0.1143957E+005  0.1043930E+01  0.7957747E-01            NaN
         13   -1    0    0    0    0  0.00000000000E+00  0.00000000000E+00  0.74505805969E-08  0.10566000000E+00  0.10566000000E+00 0. -1.
     999900   -1    0    0    0    0 -0.00000000000E+00 -0.00000000000E+00 -0.74505805969E-08  0.93827000000E+00  0.93827000000E+00 0. -1.
     999902    2    1    2    0    0 -0.21076367381E-01  0.10980112642E-01  0.15611790469E-02  0.10201137573E+01  0.10198357046E+01 0.  0.
     999903    2    3    3    0    0 -0.45282514406E-02  0.12827950677E+00  0.22753025119E-01  0.13192341603E+00  0.20247237518E-01 0.  0.
         14    1    1    2    0    0  0.21076367381E-01 -0.10980112642E-01 -0.15611790469E-02  0.23816242685E-01  0.00000000000E+00 0. -1.
     999901    1    3    3    0    0 -0.16548115941E-01 -0.11729939413E+00 -0.21191846072E-01  0.88819034128E+00  0.88000000000E+00 0.  1.
        -11    1    4    4    0    0 -0.85903001558E-02  0.91162933891E-01  0.85296360583E-02  0.91964610502E-01  0.51100000000E-03 0. -1.
         11    1    4    4    0    0  0.40620487152E-02  0.37116572881E-01  0.14223389060E-01  0.39958805532E-01  0.51100000000E-03 0.  1.
</event>
<event>
 8    1  0.1143957E+005  0.1043930E+01  0.7957747E-01            NaN
         13   -1    0    0    0    0  0.00000000000E+00  0.00000000000E+00  0.74505805969E-08  0.10566000000E+00  0.10566000000E+00 0.  1.
     999900   -1    0    0    0    0 -0.00000000000E+00 -0.00000000000E+00 -0.74505805969E-08  0.93827000000E+00  0.93827000000E+00 0.  1.
     999902    2    1    2    0    0  0.20217916763E-01 -0.37837214407E-02 -0.11479212725E-01  0.10203746815E+01  0.10201027583E+01 0.  0.
     999903    2    3    3    0    0 -0.22090014788E-02 -0.21950005156E-01  0.12580257594E+00  0.12926342578E+00  0.19901324468E-01 0.  0.
         14    1    1    2    0    0 -0.20217916763E-01  0.37837214407E-02  0.11479212725E-01  0.23555318528E-01  0.00000000000E+00 0. -1.
     999901    1    3    3    0    0  0.22426918241E-01  0.18166283715E-01 -0.13728178867E+00  0.89111125569E+00  0.88000000000E+00 0.  1.
        -11    1    4    4    0    0  0.82937739439E-02 -0.68212985153E-02  0.35140130532E-01  0.36747880136E-01  0.51100000000E-03 0.  1.
         11    1    4    4    0    0 -0.10502775423E-01 -0.15128706640E-01  0.90662445412E-01  0.92515545642E-01  0.51100000000E-03 0. -1.
</event>
<event>
 8    1  0.1143957E+005  0.1043930E+01  0.7957747E-01            NaN
         13   -1    0    0    0    0  0.00000000000E+00  0.00000000000E+00  0.74505805969E-08  0.10566000000E+00  0.10566000000E+00 0.  1.
     999900   -1    0    0    0    0 -0.00000000000E+00 -0.00000000000E+00 -0.74505805969E-08  0.93827000000E+00  0.93827000000E+00 0. -1.
     999902    2    1    2    0    0  0.75576431614E-02 -0.17302685795E-01  0.12861797393E-01  0.10210842840E+01  0.10208286773E+01 0.  0.
     999903    2    3    3    0    0 -0.76308501754E-01  0.61787244011E-01  0.84161106072E-01  0.13070664579E+00  0.18986429799E-01 0.  0.
         14    1    1    2    0    0 -0.75576431614E-02  0.17302685795E-01 -0.12861797393E-01  0.22845715968E-01  0.00000000000E+00 0. -1.
     999901    1    3    3    0    0  0.83866144916E-01 -0.79089929806E-01 -0.71299308679E-01  0.89037763824E+00  0.88000000000E+00 0.  1.
        -11    1    4    4    0    0 -0.30165941741E-01  0.13371090472E-01  0.24818506238E-01  0.41291518190E-01  0.51100000000E-03 0. -1.
         11    1    4    4    0    0 -0.46142560014E-01  0.48416153539E-01  0.59342599834E-01  0.89415127603E-01  0.51100000000E-03 0.  1.
</event>
<event>
 8    1  0.1143957E+005  0.1043930E+01  0.7957747E-01            NaN
         13   -1    0    0    0    0  0.00000000000E+00  0.00000000000E+00  0.74505805969E-08  0.10566000000E+00  0.10566000000E+00 0.  1.
     999900   -1    0    0    0    0 -0.00000000000E+00 -0.00000000000E+00 -0.74505805969E-08  0.93827000000E+00  0.93827000000E+00 0. -1.
     999902    2    1    2    0    0 -0.17145828487E-01 -0.14787218600E-01 -0.71532316555E-02  0.10201853166E+01  0.10199089519E+01 0.  0.
     999903    2    3    3    0    0 -0.12364031832E+00 -0.36132177890E-01  0.25826598549E-01  0.13289486082E+00  0.20039167795E-01 0.  0.
         14    1    1    2    0    0  0.17145828487E-01  0.14787218600E-01  0.71532316555E-02  0.23744683438E-01  0.00000000000E+00 0.  1.
     999901    1    3    3    0    0  0.10649448983E+00  0.21344959290E-01 -0.32979830204E-01  0.88729045574E+00  0.88000000000E+00 0. -1.
        -11    1    4    4    0    0 -0.63799024735E-01 -0.12561137432E-01  0.21266901354E-01  0.68415202586E-01  0.51100000000E-03 0.  1.
         11    1    4    4    0    0 -0.59841293586E-01 -0.23571040458E-01  0.45596971951E-02  0.64479658233E-01  0.51100000000E-03 0. -1.
</event>
<event>
 8    1  0.1143957E+005  0.1043930E+01  0.7957747E-01            NaN
         13   -1    0    0    0    0  0.00000000000E+00  0.00000000000E+00  0.74505805969E-08  0.10566000000E+00  0.10566000000E+00 0.  1.
     999900   -1    0    0    0    0 -0.00000000000E+00 -0.00000000000E+00 -0.74505805969E-08  0.93827000000E+00  0.93827000000E+00 0. -1.
     999902    2    1    2    0    0 -0.64389248176E-02  0.14891189390E-01  0.17229050207E-01  0.10202646784E+01  0.10199901797E+01 0.  0.
     999903    2    3    3    0    0  0.22096058004E-01 -0.12190442631E+00  0.30479729617E-01  0.12914018307E+00  0.19981191984E-01 0.  0.
         14    1    1    2    0    0  0.64389248176E-02 -0.14891189390E-01 -0.17229050207E-01  0.23665321576E-01  0.00000000000E+00 0. -1.
     999901    1    3    3    0    0 -0.28534982821E-01  0.13679561570E+00 -0.13250679410E-01  0.89112449536E+00  0.88000000000E+00 0.  1.
        -11    1    4    4    0    0  0.10151989733E-02 -0.41796489489E-01  0.32303189328E-02  0.41936538293E-01  0.51100000000E-03 0. -1.
         11    1    4    4    0    0  0.21080859031E-01 -0.80107936816E-01  0.27249410684E-01  0.87203644775E-01  0.51100000000E-03 0.  1.
</event>
<event>
 8    1  0.1143957E+005  0.1043930E+01  0.7957747E-01            NaN
         13   -1    0    0    0    0  0.00000000000E+00  0.00000000000E+00  0.74505805969E-08  0.10566000000E+00  0.10566000000E+00 0.  1.
     999900   -1    0    0    0    0 -0.00000000000E+00 -0.00000000000E+00 -0.74505805969E-08  0.93827000000E+00  0.93827000000E+00 0.  1.
     999902    2    1    2    0    0 -0.19516343259E-01 -0.17670190744E-02 -0.13402324900E-01  0.10201890581E+01  0.10199127815E+01 0.  0.
     999903    2    3    3    0    0 -0.53047070259E-01 -0.24737200440E-01 -0.11720780373E+00  0.13315607317E+00  0.23810708057E-01 0.  0.
         14    1    1    2    0    0  0.19516343259E-01  0.17670190744E-02  0.13402324900E-01  0.23740941922E-01  0.00000000000E+00 0. -1.
     999901    1    3    3    0    0  0.33530727000E-01  0.22970181366E-01  0.10380547883E+00  0.88703298491E+00  0.88000000000E+00 0. -1.
        -11    1    4    4    0    0 -0.32275286302E-01 -0.47155126547E-02 -0.46635616282E-01  0.56912845584E-01  0.51100000000E-03 0.  1.
         11    1    4    4    0    0 -0.20771783957E-01 -0.20021687785E-01 -0.70572187446E-01  0.76243227584E-01  0.51100000000E-03 0. -1.
</event>
<event>
 8    1  0.1143957E+005  0.1043930E+01  0.7957747E-01            NaN
         13   -1    0    0    0    0  0.00000000000E+00  0.00000000000E+00  0.74505805969E-08  0.10566000000E+00  0.10566000000E+00 0.  1.
     999900   -1    0    0    0    0 -0.00000000000E+00 -0.00000000000E+00 -0.74505805969E-08  0.93827000000E+00  0.93827000000E+00 0.  1.
     999902    2    1    2    0    0  0.14953742609E-02  0.17814795911E-01  0.18828674876E-01  0.10179661387E+01  0.10176349726E+01 0.  0.
     999903    2    3    3    0    0  0.28692957409E-01  0.79383101621E-01  0.99173854732E-01  0.13174623779E+00  0.19916201462E-01 0.  0.
         14    1    1    2    0    0 -0.14953742609E-02 -0.17814795911E-01 -0.18828674876E-01  0.25963861329E-01  0.00000000000E+00 0. -1.
     999901    1    3    3    0    0 -0.27197583148E-01 -0.61568305710E-01 -0.80345179857E-01  0.88621990088E+00  0.88000000000E+00 0.  1.
        -11    1    4    4    0    0  0.16758943044E-01  0.38597547151E-01  0.63919339456E-01  0.76528268604E-01  0.51100000000E-03 0.  1.
         11    1    4    4    0    0  0.11934014365E-01  0.40785554470E-01  0.35254515276E-01  0.55217969183E-01  0.51100000000E-03 0. -1.
</event>
<event>
 8    1  0.1143957E+005  0.1043930E+01  0.7957747E-01            NaN
         13   -1    0    0    0    0  0.00000000000E+00  0.00000000000E+00  0.74505805969E-08  0.10566000000E+00  0.10566000000E+00 0.  1.
     999900   -1    0    0    0    0 -0.00000000000E+00 -0.00000000000E+00 -0.74505805969E-08  0.93827000000E+00  0.93827000000E+00 0.  1.
     999902    2    1    2    0    0 -0.17422174786E-01 -0.99727819732E-02  0.15418361621E-01  0.10186176625E+01  0.10183031120E+01 0.  0.
     999903    2    3    3    0    0  0.91820952394E-01 -0.25680518857E-01  0.85583241730E-01  0.12895261079E+00  0.14618762520E-01 0.  0.
         14    1    1    2    0    0  0.17422174786E-01  0.99727819732E-02 -0.15418361621E-01  0.25312337498E-01  0.00000000000E+00 0. -1.
     999901    1    3    3    0    0 -0.10924312718E+00  0.15707736884E-01 -0.70164880109E-01  0.88966505171E+00  0.88000000000E+00 0.  1.
        -11    1    4    4    0    0  0.34215936687E-01 -0.59891021567E-02  0.39464197883E-01  0.52576455791E-01  0.51100000000E-03 0.  1.
         11    1    4    4    0    0  0.57605015707E-01 -0.19691416700E-01  0.46119043847E-01  0.76376155001E-01  0.51100000000E-03 0. -1.
</event>
<event>
 8    1  0.1143957E+005  0.1043930E+01  0.7957747E-01            NaN
         13   -1    0    0    0    0  0.00000000000E+00  0.00000000000E+00  0.74505805969E-08  0.10566000000E+00  0.10566000000E+00 0. -1.
     999900   -1    0    0    0    0 -0.00000000000E+00 -0.00000000000E+00 -0.74505805969E-08  0.93827000000E+00  0.93827000000E+00 0. -1.
     999902    2    1    2    0    0 -0.22532289027E-01  0.10689695633E-01 -0.53885695982E-02  0.10184150960E+01  0.10180954265E+01 0.  0.
     999903    2    3    3    0    0  0.33560538345E-01 -0.86524881246E-01  0.83988263344E-01  0.12679561582E+00  0.20254258915E-01 0.  0.
         14    1    1    2    0    0  0.22532289027E-01 -0.10689695633E-01  0.53885695982E-02  0.25514903955E-01  0.00000000000E+00 0.  1.
     999901    1    3    3    0    0 -0.56092827372E-01  0.97214576879E-01 -0.89376832942E-01  0.89161948022E+00  0.88000000000E+00 0.  1.
        -11    1    4    4    0    0  0.10589801797E-01 -0.39714806918E-01  0.49198133847E-01  0.64110274416E-01  0.51100000000E-03 0. -1.
         11    1    4    4    0    0  0.22970736548E-01 -0.46810074329E-01  0.34790129497E-01  0.62685341409E-01  0.51100000000E-03 0.  1.
</event>
<event>
 8    1  0.1143957E+005  0.1043930E+01  0.7957747E-01            NaN
         13   -1    0    0    0    0  0.00000000000E+00  0.00000000000E+00  0.74505805969E-08  0.10566000000E+00  0.10566000000E+00 0. -1.
     999900   -1    0    0    0    0 -0.00000000000E+00 -0.00000000000E+00 -0.74505805969E-08  0.93827000000E+00  0.93827000000E+00 0. -1.
     999902    2    1    2    0    0 -0.11135256692E-01  0.15001659052E-01  0.14643122640E-01  0.10201925874E+01  0.10199163939E+01 0.  0.
     999903    2    3    3    0    0  0.87313430424E-01  0.45150622603E-01  0.84839838894E-01  0.13141326555E+00  0.20234481554E-01 0.  0.
         14    1    1    2    0    0  0.11135256692E-01 -0.15001659052E-01 -0.14643122640E-01  0.23737412592E-01  0.00000000000E+00 0.  1.
     999901    1    3    3    0    0 -0.98448687116E-01 -0.30148963552E-01 -0.70196716254E-01  0.88877932186E+00  0.88000000000E+00 0. -1.
        -11    1    4    4    0    0  0.39630259003E-01  0.31337443176E-01  0.46784887035E-01  0.68859854410E-01  0.51100000000E-03 0. -1.
         11    1    4    4    0    0  0.47683171422E-01  0.13813179427E-01  0.38054951859E-01  0.62553411136E-01  0.51100000000E-03 0.  1.
</event>
<event>
 8    1  0.1143957E+005  0.1043930E+01  0.7957747E-01            NaN
         13   -1    0    0    0    0  0.00000000000E+00  0.00000000000E+00  0.74505805969E-08  0.10566000000E+00  0.10566000000E+00 0. -1.
     999900   -1    0    0    0    0 -0.00000000000E+00 -0.00000000000E+00 -0.74505805969E-08  0.93827000000E+00  0.93827000000E+00 0.  1.
     999902    2    1    2    0    0  0.15003499200E-01  0.12039934797E-01  0.14206273246E-01  0.10200159201E+01  0.10197355510E+01 0.  0.
     999903    2    3    3    0    0  0.35100945299E-01  0.97980840674E-01  0.80551838127E-01  0.13311599303E+00  0.19973669561E-01 0.  0.
         14    1    1    2    0    0 -0.15003499200E-01 -0.12039934797E-01 -0.14206273246E-01  0.23914079905E-01  0.00000000000E+00 0.  1.
     999901    1    3    3    0    0 -0.20097446099E-01 -0.85940905877E-01 -0.66345564881E-01  0.88689992706E+00  0.88000000000E+00 0.  1.
        -11    1    4    4    0    0  0.16221901704E-01  0.21225962361E-01  0.16757985758E-01  0.31540177246E-01  0.51100000000E-03 0. -1.
         11    1    4    4    0    0  0.18879043595E-01  0.76754878312E-01  0.63793852369E-01  0.10157581579E+00  0.51100000000E-03 0.  1.
</event>
<event>
 8    1  0.1143957E+005  0.1043930E+01  0.7957747E-01            NaN
         13   -1    0    0    0    0  0.00000000000E+00  0.00000000000E+00  0.74505805969E-08  0.10566000000E+00  0.10566000000E+00 0. -1.
     999900   -1    0    0    0    0 -0.00000000000E+00 -0.00000000000E+00 -0.74505805969E-08  0.93827000000E+00  0.93827000000E+00 0. -1.
     999902    2    1    2    0    0  0.57853351630E-02 -0.75900975696E-02  0.22738050389E-01  0.10192703443E+01  0.10189719997E+01 0.  0.
     999903    2    3    3    0    0 -0.11942948159E+00  0.38031803578E-01  0.24289442249E-01  0.12923522419E+00  0.20048616154E-01 0.  0.
         14    1    1    2    0    0 -0.57853351630E-02  0.75900975696E-02 -0.22738050389E-01  0.24659655706E-01  0.00000000000E+00 0.  1.
     999901    1    3    3    0    0  0.12521481676E+00 -0.45621901147E-01 -0.15513918601E-02  0.89003512010E+00  0.88000000000E+00 0. -1.
        -11    1    4    4    0    0 -0.40485243376E-01  0.31671708418E-02  0.87947606643E-02  0.41553517763E-01  0.51100000000E-03 0.  1.
         11    1    4    4    0    0 -0.78944238218E-01  0.34864632736E-01  0.15494681585E-01  0.87681706428E-01  0.51100000000E-03 0. -1.
</event>
<event>
 8    1  0.1143957E+005  0.1043930E+01  0.7957747E-01            NaN
         13   -1    0    0    0    0  0.00000000000E+00  0.00000000000E+00  0.74505805969E-08  0.10566000000E+00  0.10566000000E+00 0. -1.
     999900   -1    0    0    0    0 -0.00000000000E+00 -0.00000000000E+00 -0.74505805969E-08  0.93827000000E+00  0.93827000000E+00 0. -1.
     999902    2    1    2    0    0  0.17527501792E-01 -0.82261196537E-04 -0.18403597518E-01  0.10185151916E+01  0.10181980568E+01 0.  0.
     999903    2    3    3    0    0  0.83352526306E-01 -0.93744749121E-01 -0.31815529664E-01  0.13099872670E+00  0.20315433510E-01 0.  0.
         14    1    1    2    0    0 -0.17527501792E-01  0.82261196537E-04  0.18403597518E-01  0.25414808431E-01  0.00000000000E+00 0. -1.
     999901    1    3    3    0    0 -0.65825024513E-01  0.93662487925E-01  0.13411932145E-01  0.88751646487E+00  0.88000000000E+00 0. -1.
        -11    1    4    4    0    0  0.70688774405E-01 -0.67515877268E-01 -0.21443989413E-01  0.10007698193E+00  0.51100000000E-03 0. -1.
         11    1    4    4    0    0  0.12663751900E-01 -0.26228871853E-01 -0.10371540250E-01  0.30921744761E-01  0.51100000000E-03 0.  1.
</event>
<event>
 8    1  0.1143957E+005  0.1043930E+01  0.7957747E-01            NaN
         13   -1    0    0    0    0  0.00000000000E+00  0.00000000000E+00  0.74505805969E-08  0.10566000000E+00  0.10566000000E+00 0. -1.
     999900   -1    0    0    0    0 -0.00000000000E+00 -0.00000000000E+00 -0.74505805969E-08  0.93827000000E+00  0.93827000000E+00 0. -1.
     999902    2    1    2    0    0 -0.12521373559E-01 -0.20052783158E-01  0.28537081897E-02  0.10201173446E+01  0.10198393766E+01 0.  0.
     999903    2    3    3    0    0  0.77772179644E-01  0.20299816768E-01  0.99235433172E-01  0.12934762406E+00  0.20555830443E-01 0.  0.
         14    1    1    2    0    0  0.12521373559E-01  0.20052783158E-01 -0.28537081897E-02  0.23812655430E-01  0.00000000000E+00 0.  1.
     999901    1    3    3    0    0 -0.90293553203E-01 -0.40352599926E-01 -0.96381724983E-01  0.89076972051E+00  0.88000000000E+00 0.  1.
        -11    1    4    4    0    0  0.53888791897E-01  0.23622037613E-01  0.71021432295E-01  0.92229645556E-01  0.51100000000E-03 0. -1.
         11    1    4    4    0    0  0.23883387747E-01 -0.33222208443E-02  0.28214000878E-01  0.37117978502E-01  0.51100000000E-03 0.  1.
</event>
<event>
 8    1  0.1143957E+005  0.1043930E+01  0.7957747E-01            NaN
         13   -1    0    0    0    0  0.00000000000E+00  0.00000000000E+00  0.74505805969E-08  0.10566000000E+00  0.10566000000E+00 0.  1.
     999900   -1    0    0    0    0 -0.00000000000E+00 -0.00000000000E+00 -0.74505805969E-08  0.93827000000E+00  0.93827000000E+00 0. -1.
     999902    2    1    2    0    0 -0.12838365321E-01  0.18622294021E-01  0.11170969155E-01  0.10187029508E+01  0.10183905430E+01 0.  0.
     999903    2    3    3    0    0  0.30618086540E-02  0.11503655030E+00  0.61306089248E-01  0.13187599215E+00  0.19749889875E-01 0.  0.
         14    1    1    2    0    0  0.12838365321E-01 -0.18622294021E-01 -0.11170969155E-01  0.25227049185E-01  0.00000000000E+00 0. -1.
     999901    1    3    3    0    0 -0.15900173975E-01 -0.96414256277E-01 -0.50135120093E-01  0.88682695866E+00  0.88000000000E+00 0. -1.
        -11    1    4    4    0    0  0.61187557299E-02  0.54740360419E-01  0.39082424457E-01  0.67539938206E-01  0.51100000000E-03 0.  1.
         11    1    4    4    0    0 -0.30569470759E-02  0.60296189880E-01  0.22223664791E-01  0.64336053945E-01  0.51100000000E-03 0. -1.
</event>
<event>
 8    1  0.1143957E+005  0.1043930E+01  0.7957747E-01            NaN
         13   -1    0    0    0    0  0.00000000000E+00  0.00000000000E+00  0.74505805969E-08  0.10566000000E+00  0.10566000000E+00 0. -1.
     999900   -1    0    0    0    0 -0.00000000000E+00 -0.00000000000E+00 -0.74505805969E-08  0.93827000000E+00  0.93827000000E+00 0. -1.
     999902    2    1    2    0    0 -0.25407958550E-01 -0.16448183413E-02  0.15456446274E-02  0.10184219855E+01  0.10181024908E+01 0.  0.
     999903    2    3    3    0    0 -0.70898281882E-01 -0.10733759389E+00 -0.12780142900E-01  0.13081533813E+00  0.20034849651E-01 0.  0.
         14    1    1    2    0    0  0.25407958550E-01  0.16448183413E-02 -0.15456446274E-02  0.25508014473E-01  0.00000000000E+00 0.  1.
     999901    1    3    3    0    0  0.45490323333E-01  0.10569277555E+00  0.14325787527E-01  0.88760664740E+00  0.88000000000E+00 0.  1.
        -11    1    4    4    0    0 -0.17258686825E-01 -0.22320055218E-01  0.52003244072E-02  0.28694104460E-01  0.51100000000E-03 0.  1.
         11    1    4    4    0    0 -0.53639595058E-01 -0.85017538674E-01 -0.17980467307E-01  0.10212123367E+00  0.51100000000E-03 0. -1.
</event>
<event>
 8    1  0.1143957E+005  0.1043930E+01  0.7957747E-01            NaN
         13   -1    0    0    0    0  0.00000000000E+00  0.00000000000E+00  0.74505805969E-08  0.10566000000E+00  0.10566000000E+00 0.  1.
     999900   -1    0    0    0    0 -0.00000000000E+00 -0.00000000000E+00 -0.74505805969E-08  0.93827000000E+00  0.93827000000E+00 0. -1.
     999902    2    1    2    0    0 -0.13676124911E-01  0.13095806330E-02  0.19279844588E-01  0.10202558833E+01  0.10199811781E+01 0.  0.
     999903    2    3    3    0    0  0.92106519641E-02 -0.11234546857E+00  0.65105255989E-01  0.13146949553E+00  0.18417206032E-01 0.  0.
         14    1    1    2    0    0  0.13676124911E-01 -0.13095806330E-02 -0.19279844588E-01  0.23674116696E-01  0.00000000000E+00 0. -1.
     999901    1    3    3    0    0 -0.22886776875E-01  0.11365504921E+00 -0.45825411401E-01  0.88878638778E+00  0.88000000000E+00 0. -1.
        -11    1    4    4    0    0 -0.36393326140E-03 -0.25467113915E-01  0.23532673525E-01  0.34680746573E-01  0.51100000000E-03 0.  1.
         11    1    4    4    0    0  0.95745852255E-02 -0.86878354659E-01  0.41572582464E-01  0.96788748955E-01  0.51100000000E-03 0. -1.
</event>
<event>
 8    1  0.1143957E+005  0.1043930E+01  0.7957747E-01            NaN
         13   -1    0    0    0    0  0.00000000000E+00  0.00000000000E+00  0.74505805969E-08  0.10566000000E+00  0.10566000000E+00 0. -1.
     999900   -1    0    0    0    0 -0.00000000000E+00 -0.00000000000E+00 -0.74505805969E-08  0.93827000000E+00  0.93827000000E+00 0.  1.
     999902    2    1    2    0    0 -0.19376427630E-02 -0.16328058797E-01 -0.17061243964E-01  0.10202351480E+01  0.10199599557E+01 0.  0.
     999903    2    3    3    0    0 -0.98163981364E-01  0.22695124441E-01  0.77877192594E-01  0.12905860897E+00  0.20976928067E-01 0.  0.
         14    1    1    2    0    0  0.19376427630E-02  0.16328058797E-01  0.17061243964E-01  0.23694851955E-01  0.00000000000E+00 0. -1.
     999901    1    3    3    0    0  0.96226338601E-01 -0.39023183239E-01 -0.94938436558E-01  0.89117653908E+00  0.88000000000E+00 0.  1.
        -11    1    4    4    0    0 -0.63731597000E-01  0.24643689132E-01  0.54285535250E-01  0.87270890500E-01  0.51100000000E-03 0.  1.
         11    1    4    4    0    0 -0.34432384363E-01 -0.19485646911E-02  0.23591657343E-01  0.41787718465E-01  0.51100000000E-03 0. -1.
</event>
<event>
 8    1  0.1143957E+005  0.1043930E+01  0.7957747E-01            NaN
         13   -1    0    0    0    0  0.00000000000E+00  0.00000000000E+00  0.74505805969E-08  0.10566000000E+00  0.10566000000E+00 0.  1.
     999900   -1    0    0    0    0 -0.00000000000E+00 -0.00000000000E+00 -0.74505805969E-08  0.93827000000E+00  0.93827000000E+00 0. -1.
     999902    2    1    2    0    0 -0.19268828188E-01  0.91675279335E-02 -0.25397488208E-02  0.10224408950E+01  0.10222150469E+01 0.  0.
     999903    2    3    3    0    0 -0.12005216113E+00  0.39269318834E-01 -0.44133004687E-01  0.13520169564E+00  0.19421009412E-01 0.  0.
         14    1    1    2    0    0  0.19268828188E-01 -0.91675279335E-02  0.25397488208E-02  0.21489104965E-01  0.00000000000E+00 0.  1.
     999901    1    3    3    0    0  0.10078333294E+00 -0.30101790900E-01  0.41593255866E-01  0.88723919940E+00  0.88000000000E+00 0.  1.
        -11    1    4    4    0    0 -0.66045772956E-01  0.13474039309E-01 -0.17197258405E-01  0.69567238541E-01  0.51100000000E-03 0. -1.
         11    1    4    4    0    0 -0.54006388175E-01  0.25795279524E-01 -0.26935746282E-01  0.65634457095E-01  0.51100000000E-03 0.  1.
</event>
<event>
 8    1  0.1143957E+005  0.1043930E+01  0.7957747E-01            NaN
         13   -1    0    0    0    0  0.00000000000E+00  0.00000000000E+00  0.74505805969E-08  0.10566000000E+00  0.10566000000E+00 0.  1.
     999900   -1    0    0    0    0 -0.00000000000E+00 -0.00000000000E+00 -0.74505805969E-08  0.93827000000E+00  0.93827000000E+00 0. -1.
     999902    2    1    2    0    0 -0.68353874677E-03 -0.11103201513E-01  0.21958156349E-01  0.10193147824E+01  0.10190175252E+01 0.  0.
     999903    2    3    3    0    0 -0.94728039357E-01  0.60895032326E-01 -0.56858755218E-01  0.12788883517E+00  0.21000707490E-01 0.  0.
         14    1    1    2    0    0  0.68353874677E-03  0.11103201513E-01 -0.21958156349E-01  0.24615217637E-01  0.00000000000E+00 0. -1.
     999901    1    3    3    0    0  0.94044500610E-01 -0.71998233840E-01  0.78816911567E-01  0.89142594719E+00  0.88000000000E+00 0.  1.
        -11    1    4    4    0    0 -0.83959686951E-01  0.49658608116E-01 -0.41470666703E-01  0.10599662122E+00  0.51100000000E-03 0.  1.
         11    1    4    4    0    0 -0.10768352405E-01  0.11236424211E-01 -0.15388088515E-01  0.21892213952E-01  0.51100000000E-03 0. -1.
</event>
<event>
 8    1  0.1143957E+005  0.1043930E+01  0.7957747E-01            NaN
         13   -1    0    0    0    0  0.00000000000E+00  0.00000000000E+00  0.74505805969E-08  0.10566000000E+00  0.10566000000E+00 0. -1.
     999900   -1    0    0    0    0 -0.00000000000E+00 -0.00000000000E+00 -0.74505805969E-08  0.93827000000E+00  0.93827000000E+00 0. -1.
     999902    2    1    2    0    0  0.70239505110E-02  0.42794620743E-02 -0.21603773237E-01  0.10208134974E+01  0.10205517251E+01 0.  0.
     999903    2    3    3    0    0  0.90417159805E-01 -0.81422926236E-01 -0.48082356832E-01  0.13233139731E+00  0.19867812426E-01 0.  0.
         14    1    1    2    0    0 -0.70239505110E-02 -0.42794620743E-02  0.21603773237E-01  0.23116502645E-01  0.00000000000E+00 0. -1.
     999901    1    3    3    0    0 -0.83393209294E-01  0.85702388310E-01  0.26478583594E-01  0.88848210005E+00  0.88000000000E+00 0.  1.
        -11    1    4    4    0    0  0.47553096688E-01 -0.55893856631E-01 -0.27945471633E-01  0.78527897715E-01  0.51100000000E-03 0. -1.
         11    1    4    4    0    0  0.42864063118E-01 -0.25529069604E-01 -0.20136885198E-01  0.53803499592E-01  0.51100000000E-03 0.  1.
</event>
<event>
 8    1  0.1143957E+005  0.1043930E+01  0.7957747E-01            NaN
         13   -1    0    0    0    0  0.00000000000E+00  0.00000000000E+00  0.74505805969E-08  0.10566000000E+00  0.10566000000E+00 0. -1.
     999900   -1    0    0    0    0 -0.00000000000E+00 -0.00000000000E+00 -0.74505805969E-08  0.93827000000E+00  0.93827000000E+00 0. -1.
     999902    2    1    2    0    0  0.21000947406E-01 -0.28543093279E-02 -0.10104500919E-01  0.10204504810E+01  0.10201803254E+01 0.  0.
     999903    2    3    3    0    0 -0.89202296461E-01  0.71018030128E-01  0.55000739613E-01  0.12812735015E+00  0.19771853790E-01 0.  0.
         14    1    1    2    0    0 -0.21000947406E-01  0.28543093279E-02  0.10104500919E-01  0.23479519001E-01  0.00000000000E+00 0. -1.
     999901    1    3    3    0    0  0.11020324387E+00 -0.73872339456E-01 -0.65105240532E-01  0.89232313084E+00  0.88000000000E+00 0. -1.
        -11    1    4    4    0    0 -0.31427918683E-01  0.37473038317E-01  0.22797656911E-01  0.53962366100E-01  0.51100000000E-03 0.  1.
         11    1    4    4    0    0 -0.57774377778E-01  0.33544991811E-01  0.32203082702E-01  0.74164984054E-01  0.51100000000E-03 0. -1.
</event>
<event>
 7    1  0.1143957E+005  0.1043930E+01  0.7957747E-01            NaN
         13   -1    0    0    0    0  0.00000000000E+00  0.00000000000E+00  0.74505805969E-08  0.10566000000E+00  0.10566000000E+00 0.  1.
     999900   -1    0    0    0    0 -0.00000000000E+00 -0.00000000000E+00 -0.74505805969E-08  0.93827000000E+00  0.93827000000E+00 0.  1.
     999903    2    1    2    0    0 -0.71573025800E-01  0.87308988124E-01  0.22463472872E-01  0.11681305569E+00  0.19877749789E-01 0.  0.
         14    1    1    2    0    0 -0.10426816268E-01 -0.37402242349E-01 -0.15668870447E-01  0.41870750308E-01  0.00000000000E+00 0. -1.
     999901    1    1    2    0    0  0.81999842069E-01 -0.49906745775E-01 -0.67946024248E-02  0.88524619400E+00  0.88000000000E+00 0.  1.
        -11    1    3    3    0    0 -0.24979710614E-01  0.45794509059E-01  0.12091861028E-01  0.53549950760E-01  0.51100000000E-03 0. -1.
         11    1    3    3    0    0 -0.46593315186E-01  0.41514479066E-01  0.10371611844E-01  0.63263104930E-01  0.51100000000E-03 0.  1.
</event>
<event>
 8    1  0.1143957E+005  0.1043930E+01  0.7957747E-01            NaN
         13   -1    0    0    0    0  0.00000000000E+00  0.00000000000E+00  0.74505805969E-08  0.10566000000E+00  0.10566000000E+00 0. -1.
     999900   -1    0    0    0    0 -0.00000000000E+00 -0.00000000000E+00 -0.74505805969E-08  0.93827000000E+00  0.93827000000E+00 0.  1.
     999902    2    1    2    0    0 -0.20740906055E-01 -0.79823698773E-02  0.70382039531E-02  0.10206182063E+01  0.10203519409E+01 0.  0.
     999903    2    3    3    0    0 -0.42798286868E-01 -0.68042473668E-01 -0.10267364117E+00  0.13150042267E+00  0.17000382090E-01 0.  0.
         14    1    1    2    0    0  0.20740906055E-01  0.79823698773E-02 -0.70382039531E-02  0.23311793748E-01  0.00000000000E+00 0.  1.
     999901    1    3    3    0    0  0.22057380812E-01  0.60060103791E-01  0.10971184512E+00  0.88911778358E+00  0.88000000000E+00 0. -1.
        -11    1    4    4    0    0 -0.24943953616E-01 -0.26704277410E-01 -0.53853536311E-01  0.65082899046E-01  0.51100000000E-03 0.  1.
         11    1    4    4    0    0 -0.17854333251E-01 -0.41338196258E-01 -0.48820104856E-01  0.66417523628E-01  0.51100000000E-03 0. -1.
</event>
<event>
 8    1  0.1143957E+005  0.1043930E+01  0.7957747E-01            NaN
         13   -1    0    0    0    0  0.00000000000E+00  0.00000000000E+00  0.74505805969E-08  0.10566000000E+00  0.10566000000E+00 0. -1.
     999900   -1    0    0    0    0 -0.00000000000E+00 -0.00000000000E+00 -0.74505805969E-08  0.93827000000E+00  0.93827000000E+00 0.  1.
     999902    2    1    2    0    0 -0.18383688544E-01 -0.11327191114E-01  0.12521934568E-01  0.10189687479E+01  0.10186629693E+01 0.  0.
     999903    2    3    3    0    0 -0.84716779203E-02 -0.10302333847E+00 -0.75823690569E-01  0.12974921317E+00  0.20001216710E-01 0.  0.
         14    1    1    2    0    0  0.18383688544E-01  0.11327191114E-01 -0.12521934568E-01  0.24961252139E-01  0.00000000000E+00 0.  1.
     999901    1    3    3    0    0 -0.99120106232E-02  0.91696147359E-01  0.88345625137E-01  0.88921953469E+00  0.88000000000E+00 0. -1.
        -11    1    4    4    0    0 -0.95321303183E-02 -0.98329348529E-01 -0.76384561528E-01  0.12487747856E+00  0.51100000000E-03 0.  1.
         11    1    4    4    0    0  0.10604523980E-02 -0.46939899445E-02  0.56087095916E-03  0.48717346110E-02  0.51100000000E-03 0. -1.
</event>
<event>
 8    1  0.1143957E+005  0.1043930E+01  0.7957747E-01            NaN
         13   -1    0    0    0    0  0.00000000000E+00  0.00000000000E+00  0.74505805969E-08  0.10566000000E+00  0.10566000000E+00 0. -1.
     999900   -1    0    0    0    0 -0.00000000000E+00 -0.00000000000E+00 -0.74505805969E-08  0.93827000000E+00  0.93827000000E+00 0. -1.
     999902    2    1    2    0    0 -0.18318996869E-01 -0.24400779146E-02  0.14749705569E-01  0.10202848432E+01  0.10200108175E+01 0.  0.
     999903    2    3    3    0    0  0.16073707761E-01  0.11882684483E+00  0.47887053951E-01  0.13068571518E+00  0.20184228570E-01 0.  0.
         14    1    1    2    0    0  0.18318996869E-01  0.24400779146E-02 -0.14749705569E-01  0.23645156817E-01  0.00000000000E+00 0.  1.
     999901    1    3    3    0    0 -0.34392704630E-01 -0.12126692274E+00 -0.33137348382E-01  0.88959912800E+00  0.88000000000E+00 0. -1.
        -11    1    4    4    0    0  0.16065172566E-01  0.73400705954E-01  0.37962314095E-01  0.84185223268E-01  0.51100000000E-03 0.  1.
         11    1    4    4    0    0  0.85351941391E-05  0.45426138876E-01  0.99247398552E-02  0.46500491914E-01  0.51100000000E-03 0. -1.
</event>
<event>
 8    1  0.1143957E+005  0.1043930E+01  0.7957747E-01            NaN
         13   -1    0    0    0    0  0.00000000000E+00  0.00000000000E+00  0.74505805969E-08  0.10566000000E+00  0.10566000000E+00 0.  1.
     999900   -1    0    0    0    0 -0.00000000000E+00 -0.00000000000E+00 -0.74505805969E-08  0.93827000000E+00  0.93827000000E+00 0. -1.
     999902    2    1    2    0    0  0.20740453707E-01 -0.12881068646E-01  0.10040799512E-01  0.10175310227E+01  0.10171885155E+01 0.  0.
     999903    2    3    3    0    0 -0.81795621980E-01  0.74299637507E-01 -0.55259925111E-01  0.12490662967E+00  0.18358837174E-01 0.  0.
         14    1    1    2    0    0 -0.20740453707E-01  0.12881068646E-01 -0.10040799512E-01  0.26398977334E-01  0.00000000000E+00 0. -1.
     999901    1    3    3    0    0  0.10253607569E+00 -0.87180706153E-01  0.65300724623E-01  0.89262439300E+00  0.88000000000E+00 0. -1.
        -11    1    4    4    0    0 -0.17932752166E-01  0.19761860452E-01 -0.53772490830E-02  0.27226653439E-01  0.51100000000E-03 0.  1.
         11    1    4    4    0    0 -0.63862869814E-01  0.54537777056E-01 -0.49882676028E-01  0.97679976227E-01  0.51100000000E-03 0. -1.
</event>
<event>
 8    1  0.1143957E+005  0.1043930E+01  0.7957747E-01            NaN
         13   -1    0    0    0    0  0.00000000000E+00  0.00000000000E+00  0.74505805969E-08  0.10566000000E+00  0.10566000000E+00 0.  1.
     999900   -1    0    0    0    0 -0.00000000000E+00 -0.00000000000E+00 -0.74505805969E-08  0.93827000000E+00  0.93827000000E+00 0.  1.
     999902    2    1    2    0    0  0.60083971892E-02 -0.22273590259E-01 -0.20119924108E-01  0.10133191358E+01  0.10128566759E+01 0.  0.
     999903    2    3    3    0    0 -0.41316838272E-01  0.10913919505E+00  0.25432554198E-01  0.12113976689E+00  0.20238164167E-01 0.  0.
         14    1    1    2    0    0 -0.60083971892E-02  0.22273590259E-01  0.20119924108E-01  0.30610864181E-01  0.00000000000E+00 0.  1.
     999901    1    3    3    0    0  0.47325235461E-01 -0.13141278531E+00 -0.45552478306E-01  0.89217936892E+00  0.88000000000E+00 0.  1.
        -11    1    4    4    0    0 -0.23335714072E-01  0.34517942713E-01  0.97790518878E-02  0.42801108598E-01  0.51100000000E-03 0.  1.
         11    1    4    4    0    0 -0.17981124200E-01  0.74621252339E-01  0.15653502310E-01  0.78338658296E-01  0.51100000000E-03 0. -1.
</event>
<event>
 8    1  0.1143957E+005  0.1043930E+01  0.7957747E-01            NaN
         13   -1    0    0    0    0  0.00000000000E+00  0.00000000000E+00  0.74505805969E-08  0.10566000000E+00  0.10566000000E+00 0.  1.
     999900   -1    0    0    0    0 -0.00000000000E+00 -0.00000000000E+00 -0.74505805969E-08  0.93827000000E+00  0.93827000000E+00 0. -1.
     999902    2    1    2    0    0  0.86758877787E-02 -0.16911576976E-01 -0.17472723919E-01  0.10181120112E+01  0.10177846033E+01 0.  0.
     999903    2    3    3    0    0 -0.42101357378E-01 -0.11876854987E+00 -0.27957573402E-01  0.13072083273E+00  0.20683748885E-01 0.  0.
         14    1    1    2    0    0 -0.86758877787E-02  0.16911576976E-01  0.17472723919E-01  0.25817988801E-01  0.00000000000E+00 0.  1.
     999901    1    3    3    0    0  0.50777245157E-01  0.10185697289E+00  0.10484849483E-01  0.88739117847E+00  0.88000000000E+00 0. -1.
        -11    1    4    4    0    0 -0.38253024865E-02 -0.37380090962E-01 -0.11385987696E-01  0.39265837266E-01  0.51100000000E-03 0.  1.
         11    1    4    4    0    0 -0.38276054892E-01 -0.81388458910E-01 -0.16571585705E-01  0.91454995465E-01  0.51100000000E-03 0. -1.
</event>
<event>
 8    1  0.1143957E+005  0.1043930E+01  0.7957747E-01            NaN
         13   -1    0    0    0    0  0.00000000000E+00  0.00000000000E+00  0.74505805969E-08  0.10566000000E+00  0.10566000000E+00 0.  1.
     999900   -1    0    0    0    0 -0.00000000000E+00 -0.00000000000E+00 -0.74505805969E-08  0.93827000000E+00  0.93827000000E+00 0.  1.
     999902    2    1    2    0    0  0.19631275515E-01 -0.12074982065E-01 -0.51340141380E-02  0.10203174976E+01  0.10200442371E+01 0.  0.
     999903    2    3    3    0    0  0.61690874599E-01 -0.10871026035E+00 -0.41526417024E-01  0.13328210150E+00  0.20395846478E-01 0.  0.
         14    1    1    2    0    0 -0.19631275515E-01  0.12074982065E-01  0.51340141380E-02  0.23612502438E-01  0.00000000000E+00 0.  1.
     999901    1    3    3    0    0 -0.42059599085E-01  0.96635278289E-01  0.36392402886E-01  0.88703539607E+00  0.88000000000E+00 0. -1.
        -11    1    4    4    0    0  0.16382747552E-01 -0.44768709474E-01 -0.22064936283E-01  0.52533363680E-01  0.51100000000E-03 0. -1.
         11    1    4    4    0    0  0.45308127047E-01 -0.63941550880E-01 -0.19461480740E-01  0.80748737817E-01  0.51100000000E-03 0.  1.
</event>
<event>
 8    1  0.1143957E+005  0.1043930E+01  0.7957747E-01            NaN
         13   -1    0    0    0    0  0.00000000000E+00  0.00000000000E+00  0.74505805969E-08  0.10566000000E+00  0.10566000000E+00 0.  1.
     999900   -1    0    0    0    0 -0.00000000000E+00 -0.00000000000E+00 -0.74505805969E-08  0.93827000000E+00  0.93827000000E+00 0. -1.
     999902    2    1    2    0    0 -0.74228163877E-02 -0.12196310918E-01 -0.19285585126E-01  0.10199345422E+01  0.10196522389E+01 0.  0.
     999903    2    3    3    0    0 -0.11685968165E+00 -0.50189474052E-01 -0.30636044073E-01  0.13226977389E+00  0.19533493931E-01 0.  0.
         14    1    1    2    0    0  0.74228163877E-02  0.12196310918E-01  0.19285585126E-01  0.23995457837E-01  0.00000000000E+00 0.  1.
     999901    1    3    3    0    0  0.10943686527E+00  0.37993163134E-01  0.11350458947E-01  0.88766476828E+00  0.88000000000E+00 0.  1.
        -11    1    4    4    0    0 -0.95243817687E-01 -0.32323138627E-01 -0.22520118626E-01  0.10307078617E+00  0.51100000000E-03 0.  1.
         11    1    4    4    0    0 -0.21615863967E-01 -0.17866335425E-01 -0.81159254471E-02  0.29198987712E-01  0.51100000000E-03 0. -1.
</event>
<event>
 8    1  0.1143957E+005  0.1043930E+01  0.7957747E-01            NaN
         13   -1    0    0    0    0  0.00000000000E+00  0.00000000000E+00  0.74505805969E-08  0.10566000000E+00  0.10566000000E+00 0. -1.
     999900   -1    0    0    0    0 -0.00000000000E+00 -0.00000000000E+00 -0.74505805969E-08  0.93827000000E+00  0.93827000000E+00 0.  1.
     999902    2    1    2    0    0  0.23350294859E-01 -0.31509780391E-02  0.19037076527E-01  0.10136384960E+01  0.10131857803E+01 0.  0.
     999903    2    3    3    0    0  0.25829364360E-01 -0.96035041752E-02 -0.11816502083E+00  0.12298020214E+00  0.20044316310E-01 0.  0.
         14    1    1    2    0    0 -0.23350294859E-01  0.31509780391E-02 -0.19037076527E-01  0.30291504012E-01  0.00000000000E+00 0. -1.
     999901    1    3    3    0    0 -0.24790695003E-02  0.64525261361E-02  0.13720209735E+00  0.89065829385E+00  0.88000000000E+00 0. -1.
        -11    1    4    4    0    0  0.18301707152E-01  0.18522333055E-02 -0.87079315333E-01  0.89002536665E-01  0.51100000000E-03 0. -1.
         11    1    4    4    0    0  0.75276572073E-02 -0.11455737481E-01 -0.31085705493E-01  0.33977665477E-01  0.51100000000E-03 0.  1.
</event>
<event>
 8    1  0.1143957E+005  0.1043930E+01  0.7957747E-01            NaN
         13   -1    0    0    0    0  0.00000000000E+00  0.00000000000E+00  0.74505805969E-08  0.10566000000E+00  0.10566000000E+00 0. -1.
     999900   -1    0    0    0    0 -0.00000000000E+00 -0.00000000000E+00 -0.74505805969E-08  0.93827000000E+00  0.93827000000E+00 0.  1.
     999902    2    1    2    0    0 -0.18747805598E-01 -0.50886095175E-02  0.11846531889E-01  0.10211766600E+01  0.10209231394E+01 0.  0.
     999903    2    3    3    0    0 -0.20265992805E-02  0.12937918280E+00  0.62523705580E-03  0.13073457693E+00  0.18656329720E-01 0.  0.
         14    1    1    2    0    0  0.18747805598E-01  0.50886095175E-02 -0.11846531889E-01  0.22753339960E-01  0.00000000000E+00 0.  1.
     999901    1    3    3    0    0 -0.16721206317E-01 -0.13446779231E+00  0.11221294833E-01  0.89044208311E+00  0.88000000000E+00 0. -1.
        -11    1    4    4    0    0 -0.39526326810E-02  0.89725771905E-01 -0.77820624110E-02  0.90150757431E-01  0.51100000000E-03 0. -1.
         11    1    4    4    0    0  0.19260334005E-02  0.39653410891E-01  0.84072994668E-02  0.40583819501E-01  0.51100000000E-03 0.  1.
</event>
<event>
 8    1  0.1143957E+005  0.1043930E+01  0.7957747E-01            NaN
         13   -1    0    0    0    0  0.00000000000E+00  0.00000000000E+00  0.74505805969E-08  0.10566000000E+00  0.10566000000E+00 0. -1.
     999900   -1    0    0    0    0 -0.00000000000E+00 -0.00000000000E+00 -0.74505805969E-08  0.93827000000E+00  0.93827000000E+00 0.  1.
     999902    2    1    2    0    0  0.19028381509E-01 -0.12043123411E-01  0.36272700217E-02  0.10211205017E+01  0.10208657139E+01 0.  0.
     999903    2    3    3    0    0  0.41017393996E-01 -0.12061371794E+00 -0.35905435169E-01  0.13329511041E+00  0.15757240201E-01 0.  0.
         14    1    1    2    0    0 -0.19028381509E-01  0.12043123411E-01 -0.36272700217E-02  0.22809498288E-01  0.00000000000E+00 0. -1.
     999901    1    3    3    0    0 -0.21989012487E-01  0.10857059453E+00  0.39532705191E-01  0.88782539130E+00  0.88000000000E+00 0.  1.
        -11    1    4    4    0    0  0.17178201366E-01 -0.53189172678E-01 -0.23837772798E-01  0.60767419110E-01  0.51100000000E-03 0. -1.
         11    1    4    4    0    0  0.23839192630E-01 -0.67424545260E-01 -0.12067662371E-01  0.72527691297E-01  0.51100000000E-03 0.  1.
</event>
<event>
 8    1  0.1143957E+005  0.1043930E+01  0.7957747E-01            NaN
         13   -1    0    0    0    0  0.00000000000E+00  0.00000000000E+00  0.74505805969E-08  0.10566000000E+00  0.10566000000E+00 0. -1.
     999900   -1    0    0    0    0 -0.00000000000E+00 -0.00000000000E+00 -0.74505805969E-08  0.93827000000E+00  0.93827000000E+00 0.  1.
     999902    2    1    2    0    0 -0.59851719657E-02  0.22349921372E-02 -0.22943561536E-01  0.10201135248E+01  0.10198354667E+01 0.  0.
     999903    2    3    3    0    0 -0.31974982957E-01  0.12491411568E+00  0.72027418862E-02  0.13071235706E+00  0.20196657289E-01 0.  0.
         14    1    1    2    0    0  0.59851719657E-02 -0.22349921372E-02  0.22943561536E-01  0.23816475164E-01  0.00000000000E+00 0. -1.
     999901    1    3    3    0    0  0.25989810991E-01 -0.12267912355E+00 -0.30146303422E-01  0.88940116777E+00  0.88000000000E+00 0. -1.
        -11    1    4    4    0    0 -0.25037976180E-01  0.90616967169E-01  0.14036783325E-01  0.95055917213E-01  0.51100000000E-03 0.  1.
         11    1    4    4    0    0 -0.69370067768E-02  0.34297148515E-01 -0.68340414385E-02  0.35656439848E-01  0.51100000000E-03 0. -1.
</event>
<event>
 8    1  0.1143957E+005  0.1043930E+01  0.7957747E-01            NaN
         13   -1    0    0    0    0  0.00000000000E+00  0.00000000000E+00  0.74505805969E-08  0.10566000000E+00  0.10566000000E+00 0.  1.
     999900   -1    0    0    0    0 -0.00000000000E+00 -0.00000000000E+00 -0.74505805969E-08  0.93827000000E+00  0.93827000000E+00 0.  1.
     999902    2    1    2    0    0 -0.12030659688E-01 -0.46116573712E-02  0.20478196012E-01  0.10197357720E+01  0.10194487157E+01 0.  0.
     999903    2    3    3    0    0 -0.74696793925E-02  0.96212378481E-01 -0.82011129358E-01  0.12805738236E+00  0.18980251723E-01 0.  0.
         14    1    1    2    0    0  0.12030659688E-01  0.46116573712E-02 -0.20478196012E-01  0.24194227992E-01  0.00000000000E+00 0. -1.
     999901    1    3    3    0    0 -0.45609802957E-02 -0.10082403585E+00  0.10248932537E+00  0.89167838965E+00  0.88000000000E+00 0. -1.
        -11    1    4    4    0    0 -0.73753978938E-02  0.33317397273E-01 -0.39191987569E-01  0.51968437207E-01  0.51100000000E-03 0. -1.
         11    1    4    4    0    0 -0.94281498719E-04  0.62894981208E-01 -0.42819141790E-01  0.76088945155E-01  0.51100000000E-03 0.  1.
</event>
<event>
 8    1  0.1143957E+005  0.1043930E+01  0.7957747E-01            NaN
         13   -1    0    0    0    0  0.00000000000E+00  0.00000000000E+00  0.74505805969E-08  0.10566000000E+00  0.10566000000E+00 0. -1.
     999900   -1    0    0    0    0 -0.00000000000E+00 -0.00000000000E+00 -0.74505805969E-08  0.93827000000E+00  0.93827000000E+00 0.  1.
     999902    2    1    2    0    0 -0.12619094434E-03 -0.23632709324E-01 -0.46037035044E-02  0.10198527294E+01  0.10195684747E+01 0.  0.
     999903    2    3    3    0    0  0.96255385371E-01 -0.88284544508E-01  0.35711253902E-02  0.13219508374E+00  0.20087986889E-01 0.  0.
         14    1    1    2    0    0  0.12619094434E-03  0.23632709324E-01  0.46037035044E-02  0.24077270612E-01  0.00000000000E+00 0. -1.
     999901    1    3    3    0    0 -0.96381576315E-01  0.64651835184E-01 -0.81748288946E-02  0.88765764565E+00  0.88000000000E+00 0.  1.
        -11    1    4    4    0    0  0.52637416940E-01 -0.51827307853E-01  0.11613678611E-01  0.74779048893E-01  0.51100000000E-03 0. -1.
         11    1    4    4    0    0  0.43617968431E-01 -0.36457236655E-01 -0.80425532211E-02  0.57416034850E-01  0.51100000000E-03 0.  1.
</event>
<event>
 8    1  0.1143957E+005  0.1043930E+01  0.7957747E-01            NaN
         13   -1    0    0    0    0  0.00000000000E+00  0.00000000000E+00  0.74505805969E-08  0.10566000000E+00  0.10566000000E+00 0.  1.
     999900   -1    0    0    0    0 -0.00000000000E+00 -0.00000000000E+00 -0.74505805969E-08  0.93827000000E+00  0.93827000000E+00 0. -1.
     999902    2    1    2    0    0 -0.49319472857E-02  0.19850238881E-01  0.76658304421E-02  0.10220868994E+01  0.10218534674E+01 0.  0.
     999903    2    3    3    0    0 -0.81170633617E-01 -0.62244477224E-02  0.10062576540E+00  0.13352976782E+00  0.32821315028E-01 0.  0.
         14    1    1    2    0    0  0.49319472857E-02 -0.19850238881E-01 -0.76658304421E-02  0.21843100605E-01  0.00000000000E+00 0. -1.
     999901    1    3    3    0    0  0.76238686331E-01  0.26074686603E-01 -0.92959934954E-01  0.88855713158E+00  0.88000000000E+00 0. -1.
        -11    1    4    4    0    0 -0.61011235813E-01 -0.84672000362E-02  0.51190033032E-01  0.80092103073E-01  0.51100000000E-03 0.  1.
         11    1    4    4    0    0 -0.20159397804E-01  0.22427523138E-02  0.49435732364E-01  0.53437664742E-01  0.51100000000E-03 0. -1.
</event>
<event>
 8    1  0.1143957E+005  0.1043930E+01  0.7957747E-01            NaN
         13   -1    0    0    0    0  0.00000000000E+00  0.00000000000E+00  0.74505805969E-08  0.10566000000E+00  0.10566000000E+00 0.  1.
     999900   -1    0    0    0    0 -0.00000000000E+00 -0.00000000000E+00 -0.74505805969E-08  0.93827000000E+00  0.93827000000E+00 0.  1.
     999902    2    1    2    0    0 -0.83274758707E-02  0.87950677750E-02  0.17330568151E-01  0.10227864747E+01  0.10225679068E+01 0.  0.
     999903    2    3    3    0    0  0.44159517966E-01  0.94651675101E-01 -0.78167438281E-01  0.13191829654E+00  0.19577689563E-01 0.  0.
         14    1    1    2    0    0  0.83274758707E-02 -0.87950677750E-02 -0.17330568151E-01  0.21143525344E-01  0.00000000000E+00 0. -1.
     999901    1    3    3    0    0 -0.52486993837E-01 -0.85856607326E-01  0.95498006432E-01  0.89086817811E+00  0.88000000000E+00 0. -1.
        -11    1    4    4    0    0  0.10313759829E-01  0.26513606193E-01 -0.32443390884E-01  0.43152980062E-01  0.51100000000E-03 0.  1.
         11    1    4    4    0    0  0.33845758137E-01  0.68138068908E-01 -0.45724047397E-01  0.88765316480E-01  0.51100000000E-03 0. -1.
</event>
<event>
 8    1  0.1143957E+005  0.1043930E+01  0.7957747E-01            NaN
         13   -1    0    0    0    0  0.00000000000E+00  0.00000000000E+00  0.74505805969E-08  0.10566000000E+00  0.10566000000E+00 0. -1.
     999900   -1    0    0    0    0 -0.00000000000E+00 -0.00000000000E+00 -0.74505805969E-08  0.93827000000E+00  0.93827000000E+00 0. -1.
     999902    2    1    2    0    0  0.62741296812E-02 -0.22846573816E-01  0.50289156688E-03  0.10202322461E+01  0.10199569856E+01 0.  0.
     999903    2    3    3    0    0  0.73146188694E-01  0.55081862540E-01  0.89522446566E-01  0.12980021917E+00  0.21200281985E-01 0.  0.
         14    1    1    2    0    0 -0.62741296812E-02  0.22846573816E-01 -0.50289156688E-03  0.23697753866E-01  0.00000000000E+00 0.  1.
     999901    1    3    3    0    0 -0.66872059013E-01 -0.77928436356E-01 -0.89019554999E-01  0.89043202696E+00  0.88000000000E+00 0. -1.
        -11    1    4    4    0    0  0.57153044688E-01  0.34691536094E-01  0.54666421802E-01  0.86363487582E-01  0.51100000000E-03 0. -1.
         11    1    4    4    0    0  0.15993144006E-01  0.20390326446E-01  0.34856024764E-01  0.43436731589E-01  0.51100000000E-03 0.  1.
</event>
<event>
 8    1  0.1143957E+005  0.1043930E+01  0.7957747E-01            NaN
         13   -1    0    0    0    0  0.00000000000E+00  0.00000000000E+00  0.74505805969E-08  0.10566000000E+00  0.10566000000E+00 0.  1.
     999900   -1    0    0    0    0 -0.00000000000E+00 -0.00000000000E+00 -0.74505805969E-08  0.93827000000E+00  0.93827000000E+00 0. -1.
     999902    2    1    2    0    0 -0.65437234994E-02  0.20262337025E-01  0.43367221558E-02  0.10222000718E+01  0.10219690783E+01 0.  0.
     999903    2    3    3    0    0 -0.67274094359E-01 -0.10702352438E+00 -0.25132388292E-01  0.13048358274E+00  0.20359024555E-01 0.  0.
         14    1    1    2    0    0  0.65437234994E-02 -0.20262337025E-01 -0.43367221558E-02  0.21729928164E-01  0.00000000000E+00 0. -1.
     999901    1    3    3    0    0  0.60730370860E-01  0.12728586140E+00  0.29469110448E-01  0.89171648910E+00  0.88000000000E+00 0.  1.
        -11    1    4    4    0    0 -0.55679675827E-01 -0.79568857063E-01 -0.26428024373E-01  0.10064855144E+00  0.51100000000E-03 0.  1.
         11    1    4    4    0    0 -0.11594418532E-01 -0.27454667315E-01  0.12956360809E-02  0.29835031294E-01  0.51100000000E-03 0. -1.
</event>
<event>
 8    1  0.1143957E+005  0.1043930E+01  0.7957747E-01            NaN
         13   -1    0    0    0    0  0.00000000000E+00  0.00000000000E+00  0.74505805969E-08  0.10566000000E+00  0.10566000000E+00 0.  1.
     999900   -1    0    0    0    0 -0.00000000000E+00 -0.00000000000E+00 -0.74505805969E-08  0.93827000000E+00  0.93827000000E+00 0.  1.
     999902    2    1    2    0    0 -0.14101805631E-01  0.13496286898E-01  0.12684610869E-01  0.10206510388E+01  0.10203855315E+01 0.  0.
     999903    2    3    3    0    0 -0.12481415918E+00 -0.15574175537E-01  0.37937704155E-01  0.13287852529E+00  0.19907380821E-01 0.  0.
         14    1    1    2    0    0  0.14101805631E-01 -0.13496286898E-01 -0.12684610869E-01  0.23278961210E-01  0.00000000000E+00 0. -1.
     999901    1    3    3    0    0  0.11071235355E+00  0.29070462435E-01 -0.25253093285E-01  0.88777251350E+00  0.88000000000E+00 0.  1.
        -11    1    4    4    0    0 -0.81251367964E-01 -0.12137607066E-01  0.34296624156E-01  0.89025984133E-01  0.51100000000E-03 0.  1.
         11    1    4    4    0    0 -0.43562791212E-01 -0.34365684706E-02  0.36410799987E-02  0.43852541153E-01  0.51100000000E-03 0. -1.
</event>
<event>
 8    1  0.1143957E+005  0.1043930E+01  0.7957747E-01            NaN
         13   -1    0    0    0    0  0.00000000000E+00  0.00000000000E+00  0.74505805969E-08  0.10566000000E+00  0.10566000000E+00 0.  1.
     999900   -1    0    0    0    0 -0.00000000000E+00 -0.00000000000E+00 -0.74505805969E-08  0.93827000000E+00  0.93827000000E+00 0. -1.
     999902    2    1    2    0    0  0.42500778477E-02 -0.24129839474E-01 -0.51398447790E-02  0.10188954175E+01  0.10185878173E+01 0.  0.
     999903    2    3    3    0    0 -0.98384336660E-01 -0.82650408461E-01  0.10133083481E-01  0.13086853598E+00  0.22656712229E-01 0.  0.
         14    1    1    2    0    0 -0.42500778477E-02  0.24129839474E-01  0.51398447790E-02  0.25034582464E-01  0.00000000000E+00 0.  1.
     999901    1    3    3    0    0  0.10263441451E+00  0.58520568987E-01 -0.15272928260E-01  0.88802688156E+00  0.88000000000E+00 0. -1.
        -11    1    4    4    0    0 -0.76338971633E-01 -0.69417784522E-01  0.16196573557E-01  0.10444643371E+00  0.51100000000E-03 0. -1.
         11    1    4    4    0    0 -0.22045365027E-01 -0.13232623939E-01 -0.60634900763E-02  0.26422102271E-01  0.51100000000E-03 0.  1.
</event>
<event>
 8    1  0.1143957E+005  0.1043930E+01  0.7957747E-01            NaN
         13   -1    0    0    0    0  0.00000000000E+00  0.00000000000E+00  0.74505805969E-08  0.10566000000E+00  0.10566000000E+00 0.  1.
     999900   -1    0    0    0    0 -0.00000000000E+00 -0.00000000000E+00 -0.74505805969E-08  0.93827000000E+00  0.93827000000E+00 0. -1.
     999902    2    1    2    0    0 -0.11441442365E-01  0.12948009391E-01 -0.15400475763E-01  0.10207841104E+01  0.10205216646E+01 0.  0.
     999903    2    3    3    0    0 -0.12420428152E+00  0.34541238506E-01 -0.26863181479E-01  0.13325207209E+00  0.20363778975E-01 0.  0.
         14    1    1    2    0    0  0.11441442365E-01 -0.12948009391E-01  0.15400475763E-01  0.23145889577E-01  0.00000000000E+00 0.  1.
     999901    1    3    3    0    0  0.11276283915E+00 -0.21593229115E-01  0.11462705716E-01  0.88753203833E+00  0.88000000000E+00 0.  1.
        -11    1    4    4    0    0 -0.26189776340E-01  0.92843579198E-02  0.23841731414E-02  0.27893531317E-01  0.51100000000E-03 0.  1.
         11    1    4    4    0    0 -0.98014505175E-01  0.25256880587E-01 -0.29247354620E-01  0.10535854078E+00  0.51100000000E-03 0. -1.
</event>
<event>
 8    1  0.1143957E+005  0.1043930E+01  0.7957747E-01            NaN
         13   -1    0    0    0    0  0.00000000000E+00  0.00000000000E+00  0.74505805969E-08  0.10566000000E+00  0.10566000000E+00 0. -1.
     999900   -1    0    0    0    0 -0.00000000000E+00 -0.00000000000E+00 -0.74505805969E-08  0.93827000000E+00  0.93827000000E+00 0.  1.
     999902    2    1    2    0    0  0.10165273169E-01  0.21424019066E-01 -0.34250427738E-02  0.10199706117E+01  0.10196891665E+01 0.  0.
     999903    2    3    3    0    0  0.55284199510E-02 -0.11904302609E+00  0.41102616235E-01  0.12770652318E+00  0.20438334422E-01 0.  0.
         14    1    1    2    0    0 -0.10165273169E-01 -0.21424019066E-01  0.34250427738E-02  0.23959388338E-01  0.00000000000E+00 0. -1.
     999901    1    3    3    0    0  0.46368532178E-02  0.14046704515E+00 -0.44527659009E-01  0.89226408848E+00  0.88000000000E+00 0.  1.
        -11    1    4    4    0    0  0.49770206622E-03 -0.23446874368E-01  0.17055404483E-01  0.29002613124E-01  0.51100000000E-03 0. -1.
         11    1    4    4    0    0  0.50307178848E-02 -0.95596151718E-01  0.24047211752E-01  0.98703910053E-01  0.51100000000E-03 0.  1.
</event>
<event>
 7    1  0.1143957E+005  0.1043930E+01  0.7957747E-01            NaN
         13   -1    0    0    0    0  0.00000000000E+00  0.00000000000E+00  0.74505805969E-08  0.10566000000E+00  0.10566000000E+00 0.  1.
     999900   -1    0    0    0    0 -0.00000000000E+00 -0.00000000000E+00 -0.74505805969E-08  0.93827000000E+00  0.93827000000E+00 0.  1.
     999903    2    1    2    0    0 -0.24446456278E-01 -0.54519650996E-03 -0.88709098240E-01  0.94012879618E-01  0.19266316716E-01 0.  0.
         14    1    1    2    0    0 -0.37615462558E-01 -0.12366476554E-01 -0.42325488849E-01  0.57959466631E-01  0.00000000000E+00 0. -1.
     999901    1    1    2    0    0  0.62061918836E-01  0.12911673064E-01  0.13103458709E+00  0.89195765375E+00  0.88000000000E+00 0. -1.
        -11    1    3    3    0    0 -0.16867130136E-01 -0.13697711906E-02 -0.27253865857E-01  0.32084430450E-01  0.51100000000E-03 0. -1.
         11    1    3    3    0    0 -0.75793261419E-02  0.82457468067E-03 -0.61455232383E-01  0.61928449169E-01  0.51100000000E-03 0.  1.
</event>
<event>
 8    1  0.1143957E+005  0.1043930E+01  0.7957747E-01            NaN
         13   -1    0    0    0    0  0.00000000000E+00  0.00000000000E+00  0.74505805969E-08  0.10566000000E+00  0.10566000000E+00 0.  1.
     999900   -1    0    0    0    0 -0.00000000000E+00 -0.00000000000E+00 -0.74505805969E-08  0.93827000000E+00  0.93827000000E+00 0. -1.
     999902    2    1    2    0    0 -0.47309847180E-02  0.84186947191E-02  0.21947672208E-01  0.10199517400E+01  0.10196698461E+01 0.  0.
     999903    2    3    3    0    0  0.40406349034E-01 -0.11409344351E+00 -0.37638730470E-01  0.12832561752E+00  0.20020069578E-01 0.  0.
         14    1    1    2    0    0  0.47309847180E-02 -0.84186947191E-02 -0.21947672208E-01  0.23978259998E-01  0.00000000000E+00 0. -1.
     999901    1    3    3    0    0 -0.45137333752E-01  0.12251213823E+00  0.59586402679E-01  0.89162612248E+00  0.88000000000E+00 0.  1.
        -11    1    4    4    0    0  0.14808443993E-01 -0.60555265917E-01 -0.11123497556E-01  0.63326325984E-01  0.51100000000E-03 0. -1.
         11    1    4    4    0    0  0.25597905042E-01 -0.53538177592E-01 -0.26515232914E-01  0.64999291533E-01  0.51100000000E-03 0.  1.
</event>
<event>
 8    1  0.1143957E+005  0.1043930E+01  0.7957747E-01            NaN
         13   -1    0    0    0    0  0.00000000000E+00  0.00000000000E+00  0.74505805969E-08  0.10566000000E+00  0.10566000000E+00 0.  1.
     999900   -1    0    0    0    0 -0.00000000000E+00 -0.00000000000E+00 -0.74505805969E-08  0.93827000000E+00  0.93827000000E+00 0. -1.
     999902    2    1    2    0    0  0.61316715009E-03 -0.17475458951E-01  0.15338596428E-01  0.10206697296E+01  0.10204046534E+01 0.  0.
     999903    2    3    3    0    0  0.47629420397E-02 -0.46689015407E-01  0.12345350907E+00  0.13356235905E+00  0.19889320718E-01 0.  0.
         14    1    1    2    0    0 -0.61316715009E-03  0.17475458951E-01 -0.15338596428E-01  0.23260270418E-01  0.00000000000E+00 0. -1.
     999901    1    3    3    0    0 -0.41497748896E-02  0.29213556456E-01 -0.10811491264E+00  0.88710737053E+00  0.88000000000E+00 0. -1.
        -11    1    4    4    0    0  0.24559698992E-02 -0.82345570424E-03  0.22485635404E-01  0.22640114575E-01  0.51100000000E-03 0. -1.
         11    1    4    4    0    0  0.23069721405E-02 -0.45865559703E-01  0.10096787366E+00  0.11092224448E+00  0.51100000000E-03 0.  1.
</event>
<event>
 8    1  0.1143957E+005  0.1043930E+01  0.7957747E-01            NaN
         13   -1    0    0    0    0  0.00000000000E+00  0.00000000000E+00  0.74505805969E-08  0.10566000000E+00  0.10566000000E+00 0. -1.
     999900   -1    0    0    0    0 -0.00000000000E+00 -0.00000000000E+00 -0.74505805969E-08  0.93827000000E+00  0.93827000000E+00 0. -1.
     999902    2    1    2    0    0 -0.23690514006E-01 -0.12112403381E-02 -0.73641224837E-03  0.10201971144E+01  0.10199210275E+01 0.  0.
     999903    2    3    3    0    0 -0.63571748854E-01 -0.82476477923E-01  0.78404153938E-01  0.13202045349E+00  0.20939248346E-01 0.  0.
         14    1    1    2    0    0  0.23690514006E-01  0.12112403381E-02  0.73641224837E-03  0.23732885624E-01  0.00000000000E+00 0.  1.
     999901    1    3    3    0    0  0.39881234848E-01  0.81265237585E-01 -0.79140566186E-01  0.88817666089E+00  0.88000000000E+00 0. -1.
        -11    1    4    4    0    0 -0.49193988914E-01 -0.48623882698E-01  0.55555826954E-01  0.88718890567E-01  0.51100000000E-03 0.  1.
         11    1    4    4    0    0 -0.14377759940E-01 -0.33852595225E-01  0.22848326984E-01  0.43301562920E-01  0.51100000000E-03 0. -1.
</event>
<event>
 8    1  0.1143957E+005  0.1043930E+01  0.7957747E-01            NaN
         13   -1    0    0    0    0  0.00000000000E+00  0.00000000000E+00  0.74505805969E-08  0.10566000000E+00  0.10566000000E+00 0. -1.
     999900   -1    0    0    0    0 -0.00000000000E+00 -0.00000000000E+00 -0.74505805969E-08  0.93827000000E+00  0.93827000000E+00 0.  1.
     999902    2    1    2    0    0 -0.16905786611E-01  0.57035415817E-03  0.20078124856E-01  0.10176761998E+01  0.10173374984E+01 0.  0.
     999903    2    3    3    0    0  0.59779667144E-02  0.97926502027E-01  0.82195372817E-01  0.12983587738E+00  0.21816045892E-01 0.  0.
         14    1    1    2    0    0  0.16905786611E-01 -0.57035415817E-03 -0.20078124856E-01  0.26253800154E-01  0.00000000000E+00 0. -1.
     999901    1    3    3    0    0 -0.22883753326E-01 -0.97356147869E-01 -0.62117247960E-01  0.88784032246E+00  0.88000000000E+00 0. -1.
        -11    1    4    4    0    0  0.77575661643E-02  0.67313705801E-01  0.68149431750E-01  0.96103699150E-01  0.51100000000E-03 0.  1.
         11    1    4    4    0    0 -0.17795994499E-02  0.30612796226E-01  0.14045941066E-01  0.33732178234E-01  0.51100000000E-03 0. -1.
</event>
<event>
 8    1  0.1143957E+005  0.1043930E+01  0.7957747E-01            NaN
         13   -1    0    0    0    0  0.00000000000E+00  0.00000000000E+00  0.74505805969E-08  0.10566000000E+00  0.10566000000E+00 0.  1.
     999900   -1    0    0    0    0 -0.00000000000E+00 -0.00000000000E+00 -0.74505805969E-08  0.93827000000E+00  0.93827000000E+00 0.  1.
     999902    2    1    2    0    0  0.12936324264E-01  0.10475123112E-01 -0.16834500978E-01  0.10202556022E+01  0.10199808903E+01 0.  0.
     999903    2    3    3    0    0  0.21797136542E-01  0.10287369148E-01 -0.12925679919E+00  0.13305927531E+00  0.20408465970E-01 0.  0.
         14    1    1    2    0    0 -0.12936324264E-01 -0.10475123112E-01  0.16834500978E-01  0.23674397835E-01  0.00000000000E+00 0.  1.
     999901    1    3    3    0    0 -0.88608122777E-02  0.18775396394E-03  0.11242229822E+00  0.88719632685E+00  0.88000000000E+00 0. -1.
        -11    1    4    4    0    0  0.22692245918E-01  0.13488929821E-01 -0.93861055866E-01  0.97504093154E-01  0.51100000000E-03 0. -1.
         11    1    4    4    0    0 -0.89510937587E-03 -0.32015606731E-02 -0.35395743328E-01  0.35555182158E-01  0.51100000000E-03 0.  1.
</event>
<event>
 8    1  0.1143957E+005  0.1043930E+01  0.7957747E-01            NaN
         13   -1    0    0    0    0  0.00000000000E+00  0.00000000000E+00  0.74505805969E-08  0.10566000000E+00  0.10566000000E+00 0. -1.
     999900   -1    0    0    0    0 -0.00000000000E+00 -0.00000000000E+00 -0.74505805969E-08  0.93827000000E+00  0.93827000000E+00 0.  1.
     999902    2    1    2    0    0 -0.14220394616E-01  0.12475373358E-01  0.15041694173E-01  0.10197616917E+01  0.10194752575E+01 0.  0.
     999903    2    3    3    0    0 -0.78998068586E-01  0.10251114171E+00  0.25373418081E-01  0.13273895739E+00  0.15052954803E-01 0.  0.
         14    1    1    2    0    0  0.14220394616E-01 -0.12475373358E-01 -0.15041694173E-01  0.24168308320E-01  0.00000000000E+00 0.  1.
     999901    1    3    3    0    0  0.64777673970E-01 -0.90035768354E-01 -0.10331723907E-01  0.88702273429E+00  0.88000000000E+00 0. -1.
        -11    1    4    4    0    0 -0.24926454465E-01  0.43947866993E-01  0.11711757163E-01  0.51866844152E-01  0.51100000000E-03 0. -1.
         11    1    4    4    0    0 -0.54071614121E-01  0.58563274720E-01  0.13661660917E-01  0.80872113238E-01  0.51100000000E-03 0.  1.
</event>
<event>
 8    1  0.1143957E+005  0.1043930E+01  0.7957747E-01            NaN
         13   -1    0    0    0    0  0.00000000000E+00  0.00000000000E+00  0.74505805969E-08  0.10566000000E+00  0.10566000000E+00 0.  1.
     999900   -1    0    0    0    0 -0.00000000000E+00 -0.00000000000E+00 -0.74505805969E-08  0.93827000000E+00  0.93827000000E+00 0.  1.
     999902    2    1    2    0    0 -0.14264737499E-02  0.14276832347E-01 -0.18267013699E-01  0.10207018585E+01  0.10204375225E+01 0.  0.
     999903    2    3    3    0    0 -0.73886130620E-01  0.98295253908E-01 -0.47277390979E-01  0.13326110044E+00  0.20056219814E-01 0.  0.
         14    1    1    2    0    0  0.14264737499E-02 -0.14276832347E-01  0.18267013699E-01  0.23228141525E-01  0.00000000000E+00 0.  1.
     999901    1    3    3    0    0  0.72459656871E-01 -0.84018421561E-01  0.29010377279E-01  0.88744075804E+00  0.88000000000E+00 0.  1.
        -11    1    4    4    0    0 -0.47669137602E-01  0.74855453703E-01 -0.40001838299E-01  0.97345230068E-01  0.51100000000E-03 0.  1.
         11    1    4    4    0    0 -0.26216993019E-01  0.23439800205E-01 -0.72755526797E-02  0.35915870370E-01  0.51100000000E-03 0. -1.
</event>
<event>
 8    1  0.1143957E+005  0.1043930E+01  0.7957747E-01            NaN
         13   -1    0    0    0    0  0.00000000000E+00  0.00000000000E+00  0.74505805969E-08  0.10566000000E+00  0.10566000000E+00 0.  1.
     999900   -1    0    0    0    0 -0.00000000000E+00 -0.00000000000E+00 -0.74505805969E-08  0.93827000000E+00  0.93827000000E+00 0.  1.
     999902    2    1    2    0    0  0.80179507059E-03  0.27069361734E-02 -0.28978773181E-01  0.10148140306E+01  0.10143962623E+01 0.  0.
     999903    2    3    3    0    0 -0.26646039087E-01 -0.41248832708E-01 -0.11736854134E+00  0.12886919918E+00  0.20504106959E-01 0.  0.
         14    1    1    2    0    0 -0.80179507059E-03 -0.27069361734E-02  0.28978773181E-01  0.29115969396E-01  0.00000000000E+00 0.  1.
     999901    1    3    3    0    0  0.27447834157E-01  0.43955768881E-01  0.88389768156E-01  0.88594483143E+00  0.88000000000E+00 0.  1.
        -11    1    4    4    0    0 -0.50294388176E-02 -0.14213439629E-02 -0.34919334488E-02  0.63063613670E-02  0.51100000000E-03 0. -1.
         11    1    4    4    0    0 -0.21616600269E-01 -0.39827488745E-01 -0.11387660789E+00  0.12256283781E+00  0.51100000000E-03 0.  1.
</event>
<event>
 8    1  0.1143957E+005  0.1043930E+01  0.7957747E-01            NaN
         13   -1    0    0    0    0  0.00000000000E+00  0.00000000000E+00  0.74505805969E-08  0.10566000000E+00  0.10566000000E+00 0.  1.
     999900   -1    0    0    0    0 -0.00000000000E+00 -0.00000000000E+00 -0.74505805969E-08  0.93827000000E+00  0.93827000000E+00 0. -1.
     999902    2    1    2    0    0  0.83417143574E-02  0.94700151685E-02 -0.20321292518E-01  0.10200088730E+01  0.10197283367E+01 0.  0.
     999903    2    3    3    0    0  0.20494528667E-02 -0.12701252868E+00 -0.14437742964E-01  0.12944630169E+00  0.20285805341E-01 0.  0.
         14    1    1    2    0    0 -0.83417143574E-02 -0.94700151685E-02  0.20321292518E-01  0.23921126966E-01  0.00000000000E+00 0. -1.
     999901    1    3    3    0    0  0.62922614907E-02  0.13648254385E+00 -0.58835495542E-02  0.89056257135E+00  0.88000000000E+00 0.  1.
        -11    1    4    4    0    0  0.68778934826E-02 -0.57846521769E-01  0.16050129271E-02  0.58278320901E-01  0.51100000000E-03 0. -1.
         11    1    4    4    0    0 -0.48284406159E-02 -0.69166006916E-01 -0.16042755891E-01  0.71167980785E-01  0.51100000000E-03 0.  1.
</event>
<event>
 8    1  0.1143957E+005  0.1043930E+01  0.7957747E-01            NaN
         13   -1    0    0    0    0  0.00000000000E+00  0.00000000000E+00  0.74505805969E-08  0.10566000000E+00  0.10566000000E+00 0.  1.
     999900   -1    0    0    0    0 -0.00000000000E+00 -0.00000000000E+00 -0.74505805969E-08  0.93827000000E+00  0.93827000000E+00 0.  1.
     999902    2    1    2    0    0 -0.19260358338E-01  0.77186974445E-02  0.82083928847E-02  0.10216159370E+01  0.10213722168E+01 0.  0.
     999903    2    3    3    0    0 -0.83714439472E-01  0.27577308645E-01  0.99379619941E-01  0.13433870544E+00  0.20049029680E-01 0.  0.
         14    1    1    2    0    0  0.19260358338E-01 -0.77186974445E-02 -0.82083928847E-02  0.22314062994E-01  0.00000000000E+00 0. -1.
     999901    1    3    3    0    0  0.64454081134E-01 -0.19858611200E-01 -0.91171227057E-01  0.88727723157E+00  0.88000000000E+00 0.  1.
        -11    1    4    4    0    0 -0.57889496467E-01  0.26128316006E-01  0.79237649579E-01  0.10155170570E+00  0.51100000000E-03 0. -1.
         11    1    4    4    0    0 -0.25824943005E-01  0.14489926387E-02  0.20141970362E-01  0.32786999740E-01  0.51100000000E-03 0.  1.
</event>
<event>
 8    1  0.1143957E+005  0.1043930E+01  0.7957747E-01            NaN
         13   -1    0    0    0    0  0.00000000000E+00  0.00000000000E+00  0.74505805969E-08  0.10566000000E+00  0.10566000000E+00 0.  1.
     999900   -1    0    0    0    0 -0.00000000000E+00 -0.00000000000E+00 -0.74505805969E-08  0.93827000000E+00  0.93827000000E+00 0. -1.
     999902    2    1    2    0    0  0.73046174296E-04 -0.15285466374E-02 -0.23410629910E-01  0.10204694079E+01  0.10201996927E+01 0.  0.
     999903    2    3    3    0    0  0.74439248455E-01 -0.55082330311E-03  0.10275907199E+00  0.12836510810E+00  0.19407961862E-01 0.  0.
         14    1    1    2    0    0 -0.73046174296E-04  0.15285466374E-02  0.23410629910E-01  0.23460592136E-01  0.00000000000E+00 0.  1.
     999901    1    3    3    0    0 -0.74366202281E-01 -0.97772333427E-03 -0.12616970190E+00  0.89210429977E+00  0.88000000000E+00 0. -1.
        -11    1    4    4    0    0  0.39091752914E-01 -0.99658537667E-02  0.53582471969E-01  0.67073286863E-01  0.51100000000E-03 0.  1.
         11    1    4    4    0    0  0.35347495541E-01  0.94150304636E-02  0.49176600021E-01  0.61291821235E-01  0.51100000000E-03 0. -1.
</event>
<event>
 8    1  0.1143957E+005  0.1043930E+01  0.7957747E-01            NaN
         13   -1    0    0    0    0  0.00000000000E+00  0.00000000000E+00  0.74505805969E-08  0.10566000000E+00  0.10566000000E+00 0. -1.
     999900   -1    0    0    0    0 -0.00000000000E+00 -0.00000000000E+00 -0.74505805969E-08  0.93827000000E+00  0.93827000000E+00 0.  1.
     999902    2    1    2    0    0 -0.22811656940E-02 -0.34155198938E-02 -0.23076566178E-01  0.10204907722E+01  0.10202215538E+01 0.  0.
     999903    2    3    3    0    0 -0.11193274858E+00 -0.42753579665E-01  0.46387805373E-01  0.13009970560E+00  0.20427827357E-01 0.  0.
         14    1    1    2    0    0  0.22811656940E-02  0.34155198938E-02  0.23076566178E-01  0.23439227795E-01  0.00000000000E+00 0. -1.
     999901    1    3    3    0    0  0.10965158289E+00  0.39338059771E-01 -0.69464371550E-01  0.89039106661E+00  0.88000000000E+00 0. -1.
        -11    1    4    4    0    0 -0.49768178311E-01 -0.28021004687E-01  0.28043293245E-01  0.63629676198E-01  0.51100000000E-03 0. -1.
         11    1    4    4    0    0 -0.62164570270E-01 -0.14732574979E-01  0.18344512128E-01  0.66470029401E-01  0.51100000000E-03 0.  1.
</event>
<event>
 7    1  0.1143957E+005  0.1043930E+01  0.7957747E-01            NaN
         13   -1    0    0    0    0  0.00000000000E+00  0.00000000000E+00  0.74505805969E-08  0.10566000000E+00  0.10566000000E+00 0. -1.
     999900   -1    0    0    0    0 -0.00000000000E+00 -0.00000000000E+00 -0.74505805969E-08  0.93827000000E+00  0.93827000000E+00 0. -1.
     999903    2    1    2    0    0 -0.25121837694E-01 -0.26271745123E-01 -0.45876211243E-01  0.62125204349E-01  0.20823134643E-01 0.  0.
         14    1    1    2    0    0 -0.74133453227E-03 -0.54069337569E-01  0.80630028691E-01  0.97083697750E-01  0.00000000000E+00 0. -1.
     999901    1    1    2    0    0  0.25863172227E-01  0.80341082692E-01 -0.34753817447E-01  0.88472109790E+00  0.88000000000E+00 0. -1.
        -11    1    3    3    0    0 -0.15569900253E-01 -0.10608662070E-01 -0.88964977258E-02  0.20841648149E-01  0.51100000000E-03 0. -1.
         11    1    3    3    0    0 -0.95519374417E-02 -0.15663083053E-01 -0.36979713518E-01  0.41283556199E-01  0.51100000000E-03 0.  1.
</event>
<event>
 8    1  0.1143957E+005  0.1043930E+01  0.7957747E-01            NaN
         13   -1    0    0    0    0  0.00000000000E+00  0.00000000000E+00  0.74505805969E-08  0.10566000000E+00  0.10566000000E+00 0.  1.
     999900   -1    0    0    0    0 -0.00000000000E+00 -0.00000000000E+00 -0.74505805969E-08  0.93827000000E+00  0.93827000000E+00 0. -1.
     999902    2    1    2    0    0  0.10814306636E-01  0.93918461416E-02 -0.18440561695E-01  0.10205802609E+01  0.10203131179E+01 0.  0.
     999903    2    3    3    0    0 -0.22258344995E-01 -0.30473525920E-01 -0.12551620080E+00  0.13257787311E+00  0.19962616857E-01 0.  0.
         14    1    1    2    0    0 -0.10814306636E-01 -0.93918461416E-02  0.18440561695E-01  0.23349739134E-01  0.00000000000E+00 0.  1.
     999901    1    3    3    0    0  0.33072651632E-01  0.39865372061E-01  0.10707563910E+00  0.88800238776E+00  0.88000000000E+00 0.  1.
        -11    1    4    4    0    0 -0.29696334335E-02  0.22579199098E-02 -0.21762038286E-01  0.22085387848E-01  0.51100000000E-03 0. -1.
         11    1    4    4    0    0 -0.19288711562E-01 -0.32731445829E-01 -0.10375416251E+00  0.11049248526E+00  0.51100000000E-03 0.  1.
</event>
<event>
 8    1  0.1143957E+005  0.1043930E+01  0.7957747E-01            NaN
         13   -1    0    0    0    0  0.00000000000E+00  0.00000000000E+00  0.74505805969E-08  0.10566000000E+00  0.10566000000E+00 0. -1.
     999900   -1    0    0    0    0 -0.00000000000E+00 -0.00000000000E+00 -0.74505805969E-08  0.93827000000E+00  0.93827000000E+00 0.  1.
     999902    2    1    2    0    0  0.10074570699E-01 -0.19128635662E-01 -0.92709468292E-02  0.10204065621E+01  0.10201353831E+01 0.  0.
     999903    2    3    3    0    0 -0.72410518367E-01  0.98233033175E-01 -0.34161244232E-01  0.12844407511E+00  0.20925530983E-01 0.  0.
         14    1    1    2    0    0 -0.10074570699E-01  0.19128635662E-01  0.92709468292E-02  0.23523437933E-01  0.00000000000E+00 0.  1.
     999901    1    3    3    0    0  0.82485089066E-01 -0.11736166884E+00  0.24890297403E-01  0.89196248696E+00  0.88000000000E+00 0. -1.
        -11    1    4    4    0    0 -0.48177173416E-01  0.72775214012E-01 -0.32889361274E-01  0.93269732598E-01  0.51100000000E-03 0. -1.
         11    1    4    4    0    0 -0.24233344951E-01  0.25457819164E-01 -0.12718829585E-02  0.35174342514E-01  0.51100000000E-03 0.  1.
</event>
<event>
 8    1  0.1143957E+005  0.1043930E+01  0.7957747E-01            NaN
         13   -1    0    0    0    0  0.00000000000E+00  0.00000000000E+00  0.74505805969E-08  0.10566000000E+00  0.10566000000E+00 0.  1.
     999900   -1    0    0    0    0 -0.00000000000E+00 -0.00000000000E+00 -0.74505805969E-08  0.93827000000E+00  0.93827000000E+00 0. -1.
     999902    2    1    2    0    0 -0.33910442549E-02 -0.19858742348E-01  0.12903506473E-01  0.10200057590E+01  0.10197251488E+01 0.  0.
     999903    2    3    3    0    0  0.95163153939E-01  0.32160400362E-01  0.80734192876E-01  0.13038790664E+00  0.19816131823E-01 0.  0.
         14    1    1    2    0    0  0.33910442549E-02  0.19858742348E-01 -0.12903506473E-01  0.23924241014E-01  0.00000000000E+00 0. -1.
     999901    1    3    3    0    0 -0.98554198194E-01 -0.52019142710E-01 -0.67830686402E-01  0.88961785234E+00  0.88000000000E+00 0. -1.
        -11    1    4    4    0    0  0.22513438339E-01  0.10492645264E-01  0.10263982948E-01  0.26880494368E-01  0.51100000000E-03 0. -1.
         11    1    4    4    0    0  0.72649715599E-01  0.21667755098E-01  0.70470209928E-01  0.10350741228E+00  0.51100000000E-03 0.  1.
</event>
<event>
 8    1  0.1143957E+005  0.1043930E+01  0.7957747E-01            NaN
         13   -1    0    0    0    0  0.00000000000E+00  0.00000000000E+00  0.74505805969E-08  0.10566000000E+00  0.10566000000E+00 0. -1.
     999900   -1    0    0    0    0 -0.00000000000E+00 -0.00000000000E+00 -0.74505805969E-08  0.93827000000E+00  0.93827000000E+00 0.  1.
     999902    2    1    2    0    0 -0.11914638036E-01 -0.12139659213E-01 -0.14804100202E-01  0.10213802482E+01  0.10211312942E+01 0.  0.
     999903    2    3    3    0    0 -0.12153086882E+00 -0.41891008407E-01 -0.31877896744E-01  0.13391623460E+00  0.19817894114E-01 0.  0.
         14    1    1    2    0    0  0.11914638036E-01  0.12139659213E-01  0.14804100202E-01  0.22549751842E-01  0.00000000000E+00 0. -1.
     999901    1    3    3    0    0  0.10961623079E+00  0.29751349193E-01  0.17073796542E-01  0.88746401356E+00  0.88000000000E+00 0.  1.
        -11    1    4    4    0    0 -0.50633373231E-01 -0.26767455672E-01 -0.95889902196E-02  0.58072756283E-01  0.51100000000E-03 0. -1.
         11    1    4    4    0    0 -0.70897495590E-01 -0.15123552735E-01 -0.22288906524E-01  0.75843478318E-01  0.51100000000E-03 0.  1.
</event>
<event>
 8    1  0.1143957E+005  0.1043930E+01  0.7957747E-01            NaN
         13   -1    0    0    0    0  0.00000000000E+00  0.00000000000E+00  0.74505805969E-08  0.10566000000E+00  0.10566000000E+00 0. -1.
     999900   -1    0    0    0    0 -0.00000000000E+00 -0.00000000000E+00 -0.74505805969E-08  0.93827000000E+00  0.93827000000E+00 0. -1.
     999902    2    1    2    0    0  0.18346558126E-01  0.83095714027E-02  0.25267982381E-02  0.10236314808E+01  0.10234302021E+01 0.  0.
     999903    2    3    3    0    0  0.58321531926E-01  0.11388922916E+00  0.39984561373E-01  0.13562914597E+00  0.20599574856E-01 0.  0.
         14    1    1    2    0    0 -0.18346558126E-01 -0.83095714027E-02 -0.25267982381E-02  0.20298519190E-01  0.00000000000E+00 0.  1.
     999901    1    3    3    0    0 -0.39974973800E-01 -0.10557965775E+00 -0.37457763135E-01  0.88800233484E+00  0.88000000000E+00 0. -1.
        -11    1    4    4    0    0  0.16126047935E-01  0.49404695830E-01  0.99375309990E-02  0.52913977694E-01  0.51100000000E-03 0. -1.
         11    1    4    4    0    0  0.42195483992E-01  0.64484533327E-01  0.30047030374E-01  0.82715168276E-01  0.51100000000E-03 0.  1.
</event>
<event>
 8    1  0.1143957E+005  0.1043930E+01  0.7957747E-01            NaN
         13   -1    0    0    0    0  0.00000000000E+00  0.00000000000E+00  0.74505805969E-08  0.10566000000E+00  0.10566000000E+00 0.  1.
     999900   -1    0    0    0    0 -0.00000000000E+00 -0.00000000000E+00 -0.74505805969E-08  0.93827000000E+00  0.93827000000E+00 0. -1.
     999902    2    1    2    0    0 -0.94955017080E-02 -0.16627371871E-01 -0.82028035047E-02  0.10230992527E+01  0.10228871692E+01 0.  0.
     999903    2    3    3    0    0  0.65792456665E-01 -0.41393201885E-01  0.10262482109E+00  0.13261377533E+00  0.31820040659E-01 0.  0.
         14    1    1    2    0    0  0.94955017080E-02  0.16627371871E-01  0.82028035047E-02  0.20830747307E-01  0.00000000000E+00 0.  1.
     999901    1    3    3    0    0 -0.75287958373E-01  0.24765830014E-01 -0.11082762460E+00  0.89048547736E+00  0.88000000000E+00 0. -1.
        -11    1    4    4    0    0  0.35254795831E-01 -0.20119388558E-01  0.28286919069E-01  0.49478291567E-01  0.51100000000E-03 0. -1.
         11    1    4    4    0    0  0.30537660834E-01 -0.21273813328E-01  0.74337902025E-01  0.83135483767E-01  0.51100000000E-03 0.  1.
</event>
<event>
 8    1  0.1143957E+005  0.1043930E+01  0.7957747E-01            NaN
         13   -1    0    0    0    0  0.00000000000E+00  0.00000000000E+00  0.74505805969E-08  0.10566000000E+00  0.10566000000E+00 0.  1.
     999900   -1    0    0    0    0 -0.00000000000E+00 -0.00000000000E+00 -0.74505805969E-08  0.93827000000E+00  0.93827000000E+00 0. -1.
     999902    2    1    2    0    0  0.96897632127E-02  0.15342776434E-01 -0.15800373923E-01  0.10198687424E+01  0.10195848703E+01 0.  0.
     999903    2    3    3    0    0  0.53459462697E-01 -0.33534394561E-01  0.11058105238E+00  0.12842214877E+00  0.16781220993E-01 0.  0.
         14    1    1    2    0    0 -0.96897632127E-02 -0.15342776434E-01  0.15800373923E-01  0.24061257572E-01  0.00000000000E+00 0.  1.
     999901    1    3    3    0    0 -0.43769699484E-01  0.48877170995E-01 -0.12638142630E+00  0.89144659366E+00  0.88000000000E+00 0. -1.
        -11    1    4    4    0    0  0.28860475604E-01 -0.94730790721E-02  0.59866202541E-01  0.67133371782E-01  0.51100000000E-03 0. -1.
         11    1    4    4    0    0  0.24598987093E-01 -0.24061315489E-01  0.50714849838E-01  0.61288776984E-01  0.51100000000E-03 0.  1.
</event>
<event>
 8    1  0.1143957E+005  0.1043930E+01  0.7957747E-01            NaN
         13   -1    0    0    0    0  0.00000000000E+00  0.00000000000E+00  0.74505805969E-08  0.10566000000E+00  0.10566000000E+00 0. -1.
     999900   -1    0    0    0    0 -0.00000000000E+00 -0.00000000000E+00 -0.74505805969E-08  0.93827000000E+00  0.93827000000E+00 0.  1.
     999902    2    1    2    0    0 -0.24053853097E-01 -0.17893418091E-02 -0.66809180425E-02  0.10189015310E+01  0.10185940829E+01 0.  0.
     999903    2    3    3    0    0 -0.30236105446E-01  0.92519597529E-01  0.82767984391E-01  0.12933225187E+00  0.20054778342E-01 0.  0.
         14    1    1    2    0    0  0.24053853097E-01  0.17893418091E-02  0.66809180425E-02  0.25028468966E-01  0.00000000000E+00 0.  1.
     999901    1    3    3    0    0  0.61822523494E-02 -0.94308939338E-01 -0.89448902434E-01  0.88956927916E+00  0.88000000000E+00 0.  1.
        -11    1    4    4    0    0 -0.10849372597E-01  0.45718002456E-01  0.51882204610E-01  0.69999063640E-01  0.51100000000E-03 0. -1.
         11    1    4    4    0    0 -0.19386732849E-01  0.46801595074E-01  0.30885779782E-01  0.59333188232E-01  0.51100000000E-03 0.  1.
</event>
<event>
 8    1  0.1143957E+005  0.1043930E+01  0.7957747E-01            NaN
         13   -1    0    0    0    0  0.00000000000E+00  0.00000000000E+00  0.74505805969E-08  0.10566000000E+00  0.10566000000E+00 0.  1.
     999900   -1    0    0    0    0 -0.00000000000E+00 -0.00000000000E+00 -0.74505805969E-08  0.93827000000E+00  0.93827000000E+00 0. -1.
     999902    2    1    2    0    0 -0.22979238214E-01  0.13890523507E-01 -0.50667962161E-03  0.10170739251E+01  0.10167192929E+01 0.  0.
     999903    2    3    3    0    0 -0.24456791133E-01  0.10064227399E+00  0.75241593384E-01  0.12956851658E+00  0.19992527765E-01 0.  0.
         14    1    1    2    0    0  0.22979238214E-01 -0.13890523507E-01  0.50667962161E-03  0.26856074852E-01  0.00000000000E+00 0.  1.
     999901    1    3    3    0    0  0.14775529193E-02 -0.86751750486E-01 -0.75748273006E-01  0.88750540857E+00  0.88000000000E+00 0.  1.
        -11    1    4    4    0    0 -0.26498968510E-01  0.75651022781E-01  0.53463767506E-01  0.96353039064E-01  0.51100000000E-03 0.  1.
         11    1    4    4    0    0  0.20421773764E-02  0.24991251213E-01  0.21777825879E-01  0.33215477516E-01  0.51100000000E-03 0. -1.
</event>
<event>
 8    1  0.1143957E+005  0.1043930E+01  0.7957747E-01            NaN
         13   -1    0    0    0    0  0.00000000000E+00  0.00000000000E+00  0.74505805969E-08  0.10566000000E+00  0.10566000000E+00 0. -1.
     999900   -1    0    0    0    0 -0.00000000000E+00 -0.00000000000E+00 -0.74505805969E-08  0.93827000000E+00  0.93827000000E+00 0.  1.
     999902    2    1    2    0    0  0.20777351982E-01 -0.57813788220E-03  0.10863531625E-01  0.10204768783E+01  0.10202073369E+01 0.  0.
     999903    2    3    3    0    0 -0.59414139353E-01 -0.75298393041E-01 -0.83708023296E-01  0.12864866006E+00  0.18535280489E-01 0.  0.
         14    1    1    2    0    0 -0.20777351982E-01  0.57813788220E-03 -0.10863531625E-01  0.23453121715E-01  0.00000000000E+00 0. -1.
     999901    1    3    3    0    0  0.80191491335E-01  0.74720255159E-01  0.94571554921E-01  0.89182821822E+00  0.88000000000E+00 0. -1.
        -11    1    4    4    0    0 -0.16326769507E-01 -0.12287098329E-01 -0.10929563158E-01  0.23178711347E-01  0.51100000000E-03 0. -1.
         11    1    4    4    0    0 -0.43087369845E-01 -0.63011294712E-01 -0.72778460138E-01  0.10546994872E+00  0.51100000000E-03 0.  1.
</event>
<event>
 8    1  0.1143957E+005  0.1043930E+01  0.7957747E-01            NaN
         13   -1    0    0    0    0  0.00000000000E+00  0.00000000000E+00  0.74505805969E-08  0.10566000000E+00  0.10566000000E+00 0.  1.
     999900   -1    0    0    0    0 -0.00000000000E+00 -0.00000000000E+00 -0.74505805969E-08  0.93827000000E+00  0.93827000000E+00 0.  1.
     999902    2    1    2    0    0 -0.90342944425E-02  0.13134688364E-01 -0.18357449447E-01  0.10196167430E+01  0.10193268211E+01 0.  0.
     999903    2    3    3    0    0  0.63090788197E-01  0.26199304545E-01  0.10605124540E+00  0.12784870419E+00  0.20774344698E-01 0.  0.
         14    1    1    2    0    0  0.90342944425E-02 -0.13134688364E-01  0.18357449447E-01  0.24313256974E-01  0.00000000000E+00 0.  1.
     999901    1    3    3    0    0 -0.72125082639E-01 -0.13064616181E-01 -0.12440869485E+00  0.89176803884E+00  0.88000000000E+00 0.  1.
        -11    1    4    4    0    0  0.48969181142E-01  0.25285366433E-01  0.69842015777E-01  0.88969088712E-01  0.51100000000E-03 0. -1.
         11    1    4    4    0    0  0.14121607055E-01  0.91393811161E-03  0.36209229622E-01  0.38879615475E-01  0.51100000000E-03 0.  1.
</event>
<event>
 8    1  0.1143957E+005  0.1043930E+01  0.7957747E-01            NaN
         13   -1    0    0    0    0  0.00000000000E+00  0.00000000000E+00  0.74505805969E-08  0.10566000000E+00  0.10566000000E+00 0. -1.
     999900   -1    0    0    0    0 -0.00000000000E+00 -0.00000000000E+00 -0.74505805969E-08  0.93827000000E+00  0.93827000000E+00 0. -1.
     999902    2    1    2    0    0  0.13051619072E-01 -0.52548948220E-02 -0.19745976101E-01  0.10196841292E+01  0.10193958314E+01 0.  0.
     999903    2    3    3    0    0  0.75951471950E-01 -0.10534433660E+00  0.57027536145E-02  0.13141506763E+00  0.19270268759E-01 0.  0.
         14    1    1    2    0    0 -0.13051619072E-01  0.52548948220E-02  0.19745976101E-01  0.24245870827E-01  0.00000000000E+00 0.  1.
     999901    1    3    3    0    0 -0.62899852878E-01  0.10008944177E+00 -0.25448729715E-01  0.88826906154E+00  0.88000000000E+00 0. -1.
        -11    1    4    4    0    0  0.17903050398E-01 -0.15658221047E-01  0.61823328047E-02  0.24580102925E-01  0.51100000000E-03 0.  1.
         11    1    4    4    0    0  0.58048421551E-01 -0.89686115548E-01 -0.47957919015E-03  0.10683496471E+00  0.51100000000E-03 0. -1.
</event>
<event>
 8    1  0.1143957E+005  0.1043930E+01  0.7957747E-01            NaN
         13   -1    0    0    0    0  0.00000000000E+00  0.00000000000E+00  0.74505805969E-08  0.10566000000E+00  0.10566000000E+00 0.  1.
     999900   -1    0    0    0    0 -0.00000000000E+00 -0.00000000000E+00 -0.74505805969E-08  0.93827000000E+00  0.93827000000E+00 0. -1.
     999902    2    1    2    0    0 -0.12825384640E-01 -0.48180626966E-02 -0.19641053625E-01  0.10199826576E+01  0.10197014988E+01 0.  0.
     999903    2    3    3    0    0  0.26847022172E-01 -0.38013106495E-01  0.11759056465E+00  0.12784571306E+00  0.18741040220E-01 0.  0.
         14    1    1    2    0    0  0.12825384640E-01  0.48180626966E-02  0.19641053625E-01  0.23947342375E-01  0.00000000000E+00 0.  1.
     999901    1    3    3    0    0 -0.39672406811E-01  0.33195043798E-01 -0.13723161828E+00  0.89213694456E+00  0.88000000000E+00 0. -1.
        -11    1    4    4    0    0  0.27718660331E-02 -0.11458189638E-01  0.49594741630E-01  0.50979141513E-01  0.51100000000E-03 0. -1.
         11    1    4    4    0    0  0.24075156138E-01 -0.26554916856E-01  0.67995823024E-01  0.76866571551E-01  0.51100000000E-03 0.  1.
</event>
<event>
 8    1  0.1143957E+005  0.1043930E+01  0.7957747E-01            NaN
         13   -1    0    0    0    0  0.00000000000E+00  0.00000000000E+00  0.74505805969E-08  0.10566000000E+00  0.10566000000E+00 0.  1.
     999900   -1    0    0    0    0 -0.00000000000E+00 -0.00000000000E+00 -0.74505805969E-08  0.93827000000E+00  0.93827000000E+00 0. -1.
     999902    2    1    2    0    0 -0.10258120311E-02  0.16157998661E-01  0.15398172916E-01  0.10215863893E+01  0.10213420161E+01 0.  0.
     999903    2    3    3    0    0  0.76245878787E-01  0.16079798054E-01 -0.10304500311E+00  0.13029535585E+00  0.16929653056E-01 0.  0.
         14    1    1    2    0    0  0.10258120311E-02 -0.16157998661E-01 -0.15398172916E-01  0.22343610724E-01  0.00000000000E+00 0. -1.
     999901    1    3    3    0    0 -0.77271690818E-01  0.78200607335E-04  0.11844317603E+00  0.89129103343E+00  0.88000000000E+00 0.  1.
        -11    1    4    4    0    0  0.34883040661E-01  0.15665068060E-01 -0.45785026807E-01  0.59655265348E-01  0.51100000000E-03 0.  1.
         11    1    4    4    0    0  0.41362838126E-01  0.41472999405E-03 -0.57259976304E-01  0.70640090502E-01  0.51100000000E-03 0. -1.
</event>
<event>
 8    1  0.1143957E+005  0.1043930E+01  0.7957747E-01            NaN
         13   -1    0    0    0    0  0.00000000000E+00  0.00000000000E+00  0.74505805969E-08  0.10566000000E+00  0.10566000000E+00 0. -1.
     999900   -1    0    0    0    0 -0.00000000000E+00 -0.00000000000E+00 -0.74505805969E-08  0.93827000000E+00  0.93827000000E+00 0. -1.
     999902    2    1    2    0    0 -0.10204484800E-01  0.35983515588E-02 -0.21129273994E-01  0.10201913003E+01  0.10199150765E+01 0.  0.
     999903    2    3    3    0    0 -0.23410832201E-02 -0.62234176107E-01  0.11005130123E+00  0.12800068272E+00  0.19857304124E-01 0.  0.
         14    1    1    2    0    0  0.10204484800E-01 -0.35983515588E-02  0.21129273994E-01  0.23738699701E-01  0.00000000000E+00 0. -1.
     999901    1    3    3    0    0 -0.78634015798E-02  0.65832527666E-01 -0.13118057523E+00  0.89219061758E+00  0.88000000000E+00 0. -1.
        -11    1    4    4    0    0 -0.96089837853E-03 -0.54333018345E-01  0.78728086329E-01  0.95662808375E-01  0.51100000000E-03 0. -1.
         11    1    4    4    0    0 -0.13801848416E-02 -0.79011577625E-02  0.31323214903E-01  0.32337874343E-01  0.51100000000E-03 0.  1.
</event>
<event>
 8    1  0.1143957E+005  0.1043930E+01  0.7957747E-01            NaN
         13   -1    0    0    0    0  0.00000000000E+00  0.00000000000E+00  0.74505805969E-08  0.10566000000E+00  0.10566000000E+00 0. -1.
     999900   -1    0    0    0    0 -0.00000000000E+00 -0.00000000000E+00 -0.74505805969E-08  0.93827000000E+00  0.93827000000E+00 0. -1.
     999902    2    1    2    0    0  0.30943518795E-02 -0.18948284596E-02  0.22710335812E-01  0.10209316361E+01  0.10206725630E+01 0.  0.
     999903    2    3    3    0    0 -0.91396886231E-01  0.68633149364E-01  0.63255895739E-01  0.13214216039E+00  0.19908345063E-01 0.  0.
         14    1    1    2    0    0 -0.30943518795E-02  0.18948284596E-02 -0.22710335812E-01  0.22998363879E-01  0.00000000000E+00 0.  1.
     999901    1    3    3    0    0  0.94491238110E-01 -0.70527977823E-01 -0.40545559928E-01  0.88878947573E+00  0.88000000000E+00 0. -1.
        -11    1    4    4    0    0 -0.73009573888E-01  0.53803199045E-01  0.40458772681E-01  0.99309392882E-01  0.51100000000E-03 0. -1.
         11    1    4    4    0    0 -0.18387312343E-01  0.14829950319E-01  0.22797123058E-01  0.32832767510E-01  0.51100000000E-03 0.  1.
</event>
<event>
 8    1  0.1143957E+005  0.1043930E+01  0.7957747E-01            NaN
         13   -1    0    0    0    0  0.00000000000E+00  0.00000000000E+00  0.74505805969E-08  0.10566000000E+00  0.10566000000E+00 0. -1.
     999900   -1    0    0    0    0 -0.00000000000E+00 -0.00000000000E+00 -0.74505805969E-08  0.93827000000E+00  0.93827000000E+00 0.  1.
     999902    2    1    2    0    0 -0.67246264813E-04 -0.85641339265E-02 -0.18599203422E-01  0.10234536898E+01  0.10232488338E+01 0.  0.
     999903    2    3    3    0    0 -0.59909275324E-01 -0.83218324815E-01 -0.86908454303E-01  0.13563587604E+00  0.18154905226E-01 0.  0.
         14    1    1    2    0    0  0.67246264813E-04  0.85641339265E-02  0.18599203422E-01  0.20476310212E-01  0.00000000000E+00 0. -1.
     999901    1    3    3    0    0  0.59842029059E-01  0.74654190888E-01  0.68309250882E-01  0.88781781375E+00  0.88000000000E+00 0. -1.
        -11    1    4    4    0    0 -0.30053520938E-01 -0.41620793320E-01 -0.55313748344E-01  0.75467717828E-01  0.51100000000E-03 0.  1.
         11    1    4    4    0    0 -0.29855754386E-01 -0.41597531495E-01 -0.31594705960E-01  0.60168158208E-01  0.51100000000E-03 0. -1.
</event>
<event>
 8    1  0.1143957E+005  0.1043930E+01  0.7957747E-01            NaN
         13   -1    0    0    0    0  0.00000000000E+00  0.00000000000E+00  0.74505805969E-08  0.10566000000E+00  0.10566000000E+00 0.  1.
     999900   -1    0    0    0    0 -0.00000000000E+00 -0.00000000000E+00 -0.74505805969E-08  0.93827000000E+00  0.93827000000E+00 0. -1.
     999902    2    1    2    0    0 -0.12373726822E-01  0.54747956399E-02  0.19087161739E-01  0.10205333711E+01  0.10202651416E+01 0.  0.
     999903    2    3    3    0    0 -0.36398632109E-01 -0.11004953526E+00  0.58882006205E-01  0.13176641805E+00  0.21436829095E-01 0.  0.
         14    1    1    2    0    0  0.12373726822E-01 -0.54747956399E-02 -0.19087161739E-01  0.23396628946E-01  0.00000000000E+00 0. -1.
     999901    1    3    3    0    0  0.24024905287E-01  0.11552433090E+00 -0.39794844466E-01  0.88876695300E+00  0.88000000000E+00 0. -1.
        -11    1    4    4    0    0 -0.57594334719E-02 -0.29678861498E-01  0.25312802319E-01  0.39433551399E-01  0.51100000000E-03 0. -1.
         11    1    4    4    0    0 -0.30639198637E-01 -0.80370673760E-01  0.33569203886E-01  0.92332866653E-01  0.51100000000E-03 0.  1.
</event>
<event>
 8    1  0.1143957E+005  0.1043930E+01  0.7957747E-01            NaN
         13   -1    0    0    0    0  0.00000000000E+00  0.00000000000E+00  0.74505805969E-08  0.10566000000E+00  0.10566000000E+00 0.  1.
     999900   -1    0    0    0    0 -0.00000000000E+00 -0.00000000000E+00 -0.74505805969E-08  0.93827000000E+00  0.93827000000E+00 0.  1.
     999902    2    1    2    0    0 -0.17062747300E-01  0.11192964199E-01  0.99801695213E-02  0.10212138477E+01  0.10209611643E+01 0.  0.
     999903    2    3    3    0    0  0.10812186936E+00 -0.18610534046E-01  0.66582121489E-01  0.13005549041E+00  0.21084616934E-01 0.  0.
         14    1    1    2    0    0  0.17062747300E-01 -0.11192964199E-01 -0.99801695213E-02  0.22716152329E-01  0.00000000000E+00 0. -1.
     999901    1    3    3    0    0 -0.12518461666E+00  0.29803498245E-01 -0.56601951968E-01  0.89115835726E+00  0.88000000000E+00 0.  1.
        -11    1    4    4    0    0  0.52072221409E-01 -0.75324514541E-02  0.19830375444E-01  0.56229520527E-01  0.51100000000E-03 0. -1.
         11    1    4    4    0    0  0.56049647951E-01 -0.11078082592E-01  0.46751746045E-01  0.73825969879E-01  0.51100000000E-03 0.  1.
</event>
<event>
 8    1  0.1143957E+005  0.1043930E+01  0.7957747E-01            NaN
         13   -1    0    0    0    0  0.00000000000E+00  0.00000000000E+00  0.74505805969E-08  0.10566000000E+00  0.10566000000E+00 0. -1.
     999900   -1    0    0    0    0 -0.00000000000E+00 -0.00000000000E+00 -0.74505805969E-08  0.93827000000E+00  0.93827000000E+00 0.  1.
     999902    2    1    2    0    0  0.13821012479E-01  0.16009376908E-01 -0.43245818382E-02  0.10223424447E+01  0.10221145003E+01 0.  0.
     999903    2    3    3    0    0  0.11520838431E+00 -0.63246266836E-01 -0.34028577982E-02  0.13298216575E+00  0.19990369736E-01 0.  0.
         14    1    1    2    0    0 -0.13821012479E-01 -0.16009376908E-01  0.43245818382E-02  0.21587555281E-01  0.00000000000E+00 0. -1.
     999901    1    3    3    0    0 -0.10138737183E+00  0.79255643745E-01 -0.92172404003E-03  0.88936027897E+00  0.88000000000E+00 0.  1.
        -11    1    4    4    0    0  0.34137822309E-01 -0.29366428042E-01  0.35664430414E-03  0.45035167637E-01  0.51100000000E-03 0. -1.
         11    1    4    4    0    0  0.81070562002E-01 -0.33879838794E-01 -0.37595021023E-02  0.87946998113E-01  0.51100000000E-03 0.  1.
</event>
<event>
 8    1  0.1143957E+005  0.1043930E+01  0.7957747E-01            NaN
         13   -1    0    0    0    0  0.00000000000E+00  0.00000000000E+00  0.74505805969E-08  0.10566000000E+00  0.10566000000E+00 0. -1.
     999900   -1    0    0    0    0 -0.00000000000E+00 -0.00000000000E+00 -0.74505805969E-08  0.93827000000E+00  0.93827000000E+00 0.  1.
     999902    2    1    2    0    0 -0.15728886357E-01 -0.13416713129E-01  0.11487066357E-01  0.10202792336E+01  0.10200050764E+01 0.  0.
     999903    2    3    3    0    0 -0.51139822465E-01  0.11489794066E+00 -0.23714632718E-01  0.12957291591E+00  0.20246938595E-01 0.  0.
         14    1    1    2    0    0  0.15728886357E-01  0.13416713129E-01 -0.11487066357E-01  0.23650766387E-01  0.00000000000E+00 0. -1.
     999901    1    3    3    0    0  0.35410936108E-01 -0.12831465379E+00  0.35201699074E-01  0.89070631770E+00  0.88000000000E+00 0. -1.
        -11    1    4    4    0    0 -0.11247469631E-01  0.33657013427E-01  0.18034982700E-02  0.35536092258E-01  0.51100000000E-03 0.  1.
         11    1    4    4    0    0 -0.39892352834E-01  0.81240927237E-01 -0.25518130988E-01  0.94036823655E-01  0.51100000000E-03 0. -1.
</event>
<event>
 8    1  0.1143957E+005  0.1043930E+01  0.7957747E-01            NaN
         13   -1    0    0    0    0  0.00000000000E+00  0.00000000000E+00  0.74505805969E-08  0.10566000000E+00  0.10566000000E+00 0. -1.
     999900   -1    0    0    0    0 -0.00000000000E+00 -0.00000000000E+00 -0.74505805969E-08  0.93827000000E+00  0.93827000000E+00 0. -1.
     999902    2    1    2    0    0  0.14848650734E-01  0.19930931981E-01  0.84602505751E-03  0.10190615413E+01  0.10187580600E+01 0.  0.
     999903    2    3    3    0    0 -0.14840854131E-01  0.11646521030E+00 -0.55889312605E-01  0.13146972516E+00  0.19397866059E-01 0.  0.
         14    1    1    2    0    0 -0.14848650734E-01 -0.19930931981E-01 -0.84602505751E-03  0.24868458671E-01  0.00000000000E+00 0. -1.
     999901    1    3    3    0    0  0.29689504865E-01 -0.96534278323E-01  0.56735337662E-01  0.88759181617E+00  0.88000000000E+00 0.  1.
        -11    1    4    4    0    0 -0.97327615121E-02  0.48151365703E-01 -0.33239182240E-01  0.59315976117E-01  0.51100000000E-03 0. -1.
         11    1    4    4    0    0 -0.51080926186E-02  0.68313844602E-01 -0.22650130364E-01  0.72153749043E-01  0.51100000000E-03 0.  1.
</event>
<event>
 8    1  0.1143957E+005  0.1043930E+01  0.7957747E-01            NaN
         13   -1    0    0    0    0  0.00000000000E+00  0.00000000000E+00  0.74505805969E-08  0.10566000000E+00  0.10566000000E+00 0. -1.
     999900   -1    0    0    0    0 -0.00000000000E+00 -0.00000000000E+00 -0.74505805969E-08  0.93827000000E+00  0.93827000000E+00 0. -1.
     999902    2    1    2    0    0  0.15502824122E-02 -0.95696508900E-02 -0.20535719328E-01  0.10212210290E+01  0.10209685072E+01 0.  0.
     999903    2    3    3    0    0  0.87055811821E-01 -0.87559169591E-01  0.40618686684E-01  0.13153938825E+00  0.20184409871E-01 0.  0.
         14    1    1    2    0    0 -0.15502824122E-02  0.95696508900E-02  0.20535719328E-01  0.22708970959E-01  0.00000000000E+00 0. -1.
     999901    1    3    3    0    0 -0.85505529409E-01  0.77989518701E-01 -0.61154406012E-01  0.88968164079E+00  0.88000000000E+00 0. -1.
        -11    1    4    4    0    0  0.83776297981E-01 -0.87909818229E-01  0.41020357127E-01  0.12817774793E+00  0.51100000000E-03 0.  1.
         11    1    4    4    0    0  0.32795138402E-02  0.35064863832E-03 -0.40167044284E-03  0.33616403199E-02  0.51100000000E-03 0. -1.
</event>
<event>
 8    1  0.1143957E+005  0.1043930E+01  0.7957747E-01            NaN
         13   -1    0    0    0    0  0.00000000000E+00  0.00000000000E+00  0.74505805969E-08  0.10566000000E+00  0.10566000000E+00 0. -1.
     999900   -1    0    0    0    0 -0.00000000000E+00 -0.00000000000E+00 -0.74505805969E-08  0.93827000000E+00  0.93827000000E+00 0. -1.
     999902    2    1    2    0    0 -0.14257141943E-01 -0.12343999050E-02  0.18819191977E-01  0.10202878380E+01  0.10200138825E+01 0.  0.
     999903    2    3    3    0    0  0.71347594123E-01 -0.86639847982E-01  0.62141646277E-01  0.13096275878E+00  0.26319527739E-01 0.  0.
         14    1    1    2    0    0  0.14257141943E-01  0.12343999050E-02 -0.18819191977E-01  0.23642162045E-01  0.00000000000E+00 0.  1.
     999901    1    3    3    0    0 -0.85604736066E-01  0.85405448077E-01 -0.43322454300E-01  0.88932507917E+00  0.88000000000E+00 0.  1.
        -11    1    4    4    0    0  0.35478764442E-01 -0.34760683274E-01  0.13973807328E-01  0.51600157366E-01  0.51100000000E-03 0. -1.
         11    1    4    4    0    0  0.35868829682E-01 -0.51879164707E-01  0.48167838949E-01  0.79362601416E-01  0.51100000000E-03 0.  1.
</event>
<event>
 8    1  0.1143957E+005  0.1043930E+01  0.7957747E-01            NaN
         13   -1    0    0    0    0  0.00000000000E+00  0.00000000000E+00  0.74505805969E-08  0.10566000000E+00  0.10566000000E+00 0.  1.
     999900   -1    0    0    0    0 -0.00000000000E+00 -0.00000000000E+00 -0.74505805969E-08  0.93827000000E+00  0.93827000000E+00 0.  1.
     999902    2    1    2    0    0 -0.78636543866E-02 -0.22798519677E-01  0.13277043307E-02  0.10197768975E+01  0.10194908280E+01 0.  0.
     999903    2    3    3    0    0  0.57130901665E-01 -0.11435479044E+00  0.22151431077E-01  0.13239847171E+00  0.26414227063E-01 0.  0.
         14    1    1    2    0    0  0.78636543866E-02  0.22798519677E-01 -0.13277043307E-02  0.24153102463E-01  0.00000000000E+00 0.  1.
     999901    1    3    3    0    0 -0.64994556051E-01  0.91556270758E-01 -0.20823726746E-01  0.88737842583E+00  0.88000000000E+00 0. -1.
        -11    1    4    4    0    0  0.48300857451E-01 -0.97108456653E-01  0.87022969348E-02  0.10880724368E+00  0.51100000000E-03 0.  1.
         11    1    4    4    0    0  0.88300442132E-02 -0.17246333782E-01  0.13449134142E-01  0.23591228029E-01  0.51100000000E-03 0. -1.
</event>
<event>
 8    1  0.1143957E+005  0.1043930E+01  0.7957747E-01            NaN
         13   -1    0    0    0    0  0.00000000000E+00  0.00000000000E+00  0.74505805969E-08  0.10566000000E+00  0.10566000000E+00 0. -1.
     999900   -1    0    0    0    0 -0.00000000000E+00 -0.00000000000E+00 -0.74505805969E-08  0.93827000000E+00  0.93827000000E+00 0. -1.
     999902    2    1    2    0    0 -0.15326418513E-01 -0.15604623667E-01  0.82051755329E-02  0.10205691719E+01  0.10203017722E+01 0.  0.
     999903    2    3    3    0    0 -0.12469363694E-01  0.98303413192E-01  0.81629059990E-01  0.13019044886E+00  0.21614889860E-01 0.  0.
         14    1    1    2    0    0  0.15326418513E-01  0.15604623667E-01 -0.82051755329E-02  0.23360828105E-01  0.00000000000E+00 0. -1.
     999901    1    3    3    0    0 -0.28570548181E-02 -0.11390803686E+00 -0.73423884457E-01  0.89037872303E+00  0.88000000000E+00 0. -1.
        -11    1    4    4    0    0  0.66823336524E-03  0.18685365773E-01  0.26596946184E-01  0.32515351716E-01  0.51100000000E-03 0.  1.
         11    1    4    4    0    0 -0.13137597060E-01  0.79618047419E-01  0.55032113806E-01  0.97675097145E-01  0.51100000000E-03 0. -1.
</event>
<event>
 8    1  0.1143957E+005  0.1043930E+01  0.7957747E-01            NaN
         13   -1    0    0    0    0  0.00000000000E+00  0.00000000000E+00  0.74505805969E-08  0.10566000000E+00  0.10566000000E+00 0.  1.
     999900   -1    0    0    0    0 -0.00000000000E+00 -0.00000000000E+00 -0.74505805969E-08  0.93827000000E+00  0.93827000000E+00 0.  1.
     999902    2    1    2    0    0  0.33794871858E-02 -0.60346635400E-02  0.23012828582E-01  0.10199002606E+01  0.10196171405E+01 0.  0.
     999903    2    3    3    0    0  0.10124417546E+00  0.27720197318E-01  0.77723522624E-01  0.13214458028E+00  0.20061199470E-01 0.  0.
         14    1    1    2    0    0 -0.33794871858E-02  0.60346635400E-02 -0.23012828582E-01  0.24029739429E-01  0.00000000000E+00 0. -1.
     999901    1    3    3    0    0 -0.97864688278E-01 -0.33754860858E-01 -0.54710694042E-01  0.88775568029E+00  0.88000000000E+00 0.  1.
        -11    1    4    4    0    0  0.73221375098E-01  0.19781214573E-01  0.66681587138E-01  0.10099188782E+00  0.51100000000E-03 0. -1.
         11    1    4    4    0    0  0.28022800366E-01  0.79389827444E-02  0.11041935486E-01  0.31152692462E-01  0.51100000000E-03 0.  1.
</event>
<event>
 8    1  0.1143957E+005  0.1043930E+01  0.7957747E-01            NaN
         13   -1    0    0    0    0  0.00000000000E+00  0.00000000000E+00  0.74505805969E-08  0.10566000000E+00  0.10566000000E+00 0.  1.
     999900   -1    0    0    0    0 -0.00000000000E+00 -0.00000000000E+00 -0.74505805969E-08  0.93827000000E+00  0.93827000000E+00 0. -1.
     999902    2    1    2    0    0  0.20827376317E-01 -0.12787947138E-01  0.24243510241E-01  0.10095053143E+01  0.10089181932E+01 0.  0.
     999903    2    3    3    0    0  0.11445869126E+00 -0.36931393857E-01 -0.14461877727E-01  0.12336320594E+00  0.23336983855E-01 0.  0.
         14    1    1    2    0    0 -0.20827376317E-01  0.12787947138E-01 -0.24243510241E-01  0.34424685693E-01  0.00000000000E+00 0. -1.
     999901    1    3    3    0    0 -0.93631314945E-01  0.24143446719E-01  0.38705387968E-01  0.88614210836E+00  0.88000000000E+00 0. -1.
        -11    1    4    4    0    0  0.73618794510E-01 -0.12418657354E-01 -0.12407277072E-01  0.75684553251E-01  0.51100000000E-03 0.  1.
         11    1    4    4    0    0  0.40839896753E-01 -0.24512736503E-01 -0.20546006553E-02  0.47678652692E-01  0.51100000000E-03 0. -1.
</event>
<event>
 8    1  0.1143957E+005  0.1043930E+01  0.7957747E-01            NaN
         13   -1    0    0    0    0  0.00000000000E+00  0.00000000000E+00  0.74505805969E-08  0.10566000000E+00  0.10566000000E+00 0.  1.
     999900   -1    0    0    0    0 -0.00000000000E+00 -0.00000000000E+00 -0.74505805969E-08  0.93827000000E+00  0.93827000000E+00 0.  1.
     999902    2    1    2    0    0 -0.41181223045E-02  0.78252988633E-02  0.22044364365E-01  0.10201781951E+01  0.10199016627E+01 0.  0.
     999903    2    3    3    0    0  0.72270971503E-01  0.71149696822E-01 -0.77433321234E-01  0.12903225706E+00  0.19184145671E-01 0.  0.
         14    1    1    2    0    0  0.41181223045E-02 -0.78252988633E-02 -0.22044364365E-01  0.23751804855E-01  0.00000000000E+00 0. -1.
     999901    1    3    3    0    0 -0.76389093808E-01 -0.63324397959E-01  0.99477685600E-01  0.89114593808E+00  0.88000000000E+00 0. -1.
        -11    1    4    4    0    0  0.23680225349E-01  0.31493504415E-01 -0.20962160455E-01  0.44634820318E-01  0.51100000000E-03 0. -1.
         11    1    4    4    0    0  0.48590746154E-01  0.39656192407E-01 -0.56471160779E-01  0.84397436743E-01  0.51100000000E-03 0.  1.
</event>
<event>
 8    1  0.1143957E+005  0.1043930E+01  0.7957747E-01            NaN
         13   -1    0    0    0    0  0.00000000000E+00  0.00000000000E+00  0.74505805969E-08  0.10566000000E+00  0.10566000000E+00 0.  1.
     999900   -1    0    0    0    0 -0.00000000000E+00 -0.00000000000E+00 -0.74505805969E-08  0.93827000000E+00  0.93827000000E+00 0.  1.
     999902    2    1    2    0    0 -0.16972092118E-01 -0.13544108517E-01 -0.74202692063E-02  0.10209832098E+01  0.10207253105E+01 0.  0.
     999903    2    3    3    0    0  0.50991227441E-01 -0.63176911052E-01  0.10007252504E+00  0.13045688860E+00  0.20323930453E-01 0.  0.
         14    1    1    2    0    0  0.16972092118E-01  0.13544108517E-01  0.74202692063E-02  0.22946790221E-01  0.00000000000E+00 0.  1.
     999901    1    3    3    0    0 -0.67963319559E-01  0.49632802535E-01 -0.10749279425E+00  0.89052632118E+00  0.88000000000E+00 0.  1.
        -11    1    4    4    0    0  0.14437852930E-01 -0.25669366594E-01  0.49795656218E-01  0.57855306392E-01  0.51100000000E-03 0. -1.
         11    1    4    4    0    0  0.36553374512E-01 -0.37507544458E-01  0.50276868825E-01  0.72601582210E-01  0.51100000000E-03 0.  1.
</event>
<event>
 8    1  0.1143957E+005  0.1043930E+01  0.7957747E-01            NaN
         13   -1    0    0    0    0  0.00000000000E+00  0.00000000000E+00  0.74505805969E-08  0.10566000000E+00  0.10566000000E+00 0. -1.
     999900   -1    0    0    0    0 -0.00000000000E+00 -0.00000000000E+00 -0.74505805969E-08  0.93827000000E+00  0.93827000000E+00 0.  1.
     999902    2    1    2    0    0  0.10523425475E-01  0.80661261271E-02 -0.21391596878E-01  0.10187624556E+01  0.10184515382E+01 0.  0.
     999903    2    3    3    0    0 -0.10933186138E+00  0.22597556914E-01  0.57045125511E-01  0.12706252193E+00  0.20655087604E-01 0.  0.
         14    1    1    2    0    0 -0.10523425475E-01 -0.80661261271E-02  0.21391596878E-01  0.25167544406E-01  0.00000000000E+00 0. -1.
     999901    1    3    3    0    0  0.11985528686E+00 -0.14531430787E-01 -0.78436722389E-01  0.89169993366E+00  0.88000000000E+00 0.  1.
        -11    1    4    4    0    0 -0.45302250174E-01  0.17367804578E-01  0.17272068107E-01  0.51502620947E-01  0.51100000000E-03 0. -1.
         11    1    4    4    0    0 -0.64029611209E-01  0.52297523361E-02  0.39773057404E-01  0.75559900988E-01  0.51100000000E-03 0.  1.
</event>
<event>
 8    1  0.1143957E+005  0.1043930E+01  0.7957747E-01            NaN
         13   -1    0    0    0    0  0.00000000000E+00  0.00000000000E+00  0.74505805969E-08  0.10566000000E+00  0.10566000000E+00 0.  1.
     999900   -1    0    0    0    0 -0.00000000000E+00 -0.00000000000E+00 -0.74505805969E-08  0.93827000000E+00  0.93827000000E+00 0. -1.
     999902    2    1    2    0    0 -0.18286920965E-01 -0.64532739800E-02 -0.15059297988E-01  0.10193772266E+01  0.10190814941E+01 0.  0.
     999903    2    3    3    0    0  0.12439619350E+00  0.13102172354E-01 -0.11937045654E-01  0.12766503368E+00  0.22578482830E-01 0.  0.
         14    1    1    2    0    0  0.18286920965E-01  0.64532739800E-02  0.15059297988E-01  0.24552773353E-01  0.00000000000E+00 0.  1.
     999901    1    3    3    0    0 -0.14268311446E+00 -0.19555446334E-01 -0.31222523344E-02  0.89171219297E+00  0.88000000000E+00 0.  1.
        -11    1    4    4    0    0  0.94209617221E-01  0.80350277279E-03 -0.12634112788E-01  0.95057769385E-01  0.51100000000E-03 0. -1.
         11    1    4    4    0    0  0.30186576278E-01  0.12298669581E-01  0.69706713424E-03  0.32607264290E-01  0.51100000000E-03 0.  1.
</event>
<event>
 7    1  0.1223452E+005  0.1043930E+01  0.7957747E-01            NaN
         13   -1    0    0    0    0  0.00000000000E+00  0.00000000000E+00  0.74505805969E-08  0.10566000000E+00  0.10566000000E+00 0.  1.
     999900   -1    0    0    0    0 -0.00000000000E+00 -0.00000000000E+00 -0.74505805969E-08  0.93827000000E+00  0.93827000000E+00 0. -1.
     999903    2    1    2    0    0 -0.26741509741E-01 -0.33695851768E-01  0.77385743885E-01  0.91296113223E-01  0.22268995563E-01 0.  0.
         14    1    1    2    0    0 -0.17377247865E-02  0.14884652948E-01 -0.70366223135E-01  0.71944269675E-01  0.00000000000E+00 0. -1.
     999901    1    1    2    0    0  0.28479234528E-01  0.18811198820E-01 -0.70195207500E-02  0.88068961710E+00  0.88000000000E+00 0. -1.
        -11    1    3    3    0    0  0.14215975541E-03 -0.13507038177E-01  0.32613411411E-01  0.35303767710E-01  0.51100000000E-03 0.  1.
         11    1    3    3    0    0 -0.26883669496E-01 -0.20188813591E-01  0.44772332474E-01  0.55992345512E-01  0.51100000000E-03 0. -1.
</event>
<event>
 8    1  0.1143957E+005  0.1043930E+01  0.7957747E-01            NaN
         13   -1    0    0    0    0  0.00000000000E+00  0.00000000000E+00  0.74505805969E-08  0.10566000000E+00  0.10566000000E+00 0.  1.
     999900   -1    0    0    0    0 -0.00000000000E+00 -0.00000000000E+00 -0.74505805969E-08  0.93827000000E+00  0.93827000000E+00 0. -1.
     999902    2    1    2    0    0 -0.51569988299E-02  0.29790327080E-03  0.23113111793E-01  0.10202466869E+01  0.10199717657E+01 0.  0.
     999903    2    3    3    0    0  0.47568892682E-01 -0.96674985547E-01  0.73554117499E-01  0.13191788748E+00  0.19577243271E-01 0.  0.
         14    1    1    2    0    0  0.51569988299E-02 -0.29790327080E-03 -0.23113111793E-01  0.23683313114E-01  0.00000000000E+00 0. -1.
     999901    1    3    3    0    0 -0.52725891512E-01  0.96972888818E-01 -0.50441005706E-01  0.88832879941E+00  0.88000000000E+00 0. -1.
        -11    1    4    4    0    0  0.26961290317E-01 -0.34066937242E-01  0.25907507641E-01  0.50585842503E-01  0.51100000000E-03 0.  1.
         11    1    4    4    0    0  0.20607602365E-01 -0.62608048305E-01  0.47646609859E-01  0.81332044975E-01  0.51100000000E-03 0. -1.
</event>
<event>
 8    1  0.1143957E+005  0.1043930E+01  0.7957747E-01            NaN
         13   -1    0    0    0    0  0.00000000000E+00  0.00000000000E+00  0.74505805969E-08  0.10566000000E+00  0.10566000000E+00 0. -1.
     999900   -1    0    0    0    0 -0.00000000000E+00 -0.00000000000E+00 -0.74505805969E-08  0.93827000000E+00  0.93827000000E+00 0.  1.
     999902    2    1    2    0    0 -0.14231403755E-01 -0.20662661951E-02  0.19053553929E-01  0.10200586736E+01  0.10197793179E+01 0.  0.
     999903    2    3    3    0    0  0.74383666521E-01 -0.10201616377E+00  0.23137987720E-01  0.12996918631E+00  0.20405768797E-01 0.  0.
         14    1    1    2    0    0  0.14231403755E-01  0.20662661951E-02 -0.19053553929E-01  0.23871326443E-01  0.00000000000E+00 0.  1.
     999901    1    3    3    0    0 -0.88615070275E-01  0.99949897572E-01 -0.40844337903E-02  0.89008948724E+00  0.88000000000E+00 0.  1.
        -11    1    4    4    0    0  0.51192395363E-01 -0.66236180312E-01  0.57281437820E-02  0.83910462265E-01  0.51100000000E-03 0.  1.
         11    1    4    4    0    0  0.23191271158E-01 -0.35779983454E-01  0.17409843938E-01  0.46058724047E-01  0.51100000000E-03 0. -1.
</event>
<event>
 8    1  0.1143957E+005  0.1043930E+01  0.7957747E-01            NaN
         13   -1    0    0    0    0  0.00000000000E+00  0.00000000000E+00  0.74505805969E-08  0.10566000000E+00  0.10566000000E+00 0.  1.
     999900   -1    0    0    0    0 -0.00000000000E+00 -0.00000000000E+00 -0.74505805969E-08  0.93827000000E+00  0.93827000000E+00 0. -1.
     999902    2    1    2    0    0  0.53938322744E-02  0.53689870329E-02  0.23714486901E-01  0.10190242509E+01  0.10187198475E+01 0.  0.
     999903    2    3    3    0    0  0.48557628980E-01 -0.11749132550E+00 -0.73968014184E-02  0.12889747230E+00  0.19944693390E-01 0.  0.
         14    1    1    2    0    0 -0.53938322744E-02 -0.53689870329E-02 -0.23714486901E-01  0.24905749083E-01  0.00000000000E+00 0. -1.
     999901    1    3    3    0    0 -0.43163796705E-01  0.12286031254E+00  0.31111288320E-01  0.89012677861E+00  0.88000000000E+00 0.  1.
        -11    1    4    4    0    0  0.23483365888E-01 -0.81500589181E-01 -0.49764335754E-02  0.84963760053E-01  0.51100000000E-03 0. -1.
         11    1    4    4    0    0  0.25074263092E-01 -0.35990736324E-01 -0.24203678430E-02  0.43933712252E-01  0.51100000000E-03 0.  1.
</event>
<event>
 8    1  0.1143957E+005  0.1043930E+01  0.7957747E-01            NaN
         13   -1    0    0    0    0  0.00000000000E+00  0.00000000000E+00  0.74505805969E-08  0.10566000000E+00  0.10566000000E+00 0.  1.
     999900   -1    0    0    0    0 -0.00000000000E+00 -0.00000000000E+00 -0.74505805969E-08  0.93827000000E+00  0.93827000000E+00 0. -1.
     999902    2    1    2    0    0 -0.16921844463E-01 -0.92550187010E-02  0.14530399072E-01  0.10197817767E+01  0.10194958241E+01 0.  0.
     999903    2    3    3    0    0  0.10155337196E+00  0.70831852734E-01  0.26186124508E-01  0.12816182413E+00  0.20236139195E-01 0.  0.
         14    1    1    2    0    0  0.16921844463E-01  0.92550187010E-02 -0.14530399072E-01  0.24148223297E-01  0.00000000000E+00 0.  1.
     999901    1    3    3    0    0 -0.11847521643E+00 -0.80086871435E-01 -0.11655725436E-01  0.89161995257E+00  0.88000000000E+00 0. -1.
        -11    1    4    4    0    0  0.43003672183E-01  0.28864607361E-01  0.86456142152E-03  0.51802412751E-01  0.51100000000E-03 0. -1.
         11    1    4    4    0    0  0.58549699782E-01  0.41967245373E-01  0.25321563086E-01  0.76359411384E-01  0.51100000000E-03 0.  1.
</event>
<event>
 8    1  0.1143957E+005  0.1043930E+01  0.7957747E-01            NaN
         13   -1    0    0    0    0  0.00000000000E+00  0.00000000000E+00  0.74505805969E-08  0.10566000000E+00  0.10566000000E+00 0. -1.
     999900   -1    0    0    0    0 -0.00000000000E+00 -0.00000000000E+00 -0.74505805969E-08  0.93827000000E+00  0.93827000000E+00 0. -1.
     999902    2    1    2    0    0  0.73154319671E-02 -0.22606490673E-01 -0.77351868980E-02  0.10189419612E+01  0.10186355179E+01 0.  0.
     999903    2    3    3    0    0  0.86788494031E-01  0.90721197462E-01  0.13408601126E-01  0.12787171020E+00  0.20218934698E-01 0.  0.
         14    1    1    2    0    0 -0.73154319671E-02  0.22606490673E-01  0.77351868980E-02  0.24988038774E-01  0.00000000000E+00 0.  1.
     999901    1    3    3    0    0 -0.79473062064E-01 -0.11332768813E+00 -0.21143788024E-01  0.89107025103E+00  0.88000000000E+00 0.  1.
        -11    1    4    4    0    0  0.61131069093E-01  0.49732811295E-01  0.83693388350E-02  0.79250659816E-01  0.51100000000E-03 0.  1.
         11    1    4    4    0    0  0.25657424938E-01  0.40988386167E-01  0.50392622914E-02  0.48621050384E-01  0.51100000000E-03 0. -1.
</event>
<event>
 8    1  0.1143957E+005  0.1043930E+01  0.7957747E-01            NaN
         13   -1    0    0    0    0  0.00000000000E+00  0.00000000000E+00  0.74505805969E-08  0.10566000000E+00  0.10566000000E+00 0.  1.
     999900   -1    0    0    0    0 -0.00000000000E+00 -0.00000000000E+00 -0.74505805969E-08  0.93827000000E+00  0.93827000000E+00 0. -1.
     999902    2    1    2    0    0  0.94185211799E-02 -0.45557274675E-02  0.19770192563E-01  0.10215620831E+01  0.10213171720E+01 0.  0.
     999903    2    3    3    0    0 -0.50022143804E-01 -0.81270491887E-01  0.91020537222E-01  0.13336449280E+00  0.19855528762E-01 0.  0.
         14    1    1    2    0    0 -0.94185211799E-02  0.45557274675E-02 -0.19770192563E-01  0.22367916933E-01  0.00000000000E+00 0. -1.
     999901    1    3    3    0    0  0.59440664984E-01  0.76714764419E-01 -0.71250344659E-01  0.88819759026E+00  0.88000000000E+00 0. -1.
        -11    1    4    4    0    0 -0.19488779189E-01 -0.18198546261E-01  0.32687292568E-01  0.42186725598E-01  0.51100000000E-03 0. -1.
         11    1    4    4    0    0 -0.30533364616E-01 -0.63071945626E-01  0.58333244654E-01  0.91177767206E-01  0.51100000000E-03 0.  1.
</event>
<event>
 8    1  0.1143957E+005  0.1043930E+01  0.7957747E-01            NaN
         13   -1    0    0    0    0  0.00000000000E+00  0.00000000000E+00  0.74505805969E-08  0.10566000000E+00  0.10566000000E+00 0.  1.
     999900   -1    0    0    0    0 -0.00000000000E+00 -0.00000000000E+00 -0.74505805969E-08  0.93827000000E+00  0.93827000000E+00 0. -1.
     999902    2    1    2    0    0  0.12987123329E-01 -0.18566205236E-01 -0.28903421468E-02  0.10210887341E+01  0.10208332281E+01 0.  0.
     999903    2    3    3    0    0  0.10421567391E+00  0.48589403141E-01  0.60706749998E-01  0.13155114958E+00  0.19963934375E-01 0.  0.
         14    1    1    2    0    0 -0.12987123329E-01  0.18566205236E-01  0.28903421468E-02  0.22841265879E-01  0.00000000000E+00 0.  1.
     999901    1    3    3    0    0 -0.91228550578E-01 -0.67155608377E-01 -0.63597092145E-01  0.88953758454E+00  0.88000000000E+00 0.  1.
        -11    1    4    4    0    0  0.69597869308E-01  0.38121136044E-01  0.32800317435E-01  0.85867376636E-01  0.51100000000E-03 0. -1.
         11    1    4    4    0    0  0.34617804598E-01  0.10468267097E-01  0.27906432562E-01  0.45683772946E-01  0.51100000000E-03 0.  1.
</event>
<event>
 8    1  0.1143957E+005  0.1043930E+01  0.7957747E-01            NaN
         13   -1    0    0    0    0  0.00000000000E+00  0.00000000000E+00  0.74505805969E-08  0.10566000000E+00  0.10566000000E+00 0.  1.
     999900   -1    0    0    0    0 -0.00000000000E+00 -0.00000000000E+00 -0.74505805969E-08  0.93827000000E+00  0.93827000000E+00 0.  1.
     999902    2    1    2    0    0  0.20423205548E-01  0.63220211147E-02 -0.95371504131E-02  0.10205199057E+01  0.10202513639E+01 0.  0.
     999903    2    3    3    0    0  0.12462014795E+00  0.13646805248E-01 -0.42092425693E-01  0.13374456709E+00  0.19985503674E-01 0.  0.
         14    1    1    2    0    0 -0.20423205548E-01 -0.63220211147E-02  0.95371504131E-02  0.23410094272E-01  0.00000000000E+00 0. -1.
     999901    1    3    3    0    0 -0.10419694240E+00 -0.73247841331E-02  0.32555275280E-01  0.88677533864E+00  0.88000000000E+00 0. -1.
        -11    1    4    4    0    0  0.71249612124E-01  0.10294473270E-01 -0.14011385029E-01  0.73342098683E-01  0.51100000000E-03 0. -1.
         11    1    4    4    0    0  0.53370535824E-01  0.33523319773E-02 -0.28081040664E-01  0.60402468407E-01  0.51100000000E-03 0.  1.
</event>
<event>
 8    1  0.1143957E+005  0.1043930E+01  0.7957747E-01            NaN
         13   -1    0    0    0    0  0.00000000000E+00  0.00000000000E+00  0.74505805969E-08  0.10566000000E+00  0.10566000000E+00 0.  1.
     999900   -1    0    0    0    0 -0.00000000000E+00 -0.00000000000E+00 -0.74505805969E-08  0.93827000000E+00  0.93827000000E+00 0.  1.
     999902    2    1    2    0    0 -0.11944974642E-01  0.17156597431E-01 -0.86972882380E-02  0.10212876928E+01  0.10210366680E+01 0.  0.
     999903    2    3    3    0    0 -0.58391623298E-01  0.49343590098E-01 -0.10859615709E+00  0.13383455165E+00  0.16558693291E-01 0.  0.
         14    1    1    2    0    0  0.11944974642E-01 -0.17156597431E-01  0.86972882380E-02  0.22642307243E-01  0.00000000000E+00 0.  1.
     999901    1    3    3    0    0  0.46446648656E-01 -0.32186992668E-01  0.99898868857E-01  0.88745314111E+00  0.88000000000E+00 0. -1.
        -11    1    4    4    0    0 -0.54078581025E-01  0.41110233874E-01 -0.87490829364E-01  0.11076755210E+00  0.51100000000E-03 0. -1.
         11    1    4    4    0    0 -0.43130422729E-02  0.82333562242E-02 -0.21105327731E-01  0.23066999544E-01  0.51100000000E-03 0.  1.
</event>
<event>
 7    1  0.1143957E+005  0.1043930E+01  0.7957747E-01            NaN
         13   -1    0    0    0    0  0.00000000000E+00  0.00000000000E+00  0.74505805969E-08  0.10566000000E+00  0.10566000000E+00 0.  1.
     999900   -1    0    0    0    0 -0.00000000000E+00 -0.00000000000E+00 -0.74505805969E-08  0.93827000000E+00  0.93827000000E+00 0.  1.
     999903    2    1    2    0    0  0.51993870135E-01 -0.61297803032E-01 -0.64374562044E-01  0.10500747397E+00  0.20535388091E-01 0.  0.
         14    1    1    2    0    0 -0.16898567677E-01  0.77117880501E-02 -0.46103308448E-01  0.49704610594E-01  0.00000000000E+00 0. -1.
     999901    1    1    2    0    0 -0.35095302457E-01  0.53586014982E-01  0.11047787049E+00  0.88921791543E+00  0.88000000000E+00 0. -1.
        -11    1    3    3    0    0  0.28621969796E-01 -0.44955610587E-01 -0.49949633450E-01  0.73044172122E-01  0.51100000000E-03 0.  1.
         11    1    3    3    0    0  0.23371900339E-01 -0.16342192445E-01 -0.14424928594E-01  0.31963301852E-01  0.51100000000E-03 0. -1.
</event>
<event>
 8    1  0.1143957E+005  0.1043930E+01  0.7957747E-01            NaN
         13   -1    0    0    0    0  0.00000000000E+00  0.00000000000E+00  0.74505805969E-08  0.10566000000E+00  0.10566000000E+00 0.  1.
     999900   -1    0    0    0    0 -0.00000000000E+00 -0.00000000000E+00 -0.74505805969E-08  0.93827000000E+00  0.93827000000E+00 0. -1.
     999902    2    1    2    0    0 -0.95359941564E-02 -0.45093492992E-02 -0.66547867504E-02  0.10314578068E+01  0.10313823984E+01 0.  0.
     999903    2    3    3    0    0 -0.14028807851E+00 -0.73234968605E-02  0.51932677013E-03  0.14176376117E+00  0.19034592248E-01 0.  0.
         14    1    1    2    0    0  0.95359941564E-02  0.45093492992E-02  0.66547867504E-02  0.12472193165E-01  0.00000000000E+00 0.  1.
     999901    1    3    3    0    0  0.13075208435E+00  0.28141475613E-02 -0.71741135206E-02  0.88969404567E+00  0.88000000000E+00 0.  1.
        -11    1    4    4    0    0 -0.11723044366E+00 -0.34666004755E-02  0.70221448870E-02  0.11749283332E+00  0.51100000000E-03 0.  1.
         11    1    4    4    0    0 -0.23057634846E-01 -0.38568963850E-02 -0.65028181169E-02  0.24270927853E-01  0.51100000000E-03 0. -1.
</event>
<event>
 8    1  0.1143957E+005  0.1043930E+01  0.7957747E-01            NaN
         13   -1    0    0    0    0  0.00000000000E+00  0.00000000000E+00  0.74505805969E-08  0.10566000000E+00  0.10566000000E+00 0.  1.
     999900   -1    0    0    0    0 -0.00000000000E+00 -0.00000000000E+00 -0.74505805969E-08  0.93827000000E+00  0.93827000000E+00 0. -1.
     999902    2    1    2    0    0  0.84388447539E-02  0.16968490043E-02 -0.21248182865E-01  0.10210044973E+01  0.10207470818E+01 0.  0.
     999903    2    3    3    0    0 -0.50961563663E-01 -0.11847534120E+00 -0.28705216955E-02  0.13066326935E+00  0.20764455663E-01 0.  0.
         14    1    1    2    0    0 -0.84388447539E-02 -0.16968490043E-02  0.21248182865E-01  0.22925502663E-01  0.00000000000E+00 0.  1.
     999901    1    3    3    0    0  0.59400408417E-01  0.12017219021E+00 -0.18377661169E-01  0.89034122798E+00  0.88000000000E+00 0.  1.
        -11    1    4    4    0    0 -0.33898806961E-01 -0.88020720135E-01  0.63997562992E-02  0.94540966190E-01  0.51100000000E-03 0. -1.
         11    1    4    4    0    0 -0.17062756702E-01 -0.30454621067E-01 -0.92702779947E-02  0.36122303162E-01  0.51100000000E-03 0.  1.
</event>
<event>
 8    1  0.1143957E+005  0.1043930E+01  0.7957747E-01            NaN
         13   -1    0    0    0    0  0.00000000000E+00  0.00000000000E+00  0.74505805969E-08  0.10566000000E+00  0.10566000000E+00 0.  1.
     999900   -1    0    0    0    0 -0.00000000000E+00 -0.00000000000E+00 -0.74505805969E-08  0.93827000000E+00  0.93827000000E+00 0. -1.
     999902    2    1    2    0    0  0.66570149164E-02 -0.11484089670E-01 -0.19048679763E-01  0.10207124988E+01  0.10204484077E+01 0.  0.
     999903    2    3    3    0    0  0.36475839662E-01  0.93872949670E-01 -0.82352475102E-01  0.13166995841E+00  0.20308378405E-01 0.  0.
         14    1    1    2    0    0 -0.66570149164E-02  0.11484089670E-01  0.19048679763E-01  0.23217501240E-01  0.00000000000E+00 0.  1.
     999901    1    3    3    0    0 -0.29818824745E-01 -0.10535703934E+00  0.63303795339E-01  0.88904254035E+00  0.88000000000E+00 0. -1.
        -11    1    4    4    0    0 -0.13283336343E-02  0.79804250198E-02 -0.11554283194E-01  0.14114327290E-01  0.51100000000E-03 0.  1.
         11    1    4    4    0    0  0.37804173296E-01  0.85892524650E-01 -0.70798191908E-01  0.11755563112E+00  0.51100000000E-03 0. -1.
</event>
<event>
 8    1  0.1143957E+005  0.1043930E+01  0.7957747E-01            NaN
         13   -1    0    0    0    0  0.00000000000E+00  0.00000000000E+00  0.74505805969E-08  0.10566000000E+00  0.10566000000E+00 0.  1.
     999900   -1    0    0    0    0 -0.00000000000E+00 -0.00000000000E+00 -0.74505805969E-08  0.93827000000E+00  0.93827000000E+00 0.  1.
     999902    2    1    2    0    0 -0.26569917624E-02  0.20866083338E-01  0.94783373262E-03  0.10228740881E+01  0.10226573466E+01 0.  0.
     999903    2    3    3    0    0 -0.10238354564E+00 -0.69233629371E-01  0.41153571777E-01  0.13176250966E+00  0.19800419916E-01 0.  0.
         14    1    1    2    0    0  0.26569917624E-02 -0.20866083338E-01 -0.94783373262E-03  0.21055911946E-01  0.00000000000E+00 0. -1.
     999901    1    3    3    0    0  0.99726553874E-01  0.90099712709E-01 -0.40205738044E-01  0.89111157839E+00  0.88000000000E+00 0.  1.
        -11    1    4    4    0    0 -0.71204607103E-01 -0.42632792091E-01  0.35952672482E-01  0.90446154223E-01  0.51100000000E-03 0. -1.
         11    1    4    4    0    0 -0.31178938533E-01 -0.26600837280E-01  0.52008992946E-02  0.41316355436E-01  0.51100000000E-03 0.  1.
</event>
<event>
 8    1  0.1143957E+005  0.1043930E+01  0.7957747E-01            NaN
         13   -1    0    0    0    0  0.00000000000E+00  0.00000000000E+00  0.74505805969E-08  0.10566000000E+00  0.10566000000E+00 0. -1.
     999900   -1    0    0    0    0 -0.00000000000E+00 -0.00000000000E+00 -0.74505805969E-08  0.93827000000E+00  0.93827000000E+00 0.  1.
     999902    2    1    2    0    0  0.35127032577E-02  0.36036272437E-02 -0.23784082529E-01  0.10196193481E+01  0.10193294891E+01 0.  0.
     999903    2    3    3    0    0  0.12112027529E+00 -0.38222338332E-01  0.18465856996E-01  0.12980700285E+00  0.19437126333E-01 0.  0.
         14    1    1    2    0    0 -0.35127032577E-02 -0.36036272437E-02  0.23784082529E-01  0.24310651888E-01  0.00000000000E+00 0. -1.
     999901    1    3    3    0    0 -0.11760757203E+00  0.41825965576E-01 -0.42249939525E-01  0.88981234526E+00  0.88000000000E+00 0.  1.
        -11    1    4    4    0    0  0.55351624910E-01 -0.15540344333E-01 -0.12084273020E-02  0.57506748297E-01  0.51100000000E-03 0. -1.
         11    1    4    4    0    0  0.65768650378E-01 -0.22681994000E-01  0.19674284298E-01  0.72300254550E-01  0.51100000000E-03 0.  1.
</event>
<event>
 8    1  0.1143957E+005  0.1043930E+01  0.7957747E-01            NaN
         13   -1    0    0    0    0  0.00000000000E+00  0.00000000000E+00  0.74505805969E-08  0.10566000000E+00  0.10566000000E+00 0. -1.
     999900   -1    0    0    0    0 -0.00000000000E+00 -0.00000000000E+00 -0.74505805969E-08  0.93827000000E+00  0.93827000000E+00 0. -1.
     999902    2    1    2    0    0  0.45059580069E-02  0.17639925043E-01 -0.10768129122E-01  0.10227776191E+01  0.10225588662E+01 0.  0.
     999903    2    3    3    0    0  0.47803619881E-01 -0.68579189901E-01  0.98558939707E-01  0.13077939528E+00  0.20027338151E-01 0.  0.
         14    1    1    2    0    0 -0.45059580069E-02 -0.17639925043E-01  0.10768129122E-01  0.21152380904E-01  0.00000000000E+00 0. -1.
     999901    1    3    3    0    0 -0.43297661875E-01  0.86219114944E-01 -0.10932706883E+00  0.89199822381E+00  0.88000000000E+00 0. -1.
        -11    1    4    4    0    0  0.39151417646E-01 -0.45194845785E-01  0.79035552191E-01  0.99107452900E-01  0.51100000000E-03 0. -1.
         11    1    4    4    0    0  0.86522022353E-02 -0.23384344116E-01  0.19523387517E-01  0.31671942384E-01  0.51100000000E-03 0.  1.
</event>
<event>
 8    1  0.1143957E+005  0.1043930E+01  0.7957747E-01            NaN
         13   -1    0    0    0    0  0.00000000000E+00  0.00000000000E+00  0.74505805969E-08  0.10566000000E+00  0.10566000000E+00 0. -1.
     999900   -1    0    0    0    0 -0.00000000000E+00 -0.00000000000E+00 -0.74505805969E-08  0.93827000000E+00  0.93827000000E+00 0. -1.
     999902    2    1    2    0    0 -0.14542599148E-01 -0.24245815381E-01  0.69098254758E-02  0.10148251475E+01  0.10144077028E+01 0.  0.
     999903    2    3    3    0    0  0.85968278847E-01 -0.46029357007E-01 -0.75693626190E-01  0.12499354007E+00  0.19611561350E-01 0.  0.
         14    1    1    2    0    0  0.14542599148E-01  0.24245815381E-01 -0.69098254758E-02  0.29104852543E-01  0.00000000000E+00 0.  1.
     999901    1    3    3    0    0 -0.10051087799E+00  0.21783541626E-01  0.82603451666E-01  0.88983160739E+00  0.88000000000E+00 0.  1.
        -11    1    4    4    0    0  0.17423703684E-02 -0.56825722648E-02 -0.60193020777E-02  0.84747035670E-02  0.51100000000E-03 0.  1.
         11    1    4    4    0    0  0.84225908479E-01 -0.40346784742E-01 -0.69674324112E-01  0.11651883650E+00  0.51100000000E-03 0. -1.
</event>
<event>
 8    1  0.1143957E+005  0.1043930E+01  0.7957747E-01            NaN
         13   -1    0    0    0    0  0.00000000000E+00  0.00000000000E+00  0.74505805969E-08  0.10566000000E+00  0.10566000000E+00 0. -1.
     999900   -1    0    0    0    0 -0.00000000000E+00 -0.00000000000E+00 -0.74505805969E-08  0.93827000000E+00  0.93827000000E+00 0. -1.
     999902    2    1    2    0    0 -0.96152539704E-02  0.24544855541E-01 -0.38183834888E-03  0.10175662210E+01  0.10172246386E+01 0.  0.
     999903    2    3    3    0    0  0.61545527915E-01 -0.77432865412E-01 -0.74642696295E-01  0.12572655634E+00  0.21258744228E-01 0.  0.
         14    1    1    2    0    0  0.96152539704E-02 -0.24544855541E-01  0.38183834888E-03  0.26363778996E-01  0.00000000000E+00 0. -1.
     999901    1    3    3    0    0 -0.71160781885E-01  0.10197772095E+00  0.74260857946E-01  0.89183966467E+00  0.88000000000E+00 0.  1.
        -11    1    4    4    0    0  0.32819074889E-01 -0.50512157385E-01 -0.55657479211E-01  0.82015765762E-01  0.51100000000E-03 0.  1.
         11    1    4    4    0    0  0.28726453025E-01 -0.26920708027E-01 -0.18985217084E-01  0.43710790576E-01  0.51100000000E-03 0. -1.
</event>
<event>
 8    1  0.1143957E+005  0.1043930E+01  0.7957747E-01            NaN
         13   -1    0    0    0    0  0.00000000000E+00  0.00000000000E+00  0.74505805969E-08  0.10566000000E+00  0.10566000000E+00 0.  1.
     999900   -1    0    0    0    0 -0.00000000000E+00 -0.00000000000E+00 -0.74505805969E-08  0.93827000000E+00  0.93827000000E+00 0.  1.
     999902    2    1    2    0    0 -0.14868143457E-01  0.14616867870E-01 -0.12006193714E-01  0.10198704239E+01  0.10195865918E+01 0.  0.
     999903    2    3    3    0    0 -0.10027808040E+00 -0.52563038580E-01  0.61205176733E-01  0.13016940559E+00  0.19479067221E-01 0.  0.
         14    1    1    2    0    0  0.14868143457E-01 -0.14616867870E-01  0.12006193714E-01  0.24059576133E-01  0.00000000000E+00 0.  1.
     999901    1    3    3    0    0  0.85409936942E-01  0.67179906450E-01 -0.73211370447E-01  0.88970101828E+00  0.88000000000E+00 0.  1.
        -11    1    4    4    0    0 -0.60777626989E-01 -0.29817642831E-01  0.47029618174E-01  0.82432141019E-01  0.51100000000E-03 0.  1.
         11    1    4    4    0    0 -0.39500453410E-01 -0.22745395748E-01  0.14175558559E-01  0.47737264572E-01  0.51100000000E-03 0. -1.
</event>
<event>
 8    1  0.1143957E+005  0.1043930E+01  0.7957747E-01            NaN
         13   -1    0    0    0    0  0.00000000000E+00  0.00000000000E+00  0.74505805969E-08  0.10566000000E+00  0.10566000000E+00 0.  1.
     999900   -1    0    0    0    0 -0.00000000000E+00 -0.00000000000E+00 -0.74505805969E-08  0.93827000000E+00  0.93827000000E+00 0.  1.
     999902    2    1    2    0    0  0.21440123729E-02 -0.71153707289E-02  0.22839768485E-01  0.10199116671E+01  0.10196288189E+01 0.  0.
     999903    2    3    3    0    0 -0.56339139139E-01  0.71220378667E-01  0.93405800024E-01  0.13169078612E+00  0.19271189237E-01 0.  0.
         14    1    1    2    0    0 -0.21440123729E-02  0.71153707289E-02 -0.22839768485E-01  0.24018332876E-01  0.00000000000E+00 0. -1.
     999901    1    3    3    0    0  0.58483151512E-01 -0.78335749396E-01 -0.70566031538E-01  0.88822088100E+00  0.88000000000E+00 0.  1.
        -11    1    4    4    0    0 -0.49125235530E-01  0.49748230196E-01  0.74631472060E-01  0.10226579544E+00  0.51100000000E-03 0. -1.
         11    1    4    4    0    0 -0.72139036089E-02  0.21472148471E-01  0.18774327964E-01  0.29424990684E-01  0.51100000000E-03 0.  1.
</event>
<event>
 8    1  0.1143957E+005  0.1043930E+01  0.7957747E-01            NaN
         13   -1    0    0    0    0  0.00000000000E+00  0.00000000000E+00  0.74505805969E-08  0.10566000000E+00  0.10566000000E+00 0. -1.
     999900   -1    0    0    0    0 -0.00000000000E+00 -0.00000000000E+00 -0.74505805969E-08  0.93827000000E+00  0.93827000000E+00 0. -1.
     999902    2    1    2    0    0  0.15178714567E-01 -0.15786374967E-01  0.31085599434E-02  0.10218106384E+01  0.10215711990E+01 0.  0.
     999903    2    3    3    0    0 -0.12724795989E-01  0.10810871874E+00 -0.67851872487E-01  0.12986670349E+00  0.20299472227E-01 0.  0.
         14    1    1    2    0    0 -0.15178714567E-01  0.15786374967E-01 -0.31085599434E-02  0.22119361551E-01  0.00000000000E+00 0.  1.
     999901    1    3    3    0    0  0.27903510556E-01 -0.12389509371E+00  0.70960432431E-01  0.89194393496E+00  0.88000000000E+00 0.  1.
        -11    1    4    4    0    0 -0.21691237565E-02  0.29016620414E-01 -0.29116705385E-01  0.41166892177E-01  0.51100000000E-03 0.  1.
         11    1    4    4    0    0 -0.10555672232E-01  0.79092098331E-01 -0.38735167103E-01  0.88699811308E-01  0.51100000000E-03 0. -1.
</event>
<event>
 8    1  0.1143957E+005  0.1043930E+01  0.7957747E-01            NaN
         13   -1    0    0    0    0  0.00000000000E+00  0.00000000000E+00  0.74505805969E-08  0.10566000000E+00  0.10566000000E+00 0.  1.
     999900   -1    0    0    0    0 -0.00000000000E+00 -0.00000000000E+00 -0.74505805969E-08  0.93827000000E+00  0.93827000000E+00 0. -1.
     999902    2    1    2    0    0  0.13882600073E-01  0.80296463040E-02 -0.18622337545E-01  0.10193537257E+01  0.10190574198E+01 0.  0.
     999903    2    3    3    0    0 -0.10694571021E+00 -0.66978837842E-01  0.17173340694E-02  0.12770387539E+00  0.19539214461E-01 0.  0.
         14    1    1    2    0    0 -0.13882600073E-01 -0.80296463040E-02  0.18622337545E-01  0.24576274335E-01  0.00000000000E+00 0. -1.
     999901    1    3    3    0    0  0.12082831028E+00  0.75008484146E-01 -0.20339671615E-01  0.89164985028E+00  0.88000000000E+00 0.  1.
        -11    1    4    4    0    0 -0.43856425333E-01 -0.32469164640E-01 -0.79433315771E-02  0.55145175065E-01  0.51100000000E-03 0. -1.
         11    1    4    4    0    0 -0.63089284876E-01 -0.34509673202E-01  0.96606656465E-02  0.72558700322E-01  0.51100000000E-03 0.  1.
</event>
<event>
 8    1  0.1143957E+005  0.1043930E+01  0.7957747E-01            NaN
         13   -1    0    0    0    0  0.00000000000E+00  0.00000000000E+00  0.74505805969E-08  0.10566000000E+00  0.10566000000E+00 0. -1.
     999900   -1    0    0    0    0 -0.00000000000E+00 -0.00000000000E+00 -0.74505805969E-08  0.93827000000E+00  0.93827000000E+00 0.  1.
     999902    2    1    2    0    0  0.44545965884E-02 -0.81876595169E-02 -0.25442839210E-01  0.10168335193E+01  0.10164724230E+01 0.  0.
     999903    2    3    3    0    0 -0.29749938854E-01  0.96347290765E-01  0.70626352790E-01  0.12479832060E+00  0.20461666994E-01 0.  0.
         14    1    1    2    0    0 -0.44545965884E-02  0.81876595169E-02  0.25442839210E-01  0.27096480698E-01  0.00000000000E+00 0. -1.
     999901    1    3    3    0    0  0.34204535442E-01 -0.10453495028E+00 -0.96069192001E-01  0.89203519870E+00  0.88000000000E+00 0.  1.
        -11    1    4    4    0    0 -0.16371762704E-03  0.90260104588E-02  0.13785620398E-01  0.16486361606E-01  0.51100000000E-03 0. -1.
         11    1    4    4    0    0 -0.29586221227E-01  0.87321280306E-01  0.56840732393E-01  0.10831195899E+00  0.51100000000E-03 0.  1.
</event>
<event>
 8    1  0.1143957E+005  0.1043930E+01  0.7957747E-01            NaN
         13   -1    0    0    0    0  0.00000000000E+00  0.00000000000E+00  0.74505805969E-08  0.10566000000E+00  0.10566000000E+00 0. -1.
     999900   -1    0    0    0    0 -0.00000000000E+00 -0.00000000000E+00 -0.74505805969E-08  0.93827000000E+00  0.93827000000E+00 0. -1.
     999902    2    1    2    0    0  0.72858844043E-02 -0.14532947532E-01 -0.17009013825E-01  0.10204013531E+01  0.10201300525E+01 0.  0.
     999903    2    3    3    0    0  0.63463599357E-01  0.32366032591E-01 -0.11081792488E+00  0.13239484307E+00  0.13137484075E-01 0.  0.
         14    1    1    2    0    0 -0.72858844043E-02  0.14532947532E-01  0.17009013825E-01  0.23528646940E-01  0.00000000000E+00 0. -1.
     999901    1    3    3    0    0 -0.56177714952E-01 -0.46898980123E-01  0.93808911054E-01  0.88800650999E+00  0.88000000000E+00 0.  1.
        -11    1    4    4    0    0  0.27214708480E-01  0.67258330446E-02 -0.42865667621E-01  0.51221126202E-01  0.51100000000E-03 0.  1.
         11    1    4    4    0    0  0.36248890876E-01  0.25640199547E-01 -0.67952257258E-01  0.81173716867E-01  0.51100000000E-03 0. -1.
</event>
<event>
 8    1  0.1143957E+005  0.1043930E+01  0.7957747E-01            NaN
         13   -1    0    0    0    0  0.00000000000E+00  0.00000000000E+00  0.74505805969E-08  0.10566000000E+00  0.10566000000E+00 0.  1.
     999900   -1    0    0    0    0 -0.00000000000E+00 -0.00000000000E+00 -0.74505805969E-08  0.93827000000E+00  0.93827000000E+00 0.  1.
     999902    2    1    2    0    0  0.24356762544E-01  0.17092527432E-02  0.49115491134E-02  0.10190242428E+01  0.10187198392E+01 0.  0.
     999903    2    3    3    0    0 -0.34634177570E-01 -0.10728872349E-01 -0.12107025779E+00  0.12801018364E+00  0.20346125824E-01 0.  0.
         14    1    1    2    0    0 -0.24356762544E-01 -0.17092527432E-02 -0.49115491134E-02  0.24905757191E-01  0.00000000000E+00 0.  1.
     999901    1    3    3    0    0  0.58990940113E-01  0.12438125092E-01  0.12598180690E+00  0.89101405917E+00  0.88000000000E+00 0. -1.
        -11    1    4    4    0    0 -0.32446007229E-01 -0.13895062559E-01 -0.89624279686E-01  0.96325431631E-01  0.51100000000E-03 0.  1.
         11    1    4    4    0    0 -0.21881703413E-02  0.31661902102E-02 -0.31445978103E-01  0.31684752007E-01  0.51100000000E-03 0. -1.
</event>
<event>
 8    1  0.1143957E+005  0.1043930E+01  0.7957747E-01            NaN
         13   -1    0    0    0    0  0.00000000000E+00  0.00000000000E+00  0.74505805969E-08  0.10566000000E+00  0.10566000000E+00 0.  1.
     999900   -1    0    0    0    0 -0.00000000000E+00 -0.00000000000E+00 -0.74505805969E-08  0.93827000000E+00  0.93827000000E+00 0.  1.
     999902    2    1    2    0    0 -0.38301349460E-02 -0.18424360813E-01  0.14503472555E-01  0.10201712601E+01  0.10198945643E+01 0.  0.
     999903    2    3    3    0    0 -0.54305920724E-01 -0.93183869266E-01 -0.72279364813E-01  0.13131353813E+00  0.19661439476E-01 0.  0.
         14    1    1    2    0    0  0.38301349460E-02  0.18424360813E-01 -0.14503472555E-01  0.23758739891E-01  0.00000000000E+00 0. -1.
     999901    1    3    3    0    0  0.50475785778E-01  0.74759508453E-01  0.86782837368E-01  0.88885772198E+00  0.88000000000E+00 0. -1.
        -11    1    4    4    0    0 -0.46024633127E-01 -0.66592108638E-01 -0.46481172297E-01  0.93346324440E-01  0.51100000000E-03 0.  1.
         11    1    4    4    0    0 -0.82812875969E-02 -0.26591760628E-01 -0.25798192516E-01  0.37967213693E-01  0.51100000000E-03 0. -1.
</event>
<event>
 8    1  0.1143957E+005  0.1043930E+01  0.7957747E-01            NaN
         13   -1    0    0    0    0  0.00000000000E+00  0.00000000000E+00  0.74505805969E-08  0.10566000000E+00  0.10566000000E+00 0. -1.
     999900   -1    0    0    0    0 -0.00000000000E+00 -0.00000000000E+00 -0.74505805969E-08  0.93827000000E+00  0.93827000000E+00 0.  1.
     999902    2    1    2    0    0  0.19857288826E-03  0.90355061687E-02  0.20639766315E-01  0.10213982500E+01  0.10211496979E+01 0.  0.
     999903    2    3    3    0    0  0.64182896751E-01  0.62120011852E-01  0.97634735591E-01  0.13413268453E+00  0.21924765830E-01 0.  0.
         14    1    1    2    0    0 -0.19857288826E-03 -0.90355061687E-02 -0.20639766315E-01  0.22531749964E-01  0.00000000000E+00 0.  1.
     999901    1    3    3    0    0 -0.63984323862E-01 -0.53084505683E-01 -0.76994969276E-01  0.88726556551E+00  0.88000000000E+00 0.  1.
        -11    1    4    4    0    0  0.53684237262E-01  0.60855108858E-01  0.83107481032E-01  0.11615703220E+00  0.51100000000E-03 0.  1.
         11    1    4    4    0    0  0.10498659488E-01  0.12649029943E-02  0.14527254559E-01  0.17975652329E-01  0.51100000000E-03 0. -1.
</event>
<event>
 8    1  0.1143957E+005  0.1043930E+01  0.7957747E-01            NaN
         13   -1    0    0    0    0  0.00000000000E+00  0.00000000000E+00  0.74505805969E-08  0.10566000000E+00  0.10566000000E+00 0.  1.
     999900   -1    0    0    0    0 -0.00000000000E+00 -0.00000000000E+00 -0.74505805969E-08  0.93827000000E+00  0.93827000000E+00 0. -1.
     999902    2    1    2    0    0 -0.26407651111E-02  0.16280062006E-01 -0.17208642594E-01  0.10200940725E+01  0.10198155546E+01 0.  0.
     999903    2    3    3    0    0  0.83723943798E-01  0.67974847472E-01 -0.74052321730E-01  0.13253426177E+00  0.21243952902E-01 0.  0.
         14    1    1    2    0    0  0.26407651111E-02 -0.16280062006E-01  0.17208642594E-01  0.23835927488E-01  0.00000000000E+00 0.  1.
     999901    1    3    3    0    0 -0.86364708909E-01 -0.51694785466E-01  0.56843679136E-01  0.88755981074E+00  0.88000000000E+00 0.  1.
        -11    1    4    4    0    0  0.24024834667E-01  0.11592453744E-01 -0.26685593538E-01  0.37735390392E-01  0.51100000000E-03 0.  1.
         11    1    4    4    0    0  0.59699109131E-01  0.56382393728E-01 -0.47366728193E-01  0.94798871376E-01  0.51100000000E-03 0. -1.
</event>
<event>
 8    1  0.1143957E+005  0.1043930E+01  0.7957747E-01            NaN
         13   -1    0    0    0    0  0.00000000000E+00  0.00000000000E+00  0.74505805969E-08  0.10566000000E+00  0.10566000000E+00 0.  1.
     999900   -1    0    0    0    0 -0.00000000000E+00 -0.00000000000E+00 -0.74505805969E-08  0.93827000000E+00  0.93827000000E+00 0. -1.
     999902    2    1    2    0    0  0.13255211033E-01 -0.29392299028E-02  0.19773337723E-01  0.10199440754E+01  0.10196619991E+01 0.  0.
     999903    2    3    3    0    0 -0.25857475533E-01  0.12510503748E+00  0.11564728934E-01  0.12977975471E+00  0.19727197779E-01 0.  0.
         14    1    1    2    0    0 -0.13255211033E-01  0.29392299028E-02 -0.19773337723E-01  0.23985924553E-01  0.00000000000E+00 0. -1.
     999901    1    3    3    0    0  0.39112686566E-01 -0.12804426738E+00  0.82086087886E-02  0.89016432074E+00  0.88000000000E+00 0. -1.
        -11    1    4    4    0    0 -0.26092888586E-01  0.83152635423E-01  0.10781272904E-01  0.87816266027E-01  0.51100000000E-03 0. -1.
         11    1    4    4    0    0  0.23541305309E-03  0.41952402059E-01  0.78345603051E-03  0.41963488680E-01  0.51100000000E-03 0.  1.
</event>
<event>
 8    1  0.1143957E+005  0.1043930E+01  0.7957747E-01            NaN
         13   -1    0    0    0    0  0.00000000000E+00  0.00000000000E+00  0.74505805969E-08  0.10566000000E+00  0.10566000000E+00 0.  1.
     999900   -1    0    0    0    0 -0.00000000000E+00 -0.00000000000E+00 -0.74505805969E-08  0.93827000000E+00  0.93827000000E+00 0.  1.
     999902    2    1    2    0    0 -0.10883883476E-01 -0.17153298930E-02 -0.19921784242E-01  0.10211642634E+01  0.10209104633E+01 0.  0.
     999903    2    3    3    0    0 -0.56454959634E-02  0.37292548108E-01  0.12183980379E+00  0.12895049803E+00  0.18991771553E-01 0.  0.
         14    1    1    2    0    0  0.10883883476E-01  0.17153298930E-02  0.19921784242E-01  0.22765736613E-01  0.00000000000E+00 0.  1.
     999901    1    3    3    0    0 -0.52383875126E-02 -0.39007878001E-01 -0.14176158803E+00  0.89221376536E+00  0.88000000000E+00 0.  1.
        -11    1    4    4    0    0  0.15754394305E-02 -0.16609696246E-02  0.41054090632E-02  0.47282485203E-02  0.51100000000E-03 0.  1.
         11    1    4    4    0    0 -0.72209353940E-02  0.38953517733E-01  0.11773439472E+00  0.12422224951E+00  0.51100000000E-03 0. -1.
</event>
<event>
 8    1  0.1143957E+005  0.1043930E+01  0.7957747E-01            NaN
         13   -1    0    0    0    0  0.00000000000E+00  0.00000000000E+00  0.74505805969E-08  0.10566000000E+00  0.10566000000E+00 0.  1.
     999900   -1    0    0    0    0 -0.00000000000E+00 -0.00000000000E+00 -0.74505805969E-08  0.93827000000E+00  0.93827000000E+00 0. -1.
     999902    2    1    2    0    0 -0.14373160231E-01  0.16014430897E-01 -0.11200389084E-01  0.10196710131E+01  0.10193823995E+01 0.  0.
     999903    2    3    3    0    0 -0.42492805045E-01  0.82513133190E-02  0.12034360534E+00  0.12941554248E+00  0.19800925191E-01 0.  0.
         14    1    1    2    0    0  0.14373160231E-01 -0.16014430897E-01  0.11200389084E-01  0.24258986946E-01  0.00000000000E+00 0.  1.
     999901    1    3    3    0    0  0.28119644814E-01  0.77631175784E-02 -0.13154399442E+00  0.89025547057E+00  0.88000000000E+00 0. -1.
        -11    1    4    4    0    0 -0.30950563858E-01  0.65455536135E-02  0.10748501539E+00  0.11204495227E+00  0.51100000000E-03 0.  1.
         11    1    4    4    0    0 -0.11542241188E-01  0.17057597055E-02  0.12858589943E-01  0.17370590206E-01  0.51100000000E-03 0. -1.
</event>
<event>
 8    1  0.1143957E+005  0.1043930E+01  0.7957747E-01            NaN
         13   -1    0    0    0    0  0.00000000000E+00  0.00000000000E+00  0.74505805969E-08  0.10566000000E+00  0.10566000000E+00 0. -1.
     999900   -1    0    0    0    0 -0.00000000000E+00 -0.00000000000E+00 -0.74505805969E-08  0.93827000000E+00  0.93827000000E+00 0.  1.
     999902    2    1    2    0    0  0.42008582303E-02 -0.22673458167E-01  0.70735791582E-02  0.10198101236E+01  0.10195248500E+01 0.  0.
     999903    2    3    3    0    0 -0.79497496246E-02  0.10590967772E+00  0.68626402545E-01  0.12825529626E+00  0.21442470444E-01 0.  0.
         14    1    1    2    0    0 -0.42008582303E-02  0.22673458167E-01 -0.70735791582E-02  0.24119876393E-01  0.00000000000E+00 0.  1.
     999901    1    3    3    0    0  0.12150607855E-01 -0.12858313588E+00 -0.61552823386E-01  0.89155482735E+00  0.88000000000E+00 0.  1.
        -11    1    4    4    0    0 -0.97077522585E-03  0.90489685716E-01  0.51286817066E-01  0.10401886536E+00  0.51100000000E-03 0.  1.
         11    1    4    4    0    0 -0.69789743988E-02  0.15419992000E-01  0.17339585478E-01  0.24236430894E-01  0.51100000000E-03 0. -1.
</event>
<event>
 8    1  0.1143957E+005  0.1043930E+01  0.7957747E-01            NaN
         13   -1    0    0    0    0  0.00000000000E+00  0.00000000000E+00  0.74505805969E-08  0.10566000000E+00  0.10566000000E+00 0. -1.
     999900   -1    0    0    0    0 -0.00000000000E+00 -0.00000000000E+00 -0.74505805969E-08  0.93827000000E+00  0.93827000000E+00 0. -1.
     999902    2    1    2    0    0 -0.12327502740E-01 -0.17880283719E-01  0.23989176192E-02  0.10220799045E+01  0.10218463213E+01 0.  0.
     999903    2    3    3    0    0  0.62769515703E-01 -0.11153533244E+00  0.32619624807E-01  0.13341567007E+00  0.18856261932E-01 0.  0.
         14    1    1    2    0    0  0.12327502740E-01  0.17880283719E-01 -0.23989176192E-02  0.21850095547E-01  0.00000000000E+00 0.  1.
     999901    1    3    3    0    0 -0.75097018443E-01  0.93655048719E-01 -0.30220707188E-01  0.88866423438E+00  0.88000000000E+00 0. -1.
        -11    1    4    4    0    0  0.22602192999E-01 -0.23733217405E-01  0.95942455699E-02  0.34153117073E-01  0.51100000000E-03 0.  1.
         11    1    4    4    0    0  0.40167322705E-01 -0.87802115032E-01  0.23025379237E-01  0.99262552997E-01  0.51100000000E-03 0. -1.
</event>
<event>
 8    1  0.1143957E+005  0.1043930E+01  0.7957747E-01            NaN
         13   -1    0    0    0    0  0.00000000000E+00  0.00000000000E+00  0.74505805969E-08  0.10566000000E+00  0.10566000000E+00 0. -1.
     999900   -1    0    0    0    0 -0.00000000000E+00 -0.00000000000E+00 -0.74505805969E-08  0.93827000000E+00  0.93827000000E+00 0.  1.
     999902    2    1    2    0    0 -0.57666332070E-03 -0.44119813975E-02  0.23878602015E-01  0.10196403776E+01  0.10193510259E+01 0.  0.
     999903    2    3    3    0    0  0.84390259644E-01 -0.14724000099E-01 -0.92654206159E-01  0.12784129090E+00  0.20495893178E-01 0.  0.
         14    1    1    2    0    0  0.57666332070E-03  0.44119813975E-02 -0.23878602015E-01  0.24289622365E-01  0.00000000000E+00 0.  1.
     999901    1    3    3    0    0 -0.84966922965E-01  0.10312018701E-01  0.11653280817E+00  0.89179908674E+00  0.88000000000E+00 0. -1.
        -11    1    4    4    0    0  0.53395581290E-01 -0.14967259078E-01 -0.47203934833E-01  0.72825679058E-01  0.51100000000E-03 0. -1.
         11    1    4    4    0    0  0.30994678354E-01  0.24325897906E-03 -0.45450271326E-01  0.55015611837E-01  0.51100000000E-03 0.  1.
</event>
<event>
 8    1  0.1143957E+005  0.1043930E+01  0.7957747E-01            NaN
         13   -1    0    0    0    0  0.00000000000E+00  0.00000000000E+00  0.74505805969E-08  0.10566000000E+00  0.10566000000E+00 0. -1.
     999900   -1    0    0    0    0 -0.00000000000E+00 -0.00000000000E+00 -0.74505805969E-08  0.93827000000E+00  0.93827000000E+00 0. -1.
     999902    2    1    2    0    0  0.17654833513E-01  0.13853341243E-01 -0.54856182010E-02  0.10208280473E+01  0.10205666083E+01 0.  0.
     999903    2    3    3    0    0  0.22066204627E-01  0.48410981164E-01 -0.11996516087E+00  0.13272937243E+00  0.19872241924E-01 0.  0.
         14    1    1    2    0    0 -0.17654833513E-01 -0.13853341243E-01  0.54856182010E-02  0.23101952667E-01  0.00000000000E+00 0.  1.
     999901    1    3    3    0    0 -0.44113711145E-02 -0.34557639920E-01  0.11447954267E+00  0.88809867490E+00  0.88000000000E+00 0.  1.
        -11    1    4    4    0    0  0.92858855229E-02  0.39515881403E-01 -0.94881743855E-01  0.10320144859E+00  0.51100000000E-03 0. -1.
         11    1    4    4    0    0  0.12780319104E-01  0.88950997611E-02 -0.25083417017E-01  0.29527923842E-01  0.51100000000E-03 0.  1.
</event>
<event>
 8    1  0.1143957E+005  0.1043930E+01  0.7957747E-01            NaN
         13   -1    0    0    0    0  0.00000000000E+00  0.00000000000E+00  0.74505805969E-08  0.10566000000E+00  0.10566000000E+00 0.  1.
     999900   -1    0    0    0    0 -0.00000000000E+00 -0.00000000000E+00 -0.74505805969E-08  0.93827000000E+00  0.93827000000E+00 0. -1.
     999902    2    1    2    0    0  0.20855410110E-03  0.12703036693E-01  0.21772497633E-01  0.10187218210E+01  0.10184098862E+01 0.  0.
     999903    2    3    3    0    0 -0.15816922286E-01 -0.65919228973E-01  0.11001080731E+00  0.13067662177E+00  0.19454613191E-01 0.  0.
         14    1    1    2    0    0 -0.20855410110E-03 -0.12703036693E-01 -0.21772497633E-01  0.25208179014E-01  0.00000000000E+00 0. -1.
     999901    1    3    3    0    0  0.16025476387E-01  0.78622265666E-01 -0.88238309674E-01  0.88804519921E+00  0.88000000000E+00 0. -1.
        -11    1    4    4    0    0  0.30509203663E-02 -0.27989978158E-01  0.43805995799E-01  0.52076610693E-01  0.51100000000E-03 0. -1.
         11    1    4    4    0    0 -0.18867842653E-01 -0.37929250815E-01  0.66204811508E-01  0.78600011079E-01  0.51100000000E-03 0.  1.
</event>
<event>
 8    1  0.1143957E+005  0.1043930E+01  0.7957747E-01            NaN
         13   -1    0    0    0    0  0.00000000000E+00  0.00000000000E+00  0.74505805969E-08  0.10566000000E+00  0.10566000000E+00 0. -1.
     999900   -1    0    0    0    0 -0.00000000000E+00 -0.00000000000E+00 -0.74505805969E-08  0.93827000000E+00  0.93827000000E+00 0. -1.
     999902    2    1    2    0    0 -0.50108383382E-02 -0.91009193571E-02  0.21252079475E-01  0.10202744274E+01  0.10200001574E+01 0.  0.
     999903    2    3    3    0    0 -0.43415866492E-01  0.71963364028E-01  0.99989629169E-01  0.13221701597E+00  0.20487804788E-01 0.  0.
         14    1    1    2    0    0  0.50108383382E-02  0.91009193571E-02 -0.21252079475E-01  0.23655572620E-01  0.00000000000E+00 0.  1.
     999901    1    3    3    0    0  0.38405028154E-01 -0.81064283385E-01 -0.78737549694E-01  0.88805741141E+00  0.88000000000E+00 0. -1.
        -11    1    4    4    0    0 -0.23808157096E-01  0.34103704180E-01  0.34354636214E-01  0.53948059590E-01  0.51100000000E-03 0. -1.
         11    1    4    4    0    0 -0.19607709396E-01  0.37859659848E-01  0.65634992955E-01  0.78268956380E-01  0.51100000000E-03 0.  1.
</event>
<event>
 8    1  0.1143957E+005  0.1043930E+01  0.7957747E-01            NaN
         13   -1    0    0    0    0  0.00000000000E+00  0.00000000000E+00  0.74505805969E-08  0.10566000000E+00  0.10566000000E+00 0.  1.
     999900   -1    0    0    0    0 -0.00000000000E+00 -0.00000000000E+00 -0.74505805969E-08  0.93827000000E+00  0.93827000000E+00 0. -1.
     999902    2    1    2    0    0 -0.18170645385E-01  0.30526607928E-02  0.15217582346E-01  0.10200330147E+01  0.10197530511E+01 0.  0.
     999903    2    3    3    0    0  0.12477532339E+00 -0.12781344843E-01 -0.13387817836E-01  0.12789931701E+00  0.21136639303E-01 0.  0.
         14    1    1    2    0    0  0.18170645385E-01 -0.30526607928E-02 -0.15217582346E-01  0.23896985251E-01  0.00000000000E+00 0. -1.
     999901    1    3    3    0    0 -0.14294596878E+00  0.15834005636E-01  0.28605400182E-01  0.89213369774E+00  0.88000000000E+00 0. -1.
        -11    1    4    4    0    0  0.11076217046E+00 -0.14025291837E-01 -0.17991553837E-01  0.11308812646E+00  0.51100000000E-03 0.  1.
         11    1    4    4    0    0  0.14013152937E-01  0.12439469945E-02  0.46037360016E-02  0.14811190551E-01  0.51100000000E-03 0. -1.
</event>
<event>
 8    1  0.1143957E+005  0.1043930E+01  0.7957747E-01            NaN
         13   -1    0    0    0    0  0.00000000000E+00  0.00000000000E+00  0.74505805969E-08  0.10566000000E+00  0.10566000000E+00 0. -1.
     999900   -1    0    0    0    0 -0.00000000000E+00 -0.00000000000E+00 -0.74505805969E-08  0.93827000000E+00  0.93827000000E+00 0. -1.
     999902    2    1    2    0    0 -0.45446799110E-02 -0.33632995062E-03  0.22164483701E-01  0.10213018854E+01  0.10210511787E+01 0.  0.
     999903    2    3    3    0    0  0.10208499576E+00 -0.65458978559E-01 -0.42775500715E-01  0.13010715432E+00  0.19796563122E-01 0.  0.
         14    1    1    2    0    0  0.45446799110E-02  0.33632995062E-03 -0.22164483701E-01  0.22628114616E-01  0.00000000000E+00 0.  1.
     999901    1    3    3    0    0 -0.10662967567E+00  0.65122648608E-01  0.64939984416E-01  0.89119473106E+00  0.88000000000E+00 0.  1.
        -11    1    4    4    0    0  0.10247340804E+00 -0.63115188227E-01 -0.41189024702E-01  0.12720504399E+00  0.51100000000E-03 0. -1.
         11    1    4    4    0    0 -0.38841228253E-03 -0.23437903316E-02 -0.15864760135E-02  0.29021103289E-02  0.51100000000E-03 0.  1.
</event>
<event>
 8    1  0.1143957E+005  0.1043930E+01  0.7957747E-01            NaN
         13   -1    0    0    0    0  0.00000000000E+00  0.00000000000E+00  0.74505805969E-08  0.10566000000E+00  0.10566000000E+00 0. -1.
     999900   -1    0    0    0    0 -0.00000000000E+00 -0.00000000000E+00 -0.74505805969E-08  0.93827000000E+00  0.93827000000E+00 0. -1.
     999902    2    1    2    0    0  0.10130040873E-01  0.19475875319E-02  0.21561894220E-01  0.10200275711E+01  0.10197474784E+01 0.  0.
     999903    2    3    3    0    0  0.10597596322E+00 -0.45118102594E-01 -0.56641440739E-01  0.13013017160E+00  0.21425703952E-01 0.  0.
         14    1    1    2    0    0 -0.10130040873E-01 -0.19475875319E-02 -0.21561894220E-01  0.23902428906E-01  0.00000000000E+00 0.  1.
     999901    1    3    3    0    0 -0.95845922352E-01  0.47065690126E-01  0.78203334959E-01  0.88989739949E+00  0.88000000000E+00 0.  1.
        -11    1    4    4    0    0  0.55235955759E-01 -0.12521282358E-01 -0.23579052195E-01  0.61351659666E-01  0.51100000000E-03 0.  1.
         11    1    4    4    0    0  0.50740007466E-01 -0.32596820236E-01 -0.33062388545E-01  0.68778511938E-01  0.51100000000E-03 0. -1.
</event>
<event>
 8    1  0.1143957E+005  0.1043930E+01  0.7957747E-01            NaN
         13   -1    0    0    0    0  0.00000000000E+00  0.00000000000E+00  0.74505805969E-08  0.10566000000E+00  0.10566000000E+00 0. -1.
     999900   -1    0    0    0    0 -0.00000000000E+00 -0.00000000000E+00 -0.74505805969E-08  0.93827000000E+00  0.93827000000E+00 0. -1.
     999902    2    1    2    0    0  0.31431748882E-02 -0.21702167075E-03  0.25069220871E-01  0.10186635701E+01  0.10183501738E+01 0.  0.
     999903    2    3    3    0    0 -0.45009097568E-01 -0.82042220604E-01  0.90695088388E-01  0.13112722770E+00  0.14560424486E-01 0.  0.
         14    1    1    2    0    0 -0.31431748882E-02  0.21702167075E-03 -0.25069220871E-01  0.25266429939E-01  0.00000000000E+00 0.  1.
     999901    1    3    3    0    0  0.48152272456E-01  0.81825198933E-01 -0.65625867516E-01  0.88753634236E+00  0.88000000000E+00 0.  1.
        -11    1    4    4    0    0 -0.10994011934E-01 -0.28434494884E-01  0.22089223695E-01  0.37650813034E-01  0.51100000000E-03 0. -1.
         11    1    4    4    0    0 -0.34015085635E-01 -0.53607725720E-01  0.68605864692E-01  0.93476414666E-01  0.51100000000E-03 0.  1.
</event>
<event>
 8    1  0.1430140E+005  0.1043930E+01  0.7957747E-01            NaN
         13   -1    0    0    0    0  0.00000000000E+00  0.00000000000E+00  0.74505805969E-08  0.10566000000E+00  0.10566000000E+00 0.  1.
     999900   -1    0    0    0    0 -0.00000000000E+00 -0.00000000000E+00 -0.74505805969E-08  0.93827000000E+00  0.93827000000E+00 0.  1.
     999902    2    1    2    0    0 -0.86192608023E-02 -0.20548233746E-01  0.90636996221E-02  0.10198743932E+01  0.10195906560E+01 0.  0.
     999903    2    3    3    0    0 -0.19965926989E-01  0.11748410087E+00  0.43358440514E-01  0.12838249674E+00  0.20023958369E-01 0.  0.
         14    1    1    2    0    0  0.86192608023E-02  0.20548233746E-01 -0.90636996221E-02  0.24055606783E-01  0.00000000000E+00 0. -1.
     999901    1    3    3    0    0  0.11346666187E-01 -0.13803233461E+00 -0.34294740892E-01  0.89149189648E+00  0.88000000000E+00 0.  1.
        -11    1    4    4    0    0 -0.22136639528E-01  0.75470001837E-01  0.30900772257E-01  0.84503673493E-01  0.51100000000E-03 0. -1.
         11    1    4    4    0    0  0.21707125384E-02  0.42014099029E-01  0.12457668256E-01  0.43878823247E-01  0.51100000000E-03 0.  1.
</event>
<event>
 8    1  0.1143957E+005  0.1043930E+01  0.7957747E-01            NaN
         13   -1    0    0    0    0  0.00000000000E+00  0.00000000000E+00  0.74505805969E-08  0.10566000000E+00  0.10566000000E+00 0.  1.
     999900   -1    0    0    0    0 -0.00000000000E+00 -0.00000000000E+00 -0.74505805969E-08  0.93827000000E+00  0.93827000000E+00 0.  1.
     999902    2    1    2    0    0  0.20517378973E-01  0.35152891023E-02  0.84384049977E-02  0.10214683265E+01  0.10212213351E+01 0.  0.
     999903    2    3    3    0    0  0.82151777760E-01  0.92581057175E-01  0.47241588227E-01  0.13397906055E+00  0.19961319353E-01 0.  0.
         14    1    1    2    0    0 -0.20517378973E-01 -0.35152891023E-02 -0.84384049977E-02  0.22461673498E-01  0.00000000000E+00 0. -1.
     999901    1    3    3    0    0 -0.61634398787E-01 -0.89065768073E-01 -0.38803183229E-01  0.88748926595E+00  0.88000000000E+00 0. -1.
        -11    1    4    4    0    0  0.74002558781E-01  0.89943688565E-01  0.46325333501E-01  0.12534968474E+00  0.51100000000E-03 0.  1.
         11    1    4    4    0    0  0.81492189785E-02  0.26373686096E-02  0.91625472599E-03  0.86293758097E-02  0.51100000000E-03 0. -1.
</event>
<event>
 8    1  0.1143957E+005  0.1043930E+01  0.7957747E-01            NaN
         13   -1    0    0    0    0  0.00000000000E+00  0.00000000000E+00  0.74505805969E-08  0.10566000000E+00  0.10566000000E+00 0. -1.
     999900   -1    0    0    0    0 -0.00000000000E+00 -0.00000000000E+00 -0.74505805969E-08  0.93827000000E+00  0.93827000000E+00 0.  1.
     999902    2    1    2    0    0  0.11695203691E-01  0.10994039136E-01 -0.17010278368E-01  0.10205420489E+01  0.10202740207E+01 0.  0.
     999903    2    3    3    0    0  0.69851925416E-01 -0.89955243318E-01  0.58692403491E-01  0.12964146077E+00  0.19770504260E-01 0.  0.
         14    1    1    2    0    0 -0.11695203691E-01 -0.10994039136E-01  0.17010278368E-01  0.23387951087E-01  0.00000000000E+00 0. -1.
     999901    1    3    3    0    0 -0.58156721725E-01  0.10094928245E+00 -0.75702681859E-01  0.89090058814E+00  0.88000000000E+00 0.  1.
        -11    1    4    4    0    0  0.65612452937E-01 -0.80794335605E-01  0.58782247375E-01  0.11953381268E+00  0.51100000000E-03 0.  1.
         11    1    4    4    0    0  0.42394724789E-02 -0.91609077130E-02 -0.89843883887E-04  0.10107648092E-01  0.51100000000E-03 0. -1.
</event>
<event>
 8    1  0.1143957E+005  0.1043930E+01  0.7957747E-01            NaN
         13   -1    0    0    0    0  0.00000000000E+00  0.00000000000E+00  0.74505805969E-08  0.10566000000E+00  0.10566000000E+00 0.  1.
     999900   -1    0    0    0    0 -0.00000000000E+00 -0.00000000000E+00 -0.74505805969E-08  0.93827000000E+00  0.93827000000E+00 0.  1.
     999902    2    1    2    0    0 -0.15482266994E-01  0.12507849807E-01  0.25164953364E-02  0.10238681046E+01  0.10236715372E+01 0.  0.
     999903    2    3    3    0    0  0.11354264276E+00  0.53533880867E-01 -0.37540828641E-01  0.13261328596E+00  0.20473438207E-01 0.  0.
         14    1    1    2    0    0  0.15482266994E-01 -0.12507849807E-01 -0.25164953364E-02  0.20061895395E-01  0.00000000000E+00 0. -1.
     999901    1    3    3    0    0 -0.12902490975E+00 -0.41026031060E-01  0.40057323977E-01  0.89125481865E+00  0.88000000000E+00 0. -1.
        -11    1    4    4    0    0  0.67159796819E-01  0.38771193435E-01 -0.15075179897E-01  0.79001050114E-01  0.51100000000E-03 0. -1.
         11    1    4    4    0    0  0.46382845938E-01  0.14762687432E-01 -0.22465648744E-01  0.53612235842E-01  0.51100000000E-03 0.  1.
</event>
<event>
 8    1  0.1143957E+005  0.1043930E+01  0.7957747E-01            NaN
         13   -1    0    0    0    0  0.00000000000E+00  0.00000000000E+00  0.74505805969E-08  0.10566000000E+00  0.10566000000E+00 0. -1.
     999900   -1    0    0    0    0 -0.00000000000E+00 -0.00000000000E+00 -0.74505805969E-08  0.93827000000E+00  0.93827000000E+00 0.  1.
     999902    2    1    2    0    0  0.37281627364E-02 -0.91675723438E-03 -0.23456785970E-01  0.10201611033E+01  0.10198841681E+01 0.  0.
     999903    2    3    3    0    0  0.59158881629E-01 -0.51404179517E-01 -0.10580752650E+00  0.13314183134E+00  0.19731995340E-01 0.  0.
         14    1    1    2    0    0 -0.37281627364E-02  0.91675723438E-03  0.23456785970E-01  0.23768896677E-01  0.00000000000E+00 0. -1.
     999901    1    3    3    0    0 -0.55430718893E-01  0.50487422283E-01  0.82350740532E-01  0.88701927198E+00  0.88000000000E+00 0. -1.
        -11    1    4    4    0    0  0.39756346104E-01 -0.22929379697E-01 -0.53329448008E-01  0.70360604423E-01  0.51100000000E-03 0. -1.
         11    1    4    4    0    0  0.19402535525E-01 -0.28474799820E-01 -0.52478078494E-01  0.62781226915E-01  0.51100000000E-03 0.  1.
</event>
<event>
 8    1  0.1143957E+005  0.1043930E+01  0.7957747E-01            NaN
         13   -1    0    0    0    0  0.00000000000E+00  0.00000000000E+00  0.74505805969E-08  0.10566000000E+00  0.10566000000E+00 0. -1.
     999900   -1    0    0    0    0 -0.00000000000E+00 -0.00000000000E+00 -0.74505805969E-08  0.93827000000E+00  0.93827000000E+00 0. -1.
     999902    2    1    2    0    0  0.18887772799E-01  0.16595538614E-01 -0.86681840863E-03  0.10187722728E+01  0.10184616009E+01 0.  0.
     999903    2    3    3    0    0  0.53432793128E-01  0.10867529397E+00 -0.48341869228E-01  0.13202207110E+00  0.20676267502E-01 0.  0.
         14    1    1    2    0    0 -0.18887772799E-01 -0.16595538614E-01  0.86681840863E-03  0.25157727190E-01  0.00000000000E+00 0.  1.
     999901    1    3    3    0    0 -0.34545020328E-01 -0.92079755353E-01  0.47475050819E-01  0.88675020171E+00  0.88000000000E+00 0.  1.
        -11    1    4    4    0    0  0.39612382123E-01  0.67052462941E-01 -0.39318477950E-01  0.87243208522E-01  0.51100000000E-03 0. -1.
         11    1    4    4    0    0  0.13820411005E-01  0.41622831026E-01 -0.90233912783E-02  0.44778862582E-01  0.51100000000E-03 0.  1.
</event>
<event>
 8    1  0.1143957E+005  0.1043930E+01  0.7957747E-01            NaN
         13   -1    0    0    0    0  0.00000000000E+00  0.00000000000E+00  0.74505805969E-08  0.10566000000E+00  0.10566000000E+00 0.  1.
     999900   -1    0    0    0    0 -0.00000000000E+00 -0.00000000000E+00 -0.74505805969E-08  0.93827000000E+00  0.93827000000E+00 0.  1.
     999902    2    1    2    0    0  0.15234457927E-01 -0.54351427048E-02  0.16955340508E-01  0.10204968385E+01  0.10202277610E+01 0.  0.
     999903    2    3    3    0    0  0.88178670698E-01  0.72810245517E-01 -0.59969846198E-01  0.13068748631E+00  0.20150106873E-01 0.  0.
         14    1    1    2    0    0 -0.15234457927E-01  0.54351427048E-02 -0.16955340508E-01  0.23433161465E-01  0.00000000000E+00 0. -1.
     999901    1    3    3    0    0 -0.72944212771E-01 -0.78245388222E-01  0.76925186705E-01  0.88980935222E+00  0.88000000000E+00 0. -1.
        -11    1    4    4    0    0  0.73737617924E-01  0.50657697155E-01 -0.42981795288E-01  0.99252881194E-01  0.51100000000E-03 0.  1.
         11    1    4    4    0    0  0.14441052774E-01  0.22152548362E-01 -0.16988050910E-01  0.31434605117E-01  0.51100000000E-03 0. -1.
</event>
<event>
 8    1  0.1143957E+005  0.1043930E+01  0.7957747E-01            NaN
         13   -1    0    0    0    0  0.00000000000E+00  0.00000000000E+00  0.74505805969E-08  0.10566000000E+00  0.10566000000E+00 0.  1.
     999900   -1    0    0    0    0 -0.00000000000E+00 -0.00000000000E+00 -0.74505805969E-08  0.93827000000E+00  0.93827000000E+00 0.  1.
     999902    2    1    2    0    0 -0.20520839942E-02  0.96960307786E-02 -0.21593660038E-01  0.10201705763E+01  0.10198938643E+01 0.  0.
     999903    2    3    3    0    0  0.89871116157E-01  0.85825706847E-01  0.34577387531E-01  0.13033868829E+00  0.18700493617E-01 0.  0.
         14    1    1    2    0    0  0.20520839942E-02 -0.96960307786E-02  0.21593660038E-01  0.23759423718E-01  0.00000000000E+00 0.  1.
     999901    1    3    3    0    0 -0.91923200151E-01 -0.76129676068E-01 -0.56171047569E-01  0.88983188799E+00  0.88000000000E+00 0.  1.
        -11    1    4    4    0    0  0.83191331905E-01  0.83098823519E-01  0.28748637182E-01  0.12104940080E+00  0.51100000000E-03 0. -1.
         11    1    4    4    0    0  0.66797842520E-02  0.27268833277E-02  0.58287503499E-02  0.92892874849E-02  0.51100000000E-03 0.  1.
</event>
<event>
 8    1  0.1143957E+005  0.1043930E+01  0.7957747E-01            NaN
         13   -1    0    0    0    0  0.00000000000E+00  0.00000000000E+00  0.74505805969E-08  0.10566000000E+00  0.10566000000E+00 0. -1.
     999900   -1    0    0    0    0 -0.00000000000E+00 -0.00000000000E+00 -0.74505805969E-08  0.93827000000E+00  0.93827000000E+00 0. -1.
     999902    2    1    2    0    0  0.20788951591E-02 -0.21303117097E-01  0.91781244832E-02  0.10206408916E+01  0.10203751501E+01 0.  0.
     999903    2    3    3    0    0 -0.51774094157E-02  0.23560588850E-01 -0.12534410186E+00  0.12925902308E+00  0.20367725964E-01 0.  0.
         14    1    1    2    0    0 -0.20788951591E-02  0.21303117097E-01 -0.91781244832E-02  0.23289108445E-01  0.00000000000E+00 0.  1.
     999901    1    3    3    0    0  0.72563045748E-02 -0.44863705947E-01  0.13452222634E+00  0.89138186848E+00  0.88000000000E+00 0.  1.
        -11    1    4    4    0    0  0.75231509136E-02  0.63058528367E-02 -0.48279428994E-01  0.49269929619E-01  0.51100000000E-03 0. -1.
         11    1    4    4    0    0 -0.12700560329E-01  0.17254736013E-01 -0.77064672866E-01  0.79989093460E-01  0.51100000000E-03 0.  1.
</event>
<event>
 8    1  0.1143957E+005  0.1043930E+01  0.7957747E-01            NaN
         13   -1    0    0    0    0  0.00000000000E+00  0.00000000000E+00  0.74505805969E-08  0.10566000000E+00  0.10566000000E+00 0.  1.
     999900   -1    0    0    0    0 -0.00000000000E+00 -0.00000000000E+00 -0.74505805969E-08  0.93827000000E+00  0.93827000000E+00 0. -1.
     999902    2    1    2    0    0 -0.30638173437E-02 -0.90682553655E-03  0.23265648974E-01  0.10204459686E+01  0.10201757079E+01 0.  0.
     999903    2    3    3    0    0  0.10857845980E+00 -0.20365713298E-02  0.72374794694E-01  0.13203334904E+00  0.20031594961E-01 0.  0.
         14    1    1    2    0    0  0.30638173437E-02  0.90682553655E-03 -0.23265648974E-01  0.23484031414E-01  0.00000000000E+00 0. -1.
     999901    1    3    3    0    0 -0.11164227714E+00  0.11297457933E-02 -0.49109145719E-01  0.88841261954E+00  0.88000000000E+00 0. -1.
        -11    1    4    4    0    0  0.99689855501E-02  0.54454272278E-02  0.97459859762E-02  0.14975937842E-01  0.51100000000E-03 0.  1.
         11    1    4    4    0    0  0.98609474251E-01 -0.74819985577E-02  0.62628808717E-01  0.11705741120E+00  0.51100000000E-03 0. -1.
</event>
<event>
 8    1  0.1143957E+005  0.1043930E+01  0.7957747E-01            NaN
         13   -1    0    0    0    0  0.00000000000E+00  0.00000000000E+00  0.74505805969E-08  0.10566000000E+00  0.10566000000E+00 0.  1.
     999900   -1    0    0    0    0 -0.00000000000E+00 -0.00000000000E+00 -0.74505805969E-08  0.93827000000E+00  0.93827000000E+00 0. -1.
     999902    2    1    2    0    0 -0.11119479804E-01 -0.85124999867E-02 -0.18749571451E-01  0.10205280360E+01  0.10202596828E+01 0.  0.
     999903    2    3    3    0    0  0.89503795294E-01 -0.85535890857E-01 -0.38723050815E-01  0.13122685753E+00  0.19841760936E-01 0.  0.
         14    1    1    2    0    0  0.11119479804E-01  0.85124999867E-02  0.18749571451E-01  0.23401963950E-01  0.00000000000E+00 0.  1.
     999901    1    3    3    0    0 -0.10062327510E+00  0.77023390870E-01  0.19973479364E-01  0.88930117852E+00  0.88000000000E+00 0.  1.
        -11    1    4    4    0    0  0.31173034831E-01 -0.26480792000E-01 -0.34985055022E-02  0.41054733068E-01  0.51100000000E-03 0. -1.
         11    1    4    4    0    0  0.58330760463E-01 -0.59055098857E-01 -0.35224545313E-01  0.90172124466E-01  0.51100000000E-03 0.  1.
</event>
<event>
 8    1  0.1143957E+005  0.1043930E+01  0.7957747E-01            NaN
         13   -1    0    0    0    0  0.00000000000E+00  0.00000000000E+00  0.74505805969E-08  0.10566000000E+00  0.10566000000E+00 0. -1.
     999900   -1    0    0    0    0 -0.00000000000E+00 -0.00000000000E+00 -0.74505805969E-08  0.93827000000E+00  0.93827000000E+00 0. -1.
     999902    2    1    2    0    0 -0.10076371151E-01  0.20346109242E-01  0.79861096373E-02  0.10198618600E+01  0.10195778235E+01 0.  0.
     999903    2    3    3    0    0  0.11548864598E+00  0.52045984492E-01 -0.22013379519E-01  0.12987791351E+00  0.18364958167E-01 0.  0.
         14    1    1    2    0    0  0.10076371151E-01 -0.20346109242E-01 -0.79861096373E-02  0.24068140019E-01  0.00000000000E+00 0.  1.
     999901    1    3    3    0    0 -0.12556501713E+00 -0.31699875250E-01  0.29999489156E-01  0.88998394647E+00  0.88000000000E+00 0.  1.
        -11    1    4    4    0    0  0.58060461475E-01  0.16445232159E-01 -0.80611111245E-02  0.60882719067E-01  0.51100000000E-03 0. -1.
         11    1    4    4    0    0  0.57428184507E-01  0.35600752333E-01 -0.13952268394E-01  0.68995194447E-01  0.51100000000E-03 0.  1.
</event>
<event>
 8    1  0.1143957E+005  0.1043930E+01  0.7957747E-01            NaN
         13   -1    0    0    0    0  0.00000000000E+00  0.00000000000E+00  0.74505805969E-08  0.10566000000E+00  0.10566000000E+00 0.  1.
     999900   -1    0    0    0    0 -0.00000000000E+00 -0.00000000000E+00 -0.74505805969E-08  0.93827000000E+00  0.93827000000E+00 0.  1.
     999902    2    1    2    0    0  0.46927506722E-02 -0.11771682001E-01  0.20573805117E-01  0.10197664766E+01  0.10194801572E+01 0.  0.
     999903    2    3    3    0    0 -0.57602786375E-01 -0.74252417267E-02  0.11663396620E+00  0.13233919506E+00  0.23172510991E-01 0.  0.
         14    1    1    2    0    0 -0.46927506722E-02  0.11771682001E-01 -0.20573805117E-01  0.24163523398E-01  0.00000000000E+00 0. -1.
     999901    1    3    3    0    0  0.62295537047E-01 -0.43464402744E-02 -0.96060161079E-01  0.88742728154E+00  0.88000000000E+00 0.  1.
        -11    1    4    4    0    0 -0.11913033118E-01 -0.37466767197E-02  0.49458613478E-01  0.51013464033E-01  0.51100000000E-03 0.  1.
         11    1    4    4    0    0 -0.45689753257E-01 -0.36785650070E-02  0.67175352718E-01  0.81325731027E-01  0.51100000000E-03 0. -1.
</event>
<event>
 8    1  0.1143957E+005  0.1043930E+01  0.7957747E-01            NaN
         13   -1    0    0    0    0  0.00000000000E+00  0.00000000000E+00  0.74505805969E-08  0.10566000000E+00  0.10566000000E+00 0.  1.
     999900   -1    0    0    0    0 -0.00000000000E+00 -0.00000000000E+00 -0.74505805969E-08  0.93827000000E+00  0.93827000000E+00 0. -1.
     999902    2    1    2    0    0 -0.30305510012E-02 -0.65281571016E-02 -0.21912470576E-01  0.10208657974E+01  0.10206052219E+01 0.  0.
     999903    2    3    3    0    0 -0.10168678436E+00 -0.37562914887E-01  0.68746221458E-01  0.13018335848E+00  0.21690762381E-01 0.  0.
         14    1    1    2    0    0  0.30305510012E-02  0.65281571016E-02  0.21912470576E-01  0.23064202593E-01  0.00000000000E+00 0.  1.
     999901    1    3    3    0    0  0.98656233356E-01  0.31034757785E-01 -0.90658692034E-01  0.89068243893E+00  0.88000000000E+00 0. -1.
        -11    1    4    4    0    0 -0.39427378423E-01 -0.21893275732E-01  0.38105713014E-01  0.59043544752E-01  0.51100000000E-03 0.  1.
         11    1    4    4    0    0 -0.62259405935E-01 -0.15669639155E-01  0.30640508444E-01  0.71139813728E-01  0.51100000000E-03 0. -1.
</event>
<event>
 8    1  0.1143957E+005  0.1043930E+01  0.7957747E-01            NaN
         13   -1    0    0    0    0  0.00000000000E+00  0.00000000000E+00  0.74505805969E-08  0.10566000000E+00  0.10566000000E+00 0.  1.
     999900   -1    0    0    0    0 -0.00000000000E+00 -0.00000000000E+00 -0.74505805969E-08  0.93827000000E+00  0.93827000000E+00 0. -1.
     999902    2    1    2    0    0 -0.19652003022E-01  0.10955305767E-01  0.34150741697E-02  0.10211729642E+01  0.10209193602E+01 0.  0.
     999903    2    3    3    0    0  0.98144710680E-01 -0.80065812538E-01 -0.10319249541E-01  0.12856468427E+00  0.19480055402E-01 0.  0.
         14    1    1    2    0    0  0.19652003022E-01 -0.10955305767E-01 -0.34150741697E-02  0.22757035809E-01  0.00000000000E+00 0. -1.
     999901    1    3    3    0    0 -0.11779671370E+00  0.91021118305E-01  0.13734323710E-01  0.89260827992E+00  0.88000000000E+00 0. -1.
        -11    1    4    4    0    0  0.82593584614E-01 -0.70275405138E-01 -0.15295555484E-01  0.10951962347E+00  0.51100000000E-03 0. -1.
         11    1    4    4    0    0  0.15551126066E-01 -0.97904074003E-02  0.49763059437E-02  0.19045060799E-01  0.51100000000E-03 0.  1.
</event>
<event>
 8    1  0.1143957E+005  0.1043930E+01  0.7957747E-01            NaN
         13   -1    0    0    0    0  0.00000000000E+00  0.00000000000E+00  0.74505805969E-08  0.10566000000E+00  0.10566000000E+00 0.  1.
     999900   -1    0    0    0    0 -0.00000000000E+00 -0.00000000000E+00 -0.74505805969E-08  0.93827000000E+00  0.93827000000E+00 0. -1.
     999902    2    1    2    0    0  0.16590109085E-01  0.11551333488E-01  0.12731294763E-01  0.10200396067E+01  0.10197597994E+01 0.  0.
     999903    2    3    3    0    0 -0.53735813898E-01  0.60810335165E-01  0.10139376569E+00  0.13142651969E+00  0.20169278592E-01 0.  0.
         14    1    1    2    0    0 -0.16590109085E-01 -0.11551333488E-01 -0.12731294763E-01  0.23890393282E-01  0.00000000000E+00 0. -1.
     999901    1    3    3    0    0  0.70325922983E-01 -0.49259001678E-01 -0.88662470925E-01  0.88861308703E+00  0.88000000000E+00 0. -1.
        -11    1    4    4    0    0 -0.38461670175E-01  0.30735107342E-01  0.51999021041E-01  0.71610796715E-01  0.51100000000E-03 0. -1.
         11    1    4    4    0    0 -0.15274143723E-01  0.30075227823E-01  0.49394744647E-01  0.59815722973E-01  0.51100000000E-03 0.  1.
</event>
<event>
 8    1  0.1143957E+005  0.1043930E+01  0.7957747E-01            NaN
         13   -1    0    0    0    0  0.00000000000E+00  0.00000000000E+00  0.74505805969E-08  0.10566000000E+00  0.10566000000E+00 0.  1.
     999900   -1    0    0    0    0 -0.00000000000E+00 -0.00000000000E+00 -0.74505805969E-08  0.93827000000E+00  0.93827000000E+00 0.  1.
     999902    2    1    2    0    0 -0.43701296882E-03  0.15358276796E-01  0.74530363981E-02  0.10268532498E+01  0.10267112453E+01 0.  0.
     999903    2    3    3    0    0  0.11804136664E+00  0.67587695346E-01  0.61909390267E-02  0.13737776868E+00  0.18233562430E-01 0.  0.
         14    1    1    2    0    0  0.43701296882E-03 -0.15358276796E-01 -0.74530363981E-02  0.17076750218E-01  0.00000000000E+00 0. -1.
     999901    1    3    3    0    0 -0.11847837961E+00 -0.52229418551E-01  0.12620973714E-02  0.88947548111E+00  0.88000000000E+00 0. -1.
        -11    1    4    4    0    0  0.30355217435E-01  0.11175541028E-01 -0.40777496340E-02  0.32607071409E-01  0.51100000000E-03 0. -1.
         11    1    4    4    0    0  0.87686149210E-01  0.56412154319E-01  0.10268688661E-01  0.10477069727E+00  0.51100000000E-03 0.  1.
</event>
<event>
 7    1  0.1143957E+005  0.1043930E+01  0.7957747E-01            NaN
         13   -1    0    0    0    0  0.00000000000E+00  0.00000000000E+00  0.74505805969E-08  0.10566000000E+00  0.10566000000E+00 0.  1.
     999900   -1    0    0    0    0 -0.00000000000E+00 -0.00000000000E+00 -0.74505805969E-08  0.93827000000E+00  0.93827000000E+00 0. -1.
     999902    2    1    2    0    0  0.20421373569E-01 -0.87398384908E-02 -0.83240391349E-02  0.10202085561E+01  0.10199327384E+01 0.  0.
         14    1    1    2    0    0 -0.20421373569E-01  0.87398384908E-02  0.83240391349E-02  0.23721443944E-01  0.00000000000E+00 0. -1.
     999901    1    3    3    0    0 -0.79846129035E-02 -0.11214036546E-02 -0.12892389636E+00  0.88943036976E+00  0.88000000000E+00 0. -1.
        -11    1    3    3    0    0  0.23099547744E-01 -0.56367527587E-02  0.23240093815E-01  0.33252446063E-01  0.51100000000E-03 0. -1.
         11    1    3    3    0    0  0.53064387284E-02 -0.19816820774E-02  0.97359763414E-01  0.97525740237E-01  0.51100000000E-03 0.  1.
</event>
<event>
 8    1  0.1143957E+005  0.1043930E+01  0.7957747E-01            NaN
         13   -1    0    0    0    0  0.00000000000E+00  0.00000000000E+00  0.74505805969E-08  0.10566000000E+00  0.10566000000E+00 0.  1.
     999900   -1    0    0    0    0 -0.00000000000E+00 -0.00000000000E+00 -0.74505805969E-08  0.93827000000E+00  0.93827000000E+00 0. -1.
     999902    2    1    2    0    0  0.23252478120E-01  0.60559896926E-02  0.36794903137E-02  0.10196217422E+01  0.10193319409E+01 0.  0.
     999903    2    3    3    0    0  0.85775020964E-01 -0.91135323654E-01  0.35116990182E-01  0.13150939784E+00  0.19962897613E-01 0.  0.
         14    1    1    2    0    0 -0.23252478120E-01 -0.60559896926E-02 -0.36794903137E-02  0.24308257833E-01  0.00000000000E+00 0. -1.
     999901    1    3    3    0    0 -0.62522542844E-01  0.97191313346E-01 -0.31437499868E-01  0.88811234433E+00  0.88000000000E+00 0. -1.
        -11    1    4    4    0    0  0.73970847230E-01 -0.66883736368E-01  0.28823617321E-01  0.10380839305E+00  0.51100000000E-03 0. -1.
         11    1    4    4    0    0  0.11804173735E-01 -0.24251587286E-01  0.62933728606E-02  0.27701004791E-01  0.51100000000E-03 0.  1.
</event>
<event>
 8    1  0.1143957E+005  0.1043930E+01  0.7957747E-01            NaN
         13   -1    0    0    0    0  0.00000000000E+00  0.00000000000E+00  0.74505805969E-08  0.10566000000E+00  0.10566000000E+00 0.  1.
     999900   -1    0    0    0    0 -0.00000000000E+00 -0.00000000000E+00 -0.74505805969E-08  0.93827000000E+00  0.93827000000E+00 0.  1.
     999902    2    1    2    0    0 -0.17247681890E-02 -0.24839201155E-01  0.45743203289E-02  0.10186142905E+01  0.10182996552E+01 0.  0.
     999903    2    3    3    0    0  0.75116370446E-01 -0.36957016378E-01 -0.96746542558E-01  0.12939141673E+00  0.19337917645E-01 0.  0.
         14    1    1    2    0    0  0.17247681890E-02  0.24839201155E-01 -0.45743203289E-02  0.25315709466E-01  0.00000000000E+00 0. -1.
     999901    1    3    3    0    0 -0.76841138635E-01  0.12117815224E-01  0.10132086289E+00  0.88922287380E+00  0.88000000000E+00 0. -1.
        -11    1    4    4    0    0  0.36328194792E-02 -0.75736268979E-02 -0.12435294495E-01  0.15015154743E-01  0.51100000000E-03 0.  1.
         11    1    4    4    0    0  0.71483550966E-01 -0.29383389480E-01 -0.84311248063E-01  0.11437626199E+00  0.51100000000E-03 0. -1.
</event>
<event>
 8    1  0.1143957E+005  0.1043930E+01  0.7957747E-01            NaN
         13   -1    0    0    0    0  0.00000000000E+00  0.00000000000E+00  0.74505805969E-08  0.10566000000E+00  0.10566000000E+00 0.  1.
     999900   -1    0    0    0    0 -0.00000000000E+00 -0.00000000000E+00 -0.74505805969E-08  0.93827000000E+00  0.93827000000E+00 0. -1.
     999902    2    1    2    0    0  0.15193501543E-01 -0.17763501513E-01  0.54113381608E-02  0.10199369373E+01  0.10196546911E+01 0.  0.
     999903    2    3    3    0    0 -0.75566668599E-01 -0.48629018840E-01  0.91668489704E-01  0.13053804773E+00  0.23705843679E-01 0.  0.
         14    1    1    2    0    0 -0.15193501543E-01  0.17763501513E-01 -0.54113381608E-02  0.23993062661E-01  0.00000000000E+00 0. -1.
     999901    1    3    3    0    0  0.90760170141E-01  0.30865517326E-01 -0.86257151543E-01  0.88939888961E+00  0.88000000000E+00 0.  1.
        -11    1    4    4    0    0 -0.71622963252E-01 -0.41752058421E-01  0.73845287742E-01  0.11102464091E+00  0.51100000000E-03 0.  1.
         11    1    4    4    0    0 -0.39437053470E-02 -0.68769604190E-02  0.17823201961E-01  0.19513406817E-01  0.51100000000E-03 0. -1.
</event>
<event>
 8    1  0.1143957E+005  0.1043930E+01  0.7957747E-01            NaN
         13   -1    0    0    0    0  0.00000000000E+00  0.00000000000E+00  0.74505805969E-08  0.10566000000E+00  0.10566000000E+00 0.  1.
     999900   -1    0    0    0    0 -0.00000000000E+00 -0.00000000000E+00 -0.74505805969E-08  0.93827000000E+00  0.93827000000E+00 0.  1.
     999902    2    1    2    0    0 -0.47773766395E-03 -0.23182528219E-01 -0.38290806783E-02  0.10204285169E+01  0.10201578498E+01 0.  0.
     999903    2    3    3    0    0  0.60754023011E-01  0.88976758727E-01  0.67141788537E-01  0.12837140079E+00  0.19059954570E-01 0.  0.
         14    1    1    2    0    0  0.47773766395E-03  0.23182528219E-01  0.38290806783E-02  0.23501483075E-01  0.00000000000E+00 0.  1.
     999901    1    3    3    0    0 -0.61231760675E-01 -0.11215928695E+00 -0.70970869215E-01  0.89205711613E+00  0.88000000000E+00 0.  1.
        -11    1    4    4    0    0  0.14754107004E-01  0.15577000089E-01  0.21826514147E-01  0.30610201667E-01  0.51100000000E-03 0.  1.
         11    1    4    4    0    0  0.45999916007E-01  0.73399758637E-01  0.45315274390E-01  0.97761199127E-01  0.51100000000E-03 0. -1.
</event>
<event>
 8    1  0.1143957E+005  0.1043930E+01  0.7957747E-01            NaN
         13   -1    0    0    0    0  0.00000000000E+00  0.00000000000E+00  0.74505805969E-08  0.10566000000E+00  0.10566000000E+00 0.  1.
     999900   -1    0    0    0    0 -0.00000000000E+00 -0.00000000000E+00 -0.74505805969E-08  0.93827000000E+00  0.93827000000E+00 0. -1.
     999902    2    1    2    0    0 -0.17888966211E-01  0.20155483330E-02 -0.17106311692E-01  0.10190964854E+01  0.10187938668E+01 0.  0.
     999903    2    3    3    0    0 -0.38309313538E-01 -0.65288191222E-02  0.12059893767E+00  0.12811234835E+00  0.18932539445E-01 0.  0.
         14    1    1    2    0    0  0.17888966211E-01 -0.20155483330E-02  0.17106311692E-01  0.24833514590E-01  0.00000000000E+00 0.  1.
     999901    1    3    3    0    0  0.20420347327E-01  0.85443674552E-02 -0.13770524936E+00  0.89098413706E+00  0.88000000000E+00 0. -1.
        -11    1    4    4    0    0 -0.17778022232E-01 -0.56344412787E-02  0.84826135128E-01  0.86853551020E-01  0.51100000000E-03 0.  1.
         11    1    4    4    0    0 -0.20531291306E-01 -0.89437784352E-03  0.35772802537E-01  0.41258797325E-01  0.51100000000E-03 0. -1.
</event>
<event>
 7    1  0.1143957E+005  0.1043930E+01  0.7957747E-01            NaN
         13   -1    0    0    0    0  0.00000000000E+00  0.00000000000E+00  0.74505805969E-08  0.10566000000E+00  0.10566000000E+00 0. -1.
     999900   -1    0    0    0    0 -0.00000000000E+00 -0.00000000000E+00 -0.74505805969E-08  0.93827000000E+00  0.93827000000E+00 0. -1.
     999903    2    1    2    0    0  0.77317750957E-01 -0.24582247313E-01 -0.47633522340E-01  0.96256325992E-01  0.20347145918E-01 0.  0.
         14    1    1    2    0    0 -0.19267930540E-01  0.52184986395E-01 -0.27654059813E-01  0.62123047064E-01  0.00000000000E+00 0.  1.
     999901    1    1    2    0    0 -0.58049820417E-01 -0.27602739082E-01  0.75287582152E-01  0.88555062694E+00  0.88000000000E+00 0.  1.
        -11    1    3    3    0    0  0.10724732109E-01 -0.66892815714E-02 -0.36787882193E-03  0.12655545132E-01  0.51100000000E-03 0.  1.
         11    1    3    3    0    0  0.66593018848E-01 -0.17892965742E-01 -0.47265643518E-01  0.83600780860E-01  0.51100000000E-03 0. -1.
</event>
<event>
 7    1  0.1143957E+005  0.1043930E+01  0.7957747E-01            NaN
         13   -1    0    0    0    0  0.00000000000E+00  0.00000000000E+00  0.74505805969E-08  0.10566000000E+00  0.10566000000E+00 0.  1.
     999900   -1    0    0    0    0 -0.00000000000E+00 -0.00000000000E+00 -0.74505805969E-08  0.93827000000E+00  0.93827000000E+00 0. -1.
     999903    2    1    2    0    0 -0.52286541993E-02 -0.98476080120E-01 -0.49159244205E-01  0.11201945115E+00  0.20170497401E-01 0.  0.
         14    1    1    2    0    0  0.16320350388E-01 -0.29438910449E-01 -0.21256141273E-01  0.39809883535E-01  0.00000000000E+00 0. -1.
     999901    1    1    2    0    0 -0.11091696189E-01  0.12791499057E+00  0.70415385478E-01  0.89210066531E+00  0.88000000000E+00 0.  1.
        -11    1    3    3    0    0 -0.24086973728E-02 -0.55960740031E-01 -0.16694923673E-01  0.58449874639E-01  0.51100000000E-03 0.  1.
         11    1    3    3    0    0 -0.28199568265E-02 -0.42515340089E-01 -0.32464320531E-01  0.53569576515E-01  0.51100000000E-03 0. -1.
</event>
<event>
 8    1  0.1143957E+005  0.1043930E+01  0.7957747E-01            NaN
         13   -1    0    0    0    0  0.00000000000E+00  0.00000000000E+00  0.74505805969E-08  0.10566000000E+00  0.10566000000E+00 0. -1.
     999900   -1    0    0    0    0 -0.00000000000E+00 -0.00000000000E+00 -0.74505805969E-08  0.93827000000E+00  0.93827000000E+00 0.  1.
     999902    2    1    2    0    0  0.14015718298E-01 -0.56287180175E-02  0.18975729082E-01  0.10196771420E+01  0.10193886760E+01 0.  0.
     999903    2    3    3    0    0  0.19834321347E-01 -0.10206428893E+00  0.79362096063E-01  0.13233268309E+00  0.20076786196E-01 0.  0.
         14    1    1    2    0    0 -0.14015718298E-01  0.56287180175E-02 -0.18975729082E-01  0.24252857978E-01  0.00000000000E+00 0. -1.
     999901    1    3    3    0    0 -0.58186030489E-02  0.96435570914E-01 -0.60386366981E-01  0.88734445893E+00  0.88000000000E+00 0.  1.
        -11    1    4    4    0    0  0.10309270577E-01 -0.84086813580E-01  0.57067405555E-01  0.10214608742E+00  0.51100000000E-03 0. -1.
         11    1    4    4    0    0  0.95250507693E-02 -0.17977475351E-01  0.22294690508E-01  0.30186595668E-01  0.51100000000E-03 0.  1.
</event>
<event>
 8    1  0.1143957E+005  0.1043930E+01  0.7957747E-01            NaN
         13   -1    0    0    0    0  0.00000000000E+00  0.00000000000E+00  0.74505805969E-08  0.10566000000E+00  0.10566000000E+00 0.  1.
     999900   -1    0    0    0    0 -0.00000000000E+00 -0.00000000000E+00 -0.74505805969E-08  0.93827000000E+00  0.93827000000E+00 0.  1.
     999902    2    1    2    0    0 -0.14184579768E-01 -0.15380139178E-01 -0.10357859282E-01  0.10205839889E+01  0.10203169322E+01 0.  0.
     999903    2    3    3    0    0 -0.35276000289E-01  0.91936726658E-01 -0.83696263897E-01  0.13078610215E+00  0.20079392925E-01 0.  0.
         14    1    1    2    0    0  0.14184579768E-01  0.15380139178E-01  0.10357859282E-01  0.23346011078E-01  0.00000000000E+00 0. -1.
     999901    1    3    3    0    0  0.21091420520E-01 -0.10731686584E+00  0.73338404615E-01  0.88979788677E+00  0.88000000000E+00 0. -1.
        -11    1    4    4    0    0 -0.77488618953E-02  0.31891555758E-01 -0.17200556256E-01  0.37057205047E-01  0.51100000000E-03 0.  1.
         11    1    4    4    0    0 -0.27527138393E-01  0.60045170900E-01 -0.66495707641E-01  0.93728897103E-01  0.51100000000E-03 0. -1.
</event>
<event>
 8    1  0.1143957E+005  0.1043930E+01  0.7957747E-01            NaN
         13   -1    0    0    0    0  0.00000000000E+00  0.00000000000E+00  0.74505805969E-08  0.10566000000E+00  0.10566000000E+00 0.  1.
     999900   -1    0    0    0    0 -0.00000000000E+00 -0.00000000000E+00 -0.74505805969E-08  0.93827000000E+00  0.93827000000E+00 0.  1.
     999902    2    1    2    0    0  0.49495038278E-02  0.17305386866E-01  0.85630591368E-02  0.10239976147E+01  0.10238036017E+01 0.  0.
     999903    2    3    3    0    0 -0.89391973836E-02  0.65946911846E-01  0.11685572714E+00  0.13591755302E+00  0.19733621588E-01 0.  0.
         14    1    1    2    0    0 -0.49495038278E-02 -0.17305386866E-01 -0.85630591368E-02  0.19932385319E-01  0.00000000000E+00 0. -1.
     999901    1    3    3    0    0  0.13888701211E-01 -0.48641524979E-01 -0.10829266801E+00  0.88808006166E+00  0.88000000000E+00 0.  1.
        -11    1    4    4    0    0 -0.12754313617E-01  0.45803387151E-01  0.68426517554E-01  0.83325099555E-01  0.51100000000E-03 0. -1.
         11    1    4    4    0    0  0.38151162337E-02  0.20143524695E-01  0.48429209590E-01  0.52592453466E-01  0.51100000000E-03 0.  1.
</event>
<event>
 8    1  0.1143957E+005  0.1043930E+01  0.7957747E-01            NaN
         13   -1    0    0    0    0  0.00000000000E+00  0.00000000000E+00  0.74505805969E-08  0.10566000000E+00  0.10566000000E+00 0.  1.
     999900   -1    0    0    0    0 -0.00000000000E+00 -0.00000000000E+00 -0.74505805969E-08  0.93827000000E+00  0.93827000000E+00 0.  1.
     999902    2    1    2    0    0  0.27240120462E-03 -0.11063987774E-01  0.19776887650E-01  0.10212670056E+01  0.10210155168E+01 0.  0.
     999903    2    3    3    0    0  0.10567421030E-01 -0.77560327037E-01 -0.10220751013E+00  0.13030800330E+00  0.20162486925E-01 0.  0.
         14    1    1    2    0    0 -0.27240120462E-03  0.11063987774E-01 -0.19776887650E-01  0.22662994352E-01  0.00000000000E+00 0. -1.
     999901    1    3    3    0    0 -0.10295019826E-01  0.66496339263E-01  0.12198439778E+00  0.89095900235E+00  0.88000000000E+00 0. -1.
        -11    1    4    4    0    0 -0.51150186670E-02 -0.36612424660E-01 -0.45777362026E-01  0.58842680518E-01  0.51100000000E-03 0. -1.
         11    1    4    4    0    0  0.15682439697E-01 -0.40947902377E-01 -0.56430148103E-01  0.71465322779E-01  0.51100000000E-03 0.  1.
</event>
<event>
 8    1  0.1143957E+005  0.1043930E+01  0.7957747E-01            NaN
         13   -1    0    0    0    0  0.00000000000E+00  0.00000000000E+00  0.74505805969E-08  0.10566000000E+00  0.10566000000E+00 0.  1.
     999900   -1    0    0    0    0 -0.00000000000E+00 -0.00000000000E+00 -0.74505805969E-08  0.93827000000E+00  0.93827000000E+00 0. -1.
     999902    2    1    2    0    0 -0.13614383092E-01 -0.16865878458E-01  0.92731888229E-02  0.10203545612E+01  0.10200821679E+01 0.  0.
     999903    2    3    3    0    0 -0.59853023596E-01  0.41994988893E-01  0.10779530929E+00  0.13169871005E+00  0.19461705963E-01 0.  0.
         14    1    1    2    0    0  0.13614383092E-01  0.16865878458E-01 -0.92731888229E-02  0.23575438789E-01  0.00000000000E+00 0. -1.
     999901    1    3    3    0    0  0.46238640503E-01 -0.58860867351E-01 -0.98522120464E-01  0.88865585116E+00  0.88000000000E+00 0. -1.
        -11    1    4    4    0    0 -0.47972858910E-01  0.33056787463E-01  0.69952903610E-01  0.91037444130E-01  0.51100000000E-03 0.  1.
         11    1    4    4    0    0 -0.11880164686E-01  0.89382014299E-02  0.37842405678E-01  0.40661265920E-01  0.51100000000E-03 0. -1.
</event>
<event>
 8    1  0.1364956E+005  0.1043930E+01  0.7957747E-01            NaN
         13   -1    0    0    0    0  0.00000000000E+00  0.00000000000E+00  0.74505805969E-08  0.10566000000E+00  0.10566000000E+00 0. -1.
     999900   -1    0    0    0    0 -0.00000000000E+00 -0.00000000000E+00 -0.74505805969E-08  0.93827000000E+00  0.93827000000E+00 0. -1.
     999902    2    1    2    0    0  0.16379402678E-01  0.60769335112E-02  0.16849928638E-01  0.10196579163E+01  0.10193689873E+01 0.  0.
     999903    2    3    3    0    0 -0.32824427650E-01  0.15647064005E-01  0.12485012227E+00  0.13163953463E+00  0.20472918358E-01 0.  0.
         14    1    1    2    0    0 -0.16379402678E-01 -0.60769335112E-02 -0.16849928638E-01  0.24272083720E-01  0.00000000000E+00 0.  1.
     999901    1    3    3    0    0  0.49203830328E-01 -0.95701304941E-02 -0.10800019363E+00  0.88801838165E+00  0.88000000000E+00 0. -1.
        -11    1    4    4    0    0 -0.73918610351E-02  0.28290584743E-02  0.63567975691E-01  0.64060844795E-01  0.51100000000E-03 0. -1.
         11    1    4    4    0    0 -0.25432566614E-01  0.12818005531E-01  0.61282146577E-01  0.67578689840E-01  0.51100000000E-03 0.  1.
</event>
<event>
 8    1  0.1143957E+005  0.1043930E+01  0.7957747E-01            NaN
         13   -1    0    0    0    0  0.00000000000E+00  0.00000000000E+00  0.74505805969E-08  0.10566000000E+00  0.10566000000E+00 0.  1.
     999900   -1    0    0    0    0 -0.00000000000E+00 -0.00000000000E+00 -0.74505805969E-08  0.93827000000E+00  0.93827000000E+00 0. -1.
     999902    2    1    2    0    0 -0.47381296599E-02 -0.18643517454E-01 -0.15106477986E-01  0.10194711306E+01  0.10191776831E+01 0.  0.
     999903    2    3    3    0    0 -0.10074961750E+00  0.54407986908E-01  0.54376955519E-01  0.12852630872E+00  0.21247218076E-01 0.  0.
         14    1    1    2    0    0  0.47381296599E-02  0.18643517454E-01  0.15106477986E-01  0.24458869411E-01  0.00000000000E+00 0.  1.
     999901    1    3    3    0    0  0.96011487838E-01 -0.73051504361E-01 -0.69483433505E-01  0.89094482187E+00  0.88000000000E+00 0. -1.
        -11    1    4    4    0    0 -0.17190751654E-01  0.40831432403E-02  0.19447972533E-02  0.17783063811E-01  0.51100000000E-03 0. -1.
         11    1    4    4    0    0 -0.83558865844E-01  0.50324843668E-01  0.52432158265E-01  0.11074324491E+00  0.51100000000E-03 0.  1.
</event>
<event>
 8    1  0.1143957E+005  0.1043930E+01  0.7957747E-01            NaN
         13   -1    0    0    0    0  0.00000000000E+00  0.00000000000E+00  0.74505805969E-08  0.10566000000E+00  0.10566000000E+00 0.  1.
     999900   -1    0    0    0    0 -0.00000000000E+00 -0.00000000000E+00 -0.74505805969E-08  0.93827000000E+00  0.93827000000E+00 0. -1.
     999902    2    1    2    0    0 -0.59722532259E-02 -0.13372248924E-01  0.18063390211E-01  0.10206755184E+01  0.10204105756E+01 0.  0.
     999903    2    3    3    0    0  0.39065691163E-01  0.11416096410E+00  0.43637582548E-01  0.12997513318E+00  0.20747112726E-01 0.  0.
         14    1    1    2    0    0  0.59722532259E-02  0.13372248924E-01 -0.18063390211E-01  0.23254481628E-01  0.00000000000E+00 0. -1.
     999901    1    3    3    0    0 -0.45037944389E-01 -0.12753321302E+00 -0.25574192337E-01  0.89070038519E+00  0.88000000000E+00 0. -1.
        -11    1    4    4    0    0  0.60824697234E-02  0.61541997031E-02 -0.59852446393E-03  0.86884960986E-02  0.51100000000E-03 0. -1.
         11    1    4    4    0    0  0.32983221439E-01  0.10800676439E+00  0.44236107011E-01  0.12128663709E+00  0.51100000000E-03 0.  1.
</event>
<event>
 8    1  0.1143957E+005  0.1043930E+01  0.7957747E-01            NaN
         13   -1    0    0    0    0  0.00000000000E+00  0.00000000000E+00  0.74505805969E-08  0.10566000000E+00  0.10566000000E+00 0.  1.
     999900   -1    0    0    0    0 -0.00000000000E+00 -0.00000000000E+00 -0.74505805969E-08  0.93827000000E+00  0.93827000000E+00 0.  1.
     999902    2    1    2    0    0  0.38911447730E-02  0.22259842622E-01  0.32228605684E-02  0.10211039528E+01  0.10208487909E+01 0.  0.
     999903    2    3    3    0    0  0.90699153759E-01  0.90554554637E-01 -0.31926020288E-01  0.13350311798E+00  0.19425444189E-01 0.  0.
         14    1    1    2    0    0 -0.38911447730E-02 -0.22259842622E-01 -0.32228605684E-02  0.22826047215E-01  0.00000000000E+00 0. -1.
     999901    1    3    3    0    0 -0.86808008986E-01 -0.68294712015E-01  0.35148880856E-01  0.88760083480E+00  0.88000000000E+00 0. -1.
        -11    1    4    4    0    0  0.62890058529E-01  0.52922495531E-01 -0.26665405447E-01  0.86413280019E-01  0.51100000000E-03 0.  1.
         11    1    4    4    0    0  0.27809095230E-01  0.37632059106E-01 -0.52606148410E-02  0.47089837966E-01  0.51100000000E-03 0. -1.
</event>
<event>
 8    1  0.1143957E+005  0.1043930E+01  0.7957747E-01            NaN
         13   -1    0    0    0    0  0.00000000000E+00  0.00000000000E+00  0.74505805969E-08  0.10566000000E+00  0.10566000000E+00 0.  1.
     999900   -1    0    0    0    0 -0.00000000000E+00 -0.00000000000E+00 -0.74505805969E-08  0.93827000000E+00  0.93827000000E+00 0.  1.
     999902    2    1    2    0    0 -0.73168495161E-03 -0.20011092984E-01 -0.13356054455E-01  0.10198600312E+01  0.10195759510E+01 0.  0.
     999903    2    3    3    0    0 -0.32759732102E-01 -0.87701314079E-01  0.89187118918E-01  0.13074650405E+00  0.19380031004E-01 0.  0.
         14    1    1    2    0    0  0.73168495161E-03  0.20011092984E-01  0.13356054455E-01  0.24069968755E-01  0.00000000000E+00 0.  1.
     999901    1    3    3    0    0  0.32028047150E-01  0.67690221095E-01 -0.10254317337E+00  0.88911352720E+00  0.88000000000E+00 0.  1.
        -11    1    4    4    0    0 -0.22937350198E-01 -0.67696647534E-01  0.56167685583E-01  0.90906700227E-01  0.51100000000E-03 0. -1.
         11    1    4    4    0    0 -0.98223819034E-02 -0.20004666545E-01  0.33019433335E-01  0.39839803822E-01  0.51100000000E-03 0.  1.
</event>
<event>
 8    1  0.1143957E+005  0.1043930E+01  0.7957747E-01            NaN
         13   -1    0    0    0    0  0.00000000000E+00  0.00000000000E+00  0.74505805969E-08  0.10566000000E+00  0.10566000000E+00 0. -1.
     999900   -1    0    0    0    0 -0.00000000000E+00 -0.00000000000E+00 -0.74505805969E-08  0.93827000000E+00  0.93827000000E+00 0.  1.
     999902    2    1    2    0    0  0.11137031623E-01 -0.18512895733E-01  0.82934361274E-02  0.10207882225E+01  0.10205258710E+01 0.  0.
     999903    2    3    3    0    0  0.63123458725E-01  0.88533426590E-01  0.69654201817E-01  0.13066090170E+00  0.19945544258E-01 0.  0.
         14    1    1    2    0    0 -0.11137031623E-01  0.18512895733E-01 -0.82934361274E-02  0.23141777473E-01  0.00000000000E+00 0.  1.
     999901    1    3    3    0    0 -0.51986427102E-01 -0.10704632232E+00 -0.61360765690E-01  0.89012732083E+00  0.88000000000E+00 0. -1.
        -11    1    4    4    0    0  0.30378874826E-01  0.26601911878E-01  0.22725500442E-01  0.46338399224E-01  0.51100000000E-03 0. -1.
         11    1    4    4    0    0  0.32744583898E-01  0.61931514712E-01  0.46928701376E-01  0.84322502471E-01  0.51100000000E-03 0.  1.
</event>
<event>
 7    1  0.1143957E+005  0.1043930E+01  0.7957747E-01            NaN
         13   -1    0    0    0    0  0.00000000000E+00  0.00000000000E+00  0.74505805969E-08  0.10566000000E+00  0.10566000000E+00 0. -1.
     999900   -1    0    0    0    0 -0.00000000000E+00 -0.00000000000E+00 -0.74505805969E-08  0.93827000000E+00  0.93827000000E+00 0.  1.
     999903    2    1    2    0    0 -0.81331178554E-01 -0.16300825774E-01 -0.49363140093E-01  0.10072265068E+00  0.28772473560E-01 0.  0.
         14    1    1    2    0    0  0.29149739448E-01 -0.50702126845E-02  0.53791255081E-01  0.61391477338E-01  0.00000000000E+00 0. -1.
     999901    1    1    2    0    0  0.52181439106E-01  0.21371038458E-01 -0.44281149883E-02  0.88181587198E+00  0.88000000000E+00 0. -1.
        -11    1    3    3    0    0 -0.60638348023E-01 -0.85817822446E-02 -0.49314492812E-01  0.78631015253E-01  0.51100000000E-03 0. -1.
         11    1    3    3    0    0 -0.20692830531E-01 -0.77190435292E-02 -0.48647281399E-04  0.22091635430E-01  0.51100000000E-03 0.  1.
</event>
<event>
 8    1  0.1143957E+005  0.1043930E+01  0.7957747E-01            NaN
         13   -1    0    0    0    0  0.00000000000E+00  0.00000000000E+00  0.74505805969E-08  0.10566000000E+00  0.10566000000E+00 0. -1.
     999900   -1    0    0    0    0 -0.00000000000E+00 -0.00000000000E+00 -0.74505805969E-08  0.93827000000E+00  0.93827000000E+00 0.  1.
     999902    2    1    2    0    0 -0.21515645842E-01 -0.95799857605E-02  0.74792500418E-03  0.10203660756E+01  0.10200939514E+01 0.  0.
     999903    2    3    3    0    0 -0.18099175221E-01  0.40148442842E-01  0.12142403490E+00  0.13073282956E+00  0.20194030516E-01 0.  0.
         14    1    1    2    0    0  0.21515645842E-01  0.95799857605E-02 -0.74792500418E-03  0.23563924439E-01  0.00000000000E+00 0.  1.
     999901    1    3    3    0    0 -0.34164706203E-02 -0.49728428602E-01 -0.12067610989E+00  0.88963324600E+00  0.88000000000E+00 0.  1.
        -11    1    4    4    0    0 -0.13178175299E-01  0.24450729008E-01  0.99578159897E-01  0.10338072114E+00  0.51100000000E-03 0.  1.
         11    1    4    4    0    0 -0.49209999227E-02  0.15697713834E-01  0.21845875002E-01  0.27352108428E-01  0.51100000000E-03 0. -1.
</event>
<event>
 7    1  0.1143957E+005  0.1043930E+01  0.7957747E-01            NaN
         13   -1    0    0    0    0  0.00000000000E+00  0.00000000000E+00  0.74505805969E-08  0.10566000000E+00  0.10566000000E+00 0. -1.
     999900   -1    0    0    0    0 -0.00000000000E+00 -0.00000000000E+00 -0.74505805969E-08  0.93827000000E+00  0.93827000000E+00 0.  1.
     999902    2    1    2    0    0 -0.35393734810E-02 -0.15948518426E-01 -0.16478732244E-01  0.10207258835E+01  0.10204621004E+01 0.  0.
         14    1    1    2    0    0  0.35393734810E-02  0.15948518426E-01  0.16478732244E-01  0.23204116466E-01  0.00000000000E+00 0. -1.
     999901    1    3    3    0    0 -0.20620464148E-01  0.59145003360E-01  0.84043570556E-01  0.88622043348E+00  0.88000000000E+00 0. -1.
        -11    1    3    3    0    0  0.21627098084E-02 -0.46583654022E-01 -0.26146524671E-01  0.53466026682E-01  0.51100000000E-03 0.  1.
         11    1    3    3    0    0  0.14918380859E-01 -0.28509867764E-01 -0.74375778129E-01  0.81039423373E-01  0.51100000000E-03 0. -1.
</event>
<event>
 8    1  0.1143957E+005  0.1043930E+01  0.7957747E-01            NaN
         13   -1    0    0    0    0  0.00000000000E+00  0.00000000000E+00  0.74505805969E-08  0.10566000000E+00  0.10566000000E+00 0.  1.
     999900   -1    0    0    0    0 -0.00000000000E+00 -0.00000000000E+00 -0.74505805969E-08  0.93827000000E+00  0.93827000000E+00 0. -1.
     999902    2    1    2    0    0 -0.12691813389E-01  0.17756113401E-01 -0.13825482859E-01  0.10180938690E+01  0.10177659949E+01 0.  0.
     999903    2    3    3    0    0  0.98293672585E-01  0.78125051755E-01  0.16785948464E-01  0.12854384422E+00  0.21830758986E-01 0.  0.
         14    1    1    2    0    0  0.12691813389E-01 -0.17756113401E-01  0.13825482859E-01  0.25836131028E-01  0.00000000000E+00 0. -1.
     999901    1    3    3    0    0 -0.11098548597E+00 -0.60368938354E-01 -0.30611431323E-01  0.88955002476E+00  0.88000000000E+00 0. -1.
        -11    1    4    4    0    0  0.53768115055E-01  0.43072399993E-01 -0.17573167105E-02  0.68917277375E-01  0.51100000000E-03 0. -1.
         11    1    4    4    0    0  0.44525557530E-01  0.35052651762E-01  0.18543265174E-01  0.59626566841E-01  0.51100000000E-03 0.  1.
</event>
<event>
 8    1  0.1143957E+005  0.1043930E+01  0.7957747E-01            NaN
         13   -1    0    0    0    0  0.00000000000E+00  0.00000000000E+00  0.74505805969E-08  0.10566000000E+00  0.10566000000E+00 0. -1.
     999900   -1    0    0    0    0 -0.00000000000E+00 -0.00000000000E+00 -0.74505805969E-08  0.93827000000E+00  0.93827000000E+00 0.  1.
     999902    2    1    2    0    0 -0.62750596224E-02  0.10959949822E-01 -0.15410706030E-01  0.10240054741E+01  0.10238116156E+01 0.  0.
     999903    2    3    3    0    0 -0.11024369942E+00  0.75352181282E-01  0.47712163695E-02  0.13531928225E+00  0.21375667421E-01 0.  0.
         14    1    1    2    0    0  0.62750596224E-02 -0.10959949822E-01  0.15410706030E-01  0.19924525934E-01  0.00000000000E+00 0.  1.
     999901    1    3    3    0    0  0.10396863980E+00 -0.64392231460E-01 -0.20181922399E-01  0.88868619182E+00  0.88000000000E+00 0.  1.
        -11    1    4    4    0    0 -0.30443335344E-01  0.31792726856E-01 -0.26499572719E-02  0.44100539026E-01  0.51100000000E-03 0. -1.
         11    1    4    4    0    0 -0.79800364074E-01  0.43559454426E-01  0.74211736415E-02  0.91218743224E-01  0.51100000000E-03 0.  1.
</event>
<event>
 8    1  0.1143957E+005  0.1043930E+01  0.7957747E-01            NaN
         13   -1    0    0    0    0  0.00000000000E+00  0.00000000000E+00  0.74505805969E-08  0.10566000000E+00  0.10566000000E+00 0. -1.
     999900   -1    0    0    0    0 -0.00000000000E+00 -0.00000000000E+00 -0.74505805969E-08  0.93827000000E+00  0.93827000000E+00 0. -1.
     999902    2    1    2    0    0  0.52710640842E-02  0.41449823534E-02 -0.22531545291E-01  0.10204217987E+01  0.10201509750E+01 0.  0.
     999903    2    3    3    0    0  0.56601962622E-01 -0.99967596232E-01 -0.62085393771E-01  0.13191811435E+00  0.18721386316E-01 0.  0.
         14    1    1    2    0    0 -0.52710640842E-02 -0.41449823534E-02  0.22531545291E-01  0.23508201303E-01  0.00000000000E+00 0. -1.
     999901    1    3    3    0    0 -0.51330898537E-01  0.10411257859E+00  0.39553848480E-01  0.88850368434E+00  0.88000000000E+00 0.  1.
        -11    1    4    4    0    0  0.10184268132E-01 -0.26463992482E-01 -0.77519149262E-02  0.29400944228E-01  0.51100000000E-03 0.  1.
         11    1    4    4    0    0  0.46417694490E-01 -0.73503603750E-01 -0.54333478845E-01  0.10251717012E+00  0.51100000000E-03 0. -1.
</event>
<event>
 8    1  0.1143957E+005  0.1043930E+01  0.7957747E-01            NaN
         13   -1    0    0    0    0  0.00000000000E+00  0.00000000000E+00  0.74505805969E-08  0.10566000000E+00  0.10566000000E+00 0. -1.
     999900   -1    0    0    0    0 -0.00000000000E+00 -0.00000000000E+00 -0.74505805969E-08  0.93827000000E+00  0.93827000000E+00 0.  1.
     999902    2    1    2    0    0  0.20227106252E-01  0.77029254283E-02 -0.89889874799E-02  0.10204934306E+01  0.10202242740E+01 0.  0.
     999903    2    3    3    0    0  0.12233403065E+00  0.25489777635E-01  0.40994050193E-01  0.13300230382E+00  0.19843307493E-01 0.  0.
         14    1    1    2    0    0 -0.20227106252E-01 -0.77029254283E-02  0.89889874799E-02  0.23436569360E-01  0.00000000000E+00 0. -1.
     999901    1    3    3    0    0 -0.10210692440E+00 -0.17786852207E-01 -0.49983037673E-01  0.88749112682E+00  0.88000000000E+00 0.  1.
        -11    1    4    4    0    0  0.38087073685E-01 -0.81301939285E-03  0.15535780829E-01  0.41144960681E-01  0.51100000000E-03 0. -1.
         11    1    4    4    0    0  0.84246956965E-01  0.26302797028E-01  0.25458269364E-01  0.91857343143E-01  0.51100000000E-03 0.  1.
</event>
<event>
 8    1  0.1143957E+005  0.1043930E+01  0.7957747E-01            NaN
         13   -1    0    0    0    0  0.00000000000E+00  0.00000000000E+00  0.74505805969E-08  0.10566000000E+00  0.10566000000E+00 0.  1.
     999900   -1    0    0    0    0 -0.00000000000E+00 -0.00000000000E+00 -0.74505805969E-08  0.93827000000E+00  0.93827000000E+00 0. -1.
     999902    2    1    2    0    0 -0.10967944990E-01  0.85751748117E-02 -0.20035245974E-01  0.10195324485E+01  0.10192404883E+01 0.  0.
     999903    2    3    3    0    0 -0.26204133288E-01 -0.71020751185E-01  0.10098543996E+00  0.12756066678E+00  0.18521903976E-01 0.  0.
         14    1    1    2    0    0  0.10967944990E-01 -0.85751748117E-02  0.20035245974E-01  0.24397551549E-01  0.00000000000E+00 0.  1.
     999901    1    3    3    0    0  0.15236188299E-01  0.79595925997E-01 -0.12102068593E+00  0.89197178167E+00  0.88000000000E+00 0. -1.
        -11    1    4    4    0    0 -0.21278441238E-01 -0.69475733335E-01  0.92688831349E-01  0.11777576220E+00  0.51100000000E-03 0. -1.
         11    1    4    4    0    0 -0.49256920502E-02 -0.15450178499E-02  0.82966086066E-02  0.97849045831E-02  0.51100000000E-03 0.  1.
</event>
<event>
 8    1  0.1143957E+005  0.1043930E+01  0.7957747E-01            NaN
         13   -1    0    0    0    0  0.00000000000E+00  0.00000000000E+00  0.74505805969E-08  0.10566000000E+00  0.10566000000E+00 0.  1.
     999900   -1    0    0    0    0 -0.00000000000E+00 -0.00000000000E+00 -0.74505805969E-08  0.93827000000E+00  0.93827000000E+00 0.  1.
     999902    2    1    2    0    0  0.24785590416E-02 -0.12858999576E-01 -0.20547342088E-01  0.10195642373E+01  0.10192730466E+01 0.  0.
     999903    2    3    3    0    0  0.17960604716E-01 -0.79084254952E-02 -0.12970163588E+00  0.13267142429E+00  0.19851094574E-01 0.  0.
         14    1    1    2    0    0 -0.24785590416E-02  0.12858999576E-01  0.20547342088E-01  0.24365762699E-01  0.00000000000E+00 0.  1.
     999901    1    3    3    0    0 -0.15482045675E-01 -0.49505740805E-02  0.10915429380E+00  0.88689281301E+00  0.88000000000E+00 0. -1.
        -11    1    4    4    0    0  0.20089304782E-01 -0.20592081967E-02 -0.77185826265E-01  0.79785546324E-01  0.51100000000E-03 0.  1.
         11    1    4    4    0    0 -0.21287000658E-02 -0.58492172986E-02 -0.52515809619E-01  0.52885877963E-01  0.51100000000E-03 0. -1.
</event>
<event>
 8    1  0.1143957E+005  0.1043930E+01  0.7957747E-01            NaN
         13   -1    0    0    0    0  0.00000000000E+00  0.00000000000E+00  0.74505805969E-08  0.10566000000E+00  0.10566000000E+00 0. -1.
     999900   -1    0    0    0    0 -0.00000000000E+00 -0.00000000000E+00 -0.74505805969E-08  0.93827000000E+00  0.93827000000E+00 0.  1.
     999902    2    1    2    0    0 -0.11640952855E-01  0.96035394538E-02 -0.18741402159E-01  0.10198679987E+01  0.10195841087E+01 0.  0.
     999903    2    3    3    0    0  0.46469021546E-01  0.11126253239E-01 -0.12136459404E+00  0.13199942320E+00  0.20281014843E-01 0.  0.
         14    1    1    2    0    0  0.11640952855E-01 -0.96035394538E-02  0.18741402159E-01  0.24062001337E-01  0.00000000000E+00 0. -1.
     999901    1    3    3    0    0 -0.58109974401E-01 -0.15227137849E-02  0.10262319188E+00  0.88786857546E+00  0.88000000000E+00 0. -1.
        -11    1    4    4    0    0  0.10524369844E-01  0.97757135375E-03 -0.53477076880E-01  0.54514006264E-01  0.51100000000E-03 0.  1.
         11    1    4    4    0    0  0.35944651702E-01  0.10148681885E-01 -0.67887517165E-01  0.77485416936E-01  0.51100000000E-03 0. -1.
</event>
<event>
 8    1  0.1143957E+005  0.1043930E+01  0.7957747E-01            NaN
         13   -1    0    0    0    0  0.00000000000E+00  0.00000000000E+00  0.74505805969E-08  0.10566000000E+00  0.10566000000E+00 0. -1.
     999900   -1    0    0    0    0 -0.00000000000E+00 -0.00000000000E+00 -0.74505805969E-08  0.93827000000E+00  0.93827000000E+00 0. -1.
     999902    2    1    2    0    0  0.18286773656E-01  0.12814829855E-02 -0.14930454269E-01  0.10202875223E+01  0.10200135594E+01 0.  0.
     999903    2    3    3    0    0 -0.97166435134E-01 -0.78826775399E-01  0.21435382030E-01  0.12839669343E+00  0.19268073213E-01 0.  0.
         14    1    1    2    0    0 -0.18286773656E-01 -0.12814829855E-02  0.14930454269E-01  0.23642477748E-01  0.00000000000E+00 0. -1.
     999901    1    3    3    0    0  0.11545320879E+00  0.80108258384E-01 -0.36365836299E-01  0.89189082882E+00  0.88000000000E+00 0. -1.
        -11    1    4    4    0    0 -0.75466716738E-01 -0.50150828326E-01  0.14369782999E-01  0.91744660343E-01  0.51100000000E-03 0.  1.
         11    1    4    4    0    0 -0.21699718396E-01 -0.28675947072E-01  0.70655990313E-02  0.36652033090E-01  0.51100000000E-03 0. -1.
</event>
<event>
 8    1  0.1143957E+005  0.1043930E+01  0.7957747E-01            NaN
         13   -1    0    0    0    0  0.00000000000E+00  0.00000000000E+00  0.74505805969E-08  0.10566000000E+00  0.10566000000E+00 0.  1.
     999900   -1    0    0    0    0 -0.00000000000E+00 -0.00000000000E+00 -0.74505805969E-08  0.93827000000E+00  0.93827000000E+00 0. -1.
     999902    2    1    2    0    0  0.37480760538E-03  0.23732904696E-01 -0.25011112430E-02  0.10200627253E+01  0.10197834656E+01 0.  0.
     999903    2    3    3    0    0  0.75925935869E-01  0.10224834609E+00  0.31318178864E-01  0.13269786687E+00  0.20209491053E-01 0.  0.
         14    1    1    2    0    0 -0.37480760538E-03 -0.23732904696E-01  0.25011112430E-02  0.23867274739E-01  0.00000000000E+00 0. -1.
     999901    1    3    3    0    0 -0.75551128263E-01 -0.78515441398E-01 -0.33819290107E-01  0.88736485839E+00  0.88000000000E+00 0. -1.
        -11    1    4    4    0    0  0.35738141546E-02  0.12326373394E-02 -0.16306489287E-02  0.41486961024E-02  0.51100000000E-03 0.  1.
         11    1    4    4    0    0  0.72352121714E-01  0.10101570875E+00  0.32948827792E-01  0.12854917077E+00  0.51100000000E-03 0. -1.
</event>
<event>
 8    1  0.1143957E+005  0.1043930E+01  0.7957747E-01            NaN
         13   -1    0    0    0    0  0.00000000000E+00  0.00000000000E+00  0.74505805969E-08  0.10566000000E+00  0.10566000000E+00 0. -1.
     999900   -1    0    0    0    0 -0.00000000000E+00 -0.00000000000E+00 -0.74505805969E-08  0.93827000000E+00  0.93827000000E+00 0. -1.
     999902    2    1    2    0    0  0.29813280715E-01  0.64805993542E-02 -0.63806378344E-02  0.10127604249E+01  0.10122806606E+01 0.  0.
     999903    2    3    3    0    0  0.10302116427E+00 -0.67345251031E-02 -0.71605970227E-01  0.12721631093E+00  0.19946445274E-01 0.  0.
         14    1    1    2    0    0 -0.29813280715E-01 -0.64805993542E-02  0.63806378344E-02  0.31169575136E-01  0.00000000000E+00 0.  1.
     999901    1    3    3    0    0 -0.73207883558E-01  0.13215124457E-01  0.65225332393E-01  0.88554411393E+00  0.88000000000E+00 0.  1.
        -11    1    4    4    0    0  0.27280982110E-01 -0.83774047986E-02 -0.12653404153E-01  0.31221829762E-01  0.51100000000E-03 0.  1.
         11    1    4    4    0    0  0.75740182163E-01  0.16428796955E-02 -0.58952566075E-01  0.95994481172E-01  0.51100000000E-03 0. -1.
</event>
<event>
 8    1  0.1143957E+005  0.1043930E+01  0.7957747E-01            NaN
         13   -1    0    0    0    0  0.00000000000E+00  0.00000000000E+00  0.74505805969E-08  0.10566000000E+00  0.10566000000E+00 0.  1.
     999900   -1    0    0    0    0 -0.00000000000E+00 -0.00000000000E+00 -0.74505805969E-08  0.93827000000E+00  0.93827000000E+00 0. -1.
     999902    2    1    2    0    0 -0.15657763751E-01  0.13493697789E-01 -0.10634396383E-01  0.10206848751E+01  0.10204201480E+01 0.  0.
     999903    2    3    3    0    0  0.28446667949E-01  0.10782696174E+00  0.66623794315E-01  0.13118344529E+00  0.18289334398E-01 0.  0.
         14    1    1    2    0    0  0.15657763751E-01 -0.13493697789E-01  0.10634396383E-01  0.23245124911E-01  0.00000000000E+00 0.  1.
     999901    1    3    3    0    0 -0.44104431700E-01 -0.94333263956E-01 -0.77258190698E-01  0.88950142980E+00  0.88000000000E+00 0.  1.
        -11    1    4    4    0    0  0.28376493908E-01  0.99851038752E-01  0.66324114990E-01  0.12318524545E+00  0.51100000000E-03 0. -1.
         11    1    4    4    0    0  0.70174041446E-04  0.79759229922E-02  0.29967932459E-03  0.79981998394E-02  0.51100000000E-03 0.  1.
</event>
<event>
 8    1  0.1143957E+005  0.1043930E+01  0.7957747E-01            NaN
         13   -1    0    0    0    0  0.00000000000E+00  0.00000000000E+00  0.74505805969E-08  0.10566000000E+00  0.10566000000E+00 0. -1.
     999900   -1    0    0    0    0 -0.00000000000E+00 -0.00000000000E+00 -0.74505805969E-08  0.93827000000E+00  0.93827000000E+00 0. -1.
     999902    2    1    2    0    0 -0.39850476822E-02  0.51365428228E-02  0.26314402699E-01  0.10168244200E+01  0.10164630779E+01 0.  0.
     999903    2    3    3    0    0  0.30960272741E-01  0.11778193623E+00 -0.30491607673E-01  0.12714072178E+00  0.20097313419E-01 0.  0.
         14    1    1    2    0    0  0.39850476822E-02 -0.51365428228E-02 -0.26314402699E-01  0.27105579990E-01  0.00000000000E+00 0.  1.
     999901    1    3    3    0    0 -0.34945320424E-01 -0.11264539341E+00  0.56806010372E-01  0.88968369823E+00  0.88000000000E+00 0. -1.
        -11    1    4    4    0    0  0.17203178743E-01  0.66591374002E-01 -0.69197895866E-02  0.69126731872E-01  0.51100000000E-03 0.  1.
         11    1    4    4    0    0  0.13757093998E-01  0.51190562229E-01 -0.23571818087E-01  0.58013989912E-01  0.51100000000E-03 0. -1.
</event>
<event>
 8    1  0.1143957E+005  0.1043930E+01  0.7957747E-01            NaN
         13   -1    0    0    0    0  0.00000000000E+00  0.00000000000E+00  0.74505805969E-08  0.10566000000E+00  0.10566000000E+00 0. -1.
     999900   -1    0    0    0    0 -0.00000000000E+00 -0.00000000000E+00 -0.74505805969E-08  0.93827000000E+00  0.93827000000E+00 0.  1.
     999902    2    1    2    0    0  0.47083504802E-02  0.22362666263E-01 -0.63071143039E-03  0.10210683464E+01  0.10208123789E+01 0.  0.
     999903    2    3    3    0    0  0.49385881228E-01 -0.10152729811E+00 -0.59823376215E-01  0.12930123750E+00  0.19829678503E-01 0.  0.
         14    1    1    2    0    0 -0.47083504802E-02 -0.22362666263E-01  0.63071143039E-03  0.22861653561E-01  0.00000000000E+00 0. -1.
     999901    1    3    3    0    0 -0.44677530747E-01  0.12388996438E+00  0.59192664784E-01  0.89176710894E+00  0.88000000000E+00 0. -1.
        -11    1    4    4    0    0  0.33229711857E-02 -0.64651345379E-02 -0.10340995113E-01  0.12650589038E-01  0.51100000000E-03 0. -1.
         11    1    4    4    0    0  0.46062910042E-01 -0.95062163576E-01 -0.49482381102E-01  0.11665064846E+00  0.51100000000E-03 0.  1.
</event>
<event>
 8    1  0.1143957E+005  0.1043930E+01  0.7957747E-01            NaN
         13   -1    0    0    0    0  0.00000000000E+00  0.00000000000E+00  0.74505805969E-08  0.10566000000E+00  0.10566000000E+00 0. -1.
     999900   -1    0    0    0    0 -0.00000000000E+00 -0.00000000000E+00 -0.74505805969E-08  0.93827000000E+00  0.93827000000E+00 0. -1.
     999902    2    1    2    0    0 -0.22965135678E-01 -0.20916435146E-03 -0.97828434705E-02  0.10189671229E+01  0.10186613040E+01 0.  0.
     999903    2    3    3    0    0 -0.12053147197E+00  0.21657673606E-01 -0.46893536635E-01  0.13252786829E+00  0.19176588164E-01 0.  0.
         14    1    1    2    0    0  0.22965135678E-01  0.20916435146E-03  0.97828434705E-02  0.24962877094E-01  0.00000000000E+00 0. -1.
     999901    1    3    3    0    0  0.97566336292E-01 -0.21866837957E-01  0.37110693165E-01  0.88643925462E+00  0.88000000000E+00 0.  1.
        -11    1    4    4    0    0 -0.56144689950E-01  0.46567214141E-03 -0.22389564207E-01  0.60448298293E-01  0.51100000000E-03 0. -1.
         11    1    4    4    0    0 -0.64386782020E-01  0.21192001464E-01 -0.24503972429E-01  0.72079569996E-01  0.51100000000E-03 0.  1.
</event>
<event>
 8    1  0.1143957E+005  0.1043930E+01  0.7957747E-01            NaN
         13   -1    0    0    0    0  0.00000000000E+00  0.00000000000E+00  0.74505805969E-08  0.10566000000E+00  0.10566000000E+00 0. -1.
     999900   -1    0    0    0    0 -0.00000000000E+00 -0.00000000000E+00 -0.74505805969E-08  0.93827000000E+00  0.93827000000E+00 0.  1.
     999902    2    1    2    0    0  0.21480230627E-01 -0.88588520783E-05  0.11761833366E-01  0.10194403877E+01  0.10191461931E+01 0.  0.
     999903    2    3    3    0    0  0.10493750696E+00  0.17298018420E-01  0.77484132248E-01  0.13288296399E+00  0.18519977335E-01 0.  0.
         14    1    1    2    0    0 -0.21480230627E-01  0.88588520783E-05 -0.11761833366E-01  0.24489612296E-01  0.00000000000E+00 0. -1.
     999901    1    3    3    0    0 -0.83457276332E-01 -0.17306877272E-01 -0.65722298882E-01  0.88655742371E+00  0.88000000000E+00 0. -1.
        -11    1    4    4    0    0  0.45476356321E-01  0.36997249742E-02  0.23017317377E-01  0.51106212630E-01  0.51100000000E-03 0. -1.
         11    1    4    4    0    0  0.59461150637E-01  0.13598293445E-01  0.54466814871E-01  0.81776751360E-01  0.51100000000E-03 0.  1.
</event>
<event>
 8    1  0.1143957E+005  0.1043930E+01  0.7957747E-01            NaN
         13   -1    0    0    0    0  0.00000000000E+00  0.00000000000E+00  0.74505805969E-08  0.10566000000E+00  0.10566000000E+00 0.  1.
     999900   -1    0    0    0    0 -0.00000000000E+00 -0.00000000000E+00 -0.74505805969E-08  0.93827000000E+00  0.93827000000E+00 0.  1.
     999902    2    1    2    0    0  0.25094489362E-01  0.49501997879E-02  0.78307613095E-03  0.10183399417E+01  0.10180183622E+01 0.  0.
     999903    2    3    3    0    0  0.77013704460E-01  0.10406223987E+00 -0.82496969608E-02  0.13120951593E+00  0.19693123916E-01 0.  0.
         14    1    1    2    0    0 -0.25094489362E-01 -0.49501997879E-02 -0.78307613095E-03  0.25590058275E-01  0.00000000000E+00 0. -1.
     999901    1    3    3    0    0 -0.51919215098E-01 -0.99112040079E-01  0.90327730918E-02  0.88713042580E+00  0.88000000000E+00 0. -1.
        -11    1    4    4    0    0  0.55796982025E-01  0.62043946540E-01 -0.10378076964E-01  0.84087574039E-01  0.51100000000E-03 0. -1.
         11    1    4    4    0    0  0.21216722435E-01  0.42018293327E-01  0.21283800036E-02  0.47121941889E-01  0.51100000000E-03 0.  1.
</event>
<event>
 8    1  0.1143957E+005  0.1043930E+01  0.7957747E-01            NaN
         13   -1    0    0    0    0  0.00000000000E+00  0.00000000000E+00  0.74505805969E-08  0.10566000000E+00  0.10566000000E+00 0. -1.
     999900   -1    0    0    0    0 -0.00000000000E+00 -0.00000000000E+00 -0.74505805969E-08  0.93827000000E+00  0.93827000000E+00 0.  1.
     999902    2    1    2    0    0  0.17865054264E-01 -0.40802543447E-02 -0.10813472219E-01  0.10226523164E+01  0.10224309367E+01 0.  0.
     999903    2    3    3    0    0 -0.51485854512E-01 -0.40328169938E-01 -0.11422551972E+00  0.13314823459E+00  0.20095484918E-01 0.  0.
         14    1    1    2    0    0 -0.17865054264E-01  0.40802543447E-02  0.10813472219E-01  0.21277683633E-01  0.00000000000E+00 0. -1.
     999901    1    3    3    0    0  0.69350908775E-01  0.36247915594E-01  0.10341204750E+00  0.88950408178E+00  0.88000000000E+00 0. -1.
        -11    1    4    4    0    0 -0.32873927851E-02 -0.73981367789E-02 -0.26990092330E-01  0.28182717827E-01  0.51100000000E-03 0. -1.
         11    1    4    4    0    0 -0.48198461727E-01 -0.32930033159E-01 -0.87235427386E-01  0.10496551676E+00  0.51100000000E-03 0.  1.
</event>
<event>
 8    1  0.1143957E+005  0.1043930E+01  0.7957747E-01            NaN
         13   -1    0    0    0    0  0.00000000000E+00  0.00000000000E+00  0.74505805969E-08  0.10566000000E+00  0.10566000000E+00 0.  1.
     999900   -1    0    0    0    0 -0.00000000000E+00 -0.00000000000E+00 -0.74505805969E-08  0.93827000000E+00  0.93827000000E+00 0.  1.
     999902    2    1    2    0    0 -0.14292534686E-01  0.43452133054E-02  0.15824001003E-01  0.10221686482E+01  0.10219369789E+01 0.  0.
     999903    2    3    3    0    0 -0.86303750913E-01 -0.71475974333E-01 -0.65383086540E-01  0.13226468770E+00  0.25726392667E-01 0.  0.
         14    1    1    2    0    0  0.14292534686E-01 -0.43452133054E-02 -0.15824001003E-01  0.21761351846E-01  0.00000000000E+00 0. -1.
     999901    1    3    3    0    0  0.72011216227E-01  0.75821187638E-01  0.81207087543E-01  0.88990396045E+00  0.88000000000E+00 0. -1.
        -11    1    4    4    0    0 -0.13838678656E-01 -0.23473601961E-01 -0.22485278070E-01  0.35332249672E-01  0.51100000000E-03 0. -1.
         11    1    4    4    0    0 -0.72465072256E-01 -0.48002372371E-01 -0.42897808470E-01  0.96932438032E-01  0.51100000000E-03 0.  1.
</event>
<event>
 8    1  0.1143957E+005  0.1043930E+01  0.7957747E-01            NaN
         13   -1    0    0    0    0  0.00000000000E+00  0.00000000000E+00  0.74505805969E-08  0.10566000000E+00  0.10566000000E+00 0.  1.
     999900   -1    0    0    0    0 -0.00000000000E+00 -0.00000000000E+00 -0.74505805969E-08  0.93827000000E+00  0.93827000000E+00 0.  1.
     999902    2    1    2    0    0  0.22887250434E-01  0.15516758231E-02  0.10642100097E-01  0.10186418956E+01  0.10183279547E+01 0.  0.
     999903    2    3    3    0    0  0.11304406094E+00 -0.12191817397E-01  0.64546449647E-01  0.13228823424E+00  0.20157694100E-01 0.  0.
         14    1    1    2    0    0 -0.22887250434E-01 -0.15516758231E-02 -0.10642100097E-01  0.25288104412E-01  0.00000000000E+00 0. -1.
     999901    1    3    3    0    0 -0.90156810504E-01  0.13743493220E-01 -0.53904349550E-01  0.88635366135E+00  0.88000000000E+00 0.  1.
        -11    1    4    4    0    0  0.68017567791E-01 -0.20732062156E-02  0.47929208277E-01  0.83235556341E-01  0.51100000000E-03 0.  1.
         11    1    4    4    0    0  0.45026493146E-01 -0.10118611181E-01  0.16617241370E-01  0.49052677898E-01  0.51100000000E-03 0. -1.
</event>
<event>
 8    1  0.1143957E+005  0.1043930E+01  0.7957747E-01            NaN
         13   -1    0    0    0    0  0.00000000000E+00  0.00000000000E+00  0.74505805969E-08  0.10566000000E+00  0.10566000000E+00 0. -1.
     999900   -1    0    0    0    0 -0.00000000000E+00 -0.00000000000E+00 -0.74505805969E-08  0.93827000000E+00  0.93827000000E+00 0.  1.
     999902    2    1    2    0    0  0.10374536827E-02  0.12731160261E-01  0.35802211735E-01  0.10059174084E+01  0.10051989233E+01 0.  0.
     999903    2    3    3    0    0  0.26825011602E-01 -0.97512038676E-01 -0.50683451098E-01  0.11445886710E+00  0.17431038659E-01 0.  0.
         14    1    1    2    0    0 -0.10374536827E-02 -0.12731160261E-01 -0.35802211735E-01  0.38012591557E-01  0.00000000000E+00 0.  1.
     999901    1    3    3    0    0 -0.25787557920E-01  0.11024319894E+00  0.86485662833E-01  0.89145854134E+00  0.88000000000E+00 0. -1.
        -11    1    4    4    0    0  0.20074717737E-01 -0.76053061209E-01 -0.47074917485E-01  0.91669904487E-01  0.51100000000E-03 0.  1.
         11    1    4    4    0    0  0.67502938650E-02 -0.21458977467E-01 -0.36085336132E-02  0.22788962614E-01  0.51100000000E-03 0. -1.
</event>
<event>
 8    1  0.1143957E+005  0.1043930E+01  0.7957747E-01            NaN
         13   -1    0    0    0    0  0.00000000000E+00  0.00000000000E+00  0.74505805969E-08  0.10566000000E+00  0.10566000000E+00 0.  1.
     999900   -1    0    0    0    0 -0.00000000000E+00 -0.00000000000E+00 -0.74505805969E-08  0.93827000000E+00  0.93827000000E+00 0. -1.
     999902    2    1    2    0    0  0.23007033299E-01  0.15510175022E-02 -0.69968253165E-02  0.10198325976E+01  0.10195478617E+01 0.  0.
     999903    2    3    3    0    0 -0.11794010601E-02 -0.18100816165E-01  0.12645484042E+00  0.12922576784E+00  0.19479267879E-01 0.  0.
         14    1    1    2    0    0 -0.23007033299E-01 -0.15510175022E-02  0.69968253165E-02  0.24097402371E-01  0.00000000000E+00 0.  1.
     999901    1    3    3    0    0  0.24186434359E-01  0.19651833667E-01 -0.13345166573E+00  0.89060682979E+00  0.88000000000E+00 0. -1.
        -11    1    4    4    0    0  0.10374133958E-02 -0.33002474856E-02  0.86281783858E-01  0.86352621308E-01  0.51100000000E-03 0. -1.
         11    1    4    4    0    0 -0.22168144559E-02 -0.14800568679E-01  0.40173056560E-01  0.42873146536E-01  0.51100000000E-03 0.  1.
</event>
<event>
 8    1  0.1143957E+005  0.1043930E+01  0.7957747E-01            NaN
         13   -1    0    0    0    0  0.00000000000E+00  0.00000000000E+00  0.74505805969E-08  0.10566000000E+00  0.10566000000E+00 0. -1.
     999900   -1    0    0    0    0 -0.00000000000E+00 -0.00000000000E+00 -0.74505805969E-08  0.93827000000E+00  0.93827000000E+00 0. -1.
     999902    2    1    2    0    0  0.85693109294E-02  0.33050666049E-02 -0.21945007810E-01  0.10201405081E+01  0.10198630871E+01 0.  0.
     999903    2    3    3    0    0  0.10288956015E+00  0.67768631718E-01 -0.44302479319E-01  0.13247406337E+00  0.20194522985E-01 0.  0.
         14    1    1    2    0    0 -0.85693109294E-02 -0.33050666049E-02  0.21945007810E-01  0.23789491858E-01  0.00000000000E+00 0. -1.
     999901    1    3    3    0    0 -0.94320249224E-01 -0.64463565113E-01  0.22357471509E-01  0.88766644477E+00  0.88000000000E+00 0.  1.
        -11    1    4    4    0    0  0.74565906058E-01  0.57879673798E-01 -0.38332727602E-01  0.10188125496E+00  0.51100000000E-03 0. -1.
         11    1    4    4    0    0  0.28323654096E-01  0.98889579200E-02 -0.59697517173E-02  0.30592808414E-01  0.51100000000E-03 0.  1.
</event>
<event>
 8    1  0.1143957E+005  0.1043930E+01  0.7957747E-01            NaN
         13   -1    0    0    0    0  0.00000000000E+00  0.00000000000E+00  0.74505805969E-08  0.10566000000E+00  0.10566000000E+00 0. -1.
     999900   -1    0    0    0    0 -0.00000000000E+00 -0.00000000000E+00 -0.74505805969E-08  0.93827000000E+00  0.93827000000E+00 0.  1.
     999902    2    1    2    0    0 -0.13874014806E-01  0.15804049553E-01  0.10657003076E-01  0.10203539956E+01  0.10200815891E+01 0.  0.
     999903    2    3    3    0    0  0.18140308896E-01 -0.52826362272E-01 -0.11380296017E+00  0.12837567030E+00  0.20236195847E-01 0.  0.
         14    1    1    2    0    0  0.13874014806E-01 -0.15804049553E-01 -0.10657003076E-01  0.23576004404E-01  0.00000000000E+00 0.  1.
     999901    1    3    3    0    0 -0.32014323702E-01  0.68630411825E-01  0.12445996325E+00  0.89197832530E+00  0.88000000000E+00 0. -1.
        -11    1    4    4    0    0  0.13671034984E-01 -0.33374750567E-01 -0.91971602969E-01  0.98791740782E-01  0.51100000000E-03 0. -1.
         11    1    4    4    0    0  0.44692739119E-02 -0.19451611705E-01 -0.21831357204E-01  0.29583929516E-01  0.51100000000E-03 0.  1.
</event>
<event>
 8    1  0.1143957E+005  0.1043930E+01  0.7957747E-01            NaN
         13   -1    0    0    0    0  0.00000000000E+00  0.00000000000E+00  0.74505805969E-08  0.10566000000E+00  0.10566000000E+00 0.  1.
     999900   -1    0    0    0    0 -0.00000000000E+00 -0.00000000000E+00 -0.74505805969E-08  0.93827000000E+00  0.93827000000E+00 0.  1.
     999902    2    1    2    0    0 -0.13463317489E-01 -0.34155627879E-01  0.22576353036E-02  0.10071473308E+01  0.10064754251E+01 0.  0.
     999903    2    3    3    0    0 -0.10116504982E+00 -0.54106229902E-01 -0.35887083379E-01  0.12174084795E+00  0.19263953018E-01 0.  0.
         14    1    1    2    0    0  0.13463317489E-01  0.34155627879E-01 -0.22576353036E-02  0.36782669163E-01  0.00000000000E+00 0. -1.
     999901    1    3    3    0    0  0.87701732335E-01  0.19950602023E-01  0.38144718682E-01  0.88540648289E+00  0.88000000000E+00 0. -1.
        -11    1    4    4    0    0 -0.22405179051E-01 -0.20507922513E-01 -0.13444814423E-01  0.33220341509E-01  0.51100000000E-03 0.  1.
         11    1    4    4    0    0 -0.78759870773E-01 -0.33598307389E-01 -0.22442268955E-01  0.88520506440E-01  0.51100000000E-03 0. -1.
</event>
<event>
 8    1  0.1143957E+005  0.1043930E+01  0.7957747E-01            NaN
         13   -1    0    0    0    0  0.00000000000E+00  0.00000000000E+00  0.74505805969E-08  0.10566000000E+00  0.10566000000E+00 0. -1.
     999900   -1    0    0    0    0 -0.00000000000E+00 -0.00000000000E+00 -0.74505805969E-08  0.93827000000E+00  0.93827000000E+00 0.  1.
     999902    2    1    2    0    0 -0.11418942281E-01  0.17886916844E-03  0.20962030664E-01  0.10200588675E+01  0.10197795165E+01 0.  0.
     999903    2    3    3    0    0 -0.28985985058E-01 -0.12414761140E+00  0.23588982919E-01  0.13114234969E+00  0.19724579105E-01 0.  0.
         14    1    1    2    0    0  0.11418942281E-01 -0.17886916844E-03 -0.20962030664E-01  0.23871132494E-01  0.00000000000E+00 0.  1.
     999901    1    3    3    0    0  0.17567042777E-01  0.12432648057E+00 -0.26269522546E-02  0.88891651781E+00  0.88000000000E+00 0. -1.
        -11    1    4    4    0    0  0.80825014561E-03 -0.33198322555E-01  0.81643598939E-02  0.34200873998E-01  0.51100000000E-03 0.  1.
         11    1    4    4    0    0 -0.29794235204E-01 -0.90949288848E-01  0.15424623025E-01  0.96941475694E-01  0.51100000000E-03 0. -1.
</event>
<event>
 8    1  0.1143957E+005  0.1043930E+01  0.7957747E-01            NaN
         13   -1    0    0    0    0  0.00000000000E+00  0.00000000000E+00  0.74505805969E-08  0.10566000000E+00  0.10566000000E+00 0. -1.
     999900   -1    0    0    0    0 -0.00000000000E+00 -0.00000000000E+00 -0.74505805969E-08  0.93827000000E+00  0.93827000000E+00 0. -1.
     999902    2    1    2    0    0  0.25380991487E-02 -0.22640400148E-01 -0.88860720696E-02  0.10194761262E+01  0.10191828001E+01 0.  0.
     999903    2    3    3    0    0  0.41431517614E-01  0.59368999042E-01  0.10328327147E+00  0.12772492707E+00  0.20123969008E-01 0.  0.
         14    1    1    2    0    0 -0.25380991487E-02  0.22640400148E-01  0.88860720696E-02  0.24453873783E-01  0.00000000000E+00 0. -1.
     999901    1    3    3    0    0 -0.38893418466E-01 -0.82009399190E-01 -0.11216934354E+00  0.89175119915E+00  0.88000000000E+00 0. -1.
        -11    1    4    4    0    0  0.78393447975E-02  0.28298215323E-01  0.41476819714E-01  0.50821570341E-01  0.51100000000E-03 0. -1.
         11    1    4    4    0    0  0.33592172817E-01  0.31070783719E-01  0.61806451761E-01  0.76903356726E-01  0.51100000000E-03 0.  1.
</event>
<event>
 8    1  0.1143957E+005  0.1043930E+01  0.7957747E-01            NaN
         13   -1    0    0    0    0  0.00000000000E+00  0.00000000000E+00  0.74505805969E-08  0.10566000000E+00  0.10566000000E+00 0. -1.
     999900   -1    0    0    0    0 -0.00000000000E+00 -0.00000000000E+00 -0.74505805969E-08  0.93827000000E+00  0.93827000000E+00 0.  1.
     999902    2    1    2    0    0 -0.95193315750E-02 -0.25003217252E-01 -0.25335582459E-02  0.10170562681E+01  0.10167011631E+01 0.  0.
     999903    2    3    3    0    0 -0.11146430391E+00  0.23999792275E-02 -0.61120512307E-01  0.12881297729E+00  0.20664344798E-01 0.  0.
         14    1    1    2    0    0  0.95193315750E-02  0.25003217252E-01  0.25335582459E-02  0.26873731858E-01  0.00000000000E+00 0. -1.
     999901    1    3    3    0    0  0.10194497234E+00 -0.27403196479E-01  0.58586954061E-01  0.88824329085E+00  0.88000000000E+00 0.  1.
        -11    1    4    4    0    0 -0.90049970078E-01 -0.57906896226E-02 -0.45447908328E-01  0.10103614546E+00  0.51100000000E-03 0.  1.
         11    1    4    4    0    0 -0.21414333835E-01  0.81906688501E-02 -0.15672603979E-01  0.27776831826E-01  0.51100000000E-03 0. -1.
</event>
<event>
 8    1  0.1143957E+005  0.1043930E+01  0.7957747E-01            NaN
         13   -1    0    0    0    0  0.00000000000E+00  0.00000000000E+00  0.74505805969E-08  0.10566000000E+00  0.10566000000E+00 0. -1.
     999900   -1    0    0    0    0 -0.00000000000E+00 -0.00000000000E+00 -0.74505805969E-08  0.93827000000E+00  0.93827000000E+00 0.  1.
     999902    2    1    2    0    0 -0.23332656826E-01  0.31362843651E-02  0.37330018079E-02  0.10200933799E+01  0.10198148456E+01 0.  0.
     999903    2    3    3    0    0 -0.11542897921E+00 -0.31150803278E-02 -0.62285344175E-01  0.13280580863E+00  0.20600139336E-01 0.  0.
         14    1    1    2    0    0  0.23332656826E-01 -0.31362843651E-02 -0.37330018079E-02  0.23836620076E-01  0.00000000000E+00 0.  1.
     999901    1    3    3    0    0  0.92096322387E-01  0.62513646928E-02  0.66018345983E-01  0.88728757129E+00  0.88000000000E+00 0. -1.
        -11    1    4    4    0    0 -0.66198862337E-01 -0.50714257877E-02 -0.24719949793E-01  0.70847341326E-01  0.51100000000E-03 0.  1.
         11    1    4    4    0    0 -0.49230116875E-01  0.19563454600E-02 -0.37565394383E-01  0.61958467309E-01  0.51100000000E-03 0. -1.
</event>
<event>
 8    1  0.1143957E+005  0.1043930E+01  0.7957747E-01            NaN
         13   -1    0    0    0    0  0.00000000000E+00  0.00000000000E+00  0.74505805969E-08  0.10566000000E+00  0.10566000000E+00 0. -1.
     999900   -1    0    0    0    0 -0.00000000000E+00 -0.00000000000E+00 -0.74505805969E-08  0.93827000000E+00  0.93827000000E+00 0.  1.
     999902    2    1    2    0    0 -0.20849567888E-01 -0.12078841518E-01 -0.24256450971E-02  0.10197125136E+01  0.10194248985E+01 0.  0.
     999903    2    3    3    0    0  0.76448412126E-01  0.81049996605E-01 -0.58911475995E-01  0.12767522374E+00  0.20419086336E-01 0.  0.
         14    1    1    2    0    0  0.20849567888E-01  0.12078841518E-01  0.24256450971E-02  0.24217486403E-01  0.00000000000E+00 0. -1.
     999901    1    3    3    0    0 -0.97297980014E-01 -0.93128838122E-01  0.56485830898E-01  0.89203728986E+00  0.88000000000E+00 0. -1.
        -11    1    4    4    0    0  0.13728932447E-01  0.15549928266E-01 -0.20563152053E-01  0.29212808810E-01  0.51100000000E-03 0.  1.
         11    1    4    4    0    0  0.62719479679E-01  0.65500068339E-01 -0.38348323942E-01  0.98462414929E-01  0.51100000000E-03 0. -1.
</event>
<event>
 8    1  0.1143957E+005  0.1043930E+01  0.7957747E-01            NaN
         13   -1    0    0    0    0  0.00000000000E+00  0.00000000000E+00  0.74505805969E-08  0.10566000000E+00  0.10566000000E+00 0.  1.
     999900   -1    0    0    0    0 -0.00000000000E+00 -0.00000000000E+00 -0.74505805969E-08  0.93827000000E+00  0.93827000000E+00 0.  1.
     999902    2    1    2    0    0 -0.17000799794E-01  0.15097785187E-01 -0.64016551670E-02  0.10203090030E+01  0.10200355435E+01 0.  0.
     999903    2    3    3    0    0  0.77511182248E-01 -0.98101681192E-01  0.14879803798E-01  0.12778475433E+00  0.21808522464E-01 0.  0.
         14    1    1    2    0    0  0.17000799794E-01 -0.15097785187E-01  0.64016551670E-02  0.23620997017E-01  0.00000000000E+00 0.  1.
     999901    1    3    3    0    0 -0.94511982042E-01  0.11319946638E+00 -0.21281458965E-01  0.89252424865E+00  0.88000000000E+00 0. -1.
        -11    1    4    4    0    0  0.18608906891E-01 -0.26065807503E-01  0.13396955864E-01  0.34719695907E-01  0.51100000000E-03 0. -1.
         11    1    4    4    0    0  0.58902275356E-01 -0.72035873690E-01  0.14828479339E-02  0.93065058424E-01  0.51100000000E-03 0.  1.
</event>
<event>
 8    1  0.1143957E+005  0.1043930E+01  0.7957747E-01            NaN
         13   -1    0    0    0    0  0.00000000000E+00  0.00000000000E+00  0.74505805969E-08  0.10566000000E+00  0.10566000000E+00 0.  1.
     999900   -1    0    0    0    0 -0.00000000000E+00 -0.00000000000E+00 -0.74505805969E-08  0.93827000000E+00  0.93827000000E+00 0. -1.
     999902    2    1    2    0    0  0.51590828495E-02  0.22064524342E-01 -0.67507984721E-02  0.10202861287E+01  0.10200121331E+01 0.  0.
     999903    2    3    3    0    0  0.12039313711E+00  0.31156584583E-01  0.38231552280E-01  0.13158766200E+00  0.19708398599E-01 0.  0.
         14    1    1    2    0    0 -0.51590828495E-02 -0.22064524342E-01  0.67507984721E-02  0.23643871305E-01  0.00000000000E+00 0.  1.
     999901    1    3    3    0    0 -0.11523405426E+00 -0.90920602405E-02 -0.44982350752E-01  0.88869846669E+00  0.88000000000E+00 0.  1.
        -11    1    4    4    0    0  0.88551033587E-01  0.30716038263E-01  0.32653852222E-01  0.99253693845E-01  0.51100000000E-03 0.  1.
         11    1    4    4    0    0  0.31842103524E-01  0.44054631942E-03  0.55777000580E-02  0.32333968158E-01  0.51100000000E-03 0. -1.
</event>
<event>
 7    1  0.1143957E+005  0.1043930E+01  0.7957747E-01            NaN
         13   -1    0    0    0    0  0.00000000000E+00  0.00000000000E+00  0.74505805969E-08  0.10566000000E+00  0.10566000000E+00 0. -1.
     999900   -1    0    0    0    0 -0.00000000000E+00 -0.00000000000E+00 -0.74505805969E-08  0.93827000000E+00  0.93827000000E+00 0.  1.
     999903    2    1    2    0    0  0.69629968093E-01  0.10826050727E-01  0.91909207985E-01  0.11769900852E+00  0.20981378962E-01 0.  0.
         14    1    1    2    0    0  0.10907238459E-01  0.22555052555E-02 -0.39348948955E-01  0.40894925585E-01  0.00000000000E+00 0.  1.
     999901    1    1    2    0    0 -0.80537206551E-01 -0.13081555983E-01 -0.52560259030E-01  0.88533606590E+00  0.88000000000E+00 0.  1.
        -11    1    3    3    0    0  0.35501743274E-01  0.15177463022E-01  0.55420127325E-01  0.67545398015E-01  0.51100000000E-03 0.  1.
         11    1    3    3    0    0  0.34128224819E-01 -0.43514122952E-02  0.36489080661E-01  0.50153610505E-01  0.51100000000E-03 0. -1.
</event>
<event>
 8    1  0.1143957E+005  0.1043930E+01  0.7957747E-01            NaN
         13   -1    0    0    0    0  0.00000000000E+00  0.00000000000E+00  0.74505805969E-08  0.10566000000E+00  0.10566000000E+00 0. -1.
     999900   -1    0    0    0    0 -0.00000000000E+00 -0.00000000000E+00 -0.74505805969E-08  0.93827000000E+00  0.93827000000E+00 0.  1.
     999902    2    1    2    0    0  0.70294513035E-02  0.18871022470E-01 -0.12667828427E-01  0.10201391919E+01  0.10198617398E+01 0.  0.
     999903    2    3    3    0    0 -0.81336700495E-01  0.70233004389E-01  0.70884019229E-01  0.13029227176E+00  0.20079794469E-01 0.  0.
         14    1    1    2    0    0 -0.70294513035E-02 -0.18871022470E-01  0.12667828427E-01  0.23790808135E-01  0.00000000000E+00 0.  1.
     999901    1    3    3    0    0  0.88366151799E-01 -0.51361981919E-01 -0.83551847655E-01  0.88984692010E+00  0.88000000000E+00 0.  1.
        -11    1    4    4    0    0 -0.58212672802E-01  0.57234289250E-01  0.44967940695E-01  0.93203304406E-01  0.51100000000E-03 0.  1.
         11    1    4    4    0    0 -0.23124027693E-01  0.12998715138E-01  0.25916078533E-01  0.37088967356E-01  0.51100000000E-03 0. -1.
</event>
<event>
 8    1  0.1143957E+005  0.1043930E+01  0.7957747E-01            NaN
         13   -1    0    0    0    0  0.00000000000E+00  0.00000000000E+00  0.74505805969E-08  0.10566000000E+00  0.10566000000E+00 0. -1.
     999900   -1    0    0    0    0 -0.00000000000E+00 -0.00000000000E+00 -0.74505805969E-08  0.93827000000E+00  0.93827000000E+00 0.  1.
     999902    2    1    2    0    0  0.76687742142E-02  0.20067027238E-01  0.25624320961E-02  0.10222952655E+01  0.10220663129E+01 0.  0.
     999903    2    3    3    0    0 -0.27649139155E-01  0.12947946541E+00 -0.14121296971E-01  0.13465976401E+00  0.20110548400E-01 0.  0.
         14    1    1    2    0    0 -0.76687742142E-02 -0.20067027238E-01 -0.25624320961E-02  0.21634734534E-01  0.00000000000E+00 0. -1.
     999901    1    3    3    0    0  0.35317913370E-01 -0.10941243817E+00  0.16683729067E-01  0.88763550146E+00  0.88000000000E+00 0.  1.
        -11    1    4    4    0    0 -0.18525726842E-01  0.47412973196E-01 -0.11377410872E-03  0.50906449963E-01  0.51100000000E-03 0.  1.
         11    1    4    4    0    0 -0.91234123134E-02  0.82066492211E-01 -0.14007522862E-01  0.83753314046E-01  0.51100000000E-03 0. -1.
</event>
<event>
 8    1  0.1143957E+005  0.1043930E+01  0.7957747E-01            NaN
         13   -1    0    0    0    0  0.00000000000E+00  0.00000000000E+00  0.74505805969E-08  0.10566000000E+00  0.10566000000E+00 0.  1.
     999900   -1    0    0    0    0 -0.00000000000E+00 -0.00000000000E+00 -0.74505805969E-08  0.93827000000E+00  0.93827000000E+00 0. -1.
     999902    2    1    2    0    0 -0.20967656956E-01 -0.29803452057E-02  0.26564197962E-03  0.10227499230E+01  0.10225305909E+01 0.  0.
     999903    2    3    3    0    0 -0.31964811604E-05  0.46019638209E-01  0.12268482557E+00  0.13267859806E+00  0.20838350417E-01 0.  0.
         14    1    1    2    0    0  0.20967656956E-01  0.29803452057E-02 -0.26564197962E-03  0.21180076993E-01  0.00000000000E+00 0. -1.
     999901    1    3    3    0    0 -0.20964460474E-01 -0.48999983415E-01 -0.12241918359E+00  0.89007132494E+00  0.88000000000E+00 0. -1.
        -11    1    4    4    0    0 -0.68900975154E-02  0.17953935049E-01  0.69898645815E-01  0.72497579513E-01  0.51100000000E-03 0. -1.
         11    1    4    4    0    0  0.68869010343E-02  0.28065703160E-01  0.52786179753E-01  0.60181018550E-01  0.51100000000E-03 0.  1.
</event>
<event>
 8    1  0.1143957E+005  0.1043930E+01  0.7957747E-01            NaN
         13   -1    0    0    0    0  0.00000000000E+00  0.00000000000E+00  0.74505805969E-08  0.10566000000E+00  0.10566000000E+00 0.  1.
     999900   -1    0    0    0    0 -0.00000000000E+00 -0.00000000000E+00 -0.74505805969E-08  0.93827000000E+00  0.93827000000E+00 0.  1.
     999902    2    1    2    0    0  0.11575416100E-01 -0.15915520532E-01 -0.65490219689E-02  0.10231891287E+01  0.10229788900E+01 0.  0.
     999903    2    3    3    0    0  0.10564389066E+00 -0.64705477424E-01 -0.50220094462E-01  0.13575659589E+00  0.23672029864E-01 0.  0.
         14    1    1    2    0    0 -0.11575416100E-01  0.15915520532E-01  0.65490219689E-02  0.20740871256E-01  0.00000000000E+00 0.  1.
     999901    1    3    3    0    0 -0.94068474556E-01  0.48789956892E-01  0.43671072493E-01  0.88743253286E+00  0.88000000000E+00 0.  1.
        -11    1    4    4    0    0  0.25322549087E-01 -0.84570886960E-02 -0.19267533575E-01  0.32927994360E-01  0.51100000000E-03 0. -1.
         11    1    4    4    0    0  0.80321341569E-01 -0.56248388728E-01 -0.30952560886E-01  0.10282860153E+00  0.51100000000E-03 0.  1.
</event>
<event>
 8    1  0.1143957E+005  0.1043930E+01  0.7957747E-01            NaN
         13   -1    0    0    0    0  0.00000000000E+00  0.00000000000E+00  0.74505805969E-08  0.10566000000E+00  0.10566000000E+00 0. -1.
     999900   -1    0    0    0    0 -0.00000000000E+00 -0.00000000000E+00 -0.74505805969E-08  0.93827000000E+00  0.93827000000E+00 0.  1.
     999902    2    1    2    0    0  0.31112441829E-02 -0.22129885705E-01 -0.90667498135E-02  0.10198132499E+01  0.10195280512E+01 0.  0.
     999903    2    3    3    0    0  0.91114487748E-01  0.88164567120E-01  0.60823193011E-02  0.12844411680E+00  0.19648301703E-01 0.  0.
         14    1    1    2    0    0 -0.31112441829E-02  0.22129885705E-01  0.90667498135E-02  0.24116750068E-01  0.00000000000E+00 0.  1.
     999901    1    3    3    0    0 -0.88003243565E-01 -0.11029445282E+00 -0.15149069115E-01  0.89136913313E+00  0.88000000000E+00 0. -1.
        -11    1    4    4    0    0  0.88637016145E-01  0.86248391571E-01  0.25581471993E-02  0.12370170135E+00  0.51100000000E-03 0. -1.
         11    1    4    4    0    0  0.24774716033E-02  0.19161755491E-02  0.35241721018E-02  0.47424154482E-02  0.51100000000E-03 0.  1.
</event>
<event>
 8    1  0.1143957E+005  0.1043930E+01  0.7957747E-01            NaN
         13   -1    0    0    0    0  0.00000000000E+00  0.00000000000E+00  0.74505805969E-08  0.10566000000E+00  0.10566000000E+00 0.  1.
     999900   -1    0    0    0    0 -0.00000000000E+00 -0.00000000000E+00 -0.74505805969E-08  0.93827000000E+00  0.93827000000E+00 0.  1.
     999902    2    1    2    0    0 -0.55015448415E-02  0.68671393785E-02  0.22986793182E-01  0.10193166447E+01  0.10190194330E+01 0.  0.
     999903    2    3    3    0    0  0.28624514777E-01  0.70565692926E-01 -0.10007686852E+00  0.12781972462E+00  0.22882799727E-01 0.  0.
         14    1    1    2    0    0  0.55015448415E-02 -0.68671393785E-02 -0.22986793182E-01  0.24613355311E-01  0.00000000000E+00 0. -1.
     999901    1    3    3    0    0 -0.34126059618E-01 -0.63698553548E-01  0.12306366170E+00  0.89149692007E+00  0.88000000000E+00 0.  1.
        -11    1    4    4    0    0  0.42662306258E-03  0.18375503105E-01 -0.36466164005E-01  0.40839727715E-01  0.51100000000E-03 0.  1.
         11    1    4    4    0    0  0.28197891714E-01  0.52190189822E-01 -0.63610704516E-01  0.86979996900E-01  0.51100000000E-03 0. -1.
</event>
<event>
 8    1  0.1143957E+005  0.1043930E+01  0.7957747E-01            NaN
         13   -1    0    0    0    0  0.00000000000E+00  0.00000000000E+00  0.74505805969E-08  0.10566000000E+00  0.10566000000E+00 0.  1.
     999900   -1    0    0    0    0 -0.00000000000E+00 -0.00000000000E+00 -0.74505805969E-08  0.93827000000E+00  0.93827000000E+00 0. -1.
     999902    2    1    2    0    0  0.39144676325E-02 -0.64935187939E-02  0.23537580102E-01  0.10192013421E+01  0.10189013050E+01 0.  0.
     999903    2    3    3    0    0 -0.12433914936E-01 -0.64662944240E-01  0.11328669499E+00  0.13257523418E+00  0.20159832808E-01 0.  0.
         14    1    1    2    0    0 -0.39144676325E-02  0.64935187939E-02 -0.23537580102E-01  0.24728657874E-01  0.00000000000E+00 0. -1.
     999901    1    3    3    0    0  0.16348382568E-01  0.58169425446E-01 -0.89749114883E-01  0.88662610795E+00  0.88000000000E+00 0. -1.
        -11    1    4    4    0    0  0.75997071292E-03 -0.25848159747E-01  0.60031743477E-01  0.65366476604E-01  0.51100000000E-03 0. -1.
         11    1    4    4    0    0 -0.13193885649E-01 -0.38814784493E-01  0.53254951508E-01  0.67208757576E-01  0.51100000000E-03 0.  1.
</event>
<event>
 8    1  0.1143957E+005  0.1043930E+01  0.7957747E-01            NaN
         13   -1    0    0    0    0  0.00000000000E+00  0.00000000000E+00  0.74505805969E-08  0.10566000000E+00  0.10566000000E+00 0. -1.
     999900   -1    0    0    0    0 -0.00000000000E+00 -0.00000000000E+00 -0.74505805969E-08  0.93827000000E+00  0.93827000000E+00 0.  1.
     999902    2    1    2    0    0 -0.75979957703E-02 -0.21705598309E-01 -0.18812845990E-02  0.10208561670E+01  0.10205953713E+01 0.  0.
     999903    2    3    3    0    0  0.60324019780E-01  0.64773914436E-01 -0.92190135789E-01  0.12942597067E+00  0.20430697331E-01 0.  0.
         14    1    1    2    0    0  0.75979957703E-02  0.21705598309E-01  0.18812845990E-02  0.23073833002E-01  0.00000000000E+00 0.  1.
     999901    1    3    3    0    0 -0.67922015550E-01 -0.86479512745E-01  0.90308851190E-01  0.89143019633E+00  0.88000000000E+00 0. -1.
        -11    1    4    4    0    0  0.32240193017E-02  0.85576867441E-02 -0.32647237415E-02  0.97235716162E-02  0.51100000000E-03 0. -1.
         11    1    4    4    0    0  0.57100000478E-01  0.56216227692E-01 -0.88925412047E-01  0.11970239905E+00  0.51100000000E-03 0.  1.
</event>
<event>
 8    1  0.1143957E+005  0.1043930E+01  0.7957747E-01            NaN
         13   -1    0    0    0    0  0.00000000000E+00  0.00000000000E+00  0.74505805969E-08  0.10566000000E+00  0.10566000000E+00 0.  1.
     999900   -1    0    0    0    0 -0.00000000000E+00 -0.00000000000E+00 -0.74505805969E-08  0.93827000000E+00  0.93827000000E+00 0. -1.
     999902    2    1    2    0    0  0.91422094525E-02  0.18623989101E-01  0.11794543924E-01  0.10200648742E+01  0.10197856654E+01 0.  0.
     999903    2    3    3    0    0  0.61418157465E-02 -0.27484402570E-01  0.12674191114E+00  0.13138727045E+00  0.20149156607E-01 0.  0.
         14    1    1    2    0    0 -0.91422094525E-02 -0.18623989101E-01 -0.11794543924E-01  0.23865125813E-01  0.00000000000E+00 0.  1.
     999901    1    3    3    0    0  0.30003937060E-02  0.46108391671E-01 -0.11494736722E+00  0.88867760373E+00  0.88000000000E+00 0. -1.
        -11    1    4    4    0    0 -0.52833696346E-02 -0.57172414713E-03  0.22174368837E-01  0.22807994597E-01  0.51100000000E-03 0.  1.
         11    1    4    4    0    0  0.11425185381E-01 -0.26912678423E-01  0.10456754231E+00  0.10857927586E+00  0.51100000000E-03 0. -1.
</event>
<event>
 8    1  0.1143957E+005  0.1043930E+01  0.7957747E-01            NaN
         13   -1    0    0    0    0  0.00000000000E+00  0.00000000000E+00  0.74505805969E-08  0.10566000000E+00  0.10566000000E+00 0. -1.
     999900   -1    0    0    0    0 -0.00000000000E+00 -0.00000000000E+00 -0.74505805969E-08  0.93827000000E+00  0.93827000000E+00 0.  1.
     999902    2    1    2    0    0 -0.12603145383E-01  0.16573100516E-01  0.21882599268E-02  0.10229944939E+01  0.10227802497E+01 0.  0.
     999903    2    3    3    0    0  0.10637204656E+00  0.43800205841E-01 -0.62986433330E-01  0.13218354190E+00  0.16484163422E-01 0.  0.
         14    1    1    2    0    0  0.12603145383E-01 -0.16573100516E-01 -0.21882599268E-02  0.20935506103E-01  0.00000000000E+00 0.  1.
     999901    1    3    3    0    0 -0.11897519194E+00 -0.27227105325E-01  0.65174693256E-01  0.89081095200E+00  0.88000000000E+00 0. -1.
        -11    1    4    4    0    0  0.56281890680E-01  0.28001289737E-01 -0.26459965955E-01  0.68206409998E-01  0.51100000000E-03 0. -1.
         11    1    4    4    0    0  0.50090155880E-01  0.15798916104E-01 -0.36526467375E-01  0.63977131899E-01  0.51100000000E-03 0.  1.
</event>
<event>
 8    1  0.1143957E+005  0.1043930E+01  0.7957747E-01            NaN
         13   -1    0    0    0    0  0.00000000000E+00  0.00000000000E+00  0.74505805969E-08  0.10566000000E+00  0.10566000000E+00 0. -1.
     999900   -1    0    0    0    0 -0.00000000000E+00 -0.00000000000E+00 -0.74505805969E-08  0.93827000000E+00  0.93827000000E+00 0.  1.
     999902    2    1    2    0    0  0.15312060020E-01 -0.60557699574E-02 -0.16304408726E-01  0.10207574888E+01  0.10204944320E+01 0.  0.
     999903    2    3    3    0    0  0.67486228722E-02 -0.44129170839E-01  0.11983952846E+00  0.12943370478E+00  0.19966064252E-01 0.  0.
         14    1    1    2    0    0 -0.15312060020E-01  0.60557699574E-02  0.16304408726E-01  0.23172511209E-01  0.00000000000E+00 0. -1.
     999901    1    3    3    0    0  0.85634371480E-02  0.38073400882E-01 -0.13614393719E+00  0.89132378401E+00  0.88000000000E+00 0.  1.
        -11    1    4    4    0    0  0.10782438804E-01 -0.19013225664E-01  0.39318107901E-01  0.44988203639E-01  0.51100000000E-03 0. -1.
         11    1    4    4    0    0 -0.40338159320E-02 -0.25115945175E-01  0.80521420560E-01  0.84445501141E-01  0.51100000000E-03 0.  1.
</event>
<event>
 8    1  0.1143957E+005  0.1043930E+01  0.7957747E-01            NaN
         13   -1    0    0    0    0  0.00000000000E+00  0.00000000000E+00  0.74505805969E-08  0.10566000000E+00  0.10566000000E+00 0. -1.
     999900   -1    0    0    0    0 -0.00000000000E+00 -0.00000000000E+00 -0.74505805969E-08  0.93827000000E+00  0.93827000000E+00 0. -1.
     999902    2    1    2    0    0 -0.23185834020E-01 -0.19204068571E-02  0.24996801706E-03  0.10206634286E+01  0.10203982071E+01 0.  0.
     999903    2    3    3    0    0  0.25142468929E-01  0.12581164622E+00 -0.77496192127E-02  0.13009333272E+00  0.20087422733E-01 0.  0.
         14    1    1    2    0    0  0.23185834020E-01  0.19204068571E-02 -0.24996801706E-03  0.23266571421E-01  0.00000000000E+00 0.  1.
     999901    1    3    3    0    0 -0.48328302948E-01 -0.12773205307E+00  0.79995872297E-02  0.89057009586E+00  0.88000000000E+00 0. -1.
        -11    1    4    4    0    0  0.12322654268E-01  0.10189695295E+00 -0.42371151419E-02  0.10272804435E+00  0.51100000000E-03 0.  1.
         11    1    4    4    0    0  0.12819814661E-01  0.23914693262E-01 -0.35125040708E-02  0.27365288371E-01  0.51100000000E-03 0. -1.
</event>
<event>
 8    1  0.1143957E+005  0.1043930E+01  0.7957747E-01            NaN
         13   -1    0    0    0    0  0.00000000000E+00  0.00000000000E+00  0.74505805969E-08  0.10566000000E+00  0.10566000000E+00 0. -1.
     999900   -1    0    0    0    0 -0.00000000000E+00 -0.00000000000E+00 -0.74505805969E-08  0.93827000000E+00  0.93827000000E+00 0.  1.
     999902    2    1    2    0    0  0.95956615200E-02 -0.20977357101E-01 -0.10882135347E-01  0.10184241752E+01  0.10181047360E+01 0.  0.
     999903    2    3    3    0    0 -0.10765051444E+00  0.56869971983E-01  0.27958866981E-01  0.12639531022E+00  0.19267828922E-01 0.  0.
         14    1    1    2    0    0 -0.95956615200E-02  0.20977357101E-01  0.10882135347E-01  0.25505824838E-01  0.00000000000E+00 0.  1.
     999901    1    3    3    0    0  0.11724617596E+00 -0.77847329084E-01 -0.38841002327E-01  0.89202886494E+00  0.88000000000E+00 0.  1.
        -11    1    4    4    0    0 -0.57803315341E-01  0.29173561872E-01  0.50773201059E-02  0.64948905127E-01  0.51100000000E-03 0. -1.
         11    1    4    4    0    0 -0.49847199098E-01  0.27696410111E-01  0.22881546875E-01  0.61446405097E-01  0.51100000000E-03 0.  1.
</event>
<event>
 8    1  0.1143957E+005  0.1043930E+01  0.7957747E-01            NaN
         13   -1    0    0    0    0  0.00000000000E+00  0.00000000000E+00  0.74505805969E-08  0.10566000000E+00  0.10566000000E+00 0.  1.
     999900   -1    0    0    0    0 -0.00000000000E+00 -0.00000000000E+00 -0.74505805969E-08  0.93827000000E+00  0.93827000000E+00 0. -1.
     999902    2    1    2    0    0 -0.62519712013E-02  0.25814235430E-02  0.21827710444E-01  0.10210783078E+01  0.10208225658E+01 0.  0.
     999903    2    3    3    0    0  0.10980376342E+00 -0.54841862318E-01  0.42150844152E-01  0.13137082947E+00  0.20423144975E-01 0.  0.
         14    1    1    2    0    0  0.62519712013E-02 -0.25814235430E-02 -0.21827710444E-01  0.22851692162E-01  0.00000000000E+00 0. -1.
     999901    1    3    3    0    0 -0.11605573462E+00  0.57423285861E-01 -0.20323133708E-01  0.88970747837E+00  0.88000000000E+00 0. -1.
        -11    1    4    4    0    0  0.80567337979E-01 -0.32920177815E-01  0.22587358599E-01  0.89918206976E-01  0.51100000000E-03 0. -1.
         11    1    4    4    0    0  0.29236425438E-01 -0.21921684503E-01  0.19563485553E-01  0.41452622496E-01  0.51100000000E-03 0.  1.
</event>
<event>
 8    1  0.1143957E+005  0.1043930E+01  0.7957747E-01            NaN
         13   -1    0    0    0    0  0.00000000000E+00  0.00000000000E+00  0.74505805969E-08  0.10566000000E+00  0.10566000000E+00 0.  1.
     999900   -1    0    0    0    0 -0.00000000000E+00 -0.00000000000E+00 -0.74505805969E-08  0.93827000000E+00  0.93827000000E+00 0.  1.
     999902    2    1    2    0    0  0.26766124356E-01 -0.15832042938E-02 -0.10062436848E-02  0.10170982189E+01  0.10167442365E+01 0.  0.
     999903    2    3    3    0    0 -0.11260409379E+00 -0.48469088431E-01 -0.10802421917E-01  0.12484359779E+00  0.20983258064E-01 0.  0.
         14    1    1    2    0    0 -0.26766124356E-01  0.15832042938E-02  0.10062436848E-02  0.26831781067E-01  0.00000000000E+00 0.  1.
     999901    1    3    3    0    0  0.13937021815E+00  0.46885884137E-01  0.97961782319E-02  0.89225462114E+00  0.88000000000E+00 0. -1.
        -11    1    4    4    0    0 -0.58839550103E-01 -0.13923970418E-01 -0.54168885410E-02  0.60708923652E-01  0.51100000000E-03 0. -1.
         11    1    4    4    0    0 -0.53764543688E-01 -0.34545118013E-01 -0.53855333757E-02  0.64134674141E-01  0.51100000000E-03 0.  1.
</event>
<event>
 8    1  0.1143957E+005  0.1043930E+01  0.7957747E-01            NaN
         13   -1    0    0    0    0  0.00000000000E+00  0.00000000000E+00  0.74505805969E-08  0.10566000000E+00  0.10566000000E+00 0. -1.
     999900   -1    0    0    0    0 -0.00000000000E+00 -0.00000000000E+00 -0.74505805969E-08  0.93827000000E+00  0.93827000000E+00 0. -1.
     999902    2    1    2    0    0  0.12739490042E-01 -0.18380868001E-01  0.62071629151E-02  0.10207205238E+01  0.10204566173E+01 0.  0.
     999903    2    3    3    0    0 -0.97471994155E-01  0.33469510699E-01  0.76246642984E-01  0.12957487811E+00  0.18844115286E-01 0.  0.
         14    1    1    2    0    0 -0.12739490042E-01  0.18380868001E-01 -0.62071629151E-02  0.23209476221E-01  0.00000000000E+00 0.  1.
     999901    1    3    3    0    0  0.11021148420E+00 -0.51850378699E-01 -0.70039480069E-01  0.89114564567E+00  0.88000000000E+00 0.  1.
        -11    1    4    4    0    0 -0.47113878745E-01  0.25961007836E-01  0.41249874594E-01  0.67790152479E-01  0.51100000000E-03 0. -1.
         11    1    4    4    0    0 -0.50358115411E-01  0.75085028633E-02  0.34996768390E-01  0.61784725635E-01  0.51100000000E-03 0.  1.
</event>
<event>
 8    1  0.1143957E+005  0.1043930E+01  0.7957747E-01            NaN
         13   -1    0    0    0    0  0.00000000000E+00  0.00000000000E+00  0.74505805969E-08  0.10566000000E+00  0.10566000000E+00 0.  1.
     999900   -1    0    0    0    0 -0.00000000000E+00 -0.00000000000E+00 -0.74505805969E-08  0.93827000000E+00  0.93827000000E+00 0.  1.
     999902    2    1    2    0    0 -0.83372554611E-02 -0.33038415881E-02 -0.21794064366E-01  0.10203629374E+01  0.10200907399E+01 0.  0.
     999903    2    3    3    0    0  0.11687898149E+00 -0.51061633753E-01  0.11512798411E-01  0.12959402247E+00  0.19851432600E-01 0.  0.
         14    1    1    2    0    0  0.83372554611E-02  0.33038415881E-02  0.21794064366E-01  0.23567062597E-01  0.00000000000E+00 0.  1.
     999901    1    3    3    0    0 -0.12521623695E+00  0.47757792165E-01 -0.33306862776E-01  0.89076891494E+00  0.88000000000E+00 0. -1.
        -11    1    4    4    0    0  0.31642763885E-01 -0.10176106130E-01  0.11131740498E-01  0.35057016555E-01  0.51100000000E-03 0. -1.
         11    1    4    4    0    0  0.85236217605E-01 -0.40885527623E-01  0.38105791322E-03  0.94537005912E-01  0.51100000000E-03 0.  1.
</event>
<event>
 8    1  0.1143957E+005  0.1043930E+01  0.7957747E-01            NaN
         13   -1    0    0    0    0  0.00000000000E+00  0.00000000000E+00  0.74505805969E-08  0.10566000000E+00  0.10566000000E+00 0.  1.
     999900   -1    0    0    0    0 -0.00000000000E+00 -0.00000000000E+00 -0.74505805969E-08  0.93827000000E+00  0.93827000000E+00 0. -1.
     999902    2    1    2    0    0 -0.21790919188E-01 -0.43116598045E-02  0.70537888242E-02  0.10206235523E+01  0.10203574104E+01 0.  0.
     999903    2    3    3    0    0  0.10332813330E+00  0.44116685001E-01 -0.58100154667E-01  0.12807376753E+00  0.20106638964E-01 0.  0.
         14    1    1    2    0    0  0.21790919188E-01  0.43116598045E-02 -0.70537888242E-02  0.23306447736E-01  0.00000000000E+00 0.  1.
     999901    1    3    3    0    0 -0.12511905249E+00 -0.48428344805E-01  0.65153943491E-01  0.89254978473E+00  0.88000000000E+00 0. -1.
        -11    1    4    4    0    0  0.25924463927E-01  0.67328181847E-02 -0.22685670842E-01  0.35104265455E-01  0.51100000000E-03 0.  1.
         11    1    4    4    0    0  0.77403669372E-01  0.37383866816E-01 -0.35414483825E-01  0.92969502075E-01  0.51100000000E-03 0. -1.
</event>
<event>
 8    1  0.1143957E+005  0.1043930E+01  0.7957747E-01            NaN
         13   -1    0    0    0    0  0.00000000000E+00  0.00000000000E+00  0.74505805969E-08  0.10566000000E+00  0.10566000000E+00 0.  1.
     999900   -1    0    0    0    0 -0.00000000000E+00 -0.00000000000E+00 -0.74505805969E-08  0.93827000000E+00  0.93827000000E+00 0. -1.
     999902    2    1    2    0    0 -0.27076750654E-02 -0.11867161858E-01 -0.18723947172E-01  0.10215973505E+01  0.10213532197E+01 0.  0.
     999903    2    3    3    0    0 -0.89051758855E-02 -0.12374554216E-02 -0.13243697985E+00  0.13419549484E+00  0.19698826122E-01 0.  0.
         14    1    1    2    0    0  0.27076750654E-02  0.11867161858E-01  0.18723947172E-01  0.22332649474E-01  0.00000000000E+00 0.  1.
     999901    1    3    3    0    0  0.61975008201E-02 -0.10629706436E-01  0.11371303268E+00  0.88740185569E+00  0.88000000000E+00 0.  1.
        -11    1    4    4    0    0 -0.98212580832E-03 -0.98493416534E-02 -0.64171688079E-01  0.64932586381E-01  0.51100000000E-03 0.  1.
         11    1    4    4    0    0 -0.79230500772E-02  0.86118862318E-02 -0.68265291768E-01  0.69262908459E-01  0.51100000000E-03 0. -1.
</event>
<event>
 8    1  0.1143957E+005  0.1043930E+01  0.7957747E-01            NaN
         13   -1    0    0    0    0  0.00000000000E+00  0.00000000000E+00  0.74505805969E-08  0.10566000000E+00  0.10566000000E+00 0. -1.
     999900   -1    0    0    0    0 -0.00000000000E+00 -0.00000000000E+00 -0.74505805969E-08  0.93827000000E+00  0.93827000000E+00 0. -1.
     999902    2    1    2    0    0  0.41843948310E-02 -0.23362047463E-01 -0.95614549235E-03  0.10201769237E+01  0.10199003613E+01 0.  0.
     999903    2    3    3    0    0  0.24325745250E-01 -0.11628530155E+00 -0.56810338513E-01  0.13329469019E+00  0.20640897083E-01 0.  0.
         14    1    1    2    0    0 -0.41843948310E-02  0.23362047463E-01  0.95614549235E-03  0.23753076347E-01  0.00000000000E+00 0. -1.
     999901    1    3    3    0    0 -0.20141350419E-01  0.92923254092E-01  0.55854193020E-01  0.88688223346E+00  0.88000000000E+00 0.  1.
        -11    1    4    4    0    0  0.21137052767E-01 -0.57770018576E-01 -0.23272826449E-01  0.65772605376E-01  0.51100000000E-03 0.  1.
         11    1    4    4    0    0  0.31886924826E-02 -0.58515282978E-01 -0.33537512064E-01  0.67522084818E-01  0.51100000000E-03 0. -1.
</event>
<event>
 8    1  0.1143957E+005  0.1043930E+01  0.7957747E-01            NaN
         13   -1    0    0    0    0  0.00000000000E+00  0.00000000000E+00  0.74505805969E-08  0.10566000000E+00  0.10566000000E+00 0. -1.
     999900   -1    0    0    0    0 -0.00000000000E+00 -0.00000000000E+00 -0.74505805969E-08  0.93827000000E+00  0.93827000000E+00 0.  1.
     999902    2    1    2    0    0  0.78900961827E-02  0.14748490341E-01  0.16100505342E-01  0.10207136726E+01  0.10204496086E+01 0.  0.
     999903    2    3    3    0    0 -0.10820243528E+00 -0.64628065509E-01 -0.17965573732E-01  0.12889608408E+00  0.20171385659E-01 0.  0.
         14    1    1    2    0    0 -0.78900961827E-02 -0.14748490341E-01 -0.16100505342E-01  0.23216327388E-01  0.00000000000E+00 0.  1.
     999901    1    3    3    0    0  0.11609253146E+00  0.79376555849E-01  0.34066079074E-01  0.89181758854E+00  0.88000000000E+00 0. -1.
        -11    1    4    4    0    0 -0.55075059574E-01 -0.24536310564E-01 -0.14248513349E-02  0.60312387165E-01  0.51100000000E-03 0. -1.
         11    1    4    4    0    0 -0.53127375703E-01 -0.40091754945E-01 -0.16540722397E-01  0.68583696911E-01  0.51100000000E-03 0.  1.
</event>
<event>
 8    1  0.1143957E+005  0.1043930E+01  0.7957747E-01            NaN
         13   -1    0    0    0    0  0.00000000000E+00  0.00000000000E+00  0.74505805969E-08  0.10566000000E+00  0.10566000000E+00 0.  1.
     999900   -1    0    0    0    0 -0.00000000000E+00 -0.00000000000E+00 -0.74505805969E-08  0.93827000000E+00  0.93827000000E+00 0. -1.
     999902    2    1    2    0    0 -0.22523530826E-01 -0.61644179425E-02 -0.52964197095E-02  0.10199850308E+01  0.10197039283E+01 0.  0.
     999903    2    3    3    0    0  0.65924058991E-01 -0.25097737206E-02 -0.11025647510E+00  0.12933754395E+00  0.14813151403E-01 0.  0.
         14    1    1    2    0    0  0.22523530826E-01  0.61644179425E-02  0.52964197095E-02  0.23944969225E-01  0.00000000000E+00 0. -1.
     999901    1    3    3    0    0 -0.88447589817E-01 -0.36546442219E-02  0.10496005539E+00  0.89064748683E+00  0.88000000000E+00 0.  1.
        -11    1    4    4    0    0  0.28995121158E-01  0.48846101063E-02 -0.40347422766E-01  0.49927468509E-01  0.51100000000E-03 0.  1.
         11    1    4    4    0    0  0.36928937833E-01 -0.73943838269E-02 -0.69909052333E-01  0.79410075436E-01  0.51100000000E-03 0. -1.
</event>
<event>
 8    1  0.1143957E+005  0.1043930E+01  0.7957747E-01            NaN
         13   -1    0    0    0    0  0.00000000000E+00  0.00000000000E+00  0.74505805969E-08  0.10566000000E+00  0.10566000000E+00 0. -1.
     999900   -1    0    0    0    0 -0.00000000000E+00 -0.00000000000E+00 -0.74505805969E-08  0.93827000000E+00  0.93827000000E+00 0.  1.
     999902    2    1    2    0    0  0.15516087730E-01 -0.94231733461E-02 -0.13960304343E-01  0.10210294482E+01  0.10207725990E+01 0.  0.
     999903    2    3    3    0    0 -0.72106224585E-01 -0.10208385751E+00  0.32474991135E-01  0.13062509700E+00  0.19694398453E-01 0.  0.
         14    1    1    2    0    0 -0.15516087730E-01  0.94231733461E-02  0.13960304343E-01  0.22900551777E-01  0.00000000000E+00 0. -1.
     999901    1    3    3    0    0  0.87622312315E-01  0.92660684161E-01 -0.46435295478E-01  0.89040435122E+00  0.88000000000E+00 0.  1.
        -11    1    4    4    0    0 -0.41086703099E-01 -0.52666352124E-01  0.26895373906E-01  0.72010305347E-01  0.51100000000E-03 0.  1.
         11    1    4    4    0    0 -0.31019521487E-01 -0.49417505383E-01  0.55796172291E-02  0.58614791656E-01  0.51100000000E-03 0. -1.
</event>
<event>
 7    1  0.1143957E+005  0.1043930E+01  0.7957747E-01            NaN
         13   -1    0    0    0    0  0.00000000000E+00  0.00000000000E+00  0.74505805969E-08  0.10566000000E+00  0.10566000000E+00 0.  1.
     999900   -1    0    0    0    0 -0.00000000000E+00 -0.00000000000E+00 -0.74505805969E-08  0.93827000000E+00  0.93827000000E+00 0. -1.
     999902    2    1    2    0    0  0.37630532568E-02 -0.18098643481E-01 -0.14170610265E-01  0.10206377768E+01  0.10203719635E+01 0.  0.
         14    1    1    2    0    0 -0.37630532568E-02  0.18098643481E-01  0.14170610265E-01  0.23292223186E-01  0.00000000000E+00 0.  1.
     999901    1    3    3    0    0  0.78421969433E-01 -0.11711673432E+00 -0.18333763887E-01  0.89140476869E+00  0.88000000000E+00 0. -1.
        -11    1    3    3    0    0 -0.26301845727E-01  0.64085540884E-01 -0.16418411788E-02  0.69294302815E-01  0.51100000000E-03 0. -1.
         11    1    3    3    0    0 -0.48357070448E-01  0.34932549951E-01  0.58049948016E-02  0.59938705309E-01  0.51100000000E-03 0.  1.
</event>
<event>
 8    1  0.1143957E+005  0.1043930E+01  0.7957747E-01            NaN
         13   -1    0    0    0    0  0.00000000000E+00  0.00000000000E+00  0.74505805969E-08  0.10566000000E+00  0.10566000000E+00 0.  1.
     999900   -1    0    0    0    0 -0.00000000000E+00 -0.00000000000E+00 -0.74505805969E-08  0.93827000000E+00  0.93827000000E+00 0.  1.
     999902    2    1    2    0    0 -0.23595063832E-01 -0.11752745485E-01 -0.66007919022E-02  0.10167560324E+01  0.10163928398E+01 0.  0.
     999903    2    3    3    0    0 -0.27769841749E-03  0.97311536464E-01  0.77105332647E-01  0.12577599195E+00  0.20118538258E-01 0.  0.
         14    1    1    2    0    0  0.23595063832E-01  0.11752745485E-01  0.66007919022E-02  0.27173967642E-01  0.00000000000E+00 0. -1.
     999901    1    3    3    0    0 -0.23317365415E-01 -0.10906428195E+00 -0.83706124550E-01  0.89098004041E+00  0.88000000000E+00 0.  1.
        -11    1    4    4    0    0  0.57979358256E-02  0.47369430772E-01  0.47818443796E-01  0.67559926876E-01  0.51100000000E-03 0. -1.
         11    1    4    4    0    0 -0.60756342431E-02  0.49942105693E-01  0.29286888851E-01  0.58216065069E-01  0.51100000000E-03 0.  1.
</event>
<event>
 8    1  0.1143957E+005  0.1043930E+01  0.7957747E-01            NaN
         13   -1    0    0    0    0  0.00000000000E+00  0.00000000000E+00  0.74505805969E-08  0.10566000000E+00  0.10566000000E+00 0.  1.
     999900   -1    0    0    0    0 -0.00000000000E+00 -0.00000000000E+00 -0.74505805969E-08  0.93827000000E+00  0.93827000000E+00 0.  1.
     999902    2    1    2    0    0  0.20822696161E-01 -0.30420029649E-02 -0.87786046578E-02  0.10211286326E+01  0.10208740284E+01 0.  0.
     999903    2    3    3    0    0 -0.10138268412E+00  0.76058738042E-01  0.12834610763E-01  0.12890768835E+00  0.19725227805E-01 0.  0.
         14    1    1    2    0    0 -0.20822696161E-01  0.30420029649E-02  0.87786046578E-02  0.22801367442E-01  0.00000000000E+00 0.  1.
     999901    1    3    3    0    0  0.12220538028E+00 -0.79100741007E-01 -0.21613215421E-01  0.89222094420E+00  0.88000000000E+00 0. -1.
        -11    1    4    4    0    0 -0.63448452548E-01  0.51574086835E-01  0.17159980461E-01  0.83548301084E-01  0.51100000000E-03 0. -1.
         11    1    4    4    0    0 -0.37934231569E-01  0.24484651207E-01 -0.43253696979E-02  0.45359387270E-01  0.51100000000E-03 0.  1.
</event>
<event>
 8    1  0.1143957E+005  0.1043930E+01  0.7957747E-01            NaN
         13   -1    0    0    0    0  0.00000000000E+00  0.00000000000E+00  0.74505805969E-08  0.10566000000E+00  0.10566000000E+00 0.  1.
     999900   -1    0    0    0    0 -0.00000000000E+00 -0.00000000000E+00 -0.74505805969E-08  0.93827000000E+00  0.93827000000E+00 0. -1.
     999902    2    1    2    0    0 -0.31375680093E-02 -0.15578028371E-01  0.18747182935E-01  0.10193540734E+01  0.10190577760E+01 0.  0.
     999903    2    3    3    0    0  0.11263310057E+00  0.25560922395E-01  0.55238378760E-01  0.13006960352E+00  0.22961863496E-01 0.  0.
         14    1    1    2    0    0  0.31375680093E-02  0.15578028371E-01 -0.18747182935E-01  0.24575926614E-01  0.00000000000E+00 0. -1.
     999901    1    3    3    0    0 -0.11577066857E+00 -0.41138950766E-01 -0.36491195825E-01  0.88928446987E+00  0.88000000000E+00 0.  1.
        -11    1    4    4    0    0  0.47854875751E-01  0.21594958926E-01  0.29715095956E-01  0.60329755783E-01  0.51100000000E-03 0. -1.
         11    1    4    4    0    0  0.64778224814E-01  0.39659634692E-02  0.25523282804E-01  0.69739847737E-01  0.51100000000E-03 0.  1.
</event>
<event>
 8    1  0.1143957E+005  0.1043930E+01  0.7957747E-01            NaN
         13   -1    0    0    0    0  0.00000000000E+00  0.00000000000E+00  0.74505805969E-08  0.10566000000E+00  0.10566000000E+00 0. -1.
     999900   -1    0    0    0    0 -0.00000000000E+00 -0.00000000000E+00 -0.74505805969E-08  0.93827000000E+00  0.93827000000E+00 0.  1.
     999902    2    1    2    0    0  0.18821032756E-01 -0.12654549764E-01 -0.77007466621E-02  0.10199785824E+01  0.10196973268E+01 0.  0.
     999903    2    3    3    0    0  0.22584381157E-01 -0.12898450457E+00 -0.12694669550E-02  0.13229159790E+00  0.18772283720E-01 0.  0.
         14    1    1    2    0    0 -0.18821032756E-01  0.12654549764E-01  0.77007466621E-02  0.23951417555E-01  0.00000000000E+00 0. -1.
     999901    1    3    3    0    0 -0.37633484016E-02  0.11632995481E+00 -0.64312797070E-02  0.88768698455E+00  0.88000000000E+00 0. -1.
        -11    1    4    4    0    0  0.24948100865E-01 -0.12430132561E+00  0.33628186579E-03  0.12678170803E+00  0.51100000000E-03 0.  1.
         11    1    4    4    0    0 -0.23637197080E-02 -0.46831789609E-02 -0.16057488208E-02  0.55098898640E-02  0.51100000000E-03 0. -1.
</event>
<event>
 8    1  0.1143957E+005  0.1043930E+01  0.7957747E-01            NaN
         13   -1    0    0    0    0  0.00000000000E+00  0.00000000000E+00  0.74505805969E-08  0.10566000000E+00  0.10566000000E+00 0.  1.
     999900   -1    0    0    0    0 -0.00000000000E+00 -0.00000000000E+00 -0.74505805969E-08  0.93827000000E+00  0.93827000000E+00 0.  1.
     999902    2    1    2    0    0  0.11469631584E-01 -0.69848899599E-02  0.19247420546E-01  0.10204607790E+01  0.10201908631E+01 0.  0.
     999903    2    3    3    0    0  0.10825537824E+00 -0.40243890899E-01  0.63640359708E-01  0.13341829133E+00  0.20286631149E-01 0.  0.
         14    1    1    2    0    0 -0.11469631584E-01  0.69848899599E-02 -0.19247420546E-01  0.23469220994E-01  0.00000000000E+00 0. -1.
     999901    1    3    3    0    0 -0.96785746660E-01  0.33259000939E-01 -0.44392939162E-01  0.88704248768E+00  0.88000000000E+00 0. -1.
        -11    1    4    4    0    0  0.24728225764E-01 -0.21776994995E-02  0.80386170192E-02  0.26098046079E-01  0.51100000000E-03 0.  1.
         11    1    4    4    0    0  0.83527152480E-01 -0.38066191399E-01  0.55601742689E-01  0.10732024525E+00  0.51100000000E-03 0. -1.
</event>
<event>
 8    1  0.1143957E+005  0.1043930E+01  0.7957747E-01            NaN
         13   -1    0    0    0    0  0.00000000000E+00  0.00000000000E+00  0.74505805969E-08  0.10566000000E+00  0.10566000000E+00 0.  1.
     999900   -1    0    0    0    0 -0.00000000000E+00 -0.00000000000E+00 -0.74505805969E-08  0.93827000000E+00  0.93827000000E+00 0. -1.
     999902    2    1    2    0    0 -0.63147088778E-02  0.15501556536E-01  0.16427070091E-01  0.10204774429E+01  0.10202079146E+01 0.  0.
     999903    2    3    3    0    0 -0.16973171295E-01 -0.88192878899E-01 -0.89186502328E-01  0.12805357194E+00  0.19427111384E-01 0.  0.
         14    1    1    2    0    0  0.63147088778E-02 -0.15501556536E-01 -0.16427070091E-01  0.23452557111E-01  0.00000000000E+00 0. -1.
     999901    1    3    3    0    0  0.10658462417E-01  0.10369443543E+00  0.10561357242E+00  0.89242387095E+00  0.88000000000E+00 0. -1.
        -11    1    4    4    0    0 -0.10152731270E-02 -0.23332454483E-01 -0.34812914188E-01  0.41924149686E-01  0.51100000000E-03 0. -1.
         11    1    4    4    0    0 -0.15957898168E-01 -0.64860424416E-01 -0.54373588141E-01  0.86129422253E-01  0.51100000000E-03 0.  1.
</event>
<event>
 8    1  0.1143957E+005  0.1043930E+01  0.7957747E-01            NaN
         13   -1    0    0    0    0  0.00000000000E+00  0.00000000000E+00  0.74505805969E-08  0.10566000000E+00  0.10566000000E+00 0. -1.
     999900   -1    0    0    0    0 -0.00000000000E+00 -0.00000000000E+00 -0.74505805969E-08  0.93827000000E+00  0.93827000000E+00 0. -1.
     999902    2    1    2    0    0  0.16526161320E-01  0.23731510725E-02  0.15035847949E-01  0.10214617429E+01  0.10212146051E+01 0.  0.
     999903    2    3    3    0    0  0.35967627269E-02 -0.83614926693E-01  0.10147461492E+00  0.13296144503E+00  0.19423071940E-01 0.  0.
         14    1    1    2    0    0 -0.16526161320E-01 -0.23731510725E-02 -0.15035847949E-01  0.22468257110E-01  0.00000000000E+00 0.  1.
     999901    1    3    3    0    0  0.12929398593E-01  0.85988077766E-01 -0.86438766967E-01  0.88850029786E+00  0.88000000000E+00 0. -1.
        -11    1    4    4    0    0 -0.78027568721E-02 -0.27644795089E-01  0.31531665828E-01  0.42657060157E-01  0.51100000000E-03 0. -1.
         11    1    4    4    0    0  0.11399519599E-01 -0.55970131604E-01  0.69942949088E-01  0.90304384872E-01  0.51100000000E-03 0.  1.
</event>
<event>
 8    1  0.1143957E+005  0.1043930E+01  0.7957747E-01            NaN
         13   -1    0    0    0    0  0.00000000000E+00  0.00000000000E+00  0.74505805969E-08  0.10566000000E+00  0.10566000000E+00 0. -1.
     999900   -1    0    0    0    0 -0.00000000000E+00 -0.00000000000E+00 -0.74505805969E-08  0.93827000000E+00  0.93827000000E+00 0. -1.
     999902    2    1    2    0    0  0.17817136229E-01  0.67655972740E-02 -0.14171905464E-01  0.10201799146E+01  0.10199034227E+01 0.  0.
     999903    2    3    3    0    0  0.40596494107E-01 -0.43967791456E-01 -0.11649069322E+00  0.13250772842E+00  0.20173608085E-01 0.  0.
         14    1    1    2    0    0 -0.17817136229E-01 -0.67655972740E-02  0.14171905464E-01  0.23750085355E-01  0.00000000000E+00 0. -1.
     999901    1    3    3    0    0 -0.22779357878E-01  0.50733388730E-01  0.10231878776E+00  0.88767218623E+00  0.88000000000E+00 0.  1.
        -11    1    4    4    0    0  0.12348676925E-01 -0.27346208751E-01 -0.48612266604E-01  0.57128964110E-01  0.51100000000E-03 0. -1.
         11    1    4    4    0    0  0.28247817181E-01 -0.16621582706E-01 -0.67878426618E-01  0.75378764306E-01  0.51100000000E-03 0.  1.
</event>
<event>
 8    1  0.1143957E+005  0.1043930E+01  0.7957747E-01            NaN
         13   -1    0    0    0    0  0.00000000000E+00  0.00000000000E+00  0.74505805969E-08  0.10566000000E+00  0.10566000000E+00 0. -1.
     999900   -1    0    0    0    0 -0.00000000000E+00 -0.00000000000E+00 -0.74505805969E-08  0.93827000000E+00  0.93827000000E+00 0.  1.
     999902    2    1    2    0    0 -0.52206448925E-02 -0.22535390101E-01 -0.27296234048E-02  0.10206373019E+01  0.10203714776E+01 0.  0.
     999903    2    3    3    0    0  0.58602097839E-01  0.62879684536E-01 -0.94652951552E-01  0.12944766120E+00  0.20234998239E-01 0.  0.
         14    1    1    2    0    0  0.52206448925E-02  0.22535390101E-01  0.27296234048E-02  0.23292698084E-01  0.00000000000E+00 0.  1.
     999901    1    3    3    0    0 -0.63822742732E-01 -0.85415074637E-01  0.91923328147E-01  0.89118964072E+00  0.88000000000E+00 0.  1.
        -11    1    4    4    0    0  0.43612806599E-01  0.57864990550E-01 -0.76433350217E-01  0.10532213527E+00  0.51100000000E-03 0. -1.
         11    1    4    4    0    0  0.14989291241E-01  0.50146939859E-02 -0.18219601335E-01  0.24125525932E-01  0.51100000000E-03 0.  1.
</event>
<event>
 8    1  0.1143957E+005  0.1043930E+01  0.7957747E-01            NaN
         13   -1    0    0    0    0  0.00000000000E+00  0.00000000000E+00  0.74505805969E-08  0.10566000000E+00  0.10566000000E+00 0.  1.
     999900   -1    0    0    0    0 -0.00000000000E+00 -0.00000000000E+00 -0.74505805969E-08  0.93827000000E+00  0.93827000000E+00 0. -1.
     999902    2    1    2    0    0  0.16518675238E-01  0.11606497942E-01 -0.17972609901E-01  0.10169005321E+01  0.10165412437E+01 0.  0.
     999903    2    3    3    0    0 -0.21388463285E-01  0.78848796367E-02 -0.12591676753E+00  0.12948701931E+00  0.19804497869E-01 0.  0.
         14    1    1    2    0    0 -0.16518675238E-01 -0.11606497942E-01  0.17972609901E-01  0.27029467859E-01  0.00000000000E+00 0.  1.
     999901    1    3    3    0    0  0.37907138523E-01  0.37216183049E-02  0.10794415763E+00  0.88741351283E+00  0.88000000000E+00 0.  1.
        -11    1    4    4    0    0 -0.12674436251E-01  0.27527417995E-02 -0.26014722789E-01  0.29073112053E-01  0.51100000000E-03 0. -1.
         11    1    4    4    0    0 -0.87140270342E-02  0.51321378372E-02 -0.99902044740E-01  0.10041390725E+00  0.51100000000E-03 0.  1.
</event>
<event>
 8    1  0.1143957E+005  0.1043930E+01  0.7957747E-01            NaN
         13   -1    0    0    0    0  0.00000000000E+00  0.00000000000E+00  0.74505805969E-08  0.10566000000E+00  0.10566000000E+00 0.  1.
     999900   -1    0    0    0    0 -0.00000000000E+00 -0.00000000000E+00 -0.74505805969E-08  0.93827000000E+00  0.93827000000E+00 0.  1.
     999902    2    1    2    0    0  0.20732753627E-01  0.27417319549E-03 -0.11276921889E-01  0.10203272203E+01  0.10200541874E+01 0.  0.
     999903    2    3    3    0    0  0.87736985010E-01  0.82927306533E-02 -0.98671374822E-01  0.13342719507E+00  0.17327095975E-01 0.  0.
         14    1    1    2    0    0 -0.20732753627E-01 -0.27417319549E-03  0.11276921889E-01  0.23602779734E-01  0.00000000000E+00 0. -1.
     999901    1    3    3    0    0 -0.67004231383E-01 -0.80185574578E-02  0.87394452933E-01  0.88690002519E+00  0.88000000000E+00 0. -1.
        -11    1    4    4    0    0  0.46569583610E-01 -0.21284488541E-02 -0.60049719523E-01  0.76022933039E-01  0.51100000000E-03 0.  1.
         11    1    4    4    0    0  0.41167401400E-01  0.10421179507E-01 -0.38621655299E-01  0.57404262032E-01  0.51100000000E-03 0. -1.
</event>
<event>
 8    1  0.1143957E+005  0.1043930E+01  0.7957747E-01            NaN
         13   -1    0    0    0    0  0.00000000000E+00  0.00000000000E+00  0.74505805969E-08  0.10566000000E+00  0.10566000000E+00 0.  1.
     999900   -1    0    0    0    0 -0.00000000000E+00 -0.00000000000E+00 -0.74505805969E-08  0.93827000000E+00  0.93827000000E+00 0. -1.
     999902    2    1    2    0    0 -0.16103186311E-01  0.68621972167E-02 -0.14797505968E-01  0.10210090807E+01  0.10207517692E+01 0.  0.
     999903    2    3    3    0    0 -0.11984034345E+00  0.10049501829E-01 -0.57790965859E-01  0.13386760702E+00  0.10864624626E-01 0.  0.
         14    1    1    2    0    0  0.16103186311E-01 -0.68621972167E-02  0.14797505968E-01  0.22920919329E-01  0.00000000000E+00 0.  1.
     999901    1    3    3    0    0  0.10373715714E+00 -0.31873046127E-02  0.42993459891E-01  0.88714147365E+00  0.88000000000E+00 0.  1.
        -11    1    4    4    0    0 -0.75205560341E-01  0.11329680833E-01 -0.34769113762E-01  0.83626493210E-01  0.51100000000E-03 0. -1.
         11    1    4    4    0    0 -0.44634783110E-01 -0.12801790037E-02 -0.23021852097E-01  0.50241113807E-01  0.51100000000E-03 0.  1.
</event>
<event>
 8    1  0.1143957E+005  0.1043930E+01  0.7957747E-01            NaN
         13   -1    0    0    0    0  0.00000000000E+00  0.00000000000E+00  0.74505805969E-08  0.10566000000E+00  0.10566000000E+00 0. -1.
     999900   -1    0    0    0    0 -0.00000000000E+00 -0.00000000000E+00 -0.74505805969E-08  0.93827000000E+00  0.93827000000E+00 0. -1.
     999902    2    1    2    0    0 -0.25782075917E-01  0.97877897349E-02  0.34525145283E-02  0.10161372649E+01  0.10157571093E+01 0.  0.
     999903    2    3    3    0    0  0.46964664270E-01  0.60383911210E-01 -0.97914122731E-01  0.12589726871E+00  0.20274378274E-01 0.  0.
         14    1    1    2    0    0  0.25782075917E-01 -0.97877897349E-02 -0.34525145283E-02  0.27792735077E-01  0.00000000000E+00 0.  1.
     999901    1    3    3    0    0 -0.72746740187E-01 -0.50596121476E-01  0.10136663726E+00  0.89023999622E+00  0.88000000000E+00 0.  1.
        -11    1    4    4    0    0  0.27925119494E-01  0.47939529414E-01 -0.60329977460E-01  0.81963272754E-01  0.51100000000E-03 0. -1.
         11    1    4    4    0    0  0.19039544776E-01  0.12444381796E-01 -0.37584145271E-01  0.43933995952E-01  0.51100000000E-03 0.  1.
</event>
<event>
 8    1  0.1143957E+005  0.1043930E+01  0.7957747E-01            NaN
         13   -1    0    0    0    0  0.00000000000E+00  0.00000000000E+00  0.74505805969E-08  0.10566000000E+00  0.10566000000E+00 0. -1.
     999900   -1    0    0    0    0 -0.00000000000E+00 -0.00000000000E+00 -0.74505805969E-08  0.93827000000E+00  0.93827000000E+00 0.  1.
     999902    2    1    2    0    0 -0.17356384322E-01  0.88848300999E-03  0.17137659586E-01  0.10195223607E+01  0.10192301561E+01 0.  0.
     999903    2    3    3    0    0  0.56087298944E-01  0.10264283591E+00 -0.48739922750E-01  0.12818192139E+00  0.19331012238E-01 0.  0.
         14    1    1    2    0    0  0.17356384322E-01 -0.88848300999E-03 -0.17137659586E-01  0.24407639273E-01  0.00000000000E+00 0.  1.
     999901    1    3    3    0    0 -0.73443683266E-01 -0.10175435290E+00  0.65877582335E-01  0.89134043934E+00  0.88000000000E+00 0. -1.
        -11    1    4    4    0    0  0.18007429157E-01  0.17354740278E-01 -0.78290915572E-02  0.26210881530E-01  0.51100000000E-03 0.  1.
         11    1    4    4    0    0  0.38079869787E-01  0.85288095635E-01 -0.40910831193E-01  0.10197103986E+00  0.51100000000E-03 0. -1.
</event>
<event>
 8    1  0.1143957E+005  0.1043930E+01  0.7957747E-01            NaN
         13   -1    0    0    0    0  0.00000000000E+00  0.00000000000E+00  0.74505805969E-08  0.10566000000E+00  0.10566000000E+00 0. -1.
     999900   -1    0    0    0    0 -0.00000000000E+00 -0.00000000000E+00 -0.74505805969E-08  0.93827000000E+00  0.93827000000E+00 0.  1.
     999902    2    1    2    0    0  0.22987464987E-02 -0.23747670270E-02 -0.23246321259E-01  0.10204498977E+01  0.10201797285E+01 0.  0.
     999903    2    3    3    0    0  0.62437631619E-02 -0.11972015420E+00 -0.52036395839E-01  0.13218508836E+00  0.19829553485E-01 0.  0.
         14    1    1    2    0    0 -0.22987464987E-02  0.23747670270E-02  0.23246321259E-01  0.23480102341E-01  0.00000000000E+00 0. -1.
     999901    1    3    3    0    0 -0.39450166632E-02  0.11734538718E+00  0.28790074580E-01  0.88826480930E+00  0.88000000000E+00 0.  1.
        -11    1    4    4    0    0  0.10150127003E-01 -0.29824323797E-01 -0.12415140282E-01  0.33866092148E-01  0.51100000000E-03 0. -1.
         11    1    4    4    0    0 -0.39063638415E-02 -0.89895830406E-01 -0.39621255556E-01  0.98318996210E-01  0.51100000000E-03 0.  1.
</event>
<event>
 8    1  0.1143957E+005  0.1043930E+01  0.7957747E-01            NaN
         13   -1    0    0    0    0  0.00000000000E+00  0.00000000000E+00  0.74505805969E-08  0.10566000000E+00  0.10566000000E+00 0. -1.
     999900   -1    0    0    0    0 -0.00000000000E+00 -0.00000000000E+00 -0.74505805969E-08  0.93827000000E+00  0.93827000000E+00 0.  1.
     999902    2    1    2    0    0 -0.15833765492E-01  0.16760708394E-01 -0.53882475274E-03  0.10208666133E+01  0.10206060564E+01 0.  0.
     999903    2    3    3    0    0 -0.10892559677E+00  0.55750903899E-01 -0.49626475724E-01  0.13373870711E+00  0.21220409312E-01 0.  0.
         14    1    1    2    0    0  0.15833765492E-01 -0.16760708394E-01  0.53882475274E-03  0.23063386734E-01  0.00000000000E+00 0. -1.
     999901    1    3    3    0    0  0.93091831274E-01 -0.38990195505E-01  0.49087650971E-01  0.88712790615E+00  0.88000000000E+00 0. -1.
        -11    1    4    4    0    0 -0.95984982481E-01  0.50841134707E-01 -0.50654974383E-01  0.11985042925E+00  0.51100000000E-03 0.  1.
         11    1    4    4    0    0 -0.12940614284E-01  0.49097691917E-02  0.10284986593E-02  0.13888277865E-01  0.51100000000E-03 0. -1.
</event>
<event>
 8    1  0.1143957E+005  0.1043930E+01  0.7957747E-01            NaN
         13   -1    0    0    0    0  0.00000000000E+00  0.00000000000E+00  0.74505805969E-08  0.10566000000E+00  0.10566000000E+00 0.  1.
     999900   -1    0    0    0    0 -0.00000000000E+00 -0.00000000000E+00 -0.74505805969E-08  0.93827000000E+00  0.93827000000E+00 0. -1.
     999902    2    1    2    0    0  0.10556100379E-01 -0.22101546570E-01  0.56459648047E-02  0.10187946358E+01  0.10184845229E+01 0.  0.
     999903    2    3    3    0    0 -0.11886700126E-01 -0.10083439378E+00  0.81484199925E-01  0.13174673491E+00  0.20215308873E-01 0.  0.
         14    1    1    2    0    0 -0.10556100379E-01  0.22101546570E-01 -0.56459648047E-02  0.25135364222E-01  0.00000000000E+00 0. -1.
     999901    1    3    3    0    0  0.22442800505E-01  0.78732847215E-01 -0.75838235120E-01  0.88704790087E+00  0.88000000000E+00 0. -1.
        -11    1    4    4    0    0 -0.10668729592E-01 -0.35960420917E-01  0.39426055973E-01  0.54421031544E-01  0.51100000000E-03 0.  1.
         11    1    4    4    0    0 -0.12179705342E-02 -0.64873972867E-01  0.42058143951E-01  0.77325703368E-01  0.51100000000E-03 0. -1.
</event>
<event>
 8    1  0.1143957E+005  0.1043930E+01  0.7957747E-01            NaN
         13   -1    0    0    0    0  0.00000000000E+00  0.00000000000E+00  0.74505805969E-08  0.10566000000E+00  0.10566000000E+00 0.  1.
     999900   -1    0    0    0    0 -0.00000000000E+00 -0.00000000000E+00 -0.74505805969E-08  0.93827000000E+00  0.93827000000E+00 0.  1.
     999902    2    1    2    0    0 -0.10748595207E-01 -0.13853929196E-01  0.13160787635E-01  0.10220058128E+01  0.10217706256E+01 0.  0.
     999903    2    3    3    0    0 -0.11729503577E+00  0.22749918778E-02  0.62128859495E-01  0.13408117740E+00  0.18827266024E-01 0.  0.
         14    1    1    2    0    0  0.10748595207E-01  0.13853929196E-01 -0.13160787635E-01  0.21924187197E-01  0.00000000000E+00 0. -1.
     999901    1    3    3    0    0  0.10654644057E+00 -0.16128921074E-01 -0.48968071860E-01  0.88792463540E+00  0.88000000000E+00 0. -1.
        -11    1    4    4    0    0 -0.87813557896E-01  0.30393966647E-02  0.37029053072E-01  0.95351301904E-01  0.51100000000E-03 0.  1.
         11    1    4    4    0    0 -0.29481477877E-01 -0.76440478687E-03  0.25099806423E-01  0.38729875497E-01  0.51100000000E-03 0. -1.
</event>
<event>
 8    1  0.1143957E+005  0.1043930E+01  0.7957747E-01            NaN
         13   -1    0    0    0    0  0.00000000000E+00  0.00000000000E+00  0.74505805969E-08  0.10566000000E+00  0.10566000000E+00 0. -1.
     999900   -1    0    0    0    0 -0.00000000000E+00 -0.00000000000E+00 -0.74505805969E-08  0.93827000000E+00  0.93827000000E+00 0.  1.
     999902    2    1    2    0    0  0.15424688615E-01 -0.16063885175E-01  0.36580132572E-02  0.10213612055E+01  0.10211118262E+01 0.  0.
     999903    2    3    3    0    0  0.52546156892E-01  0.50297939999E-01  0.10818961617E+00  0.13191826111E+00  0.20160684409E-01 0.  0.
         14    1    1    2    0    0 -0.15424688615E-01  0.16063885175E-01 -0.36580132572E-02  0.22568794536E-01  0.00000000000E+00 0.  1.
     999901    1    3    3    0    0 -0.37121468277E-01 -0.66361825174E-01 -0.10453160291E+00  0.88944294435E+00  0.88000000000E+00 0.  1.
        -11    1    4    4    0    0  0.48204162490E-01  0.35516811538E-01  0.82106351053E-01  0.10162086000E+00  0.51100000000E-03 0.  1.
         11    1    4    4    0    0  0.43419944021E-02  0.14781128460E-01  0.26083265118E-01  0.30297401112E-01  0.51100000000E-03 0. -1.
</event>
<event>
 8    1  0.1143957E+005  0.1043930E+01  0.7957747E-01            NaN
         13   -1    0    0    0    0  0.00000000000E+00  0.00000000000E+00  0.74505805969E-08  0.10566000000E+00  0.10566000000E+00 0.  1.
     999900   -1    0    0    0    0 -0.00000000000E+00 -0.00000000000E+00 -0.74505805969E-08  0.93827000000E+00  0.93827000000E+00 0.  1.
     999902    2    1    2    0    0  0.14733319697E-01 -0.18689347525E-01 -0.10694031353E-02  0.10201076147E+01  0.10198294168E+01 0.  0.
     999903    2    3    3    0    0 -0.77197977517E-01 -0.88842661869E-01 -0.54020676312E-01  0.13096381962E+00  0.19512618493E-01 0.  0.
         14    1    1    2    0    0 -0.14733319697E-01  0.18689347525E-01  0.10694031353E-02  0.23822385340E-01  0.00000000000E+00 0. -1.
     999901    1    3    3    0    0  0.91931297214E-01  0.70153314344E-01  0.52951273176E-01  0.88914379504E+00  0.88000000000E+00 0. -1.
        -11    1    4    4    0    0 -0.23203060747E-01 -0.16549652261E-01 -0.76524388060E-02  0.29514300918E-01  0.51100000000E-03 0.  1.
         11    1    4    4    0    0 -0.53994916770E-01 -0.72293009608E-01 -0.46368237506E-01  0.10144951871E+00  0.51100000000E-03 0. -1.
</event>
<event>
 8    1  0.1143957E+005  0.1043930E+01  0.7957747E-01            NaN
         13   -1    0    0    0    0  0.00000000000E+00  0.00000000000E+00  0.74505805969E-08  0.10566000000E+00  0.10566000000E+00 0. -1.
     999900   -1    0    0    0    0 -0.00000000000E+00 -0.00000000000E+00 -0.74505805969E-08  0.93827000000E+00  0.93827000000E+00 0. -1.
     999902    2    1    2    0    0 -0.22528942387E-01 -0.21439246499E-02  0.72196916173E-02  0.10201755561E+01  0.10198989615E+01 0.  0.
     999903    2    3    3    0    0 -0.58569878246E-01  0.10140559700E+00  0.57519116008E-01  0.13194614621E+00  0.19692918878E-01 0.  0.
         14    1    1    2    0    0  0.22528942387E-01  0.21439246499E-02 -0.72196916173E-02  0.23754443900E-01  0.00000000000E+00 0. -1.
     999901    1    3    3    0    0  0.36040935859E-01 -0.10354952165E+00 -0.50299424390E-01  0.88822940989E+00  0.88000000000E+00 0. -1.
        -11    1    4    4    0    0 -0.31515761279E-01  0.39122390455E-01  0.17942855678E-01  0.53348025595E-01  0.51100000000E-03 0. -1.
         11    1    4    4    0    0 -0.27054116966E-01  0.62283206544E-01  0.39576260330E-01  0.78598120620E-01  0.51100000000E-03 0.  1.
</event>
<event>
 8    1  0.1143957E+005  0.1043930E+01  0.7957747E-01            NaN
         13   -1    0    0    0    0  0.00000000000E+00  0.00000000000E+00  0.74505805969E-08  0.10566000000E+00  0.10566000000E+00 0. -1.
     999900   -1    0    0    0    0 -0.00000000000E+00 -0.00000000000E+00 -0.74505805969E-08  0.93827000000E+00  0.93827000000E+00 0.  1.
     999902    2    1    2    0    0 -0.22084523667E-01 -0.50898970471E-02 -0.10293854331E-01  0.10190383011E+01  0.10187342452E+01 0.  0.
     999903    2    3    3    0    0  0.10300335803E+00 -0.64736635236E-01  0.31788195232E-01  0.12719996910E+00  0.19204662847E-01 0.  0.
         14    1    1    2    0    0  0.22084523667E-01  0.50898970471E-02  0.10293854331E-01  0.24891698908E-01  0.00000000000E+00 0.  1.
     999901    1    3    3    0    0 -0.12508788169E+00  0.59646738189E-01 -0.42082049563E-01  0.89183833200E+00  0.88000000000E+00 0.  1.
        -11    1    4    4    0    0  0.49610066579E-01 -0.20848699495E-01  0.10060812873E-01  0.54747676236E-01  0.51100000000E-03 0.  1.
         11    1    4    4    0    0  0.53393291449E-01 -0.43887935742E-01  0.21727382358E-01  0.72452292859E-01  0.51100000000E-03 0. -1.
</event>
<event>
 8    1  0.1143957E+005  0.1043930E+01  0.7957747E-01            NaN
         13   -1    0    0    0    0  0.00000000000E+00  0.00000000000E+00  0.74505805969E-08  0.10566000000E+00  0.10566000000E+00 0. -1.
     999900   -1    0    0    0    0 -0.00000000000E+00 -0.00000000000E+00 -0.74505805969E-08  0.93827000000E+00  0.93827000000E+00 0. -1.
     999902    2    1    2    0    0  0.66443822421E-02  0.71320643220E-02 -0.21704916857E-01  0.10201367746E+01  0.10198592655E+01 0.  0.
     999903    2    3    3    0    0  0.15661679609E-02  0.84206670412E-01 -0.10118844057E+00  0.13318473891E+00  0.20145916414E-01 0.  0.
         14    1    1    2    0    0 -0.66443822421E-02 -0.71320643220E-02  0.21704916857E-01  0.23793225352E-01  0.00000000000E+00 0. -1.
     999901    1    3    3    0    0  0.50782142811E-02 -0.77074606090E-01  0.79483523715E-01  0.88695203574E+00  0.88000000000E+00 0.  1.
        -11    1    4    4    0    0  0.68830832638E-02  0.59687692422E-01 -0.59725993048E-01  0.84719849082E-01  0.51100000000E-03 0.  1.
         11    1    4    4    0    0 -0.53169153028E-02  0.24518977990E-01 -0.41462447524E-01  0.48464889824E-01  0.51100000000E-03 0. -1.
</event>
<event>
 8    1  0.1143957E+005  0.1043930E+01  0.7957747E-01            NaN
         13   -1    0    0    0    0  0.00000000000E+00  0.00000000000E+00  0.74505805969E-08  0.10566000000E+00  0.10566000000E+00 0. -1.
     999900   -1    0    0    0    0 -0.00000000000E+00 -0.00000000000E+00 -0.74505805969E-08  0.93827000000E+00  0.93827000000E+00 0. -1.
     999902    2    1    2    0    0  0.11612990401E-01 -0.21435743088E-01 -0.27713369275E-02  0.10193936405E+01  0.10190983080E+01 0.  0.
     999903    2    3    3    0    0  0.10246201828E+00 -0.63040986786E-01  0.49671677078E-01  0.13218745711E+00  0.23100153867E-01 0.  0.
         14    1    1    2    0    0 -0.11612990401E-01  0.21435743088E-01  0.27713369275E-02  0.24536359473E-01  0.00000000000E+00 0.  1.
     999901    1    3    3    0    0 -0.90849027882E-01  0.41605243697E-01 -0.52443014005E-01  0.88720618341E+00  0.88000000000E+00 0. -1.
        -11    1    4    4    0    0  0.81574137234E-01 -0.46495185628E-01  0.28427800335E-01  0.98104755771E-01  0.51100000000E-03 0.  1.
         11    1    4    4    0    0  0.20887881050E-01 -0.16545801157E-01  0.21243876743E-01  0.34082701342E-01  0.51100000000E-03 0. -1.
</event>
<event>
 8    1  0.1143957E+005  0.1043930E+01  0.7957747E-01            NaN
         13   -1    0    0    0    0  0.00000000000E+00  0.00000000000E+00  0.74505805969E-08  0.10566000000E+00  0.10566000000E+00 0.  1.
     999900   -1    0    0    0    0 -0.00000000000E+00 -0.00000000000E+00 -0.74505805969E-08  0.93827000000E+00  0.93827000000E+00 0.  1.
     999902    2    1    2    0    0  0.13349075851E-01  0.17211225412E-01 -0.88964872141E-02  0.10204018978E+01  0.10201306100E+01 0.  0.
     999903    2    3    3    0    0 -0.52783729507E-01  0.11901898038E+00 -0.83990826709E-02  0.13206715557E+00  0.20482900160E-01 0.  0.
         14    1    1    2    0    0 -0.13349075851E-01 -0.17211225412E-01  0.88964872141E-02  0.23528102155E-01  0.00000000000E+00 0.  1.
     999901    1    3    3    0    0  0.66132805358E-01 -0.10180775497E+00 -0.49740454320E-03  0.88833474227E+00  0.88000000000E+00 0. -1.
        -11    1    4    4    0    0 -0.39364762556E-01  0.81336164275E-01 -0.14760996764E-01  0.91560386066E-01  0.51100000000E-03 0.  1.
         11    1    4    4    0    0 -0.13418966951E-01  0.37682816109E-01  0.63619140929E-02  0.40506769507E-01  0.51100000000E-03 0. -1.
</event>
<event>
 7    1  0.1143957E+005  0.1043930E+01  0.7957747E-01            NaN
         13   -1    0    0    0    0  0.00000000000E+00  0.00000000000E+00  0.74505805969E-08  0.10566000000E+00  0.10566000000E+00 0. -1.
     999900   -1    0    0    0    0 -0.00000000000E+00 -0.00000000000E+00 -0.74505805969E-08  0.93827000000E+00  0.93827000000E+00 0.  1.
     999903    2    1    2    0    0 -0.20993445578E-01 -0.73113013393E-01 -0.66207734037E-01  0.10181486785E+00  0.14020192046E-01 0.  0.
         14    1    1    2    0    0  0.32682614452E-01 -0.24147689890E-01 -0.31347037888E-01  0.51321545171E-01  0.00000000000E+00 0.  1.
     999901    1    1    2    0    0 -0.11689168874E-01  0.97260703283E-01  0.97554771925E-01  0.89079358698E+00  0.88000000000E+00 0. -1.
        -11    1    3    3    0    0 -0.42589440661E-02 -0.37342224054E-01 -0.28074890630E-01  0.46915252390E-01  0.51100000000E-03 0.  1.
         11    1    3    3    0    0 -0.16734501512E-01 -0.35770789339E-01 -0.38132843407E-01  0.54899615464E-01  0.51100000000E-03 0. -1.
</event>
<event>
 8    1  0.1143957E+005  0.1043930E+01  0.7957747E-01            NaN
         13   -1    0    0    0    0  0.00000000000E+00  0.00000000000E+00  0.74505805969E-08  0.10566000000E+00  0.10566000000E+00 0. -1.
     999900   -1    0    0    0    0 -0.00000000000E+00 -0.00000000000E+00 -0.74505805969E-08  0.93827000000E+00  0.93827000000E+00 0.  1.
     999902    2    1    2    0    0  0.18393294427E-01  0.12458404974E-01  0.63906480272E-02  0.10208136526E+01  0.10205518840E+01 0.  0.
     999903    2    3    3    0    0 -0.18485092306E-01  0.42678307902E-01 -0.12040812914E+00  0.13044789191E+00  0.18852011471E-01 0.  0.
         14    1    1    2    0    0 -0.18393294427E-01 -0.12458404974E-01 -0.63906480272E-02  0.23116347388E-01  0.00000000000E+00 0.  1.
     999901    1    3    3    0    0  0.36878386733E-01 -0.30219902928E-01  0.12679877717E+00  0.89036576070E+00  0.88000000000E+00 0. -1.
        -11    1    4    4    0    0  0.28560950113E-02  0.14262159355E-01 -0.31537244694E-01  0.34733634881E-01  0.51100000000E-03 0.  1.
         11    1    4    4    0    0 -0.21341187318E-01  0.28416148547E-01 -0.88870884449E-01  0.95714257027E-01  0.51100000000E-03 0. -1.
</event>
<event>
 8    1  0.1143957E+005  0.1043930E+01  0.7957747E-01            NaN
         13   -1    0    0    0    0  0.00000000000E+00  0.00000000000E+00  0.74505805969E-08  0.10566000000E+00  0.10566000000E+00 0. -1.
     999900   -1    0    0    0    0 -0.00000000000E+00 -0.00000000000E+00 -0.74505805969E-08  0.93827000000E+00  0.93827000000E+00 0. -1.
     999902    2    1    2    0    0  0.10515998635E-01  0.94006731213E-02  0.18508506206E-01  0.10206593385E+01  0.10203940228E+01 0.  0.
     999903    2    3    3    0    0 -0.29113149414E-01 -0.90115199469E-01 -0.84252942546E-01  0.12822794420E+00  0.19378408126E-01 0.  0.
         14    1    1    2    0    0 -0.10515998635E-01 -0.94006731213E-02 -0.18508506206E-01  0.23270661452E-01  0.00000000000E+00 0.  1.
     999901    1    3    3    0    0  0.39629148049E-01  0.99515872590E-01  0.10276144875E+00  0.89243139435E+00  0.88000000000E+00 0.  1.
        -11    1    4    4    0    0 -0.16455556726E-01 -0.52592821931E-01 -0.36097378370E-01  0.65879223675E-01  0.51100000000E-03 0. -1.
         11    1    4    4    0    0 -0.12657592689E-01 -0.37522377537E-01 -0.48155564176E-01  0.62348720523E-01  0.51100000000E-03 0.  1.
</event>
<event>
 8    1  0.1143957E+005  0.1043930E+01  0.7957747E-01            NaN
         13   -1    0    0    0    0  0.00000000000E+00  0.00000000000E+00  0.74505805969E-08  0.10566000000E+00  0.10566000000E+00 0. -1.
     999900   -1    0    0    0    0 -0.00000000000E+00 -0.00000000000E+00 -0.74505805969E-08  0.93827000000E+00  0.93827000000E+00 0. -1.
     999902    2    1    2    0    0 -0.15409838604E-01  0.47950474783E-02  0.17401868171E-01  0.10201964663E+01  0.10199203642E+01 0.  0.
     999903    2    3    3    0    0  0.54838764316E-01 -0.11261657392E+00  0.26215691188E-01  0.12957980436E+00  0.20344051711E-01 0.  0.
         14    1    1    2    0    0  0.15409838604E-01 -0.47950474783E-02 -0.17401868171E-01  0.23733533702E-01  0.00000000000E+00 0. -1.
     999901    1    3    3    0    0 -0.70248602920E-01  0.11741162140E+00 -0.88138230162E-02  0.89061666194E+00  0.88000000000E+00 0. -1.
        -11    1    4    4    0    0  0.30384990148E-01 -0.63382910265E-01  0.43813558857E-02  0.70427965613E-01  0.51100000000E-03 0.  1.
         11    1    4    4    0    0  0.24453774168E-01 -0.49233663653E-01  0.21834335302E-01  0.59151838744E-01  0.51100000000E-03 0. -1.
</event>
<event>
 8    1  0.1143957E+005  0.1043930E+01  0.7957747E-01            NaN
         13   -1    0    0    0    0  0.00000000000E+00  0.00000000000E+00  0.74505805969E-08  0.10566000000E+00  0.10566000000E+00 0. -1.
     999900   -1    0    0    0    0 -0.00000000000E+00 -0.00000000000E+00 -0.74505805969E-08  0.93827000000E+00  0.93827000000E+00 0. -1.
     999902    2    1    2    0    0  0.12134169546E-01  0.20433999825E-01 -0.55662906559E-02  0.10195215996E+01  0.10192293765E+01 0.  0.
     999903    2    3    3    0    0 -0.46155848705E-01  0.11254343743E+00  0.45541697015E-01  0.13132460503E+00  0.19383447616E-01 0.  0.
         14    1    1    2    0    0 -0.12134169546E-01 -0.20433999825E-01  0.55662906559E-02  0.24408400421E-01  0.00000000000E+00 0. -1.
     999901    1    3    3    0    0  0.58290018250E-01 -0.92109437602E-01 -0.51107987671E-01  0.88819699455E+00  0.88000000000E+00 0. -1.
        -11    1    4    4    0    0 -0.15579706329E-01  0.37834905964E-01  0.57406030573E-02  0.41320975340E-01  0.51100000000E-03 0.  1.
         11    1    4    4    0    0 -0.30576142376E-01  0.74708531464E-01  0.39801093958E-01  0.90003629690E-01  0.51100000000E-03 0. -1.
</event>
<event>
 8    1  0.1143957E+005  0.1043930E+01  0.7957747E-01            NaN
         13   -1    0    0    0    0  0.00000000000E+00  0.00000000000E+00  0.74505805969E-08  0.10566000000E+00  0.10566000000E+00 0. -1.
     999900   -1    0    0    0    0 -0.00000000000E+00 -0.00000000000E+00 -0.74505805969E-08  0.93827000000E+00  0.93827000000E+00 0.  1.
     999902    2    1    2    0    0 -0.21525143315E-01  0.58460098333E-02 -0.88189666525E-02  0.10199449672E+01  0.10196629121E+01 0.  0.
     999903    2    3    3    0    0  0.82077969741E-01  0.69837549624E-01  0.66875319481E-01  0.12834071241E+00  0.19620235781E-01 0.  0.
         14    1    1    2    0    0  0.21525143315E-01 -0.58460098333E-02  0.88189666525E-02  0.23985032803E-01  0.00000000000E+00 0. -1.
     999901    1    3    3    0    0 -0.10360311306E+00 -0.63991539791E-01 -0.75694286134E-01  0.89160425479E+00  0.88000000000E+00 0.  1.
        -11    1    4    4    0    0  0.62270587761E-01  0.53609531251E-01  0.40616421838E-01  0.91660039194E-01  0.51100000000E-03 0.  1.
         11    1    4    4    0    0  0.19807381980E-01  0.16228018373E-01  0.26258897643E-01  0.36680673217E-01  0.51100000000E-03 0. -1.
</event>
<event>
 8    1  0.1143957E+005  0.1043930E+01  0.7957747E-01            NaN
         13   -1    0    0    0    0  0.00000000000E+00  0.00000000000E+00  0.74505805969E-08  0.10566000000E+00  0.10566000000E+00 0. -1.
     999900   -1    0    0    0    0 -0.00000000000E+00 -0.00000000000E+00 -0.74505805969E-08  0.93827000000E+00  0.93827000000E+00 0. -1.
     999902    2    1    2    0    0  0.57755290713E-03 -0.59656608514E-02 -0.22991519833E-01  0.10201701039E+01  0.10198933809E+01 0.  0.
     999903    2    3    3    0    0 -0.93037097148E-01  0.42338972017E-01  0.75145810269E-01  0.12847061654E+00  0.20231572256E-01 0.  0.
         14    1    1    2    0    0 -0.57755290713E-03  0.59656608514E-02  0.22991519833E-01  0.23759896065E-01  0.00000000000E+00 0. -1.
     999901    1    3    3    0    0  0.93614650055E-01 -0.48304632868E-01 -0.98137330103E-01  0.89169948740E+00  0.88000000000E+00 0.  1.
        -11    1    4    4    0    0 -0.23497899629E-01  0.73437777259E-02  0.28710301022E-01  0.37823601944E-01  0.51100000000E-03 0. -1.
         11    1    4    4    0    0 -0.69539197519E-01  0.34995194291E-01  0.46435509247E-01  0.90647014596E-01  0.51100000000E-03 0.  1.
</event>
<event>
 8    1  0.1143957E+005  0.1043930E+01  0.7957747E-01            NaN
         13   -1    0    0    0    0  0.00000000000E+00  0.00000000000E+00  0.74505805969E-08  0.10566000000E+00  0.10566000000E+00 0.  1.
     999900   -1    0    0    0    0 -0.00000000000E+00 -0.00000000000E+00 -0.74505805969E-08  0.93827000000E+00  0.93827000000E+00 0.  1.
     999902    2    1    2    0    0 -0.22623801103E-01  0.55197416791E-03 -0.34820796617E-02  0.10210331458E+01  0.10207763805E+01 0.  0.
     999903    2    3    3    0    0  0.53416242979E-02  0.11876540386E+00 -0.51869200121E-01  0.13137152848E+00  0.20840116786E-01 0.  0.
         14    1    1    2    0    0  0.22623801103E-01 -0.55197416791E-03  0.34820796617E-02  0.22896854164E-01  0.00000000000E+00 0.  1.
     999901    1    3    3    0    0 -0.27965425401E-01 -0.11821342970E+00  0.48387120459E-01  0.88966161736E+00  0.88000000000E+00 0. -1.
        -11    1    4    4    0    0  0.13195289885E-02  0.11166212233E+00 -0.44015709587E-01  0.12003255613E+00  0.51100000000E-03 0.  1.
         11    1    4    4    0    0  0.40220953094E-02  0.71032815306E-02 -0.78534905336E-02  0.11338972341E-01  0.51100000000E-03 0. -1.
</event>
<event>
 8    1  0.1143957E+005  0.1043930E+01  0.7957747E-01            NaN
         13   -1    0    0    0    0  0.00000000000E+00  0.00000000000E+00  0.74505805969E-08  0.10566000000E+00  0.10566000000E+00 0.  1.
     999900   -1    0    0    0    0 -0.00000000000E+00 -0.00000000000E+00 -0.74505805969E-08  0.93827000000E+00  0.93827000000E+00 0. -1.
     999902    2    1    2    0    0  0.37551797787E-02 -0.48981027562E-05 -0.21732019054E-01  0.10218759289E+01  0.10216379163E+01 0.  0.
     999903    2    3    3    0    0  0.10289222548E+00 -0.29621248910E-01 -0.75922072259E-01  0.13415871948E+00  0.27751982002E-01 0.  0.
         14    1    1    2    0    0 -0.37551797787E-02  0.48981027562E-05  0.21732019054E-01  0.22054071083E-01  0.00000000000E+00 0.  1.
     999901    1    3    3    0    0 -0.99137045701E-01  0.29616350807E-01  0.54190053205E-01  0.88771720944E+00  0.88000000000E+00 0.  1.
        -11    1    4    4    0    0  0.33742749059E-01 -0.21465328901E-01 -0.36480124513E-01  0.54133114306E-01  0.51100000000E-03 0. -1.
         11    1    4    4    0    0  0.69149476420E-01 -0.81559200084E-02 -0.39441947746E-01  0.80025605174E-01  0.51100000000E-03 0.  1.
</event>
<event>
 8    1  0.1143957E+005  0.1043930E+01  0.7957747E-01            NaN
         13   -1    0    0    0    0  0.00000000000E+00  0.00000000000E+00  0.74505805969E-08  0.10566000000E+00  0.10566000000E+00 0.  1.
     999900   -1    0    0    0    0 -0.00000000000E+00 -0.00000000000E+00 -0.74505805969E-08  0.93827000000E+00  0.93827000000E+00 0.  1.
     999902    2    1    2    0    0  0.96431397081E-02  0.21553195642E-01  0.36702883970E-02  0.10200343644E+01  0.10197544327E+01 0.  0.
     999903    2    3    3    0    0 -0.96585941452E-01  0.72640649036E-01 -0.46454194941E-01  0.13076106024E+00  0.18301766861E-01 0.  0.
         14    1    1    2    0    0 -0.96431397081E-02 -0.21553195642E-01 -0.36702883970E-02  0.23895635642E-01  0.00000000000E+00 0.  1.
     999901    1    3    3    0    0  0.10622908116E+00 -0.51087453393E-01  0.50124483338E-01  0.88927330411E+00  0.88000000000E+00 0. -1.
        -11    1    4    4    0    0 -0.49160402454E-01  0.48181967722E-01 -0.24710900364E-01  0.73137793929E-01  0.51100000000E-03 0. -1.
         11    1    4    4    0    0 -0.47425538998E-01  0.24458681314E-01 -0.21743294577E-01  0.57623266316E-01  0.51100000000E-03 0.  1.
</event>
<event>
 8    1  0.1143957E+005  0.1043930E+01  0.7957747E-01            NaN
         13   -1    0    0    0    0  0.00000000000E+00  0.00000000000E+00  0.74505805969E-08  0.10566000000E+00  0.10566000000E+00 0. -1.
     999900   -1    0    0    0    0 -0.00000000000E+00 -0.00000000000E+00 -0.74505805969E-08  0.93827000000E+00  0.93827000000E+00 0.  1.
     999902    2    1    2    0    0 -0.71252614203E-03 -0.14577684884E-01  0.17565769167E-01  0.10210920308E+01  0.10208365993E+01 0.  0.
     999903    2    3    3    0    0  0.70634981779E-01 -0.32410315603E-01  0.10669263476E+00  0.13353805061E+00  0.20232731908E-01 0.  0.
         14    1    1    2    0    0  0.71252614203E-03  0.14577684884E-01 -0.17565769167E-01  0.22837969185E-01  0.00000000000E+00 0.  1.
     999901    1    3    3    0    0 -0.71347507921E-01  0.17832630719E-01 -0.89126865593E-01  0.88755398020E+00  0.88000000000E+00 0.  1.
        -11    1    4    4    0    0  0.52247624407E-02 -0.18766438389E-02  0.11865903176E-02  0.56999168627E-02  0.51100000000E-03 0.  1.
         11    1    4    4    0    0  0.65410219338E-01 -0.30533671764E-01  0.10550604444E+00  0.12783813375E+00  0.51100000000E-03 0. -1.
</event>
<event>
 8    1  0.1143957E+005  0.1043930E+01  0.7957747E-01            NaN
         13   -1    0    0    0    0  0.00000000000E+00  0.00000000000E+00  0.74505805969E-08  0.10566000000E+00  0.10566000000E+00 0.  1.
     999900   -1    0    0    0    0 -0.00000000000E+00 -0.00000000000E+00 -0.74505805969E-08  0.93827000000E+00  0.93827000000E+00 0. -1.
     999902    2    1    2    0    0 -0.70927356481E-02  0.91978980541E-02  0.20385572984E-01  0.10204676938E+01  0.10201979387E+01 0.  0.
     999903    2    3    3    0    0  0.97239490095E-01  0.45692180957E-03 -0.81170522387E-01  0.12846138298E+00  0.21399672896E-01 0.  0.
         14    1    1    2    0    0  0.70927356481E-02 -0.91978980541E-02 -0.20385572984E-01  0.23462306227E-01  0.00000000000E+00 0. -1.
     999901    1    3    3    0    0 -0.10433222574E+00  0.87409762445E-02  0.10155609537E+00  0.89200631080E+00  0.88000000000E+00 0.  1.
        -11    1    4    4    0    0  0.64675080556E-01 -0.40243729024E-02 -0.65149793765E-01  0.91890251773E-01  0.51100000000E-03 0. -1.
         11    1    4    4    0    0  0.32564409539E-01  0.44812947120E-02 -0.16020728622E-01  0.36571131203E-01  0.51100000000E-03 0.  1.
</event>
<event>
 8    1  0.1143957E+005  0.1043930E+01  0.7957747E-01            NaN
         13   -1    0    0    0    0  0.00000000000E+00  0.00000000000E+00  0.74505805969E-08  0.10566000000E+00  0.10566000000E+00 0. -1.
     999900   -1    0    0    0    0 -0.00000000000E+00 -0.00000000000E+00 -0.74505805969E-08  0.93827000000E+00  0.93827000000E+00 0.  1.
     999902    2    1    2    0    0  0.50396003247E-02 -0.14507342122E-01  0.17845645299E-01  0.10203858372E+01  0.10201141745E+01 0.  0.
     999903    2    3    3    0    0 -0.31260861755E-01 -0.45321313635E-01  0.11971193990E+00  0.13323085277E+00  0.19704025651E-01 0.  0.
         14    1    1    2    0    0 -0.50396003247E-02  0.14507342122E-01 -0.17845645299E-01  0.23544162823E-01  0.00000000000E+00 0.  1.
     999901    1    3    3    0    0  0.36300462079E-01  0.30813971513E-01 -0.10186629460E+00  0.88715498441E+00  0.88000000000E+00 0.  1.
        -11    1    4    4    0    0 -0.18426507706E-01 -0.40947839676E-01  0.92418891049E-01  0.10275103067E+00  0.51100000000E-03 0.  1.
         11    1    4    4    0    0 -0.12834354048E-01 -0.43734739591E-02  0.27293048852E-01  0.30479822095E-01  0.51100000000E-03 0. -1.
</event>
<event>
 8    1  0.1143957E+005  0.1043930E+01  0.7957747E-01            NaN
         13   -1    0    0    0    0  0.00000000000E+00  0.00000000000E+00  0.74505805969E-08  0.10566000000E+00  0.10566000000E+00 0. -1.
     999900   -1    0    0    0    0 -0.00000000000E+00 -0.00000000000E+00 -0.74505805969E-08  0.93827000000E+00  0.93827000000E+00 0. -1.
     999902    2    1    2    0    0  0.98850049615E-02  0.12505730840E-01 -0.18886762631E-01  0.10192152993E+01  0.10189156049E+01 0.  0.
     999903    2    3    3    0    0 -0.10399654003E+00 -0.64035465147E-02 -0.74914195072E-01  0.12990903023E+00  0.20197370244E-01 0.  0.
         14    1    1    2    0    0 -0.98850049615E-02 -0.12505730840E-01  0.18886762631E-01  0.24714700678E-01  0.00000000000E+00 0. -1.
     999901    1    3    3    0    0  0.11388154500E+00  0.18909277355E-01  0.56027432441E-01  0.88930626909E+00  0.88000000000E+00 0. -1.
        -11    1    4    4    0    0 -0.54197997973E-01 -0.54067488480E-02 -0.51143703622E-01  0.74716768256E-01  0.51100000000E-03 0.  1.
         11    1    4    4    0    0 -0.49798542061E-01 -0.99679766666E-03 -0.23770491450E-01  0.55192261974E-01  0.51100000000E-03 0. -1.
</event>
<event>
 8    1  0.1143957E+005  0.1043930E+01  0.7957747E-01            NaN
         13   -1    0    0    0    0  0.00000000000E+00  0.00000000000E+00  0.74505805969E-08  0.10566000000E+00  0.10566000000E+00 0. -1.
     999900   -1    0    0    0    0 -0.00000000000E+00 -0.00000000000E+00 -0.74505805969E-08  0.93827000000E+00  0.93827000000E+00 0. -1.
     999902    2    1    2    0    0 -0.23669886096E-01  0.21884164083E-03  0.81988007833E-02  0.10188794165E+01  0.10185714180E+01 0.  0.
     999903    2    3    3    0    0 -0.94185051094E-01  0.26544925873E-01 -0.84283019540E-01  0.13083756034E+00  0.20961461611E-01 0.  0.
         14    1    1    2    0    0  0.23669886096E-01 -0.21884164083E-03 -0.81988007833E-02  0.25050583501E-01  0.00000000000E+00 0. -1.
     999901    1    3    3    0    0  0.70515164998E-01 -0.26326084232E-01  0.92481820323E-01  0.88804185616E+00  0.88000000000E+00 0.  1.
        -11    1    4    4    0    0 -0.37088782994E-01  0.21050693804E-01 -0.38236234042E-01  0.57279841552E-01  0.51100000000E-03 0.  1.
         11    1    4    4    0    0 -0.57096268101E-01  0.54942320694E-02 -0.46046785498E-01  0.73557718784E-01  0.51100000000E-03 0. -1.
</event>
<event>
 8    1  0.1143957E+005  0.1043930E+01  0.7957747E-01            NaN
         13   -1    0    0    0    0  0.00000000000E+00  0.00000000000E+00  0.74505805969E-08  0.10566000000E+00  0.10566000000E+00 0.  1.
     999900   -1    0    0    0    0 -0.00000000000E+00 -0.00000000000E+00 -0.74505805969E-08  0.93827000000E+00  0.93827000000E+00 0. -1.
     999902    2    1    2    0    0  0.94005159148E-02  0.83188415800E-02 -0.20328426107E-01  0.10200382078E+01  0.10197583673E+01 0.  0.
     999903    2    3    3    0    0  0.87861833655E-01  0.84235788649E-01  0.44172670140E-01  0.13094881264E+00  0.19519140411E-01 0.  0.
         14    1    1    2    0    0 -0.94005159148E-02 -0.83188415800E-02  0.20328426107E-01  0.23891792161E-01  0.00000000000E+00 0.  1.
     999901    1    3    3    0    0 -0.78461317741E-01 -0.75916947069E-01 -0.64501096247E-01  0.88908939520E+00  0.88000000000E+00 0. -1.
        -11    1    4    4    0    0  0.38266422225E-01  0.39463460714E-01  0.99070701746E-02  0.55857810214E-01  0.51100000000E-03 0. -1.
         11    1    4    4    0    0  0.49595411430E-01  0.44772327936E-01  0.34265599965E-01  0.75091002428E-01  0.51100000000E-03 0.  1.
</event>
<event>
 8    1  0.1143957E+005  0.1043930E+01  0.7957747E-01            NaN
         13   -1    0    0    0    0  0.00000000000E+00  0.00000000000E+00  0.74505805969E-08  0.10566000000E+00  0.10566000000E+00 0.  1.
     999900   -1    0    0    0    0 -0.00000000000E+00 -0.00000000000E+00 -0.74505805969E-08  0.93827000000E+00  0.93827000000E+00 0. -1.
     999902    2    1    2    0    0 -0.11843821961E-01  0.49611149065E-02 -0.20187585004E-01  0.10200045456E+01  0.10197239066E+01 0.  0.
     999903    2    3    3    0    0  0.27752407649E-01 -0.86546351822E-02 -0.12636489769E+00  0.13263378218E+00  0.27902221547E-01 0.  0.
         14    1    1    2    0    0  0.11843821961E-01 -0.49611149065E-02  0.20187585004E-01  0.23925454396E-01  0.00000000000E+00 0.  1.
     999901    1    3    3    0    0 -0.39596229610E-01  0.13615750089E-01  0.10617731269E+00  0.88737076342E+00  0.88000000000E+00 0.  1.
        -11    1    4    4    0    0  0.27529368116E-01  0.68013682117E-03 -0.11309130021E+00  0.11639687281E+00  0.51100000000E-03 0.  1.
         11    1    4    4    0    0  0.22303953249E-03 -0.93347720034E-02 -0.13273597478E-01  0.16236909373E-01  0.51100000000E-03 0. -1.
</event>
<event>
 8    1  0.1143957E+005  0.1043930E+01  0.7957747E-01            NaN
         13   -1    0    0    0    0  0.00000000000E+00  0.00000000000E+00  0.74505805969E-08  0.10566000000E+00  0.10566000000E+00 0.  1.
     999900   -1    0    0    0    0 -0.00000000000E+00 -0.00000000000E+00 -0.74505805969E-08  0.93827000000E+00  0.93827000000E+00 0. -1.
     999902    2    1    2    0    0 -0.24908002585E-01 -0.10763766422E-01  0.53056267912E-02  0.10162819090E+01  0.10159057543E+01 0.  0.
     999903    2    3    3    0    0  0.24793222080E-01 -0.11043763878E+00  0.55510071970E-01  0.12784193980E+00  0.21237174031E-01 0.  0.
         14    1    1    2    0    0  0.24908002585E-01  0.10763766422E-01 -0.53056267912E-02  0.27648091001E-01  0.00000000000E+00 0. -1.
     999901    1    3    3    0    0 -0.49701224665E-01  0.99673872354E-01 -0.50204445179E-01  0.88843996920E+00  0.88000000000E+00 0. -1.
        -11    1    4    4    0    0  0.11382512481E-01 -0.23659835489E-01  0.20483213881E-01  0.33304242637E-01  0.51100000000E-03 0.  1.
         11    1    4    4    0    0  0.13410709599E-01 -0.86777803287E-01  0.35026858090E-01  0.94537697158E-01  0.51100000000E-03 0. -1.
</event>
<event>
 8    1  0.1143957E+005  0.1043930E+01  0.7957747E-01            NaN
         13   -1    0    0    0    0  0.00000000000E+00  0.00000000000E+00  0.74505805969E-08  0.10566000000E+00  0.10566000000E+00 0.  1.
     999900   -1    0    0    0    0 -0.00000000000E+00 -0.00000000000E+00 -0.74505805969E-08  0.93827000000E+00  0.93827000000E+00 0.  1.
     999902    2    1    2    0    0 -0.21576961858E-01  0.65780601850E-02  0.61419364554E-02  0.10205513871E+01  0.10202835753E+01 0.  0.
     999903    2    3    3    0    0 -0.18254213932E-01  0.11480291540E+00 -0.58280663461E-01  0.13157786029E+00  0.20079140316E-01 0.  0.
         14    1    1    2    0    0  0.21576961858E-01 -0.65780601850E-02 -0.61419364554E-02  0.23378612924E-01  0.00000000000E+00 0.  1.
     999901    1    3    3    0    0 -0.33227479267E-02 -0.10822485521E+00  0.64422599916E-01  0.88897352678E+00  0.88000000000E+00 0.  1.
        -11    1    4    4    0    0 -0.13005083882E-01  0.27776105577E-01 -0.12747114642E-01  0.33217379495E-01  0.51100000000E-03 0.  1.
         11    1    4    4    0    0 -0.52491300495E-02  0.87026809821E-01 -0.45533548819E-01  0.98360480799E-01  0.51100000000E-03 0. -1.
</event>
<event>
 8    1  0.1143957E+005  0.1043930E+01  0.7957747E-01            NaN
         13   -1    0    0    0    0  0.00000000000E+00  0.00000000000E+00  0.74505805969E-08  0.10566000000E+00  0.10566000000E+00 0. -1.
     999900   -1    0    0    0    0 -0.00000000000E+00 -0.00000000000E+00 -0.74505805969E-08  0.93827000000E+00  0.93827000000E+00 0.  1.
     999902    2    1    2    0    0 -0.14935795523E-01 -0.18941805412E-01  0.86704408660E-03  0.10197924412E+01  0.10195067441E+01 0.  0.
     999903    2    3    3    0    0 -0.66493538606E-01 -0.40847429186E-01  0.10306921989E+00  0.13210818315E+00  0.27191999167E-01 0.  0.
         14    1    1    2    0    0  0.14935795523E-01  0.18941805412E-01 -0.86704408660E-03  0.24137558816E-01  0.00000000000E+00 0.  1.
     999901    1    3    3    0    0  0.51557743083E-01  0.21905623775E-01 -0.10220217580E+00  0.88768425804E+00  0.88000000000E+00 0. -1.
        -11    1    4    4    0    0 -0.55834760455E-01 -0.41409561110E-01  0.75956365139E-01  0.10296554158E+00  0.51100000000E-03 0.  1.
         11    1    4    4    0    0 -0.10658778151E-01  0.56213192341E-03  0.27112854750E-01  0.29142641570E-01  0.51100000000E-03 0. -1.
</event>
<event>
 8    1  0.1143957E+005  0.1043930E+01  0.7957747E-01            NaN
         13   -1    0    0    0    0  0.00000000000E+00  0.00000000000E+00  0.74505805969E-08  0.10566000000E+00  0.10566000000E+00 0.  1.
     999900   -1    0    0    0    0 -0.00000000000E+00 -0.00000000000E+00 -0.74505805969E-08  0.93827000000E+00  0.93827000000E+00 0.  1.
     999902    2    1    2    0    0  0.12174465867E-01  0.19830171321E-01  0.32145890304E-02  0.10204398553E+01  0.10201694523E+01 0.  0.
     999903    2    3    3    0    0  0.21344156413E-01  0.40383651562E-02 -0.12719332642E+00  0.13064230039E+00  0.20430050447E-01 0.  0.
         14    1    1    2    0    0 -0.12174465867E-01 -0.19830171321E-01 -0.32145890304E-02  0.23490144665E-01  0.00000000000E+00 0. -1.
     999901    1    3    3    0    0 -0.91696905454E-02  0.15791806165E-01  0.13040791545E+00  0.88979755494E+00  0.88000000000E+00 0. -1.
        -11    1    4    4    0    0  0.18625066867E-02 -0.68598342954E-02 -0.40344523762E-01  0.40969110025E-01  0.51100000000E-03 0. -1.
         11    1    4    4    0    0  0.19481649726E-01  0.10898199452E-01 -0.86848802655E-01  0.89673190369E-01  0.51100000000E-03 0.  1.
</event>
<event>
 8    1  0.1143957E+005  0.1043930E+01  0.7957747E-01            NaN
         13   -1    0    0    0    0  0.00000000000E+00  0.00000000000E+00  0.74505805969E-08  0.10566000000E+00  0.10566000000E+00 0. -1.
     999900   -1    0    0    0    0 -0.00000000000E+00 -0.00000000000E+00 -0.74505805969E-08  0.93827000000E+00  0.93827000000E+00 0.  1.
     999902    2    1    2    0    0 -0.19507988738E-01 -0.10929886446E-01 -0.88116845741E-02  0.10198952371E+01  0.10196119972E+01 0.  0.
     999903    2    3    3    0    0 -0.11704649469E-01  0.90621250239E-01 -0.90564130403E-01  0.13025655322E+00  0.20388676452E-01 0.  0.
         14    1    1    2    0    0  0.19507988738E-01  0.10929886446E-01  0.88116845741E-02  0.24034762893E-01  0.00000000000E+00 0.  1.
     999901    1    3    3    0    0 -0.78033392681E-02 -0.10155113669E+00  0.81752445829E-01  0.88963868389E+00  0.88000000000E+00 0. -1.
        -11    1    4    4    0    0 -0.12722786850E-01  0.33723372125E-01 -0.27711127535E-01  0.45467602125E-01  0.51100000000E-03 0. -1.
         11    1    4    4    0    0  0.10181373806E-02  0.56897878114E-01 -0.62853002868E-01  0.84788951097E-01  0.51100000000E-03 0.  1.
</event>
<event>
 8    1  0.1143957E+005  0.1043930E+01  0.7957747E-01            NaN
         13   -1    0    0    0    0  0.00000000000E+00  0.00000000000E+00  0.74505805969E-08  0.10566000000E+00  0.10566000000E+00 0.  1.
     999900   -1    0    0    0    0 -0.00000000000E+00 -0.00000000000E+00 -0.74505805969E-08  0.93827000000E+00  0.93827000000E+00 0. -1.
     999902    2    1    2    0    0 -0.12489456377E-03 -0.11966921405E-01 -0.20315308172E-01  0.10203517356E+01  0.10200792762E+01 0.  0.
     999903    2    3    3    0    0  0.46929327473E-01 -0.10211002206E+00 -0.68224538904E-01  0.13320170724E+00  0.21431022394E-01 0.  0.
         14    1    1    2    0    0  0.12489456377E-03  0.11966921405E-01  0.20315308172E-01  0.23578264413E-01  0.00000000000E+00 0.  1.
     999901    1    3    3    0    0 -0.47054222037E-01  0.90143100655E-01  0.47909230732E-01  0.88715002835E+00  0.88000000000E+00 0.  1.
        -11    1    4    4    0    0 -0.15214587991E-02 -0.79255187636E-02 -0.21600938298E-02  0.83699349402E-02  0.51100000000E-03 0.  1.
         11    1    4    4    0    0  0.48450786272E-01 -0.94184503296E-01 -0.66064445075E-01  0.12483177230E+00  0.51100000000E-03 0. -1.
</event>
<event>
 8    1  0.1143957E+005  0.1043930E+01  0.7957747E-01            NaN
         13   -1    0    0    0    0  0.00000000000E+00  0.00000000000E+00  0.74505805969E-08  0.10566000000E+00  0.10566000000E+00 0.  1.
     999900   -1    0    0    0    0 -0.00000000000E+00 -0.00000000000E+00 -0.74505805969E-08  0.93827000000E+00  0.93827000000E+00 0. -1.
     999902    2    1    2    0    0  0.21323318298E-01 -0.70853912669E-02 -0.93460049614E-02  0.10195941318E+01  0.10193036638E+01 0.  0.
     999903    2    3    3    0    0  0.10466887389E+00  0.62783345158E-01  0.43655103093E-01  0.13131645031E+00  0.20998107183E-01 0.  0.
         14    1    1    2    0    0 -0.21323318298E-01  0.70853912669E-02  0.93460049614E-02  0.24335868207E-01  0.00000000000E+00 0. -1.
     999901    1    3    3    0    0 -0.83345555592E-01 -0.69868736425E-01 -0.53001108054E-01  0.88827768148E+00  0.88000000000E+00 0. -1.
        -11    1    4    4    0    0  0.70669720628E-01  0.37479894785E-01  0.18774902095E-01  0.82168789674E-01  0.51100000000E-03 0. -1.
         11    1    4    4    0    0  0.33999153262E-01  0.25303450372E-01  0.24880200998E-01  0.49147660636E-01  0.51100000000E-03 0.  1.
</event>
<event>
 8    1  0.1143957E+005  0.1043930E+01  0.7957747E-01            NaN
         13   -1    0    0    0    0  0.00000000000E+00  0.00000000000E+00  0.74505805969E-08  0.10566000000E+00  0.10566000000E+00 0. -1.
     999900   -1    0    0    0    0 -0.00000000000E+00 -0.00000000000E+00 -0.74505805969E-08  0.93827000000E+00  0.93827000000E+00 0. -1.
     999902    2    1    2    0    0 -0.53485583966E-03 -0.26546183470E-02 -0.22611224080E-01  0.10211571977E+01  0.10209032383E+01 0.  0.
     999903    2    3    3    0    0  0.59044376898E-01 -0.11242102392E+00  0.23272515934E-01  0.13115513797E+00  0.23137310903E-01 0.  0.
         14    1    1    2    0    0  0.53485583966E-03  0.26546183470E-02  0.22611224080E-01  0.22772802281E-01  0.00000000000E+00 0. -1.
     999901    1    3    3    0    0 -0.59579232737E-01  0.10976640557E+00 -0.45883740013E-01  0.89000205975E+00  0.88000000000E+00 0. -1.
        -11    1    4    4    0    0  0.60044750251E-01 -0.10031489997E+00  0.20843507828E-01  0.11875674351E+00  0.51100000000E-03 0. -1.
         11    1    4    4    0    0 -0.10003733531E-02 -0.12106123944E-01  0.24290081053E-02  0.12398394459E-01  0.51100000000E-03 0.  1.
</event>
<event>
 8    1  0.1143957E+005  0.1043930E+01  0.7957747E-01            NaN
         13   -1    0    0    0    0  0.00000000000E+00  0.00000000000E+00  0.74505805969E-08  0.10566000000E+00  0.10566000000E+00 0. -1.
     999900   -1    0    0    0    0 -0.00000000000E+00 -0.00000000000E+00 -0.74505805969E-08  0.93827000000E+00  0.93827000000E+00 0. -1.
     999902    2    1    2    0    0 -0.19522621030E-01 -0.12660413240E-01  0.57334943555E-02  0.10199656149E+01  0.10196840510E+01 0.  0.
     999903    2    3    3    0    0 -0.67154713539E-01  0.10567623824E+00 -0.28965340656E-01  0.13009124823E+00  0.20187100548E-01 0.  0.
         14    1    1    2    0    0  0.19522621030E-01  0.12660413240E-01 -0.57334943555E-02  0.23964385092E-01  0.00000000000E+00 0.  1.
     999901    1    3    3    0    0  0.47632092509E-01 -0.11833665148E+00  0.34698835012E-01  0.88987436668E+00  0.88000000000E+00 0.  1.
        -11    1    4    4    0    0 -0.42082322617E-01  0.50862483635E-01 -0.21076150327E-01  0.69299201669E-01  0.51100000000E-03 0.  1.
         11    1    4    4    0    0 -0.25072390922E-01  0.54813754602E-01 -0.78891903285E-02  0.60792046561E-01  0.51100000000E-03 0. -1.
</event>
<event>
 8    1  0.1143957E+005  0.1043930E+01  0.7957747E-01            NaN
         13   -1    0    0    0    0  0.00000000000E+00  0.00000000000E+00  0.74505805969E-08  0.10566000000E+00  0.10566000000E+00 0. -1.
     999900   -1    0    0    0    0 -0.00000000000E+00 -0.00000000000E+00 -0.74505805969E-08  0.93827000000E+00  0.93827000000E+00 0.  1.
     999902    2    1    2    0    0  0.14907229042E-01  0.17270836957E-01  0.40142775722E-02  0.10207649032E+01  0.10205020166E+01 0.  0.
     999903    2    3    3    0    0 -0.53126167487E-01 -0.11380464634E+00  0.15799337829E-01  0.12838145811E+00  0.21407767541E-01 0.  0.
         14    1    1    2    0    0 -0.14907229042E-01 -0.17270836957E-01 -0.40142775722E-02  0.23165096834E-01  0.00000000000E+00 0.  1.
     999901    1    3    3    0    0  0.68033396529E-01  0.13107548329E+00 -0.11785060257E-01  0.89238344506E+00  0.88000000000E+00 0.  1.
        -11    1    4    4    0    0 -0.24277176610E-01 -0.73259088413E-01  0.42547397521E-02  0.77295790769E-01  0.51100000000E-03 0.  1.
         11    1    4    4    0    0 -0.28848990877E-01 -0.40545557924E-01  0.11544598077E-01  0.51085667342E-01  0.51100000000E-03 0. -1.
</event>
<event>
 8    1  0.1143957E+005  0.1043930E+01  0.7957747E-01            NaN
         13   -1    0    0    0    0  0.00000000000E+00  0.00000000000E+00  0.74505805969E-08  0.10566000000E+00  0.10566000000E+00 0.  1.
     999900   -1    0    0    0    0 -0.00000000000E+00 -0.00000000000E+00 -0.74505805969E-08  0.93827000000E+00  0.93827000000E+00 0. -1.
     999902    2    1    2    0    0 -0.18117900356E-01 -0.30170856298E-02 -0.14524468134E-01  0.10205137387E+01  0.10202450537E+01 0.  0.
     999903    2    3    3    0    0  0.42963437068E-03  0.91288446918E-01  0.89016415184E-01  0.12924595681E+00  0.21138354991E-01 0.  0.
         14    1    1    2    0    0  0.18117900356E-01  0.30170856298E-02  0.14524468134E-01  0.23416261307E-01  0.00000000000E+00 0.  1.
     999901    1    3    3    0    0 -0.18547534727E-01 -0.94305532548E-01 -0.10354088332E+00  0.89126778189E+00  0.88000000000E+00 0. -1.
        -11    1    4    4    0    0  0.80007689293E-03  0.72374963826E-01  0.57314825959E-01  0.92325651406E-01  0.51100000000E-03 0. -1.
         11    1    4    4    0    0 -0.37044252225E-03  0.18913483092E-01  0.31701589225E-01  0.36920305399E-01  0.51100000000E-03 0.  1.
</event>
<event>
 8    1  0.1143957E+005  0.1043930E+01  0.7957747E-01            NaN
         13   -1    0    0    0    0  0.00000000000E+00  0.00000000000E+00  0.74505805969E-08  0.10566000000E+00  0.10566000000E+00 0.  1.
     999900   -1    0    0    0    0 -0.00000000000E+00 -0.00000000000E+00 -0.74505805969E-08  0.93827000000E+00  0.93827000000E+00 0.  1.
     999902    2    1    2    0    0 -0.17470880098E-01 -0.11122844838E-01 -0.12180487935E-01  0.10199026486E+01  0.10196195854E+01 0.  0.
     999903    2    3    3    0    0 -0.11133833456E+00  0.56757571091E-01 -0.37346467481E-01  0.13195435259E+00  0.19988644639E-01 0.  0.
         14    1    1    2    0    0  0.17470880098E-01  0.11122844838E-01  0.12180487935E-01  0.24027351394E-01  0.00000000000E+00 0.  1.
     999901    1    3    3    0    0  0.93867454464E-01 -0.67880415929E-01  0.25165979546E-01  0.88794829602E+00  0.88000000000E+00 0. -1.
        -11    1    4    4    0    0 -0.83346393429E-01  0.45060764012E-01 -0.19439675138E-01  0.96722571520E-01  0.51100000000E-03 0.  1.
         11    1    4    4    0    0 -0.27991941133E-01  0.11696807079E-01 -0.17906792342E-01  0.35231781068E-01  0.51100000000E-03 0. -1.
</event>
<event>
 8    1  0.1143957E+005  0.1043930E+01  0.7957747E-01            NaN
         13   -1    0    0    0    0  0.00000000000E+00  0.00000000000E+00  0.74505805969E-08  0.10566000000E+00  0.10566000000E+00 0.  1.
     999900   -1    0    0    0    0 -0.00000000000E+00 -0.00000000000E+00 -0.74505805969E-08  0.93827000000E+00  0.93827000000E+00 0.  1.
     999902    2    1    2    0    0  0.11828509052E-01  0.11579456416E-02 -0.20076565242E-01  0.10205992706E+01  0.10203325674E+01 0.  0.
     999903    2    3    3    0    0  0.27919547184E-01 -0.12474052570E+00 -0.23804954964E-01  0.13148552784E+00  0.19546567024E-01 0.  0.
         14    1    1    2    0    0 -0.11828509052E-01 -0.11579456416E-02  0.20076565242E-01  0.23330729445E-01  0.00000000000E+00 0. -1.
     999901    1    3    3    0    0 -0.16091038132E-01  0.12589847135E+00  0.37283897213E-02  0.88911374272E+00  0.88000000000E+00 0. -1.
        -11    1    4    4    0    0  0.21163350546E-01 -0.78971907893E-01 -0.62462220532E-02  0.81998329577E-01  0.51100000000E-03 0.  1.
         11    1    4    4    0    0  0.67561966380E-02 -0.45768617812E-01 -0.17558732910E-01  0.49487198262E-01  0.51100000000E-03 0. -1.
</event>
<event>
 8    1  0.1143957E+005  0.1043930E+01  0.7957747E-01            NaN
         13   -1    0    0    0    0  0.00000000000E+00  0.00000000000E+00  0.74505805969E-08  0.10566000000E+00  0.10566000000E+00 0. -1.
     999900   -1    0    0    0    0 -0.00000000000E+00 -0.00000000000E+00 -0.74505805969E-08  0.93827000000E+00  0.93827000000E+00 0.  1.
     999902    2    1    2    0    0  0.15045159574E-01 -0.18254266167E-01  0.36978862781E-02  0.10199873723E+01  0.10197063254E+01 0.  0.
     999903    2    3    3    0    0  0.19223046106E-01  0.12182805121E+00  0.31170789009E-01  0.12847446111E+00  0.17957435966E-01 0.  0.
         14    1    1    2    0    0 -0.15045159574E-01  0.18254266167E-01 -0.36978862781E-02  0.23942627734E-01  0.00000000000E+00 0. -1.
     999901    1    3    3    0    0 -0.41778865324E-02 -0.14008231738E+00 -0.27472902731E-01  0.89151291116E+00  0.88000000000E+00 0. -1.
        -11    1    4    4    0    0  0.11475894870E-01  0.29832040848E-01  0.38776580327E-02  0.32201617615E-01  0.51100000000E-03 0. -1.
         11    1    4    4    0    0  0.77471512365E-02  0.91996010361E-01  0.27293130977E-01  0.96272843493E-01  0.51100000000E-03 0.  1.
</event>
<event>
 8    1  0.1143957E+005  0.1043930E+01  0.7957747E-01            NaN
         13   -1    0    0    0    0  0.00000000000E+00  0.00000000000E+00  0.74505805969E-08  0.10566000000E+00  0.10566000000E+00 0. -1.
     999900   -1    0    0    0    0 -0.00000000000E+00 -0.00000000000E+00 -0.74505805969E-08  0.93827000000E+00  0.93827000000E+00 0. -1.
     999902    2    1    2    0    0 -0.19644181001E-01 -0.20627980814E-02 -0.12146531909E-01  0.10207419164E+01  0.10204785018E+01 0.  0.
     999903    2    3    3    0    0  0.10524281528E+00 -0.65865160010E-01 -0.30414743912E-01  0.12945002775E+00  0.20444646341E-01 0.  0.
         14    1    1    2    0    0  0.19644181001E-01  0.20627980814E-02  0.12146531909E-01  0.23188083590E-01  0.00000000000E+00 0. -1.
     999901    1    3    3    0    0 -0.12488699629E+00  0.63802361928E-01  0.18268212003E-01  0.89129188866E+00  0.88000000000E+00 0.  1.
        -11    1    4    4    0    0  0.35986262291E-01 -0.33822464911E-01 -0.91271088669E-02  0.50224848866E-01  0.51100000000E-03 0. -1.
         11    1    4    4    0    0  0.69256552994E-01 -0.32042695099E-01 -0.21287635046E-01  0.79225178880E-01  0.51100000000E-03 0.  1.
</event>
<event>
 8    1  0.1143957E+005  0.1043930E+01  0.7957747E-01            NaN
         13   -1    0    0    0    0  0.00000000000E+00  0.00000000000E+00  0.74505805969E-08  0.10566000000E+00  0.10566000000E+00 0.  1.
     999900   -1    0    0    0    0 -0.00000000000E+00 -0.00000000000E+00 -0.74505805969E-08  0.93827000000E+00  0.93827000000E+00 0.  1.
     999902    2    1    2    0    0  0.57618575482E-02  0.23165923771E-01 -0.30996203667E-02  0.10198578860E+01  0.10195737545E+01 0.  0.
     999903    2    3    3    0    0 -0.69637230070E-01  0.10557038179E+00  0.26853333281E-01  0.13229228472E+00  0.28030300856E-01 0.  0.
         14    1    1    2    0    0 -0.57618575482E-02 -0.23165923771E-01  0.30996203667E-02  0.24072114012E-01  0.00000000000E+00 0.  1.
     999901    1    3    3    0    0  0.75399087618E-01 -0.82404458019E-01 -0.29952953648E-01  0.88756560126E+00  0.88000000000E+00 0.  1.
        -11    1    4    4    0    0 -0.37277801282E-01  0.33692889550E-01  0.15909286585E-01  0.52708744960E-01  0.51100000000E-03 0. -1.
         11    1    4    4    0    0 -0.32359428788E-01  0.71877492241E-01  0.10944046696E-01  0.79583539764E-01  0.51100000000E-03 0.  1.
</event>
<event>
 8    1  0.1143957E+005  0.1043930E+01  0.7957747E-01            NaN
         13   -1    0    0    0    0  0.00000000000E+00  0.00000000000E+00  0.74505805969E-08  0.10566000000E+00  0.10566000000E+00 0.  1.
     999900   -1    0    0    0    0 -0.00000000000E+00 -0.00000000000E+00 -0.74505805969E-08  0.93827000000E+00  0.93827000000E+00 0.  1.
     999902    2    1    2    0    0 -0.22465391945E-01 -0.72454358603E-02 -0.29100670706E-02  0.10201464202E+01  0.10198691387E+01 0.  0.
     999903    2    3    3    0    0 -0.12407632186E+00  0.30276355011E-01 -0.31998717182E-01  0.13302815561E+00  0.18999499097E-01 0.  0.
         14    1    1    2    0    0  0.22465391945E-01  0.72454358603E-02  0.29100670706E-02  0.23783579764E-01  0.00000000000E+00 0. -1.
     999901    1    3    3    0    0  0.10161092991E+00 -0.37521790871E-01  0.29088650111E-01  0.88711826463E+00  0.88000000000E+00 0.  1.
        -11    1    4    4    0    0 -0.73104369130E-01  0.21035144123E-01 -0.99283796349E-02  0.76717402963E-01  0.51100000000E-03 0.  1.
         11    1    4    4    0    0 -0.50971952725E-01  0.92412108876E-02 -0.22070337547E-01  0.56310752648E-01  0.51100000000E-03 0. -1.
</event>
<event>
 8    1  0.1143957E+005  0.1043930E+01  0.7957747E-01            NaN
         13   -1    0    0    0    0  0.00000000000E+00  0.00000000000E+00  0.74505805969E-08  0.10566000000E+00  0.10566000000E+00 0. -1.
     999900   -1    0    0    0    0 -0.00000000000E+00 -0.00000000000E+00 -0.74505805969E-08  0.93827000000E+00  0.93827000000E+00 0.  1.
     999902    2    1    2    0    0  0.12641182212E-01  0.11713710610E-01 -0.15918845431E-01  0.10204689654E+01  0.10201992400E+01 0.  0.
     999903    2    3    3    0    0 -0.13662984863E-01  0.12949252041E+00 -0.12398103904E-01  0.13222566943E+00  0.19362971849E-01 0.  0.
         14    1    1    2    0    0 -0.12641182212E-01 -0.11713710610E-01  0.15918845431E-01  0.23461034585E-01  0.00000000000E+00 0. -1.
     999901    1    3    3    0    0  0.26304167075E-01 -0.11777880980E+00 -0.35207415265E-02  0.88824329599E+00  0.88000000000E+00 0. -1.
        -11    1    4    4    0    0 -0.12136359273E-01  0.37533266443E-01 -0.22780060626E-03  0.39450606085E-01  0.51100000000E-03 0. -1.
         11    1    4    4    0    0 -0.15266255898E-02  0.91959253964E-01 -0.12170303298E-01  0.92775063345E-01  0.51100000000E-03 0.  1.
</event>
<event>
 8    1  0.1143957E+005  0.1043930E+01  0.7957747E-01            NaN
         13   -1    0    0    0    0  0.00000000000E+00  0.00000000000E+00  0.74505805969E-08  0.10566000000E+00  0.10566000000E+00 0. -1.
     999900   -1    0    0    0    0 -0.00000000000E+00 -0.00000000000E+00 -0.74505805969E-08  0.93827000000E+00  0.93827000000E+00 0. -1.
     999902    2    1    2    0    0  0.21793531074E-01 -0.46868796887E-02  0.74501232076E-02  0.10204261881E+01  0.10201554667E+01 0.  0.
     999903    2    3    3    0    0  0.76363053060E-01  0.74433109054E-01 -0.74315110248E-01  0.13142486147E+00  0.19446208006E-01 0.  0.
         14    1    1    2    0    0 -0.21793531074E-01  0.46868796887E-02 -0.74501232076E-02  0.23503811897E-01  0.00000000000E+00 0.  1.
     999901    1    3    3    0    0 -0.54569521986E-01 -0.79119988743E-01  0.81765233455E-01  0.88900132663E+00  0.88000000000E+00 0.  1.
        -11    1    4    4    0    0  0.13757182986E-01  0.25329363605E-01 -0.19916425156E-01  0.35039432877E-01  0.51100000000E-03 0. -1.
         11    1    4    4    0    0  0.62605870074E-01  0.49103745450E-01 -0.54398685092E-01  0.96385428596E-01  0.51100000000E-03 0.  1.
</event>
<event>
 8    1  0.1143957E+005  0.1043930E+01  0.7957747E-01            NaN
         13   -1    0    0    0    0  0.00000000000E+00  0.00000000000E+00  0.74505805969E-08  0.10566000000E+00  0.10566000000E+00 0.  1.
     999900   -1    0    0    0    0 -0.00000000000E+00 -0.00000000000E+00 -0.74505805969E-08  0.93827000000E+00  0.93827000000E+00 0. -1.
     999902    2    1    2    0    0 -0.10056818126E-01 -0.15907447470E-01  0.19425396708E-01  0.10168831423E+01  0.10165233851E+01 0.  0.
     999903    2    3    3    0    0  0.58364860759E-01  0.29135770639E-01  0.10896897474E+00  0.12855410976E+00  0.19914104988E-01 0.  0.
         14    1    1    2    0    0  0.10056818126E-01  0.15907447470E-01 -0.19425396708E-01  0.27046857730E-01  0.00000000000E+00 0. -1.
     999901    1    3    3    0    0 -0.68421678885E-01 -0.45043218109E-01 -0.89543578031E-01  0.88832903251E+00  0.88000000000E+00 0. -1.
        -11    1    4    4    0    0  0.41121068873E-01  0.15180179752E-01  0.86508927431E-01  0.96981626140E-01  0.51100000000E-03 0.  1.
         11    1    4    4    0    0  0.17243791886E-01  0.13955590887E-01  0.22460047308E-01  0.31572483616E-01  0.51100000000E-03 0. -1.
</event>
<event>
 8    1  0.1143957E+005  0.1043930E+01  0.7957747E-01            NaN
         13   -1    0    0    0    0  0.00000000000E+00  0.00000000000E+00  0.74505805969E-08  0.10566000000E+00  0.10566000000E+00 0.  1.
     999900   -1    0    0    0    0 -0.00000000000E+00 -0.00000000000E+00 -0.74505805969E-08  0.93827000000E+00  0.93827000000E+00 0. -1.
     999902    2    1    2    0    0 -0.18356870459E-01  0.56812008809E-03 -0.15254866291E-01  0.10200551513E+01  0.10197757123E+01 0.  0.
     999903    2    3    3    0    0  0.79409905252E-02 -0.71301702706E-01 -0.10874407950E+00  0.13180007428E+00  0.19974799494E-01 0.  0.
         14    1    1    2    0    0  0.18356870459E-01 -0.56812008809E-03  0.15254866291E-01  0.23874848670E-01  0.00000000000E+00 0.  1.
     999901    1    3    3    0    0 -0.26297860984E-01  0.71869822795E-01  0.93489213206E-01  0.88825507705E+00  0.88000000000E+00 0.  1.
        -11    1    4    4    0    0  0.90299082771E-02 -0.22533240919E-01 -0.48862202144E-01  0.54562460622E-01  0.51100000000E-03 0. -1.
         11    1    4    4    0    0 -0.10889177520E-02 -0.48768461788E-01 -0.59881877353E-01  0.77237613657E-01  0.51100000000E-03 0.  1.
</event>
<event>
 8    1  0.1143957E+005  0.1043930E+01  0.7957747E-01            NaN
         13   -1    0    0    0    0  0.00000000000E+00  0.00000000000E+00  0.74505805969E-08  0.10566000000E+00  0.10566000000E+00 0. -1.
     999900   -1    0    0    0    0 -0.00000000000E+00 -0.00000000000E+00 -0.74505805969E-08  0.93827000000E+00  0.93827000000E+00 0. -1.
     999902    2    1    2    0    0  0.16618785722E-01  0.31477159369E-02  0.14303717791E-02  0.10269553684E+01  0.10268150713E+01 0.  0.
     999903    2    3    3    0    0 -0.23998546090E-01  0.54069952766E-01 -0.12115474326E+00  0.13607380934E+00  0.18388033298E-01 0.  0.
         14    1    1    2    0    0 -0.16618785722E-01 -0.31477159369E-02 -0.14303717791E-02  0.16974631599E-01  0.00000000000E+00 0. -1.
     999901    1    3    3    0    0  0.40617331811E-01 -0.50922236830E-01  0.12258511503E+00  0.89088155906E+00  0.88000000000E+00 0.  1.
        -11    1    4    4    0    0 -0.61076389270E-02  0.35883590843E-01 -0.69178220610E-01  0.78171751118E-01  0.51100000000E-03 0. -1.
         11    1    4    4    0    0 -0.17890907163E-01  0.18186361923E-01 -0.51976522645E-01  0.57902058223E-01  0.51100000000E-03 0.  1.
</event>
<event>
 8    1  0.1143957E+005  0.1043930E+01  0.7957747E-01            NaN
         13   -1    0    0    0    0  0.00000000000E+00  0.00000000000E+00  0.74505805969E-08  0.10566000000E+00  0.10566000000E+00 0.  1.
     999900   -1    0    0    0    0 -0.00000000000E+00 -0.00000000000E+00 -0.74505805969E-08  0.93827000000E+00  0.93827000000E+00 0.  1.
     999902    2    1    2    0    0 -0.19033773090E-01  0.11992332560E-01 -0.33658342751E-02  0.10211829255E+01  0.10209295460E+01 0.  0.
     999903    2    3    3    0    0 -0.19919409705E-01 -0.12676360305E+00 -0.75755088225E-02  0.13030037690E+00  0.21330868383E-01 0.  0.
         14    1    1    2    0    0  0.19033773090E-01 -0.11992332560E-01  0.33658342751E-02  0.22747074507E-01  0.00000000000E+00 0.  1.
     999901    1    3    3    0    0  0.88563661481E-03  0.13875593561E+00  0.42096745474E-02  0.89088254859E+00  0.88000000000E+00 0. -1.
        -11    1    4    4    0    0 -0.23381975626E-01 -0.84778676878E-01 -0.55976362308E-02  0.88123410566E-01  0.51100000000E-03 0. -1.
         11    1    4    4    0    0  0.34625659216E-02 -0.41984926173E-01 -0.19778725917E-02  0.42176966338E-01  0.51100000000E-03 0.  1.
</event>
<event>
 8    1  0.1143957E+005  0.1043930E+01  0.7957747E-01            NaN
         13   -1    0    0    0    0  0.00000000000E+00  0.00000000000E+00  0.74505805969E-08  0.10566000000E+00  0.10566000000E+00 0.  1.
     999900   -1    0    0    0    0 -0.00000000000E+00 -0.00000000000E+00 -0.74505805969E-08  0.93827000000E+00  0.93827000000E+00 0.  1.
     999902    2    1    2    0    0  0.17158795850E-01 -0.12455910556E-01  0.13328205803E-01  0.10188857381E+01  0.10185778970E+01 0.  0.
     999903    2    3    3    0    0  0.23681167457E-01 -0.94418919122E-01  0.86831310224E-01  0.13200176462E+00  0.20225218106E-01 0.  0.
         14    1    1    2    0    0 -0.17158795850E-01  0.12455910556E-01 -0.13328205803E-01  0.25044261872E-01  0.00000000000E+00 0. -1.
     999901    1    3    3    0    0 -0.65223716070E-02  0.81963008566E-01 -0.73503104421E-01  0.88688397351E+00  0.88000000000E+00 0.  1.
        -11    1    4    4    0    0  0.84093974612E-02 -0.53206749331E-01  0.59406431276E-01  0.80193898384E-01  0.51100000000E-03 0.  1.
         11    1    4    4    0    0  0.15271769996E-01 -0.41212169791E-01  0.27424878947E-01  0.51807866237E-01  0.51100000000E-03 0. -1.
</event>
<event>
 8    1  0.1143957E+005  0.1043930E+01  0.7957747E-01            NaN
         13   -1    0    0    0    0  0.00000000000E+00  0.00000000000E+00  0.74505805969E-08  0.10566000000E+00  0.10566000000E+00 0. -1.
     999900   -1    0    0    0    0 -0.00000000000E+00 -0.00000000000E+00 -0.74505805969E-08  0.93827000000E+00  0.93827000000E+00 0.  1.
     999902    2    1    2    0    0  0.18631831181E-01  0.60127688447E-03 -0.14337409064E-01  0.10204126029E+01  0.10201415648E+01 0.  0.
     999903    2    3    3    0    0 -0.37764828947E-01 -0.71125348340E-01 -0.10160467924E+00  0.13140142836E+00  0.21396893478E-01 0.  0.
         14    1    1    2    0    0 -0.18631831181E-01 -0.60127688447E-03  0.14337409064E-01  0.23517397086E-01  0.00000000000E+00 0. -1.
     999901    1    3    3    0    0  0.56396660128E-01  0.71726625224E-01  0.87267270172E-01  0.88901117455E+00  0.88000000000E+00 0.  1.
        -11    1    4    4    0    0 -0.41558655179E-02 -0.10547167153E-01 -0.28542747959E-01  0.30715851530E-01  0.51100000000E-03 0.  1.
         11    1    4    4    0    0 -0.33608963429E-01 -0.60578181187E-01 -0.73061931277E-01  0.10068557683E+00  0.51100000000E-03 0. -1.
</event>
<event>
 8    1  0.1143957E+005  0.1043930E+01  0.7957747E-01            NaN
         13   -1    0    0    0    0  0.00000000000E+00  0.00000000000E+00  0.74505805969E-08  0.10566000000E+00  0.10566000000E+00 0. -1.
     999900   -1    0    0    0    0 -0.00000000000E+00 -0.00000000000E+00 -0.74505805969E-08  0.93827000000E+00  0.93827000000E+00 0. -1.
     999902    2    1    2    0    0 -0.22316912477E-01 -0.13934564921E-01  0.27729168944E-02  0.10174742681E+01  0.10171302672E+01 0.  0.
     999903    2    3    3    0    0  0.15025539482E-01 -0.10904371726E+00 -0.64266074585E-01  0.12902931429E+00  0.20053341180E-01 0.  0.
         14    1    1    2    0    0  0.22316912477E-01  0.13934564921E-01 -0.27729168944E-02  0.26455731896E-01  0.00000000000E+00 0. -1.
     999901    1    3    3    0    0 -0.37342451959E-01  0.95109152342E-01  0.67038991479E-01  0.88844495381E+00  0.88000000000E+00 0.  1.
        -11    1    4    4    0    0  0.15381956424E-01 -0.80060024426E-01 -0.55921193866E-01  0.98861788063E-01  0.51100000000E-03 0. -1.
         11    1    4    4    0    0 -0.35641694133E-03 -0.28983692837E-01 -0.83448807184E-02  0.30167526228E-01  0.51100000000E-03 0.  1.
</event>
<event>
 8    1  0.1143957E+005  0.1043930E+01  0.7957747E-01            NaN
         13   -1    0    0    0    0  0.00000000000E+00  0.00000000000E+00  0.74505805969E-08  0.10566000000E+00  0.10566000000E+00 0. -1.
     999900   -1    0    0    0    0 -0.00000000000E+00 -0.00000000000E+00 -0.74505805969E-08  0.93827000000E+00  0.93827000000E+00 0.  1.
     999902    2    1    2    0    0 -0.12893940203E-01  0.17655011254E-01 -0.29059741130E-02  0.10218755718E+01  0.10216375514E+01 0.  0.
     999903    2    3    3    0    0  0.55013240176E-01  0.94725234203E-01  0.72135972332E-01  0.13272850968E+00  0.20345323467E-01 0.  0.
         14    1    1    2    0    0  0.12893940203E-01 -0.17655011254E-01  0.29059741130E-02  0.22054428169E-01  0.00000000000E+00 0.  1.
     999901    1    3    3    0    0 -0.67907180379E-01 -0.77070222949E-01 -0.75041946445E-01  0.88914706215E+00  0.88000000000E+00 0. -1.
        -11    1    4    4    0    0  0.21811667045E-01  0.57651394311E-01  0.40389506431E-01  0.73695355593E-01  0.51100000000E-03 0. -1.
         11    1    4    4    0    0  0.33201573131E-01  0.37073839892E-01  0.31746465901E-01  0.59033154082E-01  0.51100000000E-03 0.  1.
</event>
<event>
 8    1  0.1143957E+005  0.1043930E+01  0.7957747E-01            NaN
         13   -1    0    0    0    0  0.00000000000E+00  0.00000000000E+00  0.74505805969E-08  0.10566000000E+00  0.10566000000E+00 0. -1.
     999900   -1    0    0    0    0 -0.00000000000E+00 -0.00000000000E+00 -0.74505805969E-08  0.93827000000E+00  0.93827000000E+00 0. -1.
     999902    2    1    2    0    0 -0.25506979576E-02  0.10526708500E-01 -0.22062715680E-01  0.10193519392E+01  0.10190555896E+01 0.  0.
     999903    2    3    3    0    0 -0.12117275539E+00  0.97891790238E-02  0.39825929446E-01  0.12923849646E+00  0.18379870461E-01 0.  0.
         14    1    1    2    0    0  0.25506979576E-02 -0.10526708500E-01  0.22062715680E-01  0.24578060849E-01  0.00000000000E+00 0. -1.
     999901    1    3    3    0    0  0.11862205743E+00  0.73752947641E-03 -0.61888645126E-01  0.89011344269E+00  0.88000000000E+00 0. -1.
        -11    1    4    4    0    0 -0.27205921170E-01 -0.42657581255E-02  0.13333496448E-01  0.30600687698E-01  0.51100000000E-03 0.  1.
         11    1    4    4    0    0 -0.93966834215E-01  0.14054937149E-01  0.26492432999E-01  0.98637808765E-01  0.51100000000E-03 0. -1.
</event>
<event>
 8    1  0.1143957E+005  0.1043930E+01  0.7957747E-01            NaN
         13   -1    0    0    0    0  0.00000000000E+00  0.00000000000E+00  0.74505805969E-08  0.10566000000E+00  0.10566000000E+00 0. -1.
     999900   -1    0    0    0    0 -0.00000000000E+00 -0.00000000000E+00 -0.74505805969E-08  0.93827000000E+00  0.93827000000E+00 0. -1.
     999902    2    1    2    0    0  0.16742041987E-02 -0.11875319575E-01 -0.21333872040E-01  0.10194563352E+01  0.10191625283E+01 0.  0.
     999903    2    3    3    0    0  0.84896412143E-01 -0.27316014412E-02 -0.99204499043E-01  0.13205936760E+00  0.19577576439E-01 0.  0.
         14    1    1    2    0    0 -0.16742041987E-02  0.11875319575E-01  0.21333872040E-01  0.24473664845E-01  0.00000000000E+00 0. -1.
     999901    1    3    3    0    0 -0.83222207945E-01 -0.91437181338E-02  0.77870627003E-01  0.88739696756E+00  0.88000000000E+00 0. -1.
        -11    1    4    4    0    0  0.77477473940E-01 -0.40214826681E-02 -0.96972301745E-01  0.12418864569E+00  0.51100000000E-03 0.  1.
         11    1    4    4    0    0  0.74189382033E-02  0.12898812269E-02 -0.22321972983E-02  0.78707219124E-02  0.51100000000E-03 0. -1.
</event>
<event>
 8    1  0.1143957E+005  0.1043930E+01  0.7957747E-01            NaN
         13   -1    0    0    0    0  0.00000000000E+00  0.00000000000E+00  0.74505805969E-08  0.10566000000E+00  0.10566000000E+00 0.  1.
     999900   -1    0    0    0    0 -0.00000000000E+00 -0.00000000000E+00 -0.74505805969E-08  0.93827000000E+00  0.93827000000E+00 0.  1.
     999902    2    1    2    0    0 -0.17533913304E-01  0.89215274188E-02 -0.12668927304E-01  0.10205305665E+01  0.10202622720E+01 0.  0.
     999903    2    3    3    0    0  0.43629066129E-01  0.82325726453E-01  0.88040511183E-01  0.12964815146E+00  0.19403373974E-01 0.  0.
         14    1    1    2    0    0  0.17533913304E-01 -0.89215274188E-02  0.12668927304E-01  0.23399433461E-01  0.00000000000E+00 0.  1.
     999901    1    3    3    0    0 -0.61162979433E-01 -0.73404199034E-01 -0.10070943849E+00  0.89088241507E+00  0.88000000000E+00 0.  1.
        -11    1    4    4    0    0  0.41006465098E-01  0.60089818159E-01  0.66044409363E-01  0.98257017843E-01  0.51100000000E-03 0. -1.
         11    1    4    4    0    0  0.26226010316E-02  0.22235908294E-01  0.21996101819E-01  0.31391133622E-01  0.51100000000E-03 0.  1.
</event>
<event>
 8    1  0.1143957E+005  0.1043930E+01  0.7957747E-01            NaN
         13   -1    0    0    0    0  0.00000000000E+00  0.00000000000E+00  0.74505805969E-08  0.10566000000E+00  0.10566000000E+00 0. -1.
     999900   -1    0    0    0    0 -0.00000000000E+00 -0.00000000000E+00 -0.74505805969E-08  0.93827000000E+00  0.93827000000E+00 0. -1.
     999902    2    1    2    0    0  0.19773399130E-01  0.85600026252E-02  0.13988209304E-02  0.10223379260E+01  0.10221098852E+01 0.  0.
     999903    2    3    3    0    0 -0.56247725019E-01 -0.11462853655E+00 -0.16959386813E-01  0.13032242657E+00  0.19819336585E-01 0.  0.
         14    1    1    2    0    0 -0.19773399130E-01 -0.85600026252E-02 -0.13988209304E-02  0.21592073964E-01  0.00000000000E+00 0.  1.
     999901    1    3    3    0    0  0.76021124149E-01  0.12318853918E+00  0.18358207744E-01  0.89201549947E+00  0.88000000000E+00 0.  1.
        -11    1    4    4    0    0 -0.94883833380E-02 -0.40138253188E-01 -0.63366065646E-02  0.41731552704E-01  0.51100000000E-03 0.  1.
         11    1    4    4    0    0 -0.46759341681E-01 -0.74490283367E-01 -0.10622780249E-01  0.88590873863E-01  0.51100000000E-03 0. -1.
</event>
<event>
 8    1  0.1143957E+005  0.1043930E+01  0.7957747E-01            NaN
         13   -1    0    0    0    0  0.00000000000E+00  0.00000000000E+00  0.74505805969E-08  0.10566000000E+00  0.10566000000E+00 0. -1.
     999900   -1    0    0    0    0 -0.00000000000E+00 -0.00000000000E+00 -0.74505805969E-08  0.93827000000E+00  0.93827000000E+00 0.  1.
     999902    2    1    2    0    0 -0.23192038340E-01  0.99534818692E-03 -0.20643129087E-02  0.10206250059E+01  0.10203588976E+01 0.  0.
     999903    2    3    3    0    0  0.73287203255E-01  0.44587619311E-01 -0.94766889139E-01  0.12944472238E+00  0.20398600907E-01 0.  0.
         14    1    1    2    0    0  0.23192038340E-01 -0.99534818692E-03  0.20643129087E-02  0.23304994060E-01  0.00000000000E+00 0.  1.
     999901    1    3    3    0    0 -0.96479241595E-01 -0.43592271124E-01  0.92702576230E-01  0.89118028356E+00  0.88000000000E+00 0. -1.
        -11    1    4    4    0    0  0.49310587569E-01  0.36270987778E-01 -0.55156636979E-01  0.82399237403E-01  0.51100000000E-03 0.  1.
         11    1    4    4    0    0  0.23976615686E-01  0.83166315333E-02 -0.39610252159E-01  0.47045484979E-01  0.51100000000E-03 0. -1.
</event>
<event>
 8    1  0.1143957E+005  0.1043930E+01  0.7957747E-01            NaN
         13   -1    0    0    0    0  0.00000000000E+00  0.00000000000E+00  0.74505805969E-08  0.10566000000E+00  0.10566000000E+00 0.  1.
     999900   -1    0    0    0    0 -0.00000000000E+00 -0.00000000000E+00 -0.74505805969E-08  0.93827000000E+00  0.93827000000E+00 0. -1.
     999902    2    1    2    0    0  0.13332016967E-02 -0.20476582389E-01  0.12266872337E-01  0.10200230134E+01  0.10197428126E+01 0.  0.
     999903    2    3    3    0    0 -0.49457111659E-01 -0.12090241006E+00 -0.10637942670E-01  0.13256054467E+00  0.19893052181E-01 0.  0.
         14    1    1    2    0    0 -0.13332016967E-02  0.20476582389E-01 -0.12266872337E-01  0.23906986636E-01  0.00000000000E+00 0.  1.
     999901    1    3    3    0    0  0.50790313356E-01  0.10042582767E+00  0.22904815007E-01  0.88746246870E+00  0.88000000000E+00 0.  1.
        -11    1    4    4    0    0 -0.12048403506E-01 -0.37570235709E-01 -0.11877439334E-01  0.41207054304E-01  0.51100000000E-03 0. -1.
         11    1    4    4    0    0 -0.37408708154E-01 -0.83332174355E-01  0.12394966642E-02  0.91353490363E-01  0.51100000000E-03 0.  1.
</event>
<event>
 8    1  0.1143957E+005  0.1043930E+01  0.7957747E-01            NaN
         13   -1    0    0    0    0  0.00000000000E+00  0.00000000000E+00  0.74505805969E-08  0.10566000000E+00  0.10566000000E+00 0.  1.
     999900   -1    0    0    0    0 -0.00000000000E+00 -0.00000000000E+00 -0.74505805969E-08  0.93827000000E+00  0.93827000000E+00 0. -1.
     999902    2    1    2    0    0  0.10396404370E-02 -0.23831534842E-01  0.33853241630E-03  0.10200733969E+01  0.10197943899E+01 0.  0.
     999903    2    3    3    0    0 -0.94663222933E-01  0.66035322483E-01 -0.53300724688E-01  0.12871922491E+00  0.20146513778E-01 0.  0.
         14    1    1    2    0    0 -0.10396404370E-02  0.23831534842E-01 -0.33853241630E-03  0.23856603056E-01  0.00000000000E+00 0. -1.
     999901    1    3    3    0    0  0.95702863370E-01 -0.89866857325E-01  0.53639257104E-01  0.89135417204E+00  0.88000000000E+00 0.  1.
        -11    1    4    4    0    0 -0.30852527626E-02  0.68373391717E-02 -0.42873033560E-03  0.75307982485E-02  0.51100000000E-03 0.  1.
         11    1    4    4    0    0 -0.91577970170E-01  0.59197983311E-01 -0.52871994352E-01  0.12118842666E+00  0.51100000000E-03 0. -1.
</event>
<event>
 8    1  0.1587209E+005  0.1043930E+01  0.7957747E-01            NaN
         13   -1    0    0    0    0  0.00000000000E+00  0.00000000000E+00  0.74505805969E-08  0.10566000000E+00  0.10566000000E+00 0. -1.
     999900   -1    0    0    0    0 -0.00000000000E+00 -0.00000000000E+00 -0.74505805969E-08  0.93827000000E+00  0.93827000000E+00 0. -1.
     999902    2    1    2    0    0  0.11422596381E-01  0.13977749394E-01  0.17512406415E-01  0.10187797005E+01  0.10184692144E+01 0.  0.
     999903    2    3    3    0    0 -0.38398976006E-01 -0.30860302544E-01  0.11909130903E+00  0.13040426555E+00  0.19892032463E-01 0.  0.
         14    1    1    2    0    0 -0.11422596381E-01 -0.13977749394E-01 -0.17512406415E-01  0.25150299494E-01  0.00000000000E+00 0.  1.
     999901    1    3    3    0    0  0.49821572387E-01  0.44838051939E-01 -0.10157890262E+00  0.88837543496E+00  0.88000000000E+00 0. -1.
        -11    1    4    4    0    0 -0.33993259179E-01 -0.19241938899E-01  0.74623063881E-01  0.84229784911E-01  0.51100000000E-03 0. -1.
         11    1    4    4    0    0 -0.44057168271E-02 -0.11618363645E-01  0.44468245150E-01  0.46174480639E-01  0.51100000000E-03 0.  1.
</event>
<event>
 8    1  0.1143957E+005  0.1043930E+01  0.7957747E-01            NaN
         13   -1    0    0    0    0  0.00000000000E+00  0.00000000000E+00  0.74505805969E-08  0.10566000000E+00  0.10566000000E+00 0.  1.
     999900   -1    0    0    0    0 -0.00000000000E+00 -0.00000000000E+00 -0.74505805969E-08  0.93827000000E+00  0.93827000000E+00 0. -1.
     999902    2    1    2    0    0 -0.19800769764E-01  0.36135705723E-02 -0.15751544488E-01  0.10183714490E+01  0.10180506709E+01 0.  0.
     999903    2    3    3    0    0  0.33601727347E-01  0.21083465449E-01 -0.12232882719E+00  0.13016215997E+00  0.20106151580E-01 0.  0.
         14    1    1    2    0    0  0.19800769764E-01 -0.36135705723E-02  0.15751544488E-01  0.25558551001E-01  0.00000000000E+00 0.  1.
     999901    1    3    3    0    0 -0.53402497111E-01 -0.17469894876E-01  0.10657728270E+00  0.88820928903E+00  0.88000000000E+00 0.  1.
        -11    1    4    4    0    0  0.13552936295E-01  0.97709662975E-02 -0.82325010870E-01  0.84004895098E-01  0.51100000000E-03 0. -1.
         11    1    4    4    0    0  0.20048791052E-01  0.11312499151E-01 -0.40003816318E-01  0.46157264875E-01  0.51100000000E-03 0.  1.
</event>
<event>
 8    1  0.1143957E+005  0.1043930E+01  0.7957747E-01            NaN
         13   -1    0    0    0    0  0.00000000000E+00  0.00000000000E+00  0.74505805969E-08  0.10566000000E+00  0.10566000000E+00 0.  1.
     999900   -1    0    0    0    0 -0.00000000000E+00 -0.00000000000E+00 -0.74505805969E-08  0.93827000000E+00  0.93827000000E+00 0.  1.
     999902    2    1    2    0    0  0.10853951152E-01 -0.26045594854E-01  0.16354575688E-02  0.10156659594E+01  0.10152726162E+01 0.  0.
     999903    2    3    3    0    0 -0.71912339213E-01  0.86837345416E-01 -0.45678820658E-01  0.12334793433E+00  0.20397283075E-01 0.  0.
         14    1    1    2    0    0 -0.10853951152E-01  0.26045594854E-01 -0.16354575688E-02  0.28264040552E-01  0.00000000000E+00 0. -1.
     999901    1    3    3    0    0  0.82766290365E-01 -0.11288294027E+00  0.47314278227E-01  0.89231802512E+00  0.88000000000E+00 0. -1.
        -11    1    4    4    0    0 -0.33088992462E-01  0.38893839286E-01 -0.31648490573E-01  0.60079116447E-01  0.51100000000E-03 0.  1.
         11    1    4    4    0    0 -0.38823346751E-01  0.47943506131E-01 -0.14030330085E-01  0.63268817883E-01  0.51100000000E-03 0. -1.
</event>
<event>
 8    1  0.1143957E+005  0.1043930E+01  0.7957747E-01            NaN
         13   -1    0    0    0    0  0.00000000000E+00  0.00000000000E+00  0.74505805969E-08  0.10566000000E+00  0.10566000000E+00 0. -1.
     999900   -1    0    0    0    0 -0.00000000000E+00 -0.00000000000E+00 -0.74505805969E-08  0.93827000000E+00  0.93827000000E+00 0. -1.
     999902    2    1    2    0    0  0.10753072423E-01 -0.94751691799E-02 -0.18590017444E-01  0.10204566929E+01  0.10201866819E+01 0.  0.
     999903    2    3    3    0    0 -0.10937360094E+00  0.16508705574E-01  0.61844306099E-01  0.12828223698E+00  0.19912111517E-01 0.  0.
         14    1    1    2    0    0 -0.10753072423E-01  0.94751691799E-02  0.18590017444E-01  0.23473307097E-01  0.00000000000E+00 0. -1.
     999901    1    3    3    0    0  0.12012667336E+00 -0.25983874754E-01 -0.80434323543E-01  0.89217445592E+00  0.88000000000E+00 0.  1.
        -11    1    4    4    0    0 -0.66345925374E-01  0.22548747539E-02  0.43571430843E-01  0.79407789168E-01  0.51100000000E-03 0. -1.
         11    1    4    4    0    0 -0.43027675565E-01  0.14253830820E-01  0.18272875257E-01  0.48874447810E-01  0.51100000000E-03 0.  1.
</event>
<event>
 8    1  0.1143957E+005  0.1043930E+01  0.7957747E-01            NaN
         13   -1    0    0    0    0  0.00000000000E+00  0.00000000000E+00  0.74505805969E-08  0.10566000000E+00  0.10566000000E+00 0. -1.
     999900   -1    0    0    0    0 -0.00000000000E+00 -0.00000000000E+00 -0.74505805969E-08  0.93827000000E+00  0.93827000000E+00 0. -1.
     999902    2    1    2    0    0  0.53840066058E-03 -0.17603607573E-01 -0.16782442872E-01  0.10196024998E+01  0.10193122340E+01 0.  0.
     999903    2    3    3    0    0 -0.12383991410E+00  0.80073565583E-03  0.31755364922E-01  0.12934152473E+00  0.19592379006E-01 0.  0.
         14    1    1    2    0    0 -0.53840066058E-03  0.17603607573E-01  0.16782442872E-01  0.24327500152E-01  0.00000000000E+00 0. -1.
     999901    1    3    3    0    0  0.12437831477E+00 -0.18404343229E-01 -0.48537807794E-01  0.89026097512E+00  0.88000000000E+00 0. -1.
        -11    1    4    4    0    0 -0.62518585480E-01 -0.78706635729E-02  0.21396634445E-01  0.66547711922E-01  0.51100000000E-03 0.  1.
         11    1    4    4    0    0 -0.61321328624E-01  0.86713992287E-02  0.10358730478E-01  0.62793812808E-01  0.51100000000E-03 0. -1.
</event>
<event>
 8    1  0.1143957E+005  0.1043930E+01  0.7957747E-01            NaN
         13   -1    0    0    0    0  0.00000000000E+00  0.00000000000E+00  0.74505805969E-08  0.10566000000E+00  0.10566000000E+00 0.  1.
     999900   -1    0    0    0    0 -0.00000000000E+00 -0.00000000000E+00 -0.74505805969E-08  0.93827000000E+00  0.93827000000E+00 0. -1.
     999902    2    1    2    0    0 -0.83664898975E-02 -0.10305714589E-01 -0.19190029084E-01  0.10205962664E+01  0.10203294938E+01 0.  0.
     999903    2    3    3    0    0  0.50626155035E-01  0.10795364845E-01 -0.12040002271E+00  0.13258227412E+00  0.20058575879E-01 0.  0.
         14    1    1    2    0    0  0.83664898975E-02  0.10305714589E-01  0.19190029084E-01  0.23333733577E-01  0.00000000000E+00 0.  1.
     999901    1    3    3    0    0 -0.58992644932E-01 -0.21101079435E-01  0.10120999363E+00  0.88801399230E+00  0.88000000000E+00 0.  1.
        -11    1    4    4    0    0  0.34524060628E-01 -0.20933535166E-02 -0.68685150652E-01  0.76903861621E-01  0.51100000000E-03 0. -1.
         11    1    4    4    0    0  0.16102094407E-01  0.12888718362E-01 -0.51714872063E-01  0.55678412502E-01  0.51100000000E-03 0.  1.
</event>
<event>
 8    1  0.1143957E+005  0.1043930E+01  0.7957747E-01            NaN
         13   -1    0    0    0    0  0.00000000000E+00  0.00000000000E+00  0.74505805969E-08  0.10566000000E+00  0.10566000000E+00 0.  1.
     999900   -1    0    0    0    0 -0.00000000000E+00 -0.00000000000E+00 -0.74505805969E-08  0.93827000000E+00  0.93827000000E+00 0. -1.
     999902    2    1    2    0    0  0.19964053212E-01 -0.10039657163E-02 -0.13526852854E-01  0.10197939872E+01  0.10195083271E+01 0.  0.
     999903    2    3    3    0    0 -0.94503415224E-02  0.12556614555E+00  0.22889919476E-01  0.12950674082E+00  0.19796000624E-01 0.  0.
         14    1    1    2    0    0 -0.19964053212E-01  0.10039657163E-02  0.13526852854E-01  0.24136012842E-01  0.00000000000E+00 0.  1.
     999901    1    3    3    0    0  0.29414394734E-01 -0.12657011127E+00 -0.36416772329E-01  0.89028724634E+00  0.88000000000E+00 0. -1.
        -11    1    4    4    0    0  0.40597737728E-02  0.78664583747E-02  0.13722148894E-03  0.88680821593E-02  0.51100000000E-03 0.  1.
         11    1    4    4    0    0 -0.13510115295E-01  0.11769968718E+00  0.22752697987E-01  0.12063865866E+00  0.51100000000E-03 0. -1.
</event>
<event>
 8    1  0.1143957E+005  0.1043930E+01  0.7957747E-01            NaN
         13   -1    0    0    0    0  0.00000000000E+00  0.00000000000E+00  0.74505805969E-08  0.10566000000E+00  0.10566000000E+00 0.  1.
     999900   -1    0    0    0    0 -0.00000000000E+00 -0.00000000000E+00 -0.74505805969E-08  0.93827000000E+00  0.93827000000E+00 0. -1.
     999902    2    1    2    0    0 -0.23073752874E-01  0.28622213034E-02 -0.33345228438E-02  0.10204415044E+01  0.10201711398E+01 0.  0.
     999903    2    3    3    0    0 -0.10887559186E+00  0.59828684243E-02 -0.74082448466E-01  0.13343701570E+00  0.20677010693E-01 0.  0.
         14    1    1    2    0    0  0.23073752874E-01 -0.28622213034E-02  0.33345228438E-02  0.23488495590E-01  0.00000000000E+00 0. -1.
     999901    1    3    3    0    0  0.85801838984E-01 -0.31206471208E-02  0.70747925622E-01  0.88700448871E+00  0.88000000000E+00 0.  1.
        -11    1    4    4    0    0 -0.46148787530E-01 -0.62319731155E-02 -0.24999183966E-01  0.52856110332E-01  0.51100000000E-03 0.  1.
         11    1    4    4    0    0 -0.62726804328E-01  0.12214841540E-01 -0.49083264500E-01  0.80580905368E-01  0.51100000000E-03 0. -1.
</event>
<event>
 8    1  0.1143957E+005  0.1043930E+01  0.7957747E-01            NaN
         13   -1    0    0    0    0  0.00000000000E+00  0.00000000000E+00  0.74505805969E-08  0.10566000000E+00  0.10566000000E+00 0. -1.
     999900   -1    0    0    0    0 -0.00000000000E+00 -0.00000000000E+00 -0.74505805969E-08  0.93827000000E+00  0.93827000000E+00 0.  1.
     999902    2    1    2    0    0  0.89128201153E-02 -0.69924107479E-02 -0.20526399532E-01  0.10204850592E+01  0.10202157080E+01 0.  0.
     999903    2    3    3    0    0  0.12111309610E+00  0.40523400752E-01  0.21814094258E-01  0.13108111742E+00  0.19896647493E-01 0.  0.
         14    1    1    2    0    0 -0.89128201153E-02  0.69924107479E-02  0.20526399532E-01  0.23444940781E-01  0.00000000000E+00 0. -1.
     999901    1    3    3    0    0 -0.11220027598E+00 -0.47515811499E-01 -0.42340493790E-01  0.88940394180E+00  0.88000000000E+00 0.  1.
        -11    1    4    4    0    0  0.70309029003E-01  0.17152327601E-01  0.20177566757E-01  0.75132930349E-01  0.51100000000E-03 0. -1.
         11    1    4    4    0    0  0.50804067093E-01  0.23371073151E-01  0.16365275011E-02  0.55948187072E-01  0.51100000000E-03 0.  1.
</event>
<event>
 8    1  0.1143957E+005  0.1043930E+01  0.7957747E-01            NaN
         13   -1    0    0    0    0  0.00000000000E+00  0.00000000000E+00  0.74505805969E-08  0.10566000000E+00  0.10566000000E+00 0.  1.
     999900   -1    0    0    0    0 -0.00000000000E+00 -0.00000000000E+00 -0.74505805969E-08  0.93827000000E+00  0.93827000000E+00 0. -1.
     999902    2    1    2    0    0 -0.20196686131E-01  0.10957589540E-01 -0.61888554600E-02  0.10201334282E+01  0.10198558400E+01 0.  0.
     999903    2    3    3    0    0 -0.84066653780E-01 -0.10080839099E-01  0.98697049273E-01  0.13135728016E+00  0.18568842767E-01 0.  0.
         14    1    1    2    0    0  0.20196686131E-01 -0.10957589540E-01  0.61888554600E-02  0.23796571835E-01  0.00000000000E+00 0.  1.
     999901    1    3    3    0    0  0.63869967649E-01  0.21038428639E-01 -0.10488590473E+00  0.88877614800E+00  0.88000000000E+00 0. -1.
        -11    1    4    4    0    0 -0.67944403960E-01 -0.78972371150E-03  0.80184450611E-01  0.10510410522E+00  0.51100000000E-03 0.  1.
         11    1    4    4    0    0 -0.16122249820E-01 -0.92911153872E-02  0.18512598662E-01  0.26253174944E-01  0.51100000000E-03 0. -1.
</event>
<event>
 8    1  0.1143957E+005  0.1043930E+01  0.7957747E-01            NaN
         13   -1    0    0    0    0  0.00000000000E+00  0.00000000000E+00  0.74505805969E-08  0.10566000000E+00  0.10566000000E+00 0. -1.
     999900   -1    0    0    0    0 -0.00000000000E+00 -0.00000000000E+00 -0.74505805969E-08  0.93827000000E+00  0.93827000000E+00 0. -1.
     999902    2    1    2    0    0 -0.27513649838E-02 -0.18162487664E-01  0.15495655286E-01  0.10198974949E+01  0.10196143089E+01 0.  0.
     999903    2    3    3    0    0  0.43051424826E-01 -0.76981216748E-01 -0.93472436342E-01  0.13004830352E+00  0.19898039650E-01 0.  0.
         14    1    1    2    0    0  0.27513649838E-02  0.18162487664E-01 -0.15495655286E-01  0.24032505075E-01  0.00000000000E+00 0.  1.
     999901    1    3    3    0    0 -0.45802789810E-01  0.58818729084E-01  0.10896809163E+00  0.88984919140E+00  0.88000000000E+00 0. -1.
        -11    1    4    4    0    0  0.42058961119E-01 -0.73543096882E-01 -0.81563189357E-01  0.11760254372E+00  0.51100000000E-03 0. -1.
         11    1    4    4    0    0  0.99246370745E-03 -0.34381198666E-02 -0.11909246985E-01  0.12445759808E-01  0.51100000000E-03 0.  1.
</event>
<event>
 8    1  0.1143957E+005  0.1043930E+01  0.7957747E-01            NaN
         13   -1    0    0    0    0  0.00000000000E+00  0.00000000000E+00  0.74505805969E-08  0.10566000000E+00  0.10566000000E+00 0.  1.
     999900   -1    0    0    0    0 -0.00000000000E+00 -0.00000000000E+00 -0.74505805969E-08  0.93827000000E+00  0.93827000000E+00 0.  1.
     999902    2    1    2    0    0  0.19020671511E-01 -0.57463359294E-02 -0.14012009082E-01  0.10196165733E+01  0.10193266472E+01 0.  0.
     999903    2    3    3    0    0 -0.37858073484E-01 -0.12223168048E+00 -0.12601631597E-01  0.13011895309E+00  0.19958040828E-01 0.  0.
         14    1    1    2    0    0 -0.19020671511E-01  0.57463359294E-02  0.14012009082E-01  0.24313426740E-01  0.00000000000E+00 0.  1.
     999901    1    3    3    0    0  0.56878744996E-01  0.11648534455E+00 -0.14103774853E-02  0.88949762017E+00  0.88000000000E+00 0.  1.
        -11    1    4    4    0    0 -0.35838439101E-01 -0.86277309698E-01 -0.10962082306E-01  0.94066977497E-01  0.51100000000E-03 0.  1.
         11    1    4    4    0    0 -0.20196343836E-02 -0.35954370779E-01 -0.16395492902E-02  0.36051975591E-01  0.51100000000E-03 0. -1.
</event>
<event>
 8    1  0.1143957E+005  0.1043930E+01  0.7957747E-01            NaN
         13   -1    0    0    0    0  0.00000000000E+00  0.00000000000E+00  0.74505805969E-08  0.10566000000E+00  0.10566000000E+00 0. -1.
     999900   -1    0    0    0    0 -0.00000000000E+00 -0.00000000000E+00 -0.74505805969E-08  0.93827000000E+00  0.93827000000E+00 0.  1.
     999902    2    1    2    0    0 -0.29074138300E-02  0.10388591501E-01  0.20148437877E-01  0.10210753410E+01  0.10208195318E+01 0.  0.
     999903    2    3    3    0    0  0.12791079833E+00  0.11455414074E-01 -0.12130331656E-01  0.13081893879E+00  0.21772711342E-01 0.  0.
         14    1    1    2    0    0  0.29074138300E-02 -0.10388591501E-01 -0.20148437877E-01  0.22854658988E-01  0.00000000000E+00 0.  1.
     999901    1    3    3    0    0 -0.13081821216E+00 -0.10668225730E-02  0.32278769533E-01  0.89025640223E+00  0.88000000000E+00 0.  1.
        -11    1    4    4    0    0  0.71192850515E-01 -0.23909181508E-02 -0.13078157123E-01  0.72425394502E-01  0.51100000000E-03 0.  1.
         11    1    4    4    0    0  0.56717947811E-01  0.13846332225E-01  0.94782546744E-03  0.58393544284E-01  0.51100000000E-03 0. -1.
</event>
<event>
 8    1  0.1143957E+005  0.1043930E+01  0.7957747E-01            NaN
         13   -1    0    0    0    0  0.00000000000E+00  0.00000000000E+00  0.74505805969E-08  0.10566000000E+00  0.10566000000E+00 0.  1.
     999900   -1    0    0    0    0 -0.00000000000E+00 -0.00000000000E+00 -0.74505805969E-08  0.93827000000E+00  0.93827000000E+00 0.  1.
     999902    2    1    2    0    0  0.79789107084E-02  0.70696436726E-02  0.20679622255E-01  0.10206643675E+01  0.10203991677E+01 0.  0.
     999903    2    3    3    0    0 -0.35758537040E-01 -0.11873003538E+00  0.35501466249E-01  0.13051931719E+00  0.19986089695E-01 0.  0.
         14    1    1    2    0    0 -0.79789107084E-02 -0.70696436726E-02 -0.20679622255E-01  0.23265632473E-01  0.00000000000E+00 0. -1.
     999901    1    3    3    0    0  0.43737447748E-01  0.12579967905E+00 -0.14821843994E-01  0.89014505034E+00  0.88000000000E+00 0.  1.
        -11    1    4    4    0    0 -0.26363814340E-01 -0.10572210797E+00  0.26592043706E-01  0.11215887272E+00  0.51100000000E-03 0.  1.
         11    1    4    4    0    0 -0.93947226998E-02 -0.13007927410E-01  0.89094225431E-02  0.18360444471E-01  0.51100000000E-03 0. -1.
</event>
<event>
 8    1  0.1143957E+005  0.1043930E+01  0.7957747E-01            NaN
         13   -1    0    0    0    0  0.00000000000E+00  0.00000000000E+00  0.74505805969E-08  0.10566000000E+00  0.10566000000E+00 0. -1.
     999900   -1    0    0    0    0 -0.00000000000E+00 -0.00000000000E+00 -0.74505805969E-08  0.93827000000E+00  0.93827000000E+00 0.  1.
     999902    2    1    2    0    0 -0.13054998758E-01 -0.14742427869E-01 -0.12311037721E-01  0.10207064382E+01  0.10204422077E+01 0.  0.
     999903    2    3    3    0    0  0.50569742754E-01 -0.74409866690E-01 -0.95203459413E-01  0.13251757060E+00  0.20076869532E-01 0.  0.
         14    1    1    2    0    0  0.13054998758E-01  0.14742427869E-01  0.12311037721E-01  0.23223561782E-01  0.00000000000E+00 0. -1.
     999901    1    3    3    0    0 -0.63624741513E-01  0.59667438821E-01  0.82892421692E-01  0.88818886762E+00  0.88000000000E+00 0. -1.
        -11    1    4    4    0    0  0.71836874460E-02 -0.12978608541E-01 -0.64503014578E-02  0.16183854760E-01  0.51100000000E-03 0. -1.
         11    1    4    4    0    0  0.43386055308E-01 -0.61431258149E-01 -0.88753157956E-01  0.11633371584E+00  0.51100000000E-03 0.  1.
</event>
<event>
 8    1  0.1143957E+005  0.1043930E+01  0.7957747E-01            NaN
         13   -1    0    0    0    0  0.00000000000E+00  0.00000000000E+00  0.74505805969E-08  0.10566000000E+00  0.10566000000E+00 0. -1.
     999900   -1    0    0    0    0 -0.00000000000E+00 -0.00000000000E+00 -0.74505805969E-08  0.93827000000E+00  0.93827000000E+00 0. -1.
     999902    2    1    2    0    0  0.24723955229E-02 -0.15363195479E-02 -0.23247388300E-01  0.10205010845E+01  0.10202321057E+01 0.  0.
     999903    2    3    3    0    0 -0.71585738333E-01 -0.78273500898E-01 -0.76952666687E-01  0.13243720219E+00  0.19147865095E-01 0.  0.
         14    1    1    2    0    0 -0.24723955229E-02  0.15363195479E-02  0.23247388300E-01  0.23428915471E-01  0.00000000000E+00 0. -1.
     999901    1    3    3    0    0  0.74058133856E-01  0.76737181350E-01  0.53705278387E-01  0.88806388234E+00  0.88000000000E+00 0. -1.
        -11    1    4    4    0    0 -0.42256207905E-01 -0.52629083780E-01 -0.58527705117E-01  0.89337343554E-01  0.51100000000E-03 0.  1.
         11    1    4    4    0    0 -0.29329530427E-01 -0.25644417117E-01 -0.18424961570E-01  0.43099858633E-01  0.51100000000E-03 0. -1.
</event>
<event>
 8    1  0.1143957E+005  0.1043930E+01  0.7957747E-01            NaN
         13   -1    0    0    0    0  0.00000000000E+00  0.00000000000E+00  0.74505805969E-08  0.10566000000E+00  0.10566000000E+00 0.  1.
     999900   -1    0    0    0    0 -0.00000000000E+00 -0.00000000000E+00 -0.74505805969E-08  0.93827000000E+00  0.93827000000E+00 0. -1.
     999902    2    1    2    0    0 -0.24586866056E-02 -0.21385888285E-01  0.58541375419E-02  0.10216214303E+01  0.10213778314E+01 0.  0.
     999903    2    3    3    0    0  0.79495430900E-01 -0.20375943651E-02 -0.10211917922E+00  0.13103225955E+00  0.20431616475E-01 0.  0.
         14    1    1    2    0    0  0.24586866056E-02  0.21385888285E-01 -0.58541375419E-02  0.22308569742E-01  0.00000000000E+00 0.  1.
     999901    1    3    3    0    0 -0.81954117506E-01 -0.19348293920E-01  0.10797331677E+00  0.89058917071E+00  0.88000000000E+00 0.  1.
        -11    1    4    4    0    0  0.45738209506E-01 -0.11202695711E-01 -0.60292811346E-01  0.76504695419E-01  0.51100000000E-03 0. -1.
         11    1    4    4    0    0  0.33757221394E-01  0.91651013463E-02 -0.41826367878E-01  0.54527564129E-01  0.51100000000E-03 0.  1.
</event>
<event>
 8    1  0.1143957E+005  0.1043930E+01  0.7957747E-01            NaN
         13   -1    0    0    0    0  0.00000000000E+00  0.00000000000E+00  0.74505805969E-08  0.10566000000E+00  0.10566000000E+00 0. -1.
     999900   -1    0    0    0    0 -0.00000000000E+00 -0.00000000000E+00 -0.74505805969E-08  0.93827000000E+00  0.93827000000E+00 0.  1.
     999902    2    1    2    0    0 -0.20668473269E-01 -0.96748143110E-02  0.60241045982E-02  0.10203275074E+01  0.10200544813E+01 0.  0.
     999903    2    3    3    0    0 -0.50049330909E-01  0.10069628969E+00 -0.62428807185E-01  0.13031019494E+00  0.20945468666E-01 0.  0.
         14    1    1    2    0    0  0.20668473269E-01  0.96748143110E-02 -0.60241045982E-02  0.23602492568E-01  0.00000000000E+00 0. -1.
     999901    1    3    3    0    0  0.29380857640E-01 -0.11037110400E+00  0.68452911783E-01  0.89001731249E+00  0.88000000000E+00 0.  1.
        -11    1    4    4    0    0 -0.36660825688E-01  0.67432844628E-01 -0.31550031920E-01  0.82987169550E-01  0.51100000000E-03 0.  1.
         11    1    4    4    0    0 -0.13388505221E-01  0.33263445065E-01 -0.30878775265E-01  0.47323025395E-01  0.51100000000E-03 0. -1.
</event>
<event>
 8    1  0.1143957E+005  0.1043930E+01  0.7957747E-01            NaN
         13   -1    0    0    0    0  0.00000000000E+00  0.00000000000E+00  0.74505805969E-08  0.10566000000E+00  0.10566000000E+00 0. -1.
     999900   -1    0    0    0    0 -0.00000000000E+00 -0.00000000000E+00 -0.74505805969E-08  0.93827000000E+00  0.93827000000E+00 0.  1.
     999902    2    1    2    0    0 -0.18257671752E-01 -0.11250081107E-02  0.23812650604E-03  0.10256361506E+01  0.10254729877E+01 0.  0.
     999903    2    3    3    0    0 -0.10715131331E+00  0.36901468086E-01 -0.74601865583E-01  0.13718293473E+00  0.20263191798E-01 0.  0.
         14    1    1    2    0    0  0.18257671752E-01  0.11250081107E-02 -0.23812650604E-03  0.18293849384E-01  0.00000000000E+00 0. -1.
     999901    1    3    3    0    0  0.88893641558E-01 -0.38026476197E-01  0.74839992089E-01  0.88845321589E+00  0.88000000000E+00 0. -1.
        -11    1    4    4    0    0 -0.86511693420E-02 -0.23350666076E-02 -0.41974952263E-02  0.99083477039E-02  0.51100000000E-03 0. -1.
         11    1    4    4    0    0 -0.98500143968E-01  0.39236534694E-01 -0.70404370357E-01  0.12727458703E+00  0.51100000000E-03 0.  1.
</event>
<event>
 8    1  0.1143957E+005  0.1043930E+01  0.7957747E-01            NaN
         13   -1    0    0    0    0  0.00000000000E+00  0.00000000000E+00  0.74505805969E-08  0.10566000000E+00  0.10566000000E+00 0.  1.
     999900   -1    0    0    0    0 -0.00000000000E+00 -0.00000000000E+00 -0.74505805969E-08  0.93827000000E+00  0.93827000000E+00 0. -1.
     999902    2    1    2    0    0 -0.22289151752E-01 -0.15471149905E-02  0.16028865105E-01  0.10164322843E+01  0.10160602661E+01 0.  0.
     999903    2    3    3    0    0  0.71375094224E-01  0.38500181763E-01 -0.91494074429E-01  0.12405458432E+00  0.21016806680E-01 0.  0.
         14    1    1    2    0    0  0.22289151752E-01  0.15471149905E-02 -0.16028865105E-01  0.27497715672E-01  0.00000000000E+00 0. -1.
     999901    1    3    3    0    0 -0.93664245976E-01 -0.40047296753E-01  0.10752293953E+00  0.89237770001E+00  0.88000000000E+00 0.  1.
        -11    1    4    4    0    0  0.68782816806E-01  0.34588926893E-01 -0.77319478565E-01  0.10911476819E+00  0.51100000000E-03 0.  1.
         11    1    4    4    0    0  0.25922774176E-02  0.39112548696E-02 -0.14174595864E-01  0.14939816122E-01  0.51100000000E-03 0. -1.
</event>
<event>
 8    1  0.1143957E+005  0.1043930E+01  0.7957747E-01            NaN
         13   -1    0    0    0    0  0.00000000000E+00  0.00000000000E+00  0.74505805969E-08  0.10566000000E+00  0.10566000000E+00 0. -1.
     999900   -1    0    0    0    0 -0.00000000000E+00 -0.00000000000E+00 -0.74505805969E-08  0.93827000000E+00  0.93827000000E+00 0.  1.
     999902    2    1    2    0    0  0.25367447099E-02 -0.20199183866E-01  0.12580583778E-01  0.10199985732E+01  0.10197177924E+01 0.  0.
     999903    2    3    3    0    0  0.43597568253E-02 -0.74887923121E-01 -0.10504937333E+00  0.13048691591E+00  0.19085488657E-01 0.  0.
         14    1    1    2    0    0 -0.25367447099E-02  0.20199183866E-01 -0.12580583778E-01  0.23931426844E-01  0.00000000000E+00 0.  1.
     999901    1    3    3    0    0 -0.18230121154E-02  0.54688739255E-01  0.11762995711E+00  0.88951165725E+00  0.88000000000E+00 0. -1.
        -11    1    4    4    0    0 -0.41159021226E-02 -0.57927797964E-01 -0.73503639754E-01  0.93678261114E-01  0.51100000000E-03 0.  1.
         11    1    4    4    0    0  0.84756589478E-02 -0.16960125157E-01 -0.31545733573E-01  0.36808654793E-01  0.51100000000E-03 0. -1.
</event>
<event>
 8    1  0.1143957E+005  0.1043930E+01  0.7957747E-01            NaN
         13   -1    0    0    0    0  0.00000000000E+00  0.00000000000E+00  0.74505805969E-08  0.10566000000E+00  0.10566000000E+00 0. -1.
     999900   -1    0    0    0    0 -0.00000000000E+00 -0.00000000000E+00 -0.74505805969E-08  0.93827000000E+00  0.93827000000E+00 0.  1.
     999902    2    1    2    0    0  0.22853121503E-01  0.59350151617E-02 -0.44056615497E-02  0.10199112694E+01  0.10196284117E+01 0.  0.
     999903    2    3    3    0    0 -0.17753374381E-02 -0.73082096411E-01 -0.10597194070E+00  0.13021133458E+00  0.19513964194E-01 0.  0.
         14    1    1    2    0    0 -0.22853121503E-01 -0.59350151617E-02  0.44056615497E-02  0.24018730630E-01  0.00000000000E+00 0. -1.
     999901    1    3    3    0    0  0.24628458941E-01  0.79017111573E-01  0.10156627915E+00  0.88969993479E+00  0.88000000000E+00 0.  1.
        -11    1    4    4    0    0  0.50881427725E-02 -0.55690428955E-01 -0.69352869866E-01  0.89092057748E-01  0.51100000000E-03 0. -1.
         11    1    4    4    0    0 -0.68634802106E-02 -0.17391667456E-01 -0.36619070830E-01  0.41119276829E-01  0.51100000000E-03 0.  1.
</event>
<event>
 8    1  0.1143957E+005  0.1043930E+01  0.7957747E-01            NaN
         13   -1    0    0    0    0  0.00000000000E+00  0.00000000000E+00  0.74505805969E-08  0.10566000000E+00  0.10566000000E+00 0.  1.
     999900   -1    0    0    0    0 -0.00000000000E+00 -0.00000000000E+00 -0.74505805969E-08  0.93827000000E+00  0.93827000000E+00 0. -1.
     999902    2    1    2    0    0  0.98541854378E-02 -0.15316326356E-01  0.16849949625E-01  0.10191183974E+01  0.10188163192E+01 0.  0.
     999903    2    3    3    0    0  0.65028295044E-01 -0.10172508630E+00 -0.46735761130E-01  0.13088768477E+00  0.19253111855E-01 0.  0.
         14    1    1    2    0    0 -0.98541854378E-02  0.15316326356E-01 -0.16849949625E-01  0.24811602650E-01  0.00000000000E+00 0. -1.
     999901    1    3    3    0    0 -0.55174109606E-01  0.86408759943E-01  0.63585710755E-01  0.88823071258E+00  0.88000000000E+00 0.  1.
        -11    1    4    4    0    0  0.54850119600E-01 -0.70065831557E-01 -0.33043618896E-01  0.94920483788E-01  0.51100000000E-03 0.  1.
         11    1    4    4    0    0  0.10178175444E-01 -0.31659254742E-01 -0.13692142234E-01  0.35967200978E-01  0.51100000000E-03 0. -1.
</event>
<event>
 8    1  0.1143957E+005  0.1043930E+01  0.7957747E-01            NaN
         13   -1    0    0    0    0  0.00000000000E+00  0.00000000000E+00  0.74505805969E-08  0.10566000000E+00  0.10566000000E+00 0.  1.
     999900   -1    0    0    0    0 -0.00000000000E+00 -0.00000000000E+00 -0.74505805969E-08  0.93827000000E+00  0.93827000000E+00 0.  1.
     999902    2    1    2    0    0  0.36099882055E-02 -0.55033776585E-02  0.23997710557E-01  0.10190460837E+01  0.10187422203E+01 0.  0.
     999903    2    3    3    0    0  0.12757791386E+00  0.54936244080E-02  0.13032373416E-01  0.13022145570E+00  0.21942669693E-01 0.  0.
         14    1    1    2    0    0 -0.36099882055E-02  0.55033776585E-02 -0.23997710557E-01  0.24883916341E-01  0.00000000000E+00 0. -1.
     999901    1    3    3    0    0 -0.12396792566E+00 -0.10997002066E-01  0.10965337142E-01  0.88882462796E+00  0.88000000000E+00 0.  1.
        -11    1    4    4    0    0  0.78038279352E-01  0.18167173382E-03  0.18180783052E-01  0.80129944729E-01  0.51100000000E-03 0.  1.
         11    1    4    4    0    0  0.49539634511E-01  0.53119526742E-02 -0.51484096367E-02  0.50091510972E-01  0.51100000000E-03 0. -1.
</event>
<event>
 8    1  0.1143957E+005  0.1043930E+01  0.7957747E-01            NaN
         13   -1    0    0    0    0  0.00000000000E+00  0.00000000000E+00  0.74505805969E-08  0.10566000000E+00  0.10566000000E+00 0. -1.
     999900   -1    0    0    0    0 -0.00000000000E+00 -0.00000000000E+00 -0.74505805969E-08  0.93827000000E+00  0.93827000000E+00 0. -1.
     999902    2    1    2    0    0  0.77307823250E-02  0.19871299991E-01  0.41349937227E-02  0.10222106139E+01  0.10219798469E+01 0.  0.
     999903    2    3    3    0    0 -0.27510711301E-01  0.12014433110E-02 -0.12709927177E+00  0.13158557561E+00  0.20056323717E-01 0.  0.
         14    1    1    2    0    0 -0.77307823250E-02 -0.19871299991E-01 -0.41349937227E-02  0.21719386082E-01  0.00000000000E+00 0. -1.
     999901    1    3    3    0    0  0.35241493626E-01  0.18669856680E-01  0.13123426550E+00  0.89062503831E+00  0.88000000000E+00 0.  1.
        -11    1    4    4    0    0 -0.29450970909E-01  0.33698464664E-02 -0.99345084102E-01  0.10367459867E+00  0.51100000000E-03 0.  1.
         11    1    4    4    0    0  0.19402596075E-02 -0.21684031554E-02 -0.27754187671E-01  0.27910976942E-01  0.51100000000E-03 0. -1.
</event>
<event>
 8    1  0.1143957E+005  0.1043930E+01  0.7957747E-01            NaN
         13   -1    0    0    0    0  0.00000000000E+00  0.00000000000E+00  0.74505805969E-08  0.10566000000E+00  0.10566000000E+00 0. -1.
     999900   -1    0    0    0    0 -0.00000000000E+00 -0.00000000000E+00 -0.74505805969E-08  0.93827000000E+00  0.93827000000E+00 0. -1.
     999902    2    1    2    0    0 -0.17021984530E-01  0.96566297666E-02  0.13646030138E-01  0.10200718233E+01  0.10197927790E+01 0.  0.
     999903    2    3    3    0    0  0.64473172641E-01 -0.82906630901E-01  0.73236607431E-01  0.12947626148E+00  0.19240638812E-01 0.  0.
         14    1    1    2    0    0  0.17021984530E-01 -0.96566297666E-02 -0.13646030138E-01  0.23858176676E-01  0.00000000000E+00 0.  1.
     999901    1    3    3    0    0 -0.81495157171E-01  0.92563260668E-01 -0.59590577294E-01  0.89059556184E+00  0.88000000000E+00 0.  1.
        -11    1    4    4    0    0  0.44803029687E-01 -0.64866389578E-01  0.62882254204E-01  0.10084343797E+00  0.51100000000E-03 0.  1.
         11    1    4    4    0    0  0.19670142954E-01 -0.18040241323E-01  0.10354353228E-01  0.28632823517E-01  0.51100000000E-03 0. -1.
</event>
<event>
 8    1  0.1143957E+005  0.1043930E+01  0.7957747E-01            NaN
         13   -1    0    0    0    0  0.00000000000E+00  0.00000000000E+00  0.74505805969E-08  0.10566000000E+00  0.10566000000E+00 0. -1.
     999900   -1    0    0    0    0 -0.00000000000E+00 -0.00000000000E+00 -0.74505805969E-08  0.93827000000E+00  0.93827000000E+00 0.  1.
     999902    2    1    2    0    0 -0.35279908866E-02 -0.12405395078E-01 -0.19512724780E-01  0.10205401096E+01  0.10202720364E+01 0.  0.
     999903    2    3    3    0    0  0.86883746799E-01  0.76115136166E-01 -0.58376005372E-01  0.13064094597E+00  0.17804475573E-01 0.  0.
         14    1    1    2    0    0  0.35279908866E-02  0.12405395078E-01  0.19512724780E-01  0.23389890446E-01  0.00000000000E+00 0.  1.
     999901    1    3    3    0    0 -0.90411737685E-01 -0.88520531244E-01  0.38863280592E-01  0.88989916358E+00  0.88000000000E+00 0. -1.
        -11    1    4    4    0    0  0.76091336026E-01  0.72571327764E-01 -0.49519205990E-01  0.11622780181E+00  0.51100000000E-03 0.  1.
         11    1    4    4    0    0  0.10792410773E-01  0.35438084015E-02 -0.88567993818E-02  0.14413144160E-01  0.51100000000E-03 0. -1.
</event>
<event>
 8    1  0.1143957E+005  0.1043930E+01  0.7957747E-01            NaN
         13   -1    0    0    0    0  0.00000000000E+00  0.00000000000E+00  0.74505805969E-08  0.10566000000E+00  0.10566000000E+00 0.  1.
     999900   -1    0    0    0    0 -0.00000000000E+00 -0.00000000000E+00 -0.74505805969E-08  0.93827000000E+00  0.93827000000E+00 0. -1.
     999902    2    1    2    0    0  0.39639376895E-02 -0.17432025200E-01  0.15348968051E-01  0.10203677606E+01  0.10200956758E+01 0.  0.
     999903    2    3    3    0    0 -0.12213299893E+00 -0.16111238512E-01 -0.35794887562E-01  0.12990839834E+00  0.20466473744E-01 0.  0.
         14    1    1    2    0    0 -0.39639376895E-02  0.17432025200E-01 -0.15348968051E-01  0.23562239385E-01  0.00000000000E+00 0. -1.
     999901    1    3    3    0    0  0.12609693662E+00 -0.13207866880E-02  0.51143855613E-01  0.89045936228E+00  0.88000000000E+00 0.  1.
        -11    1    4    4    0    0 -0.86603266462E-01 -0.10110565781E-01 -0.34733009308E-01  0.93856232392E-01  0.51100000000E-03 0.  1.
         11    1    4    4    0    0 -0.35529732473E-01 -0.60006727308E-02 -0.10618782538E-02  0.36052165944E-01  0.51100000000E-03 0. -1.
</event>
<event>
 8    1  0.1143957E+005  0.1043930E+01  0.7957747E-01            NaN
         13   -1    0    0    0    0  0.00000000000E+00  0.00000000000E+00  0.74505805969E-08  0.10566000000E+00  0.10566000000E+00 0. -1.
     999900   -1    0    0    0    0 -0.00000000000E+00 -0.00000000000E+00 -0.74505805969E-08  0.93827000000E+00  0.93827000000E+00 0.  1.
     999902    2    1    2    0    0  0.18763677118E-01 -0.34097364069E-02 -0.14391039006E-01  0.10200384976E+01  0.10197586640E+01 0.  0.
     999903    2    3    3    0    0 -0.55759470929E-01 -0.18483325579E-01  0.11181623896E+00  0.12778898674E+00  0.19401080229E-01 0.  0.
         14    1    1    2    0    0 -0.18763677118E-01  0.34097364069E-02  0.14391039006E-01  0.23891502360E-01  0.00000000000E+00 0. -1.
     999901    1    3    3    0    0  0.74523148046E-01  0.15073589172E-01 -0.12620727797E+00  0.89224951090E+00  0.88000000000E+00 0.  1.
        -11    1    4    4    0    0 -0.24713004803E-01 -0.16234950542E-02  0.31726038788E-01  0.40251347813E-01  0.51100000000E-03 0.  1.
         11    1    4    4    0    0 -0.31046466125E-01 -0.16859830525E-01  0.80090200175E-01  0.87537638929E-01  0.51100000000E-03 0. -1.
</event>
<event>
 8    1  0.1143957E+005  0.1043930E+01  0.7957747E-01            NaN
         13   -1    0    0    0    0  0.00000000000E+00  0.00000000000E+00  0.74505805969E-08  0.10566000000E+00  0.10566000000E+00 0. -1.
     999900   -1    0    0    0    0 -0.00000000000E+00 -0.00000000000E+00 -0.74505805969E-08  0.93827000000E+00  0.93827000000E+00 0. -1.
     999902    2    1    2    0    0 -0.16663436072E-02 -0.22552238279E-02 -0.22919541533E-01  0.10208395665E+01  0.10205783911E+01 0.  0.
     999903    2    3    3    0    0 -0.95091893537E-01  0.22605578246E-01  0.82296403836E-01  0.12931458758E+00  0.19901861545E-01 0.  0.
         14    1    1    2    0    0  0.16663436072E-02  0.22552238279E-02  0.22919541533E-01  0.23090433508E-01  0.00000000000E+00 0. -1.
     999901    1    3    3    0    0  0.93425549930E-01 -0.24860802074E-01 -0.10521594537E+00  0.89152497891E+00  0.88000000000E+00 0. -1.
        -11    1    4    4    0    0 -0.58695715697E-01  0.64529384935E-02  0.40634674379E-01  0.71681694590E-01  0.51100000000E-03 0.  1.
         11    1    4    4    0    0 -0.36396177840E-01  0.16152639753E-01  0.41661729457E-01  0.57632892992E-01  0.51100000000E-03 0. -1.
</event>
<event>
 8    1  0.1143957E+005  0.1043930E+01  0.7957747E-01            NaN
         13   -1    0    0    0    0  0.00000000000E+00  0.00000000000E+00  0.74505805969E-08  0.10566000000E+00  0.10566000000E+00 0. -1.
     999900   -1    0    0    0    0 -0.00000000000E+00 -0.00000000000E+00 -0.74505805969E-08  0.93827000000E+00  0.93827000000E+00 0.  1.
     999902    2    1    2    0    0 -0.21876102988E-01 -0.47785503823E-02 -0.90365169359E-02  0.10197834254E+01  0.10194975124E+01 0.  0.
     999903    2    3    3    0    0  0.44080443071E-01  0.11206851626E+00  0.39579719360E-01  0.12828634669E+00  0.19707733599E-01 0.  0.
         14    1    1    2    0    0  0.21876102988E-01  0.47785503823E-02  0.90365169359E-02  0.24146574582E-01  0.00000000000E+00 0. -1.
     999901    1    3    3    0    0 -0.65956546059E-01 -0.11684706664E+00 -0.48616236296E-01  0.89149707873E+00  0.88000000000E+00 0.  1.
        -11    1    4    4    0    0  0.88508882273E-02  0.39324246094E-01  0.59765427403E-02  0.40751867901E-01  0.51100000000E-03 0. -1.
         11    1    4    4    0    0  0.35229554843E-01  0.72744270169E-01  0.33603176620E-01  0.87534478788E-01  0.51100000000E-03 0.  1.
</event>
<event>
 8    1  0.1143957E+005  0.1043930E+01  0.7957747E-01            NaN
         13   -1    0    0    0    0  0.00000000000E+00  0.00000000000E+00  0.74505805969E-08  0.10566000000E+00  0.10566000000E+00 0. -1.
     999900   -1    0    0    0    0 -0.00000000000E+00 -0.00000000000E+00 -0.74505805969E-08  0.93827000000E+00  0.93827000000E+00 0.  1.
     999902    2    1    2    0    0 -0.60547605525E-02  0.20532408223E-01 -0.11086997025E-01  0.10198227103E+01  0.10195377379E+01 0.  0.
     999903    2    3    3    0    0 -0.12124766613E+00  0.40366098035E-01  0.23250957812E-01  0.13142984908E+00  0.20069374119E-01 0.  0.
         14    1    1    2    0    0  0.60547605525E-02 -0.20532408223E-01  0.11086997025E-01  0.24107289682E-01  0.00000000000E+00 0. -1.
     999901    1    3    3    0    0  0.11519290558E+00 -0.19833689812E-01 -0.34337954837E-01  0.88839286123E+00  0.88000000000E+00 0.  1.
        -11    1    4    4    0    0 -0.52758799739E-01  0.93358836938E-02  0.35432280216E-02  0.53697907409E-01  0.51100000000E-03 0. -1.
         11    1    4    4    0    0 -0.68488866395E-01  0.31030214341E-01  0.19707729790E-01  0.77731941676E-01  0.51100000000E-03 0.  1.
</event>
<event>
 8    1  0.1143957E+005  0.1043930E+01  0.7957747E-01            NaN
         13   -1    0    0    0    0  0.00000000000E+00  0.00000000000E+00  0.74505805969E-08  0.10566000000E+00  0.10566000000E+00 0. -1.
     999900   -1    0    0    0    0 -0.00000000000E+00 -0.00000000000E+00 -0.74505805969E-08  0.93827000000E+00  0.93827000000E+00 0.  1.
     999902    2    1    2    0    0 -0.24015886548E-03 -0.17809594299E-01 -0.15870287412E-01  0.10200740710E+01  0.10197950799E+01 0.  0.
     999903    2    3    3    0    0  0.56527813535E-01  0.88187860242E-01  0.70379045675E-01  0.12771931503E+00  0.19660136449E-01 0.  0.
         14    1    1    2    0    0  0.24015886548E-03  0.17809594299E-01  0.15870287412E-01  0.23855928989E-01  0.00000000000E+00 0.  1.
     999901    1    3    3    0    0 -0.56767972400E-01 -0.10599745454E+00 -0.86249333087E-01  0.89235475598E+00  0.88000000000E+00 0.  1.
        -11    1    4    4    0    0  0.54776620242E-01  0.73127746135E-01  0.59133813307E-01  0.10883572197E+00  0.51100000000E-03 0.  1.
         11    1    4    4    0    0  0.17511932926E-02  0.15060114107E-01  0.11245232369E-01  0.18883593061E-01  0.51100000000E-03 0. -1.
</event>
<event>
 8    1  0.1143957E+005  0.1043930E+01  0.7957747E-01            NaN
         13   -1    0    0    0    0  0.00000000000E+00  0.00000000000E+00  0.74505805969E-08  0.10566000000E+00  0.10566000000E+00 0.  1.
     999900   -1    0    0    0    0 -0.00000000000E+00 -0.00000000000E+00 -0.74505805969E-08  0.93827000000E+00  0.93827000000E+00 0. -1.
     999902    2    1    2    0    0 -0.17040668231E-01 -0.16468614378E-01 -0.11728617152E-02  0.10202029008E+01  0.10199269501E+01 0.  0.
     999903    2    3    3    0    0 -0.94459907104E-01 -0.91929860710E-01  0.71010367602E-02  0.13354817900E+00  0.20271113687E-01 0.  0.
         14    1    1    2    0    0  0.17040668231E-01  0.16468614378E-01  0.11728617152E-02  0.23727099230E-01  0.00000000000E+00 0.  1.
     999901    1    3    3    0    0  0.77419238873E-01  0.75461246332E-01 -0.82738984754E-02  0.88665472177E+00  0.88000000000E+00 0. -1.
        -11    1    4    4    0    0 -0.42011606154E-01 -0.32209792551E-01 -0.48885728936E-02  0.53165825995E-01  0.51100000000E-03 0.  1.
         11    1    4    4    0    0 -0.52448300950E-01 -0.59720068159E-01  0.11989609654E-01  0.80382353002E-01  0.51100000000E-03 0. -1.
</event>
<event>
 8    1  0.1143957E+005  0.1043930E+01  0.7957747E-01            NaN
         13   -1    0    0    0    0  0.00000000000E+00  0.00000000000E+00  0.74505805969E-08  0.10566000000E+00  0.10566000000E+00 0.  1.
     999900   -1    0    0    0    0 -0.00000000000E+00 -0.00000000000E+00 -0.74505805969E-08  0.93827000000E+00  0.93827000000E+00 0.  1.
     999902    2    1    2    0    0  0.23560685608E-01  0.32218825796E-02  0.26174322119E-02  0.10200064262E+01  0.10197258318E+01 0.  0.
     999903    2    3    3    0    0  0.74330365538E-01 -0.30318810607E-01  0.10317015316E+00  0.13219260098E+00  0.19661376689E-01 0.  0.
         14    1    1    2    0    0 -0.23560685608E-01 -0.32218825796E-02 -0.26174322119E-02  0.23923573835E-01  0.00000000000E+00 0. -1.
     999901    1    3    3    0    0 -0.50769679930E-01  0.33540693187E-01 -0.10055272095E+00  0.88781382518E+00  0.88000000000E+00 0.  1.
        -11    1    4    4    0    0  0.58429229154E-01 -0.31509750254E-01  0.78422081575E-01  0.10274786217E+00  0.51100000000E-03 0. -1.
         11    1    4    4    0    0  0.15901136383E-01  0.11909396471E-02  0.24748071584E-01  0.29444738812E-01  0.51100000000E-03 0.  1.
</event>
<event>
 8    1  0.1143957E+005  0.1043930E+01  0.7957747E-01            NaN
         13   -1    0    0    0    0  0.00000000000E+00  0.00000000000E+00  0.74505805969E-08  0.10566000000E+00  0.10566000000E+00 0.  1.
     999900   -1    0    0    0    0 -0.00000000000E+00 -0.00000000000E+00 -0.74505805969E-08  0.93827000000E+00  0.93827000000E+00 0.  1.
     999902    2    1    2    0    0  0.56147343723E-02  0.22409801098E-01 -0.28529169847E-03  0.10208257619E+01  0.10205642705E+01 0.  0.
     999903    2    3    3    0    0 -0.11982274465E+00  0.37056814219E-02  0.47688786105E-01  0.13044049843E+00  0.19216688089E-01 0.  0.
         14    1    1    2    0    0 -0.56147343723E-02 -0.22409801098E-01  0.28529169847E-03  0.23104238111E-01  0.00000000000E+00 0. -1.
     999901    1    3    3    0    0  0.12543747902E+00  0.18704119676E-01 -0.47974077803E-01  0.89038526345E+00  0.88000000000E+00 0.  1.
        -11    1    4    4    0    0 -0.42219473969E-01  0.10461097602E-01  0.16178950923E-01  0.46410538881E-01  0.51100000000E-03 0.  1.
         11    1    4    4    0    0 -0.77603270682E-01 -0.67554161805E-02  0.31509835182E-01  0.84029959553E-01  0.51100000000E-03 0. -1.
</event>
<event>
 8    1  0.1143957E+005  0.1043930E+01  0.7957747E-01            NaN
         13   -1    0    0    0    0  0.00000000000E+00  0.00000000000E+00  0.74505805969E-08  0.10566000000E+00  0.10566000000E+00 0. -1.
     999900   -1    0    0    0    0 -0.00000000000E+00 -0.00000000000E+00 -0.74505805969E-08  0.93827000000E+00  0.93827000000E+00 0. -1.
     999902    2    1    2    0    0 -0.54903671509E-02  0.47324865374E-02 -0.23163059133E-01  0.10196592796E+01  0.10193703834E+01 0.  0.
     999903    2    3    3    0    0  0.11300742620E+00 -0.54409690545E-01 -0.18347038964E-01  0.12973640756E+00  0.27637452927E-01 0.  0.
         14    1    1    2    0    0  0.54903671509E-02 -0.47324865374E-02  0.23163059133E-01  0.24270720399E-01  0.00000000000E+00 0. -1.
     999901    1    3    3    0    0 -0.11849779335E+00  0.59142177083E-01 -0.48160201685E-02  0.88992287205E+00  0.88000000000E+00 0.  1.
        -11    1    4    4    0    0  0.88287000331E-01 -0.36204020483E-01 -0.24279035407E-01  0.98463486673E-01  0.51100000000E-03 0. -1.
         11    1    4    4    0    0  0.24720425873E-01 -0.18205670062E-01  0.59319964420E-02  0.31272920883E-01  0.51100000000E-03 0.  1.
</event>
<event>
 8    1  0.1143957E+005  0.1043930E+01  0.7957747E-01            NaN
         13   -1    0    0    0    0  0.00000000000E+00  0.00000000000E+00  0.74505805969E-08  0.10566000000E+00  0.10566000000E+00 0.  1.
     999900   -1    0    0    0    0 -0.00000000000E+00 -0.00000000000E+00 -0.74505805969E-08  0.93827000000E+00  0.93827000000E+00 0. -1.
     999902    2    1    2    0    0 -0.13006084856E-01  0.19153723810E-01 -0.35267384357E-02  0.10205107502E+01  0.10202419958E+01 0.  0.
     999903    2    3    3    0    0  0.60056983338E-01 -0.97905695881E-01  0.52663365701E-01  0.12798711043E+00  0.20369187900E-01 0.  0.
         14    1    1    2    0    0  0.13006084856E-01 -0.19153723810E-01  0.35267384357E-02  0.23419249840E-01  0.00000000000E+00 0.  1.
     999901    1    3    3    0    0 -0.73063068194E-01  0.11705941969E+00 -0.56190104137E-01  0.89252363973E+00  0.88000000000E+00 0.  1.
        -11    1    4    4    0    0  0.40904196858E-01 -0.49496244318E-01  0.23971354729E-01  0.68541363356E-01  0.51100000000E-03 0.  1.
         11    1    4    4    0    0  0.19152786480E-01 -0.48409451563E-01  0.28692010972E-01  0.59445747074E-01  0.51100000000E-03 0. -1.
</event>
<event>
 8    1  0.1143957E+005  0.1043930E+01  0.7957747E-01            NaN
         13   -1    0    0    0    0  0.00000000000E+00  0.00000000000E+00  0.74505805969E-08  0.10566000000E+00  0.10566000000E+00 0.  1.
     999900   -1    0    0    0    0 -0.00000000000E+00 -0.00000000000E+00 -0.74505805969E-08  0.93827000000E+00  0.93827000000E+00 0. -1.
     999902    2    1    2    0    0  0.24482309346E-01 -0.66381164632E-02 -0.21366745631E-02  0.10184738919E+01  0.10181557126E+01 0.  0.
     999903    2    3    3    0    0  0.11909361249E+00  0.36166220376E-01  0.37311591977E-01  0.13149042212E+00  0.20156690757E-01 0.  0.
         14    1    1    2    0    0 -0.24482309346E-01  0.66381164632E-02  0.21366745631E-02  0.25456108094E-01  0.00000000000E+00 0.  1.
     999901    1    3    3    0    0 -0.94611303144E-01 -0.42804336839E-01 -0.39448266540E-01  0.88698346978E+00  0.88000000000E+00 0. -1.
        -11    1    4    4    0    0  0.86267609891E-01  0.18063929396E-01  0.31236286196E-01  0.93511350957E-01  0.51100000000E-03 0. -1.
         11    1    4    4    0    0  0.32826002598E-01  0.18102290980E-01  0.60753057818E-02  0.37979071167E-01  0.51100000000E-03 0.  1.
</event>
<event>
 8    1  0.1143957E+005  0.1043930E+01  0.7957747E-01            NaN
         13   -1    0    0    0    0  0.00000000000E+00  0.00000000000E+00  0.74505805969E-08  0.10566000000E+00  0.10566000000E+00 0.  1.
     999900   -1    0    0    0    0 -0.00000000000E+00 -0.00000000000E+00 -0.74505805969E-08  0.93827000000E+00  0.93827000000E+00 0.  1.
     999902    2    1    2    0    0 -0.52271139209E-02 -0.22629516419E-01 -0.35360444897E-02  0.10204369937E+01  0.10201665241E+01 0.  0.
     999903    2    3    3    0    0 -0.64976654528E-03 -0.75368177809E-02 -0.12965347842E+00  0.13130576111E+00  0.19337854472E-01 0.  0.
         14    1    1    2    0    0  0.52271139209E-02  0.22629516419E-01  0.35360444897E-02  0.23493006277E-01  0.00000000000E+00 0. -1.
     999901    1    3    3    0    0 -0.45773473756E-02 -0.15092698638E-01  0.12611743393E+00  0.88913123261E+00  0.88000000000E+00 0. -1.
        -11    1    4    4    0    0  0.17459329238E-02 -0.92063069491E-02 -0.12694176120E+00  0.12728816216E+00  0.51100000000E-03 0. -1.
         11    1    4    4    0    0 -0.23956994691E-02  0.16694891682E-02 -0.27117172243E-02  0.40175989513E-02  0.51100000000E-03 0.  1.
</event>
<event>
 8    1  0.1143957E+005  0.1043930E+01  0.7957747E-01            NaN
         13   -1    0    0    0    0  0.00000000000E+00  0.00000000000E+00  0.74505805969E-08  0.10566000000E+00  0.10566000000E+00 0. -1.
     999900   -1    0    0    0    0 -0.00000000000E+00 -0.00000000000E+00 -0.74505805969E-08  0.93827000000E+00  0.93827000000E+00 0. -1.
     999902    2    1    2    0    0  0.20364208918E-01  0.12296904247E-01  0.24335423045E-02  0.10200168867E+01  0.10197365406E+01 0.  0.
     999903    2    3    3    0    0 -0.86962272662E-01  0.81234692194E-01  0.47273059741E-01  0.12968999474E+00  0.20572809113E-01 0.  0.
         14    1    1    2    0    0 -0.20364208918E-01 -0.12296904247E-01 -0.24335423045E-02  0.23913113287E-01  0.00000000000E+00 0. -1.
     999901    1    3    3    0    0  0.10732648158E+00 -0.68937787947E-01 -0.44839517436E-01  0.89032689198E+00  0.88000000000E+00 0. -1.
        -11    1    4    4    0    0 -0.65317866913E-01  0.71989786638E-01  0.38954382139E-01  0.10472181304E+00  0.51100000000E-03 0.  1.
         11    1    4    4    0    0 -0.21644405749E-01  0.92449055565E-02  0.83186776016E-02  0.24968181692E-01  0.51100000000E-03 0. -1.
</event>
<event>
 8    1  0.1143957E+005  0.1043930E+01  0.7957747E-01            NaN
         13   -1    0    0    0    0  0.00000000000E+00  0.00000000000E+00  0.74505805969E-08  0.10566000000E+00  0.10566000000E+00 0.  1.
     999900   -1    0    0    0    0 -0.00000000000E+00 -0.00000000000E+00 -0.74505805969E-08  0.93827000000E+00  0.93827000000E+00 0.  1.
     999902    2    1    2    0    0 -0.10141903522E-01 -0.33060918792E-02  0.22441090820E-01  0.10190826459E+01  0.10187796857E+01 0.  0.
     999903    2    3    3    0    0 -0.48807410336E-01  0.10948950778E+00  0.47967978162E-01  0.13067424276E+00  0.20117534022E-01 0.  0.
         14    1    1    2    0    0  0.10141903522E-01  0.33060918792E-02 -0.22441090820E-01  0.24847354140E-01  0.00000000000E+00 0. -1.
     999901    1    3    3    0    0  0.38665506814E-01 -0.11279559966E+00 -0.25526887342E-01  0.88840840310E+00  0.88000000000E+00 0. -1.
        -11    1    4    4    0    0 -0.50087349927E-02  0.26461313955E-01  0.16873890654E-01  0.31784868559E-01  0.51100000000E-03 0. -1.
         11    1    4    4    0    0 -0.43798675344E-01  0.83028193822E-01  0.31094087508E-01  0.98889374203E-01  0.51100000000E-03 0.  1.
</event>
<event>
 8    1  0.1143957E+005  0.1043930E+01  0.7957747E-01            NaN
         13   -1    0    0    0    0  0.00000000000E+00  0.00000000000E+00  0.74505805969E-08  0.10566000000E+00  0.10566000000E+00 0.  1.
     999900   -1    0    0    0    0 -0.00000000000E+00 -0.00000000000E+00 -0.74505805969E-08  0.93827000000E+00  0.93827000000E+00 0. -1.
     999902    2    1    2    0    0  0.15998446024E-01 -0.17900626983E-01  0.44782148035E-02  0.10195079377E+01  0.10192153834E+01 0.  0.
     999903    2    3    3    0    0 -0.27874243027E-01 -0.12147168472E+00  0.37763387206E-01  0.13172436067E+00  0.19821457288E-01 0.  0.
         14    1    1    2    0    0 -0.15998446024E-01  0.17900626983E-01 -0.44782148035E-02  0.24422062350E-01  0.00000000000E+00 0. -1.
     999901    1    3    3    0    0  0.43872689051E-01  0.10357105774E+00 -0.33285172402E-01  0.88778357698E+00  0.88000000000E+00 0. -1.
        -11    1    4    4    0    0 -0.19992667393E-01 -0.94197855035E-01  0.20377045456E-01  0.98429811262E-01  0.51100000000E-03 0. -1.
         11    1    4    4    0    0 -0.78815756337E-02 -0.27273829685E-01  0.17386341750E-01  0.33294549413E-01  0.51100000000E-03 0.  1.
</event>
<event>
 8    1  0.1143957E+005  0.1043930E+01  0.7957747E-01            NaN
         13   -1    0    0    0    0  0.00000000000E+00  0.00000000000E+00  0.74505805969E-08  0.10566000000E+00  0.10566000000E+00 0.  1.
     999900   -1    0    0    0    0 -0.00000000000E+00 -0.00000000000E+00 -0.74505805969E-08  0.93827000000E+00  0.93827000000E+00 0.  1.
     999902    2    1    2    0    0 -0.90101428129E-02 -0.58800415896E-03  0.21308516265E-01  0.10207873708E+01  0.10205249997E+01 0.  0.
     999903    2    3    3    0    0  0.16322648449E-01 -0.10307651261E+00  0.79234065542E-01  0.13258637215E+00  0.20246299280E-01 0.  0.
         14    1    1    2    0    0  0.90101428129E-02  0.58800415896E-03 -0.21308516265E-01  0.23142629233E-01  0.00000000000E+00 0. -1.
     999901    1    3    3    0    0 -0.25332791262E-01  0.10248850845E+00 -0.57925549277E-01  0.88820099861E+00  0.88000000000E+00 0.  1.
        -11    1    4    4    0    0  0.16616373707E-01 -0.55801239422E-01  0.51753951714E-01  0.77901314721E-01  0.51100000000E-03 0.  1.
         11    1    4    4    0    0 -0.29372525799E-03 -0.47275273188E-01  0.27480113828E-01  0.54685057434E-01  0.51100000000E-03 0. -1.
</event>
<event>
 8    1  0.1143957E+005  0.1043930E+01  0.7957747E-01            NaN
         13   -1    0    0    0    0  0.00000000000E+00  0.00000000000E+00  0.74505805969E-08  0.10566000000E+00  0.10566000000E+00 0.  1.
     999900   -1    0    0    0    0 -0.00000000000E+00 -0.00000000000E+00 -0.74505805969E-08  0.93827000000E+00  0.93827000000E+00 0.  1.
     999902    2    1    2    0    0 -0.73516470940E-02  0.14708633718E-01 -0.17407357639E-01  0.10199840876E+01  0.10197029627E+01 0.  0.
     999903    2    3    3    0    0 -0.10196143414E+00  0.81722126745E-01 -0.11665315803E-02  0.13223097750E+00  0.20224504016E-01 0.  0.
         14    1    1    2    0    0  0.73516470940E-02 -0.14708633718E-01  0.17407357639E-01  0.23945912403E-01  0.00000000000E+00 0.  1.
     999901    1    3    3    0    0  0.94609787050E-01 -0.67013493027E-01 -0.16240826059E-01  0.88775311010E+00  0.88000000000E+00 0.  1.
        -11    1    4    4    0    0 -0.13687275608E-01  0.12081408749E-01  0.68524061167E-02  0.19506884464E-01  0.51100000000E-03 0. -1.
         11    1    4    4    0    0 -0.88274158536E-01  0.69640717996E-01 -0.80189376969E-02  0.11272409304E+00  0.51100000000E-03 0.  1.
</event>
<event>
 8    1  0.1143957E+005  0.1043930E+01  0.7957747E-01            NaN
         13   -1    0    0    0    0  0.00000000000E+00  0.00000000000E+00  0.74505805969E-08  0.10566000000E+00  0.10566000000E+00 0.  1.
     999900   -1    0    0    0    0 -0.00000000000E+00 -0.00000000000E+00 -0.74505805969E-08  0.93827000000E+00  0.93827000000E+00 0. -1.
     999902    2    1    2    0    0  0.80826369385E-02  0.15723407637E-01  0.15843401684E-01  0.10201904140E+01  0.10199141693E+01 0.  0.
     999903    2    3    3    0    0  0.94256369092E-01  0.57176655296E-01 -0.67988103414E-01  0.13104925246E+00  0.19952226436E-01 0.  0.
         14    1    1    2    0    0 -0.80826369385E-02 -0.15723407637E-01 -0.15843401684E-01  0.23739586023E-01  0.00000000000E+00 0. -1.
     999901    1    3    3    0    0 -0.86173732153E-01 -0.41453247659E-01  0.83831505098E-01  0.88914116152E+00  0.88000000000E+00 0. -1.
        -11    1    4    4    0    0  0.42625575905E-01  0.16950682370E-01 -0.35318363311E-01  0.57895710221E-01  0.51100000000E-03 0.  1.
         11    1    4    4    0    0  0.51630793187E-01  0.40225972926E-01 -0.32669740103E-01  0.73153542241E-01  0.51100000000E-03 0. -1.
</event>
<event>
 8    1  0.1143957E+005  0.1043930E+01  0.7957747E-01            NaN
         13   -1    0    0    0    0  0.00000000000E+00  0.00000000000E+00  0.74505805969E-08  0.10566000000E+00  0.10566000000E+00 0.  1.
     999900   -1    0    0    0    0 -0.00000000000E+00 -0.00000000000E+00 -0.74505805969E-08  0.93827000000E+00  0.93827000000E+00 0.  1.
     999902    2    1    2    0    0  0.23501803666E-01 -0.75765425784E-02  0.97411354135E-02  0.10173851607E+01  0.10170388079E+01 0.  0.
     999903    2    3    3    0    0 -0.11622341708E+00 -0.16645080958E-01 -0.40741848436E-01  0.12488647313E+00  0.12320371669E-01 0.  0.
         14    1    1    2    0    0 -0.23501803666E-01  0.75765425784E-02 -0.97411354135E-02  0.26544839275E-01  0.00000000000E+00 0.  1.
     999901    1    3    3    0    0  0.13972522075E+00  0.90685383800E-02  0.50482983850E-01  0.89249868760E+00  0.88000000000E+00 0. -1.
        -11    1    4    4    0    0 -0.86052016294E-01 -0.90218992667E-02 -0.25334341695E-01  0.90157829192E-01  0.51100000000E-03 0.  1.
         11    1    4    4    0    0 -0.30171400790E-01 -0.76231816917E-02 -0.15407506741E-01  0.34728643937E-01  0.51100000000E-03 0. -1.
</event>
<event>
 8    1  0.1143957E+005  0.1043930E+01  0.7957747E-01            NaN
         13   -1    0    0    0    0  0.00000000000E+00  0.00000000000E+00  0.74505805969E-08  0.10566000000E+00  0.10566000000E+00 0. -1.
     999900   -1    0    0    0    0 -0.00000000000E+00 -0.00000000000E+00 -0.74505805969E-08  0.93827000000E+00  0.93827000000E+00 0. -1.
     999902    2    1    2    0    0  0.14229826940E-01 -0.18836282151E-01  0.32777941388E-02  0.10200964641E+01  0.10198180027E+01 0.  0.
     999903    2    3    3    0    0  0.22131699390E-02 -0.56532809719E-01  0.11745264518E+00  0.13183899868E+00  0.19635198365E-01 0.  0.
         14    1    1    2    0    0 -0.14229826940E-01  0.18836282151E-01 -0.32777941388E-02  0.23833535920E-01  0.00000000000E+00 0.  1.
     999901    1    3    3    0    0  0.12016657001E-01  0.37696527568E-01 -0.11417485105E+00  0.88825746540E+00  0.88000000000E+00 0. -1.
        -11    1    4    4    0    0 -0.38992583374E-02 -0.45784002718E-01  0.10316620100E+00  0.11293761672E+00  0.51100000000E-03 0. -1.
         11    1    4    4    0    0  0.61124282764E-02 -0.10748807002E-01  0.14286444183E-01  0.18901381954E-01  0.51100000000E-03 0.  1.
</event>
<event>
 8    1  0.1143957E+005  0.1043930E+01  0.7957747E-01            NaN
         13   -1    0    0    0    0  0.00000000000E+00  0.00000000000E+00  0.74505805969E-08  0.10566000000E+00  0.10566000000E+00 0.  1.
     999900   -1    0    0    0    0 -0.00000000000E+00 -0.00000000000E+00 -0.74505805969E-08  0.93827000000E+00  0.93827000000E+00 0.  1.
     999902    2    1    2    0    0  0.16372770170E-01 -0.88654951637E-02 -0.15014916539E-01  0.10200111303E+01  0.10197306476E+01 0.  0.
     999903    2    3    3    0    0  0.49705552613E-01  0.79700004064E-01  0.86341990202E-01  0.12915303581E+00  0.20070744317E-01 0.  0.
         14    1    1    2    0    0 -0.16372770170E-01  0.88654951637E-02  0.15014916539E-01  0.23918869668E-01  0.00000000000E+00 0.  1.
     999901    1    3    3    0    0 -0.33332782443E-01 -0.88565499227E-01 -0.10135690674E+00  0.89085809453E+00  0.88000000000E+00 0.  1.
        -11    1    4    4    0    0  0.25408665241E-02  0.16721250473E-01  0.10782367670E-01  0.20064316426E-01  0.51100000000E-03 0.  1.
         11    1    4    4    0    0  0.47164686089E-01  0.62978753591E-01  0.75559622532E-01  0.10908871938E+00  0.51100000000E-03 0. -1.
</event>
<event>
 8    1  0.1143957E+005  0.1043930E+01  0.7957747E-01            NaN
         13   -1    0    0    0    0  0.00000000000E+00  0.00000000000E+00  0.74505805969E-08  0.10566000000E+00  0.10566000000E+00 0.  1.
     999900   -1    0    0    0    0 -0.00000000000E+00 -0.00000000000E+00 -0.74505805969E-08  0.93827000000E+00  0.93827000000E+00 0.  1.
     999902    2    1    2    0    0  0.14198751478E-01 -0.15970639282E-01  0.75096141514E-02  0.10212791685E+01  0.10210279525E+01 0.  0.
     999903    2    3    3    0    0  0.83185139331E-01 -0.97330894610E-01  0.35914716395E-01  0.13438263413E+00  0.19384402262E-01 0.  0.
         14    1    1    2    0    0 -0.14198751478E-01  0.15970639282E-01 -0.75096141514E-02  0.22650831493E-01  0.00000000000E+00 0. -1.
     999901    1    3    3    0    0 -0.68986387852E-01  0.81360255328E-01 -0.28405102244E-01  0.88689653438E+00  0.88000000000E+00 0. -1.
        -11    1    4    4    0    0  0.55135821867E-01 -0.74555474054E-01  0.31721470435E-01  0.98005052787E-01  0.51100000000E-03 0.  1.
         11    1    4    4    0    0  0.28049317463E-01 -0.22775420556E-01  0.41932459607E-02  0.36377581343E-01  0.51100000000E-03 0. -1.
</event>
<event>
 8    1  0.1143957E+005  0.1043930E+01  0.7957747E-01            NaN
         13   -1    0    0    0    0  0.00000000000E+00  0.00000000000E+00  0.74505805969E-08  0.10566000000E+00  0.10566000000E+00 0. -1.
     999900   -1    0    0    0    0 -0.00000000000E+00 -0.00000000000E+00 -0.74505805969E-08  0.93827000000E+00  0.93827000000E+00 0.  1.
     999902    2    1    2    0    0  0.28815374300E-01  0.29573392926E-02 -0.31598415547E-02  0.10147914302E+01  0.10143730037E+01 0.  0.
     999903    2    3    3    0    0 -0.59602222655E-01  0.19063314261E-01 -0.10552747475E+00  0.12431054539E+00  0.20030698208E-01 0.  0.
         14    1    1    2    0    0 -0.28815374300E-01 -0.29573392926E-02  0.31598415547E-02  0.29138569807E-01  0.00000000000E+00 0.  1.
     999901    1    3    3    0    0  0.88417596955E-01 -0.16105974968E-01  0.10236763320E+00  0.89048088481E+00  0.88000000000E+00 0. -1.
        -11    1    4    4    0    0 -0.74247456150E-02 -0.14517653548E-02 -0.25450561770E-01  0.26556104487E-01  0.51100000000E-03 0.  1.
         11    1    4    4    0    0 -0.52177477040E-01  0.20515079615E-01 -0.80076912981E-01  0.97754440899E-01  0.51100000000E-03 0. -1.
</event>
<event>
 8    1  0.1143957E+005  0.1043930E+01  0.7957747E-01            NaN
         13   -1    0    0    0    0  0.00000000000E+00  0.00000000000E+00  0.74505805969E-08  0.10566000000E+00  0.10566000000E+00 0. -1.
     999900   -1    0    0    0    0 -0.00000000000E+00 -0.00000000000E+00 -0.74505805969E-08  0.93827000000E+00  0.93827000000E+00 0. -1.
     999902    2    1    2    0    0 -0.43357443753E-02  0.23137240701E-01 -0.64929154628E-02  0.10195109800E+01  0.10192184995E+01 0.  0.
     999903    2    3    3    0    0 -0.50481657161E-01 -0.63969806576E-01  0.96809483477E-01  0.12800188382E+00  0.19283990933E-01 0.  0.
         14    1    1    2    0    0  0.43357443753E-02 -0.23137240701E-01  0.64929154628E-02  0.24419020000E-01  0.00000000000E+00 0.  1.
     999901    1    3    3    0    0  0.46145912786E-01  0.87107047277E-01 -0.10330239894E+00  0.89150909618E+00  0.88000000000E+00 0. -1.
        -11    1    4    4    0    0 -0.28084296407E-01 -0.22484555173E-01  0.34339394603E-01  0.49736687351E-01  0.51100000000E-03 0.  1.
         11    1    4    4    0    0 -0.22397360754E-01 -0.41485251404E-01  0.62470088874E-01  0.78265196465E-01  0.51100000000E-03 0. -1.
</event>
<event>
 8    1  0.1143957E+005  0.1043930E+01  0.7957747E-01            NaN
         13   -1    0    0    0    0  0.00000000000E+00  0.00000000000E+00  0.74505805969E-08  0.10566000000E+00  0.10566000000E+00 0. -1.
     999900   -1    0    0    0    0 -0.00000000000E+00 -0.00000000000E+00 -0.74505805969E-08  0.93827000000E+00  0.93827000000E+00 0. -1.
     999902    2    1    2    0    0  0.63025231850E-02  0.23290807999E-01  0.27860097379E-02  0.10196412086E+01  0.10193518769E+01 0.  0.
     999903    2    3    3    0    0 -0.29099346807E-01  0.86799535555E-01 -0.92167976580E-01  0.13155173657E+00  0.20736251599E-01 0.  0.
         14    1    1    2    0    0 -0.63025231850E-02 -0.23290807999E-01 -0.27860097379E-02  0.24288791366E-01  0.00000000000E+00 0. -1.
     999901    1    3    3    0    0  0.35401869992E-01 -0.63508727556E-01  0.94953986318E-01  0.88808947206E+00  0.88000000000E+00 0.  1.
        -11    1    4    4    0    0 -0.15396141221E-02  0.23775727067E-01 -0.14923333081E-01  0.28118012029E-01  0.51100000000E-03 0.  1.
         11    1    4    4    0    0 -0.27559732685E-01  0.63023808488E-01 -0.77244643500E-01  0.10343372454E+00  0.51100000000E-03 0. -1.
</event>
<event>
 8    1  0.1143957E+005  0.1043930E+01  0.7957747E-01            NaN
         13   -1    0    0    0    0  0.00000000000E+00  0.00000000000E+00  0.74505805969E-08  0.10566000000E+00  0.10566000000E+00 0.  1.
     999900   -1    0    0    0    0 -0.00000000000E+00 -0.00000000000E+00 -0.74505805969E-08  0.93827000000E+00  0.93827000000E+00 0. -1.
     999902    2    1    2    0    0  0.10670441126E-01 -0.17355556962E-01  0.18106111285E-01  0.10166737175E+01  0.10163082913E+01 0.  0.
     999903    2    3    3    0    0  0.64681822906E-01  0.93123393536E-01 -0.52220427448E-01  0.12534400860E+00  0.11333261307E-01 0.  0.
         14    1    1    2    0    0 -0.10670441126E-01  0.17355556962E-01 -0.18106111285E-01  0.27256282526E-01  0.00000000000E+00 0. -1.
     999901    1    3    3    0    0 -0.54011381780E-01 -0.11047895050E+00  0.70326538733E-01  0.89132970887E+00  0.88000000000E+00 0.  1.
        -11    1    4    4    0    0  0.45401705259E-01  0.55849324684E-01 -0.32590772764E-01  0.79011907321E-01  0.51100000000E-03 0. -1.
         11    1    4    4    0    0  0.19280117646E-01  0.37274068852E-01 -0.19629654684E-01  0.46332101283E-01  0.51100000000E-03 0.  1.
</event>
<event>
 8    1  0.1143957E+005  0.1043930E+01  0.7957747E-01            NaN
         13   -1    0    0    0    0  0.00000000000E+00  0.00000000000E+00  0.74505805969E-08  0.10566000000E+00  0.10566000000E+00 0.  1.
     999900   -1    0    0    0    0 -0.00000000000E+00 -0.00000000000E+00 -0.74505805969E-08  0.93827000000E+00  0.93827000000E+00 0. -1.
     999902    2    1    2    0    0 -0.19752154332E-01 -0.64882116157E-02 -0.23894357747E-01  0.10122569070E+01  0.10117612667E+01 0.  0.
     999903    2    3    3    0    0  0.69259736686E-01  0.91243372754E-01  0.32370865270E-01  0.12060655248E+00  0.19385648934E-01 0.  0.
         14    1    1    2    0    0  0.19752154332E-01  0.64882116157E-02  0.23894357747E-01  0.31673093042E-01  0.00000000000E+00 0.  1.
     999901    1    3    3    0    0 -0.89011891018E-01 -0.97731584370E-01 -0.56265223016E-01  0.89165035448E+00  0.88000000000E+00 0.  1.
        -11    1    4    4    0    0  0.51311438996E-01  0.61887524681E-01  0.14019171514E-01  0.81607155164E-01  0.51100000000E-03 0.  1.
         11    1    4    4    0    0  0.17948297689E-01  0.29355848073E-01  0.18351693755E-01  0.38999397312E-01  0.51100000000E-03 0. -1.
</event>
<event>
 8    1  0.1143957E+005  0.1043930E+01  0.7957747E-01            NaN
         13   -1    0    0    0    0  0.00000000000E+00  0.00000000000E+00  0.74505805969E-08  0.10566000000E+00  0.10566000000E+00 0.  1.
     999900   -1    0    0    0    0 -0.00000000000E+00 -0.00000000000E+00 -0.74505805969E-08  0.93827000000E+00  0.93827000000E+00 0. -1.
     999902    2    1    2    0    0  0.70320330511E-02 -0.19203403972E-01 -0.10599326087E-01  0.10208959833E+01  0.10206360971E+01 0.  0.
     999903    2    3    3    0    0  0.84261291979E-01 -0.46188512325E-01  0.87240060139E-01  0.13170247228E+00  0.22391273158E-01 0.  0.
         14    1    1    2    0    0 -0.70320330511E-02  0.19203403972E-01  0.10599326087E-01  0.23034016724E-01  0.00000000000E+00 0. -1.
     999901    1    3    3    0    0 -0.77229258928E-01  0.26985108353E-01 -0.97839386226E-01  0.88919351100E+00  0.88000000000E+00 0. -1.
        -11    1    4    4    0    0  0.50316039508E-01 -0.36810641748E-01  0.46057588345E-01  0.77513158514E-01  0.51100000000E-03 0.  1.
         11    1    4    4    0    0  0.33945252471E-01 -0.93778705776E-02  0.41182471794E-01  0.54189313762E-01  0.51100000000E-03 0. -1.
</event>
<event>
 8    1  0.1143957E+005  0.1043930E+01  0.7957747E-01            NaN
         13   -1    0    0    0    0  0.00000000000E+00  0.00000000000E+00  0.74505805969E-08  0.10566000000E+00  0.10566000000E+00 0.  1.
     999900   -1    0    0    0    0 -0.00000000000E+00 -0.00000000000E+00 -0.74505805969E-08  0.93827000000E+00  0.93827000000E+00 0.  1.
     999902    2    1    2    0    0 -0.15580672802E-01 -0.32394779323E-01  0.12793500158E-02  0.10079603485E+01  0.10073183451E+01 0.  0.
     999903    2    3    3    0    0  0.65780078645E-01 -0.78418094413E-01 -0.57906203061E-01  0.12103270371E+00  0.28624652594E-01 0.  0.
         14    1    1    2    0    0  0.15580672802E-01  0.32394779323E-01 -0.12793500158E-02  0.35969651497E-01  0.00000000000E+00 0. -1.
     999901    1    3    3    0    0 -0.81360751447E-01  0.46023315090E-01  0.59185553077E-01  0.88692764479E+00  0.88000000000E+00 0. -1.
        -11    1    4    4    0    0  0.38617806481E-01 -0.40127443874E-01 -0.15607835872E-01  0.57839540030E-01  0.51100000000E-03 0.  1.
         11    1    4    4    0    0  0.27162272164E-01 -0.38290650539E-01 -0.42298367189E-01  0.63193163678E-01  0.51100000000E-03 0. -1.
</event>
<event>
 8    1  0.1143957E+005  0.1043930E+01  0.7957747E-01            NaN
         13   -1    0    0    0    0  0.00000000000E+00  0.00000000000E+00  0.74505805969E-08  0.10566000000E+00  0.10566000000E+00 0. -1.
     999900   -1    0    0    0    0 -0.00000000000E+00 -0.00000000000E+00 -0.74505805969E-08  0.93827000000E+00  0.93827000000E+00 0.  1.
     999902    2    1    2    0    0  0.88779923056E-02 -0.10726348511E-01  0.18234132405E-01  0.10209875310E+01  0.10207297299E+01 0.  0.
     999903    2    3    3    0    0 -0.86781835261E-01 -0.59587162920E-01 -0.72787139228E-01  0.12979560234E+00  0.21615129758E-01 0.  0.
         14    1    1    2    0    0 -0.88779923056E-02  0.10726348511E-01 -0.18234132405E-01  0.22942469011E-01  0.00000000000E+00 0.  1.
     999901    1    3    3    0    0  0.95659827567E-01  0.48860814408E-01  0.91021271632E-01  0.89119192865E+00  0.88000000000E+00 0. -1.
        -11    1    4    4    0    0 -0.81185516244E-02 -0.13860115886E-01 -0.15154725547E-01  0.22089375733E-01  0.51100000000E-03 0. -1.
         11    1    4    4    0    0 -0.78663283637E-01 -0.45727047034E-01 -0.57632413681E-01  0.10770622661E+00  0.51100000000E-03 0.  1.
</event>
<event>
 8    1  0.1143957E+005  0.1043930E+01  0.7957747E-01            NaN
         13   -1    0    0    0    0  0.00000000000E+00  0.00000000000E+00  0.74505805969E-08  0.10566000000E+00  0.10566000000E+00 0. -1.
     999900   -1    0    0    0    0 -0.00000000000E+00 -0.00000000000E+00 -0.74505805969E-08  0.93827000000E+00  0.93827000000E+00 0. -1.
     999902    2    1    2    0    0 -0.11694962774E-01 -0.98872725464E-02 -0.21263090281E-01  0.10177260056E+01  0.10173886048E+01 0.  0.
     999903    2    3    3    0    0 -0.12254983355E+00 -0.12665561368E-01 -0.38306718237E-01  0.13060312433E+00  0.20270502583E-01 0.  0.
         14    1    1    2    0    0  0.11694962774E-01  0.98872725464E-02  0.21263090281E-01  0.26203994371E-01  0.00000000000E+00 0.  1.
     999901    1    3    3    0    0  0.11085487078E+00  0.27782888217E-02  0.17043627956E-01  0.88712288130E+00  0.88000000000E+00 0.  1.
        -11    1    4    4    0    0 -0.47493399470E-01 -0.11107042706E-01 -0.70603881054E-02  0.49285896483E-01  0.51100000000E-03 0.  1.
         11    1    4    4    0    0 -0.75056434083E-01 -0.15585186618E-02 -0.31246330131E-01  0.81317227851E-01  0.51100000000E-03 0. -1.
</event>
<event>
 8    1  0.1143957E+005  0.1043930E+01  0.7957747E-01            NaN
         13   -1    0    0    0    0  0.00000000000E+00  0.00000000000E+00  0.74505805969E-08  0.10566000000E+00  0.10566000000E+00 0.  1.
     999900   -1    0    0    0    0 -0.00000000000E+00 -0.00000000000E+00 -0.74505805969E-08  0.93827000000E+00  0.93827000000E+00 0. -1.
     999902    2    1    2    0    0  0.20154281896E-01 -0.76693055963E-02  0.84317950453E-02  0.10207759832E+01  0.10205133509E+01 0.  0.
     999903    2    3    3    0    0 -0.16013239089E-01 -0.12906156285E+00 -0.93868262518E-04  0.13166583442E+00  0.20556563708E-01 0.  0.
         14    1    1    2    0    0 -0.20154281896E-01  0.76693055963E-02 -0.84317950453E-02  0.23154016817E-01  0.00000000000E+00 0. -1.
     999901    1    3    3    0    0  0.36167520985E-01  0.12139225725E+00  0.85256633078E-02  0.88911014876E+00  0.88000000000E+00 0.  1.
        -11    1    4    4    0    0 -0.17410306660E-01 -0.61720206434E-01 -0.34589367394E-02  0.64224045533E-01  0.51100000000E-03 0. -1.
         11    1    4    4    0    0  0.13970675715E-02 -0.67341356416E-01  0.33650684769E-02  0.67441788889E-01  0.51100000000E-03 0.  1.
</event>
<event>
 8    1  0.1143957E+005  0.1043930E+01  0.7957747E-01            NaN
         13   -1    0    0    0    0  0.00000000000E+00  0.00000000000E+00  0.74505805969E-08  0.10566000000E+00  0.10566000000E+00 0. -1.
     999900   -1    0    0    0    0 -0.00000000000E+00 -0.00000000000E+00 -0.74505805969E-08  0.93827000000E+00  0.93827000000E+00 0.  1.
     999902    2    1    2    0    0 -0.12063234442E-01  0.35539436133E-02 -0.18400674031E-01  0.10216424038E+01  0.10213992678E+01 0.  0.
     999903    2    3    3    0    0  0.72302385015E-01  0.34782765753E-01  0.99315420166E-01  0.12925802701E+00  0.20164552823E-01 0.  0.
         14    1    1    2    0    0  0.12063234442E-01 -0.35539436133E-02  0.18400674031E-01  0.22287596219E-01  0.00000000000E+00 0. -1.
     999901    1    3    3    0    0 -0.84365619457E-01 -0.31228822140E-01 -0.11771609420E+00  0.89238437677E+00  0.88000000000E+00 0.  1.
        -11    1    4    4    0    0  0.41768341530E-01  0.17355626554E-01  0.70664514466E-01  0.83902007443E-01  0.51100000000E-03 0. -1.
         11    1    4    4    0    0  0.30534043484E-01  0.17427139199E-01  0.28650905700E-01  0.45356019563E-01  0.51100000000E-03 0.  1.
</event>
<event>
 8    1  0.1143957E+005  0.1043930E+01  0.7957747E-01            NaN
         13   -1    0    0    0    0  0.00000000000E+00  0.00000000000E+00  0.74505805969E-08  0.10566000000E+00  0.10566000000E+00 0.  1.
     999900   -1    0    0    0    0 -0.00000000000E+00 -0.00000000000E+00 -0.74505805969E-08  0.93827000000E+00  0.93827000000E+00 0.  1.
     999902    2    1    2    0    0  0.15130618335E-01  0.39603345878E-02 -0.20576158081E-01  0.10180843400E+01  0.10177562209E+01 0.  0.
     999903    2    3    3    0    0 -0.11717198501E+00 -0.32199973299E-01 -0.32763315066E-01  0.12737671481E+00  0.19628558501E-01 0.  0.
         14    1    1    2    0    0 -0.15130618335E-01 -0.39603345878E-02  0.20576158081E-01  0.25845660034E-01  0.00000000000E+00 0.  1.
     999901    1    3    3    0    0  0.13230260335E+00  0.36160307887E-01  0.12187156985E-01  0.89070762516E+00  0.88000000000E+00 0. -1.
        -11    1    4    4    0    0 -0.55846129256E-01 -0.23128851284E-01 -0.96534808218E-02  0.61214252651E-01  0.51100000000E-03 0. -1.
         11    1    4    4    0    0 -0.61325855757E-01 -0.90711220147E-02 -0.23109834244E-01  0.66162462157E-01  0.51100000000E-03 0.  1.
</event>
<event>
 8    1  0.1143957E+005  0.1043930E+01  0.7957747E-01            NaN
         13   -1    0    0    0    0  0.00000000000E+00  0.00000000000E+00  0.74505805969E-08  0.10566000000E+00  0.10566000000E+00 0. -1.
     999900   -1    0    0    0    0 -0.00000000000E+00 -0.00000000000E+00 -0.74505805969E-08  0.93827000000E+00  0.93827000000E+00 0.  1.
     999902    2    1    2    0    0  0.13323482392E-01  0.98511371679E-02 -0.20878874700E-01  0.10172750287E+01  0.10169257576E+01 0.  0.
     999903    2    3    3    0    0  0.55236736624E-02  0.44200851498E-01 -0.12138610242E+00  0.13085388572E+00  0.20097942779E-01 0.  0.
         14    1    1    2    0    0 -0.13323482392E-01 -0.98511371679E-02  0.20878874700E-01  0.26654971305E-01  0.00000000000E+00 0. -1.
     999901    1    3    3    0    0  0.77998087297E-02 -0.34349714330E-01  0.10050722772E+00  0.88642114298E+00  0.88000000000E+00 0. -1.
        -11    1    4    4    0    0  0.99393712273E-02  0.29555208381E-01 -0.60391947456E-01  0.67968741943E-01  0.51100000000E-03 0. -1.
         11    1    4    4    0    0 -0.44156975648E-02  0.14645643117E-01 -0.60994154962E-01  0.62885143776E-01  0.51100000000E-03 0.  1.
</event>
<event>
 8    1  0.1143957E+005  0.1043930E+01  0.7957747E-01            NaN
         13   -1    0    0    0    0  0.00000000000E+00  0.00000000000E+00  0.74505805969E-08  0.10566000000E+00  0.10566000000E+00 0. -1.
     999900   -1    0    0    0    0 -0.00000000000E+00 -0.00000000000E+00 -0.74505805969E-08  0.93827000000E+00  0.93827000000E+00 0.  1.
     999902    2    1    2    0    0 -0.19161634597E-01  0.13185762630E-01  0.10128517815E-02  0.10206478514E+01  0.10203822705E+01 0.  0.
     999903    2    3    3    0    0  0.20722235327E-01 -0.10551353183E+00 -0.68655594090E-01  0.12905717289E+00  0.19484528181E-01 0.  0.
         14    1    1    2    0    0  0.19161634597E-01 -0.13185762630E-01 -0.10128517815E-02  0.23282148640E-01  0.00000000000E+00 0. -1.
     999901    1    3    3    0    0 -0.39883869924E-01  0.11869929446E+00  0.69668445871E-01  0.89159067847E+00  0.88000000000E+00 0. -1.
        -11    1    4    4    0    0 -0.20223471546E-02 -0.18903616803E-01 -0.66928589283E-02  0.20161649186E-01  0.51100000000E-03 0.  1.
         11    1    4    4    0    0  0.22744582482E-01 -0.86609915026E-01 -0.61962735161E-01  0.10889552370E+00  0.51100000000E-03 0. -1.
</event>
<event>
 8    1  0.1143957E+005  0.1043930E+01  0.7957747E-01            NaN
         13   -1    0    0    0    0  0.00000000000E+00  0.00000000000E+00  0.74505805969E-08  0.10566000000E+00  0.10566000000E+00 0. -1.
     999900   -1    0    0    0    0 -0.00000000000E+00 -0.00000000000E+00 -0.74505805969E-08  0.93827000000E+00  0.93827000000E+00 0. -1.
     999902    2    1    2    0    0  0.69151353149E-02  0.18925627939E-01 -0.11841620360E-01  0.10205585973E+01  0.10202909527E+01 0.  0.
     999903    2    3    3    0    0  0.59127592600E-01 -0.93172726455E-01  0.63080194237E-01  0.12875959530E+00  0.20559506658E-01 0.  0.
         14    1    1    2    0    0 -0.69151353149E-02 -0.18925627939E-01  0.11841620360E-01  0.23371402655E-01  0.00000000000E+00 0. -1.
     999901    1    3    3    0    0 -0.52212457285E-01  0.11209835439E+00 -0.74921814597E-01  0.89179900205E+00  0.88000000000E+00 0. -1.
        -11    1    4    4    0    0  0.32165775559E-01 -0.34218843693E-01  0.20827931920E-01  0.51377332064E-01  0.51100000000E-03 0.  1.
         11    1    4    4    0    0  0.26961817041E-01 -0.58953882762E-01  0.42252262317E-01  0.77382263231E-01  0.51100000000E-03 0. -1.
</event>
<event>
 7    1  0.1143957E+005  0.1043930E+01  0.7957747E-01            NaN
         13   -1    0    0    0    0  0.00000000000E+00  0.00000000000E+00  0.74505805969E-08  0.10566000000E+00  0.10566000000E+00 0. -1.
     999900   -1    0    0    0    0 -0.00000000000E+00 -0.00000000000E+00 -0.74505805969E-08  0.93827000000E+00  0.93827000000E+00 0. -1.
     999902    2    1    2    0    0 -0.12994414723E-01 -0.33231568284E-02  0.19543222956E-01  0.10202269253E+01  0.10199515397E+01 0.  0.
         14    1    1    2    0    0  0.12994414723E-01  0.33231568284E-02 -0.19543222956E-01  0.23703074670E-01  0.00000000000E+00 0.  1.
     999901    1    3    3    0    0 -0.13559413455E+00 -0.23235654272E-01  0.96618455004E-02  0.89074071211E+00  0.88000000000E+00 0. -1.
        -11    1    3    3    0    0  0.22429736356E-01  0.15993764062E-01 -0.54097189439E-02  0.28078813043E-01  0.51100000000E-03 0. -1.
         11    1    3    3    0    0  0.10016998347E+00  0.39187333819E-02  0.15291096399E-01  0.10140740018E+00  0.51100000000E-03 0.  1.
</event>
<event>
 8    1  0.1143957E+005  0.1043930E+01  0.7957747E-01            NaN
         13   -1    0    0    0    0  0.00000000000E+00  0.00000000000E+00  0.74505805969E-08  0.10566000000E+00  0.10566000000E+00 0.  1.
     999900   -1    0    0    0    0 -0.00000000000E+00 -0.00000000000E+00 -0.74505805969E-08  0.93827000000E+00  0.93827000000E+00 0.  1.
     999902    2    1    2    0    0  0.15656747589E-01  0.86662732031E-02  0.15910387705E-01  0.10199846774E+01  0.10197035666E+01 0.  0.
     999903    2    3    3    0    0  0.12639244209E+00 -0.11065876141E-01 -0.29079229706E-01  0.13168528115E+00  0.19947647410E-01 0.  0.
         14    1    1    2    0    0 -0.15656747589E-01 -0.86662732031E-02 -0.15910387705E-01  0.23945322575E-01  0.00000000000E+00 0. -1.
     999901    1    3    3    0    0 -0.11073569450E+00  0.19732149344E-01  0.44989617411E-01  0.88829939628E+00  0.88000000000E+00 0. -1.
        -11    1    4    4    0    0  0.60596035036E-01 -0.92287633690E-02 -0.23419156155E-01  0.65618347522E-01  0.51100000000E-03 0. -1.
         11    1    4    4    0    0  0.65796407057E-01 -0.18371127721E-02 -0.56600735503E-02  0.66066933624E-01  0.51100000000E-03 0.  1.
</event>
<event>
 8    1  0.1143957E+005  0.1043930E+01  0.7957747E-01            NaN
         13   -1    0    0    0    0  0.00000000000E+00  0.00000000000E+00  0.74505805969E-08  0.10566000000E+00  0.10566000000E+00 0.  1.
     999900   -1    0    0    0    0 -0.00000000000E+00 -0.00000000000E+00 -0.74505805969E-08  0.93827000000E+00  0.93827000000E+00 0.  1.
     999902    2    1    2    0    0 -0.13975450172E-01  0.84849556589E-02  0.17200161576E-01  0.10201991501E+01  0.10199231111E+01 0.  0.
     999903    2    3    3    0    0  0.10603385986E+00  0.69815404364E-01  0.19736199821E-01  0.12993509378E+00  0.19396929904E-01 0.  0.
         14    1    1    2    0    0  0.13975450172E-01 -0.84849556589E-02 -0.17200161576E-01  0.23730849928E-01  0.00000000000E+00 0. -1.
     999901    1    3    3    0    0 -0.12000931003E+00 -0.61330448705E-01 -0.25360382448E-02  0.89026405629E+00  0.88000000000E+00 0.  1.
        -11    1    4    4    0    0  0.71632773935E-01  0.57589477745E-01  0.13839883469E-01  0.92949479525E-01  0.51100000000E-03 0.  1.
         11    1    4    4    0    0  0.34401085924E-01  0.12225926619E-01  0.58963163516E-02  0.36985614257E-01  0.51100000000E-03 0. -1.
</event>
<event>
 8    1  0.1143957E+005  0.1043930E+01  0.7957747E-01            NaN
         13   -1    0    0    0    0  0.00000000000E+00  0.00000000000E+00  0.74505805969E-08  0.10566000000E+00  0.10566000000E+00 0.  1.
     999900   -1    0    0    0    0 -0.00000000000E+00 -0.00000000000E+00 -0.74505805969E-08  0.93827000000E+00  0.93827000000E+00 0.  1.
     999902    2    1    2    0    0  0.31323428543E-02 -0.22149912504E-01 -0.11076494155E-01  0.10189676500E+01  0.10186618442E+01 0.  0.
     999903    2    3    3    0    0  0.31025118406E-02  0.10972945169E+00  0.59029178528E-01  0.12638321536E+00  0.20930720437E-01 0.  0.
         14    1    1    2    0    0 -0.31323428543E-02  0.22149912504E-01  0.11076494155E-01  0.24962350019E-01  0.00000000000E+00 0.  1.
     999901    1    3    3    0    0  0.29831013698E-04 -0.13187936420E+00 -0.70105672683E-01  0.89258443462E+00  0.88000000000E+00 0. -1.
        -11    1    4    4    0    0  0.10406808986E-01  0.78631832781E-01  0.36651925300E-01  0.87377866471E-01  0.51100000000E-03 0.  1.
         11    1    4    4    0    0 -0.73042971459E-02  0.31097618911E-01  0.22377253228E-01  0.39005348886E-01  0.51100000000E-03 0. -1.
</event>
<event>
 8    1  0.1143957E+005  0.1043930E+01  0.7957747E-01            NaN
         13   -1    0    0    0    0  0.00000000000E+00  0.00000000000E+00  0.74505805969E-08  0.10566000000E+00  0.10566000000E+00 0. -1.
     999900   -1    0    0    0    0 -0.00000000000E+00 -0.00000000000E+00 -0.74505805969E-08  0.93827000000E+00  0.93827000000E+00 0.  1.
     999902    2    1    2    0    0  0.49723673521E-02  0.14196914979E-01 -0.18883265518E-01  0.10197876192E+01  0.10195018067E+01 0.  0.
     999903    2    3    3    0    0 -0.12345663467E+00  0.34921604700E-01 -0.47848298963E-02  0.13011223619E+00  0.21100717749E-01 0.  0.
         14    1    1    2    0    0 -0.49723673521E-02 -0.14196914979E-01  0.18883265518E-01  0.24142380757E-01  0.00000000000E+00 0. -1.
     999901    1    3    3    0    0  0.12842900202E+00 -0.20724689721E-01 -0.14098435622E-01  0.88967538305E+00  0.88000000000E+00 0.  1.
        -11    1    4    4    0    0 -0.47558740714E-01  0.19155652765E-01 -0.10658682017E-01  0.52370234624E-01  0.51100000000E-03 0. -1.
         11    1    4    4    0    0 -0.75897893958E-01  0.15765951936E-01  0.58738521209E-02  0.77742001565E-01  0.51100000000E-03 0.  1.
</event>
<event>
 8    1  0.1143957E+005  0.1043930E+01  0.7957747E-01            NaN
         13   -1    0    0    0    0  0.00000000000E+00  0.00000000000E+00  0.74505805969E-08  0.10566000000E+00  0.10566000000E+00 0.  1.
     999900   -1    0    0    0    0 -0.00000000000E+00 -0.00000000000E+00 -0.74505805969E-08  0.93827000000E+00  0.93827000000E+00 0. -1.
     999902    2    1    2    0    0  0.12426575672E-01 -0.18537850232E-01  0.76608502415E-02  0.10203342313E+01  0.10200613625E+01 0.  0.
     999903    2    3    3    0    0 -0.10654771906E+00  0.24574087078E-01 -0.64502159814E-01  0.12835832245E+00  0.18948037591E-01 0.  0.
         14    1    1    2    0    0 -0.12426575672E-01  0.18537850232E-01 -0.76608502415E-02  0.23595768701E-01  0.00000000000E+00 0. -1.
     999901    1    3    3    0    0  0.11897429473E+00 -0.43111937310E-01  0.72163010055E-01  0.89197590885E+00  0.88000000000E+00 0.  1.
        -11    1    4    4    0    0 -0.48773768729E-01  0.18160702840E-01 -0.22835228757E-01  0.56836611766E-01  0.51100000000E-03 0.  1.
         11    1    4    4    0    0 -0.57773950333E-01  0.64133842376E-02 -0.41666931057E-01  0.71521710684E-01  0.51100000000E-03 0. -1.
</event>
<event>
 8    1  0.1143957E+005  0.1043930E+01  0.7957747E-01            NaN
         13   -1    0    0    0    0  0.00000000000E+00  0.00000000000E+00  0.74505805969E-08  0.10566000000E+00  0.10566000000E+00 0. -1.
     999900   -1    0    0    0    0 -0.00000000000E+00 -0.00000000000E+00 -0.74505805969E-08  0.93827000000E+00  0.93827000000E+00 0. -1.
     999902    2    1    2    0    0 -0.21109921028E-01 -0.10171374224E-03 -0.10250954242E-01  0.10204625507E+01  0.10201926761E+01 0.  0.
     999903    2    3    3    0    0  0.48322912136E-01 -0.49388907875E-02  0.11748951832E+00  0.12851975834E+00  0.18816080621E-01 0.  0.
         14    1    1    2    0    0  0.21109921028E-01  0.10171374224E-03  0.10250954242E-01  0.23467449251E-01  0.00000000000E+00 0. -1.
     999901    1    3    3    0    0 -0.69432833164E-01  0.48371770453E-02 -0.12774047256E+00  0.89194279241E+00  0.88000000000E+00 0. -1.
        -11    1    4    4    0    0  0.38772550161E-01  0.40241144269E-02  0.87880495823E-01  0.96139205375E-01  0.51100000000E-03 0. -1.
         11    1    4    4    0    0  0.95503619755E-02 -0.89630052144E-02  0.29609022492E-01  0.32380552964E-01  0.51100000000E-03 0.  1.
</event>
<event>
 8    1  0.1143957E+005  0.1043930E+01  0.7957747E-01            NaN
         13   -1    0    0    0    0  0.00000000000E+00  0.00000000000E+00  0.74505805969E-08  0.10566000000E+00  0.10566000000E+00 0.  1.
     999900   -1    0    0    0    0 -0.00000000000E+00 -0.00000000000E+00 -0.74505805969E-08  0.93827000000E+00  0.93827000000E+00 0.  1.
     999902    2    1    2    0    0 -0.17135371536E-01 -0.96467156730E-02 -0.13062015131E-01  0.10203228756E+01  0.10200497411E+01 0.  0.
     999903    2    3    3    0    0 -0.10512504868E+00  0.58858892485E-01 -0.51618069430E-01  0.13244801343E+00  0.19036966294E-01 0.  0.
         14    1    1    2    0    0  0.17135371536E-01  0.96467156730E-02  0.13062015131E-01  0.23607124353E-01  0.00000000000E+00 0.  1.
     999901    1    3    3    0    0  0.87989677143E-01 -0.68505608158E-01  0.38556054299E-01  0.88787486222E+00  0.88000000000E+00 0. -1.
        -11    1    4    4    0    0 -0.90133539502E-01  0.51325520810E-01 -0.36802820137E-01  0.11005940542E+00  0.51100000000E-03 0. -1.
         11    1    4    4    0    0 -0.14991509177E-01  0.75333716752E-02 -0.14815249293E-01  0.22388608014E-01  0.51100000000E-03 0.  1.
</event>
<event>
 8    1  0.1143957E+005  0.1043930E+01  0.7957747E-01            NaN
         13   -1    0    0    0    0  0.00000000000E+00  0.00000000000E+00  0.74505805969E-08  0.10566000000E+00  0.10566000000E+00 0.  1.
     999900   -1    0    0    0    0 -0.00000000000E+00 -0.00000000000E+00 -0.74505805969E-08  0.93827000000E+00  0.93827000000E+00 0. -1.
     999902    2    1    2    0    0  0.25959595344E-01  0.25744892316E-02  0.29739758894E-02  0.10176740841E+01  0.10173353274E+01 0.  0.
     999903    2    3    3    0    0  0.70165703786E-01  0.75294206514E-01  0.77702097560E-01  0.13041615688E+00  0.19450308187E-01 0.  0.
         14    1    1    2    0    0 -0.25959595344E-01 -0.25744892316E-02 -0.29739758894E-02  0.26255915863E-01  0.00000000000E+00 0. -1.
     999901    1    3    3    0    0 -0.44206108442E-01 -0.72719717283E-01 -0.74728121671E-01  0.88725792725E+00  0.88000000000E+00 0. -1.
        -11    1    4    4    0    0  0.65666346424E-01  0.74416191741E-01  0.70040955670E-01  0.12147359893E+00  0.51100000000E-03 0. -1.
         11    1    4    4    0    0  0.44993573618E-02  0.87801477371E-03  0.76611418900E-02  0.89425579490E-02  0.51100000000E-03 0.  1.
</event>
<event>
 8    1  0.1143957E+005  0.1043930E+01  0.7957747E-01            NaN
         13   -1    0    0    0    0  0.00000000000E+00  0.00000000000E+00  0.74505805969E-08  0.10566000000E+00  0.10566000000E+00 0.  1.
     999900   -1    0    0    0    0 -0.00000000000E+00 -0.00000000000E+00 -0.74505805969E-08  0.93827000000E+00  0.93827000000E+00 0.  1.
     999902    2    1    2    0    0  0.12632176339E-01 -0.17520335163E-01  0.65453656262E-02  0.10213606439E+01  0.10211112521E+01 0.  0.
     999903    2    3    3    0    0  0.13143111336E+00 -0.78661523943E-02 -0.40599721732E-02  0.13326218998E+00  0.20157231707E-01 0.  0.
         14    1    1    2    0    0 -0.12632176339E-01  0.17520335163E-01 -0.65453656262E-02  0.22569356093E-01  0.00000000000E+00 0. -1.
     999901    1    3    3    0    0 -0.11879893702E+00 -0.96541827684E-02  0.10605337799E-01  0.88809845393E+00  0.88000000000E+00 0. -1.
        -11    1    4    4    0    0  0.10547397943E+00 -0.13784333730E-01 -0.61674033929E-02  0.10655076808E+00  0.51100000000E-03 0. -1.
         11    1    4    4    0    0  0.25957133936E-01  0.59181813354E-02  0.21074312197E-02  0.26711421899E-01  0.51100000000E-03 0.  1.
</event>
<event>
 8    1  0.1143957E+005  0.1043930E+01  0.7957747E-01            NaN
         13   -1    0    0    0    0  0.00000000000E+00  0.00000000000E+00  0.74505805969E-08  0.10566000000E+00  0.10566000000E+00 0.  1.
     999900   -1    0    0    0    0 -0.00000000000E+00 -0.00000000000E+00 -0.74505805969E-08  0.93827000000E+00  0.93827000000E+00 0. -1.
     999902    2    1    2    0    0 -0.22074319069E-01  0.75122257661E-02  0.44943037974E-02  0.10201832557E+01  0.10199068425E+01 0.  0.
     999903    2    3    3    0    0 -0.19531414545E-02 -0.59016684542E-01  0.11466029247E+00  0.13059486619E+00  0.20524438814E-01 0.  0.
         14    1    1    2    0    0  0.22074319069E-01 -0.75122257661E-02 -0.44943037974E-02  0.23746744302E-01  0.00000000000E+00 0. -1.
     999901    1    3    3    0    0 -0.20121177615E-01  0.66528910308E-01 -0.11016598867E+00  0.88958838951E+00  0.88000000000E+00 0. -1.
        -11    1    4    4    0    0 -0.10646155272E-01 -0.25282535059E-01  0.56207439826E-01  0.62546659494E-01  0.51100000000E-03 0.  1.
         11    1    4    4    0    0  0.86930138174E-02 -0.33734149483E-01  0.58452852645E-01  0.68048206691E-01  0.51100000000E-03 0. -1.
</event>
<event>
 8    1  0.1143957E+005  0.1043930E+01  0.7957747E-01            NaN
         13   -1    0    0    0    0  0.00000000000E+00  0.00000000000E+00  0.74505805969E-08  0.10566000000E+00  0.10566000000E+00 0.  1.
     999900   -1    0    0    0    0 -0.00000000000E+00 -0.00000000000E+00 -0.74505805969E-08  0.93827000000E+00  0.93827000000E+00 0.  1.
     999902    2    1    2    0    0  0.12510048864E-01  0.12333492539E-01 -0.17260931139E-01  0.10193016402E+01  0.10190040617E+01 0.  0.
     999903    2    3    3    0    0 -0.75234544595E-01  0.97251163193E-01  0.34458072369E-01  0.12936626068E+00  0.20742352983E-01 0.  0.
         14    1    1    2    0    0 -0.12510048864E-01 -0.12333492539E-01  0.17260931139E-01  0.24628359762E-01  0.00000000000E+00 0.  1.
     999901    1    3    3    0    0  0.87744593459E-01 -0.84917670654E-01 -0.51719003508E-01  0.88993537956E+00  0.88000000000E+00 0. -1.
        -11    1    4    4    0    0 -0.34643928349E-01  0.34058759918E-01  0.21584501658E-01  0.53163452968E-01  0.51100000000E-03 0. -1.
         11    1    4    4    0    0 -0.40590616245E-01  0.63192403275E-01  0.12873570711E-01  0.76202807709E-01  0.51100000000E-03 0.  1.
</event>
<event>
 8    1  0.1143957E+005  0.1043930E+01  0.7957747E-01            NaN
         13   -1    0    0    0    0  0.00000000000E+00  0.00000000000E+00  0.74505805969E-08  0.10566000000E+00  0.10566000000E+00 0.  1.
     999900   -1    0    0    0    0 -0.00000000000E+00 -0.00000000000E+00 -0.74505805969E-08  0.93827000000E+00  0.93827000000E+00 0. -1.
     999902    2    1    2    0    0 -0.16396176690E-01 -0.12181879400E-01 -0.16014766158E-01  0.10179741619E+01  0.10176432031E+01 0.  0.
     999903    2    3    3    0    0  0.12269497406E+00 -0.33592907962E-02 -0.25442936656E-01  0.12695616171E+00  0.20129144911E-01 0.  0.
         14    1    1    2    0    0  0.16396176690E-01  0.12181879400E-01  0.16014766158E-01  0.25955838088E-01  0.00000000000E+00 0.  1.
     999901    1    3    3    0    0 -0.13909115075E+00 -0.88225886036E-02  0.94281704981E-02  0.89101800020E+00  0.88000000000E+00 0. -1.
        -11    1    4    4    0    0  0.86532084287E-01  0.67190024494E-02 -0.16241705914E-01  0.88300627047E-01  0.51100000000E-03 0. -1.
         11    1    4    4    0    0  0.36162889777E-01 -0.10078293246E-01 -0.92012307416E-02  0.38655534661E-01  0.51100000000E-03 0.  1.
</event>
<event>
 8    1  0.1143957E+005  0.1043930E+01  0.7957747E-01            NaN
         13   -1    0    0    0    0  0.00000000000E+00  0.00000000000E+00  0.74505805969E-08  0.10566000000E+00  0.10566000000E+00 0.  1.
     999900   -1    0    0    0    0 -0.00000000000E+00 -0.00000000000E+00 -0.74505805969E-08  0.93827000000E+00  0.93827000000E+00 0.  1.
     999902    2    1    2    0    0 -0.12683312900E-01  0.16837278950E-01 -0.10593827328E-01  0.10203378495E+01  0.10200650653E+01 0.  0.
     999903    2    3    3    0    0 -0.10809790411E+00  0.74288560996E-01 -0.12961038786E-01  0.13331462672E+00  0.20021338741E-01 0.  0.
         14    1    1    2    0    0  0.12683312900E-01 -0.16837278950E-01  0.10593827328E-01  0.23592150516E-01  0.00000000000E+00 0. -1.
     999901    1    3    3    0    0  0.95414591208E-01 -0.57451282046E-01  0.23672114580E-02  0.88702322276E+00  0.88000000000E+00 0.  1.
        -11    1    4    4    0    0 -0.33054333912E-01  0.26264463834E-01  0.47081495051E-02  0.42483394916E-01  0.51100000000E-03 0.  1.
         11    1    4    4    0    0 -0.75043570195E-01  0.48024097162E-01 -0.17669188291E-01  0.90831231808E-01  0.51100000000E-03 0. -1.
</event>
<event>
 8    1  0.1143957E+005  0.1043930E+01  0.7957747E-01            NaN
         13   -1    0    0    0    0  0.00000000000E+00  0.00000000000E+00  0.74505805969E-08  0.10566000000E+00  0.10566000000E+00 0. -1.
     999900   -1    0    0    0    0 -0.00000000000E+00 -0.00000000000E+00 -0.74505805969E-08  0.93827000000E+00  0.93827000000E+00 0. -1.
     999902    2    1    2    0    0  0.11702989650E-01  0.17760593380E-01 -0.99287998400E-02  0.10204570430E+01  0.10201870402E+01 0.  0.
     999903    2    3    3    0    0  0.48805181763E-01  0.68994375545E-01  0.98801067056E-01  0.13151179325E+00  0.19787149611E-01 0.  0.
         14    1    1    2    0    0 -0.11702989650E-01 -0.17760593380E-01  0.99287998400E-02  0.23472956998E-01  0.00000000000E+00 0. -1.
     999901    1    3    3    0    0 -0.37102192113E-01 -0.51233782165E-01 -0.10872986690E+00  0.88894524975E+00  0.88000000000E+00 0. -1.
        -11    1    4    4    0    0  0.15935247467E-01  0.93601228166E-02  0.25021591099E-01  0.31110852658E-01  0.51100000000E-03 0. -1.
         11    1    4    4    0    0  0.32869934296E-01  0.59634252729E-01  0.73779475957E-01  0.10040094060E+00  0.51100000000E-03 0.  1.
</event>
<event>
 8    1  0.1143957E+005  0.1043930E+01  0.7957747E-01            NaN
         13   -1    0    0    0    0  0.00000000000E+00  0.00000000000E+00  0.74505805969E-08  0.10566000000E+00  0.10566000000E+00 0.  1.
     999900   -1    0    0    0    0 -0.00000000000E+00 -0.00000000000E+00 -0.74505805969E-08  0.93827000000E+00  0.93827000000E+00 0. -1.
     999902    2    1    2    0    0  0.22031715608E-01 -0.78958372759E-02  0.39205666920E-02  0.10202000278E+01  0.10199240095E+01 0.  0.
     999903    2    3    3    0    0  0.11295744007E+00  0.95388520772E-02 -0.65583794612E-01  0.13261774313E+00  0.20877229482E-01 0.  0.
         14    1    1    2    0    0 -0.22031715608E-01  0.78958372759E-02 -0.39205666920E-02  0.23729972231E-01  0.00000000000E+00 0. -1.
     999901    1    3    3    0    0 -0.90925724465E-01 -0.17434689353E-01  0.69504361304E-01  0.88758228464E+00  0.88000000000E+00 0. -1.
        -11    1    4    4    0    0  0.23238478470E-01 -0.61022777616E-02 -0.16591853260E-01  0.29203003117E-01  0.51100000000E-03 0.  1.
         11    1    4    4    0    0  0.89718961603E-01  0.15641129839E-01 -0.48991941352E-01  0.10341474001E+00  0.51100000000E-03 0. -1.
</event>
<event>
 8    1  0.1143957E+005  0.1043930E+01  0.7957747E-01            NaN
         13   -1    0    0    0    0  0.00000000000E+00  0.00000000000E+00  0.74505805969E-08  0.10566000000E+00  0.10566000000E+00 0. -1.
     999900   -1    0    0    0    0 -0.00000000000E+00 -0.00000000000E+00 -0.74505805969E-08  0.93827000000E+00  0.93827000000E+00 0. -1.
     999902    2    1    2    0    0 -0.43852441191E-02 -0.65177688865E-02 -0.23003033593E-01  0.10196225684E+01  0.10193327870E+01 0.  0.
     999903    2    3    3    0    0 -0.50594862671E-01  0.14831696649E-02  0.11537164563E+00  0.12757610339E+00  0.20074999828E-01 0.  0.
         14    1    1    2    0    0  0.43852441191E-02  0.65177688865E-02  0.23003033593E-01  0.24307431615E-01  0.00000000000E+00 0. -1.
     999901    1    3    3    0    0  0.46209618551E-01 -0.80009385513E-02 -0.13837467923E+00  0.89204646500E+00  0.88000000000E+00 0. -1.
        -11    1    4    4    0    0 -0.36854510755E-01 -0.79972523584E-02  0.77819382172E-01  0.86477328652E-01  0.51100000000E-03 0.  1.
         11    1    4    4    0    0 -0.13740351916E-01  0.94804220233E-02  0.37552263463E-01  0.41098774734E-01  0.51100000000E-03 0. -1.
</event>
<event>
 8    1  0.1143957E+005  0.1043930E+01  0.7957747E-01            NaN
         13   -1    0    0    0    0  0.00000000000E+00  0.00000000000E+00  0.74505805969E-08  0.10566000000E+00  0.10566000000E+00 0.  1.
     999900   -1    0    0    0    0 -0.00000000000E+00 -0.00000000000E+00 -0.74505805969E-08  0.93827000000E+00  0.93827000000E+00 0.  1.
     999902    2    1    2    0    0 -0.18718310549E-01 -0.38310700595E-02  0.13116541407E-01  0.10207546703E+01  0.10204915487E+01 0.  0.
     999903    2    3    3    0    0  0.12185324692E+00 -0.20383366020E-01  0.34414637619E-01  0.12918978194E+00  0.15554326718E-01 0.  0.
         14    1    1    2    0    0  0.18718310549E-01  0.38310700595E-02 -0.13116541407E-01  0.23175329687E-01  0.00000000000E+00 0. -1.
     999901    1    3    3    0    0 -0.14057155747E+00  0.16552295960E-01 -0.21298096212E-01  0.89156488837E+00  0.88000000000E+00 0. -1.
        -11    1    4    4    0    0  0.26568959927E-01 -0.10163729051E-01  0.11272679032E-01  0.30603029807E-01  0.51100000000E-03 0.  1.
         11    1    4    4    0    0  0.95284286997E-01 -0.10219636969E-01  0.23141958587E-01  0.98586752135E-01  0.51100000000E-03 0. -1.
</event>
<event>
 8    1  0.1143957E+005  0.1043930E+01  0.7957747E-01            NaN
         13   -1    0    0    0    0  0.00000000000E+00  0.00000000000E+00  0.74505805969E-08  0.10566000000E+00  0.10566000000E+00 0. -1.
     999900   -1    0    0    0    0 -0.00000000000E+00 -0.00000000000E+00 -0.74505805969E-08  0.93827000000E+00  0.93827000000E+00 0. -1.
     999902    2    1    2    0    0  0.19311738396E-01  0.12274673283E-01  0.45470036703E-02  0.10206000603E+01  0.10203333754E+01 0.  0.
     999903    2    3    3    0    0  0.75237637225E-04  0.11715316831E-01  0.12949737215E+00  0.13156521822E+00  0.20064469637E-01 0.  0.
         14    1    1    2    0    0 -0.19311738396E-01 -0.12274673283E-01 -0.45470036703E-02  0.23329939701E-01  0.00000000000E+00 0. -1.
     999901    1    3    3    0    0  0.19236500758E-01  0.55935645202E-03 -0.12495036848E+00  0.88903484208E+00  0.88000000000E+00 0. -1.
        -11    1    4    4    0    0 -0.95509828686E-02  0.42127676978E-02  0.74365223090E-01  0.75096046578E-01  0.51100000000E-03 0.  1.
         11    1    4    4    0    0  0.96262205058E-02  0.75025491334E-02  0.55132149065E-01  0.56469171645E-01  0.51100000000E-03 0. -1.
</event>
<event>
 8    1  0.1143957E+005  0.1043930E+01  0.7957747E-01            NaN
         13   -1    0    0    0    0  0.00000000000E+00  0.00000000000E+00  0.74505805969E-08  0.10566000000E+00  0.10566000000E+00 0. -1.
     999900   -1    0    0    0    0 -0.00000000000E+00 -0.00000000000E+00 -0.74505805969E-08  0.93827000000E+00  0.93827000000E+00 0. -1.
     999902    2    1    2    0    0 -0.18968136403E-01 -0.23222113004E-02 -0.14358124032E-01  0.10200273100E+01  0.10197472111E+01 0.  0.
     999903    2    3    3    0    0  0.67864905843E-01  0.99052660904E-01 -0.44361296310E-01  0.12945612682E+00  0.19336211750E-01 0.  0.
         14    1    1    2    0    0  0.18968136403E-01  0.23222113004E-02  0.14358124032E-01  0.23902690009E-01  0.00000000000E+00 0. -1.
     999901    1    3    3    0    0 -0.86833042246E-01 -0.10137487220E+00  0.30003172278E-01  0.89057118317E+00  0.88000000000E+00 0.  1.
        -11    1    4    4    0    0  0.11576740221E-01  0.11265844549E-01 -0.84575885239E-04  0.16161944240E-01  0.51100000000E-03 0.  1.
         11    1    4    4    0    0  0.56288165622E-01  0.87786816355E-01 -0.44276720425E-01  0.11329418258E+00  0.51100000000E-03 0. -1.
</event>
<event>
 8    1  0.1143957E+005  0.1043930E+01  0.7957747E-01            NaN
         13   -1    0    0    0    0  0.00000000000E+00  0.00000000000E+00  0.74505805969E-08  0.10566000000E+00  0.10566000000E+00 0. -1.
     999900   -1    0    0    0    0 -0.00000000000E+00 -0.00000000000E+00 -0.74505805969E-08  0.93827000000E+00  0.93827000000E+00 0.  1.
     999902    2    1    2    0    0 -0.13930717151E-01 -0.16648588871E-01  0.14616308477E-01  0.10177598478E+01  0.10174233293E+01 0.  0.
     999903    2    3    3    0    0 -0.45591637082E-01  0.26477809475E-01 -0.11337463034E+00  0.12689286532E+00  0.21640718529E-01 0.  0.
         14    1    1    2    0    0  0.13930717151E-01  0.16648588871E-01 -0.14616308477E-01  0.26170152182E-01  0.00000000000E+00 0. -1.
     999901    1    3    3    0    0  0.31660919931E-01 -0.43126398346E-01  0.12799093882E+00  0.89086698250E+00  0.88000000000E+00 0. -1.
        -11    1    4    4    0    0 -0.37221100100E-01  0.20008971165E-01 -0.66167423250E-01  0.78512153456E-01  0.51100000000E-03 0.  1.
         11    1    4    4    0    0 -0.83705369827E-02  0.64688383100E-02 -0.47207207088E-01  0.48380711865E-01  0.51100000000E-03 0. -1.
</event>
<event>
 8    1  0.1143957E+005  0.1043930E+01  0.7957747E-01            NaN
         13   -1    0    0    0    0  0.00000000000E+00  0.00000000000E+00  0.74505805969E-08  0.10566000000E+00  0.10566000000E+00 0. -1.
     999900   -1    0    0    0    0 -0.00000000000E+00 -0.00000000000E+00 -0.74505805969E-08  0.93827000000E+00  0.93827000000E+00 0.  1.
     999902    2    1    2    0    0 -0.19414309151E-01 -0.13705406345E-01  0.59608086435E-02  0.10194292898E+01  0.10191348252E+01 0.  0.
     999903    2    3    3    0    0 -0.52298097482E-01 -0.53303696648E-02  0.11886390352E+00  0.13156747978E+00  0.20441876994E-01 0.  0.
         14    1    1    2    0    0  0.19414309151E-01  0.13705406345E-01 -0.59608086435E-02  0.24500710247E-01  0.00000000000E+00 0.  1.
     999901    1    3    3    0    0  0.32883788331E-01 -0.83750366805E-02 -0.11290309488E+00  0.88786180997E+00  0.88000000000E+00 0.  1.
        -11    1    4    4    0    0 -0.13724591545E-01  0.12930768682E-02  0.54653752260E-01  0.56367811896E-01  0.51100000000E-03 0.  1.
         11    1    4    4    0    0 -0.38573505937E-01 -0.66234465330E-02  0.64210151260E-01  0.75199667886E-01  0.51100000000E-03 0. -1.
</event>
<event>
 8    1  0.1143957E+005  0.1043930E+01  0.7957747E-01            NaN
         13   -1    0    0    0    0  0.00000000000E+00  0.00000000000E+00  0.74505805969E-08  0.10566000000E+00  0.10566000000E+00 0. -1.
     999900   -1    0    0    0    0 -0.00000000000E+00 -0.00000000000E+00 -0.74505805969E-08  0.93827000000E+00  0.93827000000E+00 0.  1.
     999902    2    1    2    0    0  0.13365141424E-01  0.20198372837E-01  0.34510755951E-02  0.10194655116E+01  0.10191719277E+01 0.  0.
     999903    2    3    3    0    0 -0.44155869024E-01 -0.80312453463E-01 -0.85748787182E-01  0.12740738099E+00  0.21907881617E-01 0.  0.
         14    1    1    2    0    0 -0.13365141424E-01 -0.20198372837E-01 -0.34510755951E-02  0.24464488413E-01  0.00000000000E+00 0.  1.
     999901    1    3    3    0    0  0.57521010448E-01  0.10051082630E+00  0.89199862777E-01  0.89205813060E+00  0.88000000000E+00 0. -1.
        -11    1    4    4    0    0 -0.10693622155E-01 -0.41088172123E-01 -0.34495190125E-01  0.54706221821E-01  0.51100000000E-03 0. -1.
         11    1    4    4    0    0 -0.33462246868E-01 -0.39224281340E-01 -0.51253597057E-01  0.72701159168E-01  0.51100000000E-03 0.  1.
</event>
<event>
 8    1  0.1143957E+005  0.1043930E+01  0.7957747E-01            NaN
         13   -1    0    0    0    0  0.00000000000E+00  0.00000000000E+00  0.74505805969E-08  0.10566000000E+00  0.10566000000E+00 0.  1.
     999900   -1    0    0    0    0 -0.00000000000E+00 -0.00000000000E+00 -0.74505805969E-08  0.93827000000E+00  0.93827000000E+00 0. -1.
     999902    2    1    2    0    0 -0.15763829406E-01  0.16703701625E-02 -0.11417588605E-01  0.10243941411E+01  0.10242078434E+01 0.  0.
     999903    2    3    3    0    0 -0.86090693878E-01 -0.27135027193E-01 -0.10052779896E+00  0.13663502490E+00  0.20380735813E-01 0.  0.
         14    1    1    2    0    0  0.15763829406E-01 -0.16703701625E-02  0.11417588605E-01  0.19535858916E-01  0.00000000000E+00 0.  1.
     999901    1    3    3    0    0  0.70326864472E-01  0.28805397356E-01  0.89110210352E-01  0.88775911619E+00  0.88000000000E+00 0.  1.
        -11    1    4    4    0    0 -0.14755632557E-01 -0.76093152387E-02 -0.30771286833E-01  0.34968036618E-01  0.51100000000E-03 0. -1.
         11    1    4    4    0    0 -0.71335061322E-01 -0.19525711954E-01 -0.69756512125E-01  0.10166698828E+00  0.51100000000E-03 0.  1.
</event>
<event>
 8    1  0.1143957E+005  0.1043930E+01  0.7957747E-01            NaN
         13   -1    0    0    0    0  0.00000000000E+00  0.00000000000E+00  0.74505805969E-08  0.10566000000E+00  0.10566000000E+00 0. -1.
     999900   -1    0    0    0    0 -0.00000000000E+00 -0.00000000000E+00 -0.74505805969E-08  0.93827000000E+00  0.93827000000E+00 0. -1.
     999902    2    1    2    0    0 -0.22615373244E-01 -0.59391905239E-02 -0.30292249028E-02  0.10203523560E+01  0.10200799112E+01 0.  0.
     999903    2    3    3    0    0  0.11276994668E+00 -0.30599862707E-01 -0.49670531940E-01  0.12843714420E+00  0.19378487930E-01 0.  0.
         14    1    1    2    0    0  0.22615373244E-01  0.59391905239E-02  0.30292249028E-02  0.23577643957E-01  0.00000000000E+00 0.  1.
     999901    1    3    3    0    0 -0.13538531992E+00  0.24660672183E-01  0.46641307037E-01  0.89191521185E+00  0.88000000000E+00 0.  1.
        -11    1    4    4    0    0  0.11017103823E+00 -0.27083750907E-01 -0.50084248992E-01  0.12401564557E+00  0.51100000000E-03 0.  1.
         11    1    4    4    0    0  0.25989084523E-02 -0.35161118000E-02  0.41371705283E-03  0.44214986297E-02  0.51100000000E-03 0. -1.
</event>
<event>
 8    1  0.1143957E+005  0.1043930E+01  0.7957747E-01            NaN
         13   -1    0    0    0    0  0.00000000000E+00  0.00000000000E+00  0.74505805969E-08  0.10566000000E+00  0.10566000000E+00 0. -1.
     999900   -1    0    0    0    0 -0.00000000000E+00 -0.00000000000E+00 -0.74505805969E-08  0.93827000000E+00  0.93827000000E+00 0. -1.
     999902    2    1    2    0    0  0.18873837407E-01  0.96163566064E-02  0.10078837712E-01  0.10204719732E+01  0.10202023177E+01 0.  0.
     999903    2    3    3    0    0  0.22056251729E-01 -0.12023351893E+00 -0.38526424494E-01  0.12961082269E+00  0.19289962637E-01 0.  0.
         14    1    1    2    0    0 -0.18873837407E-01 -0.96163566064E-02 -0.10078837712E-01  0.23458026824E-01  0.00000000000E+00 0. -1.
     999901    1    3    3    0    0 -0.31824143216E-02  0.12984987554E+00  0.48605262206E-01  0.89086115049E+00  0.88000000000E+00 0.  1.
        -11    1    4    4    0    0  0.16936078888E-01 -0.60713681810E-01 -0.27895756579E-01  0.68930517793E-01  0.51100000000E-03 0.  1.
         11    1    4    4    0    0  0.51201728408E-02 -0.59519837119E-01 -0.10630667915E-01  0.60680304893E-01  0.51100000000E-03 0. -1.
</event>
<event>
 8    1  0.1143957E+005  0.1043930E+01  0.7957747E-01            NaN
         13   -1    0    0    0    0  0.00000000000E+00  0.00000000000E+00  0.74505805969E-08  0.10566000000E+00  0.10566000000E+00 0. -1.
     999900   -1    0    0    0    0 -0.00000000000E+00 -0.00000000000E+00 -0.74505805969E-08  0.93827000000E+00  0.93827000000E+00 0. -1.
     999902    2    1    2    0    0 -0.65387485857E-02  0.18528861058E-01 -0.13723321245E-01  0.10199632841E+01  0.10196816648E+01 0.  0.
     999903    2    3    3    0    0 -0.14181447695E-02 -0.11261516250E+00  0.56648609160E-01  0.12745155639E+00  0.18725606741E-01 0.  0.
         14    1    1    2    0    0  0.65387485857E-02 -0.18528861058E-01  0.13723321245E-01  0.23966715903E-01  0.00000000000E+00 0. -1.
     999901    1    3    3    0    0 -0.51206038162E-02  0.13114402356E+00 -0.70371930405E-01  0.89251172770E+00  0.88000000000E+00 0.  1.
        -11    1    4    4    0    0 -0.82292316000E-02 -0.91488588359E-01  0.43397459919E-01  0.10159469819E+00  0.51100000000E-03 0.  1.
         11    1    4    4    0    0  0.68110868305E-02 -0.21126574141E-01  0.13251149241E-01  0.25856858200E-01  0.51100000000E-03 0. -1.
</event>
<event>
 8    1  0.1143957E+005  0.1043930E+01  0.7957747E-01            NaN
         13   -1    0    0    0    0  0.00000000000E+00  0.00000000000E+00  0.74505805969E-08  0.10566000000E+00  0.10566000000E+00 0.  1.
     999900   -1    0    0    0    0 -0.00000000000E+00 -0.00000000000E+00 -0.74505805969E-08  0.93827000000E+00  0.93827000000E+00 0.  1.
     999902    2    1    2    0    0  0.82267587230E-02 -0.17117096576E-01  0.13792466413E-01  0.10204585986E+01  0.10201886319E+01 0.  0.
     999903    2    3    3    0    0  0.12250159081E+00  0.37159622745E-01  0.22310261914E-01  0.13137072197E+00  0.19314282089E-01 0.  0.
         14    1    1    2    0    0 -0.82267587230E-02  0.17117096576E-01 -0.13792466413E-01  0.23471401408E-01  0.00000000000E+00 0.  1.
     999901    1    3    3    0    0 -0.11427483208E+00 -0.54276719322E-01 -0.85177955005E-02  0.88908787662E+00  0.88000000000E+00 0. -1.
        -11    1    4    4    0    0  0.88576275148E-01  0.22545010120E-01  0.23620712267E-01  0.94404624724E-01  0.51100000000E-03 0. -1.
         11    1    4    4    0    0  0.33925315659E-01  0.14614612625E-01 -0.13104503534E-02  0.36966097250E-01  0.51100000000E-03 0.  1.
</event>
<event>
 8    1  0.1143957E+005  0.1043930E+01  0.7957747E-01            NaN
         13   -1    0    0    0    0  0.00000000000E+00  0.00000000000E+00  0.74505805969E-08  0.10566000000E+00  0.10566000000E+00 0. -1.
     999900   -1    0    0    0    0 -0.00000000000E+00 -0.00000000000E+00 -0.74505805969E-08  0.93827000000E+00  0.93827000000E+00 0. -1.
     999902    2    1    2    0    0 -0.72771255012E-02 -0.23324266132E-01  0.60791869364E-02  0.10187519449E+01  0.10184407645E+01 0.  0.
     999903    2    3    3    0    0 -0.40023577773E-01  0.52894266447E-01  0.10922679708E+00  0.12885249869E+00  0.16516144099E-01 0.  0.
         14    1    1    2    0    0  0.72771255012E-02  0.23324266132E-01 -0.60791869364E-02  0.25178055127E-01  0.00000000000E+00 0. -1.
     999901    1    3    3    0    0  0.32746452272E-01 -0.76218532578E-01 -0.10314761015E+00  0.88989944619E+00  0.88000000000E+00 0. -1.
        -11    1    4    4    0    0 -0.38136483746E-01  0.44335642853E-01  0.85812415247E-01  0.10384638824E+00  0.51100000000E-03 0. -1.
         11    1    4    4    0    0 -0.18870940267E-02  0.85586235933E-02  0.23414381837E-01  0.25006110443E-01  0.51100000000E-03 0.  1.
</event>
<event>
 8    1  0.1143957E+005  0.1043930E+01  0.7957747E-01            NaN
         13   -1    0    0    0    0  0.00000000000E+00  0.00000000000E+00  0.74505805969E-08  0.10566000000E+00  0.10566000000E+00 0.  1.
     999900   -1    0    0    0    0 -0.00000000000E+00 -0.00000000000E+00 -0.74505805969E-08  0.93827000000E+00  0.93827000000E+00 0.  1.
     999902    2    1    2    0    0 -0.16067662544E-01  0.14694725900E-01  0.10371634839E-01  0.10198120490E+01  0.10195268215E+01 0.  0.
     999903    2    3    3    0    0  0.10343485698E+00  0.59541088442E-01  0.47203413923E-01  0.12984090999E+00  0.19661860770E-01 0.  0.
         14    1    1    2    0    0  0.16067662544E-01 -0.14694725900E-01 -0.10371634839E-01  0.24117950953E-01  0.00000000000E+00 0.  1.
     999901    1    3    3    0    0 -0.11950251953E+00 -0.44846362542E-01 -0.36831779084E-01  0.88997113906E+00  0.88000000000E+00 0.  1.
        -11    1    4    4    0    0  0.50121045955E-01  0.21955748037E-01  0.29877877868E-01  0.62346794836E-01  0.51100000000E-03 0.  1.
         11    1    4    4    0    0  0.53313811027E-01  0.37585340405E-01  0.17325536055E-01  0.67494115153E-01  0.51100000000E-03 0. -1.
</event>
<event>
 8    1  0.1143957E+005  0.1043930E+01  0.7957747E-01            NaN
         13   -1    0    0    0    0  0.00000000000E+00  0.00000000000E+00  0.74505805969E-08  0.10566000000E+00  0.10566000000E+00 0.  1.
     999900   -1    0    0    0    0 -0.00000000000E+00 -0.00000000000E+00 -0.74505805969E-08  0.93827000000E+00  0.93827000000E+00 0.  1.
     999902    2    1    2    0    0  0.14444555668E-01  0.92435903778E-02 -0.11942841586E-01  0.10230321385E+01  0.10228186720E+01 0.  0.
     999903    2    3    3    0    0 -0.49820579765E-01  0.87642148139E-01  0.83302016026E-01  0.13210681927E+00  0.18701591484E-01 0.  0.
         14    1    1    2    0    0 -0.14444555668E-01 -0.92435903778E-02  0.11942841586E-01  0.20897861533E-01  0.00000000000E+00 0.  1.
     999901    1    3    3    0    0  0.64265135433E-01 -0.78398557762E-01 -0.95244857612E-01  0.89092531920E+00  0.88000000000E+00 0.  1.
        -11    1    4    4    0    0 -0.29294695209E-01  0.65385320186E-01  0.51816724854E-01  0.88423149451E-01  0.51100000000E-03 0.  1.
         11    1    4    4    0    0 -0.20525884556E-01  0.22256827953E-01  0.31485291171E-01  0.43683669815E-01  0.51100000000E-03 0. -1.
</event>
<event>
 8    1  0.1143957E+005  0.1043930E+01  0.7957747E-01            NaN
         13   -1    0    0    0    0  0.00000000000E+00  0.00000000000E+00  0.74505805969E-08  0.10566000000E+00  0.10566000000E+00 0. -1.
     999900   -1    0    0    0    0 -0.00000000000E+00 -0.00000000000E+00 -0.74505805969E-08  0.93827000000E+00  0.93827000000E+00 0. -1.
     999902    2    1    2    0    0 -0.99024532606E-02  0.10829395723E-01 -0.19744964093E-01  0.10193292277E+01  0.10190323235E+01 0.  0.
     999903    2    3    3    0    0 -0.68362568858E-01 -0.10665322612E+00 -0.19572048544E-01  0.12959905427E+00  0.19091839131E-01 0.  0.
         14    1    1    2    0    0  0.99024532606E-02 -0.10829395723E-01  0.19744964093E-01  0.24600772332E-01  0.00000000000E+00 0. -1.
     999901    1    3    3    0    0  0.58460115598E-01  0.11748262184E+00 -0.17291554900E-03  0.88973017340E+00  0.88000000000E+00 0.  1.
        -11    1    4    4    0    0 -0.18836122092E-01 -0.43675731285E-01 -0.12408549025E-01  0.49158948409E-01  0.51100000000E-03 0.  1.
         11    1    4    4    0    0 -0.49526446767E-01 -0.62977494835E-01 -0.71634995189E-02  0.80440105864E-01  0.51100000000E-03 0. -1.
</event>
<event>
 8    1  0.1143957E+005  0.1043930E+01  0.7957747E-01            NaN
         13   -1    0    0    0    0  0.00000000000E+00  0.00000000000E+00  0.74505805969E-08  0.10566000000E+00  0.10566000000E+00 0.  1.
     999900   -1    0    0    0    0 -0.00000000000E+00 -0.00000000000E+00 -0.74505805969E-08  0.93827000000E+00  0.93827000000E+00 0.  1.
     999902    2    1    2    0    0 -0.33676105575E-02  0.23248394783E-01  0.71381777410E-02  0.10193783760E+01  0.10190826714E+01 0.  0.
     999903    2    3    3    0    0  0.72529223116E-02  0.12109074091E+00  0.50551041487E-01  0.13282854819E+00  0.19298782395E-01 0.  0.
         14    1    1    2    0    0  0.33676105575E-02 -0.23248394783E-01 -0.71381777410E-02  0.24551624026E-01  0.00000000000E+00 0.  1.
     999901    1    3    3    0    0 -0.10620532869E-01 -0.97842346125E-01 -0.43412863746E-01  0.88654982779E+00  0.88000000000E+00 0. -1.
        -11    1    4    4    0    0 -0.53633123533E-02  0.63281455868E-01  0.29454364762E-01  0.70008060255E-01  0.51100000000E-03 0.  1.
         11    1    4    4    0    0  0.12616234665E-01  0.57809285040E-01  0.21096676725E-01  0.62820487930E-01  0.51100000000E-03 0. -1.
</event>
<event>
 8    1  0.1143957E+005  0.1043930E+01  0.7957747E-01            NaN
         13   -1    0    0    0    0  0.00000000000E+00  0.00000000000E+00  0.74505805969E-08  0.10566000000E+00  0.10566000000E+00 0. -1.
     999900   -1    0    0    0    0 -0.00000000000E+00 -0.00000000000E+00 -0.74505805969E-08  0.93827000000E+00  0.93827000000E+00 0. -1.
     999902    2    1    2    0    0  0.11809798919E-01  0.19309616542E-01 -0.79556379678E-02  0.10199378176E+01  0.10196555923E+01 0.  0.
     999903    2    3    3    0    0 -0.98531720798E-01  0.62943257473E-01 -0.54774965778E-01  0.13074087930E+00  0.20555461086E-01 0.  0.
         14    1    1    2    0    0 -0.11809798919E-01 -0.19309616542E-01  0.79556379678E-02  0.23992182414E-01  0.00000000000E+00 0.  1.
     999901    1    3    3    0    0  0.11034151972E+00 -0.43633640931E-01  0.46819327810E-01  0.88919693828E+00  0.88000000000E+00 0.  1.
        -11    1    4    4    0    0 -0.77942362486E-01  0.47418519083E-01 -0.51433302390E-01  0.10473382232E+00  0.51100000000E-03 0. -1.
         11    1    4    4    0    0 -0.20589358312E-01  0.15524738390E-01 -0.33416633872E-02  0.26007056984E-01  0.51100000000E-03 0.  1.
</event>
<event>
 8    1  0.1143957E+005  0.1043930E+01  0.7957747E-01            NaN
         13   -1    0    0    0    0  0.00000000000E+00  0.00000000000E+00  0.74505805969E-08  0.10566000000E+00  0.10566000000E+00 0.  1.
     999900   -1    0    0    0    0 -0.00000000000E+00 -0.00000000000E+00 -0.74505805969E-08  0.93827000000E+00  0.93827000000E+00 0.  1.
     999902    2    1    2    0    0 -0.63181555124E-02 -0.18532260060E-01  0.12616028959E-01  0.10206377709E+01  0.10203719574E+01 0.  0.
     999903    2    3    3    0    0  0.50652633760E-01 -0.12102045162E+00  0.51899891673E-02  0.13282886894E+00  0.20122957555E-01 0.  0.
         14    1    1    2    0    0  0.63181555124E-02  0.18532260060E-01 -0.12616028959E-01  0.23292229149E-01  0.00000000000E+00 0.  1.
     999901    1    3    3    0    0 -0.56970789272E-01  0.10248819156E+00  0.74260397917E-02  0.88780890191E+00  0.88000000000E+00 0.  1.
        -11    1    4    4    0    0  0.30031926295E-01 -0.93546691939E-01  0.63353419071E-02  0.98454547116E-01  0.51100000000E-03 0.  1.
         11    1    4    4    0    0  0.20620707464E-01 -0.27473759679E-01 -0.11453527399E-02  0.34374321828E-01  0.51100000000E-03 0. -1.
</event>
<event>
 8    1  0.1143957E+005  0.1043930E+01  0.7957747E-01            NaN
         13   -1    0    0    0    0  0.00000000000E+00  0.00000000000E+00  0.74505805969E-08  0.10566000000E+00  0.10566000000E+00 0.  1.
     999900   -1    0    0    0    0 -0.00000000000E+00 -0.00000000000E+00 -0.74505805969E-08  0.93827000000E+00  0.93827000000E+00 0.  1.
     999902    2    1    2    0    0 -0.42054395637E-02  0.22155938170E-01 -0.81209443232E-02  0.10199608312E+01  0.10196791535E+01 0.  0.
     999903    2    3    3    0    0  0.11568868243E-02 -0.45790954410E-01  0.11815305953E+00  0.12833834445E+00  0.20308502843E-01 0.  0.
         14    1    1    2    0    0  0.42054395637E-02 -0.22155938170E-01  0.81209443232E-02  0.23969168839E-01  0.00000000000E+00 0.  1.
     999901    1    3    3    0    0 -0.53623263879E-02  0.67946892580E-01 -0.12627400385E+00  0.89162248671E+00  0.88000000000E+00 0.  1.
        -11    1    4    4    0    0  0.66800680581E-02 -0.27307587108E-01  0.89338008782E-01  0.93658254079E-01  0.51100000000E-03 0.  1.
         11    1    4    4    0    0 -0.55231812338E-02 -0.18483367302E-01  0.28815050748E-01  0.34680090374E-01  0.51100000000E-03 0. -1.
</event>
<event>
 8    1  0.1143957E+005  0.1043930E+01  0.7957747E-01            NaN
         13   -1    0    0    0    0  0.00000000000E+00  0.00000000000E+00  0.74505805969E-08  0.10566000000E+00  0.10566000000E+00 0. -1.
     999900   -1    0    0    0    0 -0.00000000000E+00 -0.00000000000E+00 -0.74505805969E-08  0.93827000000E+00  0.93827000000E+00 0. -1.
     999902    2    1    2    0    0  0.24517985309E-02  0.24026457070E-01 -0.40310270668E-02  0.10194446751E+01  0.10191505848E+01 0.  0.
     999903    2    3    3    0    0 -0.17731225907E-04  0.17572546203E-01 -0.12808832023E+00  0.13071639070E+00  0.19270763447E-01 0.  0.
         14    1    1    2    0    0 -0.24517985309E-02 -0.24026457070E-01  0.40310270668E-02  0.24485324882E-01  0.00000000000E+00 0. -1.
     999901    1    3    3    0    0  0.24695297568E-02  0.64539108672E-02  0.12405729316E+00  0.88872828442E+00  0.88000000000E+00 0.  1.
        -11    1    4    4    0    0  0.54781067064E-02 -0.19150219383E-02 -0.28532170657E-01  0.29120831813E-01  0.51100000000E-03 0. -1.
         11    1    4    4    0    0 -0.54958379323E-02  0.19487568141E-01 -0.99556149571E-01  0.10159555888E+00  0.51100000000E-03 0.  1.
</event>
<event>
 8    1  0.1143957E+005  0.1043930E+01  0.7957747E-01            NaN
         13   -1    0    0    0    0  0.00000000000E+00  0.00000000000E+00  0.74505805969E-08  0.10566000000E+00  0.10566000000E+00 0.  1.
     999900   -1    0    0    0    0 -0.00000000000E+00 -0.00000000000E+00 -0.74505805969E-08  0.93827000000E+00  0.93827000000E+00 0. -1.
     999902    2    1    2    0    0 -0.73010229235E-02 -0.16868732183E-01 -0.13900990324E-01  0.10208844670E+01  0.10206243179E+01 0.  0.
     999903    2    3    3    0    0 -0.11062622792E+00 -0.69213027191E-01  0.15212718504E-01  0.13281710958E+00  0.19502624301E-01 0.  0.
         14    1    1    2    0    0  0.73010229235E-02  0.16868732183E-01  0.13900990324E-01  0.23045533042E-01  0.00000000000E+00 0.  1.
     999901    1    3    3    0    0  0.10332520500E+00  0.52344295007E-01 -0.29113708828E-01  0.88806735738E+00  0.88000000000E+00 0. -1.
        -11    1    4    4    0    0 -0.10674256734E+00 -0.67856964817E-01  0.11091373220E-01  0.12697174110E+00  0.51100000000E-03 0.  1.
         11    1    4    4    0    0 -0.38836605765E-02 -0.13560623735E-02  0.41213452845E-02  0.58453684733E-02  0.51100000000E-03 0. -1.
</event>
<event>
 8    1  0.1143957E+005  0.1043930E+01  0.7957747E-01            NaN
         13   -1    0    0    0    0  0.00000000000E+00  0.00000000000E+00  0.74505805969E-08  0.10566000000E+00  0.10566000000E+00 0. -1.
     999900   -1    0    0    0    0 -0.00000000000E+00 -0.00000000000E+00 -0.74505805969E-08  0.93827000000E+00  0.93827000000E+00 0. -1.
     999902    2    1    2    0    0 -0.17045872515E-01  0.13511325868E-01 -0.44632874212E-02  0.10217255268E+01  0.10214842208E+01 0.  0.
     999903    2    3    3    0    0 -0.12676694007E+00  0.37519037281E-01 -0.14188847146E-01  0.13453351296E+00  0.20503840400E-01 0.  0.
         14    1    1    2    0    0  0.17045872515E-01 -0.13511325868E-01  0.44632874212E-02  0.22204473223E-01  0.00000000000E+00 0. -1.
     999901    1    3    3    0    0  0.10972106756E+00 -0.24007711412E-01  0.97255597246E-02  0.88719201382E+00  0.88000000000E+00 0.  1.
        -11    1    4    4    0    0 -0.77640309959E-01  0.30446172058E-01 -0.19956548910E-02  0.83422004788E-01  0.51100000000E-03 0.  1.
         11    1    4    4    0    0 -0.49126630115E-01  0.70728652224E-02 -0.12193192255E-01  0.51111508169E-01  0.51100000000E-03 0. -1.
</event>
<event>
 8    1  0.1143957E+005  0.1043930E+01  0.7957747E-01            NaN
         13   -1    0    0    0    0  0.00000000000E+00  0.00000000000E+00  0.74505805969E-08  0.10566000000E+00  0.10566000000E+00 0. -1.
     999900   -1    0    0    0    0 -0.00000000000E+00 -0.00000000000E+00 -0.74505805969E-08  0.93827000000E+00  0.93827000000E+00 0. -1.
     999902    2    1    2    0    0  0.16048736028E-01 -0.15179194377E-01  0.76892572722E-02  0.10205399477E+01  0.10202718708E+01 0.  0.
     999903    2    3    3    0    0  0.12257503473E+00 -0.17021477553E-01  0.38737409285E-01  0.13357025594E+00  0.32032117594E-01 0.  0.
         14    1    1    2    0    0 -0.16048736028E-01  0.15179194377E-01 -0.76892572722E-02  0.23390052318E-01  0.00000000000E+00 0.  1.
     999901    1    3    3    0    0 -0.10652629870E+00  0.18422831755E-02 -0.31048152013E-01  0.88696969174E+00  0.88000000000E+00 0.  1.
        -11    1    4    4    0    0  0.92462082264E-01  0.92372692664E-03  0.23938612850E-01  0.95516533826E-01  0.51100000000E-03 0.  1.
         11    1    4    4    0    0  0.30112952464E-01 -0.17945204480E-01  0.14798796435E-01  0.38053722116E-01  0.51100000000E-03 0. -1.
</event>
<event>
 8    1  0.1143957E+005  0.1043930E+01  0.7957747E-01            NaN
         13   -1    0    0    0    0  0.00000000000E+00  0.00000000000E+00  0.74505805969E-08  0.10566000000E+00  0.10566000000E+00 0. -1.
     999900   -1    0    0    0    0 -0.00000000000E+00 -0.00000000000E+00 -0.74505805969E-08  0.93827000000E+00  0.93827000000E+00 0. -1.
     999902    2    1    2    0    0 -0.22378612091E-02 -0.23382219294E-01 -0.80210644160E-02  0.10191091685E+01  0.10188068628E+01 0.  0.
     999903    2    3    3    0    0  0.76517897745E-01 -0.10075745407E+00  0.29459022744E-01  0.13141882077E+00  0.19900231278E-01 0.  0.
         14    1    1    2    0    0  0.22378612091E-02  0.23382219294E-01  0.80210644160E-02  0.24820831498E-01  0.00000000000E+00 0. -1.
     999901    1    3    3    0    0 -0.78755758954E-01  0.77375234778E-01 -0.37480087160E-01  0.88769034773E+00  0.88000000000E+00 0. -1.
        -11    1    4    4    0    0  0.34155273473E-01 -0.43584974303E-01  0.23017894136E-01  0.59969302667E-01  0.51100000000E-03 0. -1.
         11    1    4    4    0    0  0.42362624273E-01 -0.57172479769E-01  0.64411286078E-02  0.71449518101E-01  0.51100000000E-03 0.  1.
</event>
<event>
 8    1  0.1143957E+005  0.1043930E+01  0.7957747E-01            NaN
         13   -1    0    0    0    0  0.00000000000E+00  0.00000000000E+00  0.74505805969E-08  0.10566000000E+00  0.10566000000E+00 0. -1.
     999900   -1    0    0    0    0 -0.00000000000E+00 -0.00000000000E+00 -0.74505805969E-08  0.93827000000E+00  0.93827000000E+00 0.  1.
     999902    2    1    2    0    0 -0.13546963049E-01  0.17937097665E-01  0.61204987248E-02  0.10206336444E+01  0.10203677356E+01 0.  0.
     999903    2    3    3    0    0  0.38100784942E-02  0.12924536644E+00  0.25368712132E-01  0.13324348706E+00  0.19783170758E-01 0.  0.
         14    1    1    2    0    0  0.13546963049E-01 -0.17937097665E-01 -0.61204987248E-02  0.23296355619E-01  0.00000000000E+00 0.  1.
     999901    1    3    3    0    0 -0.17357041543E-01 -0.11130826877E+00 -0.19248213407E-01  0.88739015732E+00  0.88000000000E+00 0. -1.
        -11    1    4    4    0    0 -0.51264384681E-02  0.20443532646E-01  0.87070750839E-02  0.22809924944E-01  0.51100000000E-03 0.  1.
         11    1    4    4    0    0  0.89365169624E-02  0.10880183379E+00  0.16661637048E-01  0.11043356212E+00  0.51100000000E-03 0. -1.
</event>
<event>
 8    1  0.1143957E+005  0.1043930E+01  0.7957747E-01            NaN
         13   -1    0    0    0    0  0.00000000000E+00  0.00000000000E+00  0.74505805969E-08  0.10566000000E+00  0.10566000000E+00 0. -1.
     999900   -1    0    0    0    0 -0.00000000000E+00 -0.00000000000E+00 -0.74505805969E-08  0.93827000000E+00  0.93827000000E+00 0. -1.
     999902    2    1    2    0    0 -0.36101755501E-02  0.59105311313E-02 -0.22576979548E-01  0.10203145866E+01  0.10200412579E+01 0.  0.
     999903    2    3    3    0    0 -0.10629415272E+00  0.60429399955E-01 -0.46144913462E-01  0.13235526671E+00  0.20938106561E-01 0.  0.
         14    1    1    2    0    0  0.36101755501E-02 -0.59105311313E-02  0.22576979548E-01  0.23615413425E-01  0.00000000000E+00 0. -1.
     999901    1    3    3    0    0  0.10268397717E+00 -0.54518868824E-01  0.23567933914E-01  0.88795931986E+00  0.88000000000E+00 0. -1.
        -11    1    4    4    0    0 -0.19524643537E-01  0.11763299446E-01 -0.17752773192E-01  0.28896522215E-01  0.51100000000E-03 0. -1.
         11    1    4    4    0    0 -0.86769509182E-01  0.48666100509E-01 -0.28392140269E-01  0.10345874450E+00  0.51100000000E-03 0.  1.
</event>
<event>
 8    1  0.1143957E+005  0.1043930E+01  0.7957747E-01            NaN
         13   -1    0    0    0    0  0.00000000000E+00  0.00000000000E+00  0.74505805969E-08  0.10566000000E+00  0.10566000000E+00 0. -1.
     999900   -1    0    0    0    0 -0.00000000000E+00 -0.00000000000E+00 -0.74505805969E-08  0.93827000000E+00  0.93827000000E+00 0. -1.
     999902    2    1    2    0    0  0.87114288744E-02 -0.33496665682E-02 -0.20115044455E-01  0.10217551432E+01  0.10215144876E+01 0.  0.
     999903    2    3    3    0    0  0.97758694161E-01 -0.48611539229E-01 -0.75816477272E-01  0.13435404892E+00  0.19571106388E-01 0.  0.
         14    1    1    2    0    0 -0.87114288744E-02  0.33496665682E-02  0.20115044455E-01  0.22174856765E-01  0.00000000000E+00 0. -1.
     999901    1    3    3    0    0 -0.89047265287E-01  0.45261872661E-01  0.55701432817E-01  0.88740109431E+00  0.88000000000E+00 0. -1.
        -11    1    4    4    0    0  0.25529054203E-01 -0.12046335126E-01 -0.30554309157E-01  0.41601366895E-01  0.51100000000E-03 0.  1.
         11    1    4    4    0    0  0.72229639958E-01 -0.36565204103E-01 -0.45262168115E-01  0.92752682026E-01  0.51100000000E-03 0. -1.
</event>
<event>
 8    1  0.1143957E+005  0.1043930E+01  0.7957747E-01            NaN
         13   -1    0    0    0    0  0.00000000000E+00  0.00000000000E+00  0.74505805969E-08  0.10566000000E+00  0.10566000000E+00 0. -1.
     999900   -1    0    0    0    0 -0.00000000000E+00 -0.00000000000E+00 -0.74505805969E-08  0.93827000000E+00  0.93827000000E+00 0.  1.
     999902    2    1    2    0    0  0.11439022673E-01 -0.24150898485E-02  0.21574496517E-01  0.10193914019E+01  0.10190960148E+01 0.  0.
     999903    2    3    3    0    0 -0.10549746703E+00  0.70217845308E-01  0.93048476856E-02  0.12860510304E+00  0.19809870973E-01 0.  0.
         14    1    1    2    0    0 -0.11439022673E-01  0.24150898485E-02 -0.21574496517E-01  0.24538598139E-01  0.00000000000E+00 0.  1.
     999901    1    3    3    0    0  0.11693648970E+00 -0.72632935156E-01  0.12269648831E-01  0.89078629883E+00  0.88000000000E+00 0.  1.
        -11    1    4    4    0    0 -0.26484123828E-01  0.28334456756E-01  0.44786373612E-02  0.39045736876E-01  0.51100000000E-03 0. -1.
         11    1    4    4    0    0 -0.79013343198E-01  0.41883388552E-01  0.48262103244E-02  0.89559366160E-01  0.51100000000E-03 0.  1.
</event>
<event>
 8    1  0.1143957E+005  0.1043930E+01  0.7957747E-01            NaN
         13   -1    0    0    0    0  0.00000000000E+00  0.00000000000E+00  0.74505805969E-08  0.10566000000E+00  0.10566000000E+00 0.  1.
     999900   -1    0    0    0    0 -0.00000000000E+00 -0.00000000000E+00 -0.74505805969E-08  0.93827000000E+00  0.93827000000E+00 0.  1.
     999902    2    1    2    0    0 -0.21060418751E-01  0.24250417865E-01 -0.48853428250E-02  0.10114416855E+01  0.10109197755E+01 0.  0.
     999903    2    3    3    0    0 -0.64482012055E-01 -0.99242031567E-01 -0.20192933696E-01  0.12162701818E+00  0.19454209639E-01 0.  0.
         14    1    1    2    0    0  0.21060418751E-01 -0.24250417865E-01  0.48853428250E-02  0.32488314501E-01  0.00000000000E+00 0.  1.
     999901    1    3    3    0    0  0.43421593305E-01  0.12349244943E+00  0.15307590871E-01  0.88981466732E+00  0.88000000000E+00 0. -1.
        -11    1    4    4    0    0 -0.40014073130E-01 -0.75578905056E-01 -0.10062689566E-01  0.86109324584E-01  0.51100000000E-03 0.  1.
         11    1    4    4    0    0 -0.24467938925E-01 -0.23663126511E-01 -0.10130244130E-01  0.35517693600E-01  0.51100000000E-03 0. -1.
</event>
<event>
 8    1  0.1181360E+005  0.1043930E+01  0.7957747E-01            NaN
         13   -1    0    0    0    0  0.00000000000E+00  0.00000000000E+00  0.74505805969E-08  0.10566000000E+00  0.10566000000E+00 0. -1.
     999900   -1    0    0    0    0 -0.00000000000E+00 -0.00000000000E+00 -0.74505805969E-08  0.93827000000E+00  0.93827000000E+00 0.  1.
     999902    2    1    2    0    0  0.12906290350E-01  0.67660439798E-02 -0.18554947210E-01  0.10203368284E+01  0.10200640203E+01 0.  0.
     999903    2    3    3    0    0  0.11178903992E+00 -0.96820382286E-02 -0.68940901911E-01  0.13321390453E+00  0.20064024850E-01 0.  0.
         14    1    1    2    0    0 -0.12906290350E-01 -0.67660439798E-02  0.18554947210E-01  0.23593171633E-01  0.00000000000E+00 0. -1.
     999901    1    3    3    0    0 -0.98882749568E-01  0.16448082208E-01  0.50385954701E-01  0.88712292384E+00  0.88000000000E+00 0. -1.
        -11    1    4    4    0    0  0.48121688996E-01  0.54693087539E-02 -0.32166174145E-01  0.58142361237E-01  0.51100000000E-03 0. -1.
         11    1    4    4    0    0  0.63667350922E-01 -0.15151346983E-01 -0.36774727766E-01  0.75071543291E-01  0.51100000000E-03 0.  1.
</event>
<event>
 8    1  0.1143957E+005  0.1043930E+01  0.7957747E-01            NaN
         13   -1    0    0    0    0  0.00000000000E+00  0.00000000000E+00  0.74505805969E-08  0.10566000000E+00  0.10566000000E+00 0. -1.
     999900   -1    0    0    0    0 -0.00000000000E+00 -0.00000000000E+00 -0.74505805969E-08  0.93827000000E+00  0.93827000000E+00 0. -1.
     999902    2    1    2    0    0 -0.48010708727E-02 -0.20234796649E-01 -0.11535366109E-01  0.10201484536E+01  0.10198712200E+01 0.  0.
     999903    2    3    3    0    0  0.12160479518E-02  0.54183842007E-01 -0.11727147151E+00  0.13067981253E+00  0.19678614413E-01 0.  0.
         14    1    1    2    0    0  0.48010708727E-02  0.20234796649E-01  0.11535366109E-01  0.23781546380E-01  0.00000000000E+00 0. -1.
     999901    1    3    3    0    0 -0.60171188245E-02 -0.74418638655E-01  0.10573610540E+00  0.88946864109E+00  0.88000000000E+00 0.  1.
        -11    1    4    4    0    0 -0.82747278036E-02  0.33570756853E-01 -0.63295724691E-01  0.72125423541E-01  0.51100000000E-03 0. -1.
         11    1    4    4    0    0  0.94907757554E-02  0.20613085154E-01 -0.53975746820E-01  0.58554388989E-01  0.51100000000E-03 0.  1.
</event>
<event>
 8    1  0.1143957E+005  0.1043930E+01  0.7957747E-01            NaN
         13   -1    0    0    0    0  0.00000000000E+00  0.00000000000E+00  0.74505805969E-08  0.10566000000E+00  0.10566000000E+00 0.  1.
     999900   -1    0    0    0    0 -0.00000000000E+00 -0.00000000000E+00 -0.74505805969E-08  0.93827000000E+00  0.93827000000E+00 0.  1.
     999902    2    1    2    0    0  0.17356805010E-01  0.15577617248E-01  0.86206857936E-03  0.10205919623E+01  0.10203250902E+01 0.  0.
     999903    2    3    3    0    0  0.50541205208E-01  0.43657170393E-01  0.11271380695E+00  0.13244756131E+00  0.19431733543E-01 0.  0.
         14    1    1    2    0    0 -0.17356805010E-01 -0.15577617248E-01 -0.86206857936E-03  0.23338037654E-01  0.00000000000E+00 0.  1.
     999901    1    3    3    0    0 -0.33184400197E-01 -0.28079553146E-01 -0.11185173837E+00  0.88814440104E+00  0.88000000000E+00 0.  1.
        -11    1    4    4    0    0  0.29983322045E-01  0.14500912639E-01  0.46020021681E-01  0.56810030670E-01  0.51100000000E-03 0. -1.
         11    1    4    4    0    0  0.20557883163E-01  0.29156257755E-01  0.66693785269E-01  0.75637530637E-01  0.51100000000E-03 0.  1.
</event>
<event>
 8    1  0.1143957E+005  0.1043930E+01  0.7957747E-01            NaN
         13   -1    0    0    0    0  0.00000000000E+00  0.00000000000E+00  0.74505805969E-08  0.10566000000E+00  0.10566000000E+00 0. -1.
     999900   -1    0    0    0    0 -0.00000000000E+00 -0.00000000000E+00 -0.74505805969E-08  0.93827000000E+00  0.93827000000E+00 0. -1.
     999902    2    1    2    0    0 -0.23048067166E-01  0.40132514957E-02  0.22915095621E-02  0.10204231796E+01  0.10201523881E+01 0.  0.
     999903    2    3    3    0    0 -0.13206595362E+00  0.35047164822E-02  0.64557569796E-02  0.13368618417E+00  0.19406697196E-01 0.  0.
         14    1    1    2    0    0  0.23048067166E-01 -0.40132514957E-02 -0.22915095621E-02  0.23506820366E-01  0.00000000000E+00 0.  1.
     999901    1    3    3    0    0  0.10901788645E+00  0.50853501348E-03 -0.41642474175E-02  0.88673699547E+00  0.88000000000E+00 0. -1.
        -11    1    4    4    0    0 -0.11458103903E+00  0.23094765666E-02 -0.10592714183E-02  0.11461034579E+00  0.51100000000E-03 0. -1.
         11    1    4    4    0    0 -0.17484914593E-01  0.11952399156E-02  0.75150283979E-02  0.19075838372E-01  0.51100000000E-03 0.  1.
</event>
<event>
 8    1  0.1143957E+005  0.1043930E+01  0.7957747E-01            NaN
         13   -1    0    0    0    0  0.00000000000E+00  0.00000000000E+00  0.74505805969E-08  0.10566000000E+00  0.10566000000E+00 0.  1.
     999900   -1    0    0    0    0 -0.00000000000E+00 -0.00000000000E+00 -0.74505805969E-08  0.93827000000E+00  0.93827000000E+00 0.  1.
     999902    2    1    2    0    0  0.35247296739E-02 -0.21547787220E-01  0.11733879756E-01  0.10191426083E+01  0.10188411266E+01 0.  0.
     999903    2    3    3    0    0  0.63254160675E-01 -0.48565518908E-01 -0.10032064688E+00  0.12961814000E+00  0.19414725280E-01 0.  0.
         14    1    1    2    0    0 -0.35247296739E-02  0.21547787220E-01 -0.11733879756E-01  0.24787391704E-01  0.00000000000E+00 0. -1.
     999901    1    3    3    0    0 -0.59729431001E-01  0.27017731688E-01  0.11205452664E+00  0.88952446829E+00  0.88000000000E+00 0.  1.
        -11    1    4    4    0    0  0.54175520424E-01 -0.39426666384E-01 -0.93508299731E-01  0.11503700394E+00  0.51100000000E-03 0.  1.
         11    1    4    4    0    0  0.90786402517E-02 -0.91388525236E-02 -0.68123471499E-02  0.14581136065E-01  0.51100000000E-03 0. -1.
</event>
<event>
 8    1  0.1143957E+005  0.1043930E+01  0.7957747E-01            NaN
         13   -1    0    0    0    0  0.00000000000E+00  0.00000000000E+00  0.74505805969E-08  0.10566000000E+00  0.10566000000E+00 0.  1.
     999900   -1    0    0    0    0 -0.00000000000E+00 -0.00000000000E+00 -0.74505805969E-08  0.93827000000E+00  0.93827000000E+00 0.  1.
     999902    2    1    2    0    0 -0.21318583862E-01 -0.11389392536E-01  0.18630378016E-02  0.10196880696E+01  0.10193998666E+01 0.  0.
     999903    2    3    3    0    0 -0.86257941522E-01 -0.98872707003E-01 -0.72397244003E-02  0.13292242368E+00  0.19992809761E-01 0.  0.
         14    1    1    2    0    0  0.21318583862E-01  0.11389392536E-01 -0.18630378016E-02  0.24241930411E-01  0.00000000000E+00 0. -1.
     999901    1    3    3    0    0  0.64939357660E-01  0.87483314467E-01  0.91027622019E-02  0.88676564591E+00  0.88000000000E+00 0.  1.
        -11    1    4    4    0    0 -0.34008579406E-01 -0.46519819920E-01 -0.11769194058E-01  0.58817107786E-01  0.51100000000E-03 0.  1.
         11    1    4    4    0    0 -0.52249362116E-01 -0.52352887083E-01  0.45294696576E-02  0.74105315894E-01  0.51100000000E-03 0. -1.
</event>
<event>
 8    1  0.1143957E+005  0.1043930E+01  0.7957747E-01            NaN
         13   -1    0    0    0    0  0.00000000000E+00  0.00000000000E+00  0.74505805969E-08  0.10566000000E+00  0.10566000000E+00 0.  1.
     999900   -1    0    0    0    0 -0.00000000000E+00 -0.00000000000E+00 -0.74505805969E-08  0.93827000000E+00  0.93827000000E+00 0. -1.
     999902    2    1    2    0    0  0.22833000904E-02 -0.19757407475E-01 -0.13984376337E-01  0.10196168062E+01  0.10193268858E+01 0.  0.
     999903    2    3    3    0    0  0.93698303164E-01 -0.63514599443E-01  0.62397010838E-01  0.13051303786E+00  0.18077326454E-01 0.  0.
         14    1    1    2    0    0 -0.22833000904E-02  0.19757407475E-01  0.13984376337E-01  0.24313193763E-01  0.00000000000E+00 0.  1.
     999901    1    3    3    0    0 -0.91415003074E-01  0.43757191968E-01 -0.76381387175E-01  0.88910376838E+00  0.88000000000E+00 0. -1.
        -11    1    4    4    0    0  0.62272410671E-01 -0.36066001031E-01  0.31324015853E-01  0.78486079347E-01  0.51100000000E-03 0. -1.
         11    1    4    4    0    0  0.31425892493E-01 -0.27448598411E-01  0.31072994985E-01  0.52026958513E-01  0.51100000000E-03 0.  1.
</event>
<event>
 8    1  0.1143957E+005  0.1043930E+01  0.7957747E-01            NaN
         13   -1    0    0    0    0  0.00000000000E+00  0.00000000000E+00  0.74505805969E-08  0.10566000000E+00  0.10566000000E+00 0.  1.
     999900   -1    0    0    0    0 -0.00000000000E+00 -0.00000000000E+00 -0.74505805969E-08  0.93827000000E+00  0.93827000000E+00 0.  1.
     999902    2    1    2    0    0 -0.66776634703E-02  0.20727186384E-01  0.10021221445E-01  0.10199585102E+01  0.10196767773E+01 0.  0.
     999903    2    3    3    0    0  0.10518881814E+00 -0.67640013106E-01  0.21022949904E-01  0.12841832058E+00  0.20234668351E-01 0.  0.
         14    1    1    2    0    0  0.66776634703E-02 -0.20727186384E-01 -0.10021221445E-01  0.23971489818E-01  0.00000000000E+00 0. -1.
     999901    1    3    3    0    0 -0.11186648161E+00  0.88367199491E-01 -0.11001728460E-01  0.89154018961E+00  0.88000000000E+00 0.  1.
        -11    1    4    4    0    0  0.57168483669E-01 -0.24812879218E-01  0.92944901312E-02  0.63012404873E-01  0.51100000000E-03 0.  1.
         11    1    4    4    0    0  0.48020334467E-01 -0.42827133888E-01  0.11728459773E-01  0.65405915704E-01  0.51100000000E-03 0. -1.
</event>
<event>
 8    1  0.1143957E+005  0.1043930E+01  0.7957747E-01            NaN
         13   -1    0    0    0    0  0.00000000000E+00  0.00000000000E+00  0.74505805969E-08  0.10566000000E+00  0.10566000000E+00 0. -1.
     999900   -1    0    0    0    0 -0.00000000000E+00 -0.00000000000E+00 -0.74505805969E-08  0.93827000000E+00  0.93827000000E+00 0.  1.
     999902    2    1    2    0    0 -0.11378324443E-01  0.10505948977E-01  0.18141376935E-01  0.10200773107E+01  0.10197983962E+01 0.  0.
     999903    2    3    3    0    0 -0.12165269580E+00 -0.43560551510E-01 -0.80024199986E-02  0.13116386068E+00  0.21048030315E-01 0.  0.
         14    1    1    2    0    0  0.11378324443E-01 -0.10505948977E-01 -0.18141376935E-01  0.23852689327E-01  0.00000000000E+00 0.  1.
     999901    1    3    3    0    0  0.11027437136E+00  0.54066500487E-01  0.26143796933E-01  0.88891344999E+00  0.88000000000E+00 0. -1.
        -11    1    4    4    0    0 -0.11032445382E+00 -0.32399998635E-01 -0.78507701930E-02  0.11525250859E+00  0.51100000000E-03 0. -1.
         11    1    4    4    0    0 -0.11328241982E-01 -0.11160552875E-01 -0.15164980555E-03  0.15911352096E-01  0.51100000000E-03 0.  1.
</event>
<event>
 8    1  0.1143957E+005  0.1043930E+01  0.7957747E-01            NaN
         13   -1    0    0    0    0  0.00000000000E+00  0.00000000000E+00  0.74505805969E-08  0.10566000000E+00  0.10566000000E+00 0. -1.
     999900   -1    0    0    0    0 -0.00000000000E+00 -0.00000000000E+00 -0.74505805969E-08  0.93827000000E+00  0.93827000000E+00 0. -1.
     999902    2    1    2    0    0  0.17589682961E-01 -0.15834214077E-01  0.12921014268E-01  0.10169657293E+01  0.10166081953E+01 0.  0.
     999903    2    3    3    0    0 -0.29917169462E-01 -0.78149673963E-01 -0.93867199827E-01  0.12705346388E+00  0.18141744963E-01 0.  0.
         14    1    1    2    0    0 -0.17589682961E-01  0.15834214077E-01 -0.12921014268E-01  0.26964270652E-01  0.00000000000E+00 0.  1.
     999901    1    3    3    0    0  0.47506852422E-01  0.62315459886E-01  0.10678821410E+00  0.88991226547E+00  0.88000000000E+00 0.  1.
        -11    1    4    4    0    0 -0.14202577429E-01 -0.45999749221E-01 -0.41142887093E-01  0.63329996158E-01  0.51100000000E-03 0.  1.
         11    1    4    4    0    0 -0.15714592033E-01 -0.32149924742E-01 -0.52724312734E-01  0.63723467718E-01  0.51100000000E-03 0. -1.
</event>
<event>
 8    1  0.1143957E+005  0.1043930E+01  0.7957747E-01            NaN
         13   -1    0    0    0    0  0.00000000000E+00  0.00000000000E+00  0.74505805969E-08  0.10566000000E+00  0.10566000000E+00 0.  1.
     999900   -1    0    0    0    0 -0.00000000000E+00 -0.00000000000E+00 -0.74505805969E-08  0.93827000000E+00  0.93827000000E+00 0.  1.
     999902    2    1    2    0    0  0.20328242807E-01 -0.97019875950E-02  0.61153768323E-02  0.10205898232E+01  0.10203229015E+01 0.  0.
     999903    2    3    3    0    0 -0.96931853926E-01  0.45066554283E-01 -0.68004955297E-01  0.12804103065E+00  0.18521689010E-01 0.  0.
         14    1    1    2    0    0 -0.20328242807E-01  0.97019875950E-02 -0.61153768323E-02  0.23340176792E-01  0.00000000000E+00 0.  1.
     999901    1    3    3    0    0  0.11726009673E+00 -0.54768541878E-01  0.74120332130E-01  0.89254879256E+00  0.88000000000E+00 0.  1.
        -11    1    4    4    0    0 -0.11830580112E-01  0.21514256848E-02 -0.14116054288E-01  0.18550346841E-01  0.51100000000E-03 0.  1.
         11    1    4    4    0    0 -0.85101273814E-01  0.42915128598E-01 -0.53888901009E-01  0.10949068381E+00  0.51100000000E-03 0. -1.
</event>
<event>
 8    1  0.1143957E+005  0.1043930E+01  0.7957747E-01            NaN
         13   -1    0    0    0    0  0.00000000000E+00  0.00000000000E+00  0.74505805969E-08  0.10566000000E+00  0.10566000000E+00 0. -1.
     999900   -1    0    0    0    0 -0.00000000000E+00 -0.00000000000E+00 -0.74505805969E-08  0.93827000000E+00  0.93827000000E+00 0. -1.
     999902    2    1    2    0    0 -0.23076920553E-01  0.30375749658E-02 -0.84707878706E-03  0.10206386139E+01  0.10203728199E+01 0.  0.
     999903    2    3    3    0    0 -0.11924917186E+00  0.45143532127E-01  0.34791771478E-01  0.13368194010E+00  0.20052188498E-01 0.  0.
         14    1    1    2    0    0  0.23076920553E-01 -0.30375749658E-02  0.84707878706E-03  0.23291386098E-01  0.00000000000E+00 0. -1.
     999901    1    3    3    0    0  0.96172251311E-01 -0.42105957161E-01 -0.35638850265E-01  0.88695667380E+00  0.88000000000E+00 0. -1.
        -11    1    4    4    0    0 -0.84971673653E-01  0.32170760649E-01  0.34021867717E-01  0.97020058586E-01  0.51100000000E-03 0.  1.
         11    1    4    4    0    0 -0.34277498211E-01  0.12972771478E-01  0.76990376049E-03  0.36661881515E-01  0.51100000000E-03 0. -1.
</event>
<event>
 8    1  0.1143957E+005  0.1043930E+01  0.7957747E-01            NaN
         13   -1    0    0    0    0  0.00000000000E+00  0.00000000000E+00  0.74505805969E-08  0.10566000000E+00  0.10566000000E+00 0. -1.
     999900   -1    0    0    0    0 -0.00000000000E+00 -0.00000000000E+00 -0.74505805969E-08  0.93827000000E+00  0.93827000000E+00 0. -1.
     999902    2    1    2    0    0  0.22221936312E-01  0.12575335207E-02 -0.74652951478E-02  0.10204539169E+01  0.10201838413E+01 0.  0.
     999903    2    3    3    0    0 -0.35567404856E-01  0.12274249035E+00 -0.15068500297E-01  0.13019776762E+00  0.19840356988E-01 0.  0.
         14    1    1    2    0    0 -0.22221936312E-01 -0.12575335207E-02  0.74652951478E-02  0.23476083056E-01  0.00000000000E+00 0. -1.
     999901    1    3    3    0    0  0.57789341168E-01 -0.12148495683E+00  0.76032051496E-02  0.89025614933E+00  0.88000000000E+00 0.  1.
        -11    1    4    4    0    0 -0.23329063524E-01  0.64384368715E-01  0.82045152409E-03  0.68487417833E-01  0.51100000000E-03 0.  1.
         11    1    4    4    0    0 -0.12238341332E-01  0.58358121635E-01 -0.15888951821E-01  0.61710349783E-01  0.51100000000E-03 0. -1.
</event>
<event>
 8    1  0.1143957E+005  0.1043930E+01  0.7957747E-01            NaN
         13   -1    0    0    0    0  0.00000000000E+00  0.00000000000E+00  0.74505805969E-08  0.10566000000E+00  0.10566000000E+00 0. -1.
     999900   -1    0    0    0    0 -0.00000000000E+00 -0.00000000000E+00 -0.74505805969E-08  0.93827000000E+00  0.93827000000E+00 0.  1.
     999902    2    1    2    0    0  0.22878864521E-01 -0.27215389294E-02  0.16000340518E-03  0.10208892792E+01  0.10206292400E+01 0.  0.
     999903    2    3    3    0    0 -0.66051307643E-01 -0.88981398547E-01  0.66145638188E-01  0.12976446023E+00  0.13531635518E-01 0.  0.
         14    1    1    2    0    0 -0.22878864521E-01  0.27215389294E-02 -0.16000340518E-03  0.23040720844E-01  0.00000000000E+00 0. -1.
     999901    1    3    3    0    0  0.88930172164E-01  0.86259859618E-01 -0.65985634783E-01  0.89112481892E+00  0.88000000000E+00 0. -1.
        -11    1    4    4    0    0 -0.62654517013E-01 -0.78790138108E-01  0.57246797171E-01  0.11580557531E+00  0.51100000000E-03 0. -1.
         11    1    4    4    0    0 -0.33967906303E-02 -0.10191260439E-01  0.88988410164E-02  0.13958884925E-01  0.51100000000E-03 0.  1.
</event>
<event>
 8    1  0.1143957E+005  0.1043930E+01  0.7957747E-01            NaN
         13   -1    0    0    0    0  0.00000000000E+00  0.00000000000E+00  0.74505805969E-08  0.10566000000E+00  0.10566000000E+00 0. -1.
     999900   -1    0    0    0    0 -0.00000000000E+00 -0.00000000000E+00 -0.74505805969E-08  0.93827000000E+00  0.93827000000E+00 0.  1.
     999902    2    1    2    0    0 -0.13608068897E-01  0.19887434174E-01 -0.60366616392E-02  0.10190878813E+01  0.10187850504E+01 0.  0.
     999903    2    3    3    0    0  0.47020742144E-01 -0.44544603712E-02 -0.11892181099E+00  0.12947479828E+00  0.19761929343E-01 0.  0.
         14    1    1    2    0    0  0.13608068897E-01 -0.19887434174E-01  0.60366616392E-02  0.24842118688E-01  0.00000000000E+00 0. -1.
     999901    1    3    3    0    0 -0.60628811041E-01  0.24341894546E-01  0.11288514935E+00  0.88961308303E+00  0.88000000000E+00 0. -1.
        -11    1    4    4    0    0  0.19353443771E-01 -0.96019995500E-02 -0.36954354505E-01  0.42809340325E-01  0.51100000000E-03 0. -1.
         11    1    4    4    0    0  0.27667298373E-01  0.51475391787E-02 -0.81967456486E-01  0.86665457955E-01  0.51100000000E-03 0.  1.
</event>
<event>
 8    1  0.1143957E+005  0.1043930E+01  0.7957747E-01            NaN
         13   -1    0    0    0    0  0.00000000000E+00  0.00000000000E+00  0.74505805969E-08  0.10566000000E+00  0.10566000000E+00 0.  1.
     999900   -1    0    0    0    0 -0.00000000000E+00 -0.00000000000E+00 -0.74505805969E-08  0.93827000000E+00  0.93827000000E+00 0.  1.
     999902    2    1    2    0    0 -0.19701653935E-01  0.19221135555E-01  0.48411688304E-02  0.10159828331E+01  0.10155983818E+01 0.  0.
     999903    2    3    3    0    0 -0.10781279746E+00 -0.63298001750E-01 -0.14664977005E-01  0.12752716663E+00  0.20442122071E-01 0.  0.
         14    1    1    2    0    0  0.19701653935E-01 -0.19221135555E-01 -0.48411688304E-02  0.27947166859E-01  0.00000000000E+00 0.  1.
     999901    1    3    3    0    0  0.88111143529E-01  0.82519137305E-01  0.19506145836E-01  0.88845566651E+00  0.88000000000E+00 0. -1.
        -11    1    4    4    0    0 -0.42421896052E-01 -0.35577700489E-01 -0.10686306719E-01  0.56390143723E-01  0.51100000000E-03 0.  1.
         11    1    4    4    0    0 -0.65390901412E-01 -0.27720301261E-01 -0.39786702858E-02  0.71137022904E-01  0.51100000000E-03 0. -1.
</event>
<event>
 8    1  0.1143957E+005  0.1043930E+01  0.7957747E-01            NaN
         13   -1    0    0    0    0  0.00000000000E+00  0.00000000000E+00  0.74505805969E-08  0.10566000000E+00  0.10566000000E+00 0.  1.
     999900   -1    0    0    0    0 -0.00000000000E+00 -0.00000000000E+00 -0.74505805969E-08  0.93827000000E+00  0.93827000000E+00 0.  1.
     999902    2    1    2    0    0 -0.86904923347E-02 -0.21047742397E-01 -0.50121896144E-02  0.10206136074E+01  0.10203472358E+01 0.  0.
     999903    2    3    3    0    0  0.66923358948E-04  0.12560628453E+00  0.16234979688E-01  0.12818123570E+00  0.19746175022E-01 0.  0.
         14    1    1    2    0    0  0.86904923347E-02  0.21047742397E-01  0.50121896144E-02  0.23316392554E-01  0.00000000000E+00 0.  1.
     999901    1    3    3    0    0 -0.87574156936E-02 -0.14665402692E+00 -0.21247169302E-01  0.89243237175E+00  0.88000000000E+00 0. -1.
        -11    1    4    4    0    0  0.79251426936E-02  0.30766630047E-01  0.72525312266E-02  0.32592234372E-01  0.51100000000E-03 0. -1.
         11    1    4    4    0    0 -0.78582193347E-02  0.94839654480E-01  0.89824484610E-02  0.95589001325E-01  0.51100000000E-03 0.  1.
</event>
<event>
 8    1  0.1143957E+005  0.1043930E+01  0.7957747E-01            NaN
         13   -1    0    0    0    0  0.00000000000E+00  0.00000000000E+00  0.74505805969E-08  0.10566000000E+00  0.10566000000E+00 0. -1.
     999900   -1    0    0    0    0 -0.00000000000E+00 -0.00000000000E+00 -0.74505805969E-08  0.93827000000E+00  0.93827000000E+00 0.  1.
     999902    2    1    2    0    0  0.31509514197E-02 -0.23916338772E-01 -0.19845732101E-02  0.10197254904E+01  0.10194381872E+01 0.  0.
     999903    2    3    3    0    0  0.44073545223E-01  0.99380323608E-01  0.64010365626E-01  0.12774339550E+00  0.20052981750E-01 0.  0.
         14    1    1    2    0    0 -0.31509514197E-02  0.23916338772E-01  0.19845732101E-02  0.24204509619E-01  0.00000000000E+00 0. -1.
     999901    1    3    3    0    0 -0.40922593803E-01 -0.12329666238E+00 -0.65994938836E-01  0.89198209488E+00  0.88000000000E+00 0.  1.
        -11    1    4    4    0    0  0.38602941105E-01  0.91105285871E-01  0.63942226163E-01  0.11781014211E+00  0.51100000000E-03 0. -1.
         11    1    4    4    0    0  0.54706041179E-02  0.82750377365E-02  0.68139463166E-04  0.99332533916E-02  0.51100000000E-03 0.  1.
</event>
<event>
 8    1  0.1143957E+005  0.1043930E+01  0.7957747E-01            NaN
         13   -1    0    0    0    0  0.00000000000E+00  0.00000000000E+00  0.74505805969E-08  0.10566000000E+00  0.10566000000E+00 0. -1.
     999900   -1    0    0    0    0 -0.00000000000E+00 -0.00000000000E+00 -0.74505805969E-08  0.93827000000E+00  0.93827000000E+00 0.  1.
     999902    2    1    2    0    0  0.38842305182E-02 -0.21271475938E-01 -0.95034866248E-02  0.10203105336E+01  0.10200371100E+01 0.  0.
     999903    2    3    3    0    0 -0.42631579429E-01 -0.10628062009E+00  0.62545031769E-01  0.13206436041E+00  0.20398346020E-01 0.  0.
         14    1    1    2    0    0 -0.38842305182E-02  0.21271475938E-01  0.95034866248E-02  0.23619466407E-01  0.00000000000E+00 0. -1.
     999901    1    3    3    0    0  0.46515809948E-01  0.85009144156E-01 -0.72048518394E-01  0.88824617318E+00  0.88000000000E+00 0.  1.
        -11    1    4    4    0    0 -0.44285476561E-02 -0.20814224349E-01  0.40312381391E-02  0.21664624887E-01  0.51100000000E-03 0. -1.
         11    1    4    4    0    0 -0.38203031773E-01 -0.85466395745E-01  0.58513793630E-01  0.11039973553E+00  0.51100000000E-03 0.  1.
</event>
<event>
 8    1  0.1143957E+005  0.1043930E+01  0.7957747E-01            NaN
         13   -1    0    0    0    0  0.00000000000E+00  0.00000000000E+00  0.74505805969E-08  0.10566000000E+00  0.10566000000E+00 0. -1.
     999900   -1    0    0    0    0 -0.00000000000E+00 -0.00000000000E+00 -0.74505805969E-08  0.93827000000E+00  0.93827000000E+00 0.  1.
     999902    2    1    2    0    0 -0.23590283012E-01  0.48794608913E-02  0.48171153572E-02  0.10193634538E+01  0.10190673853E+01 0.  0.
     999903    2    3    3    0    0  0.12489779579E+00 -0.59852821134E-02  0.59134025152E-02  0.12685689696E+00  0.20552882529E-01 0.  0.
         14    1    1    2    0    0  0.23590283012E-01 -0.48794608913E-02 -0.48171153572E-02  0.24566546187E-01  0.00000000000E+00 0. -1.
     999901    1    3    3    0    0 -0.14848807880E+00  0.10864743005E-01 -0.10962871580E-02  0.89250655686E+00  0.88000000000E+00 0. -1.
        -11    1    4    4    0    0  0.99855212425E-01 -0.94394508580E-02 -0.21276245055E-02  0.10032424726E+00  0.51100000000E-03 0.  1.
         11    1    4    4    0    0  0.25042583367E-01  0.34541687446E-02  0.80410270207E-02  0.26532649697E-01  0.51100000000E-03 0. -1.
</event>
<event>
 8    1  0.1143957E+005  0.1043930E+01  0.7957747E-01            NaN
         13   -1    0    0    0    0  0.00000000000E+00  0.00000000000E+00  0.74505805969E-08  0.10566000000E+00  0.10566000000E+00 0. -1.
     999900   -1    0    0    0    0 -0.00000000000E+00 -0.00000000000E+00 -0.74505805969E-08  0.93827000000E+00  0.93827000000E+00 0.  1.
     999902    2    1    2    0    0  0.21749367499E-01  0.67363377819E-04  0.93990753231E-02  0.10202364958E+01  0.10199613352E+01 0.  0.
     999903    2    3    3    0    0 -0.20493691384E-01 -0.34705912640E-01 -0.12055912594E+00  0.12901105248E+00  0.22019469877E-01 0.  0.
         14    1    1    2    0    0 -0.21749367499E-01 -0.67363377819E-04 -0.93990753231E-02  0.23693504202E-01  0.00000000000E+00 0.  1.
     999901    1    3    3    0    0  0.42243058883E-01  0.34773276018E-01  0.12995820127E+00  0.89122544332E+00  0.88000000000E+00 0. -1.
        -11    1    4    4    0    0 -0.58737443628E-02 -0.66626679021E-02 -0.60323808846E-01  0.60976348292E-01  0.51100000000E-03 0.  1.
         11    1    4    4    0    0 -0.14619947021E-01 -0.28043244738E-01 -0.60235317099E-01  0.68034704183E-01  0.51100000000E-03 0. -1.
</event>
<event>
 8    1  0.1143957E+005  0.1043930E+01  0.7957747E-01            NaN
         13   -1    0    0    0    0  0.00000000000E+00  0.00000000000E+00  0.74505805969E-08  0.10566000000E+00  0.10566000000E+00 0. -1.
     999900   -1    0    0    0    0 -0.00000000000E+00 -0.00000000000E+00 -0.74505805969E-08  0.93827000000E+00  0.93827000000E+00 0.  1.
     999902    2    1    2    0    0 -0.14662015363E-01  0.16394013388E-01  0.53229037555E-02  0.10213009993E+01  0.10210502727E+01 0.  0.
     999903    2    3    3    0    0 -0.11418046736E+00 -0.82483384553E-02 -0.66280251802E-01  0.13246008006E+00  0.68838082996E-02 0.  0.
         14    1    1    2    0    0  0.14662015363E-01 -0.16394013388E-01 -0.53229037555E-02  0.22629000726E-01  0.00000000000E+00 0. -1.
     999901    1    3    3    0    0  0.99518451992E-01  0.24642351843E-01  0.71603155558E-01  0.88884091922E+00  0.88000000000E+00 0. -1.
        -11    1    4    4    0    0 -0.29380530444E-01 -0.15740726244E-02 -0.20457071071E-01  0.35839170632E-01  0.51100000000E-03 0. -1.
         11    1    4    4    0    0 -0.84799936911E-01 -0.66742658309E-02 -0.45823180731E-01  0.96620909423E-01  0.51100000000E-03 0.  1.
</event>
<event>
 8    1  0.1143957E+005  0.1043930E+01  0.7957747E-01            NaN
         13   -1    0    0    0    0  0.00000000000E+00  0.00000000000E+00  0.74505805969E-08  0.10566000000E+00  0.10566000000E+00 0. -1.
     999900   -1    0    0    0    0 -0.00000000000E+00 -0.00000000000E+00 -0.74505805969E-08  0.93827000000E+00  0.93827000000E+00 0.  1.
     999902    2    1    2    0    0  0.21309243259E-01  0.20422090787E-01  0.14786875650E-01  0.10109179214E+01  0.10103787639E+01 0.  0.
     999903    2    3    3    0    0  0.70837698253E-01 -0.63330449216E-01 -0.72837113030E-01  0.12122948202E+00  0.19042504707E-01 0.  0.
         14    1    1    2    0    0 -0.21309243259E-01 -0.20422090787E-01 -0.14786875650E-01  0.33012078575E-01  0.00000000000E+00 0. -1.
     999901    1    3    3    0    0 -0.49528454995E-01  0.83752540003E-01  0.87623988680E-01  0.88968843940E+00  0.88000000000E+00 0. -1.
        -11    1    4    4    0    0  0.34738291852E-01 -0.19510737442E-01 -0.34660791787E-01  0.52811451453E-01  0.51100000000E-03 0.  1.
         11    1    4    4    0    0  0.36099406402E-01 -0.43819711774E-01 -0.38176321243E-01  0.68418030571E-01  0.51100000000E-03 0. -1.
</event>
<event>
 8    1  0.1143957E+005  0.1043930E+01  0.7957747E-01            NaN
         13   -1    0    0    0    0  0.00000000000E+00  0.00000000000E+00  0.74505805969E-08  0.10566000000E+00  0.10566000000E+00 0. -1.
     999900   -1    0    0    0    0 -0.00000000000E+00 -0.00000000000E+00 -0.74505805969E-08  0.93827000000E+00  0.93827000000E+00 0.  1.
     999902    2    1    2    0    0 -0.12209631013E-01  0.11430157121E-01 -0.15488608844E-01  0.10211348122E+01  0.10208803476E+01 0.  0.
     999903    2    3    3    0    0 -0.49524501665E-01 -0.34193218583E-01  0.11321652151E+00  0.12982179059E+00  0.20343650263E-01 0.  0.
         14    1    1    2    0    0  0.12209631013E-01 -0.11430157121E-01  0.15488608844E-01  0.22795187764E-01  0.00000000000E+00 0. -1.
     999901    1    3    3    0    0  0.37314870651E-01  0.45623375704E-01 -0.12870513035E+00  0.89131302165E+00  0.88000000000E+00 0.  1.
        -11    1    4    4    0    0 -0.21945830137E-01 -0.16418792298E-01  0.72620112593E-01  0.77621762895E-01  0.51100000000E-03 0. -1.
         11    1    4    4    0    0 -0.27578671528E-01 -0.17774426285E-01  0.40596408917E-01  0.52200027691E-01  0.51100000000E-03 0.  1.
</event>
<event>
 8    1  0.1143957E+005  0.1043930E+01  0.7957747E-01            NaN
         13   -1    0    0    0    0  0.00000000000E+00  0.00000000000E+00  0.74505805969E-08  0.10566000000E+00  0.10566000000E+00 0. -1.
     999900   -1    0    0    0    0 -0.00000000000E+00 -0.00000000000E+00 -0.74505805969E-08  0.93827000000E+00  0.93827000000E+00 0. -1.
     999902    2    1    2    0    0 -0.14193088037E-01 -0.20541269072E-01  0.92203571462E-02  0.10173141688E+01  0.10169659363E+01 0.  0.
     999903    2    3    3    0    0  0.56449730429E-01  0.10149775298E+00  0.43010957498E-01  0.12544773523E+00  0.19970625505E-01 0.  0.
         14    1    1    2    0    0  0.14193088037E-01  0.20541269072E-01 -0.92203571462E-02  0.26615831173E-01  0.00000000000E+00 0. -1.
     999901    1    3    3    0    0 -0.70642818466E-01 -0.12203902206E+00 -0.33790600352E-01  0.89186643360E+00  0.88000000000E+00 0.  1.
        -11    1    4    4    0    0  0.19092664791E-01  0.18497543433E-01  0.13080318983E-01  0.29631821199E-01  0.51100000000E-03 0. -1.
         11    1    4    4    0    0  0.37357065637E-01  0.83000209552E-01  0.29930638515E-01  0.95815914031E-01  0.51100000000E-03 0.  1.
</event>
<event>
 8    1  0.1143957E+005  0.1043930E+01  0.7957747E-01            NaN
         13   -1    0    0    0    0  0.00000000000E+00  0.00000000000E+00  0.74505805969E-08  0.10566000000E+00  0.10566000000E+00 0. -1.
     999900   -1    0    0    0    0 -0.00000000000E+00 -0.00000000000E+00 -0.74505805969E-08  0.93827000000E+00  0.93827000000E+00 0. -1.
     999902    2    1    2    0    0 -0.11296397576E-01 -0.20830030597E-01  0.51725102462E-02  0.10196760594E+01  0.10193875673E+01 0.  0.
     999903    2    3    3    0    0  0.60807396837E-01  0.92176910407E-01 -0.60393444252E-01  0.12711322111E+00  0.17784278191E-01 0.  0.
         14    1    1    2    0    0  0.11296397576E-01  0.20830030597E-01 -0.51725102462E-02  0.24253940610E-01  0.00000000000E+00 0. -1.
     999901    1    3    3    0    0 -0.72103794413E-01 -0.11300694100E+00  0.65565954498E-01  0.89256283828E+00  0.88000000000E+00 0.  1.
        -11    1    4    4    0    0  0.30229889109E-01  0.40862444881E-01 -0.18255079695E-01  0.54010134723E-01  0.51100000000E-03 0.  1.
         11    1    4    4    0    0  0.30577507728E-01  0.51314465526E-01 -0.42138364557E-01  0.73103086389E-01  0.51100000000E-03 0. -1.
</event>
<event>
 8    1  0.1143957E+005  0.1043930E+01  0.7957747E-01            NaN
         13   -1    0    0    0    0  0.00000000000E+00  0.00000000000E+00  0.74505805969E-08  0.10566000000E+00  0.10566000000E+00 0. -1.
     999900   -1    0    0    0    0 -0.00000000000E+00 -0.00000000000E+00 -0.74505805969E-08  0.93827000000E+00  0.93827000000E+00 0. -1.
     999902    2    1    2    0    0  0.74202150952E-02  0.15466895747E-01  0.16082204866E-01  0.10204157114E+01  0.10201447457E+01 0.  0.
     999903    2    3    3    0    0  0.43648633937E-01  0.12277862864E+00 -0.14240862936E-01  0.13263882793E+00  0.20259851969E-01 0.  0.
         14    1    1    2    0    0 -0.74202150952E-02 -0.15466895747E-01 -0.16082204866E-01  0.23514288623E-01  0.00000000000E+00 0. -1.
     999901    1    3    3    0    0 -0.36228418842E-01 -0.10731173289E+00  0.30323067802E-01  0.88777688345E+00  0.88000000000E+00 0. -1.
        -11    1    4    4    0    0  0.27186095993E-01  0.57471104778E-01 -0.14822739367E-01  0.65283890992E-01  0.51100000000E-03 0.  1.
         11    1    4    4    0    0  0.16462537944E-01  0.65307523860E-01  0.58187643071E-03  0.67354936934E-01  0.51100000000E-03 0. -1.
</event>
<event>
 8    1  0.1143957E+005  0.1043930E+01  0.7957747E-01            NaN
         13   -1    0    0    0    0  0.00000000000E+00  0.00000000000E+00  0.74505805969E-08  0.10566000000E+00  0.10566000000E+00 0.  1.
     999900   -1    0    0    0    0 -0.00000000000E+00 -0.00000000000E+00 -0.74505805969E-08  0.93827000000E+00  0.93827000000E+00 0. -1.
     999902    2    1    2    0    0  0.13620003259E-01  0.83022896535E-02  0.15356936182E-01  0.10217880039E+01  0.10215480688E+01 0.  0.
     999903    2    3    3    0    0 -0.47069146379E-01 -0.10272830953E+00  0.61703635122E-01  0.13153018544E+00  0.26911725587E-01 0.  0.
         14    1    1    2    0    0 -0.13620003259E-01 -0.83022896535E-02 -0.15356936182E-01  0.22141996097E-01  0.00000000000E+00 0. -1.
     999901    1    3    3    0    0  0.60689149637E-01  0.11103059918E+00 -0.46346698940E-01  0.89025781847E+00  0.88000000000E+00 0.  1.
        -11    1    4    4    0    0 -0.50622194505E-01 -0.95525941402E-01  0.57409951681E-01  0.12240905085E+00  0.51100000000E-03 0. -1.
         11    1    4    4    0    0  0.35530481263E-02 -0.72023681282E-02  0.42936834405E-02  0.91211345856E-02  0.51100000000E-03 0.  1.
</event>
<event>
 8    1  0.1143957E+005  0.1043930E+01  0.7957747E-01            NaN
         13   -1    0    0    0    0  0.00000000000E+00  0.00000000000E+00  0.74505805969E-08  0.10566000000E+00  0.10566000000E+00 0. -1.
     999900   -1    0    0    0    0 -0.00000000000E+00 -0.00000000000E+00 -0.74505805969E-08  0.93827000000E+00  0.93827000000E+00 0. -1.
     999902    2    1    2    0    0 -0.20410161502E-01  0.71992383385E-02 -0.59393295079E-02  0.10214871980E+01  0.10212406261E+01 0.  0.
     999903    2    3    3    0    0 -0.83613820246E-01 -0.89118896449E-01  0.46822818877E-01  0.13241142518E+00  0.20173262268E-01 0.  0.
         14    1    1    2    0    0  0.20410161502E-01 -0.71992383385E-02  0.59393295079E-02  0.22442801968E-01  0.00000000000E+00 0.  1.
     999901    1    3    3    0    0  0.63203658744E-01  0.96318134787E-01 -0.52762148385E-01  0.88907577285E+00  0.88000000000E+00 0.  1.
        -11    1    4    4    0    0 -0.17097530204E-01 -0.29153931612E-01  0.18210061026E-01  0.38394592211E-01  0.51100000000E-03 0.  1.
         11    1    4    4    0    0 -0.66516290042E-01 -0.59964964837E-01  0.28612757851E-01  0.94016832970E-01  0.51100000000E-03 0. -1.
</event>
<event>
 8    1  0.1143957E+005  0.1043930E+01  0.7957747E-01            NaN
         13   -1    0    0    0    0  0.00000000000E+00  0.00000000000E+00  0.74505805969E-08  0.10566000000E+00  0.10566000000E+00 0.  1.
     999900   -1    0    0    0    0 -0.00000000000E+00 -0.00000000000E+00 -0.74505805969E-08  0.93827000000E+00  0.93827000000E+00 0. -1.
     999902    2    1    2    0    0 -0.12762842776E-01  0.15186561423E-01  0.13837058299E-01  0.10197435165E+01  0.10194566462E+01 0.  0.
     999903    2    3    3    0    0 -0.68157044575E-01 -0.10273143128E+00 -0.32384263805E-01  0.12895196890E+00  0.19512561162E-01 0.  0.
         14    1    1    2    0    0  0.12762842776E-01 -0.15186561423E-01 -0.13837058299E-01  0.24186483538E-01  0.00000000000E+00 0.  1.
     999901    1    3    3    0    0  0.55394201799E-01  0.11791799270E+00  0.46221322104E-01  0.89079154756E+00  0.88000000000E+00 0.  1.
        -11    1    4    4    0    0 -0.23246412860E-01 -0.24028258697E-01 -0.15158769207E-01  0.36712427484E-01  0.51100000000E-03 0.  1.
         11    1    4    4    0    0 -0.44910631715E-01 -0.78703172580E-01 -0.17225494598E-01  0.92239541414E-01  0.51100000000E-03 0. -1.
</event>
<event>
 8    1  0.1143957E+005  0.1043930E+01  0.7957747E-01            NaN
         13   -1    0    0    0    0  0.00000000000E+00  0.00000000000E+00  0.74505805969E-08  0.10566000000E+00  0.10566000000E+00 0. -1.
     999900   -1    0    0    0    0 -0.00000000000E+00 -0.00000000000E+00 -0.74505805969E-08  0.93827000000E+00  0.93827000000E+00 0.  1.
     999902    2    1    2    0    0  0.63023477691E-02 -0.21623553446E-01  0.39934622069E-02  0.10210554423E+01  0.10207991824E+01 0.  0.
     999903    2    3    3    0    0 -0.25853576696E-01 -0.90618005443E-01 -0.91066118789E-01  0.13266894877E+00  0.20687717106E-01 0.  0.
         14    1    1    2    0    0 -0.63023477691E-02  0.21623553446E-01 -0.39934622069E-02  0.22874557732E-01  0.00000000000E+00 0. -1.
     999901    1    3    3    0    0  0.32155924465E-01  0.68994451997E-01  0.95059580996E-01  0.88838649349E+00  0.88000000000E+00 0. -1.
        -11    1    4    4    0    0  0.13412428510E-02 -0.12138255603E-01 -0.54476939556E-02  0.13381878489E-01  0.51100000000E-03 0.  1.
         11    1    4    4    0    0 -0.27194819547E-01 -0.78479749840E-01 -0.85618424833E-01  0.11928707028E+00  0.51100000000E-03 0. -1.
</event>
<event>
 8    1  0.1143957E+005  0.1043930E+01  0.7957747E-01            NaN
         13   -1    0    0    0    0  0.00000000000E+00  0.00000000000E+00  0.74505805969E-08  0.10566000000E+00  0.10566000000E+00 0.  1.
     999900   -1    0    0    0    0 -0.00000000000E+00 -0.00000000000E+00 -0.74505805969E-08  0.93827000000E+00  0.93827000000E+00 0. -1.
     999902    2    1    2    0    0  0.41330739418E-02 -0.19575919005E-01  0.10938648258E-01  0.10211275236E+01  0.10208728944E+01 0.  0.
     999903    2    3    3    0    0 -0.27469452127E-01  0.12322902761E+00 -0.16787058871E-01  0.12862503772E+00  0.17961930226E-01 0.  0.
         14    1    1    2    0    0 -0.41330739418E-02  0.19575919005E-01 -0.10938648258E-01  0.22802476418E-01  0.00000000000E+00 0. -1.
     999901    1    3    3    0    0  0.31602526069E-01 -0.14280494661E+00  0.27725707130E-01  0.89250248586E+00  0.88000000000E+00 0.  1.
        -11    1    4    4    0    0 -0.12501973505E-01  0.32146700020E-01 -0.10708172255E-01  0.36119741663E-01  0.51100000000E-03 0.  1.
         11    1    4    4    0    0 -0.14967478621E-01  0.91082327589E-01 -0.60788866158E-02  0.92505296058E-01  0.51100000000E-03 0. -1.
</event>
<event>
 8    1  0.1143957E+005  0.1043930E+01  0.7957747E-01            NaN
         13   -1    0    0    0    0  0.00000000000E+00  0.00000000000E+00  0.74505805969E-08  0.10566000000E+00  0.10566000000E+00 0. -1.
     999900   -1    0    0    0    0 -0.00000000000E+00 -0.00000000000E+00 -0.74505805969E-08  0.93827000000E+00  0.93827000000E+00 0. -1.
     999902    2    1    2    0    0  0.19793399367E-02 -0.21964105775E-01  0.76565759220E-02  0.10205855599E+01  0.10203185396E+01 0.  0.
     999903    2    3    3    0    0  0.32999367263E-01 -0.29399892591E-01  0.12327879760E+00  0.13244929154E+00  0.19794973268E-01 0.  0.
         14    1    1    2    0    0 -0.19793399367E-02  0.21964105775E-01 -0.76565759220E-02  0.23344440107E-01  0.00000000000E+00 0.  1.
     999901    1    3    3    0    0 -0.31020027326E-01  0.74357868158E-02 -0.11562222168E+00  0.88813626835E+00  0.88000000000E+00 0. -1.
        -11    1    4    4    0    0  0.18929513506E-01 -0.40517689831E-02  0.46008773930E-01  0.49918049972E-01  0.51100000000E-03 0.  1.
         11    1    4    4    0    0  0.14069853757E-01 -0.25348123608E-01  0.77270023672E-01  0.82531241566E-01  0.51100000000E-03 0. -1.
</event>
<event>
 8    1  0.1143957E+005  0.1043930E+01  0.7957747E-01            NaN
         13   -1    0    0    0    0  0.00000000000E+00  0.00000000000E+00  0.74505805969E-08  0.10566000000E+00  0.10566000000E+00 0.  1.
     999900   -1    0    0    0    0 -0.00000000000E+00 -0.00000000000E+00 -0.74505805969E-08  0.93827000000E+00  0.93827000000E+00 0.  1.
     999902    2    1    2    0    0  0.75972195357E-02 -0.57973996928E-02  0.19437119530E-01  0.10222706093E+01  0.10220411291E+01 0.  0.
     999903    2    3    3    0    0  0.10590838349E+00  0.65678017759E-01 -0.37313656514E-01  0.13210519166E+00  0.23006194612E-01 0.  0.
         14    1    1    2    0    0 -0.75972195357E-02  0.57973996928E-02 -0.19437119530E-01  0.21659390654E-01  0.00000000000E+00 0. -1.
     999901    1    3    3    0    0 -0.98311163958E-01 -0.71475417452E-01  0.56750776045E-01  0.89016541768E+00  0.88000000000E+00 0.  1.
        -11    1    4    4    0    0  0.55198260961E-01  0.46947824680E-01 -0.17694593251E-01  0.74594275965E-01  0.51100000000E-03 0. -1.
         11    1    4    4    0    0  0.50710122532E-01  0.18730193079E-01 -0.19619063263E-01  0.57510915697E-01  0.51100000000E-03 0.  1.
</event>
<event>
 8    1  0.1143957E+005  0.1043930E+01  0.7957747E-01            NaN
         13   -1    0    0    0    0  0.00000000000E+00  0.00000000000E+00  0.74505805969E-08  0.10566000000E+00  0.10566000000E+00 0. -1.
     999900   -1    0    0    0    0 -0.00000000000E+00 -0.00000000000E+00 -0.74505805969E-08  0.93827000000E+00  0.93827000000E+00 0.  1.
     999902    2    1    2    0    0 -0.96529517690E-02 -0.12701456772E-01 -0.17845992798E-01  0.10199928753E+01  0.10197119592E+01 0.  0.
     999903    2    3    3    0    0 -0.12753026323E-01 -0.14982407833E-01 -0.13004699764E+00  0.13286048453E+00  0.18776968047E-01 0.  0.
         14    1    1    2    0    0  0.96529517690E-02  0.12701456772E-01  0.17845992798E-01  0.23937124742E-01  0.00000000000E+00 0. -1.
     999901    1    3    3    0    0  0.31000745540E-02  0.22809510613E-02  0.11220100484E+00  0.88713239073E+00  0.88000000000E+00 0. -1.
        -11    1    4    4    0    0 -0.17397362796E-01 -0.93649860318E-02 -0.10035094974E+00  0.10227876334E+00  0.51100000000E-03 0. -1.
         11    1    4    4    0    0  0.46443364729E-02 -0.56174218011E-02 -0.29696047899E-01  0.30581721188E-01  0.51100000000E-03 0.  1.
</event>
<event>
 8    1  0.1143957E+005  0.1043930E+01  0.7957747E-01            NaN
         13   -1    0    0    0    0  0.00000000000E+00  0.00000000000E+00  0.74505805969E-08  0.10566000000E+00  0.10566000000E+00 0.  1.
     999900   -1    0    0    0    0 -0.00000000000E+00 -0.00000000000E+00 -0.74505805969E-08  0.93827000000E+00  0.93827000000E+00 0.  1.
     999902    2    1    2    0    0  0.12968448666E-01  0.13691146771E-01 -0.13888993062E-01  0.10205092338E+01  0.10202404442E+01 0.  0.
     999903    2    3    3    0    0  0.99438181017E-01 -0.32772281678E-01 -0.79104077346E-01  0.13265289858E+00  0.19425811629E-01 0.  0.
         14    1    1    2    0    0 -0.12968448666E-01 -0.13691146771E-01  0.13888993062E-01  0.23420766191E-01  0.00000000000E+00 0.  1.
     999901    1    3    3    0    0 -0.86469732351E-01  0.46463428450E-01  0.65215084284E-01  0.88785633523E+00  0.88000000000E+00 0. -1.
        -11    1    4    4    0    0  0.33168130815E-01 -0.16124106036E-01 -0.37776000399E-01  0.52795823929E-01  0.51100000000E-03 0. -1.
         11    1    4    4    0    0  0.66270050201E-01 -0.16648175642E-01 -0.41328076947E-01  0.79857074646E-01  0.51100000000E-03 0.  1.
</event>
<event>
 8    1  0.1143957E+005  0.1043930E+01  0.7957747E-01            NaN
         13   -1    0    0    0    0  0.00000000000E+00  0.00000000000E+00  0.74505805969E-08  0.10566000000E+00  0.10566000000E+00 0. -1.
     999900   -1    0    0    0    0 -0.00000000000E+00 -0.00000000000E+00 -0.74505805969E-08  0.93827000000E+00  0.93827000000E+00 0. -1.
     999902    2    1    2    0    0 -0.35069409147E-02  0.11531513466E-01  0.21294743216E-01  0.10194608250E+01  0.10191671272E+01 0.  0.
     999903    2    3    3    0    0  0.30056676164E-01  0.12318481912E+00 -0.24248131859E-01  0.13060362018E+00  0.19784596615E-01 0.  0.
         14    1    1    2    0    0  0.35069409147E-02 -0.11531513466E-01 -0.21294743216E-01  0.24469175018E-01  0.00000000000E+00 0.  1.
     999901    1    3    3    0    0 -0.33563617078E-01 -0.11165330565E+00  0.45542875076E-01  0.88885720480E+00  0.88000000000E+00 0.  1.
        -11    1    4    4    0    0  0.29629084757E-01  0.93692226718E-01 -0.23764228697E-01  0.10109953362E+00  0.51100000000E-03 0. -1.
         11    1    4    4    0    0  0.42759140676E-03  0.29492592399E-01 -0.48390316266E-03  0.29504086566E-01  0.51100000000E-03 0.  1.
</event>
<event>
 8    1  0.1143957E+005  0.1043930E+01  0.7957747E-01            NaN
         13   -1    0    0    0    0  0.00000000000E+00  0.00000000000E+00  0.74505805969E-08  0.10566000000E+00  0.10566000000E+00 0.  1.
     999900   -1    0    0    0    0 -0.00000000000E+00 -0.00000000000E+00 -0.74505805969E-08  0.93827000000E+00  0.93827000000E+00 0.  1.
     999902    2    1    2    0    0  0.16586875926E-01  0.10372835893E-01  0.12530790733E-01  0.10206976757E+01  0.10204332434E+01 0.  0.
     999903    2    3    3    0    0 -0.65191442058E-01 -0.63671300564E-01 -0.87990761883E-01  0.12813125798E+00  0.19268795054E-01 0.  0.
         14    1    1    2    0    0 -0.16586875926E-01 -0.10372835893E-01 -0.12530790733E-01  0.23232324332E-01  0.00000000000E+00 0.  1.
     999901    1    3    3    0    0  0.81778317985E-01  0.74044136457E-01  0.10052155262E+00  0.89256641768E+00  0.88000000000E+00 0. -1.
        -11    1    4    4    0    0 -0.46927381371E-01 -0.44776665243E-01 -0.49831885279E-01  0.81796129395E-01  0.51100000000E-03 0.  1.
         11    1    4    4    0    0 -0.18264060688E-01 -0.18894635321E-01 -0.38158876604E-01  0.46335128589E-01  0.51100000000E-03 0. -1.
</event>
<event>
 8    1  0.1143957E+005  0.1043930E+01  0.7957747E-01            NaN
         13   -1    0    0    0    0  0.00000000000E+00  0.00000000000E+00  0.74505805969E-08  0.10566000000E+00  0.10566000000E+00 0. -1.
     999900   -1    0    0    0    0 -0.00000000000E+00 -0.00000000000E+00 -0.74505805969E-08  0.93827000000E+00  0.93827000000E+00 0. -1.
     999902    2    1    2    0    0 -0.28792302899E-01 -0.70878166127E-02  0.67121675662E-02  0.10135279105E+01  0.10130718328E+01 0.  0.
     999903    2    3    3    0    0  0.30599780032E-02  0.13036044248E-01 -0.12135166706E+00  0.12346056290E+00  0.18357058033E-01 0.  0.
         14    1    1    2    0    0  0.28792302899E-01  0.70878166127E-02 -0.67121675662E-02  0.30402089467E-01  0.00000000000E+00 0.  1.
     999901    1    3    3    0    0 -0.31852280902E-01 -0.20123860861E-01  0.12806383463E+00  0.89006734763E+00  0.88000000000E+00 0.  1.
        -11    1    4    4    0    0  0.44798118986E-02 -0.35989662442E-02 -0.39794621498E-01  0.40210624142E-01  0.51100000000E-03 0. -1.
         11    1    4    4    0    0 -0.14198338954E-02  0.16635010493E-01 -0.81557045561E-01  0.83249938763E-01  0.51100000000E-03 0.  1.
</event>
<event>
 8    1  0.1143957E+005  0.1043930E+01  0.7957747E-01            NaN
         13   -1    0    0    0    0  0.00000000000E+00  0.00000000000E+00  0.74505805969E-08  0.10566000000E+00  0.10566000000E+00 0. -1.
     999900   -1    0    0    0    0 -0.00000000000E+00 -0.00000000000E+00 -0.74505805969E-08  0.93827000000E+00  0.93827000000E+00 0.  1.
     999902    2    1    2    0    0 -0.30614929382E-02  0.32047057275E-02  0.20462911860E-01  0.10229926258E+01  0.10227783429E+01 0.  0.
     999903    2    3    3    0    0  0.82588871358E-01 -0.69844265804E-01  0.76791778855E-01  0.13403532736E+00  0.19218442765E-01 0.  0.
         14    1    1    2    0    0  0.30614929382E-02 -0.32047057275E-02 -0.20462911860E-01  0.20937374229E-01  0.00000000000E+00 0.  1.
     999901    1    3    3    0    0 -0.85650364297E-01  0.73048971531E-01 -0.56328866995E-01  0.88895729841E+00  0.88000000000E+00 0.  1.
        -11    1    4    4    0    0  0.65622007936E-01 -0.61806237930E-01  0.56519774367E-01  0.10640021141E+00  0.51100000000E-03 0. -1.
         11    1    4    4    0    0  0.16966863422E-01 -0.80380278735E-02  0.20272004487E-01  0.27635115947E-01  0.51100000000E-03 0.  1.
</event>
<event>
 8    1  0.1143957E+005  0.1043930E+01  0.7957747E-01            NaN
         13   -1    0    0    0    0  0.00000000000E+00  0.00000000000E+00  0.74505805969E-08  0.10566000000E+00  0.10566000000E+00 0.  1.
     999900   -1    0    0    0    0 -0.00000000000E+00 -0.00000000000E+00 -0.74505805969E-08  0.93827000000E+00  0.93827000000E+00 0. -1.
     999902    2    1    2    0    0  0.11827062097E-01  0.13969868645E-01 -0.15227857895E-01  0.10201198281E+01  0.10198419189E+01 0.  0.
     999903    2    3    3    0    0  0.66186592802E-01 -0.70521329035E-01  0.82848770823E-01  0.12898978928E+00  0.20506681735E-01 0.  0.
         14    1    1    2    0    0 -0.11827062097E-01 -0.13969868645E-01  0.15227857895E-01  0.23810171857E-01  0.00000000000E+00 0.  1.
     999901    1    3    3    0    0 -0.54359530705E-01  0.84491197680E-01 -0.98076628718E-01  0.89113003886E+00  0.88000000000E+00 0. -1.
        -11    1    4    4    0    0  0.23707844366E-01 -0.30052182563E-01  0.20694325550E-01  0.43516798966E-01  0.51100000000E-03 0.  1.
         11    1    4    4    0    0  0.42478748436E-01 -0.40469146473E-01  0.62154445273E-01  0.85472990314E-01  0.51100000000E-03 0. -1.
</event>
<event>
 8    1  0.1143957E+005  0.1043930E+01  0.7957747E-01            NaN
         13   -1    0    0    0    0  0.00000000000E+00  0.00000000000E+00  0.74505805969E-08  0.10566000000E+00  0.10566000000E+00 0. -1.
     999900   -1    0    0    0    0 -0.00000000000E+00 -0.00000000000E+00 -0.74505805969E-08  0.93827000000E+00  0.93827000000E+00 0.  1.
     999902    2    1    2    0    0  0.10259164458E-01 -0.19163098888E-01 -0.88396588974E-02  0.10204648262E+01  0.10201950044E+01 0.  0.
     999903    2    3    3    0    0 -0.90518283745E-01 -0.35400067391E-01 -0.86912447118E-01  0.13113075311E+00  0.13956234572E-01 0.  0.
         14    1    1    2    0    0 -0.10259164458E-01  0.19163098888E-01  0.88396588974E-02  0.23465173850E-01  0.00000000000E+00 0. -1.
     999901    1    3    3    0    0  0.10077744820E+00  0.16236968503E-01  0.78072788220E-01  0.88933407304E+00  0.88000000000E+00 0. -1.
        -11    1    4    4    0    0 -0.34959848205E-01 -0.20487908908E-01 -0.39387129075E-01  0.56511524982E-01  0.51100000000E-03 0.  1.
         11    1    4    4    0    0 -0.55558435540E-01 -0.14912158483E-01 -0.47525318042E-01  0.74619228127E-01  0.51100000000E-03 0. -1.
</event>
<event>
 8    1  0.1143957E+005  0.1043930E+01  0.7957747E-01            NaN
         13   -1    0    0    0    0  0.00000000000E+00  0.00000000000E+00  0.74505805969E-08  0.10566000000E+00  0.10566000000E+00 0.  1.
     999900   -1    0    0    0    0 -0.00000000000E+00 -0.00000000000E+00 -0.74505805969E-08  0.93827000000E+00  0.93827000000E+00 0. -1.
     999902    2    1    2    0    0  0.31302796164E-02 -0.92521593194E-03  0.23199510476E-01  0.10205019834E+01  0.10202330254E+01 0.  0.
     999903    2    3    3    0    0 -0.37078101334E-01  0.11268978961E+00 -0.47850118631E-01  0.12945028279E+00  0.19848616563E-01 0.  0.
         14    1    1    2    0    0 -0.31302796164E-02  0.92521593194E-03 -0.23199510476E-01  0.23428016590E-01  0.00000000000E+00 0. -1.
     999901    1    3    3    0    0  0.40208380951E-01 -0.11361500554E+00  0.71049629108E-01  0.89105170062E+00  0.88000000000E+00 0.  1.
        -11    1    4    4    0    0 -0.22212989336E-01  0.38235877682E-01 -0.20572588599E-01  0.48773883996E-01  0.51100000000E-03 0. -1.
         11    1    4    4    0    0 -0.14865111998E-01  0.74453911931E-01 -0.27277530032E-01  0.80676398792E-01  0.51100000000E-03 0.  1.
</event>
<event>
 8    1  0.1143957E+005  0.1043930E+01  0.7957747E-01            NaN
         13   -1    0    0    0    0  0.00000000000E+00  0.00000000000E+00  0.74505805969E-08  0.10566000000E+00  0.10566000000E+00 0. -1.
     999900   -1    0    0    0    0 -0.00000000000E+00 -0.00000000000E+00 -0.74505805969E-08  0.93827000000E+00  0.93827000000E+00 0. -1.
     999902    2    1    2    0    0 -0.37998796025E-02  0.24737882502E-01  0.27982949749E-03  0.10189004131E+01  0.10185929371E+01 0.  0.
     999903    2    3    3    0    0 -0.37454763100E-01  0.11479875081E+00  0.50023123771E-01  0.13226745268E+00  0.20267058524E-01 0.  0.
         14    1    1    2    0    0  0.37998796025E-02 -0.24737882502E-01 -0.27982949749E-03  0.25029586896E-01  0.00000000000E+00 0. -1.
     999901    1    3    3    0    0  0.33654883498E-01 -0.90060868305E-01 -0.49743294274E-01  0.88663296042E+00  0.88000000000E+00 0. -1.
        -11    1    4    4    0    0 -0.15773214564E-01  0.21825985023E-01  0.96026034548E-02  0.28594388156E-01  0.51100000000E-03 0.  1.
         11    1    4    4    0    0 -0.21681548537E-01  0.92972765783E-01  0.40420520316E-01  0.10367306452E+00  0.51100000000E-03 0. -1.
</event>
<event>
 8    1  0.1143957E+005  0.1043930E+01  0.7957747E-01            NaN
         13   -1    0    0    0    0  0.00000000000E+00  0.00000000000E+00  0.74505805969E-08  0.10566000000E+00  0.10566000000E+00 0. -1.
     999900   -1    0    0    0    0 -0.00000000000E+00 -0.00000000000E+00 -0.74505805969E-08  0.93827000000E+00  0.93827000000E+00 0.  1.
     999902    2    1    2    0    0 -0.90224347243E-02  0.21733505497E-01 -0.12131374570E-02  0.10203668658E+01  0.10200947601E+01 0.  0.
     999903    2    3    3    0    0 -0.10496178000E+00  0.68938398884E-01 -0.39357147552E-01  0.13307456594E+00  0.19757958808E-01 0.  0.
         14    1    1    2    0    0  0.90224347243E-02 -0.21733505497E-01  0.12131374570E-02  0.23563134173E-01  0.00000000000E+00 0.  1.
     999901    1    3    3    0    0  0.95939345273E-01 -0.47204893387E-01  0.38144010095E-01  0.88729229989E+00  0.88000000000E+00 0. -1.
        -11    1    4    4    0    0 -0.84740507259E-01  0.62433220630E-01 -0.27710256734E-01  0.10884383335E+00  0.51100000000E-03 0. -1.
         11    1    4    4    0    0 -0.20221272738E-01  0.65051782533E-02 -0.11646890817E-01  0.24230732592E-01  0.51100000000E-03 0.  1.
</event>
<event>
 8    1  0.1143957E+005  0.1043930E+01  0.7957747E-01            NaN
         13   -1    0    0    0    0  0.00000000000E+00  0.00000000000E+00  0.74505805969E-08  0.10566000000E+00  0.10566000000E+00 0. -1.
     999900   -1    0    0    0    0 -0.00000000000E+00 -0.00000000000E+00 -0.74505805969E-08  0.93827000000E+00  0.93827000000E+00 0.  1.
     999902    2    1    2    0    0  0.20294161431E-01  0.42967998330E-02  0.94101931040E-02  0.10211513431E+01  0.10208972516E+01 0.  0.
     999903    2    3    3    0    0 -0.98087305745E-01 -0.65487981925E-01  0.47717686925E-01  0.12966295189E+00  0.25014158440E-01 0.  0.
         14    1    1    2    0    0 -0.20294161431E-01 -0.42967998330E-02 -0.94101931040E-02  0.22778656924E-01  0.00000000000E+00 0. -1.
     999901    1    3    3    0    0  0.11838146718E+00  0.69784781758E-01 -0.38307493821E-01  0.89148839119E+00  0.88000000000E+00 0.  1.
        -11    1    4    4    0    0 -0.97216010641E-02 -0.14762523982E-01  0.14017214935E-02  0.17738872166E-01  0.51100000000E-03 0.  1.
         11    1    4    4    0    0 -0.88365704681E-01 -0.50725457943E-01  0.46315965432E-01  0.11192407972E+00  0.51100000000E-03 0. -1.
</event>
<event>
 8    1  0.1143957E+005  0.1043930E+01  0.7957747E-01            NaN
         13   -1    0    0    0    0  0.00000000000E+00  0.00000000000E+00  0.74505805969E-08  0.10566000000E+00  0.10566000000E+00 0. -1.
     999900   -1    0    0    0    0 -0.00000000000E+00 -0.00000000000E+00 -0.74505805969E-08  0.93827000000E+00  0.93827000000E+00 0. -1.
     999902    2    1    2    0    0 -0.12040196206E-01 -0.66952707002E-02 -0.13490663024E-01  0.10246481183E+01  0.10244666785E+01 0.  0.
     999903    2    3    3    0    0  0.31846796391E-01 -0.53476139922E-01  0.11540984415E+00  0.13294757515E+00  0.21947884396E-01 0.  0.
         14    1    1    2    0    0  0.12040196206E-01  0.66952707002E-02  0.13490663024E-01  0.19281881735E-01  0.00000000000E+00 0. -1.
     999901    1    3    3    0    0 -0.43886992597E-01  0.46780869222E-01 -0.12890050718E+00  0.89170054312E+00  0.88000000000E+00 0. -1.
        -11    1    4    4    0    0  0.14030319848E-01 -0.18969451119E-01  0.24146663481E-01  0.33764070091E-01  0.51100000000E-03 0. -1.
         11    1    4    4    0    0  0.17816476543E-01 -0.34506688803E-01  0.91263180670E-01  0.99183505058E-01  0.51100000000E-03 0.  1.
</event>
<event>
 8    1  0.1143957E+005  0.1043930E+01  0.7957747E-01            NaN
         13   -1    0    0    0    0  0.00000000000E+00  0.00000000000E+00  0.74505805969E-08  0.10566000000E+00  0.10566000000E+00 0. -1.
     999900   -1    0    0    0    0 -0.00000000000E+00 -0.00000000000E+00 -0.74505805969E-08  0.93827000000E+00  0.93827000000E+00 0.  1.
     999902    2    1    2    0    0 -0.15096511909E-01  0.10828322164E-01 -0.14344498941E-01  0.10204582748E+01  0.10201883006E+01 0.  0.
     999903    2    3    3    0    0 -0.64722653304E-01  0.11228641119E+00  0.18274609747E-01  0.13264044217E+00  0.21500361594E-01 0.  0.
         14    1    1    2    0    0  0.15096511909E-01 -0.10828322164E-01  0.14344498941E-01  0.23471725172E-01  0.00000000000E+00 0.  1.
     999901    1    3    3    0    0  0.49626141395E-01 -0.10145808902E+00 -0.32619108688E-01  0.88781783266E+00  0.88000000000E+00 0.  1.
        -11    1    4    4    0    0 -0.49912521703E-01  0.10056793197E+00  0.18253159746E-01  0.11374800097E+00  0.51100000000E-03 0. -1.
         11    1    4    4    0    0 -0.14810131601E-01  0.11718479220E-01  0.21450001544E-04  0.18892441197E-01  0.51100000000E-03 0.  1.
</event>
<event>
 8    1  0.1143957E+005  0.1043930E+01  0.7957747E-01            NaN
         13   -1    0    0    0    0  0.00000000000E+00  0.00000000000E+00  0.74505805969E-08  0.10566000000E+00  0.10566000000E+00 0. -1.
     999900   -1    0    0    0    0 -0.00000000000E+00 -0.00000000000E+00 -0.74505805969E-08  0.93827000000E+00  0.93827000000E+00 0. -1.
     999902    2    1    2    0    0  0.17728449569E-01 -0.33351513038E-02 -0.20599245776E-01  0.10165484353E+01  0.10161795960E+01 0.  0.
     999903    2    3    3    0    0  0.21473527080E-01  0.50165340892E-01 -0.11598678729E+00  0.12977049730E+00  0.20242859271E-01 0.  0.
         14    1    1    2    0    0 -0.17728449569E-01  0.33351513038E-02  0.20599245776E-01  0.27381564690E-01  0.00000000000E+00 0. -1.
     999901    1    3    3    0    0 -0.37450775109E-02 -0.53500492196E-01  0.95387541512E-01  0.88677793801E+00  0.88000000000E+00 0.  1.
        -11    1    4    4    0    0  0.12140704388E-01  0.41667826666E-01 -0.72627880878E-01  0.84608951559E-01  0.51100000000E-03 0. -1.
         11    1    4    4    0    0  0.93328226921E-02  0.84975142254E-02 -0.43358906410E-01  0.45161545738E-01  0.51100000000E-03 0.  1.
</event>
<event>
 8    1  0.1143957E+005  0.1043930E+01  0.7957747E-01            NaN
         13   -1    0    0    0    0  0.00000000000E+00  0.00000000000E+00  0.74505805969E-08  0.10566000000E+00  0.10566000000E+00 0.  1.
     999900   -1    0    0    0    0 -0.00000000000E+00 -0.00000000000E+00 -0.74505805969E-08  0.93827000000E+00  0.93827000000E+00 0.  1.
     999902    2    1    2    0    0  0.91378261118E-02  0.26494776254E-02  0.22586160466E-01  0.10194217515E+01  0.10191271036E+01 0.  0.
     999903    2    3    3    0    0  0.50410139840E-01  0.93878067351E-01  0.75628791601E-01  0.13215652616E+00  0.19782809677E-01 0.  0.
         14    1    1    2    0    0 -0.91378261118E-02 -0.26494776254E-02 -0.22586160466E-01  0.24508248455E-01  0.00000000000E+00 0. -1.
     999901    1    3    3    0    0 -0.41272313728E-01 -0.91228589725E-01 -0.53042631135E-01  0.88726522539E+00  0.88000000000E+00 0. -1.
        -11    1    4    4    0    0  0.15319593053E-01  0.35704422969E-01  0.38651686929E-01  0.54806110739E-01  0.51100000000E-03 0. -1.
         11    1    4    4    0    0  0.35090546788E-01  0.58173644382E-01  0.36977104672E-01  0.77350415419E-01  0.51100000000E-03 0.  1.
</event>
<event>
 8    1  0.1143957E+005  0.1043930E+01  0.7957747E-01            NaN
         13   -1    0    0    0    0  0.00000000000E+00  0.00000000000E+00  0.74505805969E-08  0.10566000000E+00  0.10566000000E+00 0. -1.
     999900   -1    0    0    0    0 -0.00000000000E+00 -0.00000000000E+00 -0.74505805969E-08  0.93827000000E+00  0.93827000000E+00 0.  1.
     999902    2    1    2    0    0  0.13401705087E-01  0.19171208465E-01 -0.15367343181E-02  0.10204885306E+01  0.10202192601E+01 0.  0.
     999903    2    3    3    0    0 -0.70960850273E-01 -0.78743320983E-01 -0.70139596402E-01  0.12840633235E+00  0.18239252549E-01 0.  0.
         14    1    1    2    0    0 -0.13401705087E-01 -0.19171208465E-01  0.15367343181E-02  0.23441469357E-01  0.00000000000E+00 0.  1.
     999901    1    3    3    0    0  0.84362555360E-01  0.97914529448E-01  0.68602862083E-01  0.89208219829E+00  0.88000000000E+00 0.  1.
        -11    1    4    4    0    0 -0.36074737900E-01 -0.28614686198E-01 -0.35895204528E-01  0.58385904206E-01  0.51100000000E-03 0.  1.
         11    1    4    4    0    0 -0.34886112373E-01 -0.50128634785E-01 -0.34244391873E-01  0.70020428145E-01  0.51100000000E-03 0. -1.
</event>
<event>
 8    1  0.1143957E+005  0.1043930E+01  0.7957747E-01            NaN
         13   -1    0    0    0    0  0.00000000000E+00  0.00000000000E+00  0.74505805969E-08  0.10566000000E+00  0.10566000000E+00 0. -1.
     999900   -1    0    0    0    0 -0.00000000000E+00 -0.00000000000E+00 -0.74505805969E-08  0.93827000000E+00  0.93827000000E+00 0.  1.
     999902    2    1    2    0    0 -0.80803918959E-02  0.22799354083E-01  0.58366993829E-02  0.10190468664E+01  0.10187430223E+01 0.  0.
     999903    2    3    3    0    0  0.10285154968E+00  0.77397141860E-01  0.43515068359E-02  0.13040238183E+00  0.20422701524E-01 0.  0.
         14    1    1    2    0    0  0.80803918959E-02 -0.22799354083E-01 -0.58366993829E-02  0.24883133634E-01  0.00000000000E+00 0.  1.
     999901    1    3    3    0    0 -0.11093194157E+00 -0.54597787777E-01  0.14851925470E-02  0.88864448453E+00  0.88000000000E+00 0. -1.
        -11    1    4    4    0    0  0.21456987417E-01  0.90872880881E-02 -0.46253428038E-02  0.23762071266E-01  0.51100000000E-03 0. -1.
         11    1    4    4    0    0  0.81394562259E-01  0.68309853772E-01  0.89768496396E-02  0.10664031057E+00  0.51100000000E-03 0.  1.
</event>
<event>
 8    1  0.1143957E+005  0.1043930E+01  0.7957747E-01            NaN
         13   -1    0    0    0    0  0.00000000000E+00  0.00000000000E+00  0.74505805969E-08  0.10566000000E+00  0.10566000000E+00 0. -1.
     999900   -1    0    0    0    0 -0.00000000000E+00 -0.00000000000E+00 -0.74505805969E-08  0.93827000000E+00  0.93827000000E+00 0. -1.
     999902    2    1    2    0    0 -0.49816627565E-02 -0.81950658168E-02  0.22129434586E-01  0.10198117923E+01  0.10195265586E+01 0.  0.
     999903    2    3    3    0    0 -0.10203045580E+00 -0.86056786852E-02 -0.76025896429E-01  0.12905194484E+00  0.19753377514E-01 0.  0.
         14    1    1    2    0    0  0.49816627565E-02  0.81950658168E-02 -0.22129434586E-01  0.24118207700E-01  0.00000000000E+00 0.  1.
     999901    1    3    3    0    0  0.97048793046E-01  0.41061286841E-03  0.98155331014E-01  0.89075984746E+00  0.88000000000E+00 0.  1.
        -11    1    4    4    0    0 -0.38222331497E-01 -0.11492782025E-01 -0.23244276904E-01  0.46190780395E-01  0.51100000000E-03 0.  1.
         11    1    4    4    0    0 -0.63808124306E-01  0.28871033395E-02 -0.52781619524E-01  0.82861164448E-01  0.51100000000E-03 0. -1.
</event>
<event>
 8    1  0.1143957E+005  0.1043930E+01  0.7957747E-01            NaN
         13   -1    0    0    0    0  0.00000000000E+00  0.00000000000E+00  0.74505805969E-08  0.10566000000E+00  0.10566000000E+00 0. -1.
     999900   -1    0    0    0    0 -0.00000000000E+00 -0.00000000000E+00 -0.74505805969E-08  0.93827000000E+00  0.93827000000E+00 0. -1.
     999902    2    1    2    0    0  0.30846196784E-02  0.12385431446E-02  0.23466033786E-01  0.10202297129E+01  0.10199543928E+01 0.  0.
     999903    2    3    3    0    0  0.78319519136E-01  0.57807690344E-01  0.88337999498E-01  0.13283536399E+00  0.19129966837E-01 0.  0.
         14    1    1    2    0    0 -0.30846196784E-02 -0.12385431446E-02 -0.23466033786E-01  0.23700287115E-01  0.00000000000E+00 0.  1.
     999901    1    3    3    0    0 -0.75234899458E-01 -0.56569147199E-01 -0.64871965712E-01  0.88739434889E+00  0.88000000000E+00 0. -1.
        -11    1    4    4    0    0  0.13589014857E-01  0.88041700502E-02  0.25321831626E-01  0.30060455967E-01  0.51100000000E-03 0.  1.
         11    1    4    4    0    0  0.64730504279E-01  0.49003520294E-01  0.63016167871E-01  0.10277490803E+00  0.51100000000E-03 0. -1.
</event>
<event>
 8    1  0.1143957E+005  0.1043930E+01  0.7957747E-01            NaN
         13   -1    0    0    0    0  0.00000000000E+00  0.00000000000E+00  0.74505805969E-08  0.10566000000E+00  0.10566000000E+00 0.  1.
     999900   -1    0    0    0    0 -0.00000000000E+00 -0.00000000000E+00 -0.74505805969E-08  0.93827000000E+00  0.93827000000E+00 0.  1.
     999902    2    1    2    0    0 -0.26891122251E-02 -0.15656384690E-01 -0.16227482752E-01  0.10212213034E+01  0.10209687877E+01 0.  0.
     999903    2    3    3    0    0 -0.92277216185E-01 -0.26942368336E-01  0.86245898781E-01  0.13068539970E+00  0.19983563264E-01 0.  0.
         14    1    1    2    0    0  0.26891122251E-02  0.15656384690E-01  0.16227482752E-01  0.22708696629E-01  0.00000000000E+00 0.  1.
     999901    1    3    3    0    0  0.89588103960E-01  0.11285983647E-01 -0.10247338153E+00  0.89053590367E+00  0.88000000000E+00 0.  1.
        -11    1    4    4    0    0 -0.23886693365E-01 -0.11012957291E-01  0.13478647980E-01  0.29560013880E-01  0.51100000000E-03 0. -1.
         11    1    4    4    0    0 -0.68390522820E-01 -0.15929411045E-01  0.72767250801E-01  0.10112538582E+00  0.51100000000E-03 0.  1.
</event>
<event>
 8    1  0.1143957E+005  0.1043930E+01  0.7957747E-01            NaN
         13   -1    0    0    0    0  0.00000000000E+00  0.00000000000E+00  0.74505805969E-08  0.10566000000E+00  0.10566000000E+00 0.  1.
     999900   -1    0    0    0    0 -0.00000000000E+00 -0.00000000000E+00 -0.74505805969E-08  0.93827000000E+00  0.93827000000E+00 0.  1.
     999902    2    1    2    0    0  0.75239045158E-02  0.17809362914E-01  0.14278728164E-01  0.10198953453E+01  0.10196121080E+01 0.  0.
     999903    2    3    3    0    0 -0.72085195564E-01  0.36963159912E-02  0.10791040983E+00  0.13124261299E+00  0.19236131178E-01 0.  0.
         14    1    1    2    0    0 -0.75239045158E-02 -0.17809362914E-01 -0.14278728164E-01  0.24034654658E-01  0.00000000000E+00 0. -1.
     999901    1    3    3    0    0  0.79609100080E-01  0.14113046923E-01 -0.93631681666E-01  0.88865273235E+00  0.88000000000E+00 0.  1.
        -11    1    4    4    0    0 -0.65588508111E-01 -0.79489147078E-03  0.87543632097E-01  0.10939210616E+00  0.51100000000E-03 0. -1.
         11    1    4    4    0    0 -0.64966874528E-02  0.44912074620E-02  0.20366777733E-01  0.21850506826E-01  0.51100000000E-03 0.  1.
</event>
<event>
 8    1  0.1143957E+005  0.1043930E+01  0.7957747E-01            NaN
         13   -1    0    0    0    0  0.00000000000E+00  0.00000000000E+00  0.74505805969E-08  0.10566000000E+00  0.10566000000E+00 0.  1.
     999900   -1    0    0    0    0 -0.00000000000E+00 -0.00000000000E+00 -0.74505805969E-08  0.93827000000E+00  0.93827000000E+00 0.  1.
     999902    2    1    2    0    0 -0.89804279280E-02  0.81355609654E-02  0.20269984491E-01  0.10203141640E+01  0.10200408254E+01 0.  0.
     999903    2    3    3    0    0 -0.14248179801E-01 -0.77648451176E-01  0.10404527898E+00  0.13216724716E+00  0.20260023339E-01 0.  0.
         14    1    1    2    0    0  0.89804279280E-02 -0.81355609654E-02 -0.20269984491E-01  0.23615835985E-01  0.00000000000E+00 0. -1.
     999901    1    3    3    0    0  0.52677518732E-02  0.85784012142E-01 -0.83775294493E-01  0.88814691685E+00  0.88000000000E+00 0.  1.
        -11    1    4    4    0    0  0.20686701485E-02 -0.42390752184E-01  0.58990696934E-01  0.72673370037E-01  0.51100000000E-03 0.  1.
         11    1    4    4    0    0 -0.16316849950E-01 -0.35257698993E-01  0.45054582050E-01  0.59493877124E-01  0.51100000000E-03 0. -1.
</event>
<event>
 8    1  0.1143957E+005  0.1043930E+01  0.7957747E-01            NaN
         13   -1    0    0    0    0  0.00000000000E+00  0.00000000000E+00  0.74505805969E-08  0.10566000000E+00  0.10566000000E+00 0. -1.
     999900   -1    0    0    0    0 -0.00000000000E+00 -0.00000000000E+00 -0.74505805969E-08  0.93827000000E+00  0.93827000000E+00 0.  1.
     999902    2    1    2    0    0  0.50836307746E-02  0.24448751252E-01 -0.15019356732E-02  0.10189131946E+01  0.10186060365E+01 0.  0.
     999903    2    3    3    0    0 -0.28101255120E-01 -0.37356154807E-01  0.11762077172E+00  0.12812068093E+00  0.19877125072E-01 0.  0.
         14    1    1    2    0    0 -0.50836307746E-02 -0.24448751252E-01  0.15019356732E-02  0.25016805360E-01  0.00000000000E+00 0.  1.
     999901    1    3    3    0    0  0.33184885895E-01  0.61804906059E-01 -0.11912270739E+00  0.89079251371E+00  0.88000000000E+00 0.  1.
        -11    1    4    4    0    0 -0.14267928838E-01 -0.23063570205E-01  0.42572065963E-01  0.50479144063E-01  0.51100000000E-03 0.  1.
         11    1    4    4    0    0 -0.13833326282E-01 -0.14292584602E-01  0.75048705755E-01  0.77641536868E-01  0.51100000000E-03 0. -1.
</event>
<event>
 8    1  0.1143957E+005  0.1043930E+01  0.7957747E-01            NaN
         13   -1    0    0    0    0  0.00000000000E+00  0.00000000000E+00  0.74505805969E-08  0.10566000000E+00  0.10566000000E+00 0.  1.
     999900   -1    0    0    0    0 -0.00000000000E+00 -0.00000000000E+00 -0.74505805969E-08  0.93827000000E+00  0.93827000000E+00 0. -1.
     999902    2    1    2    0    0 -0.74875350355E-02 -0.82534063366E-02 -0.20800132999E-01  0.10203328089E+01  0.10200599068E+01 0.  0.
     999903    2    3    3    0    0 -0.77852531249E-01  0.10233001033E+00  0.50461542576E-02  0.13024969178E+00  0.20175998131E-01 0.  0.
         14    1    1    2    0    0  0.74875350355E-02  0.82534063366E-02  0.20800132999E-01  0.23597191143E-01  0.00000000000E+00 0.  1.
     999901    1    3    3    0    0  0.70364996214E-01 -0.11058341667E+00 -0.25846287257E-01  0.89008311707E+00  0.88000000000E+00 0. -1.
        -11    1    4    4    0    0 -0.38556475643E-01  0.40505761964E-01  0.10053117082E-01  0.56821165514E-01  0.51100000000E-03 0.  1.
         11    1    4    4    0    0 -0.39296055606E-01  0.61824248368E-01 -0.50069628240E-02  0.73428526270E-01  0.51100000000E-03 0. -1.
</event>
<event>
 8    1  0.1143957E+005  0.1043930E+01  0.7957747E-01            NaN
         13   -1    0    0    0    0  0.00000000000E+00  0.00000000000E+00  0.74505805969E-08  0.10566000000E+00  0.10566000000E+00 0.  1.
     999900   -1    0    0    0    0 -0.00000000000E+00 -0.00000000000E+00 -0.74505805969E-08  0.93827000000E+00  0.93827000000E+00 0. -1.
     999902    2    1    2    0    0 -0.21738771736E-01 -0.95316482694E-02 -0.29642839878E-02  0.10200090156E+01  0.10197284827E+01 0.  0.
     999903    2    3    3    0    0 -0.10589531675E+00  0.72501470536E-01  0.22552973824E-01  0.13182948020E+00  0.20002346908E-01 0.  0.
         14    1    1    2    0    0  0.21738771736E-01  0.95316482694E-02  0.29642839878E-02  0.23920984405E-01  0.00000000000E+00 0.  1.
     999901    1    3    3    0    0  0.84156545014E-01 -0.82033118806E-01 -0.25517257812E-01  0.88817953540E+00  0.88000000000E+00 0. -1.
        -11    1    4    4    0    0 -0.59131630249E-01  0.30756336667E-01  0.55948892158E-02  0.66888458253E-01  0.51100000000E-03 0. -1.
         11    1    4    4    0    0 -0.46763686501E-01  0.41745133869E-01  0.16958084608E-01  0.64941021947E-01  0.51100000000E-03 0.  1.
</event>
<event>
 8    1  0.1143957E+005  0.1043930E+01  0.7957747E-01            NaN
         13   -1    0    0    0    0  0.00000000000E+00  0.00000000000E+00  0.74505805969E-08  0.10566000000E+00  0.10566000000E+00 0. -1.
     999900   -1    0    0    0    0 -0.00000000000E+00 -0.00000000000E+00 -0.74505805969E-08  0.93827000000E+00  0.93827000000E+00 0.  1.
     999902    2    1    2    0    0 -0.31102592637E-02  0.23129673272E-01  0.92577423076E-03  0.10205737898E+01  0.10203064970E+01 0.  0.
     999903    2    3    3    0    0 -0.43749244122E-01 -0.97416939082E-01 -0.69279180893E-01  0.12865913659E+00  0.18695243792E-01 0.  0.
         14    1    1    2    0    0  0.31102592637E-02 -0.23129673272E-01 -0.92577423076E-03  0.23356210230E-01  0.00000000000E+00 0. -1.
     999901    1    3    3    0    0  0.40638984859E-01  0.12054661235E+00  0.70204955124E-01  0.89191465318E+00  0.88000000000E+00 0. -1.
        -11    1    4    4    0    0 -0.14582933864E-01 -0.35285957076E-01 -0.14511426948E-01  0.40848541711E-01  0.51100000000E-03 0.  1.
         11    1    4    4    0    0 -0.29166310258E-01 -0.62130982006E-01 -0.54767753945E-01  0.87810594875E-01  0.51100000000E-03 0. -1.
</event>
<event>
 8    1  0.1143957E+005  0.1043930E+01  0.7957747E-01            NaN
         13   -1    0    0    0    0  0.00000000000E+00  0.00000000000E+00  0.74505805969E-08  0.10566000000E+00  0.10566000000E+00 0.  1.
     999900   -1    0    0    0    0 -0.00000000000E+00 -0.00000000000E+00 -0.74505805969E-08  0.93827000000E+00  0.93827000000E+00 0. -1.
     999902    2    1    2    0    0 -0.14251455675E-01  0.12680963707E-01 -0.14111197808E-01  0.10202016049E+01  0.10199256237E+01 0.  0.
     999903    2    3    3    0    0 -0.34772712462E-01  0.11146541633E+00  0.57406797775E-01  0.13155414178E+00  0.19423470810E-01 0.  0.
         14    1    1    2    0    0  0.14251455675E-01 -0.12680963707E-01  0.14111197808E-01  0.23728395078E-01  0.00000000000E+00 0.  1.
     999901    1    3    3    0    0  0.20521256788E-01 -0.98784452625E-01 -0.71517995583E-01  0.88864746314E+00  0.88000000000E+00 0. -1.
        -11    1    4    4    0    0 -0.16399097148E-01  0.78629870724E-01  0.44148914150E-01  0.91656831163E-01  0.51100000000E-03 0. -1.
         11    1    4    4    0    0 -0.18373615314E-01  0.32835545608E-01  0.13257883624E-01  0.39897310615E-01  0.51100000000E-03 0.  1.
</event>
<event>
 8    1  0.1143957E+005  0.1043930E+01  0.7957747E-01            NaN
         13   -1    0    0    0    0  0.00000000000E+00  0.00000000000E+00  0.74505805969E-08  0.10566000000E+00  0.10566000000E+00 0.  1.
     999900   -1    0    0    0    0 -0.00000000000E+00 -0.00000000000E+00 -0.74505805969E-08  0.93827000000E+00  0.93827000000E+00 0.  1.
     999902    2    1    2    0    0 -0.14319569620E-01  0.19073898895E-01 -0.41410132361E-02  0.10197223218E+01  0.10194349425E+01 0.  0.
     999903    2    3    3    0    0 -0.37316162156E-01  0.12049235423E-01  0.12259184103E+00  0.13031836098E+00  0.20406755982E-01 0.  0.
         14    1    1    2    0    0  0.14319569620E-01 -0.19073898895E-01  0.41410132361E-02  0.24207678199E-01  0.00000000000E+00 0. -1.
     999901    1    3    3    0    0  0.22996592536E-01  0.70246634722E-02 -0.12673285427E+00  0.88940396082E+00  0.88000000000E+00 0.  1.
        -11    1    4    4    0    0 -0.90034147604E-02  0.63222359007E-02  0.13277308538E-01  0.17250512664E-01  0.51100000000E-03 0. -1.
         11    1    4    4    0    0 -0.28312747396E-01  0.57269995225E-02  0.10931453249E+00  0.11306784832E+00  0.51100000000E-03 0.  1.
</event>
<event>
 8    1  0.1143957E+005  0.1043930E+01  0.7957747E-01            NaN
         13   -1    0    0    0    0  0.00000000000E+00  0.00000000000E+00  0.74505805969E-08  0.10566000000E+00  0.10566000000E+00 0.  1.
     999900   -1    0    0    0    0 -0.00000000000E+00 -0.00000000000E+00 -0.74505805969E-08  0.93827000000E+00  0.93827000000E+00 0.  1.
     999902    2    1    2    0    0 -0.12687068430E-01  0.55495088362E-02 -0.19225525733E-01  0.10202365496E+01  0.10199613902E+01 0.  0.
     999903    2    3    3    0    0 -0.93935161176E-01 -0.39975530776E-01 -0.82807340126E-01  0.13304072624E+00  0.20516376236E-01 0.  0.
         14    1    1    2    0    0  0.12687068430E-01 -0.55495088362E-02  0.19225525733E-01  0.23693450433E-01  0.00000000000E+00 0.  1.
     999901    1    3    3    0    0  0.81248092746E-01  0.45525039612E-01  0.63581814393E-01  0.88719582333E+00  0.88000000000E+00 0. -1.
        -11    1    4    4    0    0 -0.15545661885E-01 -0.52315476501E-02 -0.47422179547E-02  0.17081757708E-01  0.51100000000E-03 0.  1.
         11    1    4    4    0    0 -0.78389499291E-01 -0.34743983126E-01 -0.78065122172E-01  0.11595896853E+00  0.51100000000E-03 0. -1.
</event>
<event>
 8    1  0.1143957E+005  0.1043930E+01  0.7957747E-01            NaN
         13   -1    0    0    0    0  0.00000000000E+00  0.00000000000E+00  0.74505805969E-08  0.10566000000E+00  0.10566000000E+00 0. -1.
     999900   -1    0    0    0    0 -0.00000000000E+00 -0.00000000000E+00 -0.74505805969E-08  0.93827000000E+00  0.93827000000E+00 0.  1.
     999902    2    1    2    0    0  0.13948138529E-01 -0.83011183157E-02  0.16405573518E-01  0.10208518290E+01  0.10205909341E+01 0.  0.
     999903    2    3    3    0    0  0.85904120177E-02  0.71021529096E-01 -0.10509891597E+00  0.12895265949E+00  0.21567417042E-01 0.  0.
         14    1    1    2    0    0 -0.13948138529E-01  0.83011183157E-02 -0.16405573518E-01  0.23078170989E-01  0.00000000000E+00 0. -1.
     999901    1    3    3    0    0  0.53577265111E-02 -0.79322647412E-01  0.12150448949E+00  0.89189916952E+00  0.88000000000E+00 0. -1.
        -11    1    4    4    0    0 -0.44021869722E-02  0.33626000602E-01 -0.37094636568E-01  0.50262912269E-01  0.51100000000E-03 0. -1.
         11    1    4    4    0    0  0.12992598990E-01  0.37395528494E-01 -0.68004279402E-01  0.78689747222E-01  0.51100000000E-03 0.  1.
</event>
<event>
 8    1  0.1143957E+005  0.1043930E+01  0.7957747E-01            NaN
         13   -1    0    0    0    0  0.00000000000E+00  0.00000000000E+00  0.74505805969E-08  0.10566000000E+00  0.10566000000E+00 0. -1.
     999900   -1    0    0    0    0 -0.00000000000E+00 -0.00000000000E+00 -0.74505805969E-08  0.93827000000E+00  0.93827000000E+00 0. -1.
     999902    2    1    2    0    0  0.12554780023E-01  0.29927759062E-02 -0.18358927673E-01  0.10214883103E+01  0.10212417631E+01 0.  0.
     999903    2    3    3    0    0  0.37931011948E-01 -0.47876231115E-01 -0.11765971544E+00  0.13408070644E+00  0.20073166901E-01 0.  0.
         14    1    1    2    0    0 -0.12554780023E-01 -0.29927759062E-02  0.18358927673E-01  0.22441689650E-01  0.00000000000E+00 0. -1.
     999901    1    3    3    0    0 -0.25376231924E-01  0.50869007021E-01  0.99300787768E-01  0.88740760391E+00  0.88000000000E+00 0.  1.
        -11    1    4    4    0    0  0.52564791244E-03  0.37638520560E-03 -0.12157861558E-01  0.12185757679E-01  0.51100000000E-03 0. -1.
         11    1    4    4    0    0  0.37405364035E-01 -0.48252616320E-01 -0.10550185388E+00  0.12189494876E+00  0.51100000000E-03 0.  1.
</event>
<event>
 8    1  0.1143957E+005  0.1043930E+01  0.7957747E-01            NaN
         13   -1    0    0    0    0  0.00000000000E+00  0.00000000000E+00  0.74505805969E-08  0.10566000000E+00  0.10566000000E+00 0. -1.
     999900   -1    0    0    0    0 -0.00000000000E+00 -0.00000000000E+00 -0.74505805969E-08  0.93827000000E+00  0.93827000000E+00 0. -1.
     999902    2    1    2    0    0 -0.16182195271E-01  0.18292594903E-01  0.55784437989E-03  0.10195006393E+01  0.10192079081E+01 0.  0.
     999903    2    3    3    0    0 -0.80331131356E-01  0.10381586813E+00 -0.57873318001E-02  0.13300778684E+00  0.20658001126E-01 0.  0.
         14    1    1    2    0    0  0.16182195271E-01 -0.18292594903E-01 -0.55784437989E-03  0.24429360663E-01  0.00000000000E+00 0. -1.
     999901    1    3    3    0    0  0.64148936084E-01 -0.85523273228E-01  0.63451761800E-02  0.88649285250E+00  0.88000000000E+00 0.  1.
        -11    1    4    4    0    0 -0.31295023068E-01  0.39586406535E-01  0.77979689687E-02  0.51063994088E-01  0.51100000000E-03 0.  1.
         11    1    4    4    0    0 -0.49036108288E-01  0.64229461596E-01 -0.13585300769E-01  0.81943792754E-01  0.51100000000E-03 0. -1.
</event>
<event>
 8    1  0.1143957E+005  0.1043930E+01  0.7957747E-01            NaN
         13   -1    0    0    0    0  0.00000000000E+00  0.00000000000E+00  0.74505805969E-08  0.10566000000E+00  0.10566000000E+00 0.  1.
     999900   -1    0    0    0    0 -0.00000000000E+00 -0.00000000000E+00 -0.74505805969E-08  0.93827000000E+00  0.93827000000E+00 0.  1.
     999902    2    1    2    0    0 -0.20593709149E-01 -0.17388867203E-04 -0.46736626124E-02  0.10228126071E+01  0.10225945849E+01 0.  0.
     999903    2    3    3    0    0  0.94907269661E-01  0.87039349627E-01 -0.14148943994E-01  0.13095548138E+00  0.19128702730E-01 0.  0.
         14    1    1    2    0    0  0.20593709149E-01  0.17388867203E-04  0.46736626124E-02  0.21117392858E-01  0.00000000000E+00 0.  1.
     999901    1    3    3    0    0 -0.11550097881E+00 -0.87056738494E-01  0.94752813818E-02  0.89185712577E+00  0.88000000000E+00 0. -1.
        -11    1    4    4    0    0  0.39941251325E-01  0.24215255187E-01 -0.48679513357E-02  0.46964243977E-01  0.51100000000E-03 0.  1.
         11    1    4    4    0    0  0.54966018337E-01  0.62824094440E-01 -0.92809926585E-02  0.83991237399E-01  0.51100000000E-03 0. -1.
</event>
<event>
 8    1  0.1143957E+005  0.1043930E+01  0.7957747E-01            NaN
         13   -1    0    0    0    0  0.00000000000E+00  0.00000000000E+00  0.74505805969E-08  0.10566000000E+00  0.10566000000E+00 0.  1.
     999900   -1    0    0    0    0 -0.00000000000E+00 -0.00000000000E+00 -0.74505805969E-08  0.93827000000E+00  0.93827000000E+00 0.  1.
     999902    2    1    2    0    0  0.13420284292E-01  0.27602200704E-02 -0.18791156364E-01  0.10206742394E+01  0.10204092672E+01 0.  0.
     999903    2    3    3    0    0 -0.10809995009E+00  0.35050476503E-01  0.56296906824E-01  0.12857108095E+00  0.21143462950E-01 0.  0.
         14    1    1    2    0    0 -0.13420284292E-01 -0.27602200704E-02  0.18791156364E-01  0.23255760637E-01  0.00000000000E+00 0.  1.
     999901    1    3    3    0    0  0.12152023438E+00 -0.32290256433E-01 -0.75088063188E-01  0.89210315842E+00  0.88000000000E+00 0. -1.
        -11    1    4    4    0    0 -0.71990312828E-01  0.22581856360E-01  0.25978722196E-01  0.79797872815E-01  0.51100000000E-03 0. -1.
         11    1    4    4    0    0 -0.36109637260E-01  0.12468620143E-01  0.30318184628E-01  0.48773208131E-01  0.51100000000E-03 0.  1.
</event>
<event>
 8    1  0.1143957E+005  0.1043930E+01  0.7957747E-01            NaN
         13   -1    0    0    0    0  0.00000000000E+00  0.00000000000E+00  0.74505805969E-08  0.10566000000E+00  0.10566000000E+00 0. -1.
     999900   -1    0    0    0    0 -0.00000000000E+00 -0.00000000000E+00 -0.74505805969E-08  0.93827000000E+00  0.93827000000E+00 0.  1.
     999902    2    1    2    0    0  0.10247064290E-01  0.21533871686E-01 -0.26628452475E-02  0.10199341524E+01  0.10196518399E+01 0.  0.
     999903    2    3    3    0    0 -0.33519712304E-02  0.25304662140E-01  0.12633426999E+00  0.13041776226E+00  0.19921930179E-01 0.  0.
         14    1    1    2    0    0 -0.10247064290E-01 -0.21533871686E-01  0.26628452475E-02  0.23995847582E-01  0.00000000000E+00 0.  1.
     999901    1    3    3    0    0  0.13599035520E-01 -0.37707904534E-02 -0.12899711523E+00  0.88951639016E+00  0.88000000000E+00 0.  1.
        -11    1    4    4    0    0  0.28977966455E-02  0.88703264868E-02  0.84784425510E-01  0.85297947498E-01  0.51100000000E-03 0.  1.
         11    1    4    4    0    0 -0.62497678759E-02  0.16434335653E-01  0.41549844476E-01  0.45119814758E-01  0.51100000000E-03 0. -1.
</event>
<event>
 8    1  0.1143957E+005  0.1043930E+01  0.7957747E-01            NaN
         13   -1    0    0    0    0  0.00000000000E+00  0.00000000000E+00  0.74505805969E-08  0.10566000000E+00  0.10566000000E+00 0. -1.
     999900   -1    0    0    0    0 -0.00000000000E+00 -0.00000000000E+00 -0.74505805969E-08  0.93827000000E+00  0.93827000000E+00 0. -1.
     999902    2    1    2    0    0  0.19601735739E-01 -0.75780341479E-02  0.11385417819E-01  0.10200284857E+01  0.10197484147E+01 0.  0.
     999903    2    3    3    0    0 -0.10734418309E+00 -0.54487267441E-01  0.42286996603E-01  0.12914653505E+00  0.19975021328E-01 0.  0.
         14    1    1    2    0    0 -0.19601735739E-01  0.75780341479E-02 -0.11385417819E-01  0.23901514271E-01  0.00000000000E+00 0.  1.
     999901    1    3    3    0    0  0.12694591883E+00  0.46909233293E-01 -0.30901578784E-01  0.89088195068E+00  0.88000000000E+00 0. -1.
        -11    1    4    4    0    0 -0.81677939781E-01 -0.47209799739E-01  0.25895016986E-01  0.97830793025E-01  0.51100000000E-03 0. -1.
         11    1    4    4    0    0 -0.25666243309E-01 -0.72774677027E-02  0.16391979617E-01  0.31315742024E-01  0.51100000000E-03 0.  1.
</event>
<event>
 8    1  0.1143957E+005  0.1043930E+01  0.7957747E-01            NaN
         13   -1    0    0    0    0  0.00000000000E+00  0.00000000000E+00  0.74505805969E-08  0.10566000000E+00  0.10566000000E+00 0. -1.
     999900   -1    0    0    0    0 -0.00000000000E+00 -0.00000000000E+00 -0.74505805969E-08  0.93827000000E+00  0.93827000000E+00 0.  1.
     999902    2    1    2    0    0 -0.16957350651E-01 -0.17021528330E-01  0.36972233355E-02  0.10196204622E+01  0.10193306300E+01 0.  0.
     999903    2    3    3    0    0 -0.41557332381E-01 -0.12229064514E+00 -0.20899807472E-01  0.13266400330E+00  0.21929935185E-01 0.  0.
         14    1    1    2    0    0  0.16957350651E-01  0.17021528330E-01 -0.36972233355E-02  0.24309537803E-01  0.00000000000E+00 0.  1.
     999901    1    3    3    0    0  0.24599981730E-01  0.10526911681E+00  0.24597030808E-01  0.88695645890E+00  0.88000000000E+00 0.  1.
        -11    1    4    4    0    0 -0.14303828612E-01 -0.75594501012E-01 -0.12299964820E-01  0.77914558022E-01  0.51100000000E-03 0.  1.
         11    1    4    4    0    0 -0.27253503770E-01 -0.46696144123E-01 -0.85998426521E-02  0.54749445279E-01  0.51100000000E-03 0. -1.
</event>
<event>
 8    1  0.1143957E+005  0.1043930E+01  0.7957747E-01            NaN
         13   -1    0    0    0    0  0.00000000000E+00  0.00000000000E+00  0.74505805969E-08  0.10566000000E+00  0.10566000000E+00 0.  1.
     999900   -1    0    0    0    0 -0.00000000000E+00 -0.00000000000E+00 -0.74505805969E-08  0.93827000000E+00  0.93827000000E+00 0.  1.
     999902    2    1    2    0    0 -0.24239181985E-01  0.19802214321E-02  0.46831792562E-02  0.10191632604E+01  0.10188622871E+01 0.  0.
     999903    2    3    3    0    0 -0.67078909111E-01 -0.70849125186E-01 -0.84511104876E-01  0.13062796218E+00  0.20058889990E-01 0.  0.
         14    1    1    2    0    0  0.24239181985E-01 -0.19802214321E-02 -0.46831792562E-02  0.24766739555E-01  0.00000000000E+00 0.  1.
     999901    1    3    3    0    0  0.42839727126E-01  0.72829346618E-01  0.89194284132E-01  0.88853529827E+00  0.88000000000E+00 0. -1.
        -11    1    4    4    0    0 -0.48787826966E-01 -0.41093813109E-01 -0.46074277748E-01  0.78689603677E-01  0.51100000000E-03 0. -1.
         11    1    4    4    0    0 -0.18291082145E-01 -0.29755312077E-01 -0.38436827128E-01  0.51938358498E-01  0.51100000000E-03 0.  1.
</event>
<event>
 8    1  0.1143957E+005  0.1043930E+01  0.7957747E-01            NaN
         13   -1    0    0    0    0  0.00000000000E+00  0.00000000000E+00  0.74505805969E-08  0.10566000000E+00  0.10566000000E+00 0. -1.
     999900   -1    0    0    0    0 -0.00000000000E+00 -0.00000000000E+00 -0.74505805969E-08  0.93827000000E+00  0.93827000000E+00 0.  1.
     999902    2    1    2    0    0 -0.42824981693E-02  0.17511968148E-01  0.14695241470E-01  0.10206714760E+01  0.10204064400E+01 0.  0.
     999903    2    3    3    0    0 -0.10693253649E+00  0.60907366369E-01  0.46455600038E-01  0.13307420729E+00  0.20158056281E-01 0.  0.
         14    1    1    2    0    0  0.42824981693E-02 -0.17511968148E-01 -0.14695241470E-01  0.23258524047E-01  0.00000000000E+00 0.  1.
     999901    1    3    3    0    0  0.10265003832E+00 -0.43395398220E-01 -0.31760358569E-01  0.88759726866E+00  0.88000000000E+00 0. -1.
        -11    1    4    4    0    0 -0.18920673969E-01  0.53382075656E-02  0.13650384642E-01  0.23939141282E-01  0.51100000000E-03 0. -1.
         11    1    4    4    0    0 -0.88011862525E-01  0.55569158803E-01  0.32805215396E-01  0.10913506601E+00  0.51100000000E-03 0.  1.
</event>
<event>
 8    1  0.1143957E+005  0.1043930E+01  0.7957747E-01            NaN
         13   -1    0    0    0    0  0.00000000000E+00  0.00000000000E+00  0.74505805969E-08  0.10566000000E+00  0.10566000000E+00 0. -1.
     999900   -1    0    0    0    0 -0.00000000000E+00 -0.00000000000E+00 -0.74505805969E-08  0.93827000000E+00  0.93827000000E+00 0.  1.
     999902    2    1    2    0    0 -0.11154845667E-01 -0.94339873327E-03 -0.21302916728E-01  0.10198647794E+01  0.10195808126E+01 0.  0.
     999903    2    3    3    0    0 -0.10048095508E+00  0.62448599554E-01  0.50796659938E-01  0.13014794339E+00  0.19024631042E-01 0.  0.
         14    1    1    2    0    0  0.11154845667E-01  0.94339873327E-03  0.21302916728E-01  0.24065220633E-01  0.00000000000E+00 0. -1.
     999901    1    3    3    0    0  0.89326109416E-01 -0.63391998287E-01 -0.72099576666E-01  0.88971683598E+00  0.88000000000E+00 0.  1.
        -11    1    4    4    0    0 -0.53250362772E-01  0.41188851647E-01  0.35660467433E-01  0.76184333651E-01  0.51100000000E-03 0.  1.
         11    1    4    4    0    0 -0.47230592311E-01  0.21259747907E-01  0.15136192505E-01  0.53963609736E-01  0.51100000000E-03 0. -1.
</event>
<event>
 8    1  0.1143957E+005  0.1043930E+01  0.7957747E-01            NaN
         13   -1    0    0    0    0  0.00000000000E+00  0.00000000000E+00  0.74505805969E-08  0.10566000000E+00  0.10566000000E+00 0. -1.
     999900   -1    0    0    0    0 -0.00000000000E+00 -0.00000000000E+00 -0.74505805969E-08  0.93827000000E+00  0.93827000000E+00 0.  1.
     999902    2    1    2    0    0  0.22926383847E-01 -0.20485266899E-02 -0.61718336075E-02  0.10200991992E+01  0.10198208024E+01 0.  0.
     999903    2    3    3    0    0 -0.84572459889E-01  0.31289689644E-01 -0.90026919926E-01  0.12897680939E+00  0.19965605416E-01 0.  0.
         14    1    1    2    0    0 -0.22926383847E-01  0.20485266899E-02  0.61718336075E-02  0.23830800825E-01  0.00000000000E+00 0. -1.
     999901    1    3    3    0    0  0.10749884374E+00 -0.33338216334E-01  0.83855086319E-01  0.89112238978E+00  0.88000000000E+00 0.  1.
        -11    1    4    4    0    0 -0.78486510693E-01  0.33846699844E-01 -0.80804692645E-01  0.11762393857E+00  0.51100000000E-03 0.  1.
         11    1    4    4    0    0 -0.60859491961E-02 -0.25570101997E-02 -0.92222272808E-02  0.11352870817E-01  0.51100000000E-03 0. -1.
</event>
<event>
 8    1  0.1143957E+005  0.1043930E+01  0.7957747E-01            NaN
         13   -1    0    0    0    0  0.00000000000E+00  0.00000000000E+00  0.74505805969E-08  0.10566000000E+00  0.10566000000E+00 0.  1.
     999900   -1    0    0    0    0 -0.00000000000E+00 -0.00000000000E+00 -0.74505805969E-08  0.93827000000E+00  0.93827000000E+00 0.  1.
     999902    2    1    2    0    0 -0.12592854121E-01  0.26569453502E-02  0.20637043064E-01  0.10196086744E+01  0.10193185577E+01 0.  0.
     999903    2    3    3    0    0 -0.54383091760E-01  0.11761447733E+00  0.16812200670E-02  0.13094620677E+00  0.18798846175E-01 0.  0.
         14    1    1    2    0    0  0.12592854121E-01 -0.26569453502E-02 -0.20637043064E-01  0.24321325620E-01  0.00000000000E+00 0. -1.
     999901    1    3    3    0    0  0.41790237639E-01 -0.11495753198E+00  0.18955822997E-01  0.88866246761E+00  0.88000000000E+00 0.  1.
        -11    1    4    4    0    0 -0.20917138126E-01  0.67404336903E-01 -0.87542543407E-04  0.70577192388E-01  0.51100000000E-03 0.  1.
         11    1    4    4    0    0 -0.33465953634E-01  0.50210140431E-01  0.17687626104E-02  0.60369014377E-01  0.51100000000E-03 0. -1.
</event>
<event>
 8    1  0.1143957E+005  0.1043930E+01  0.7957747E-01            NaN
         13   -1    0    0    0    0  0.00000000000E+00  0.00000000000E+00  0.74505805969E-08  0.10566000000E+00  0.10566000000E+00 0.  1.
     999900   -1    0    0    0    0 -0.00000000000E+00 -0.00000000000E+00 -0.74505805969E-08  0.93827000000E+00  0.93827000000E+00 0. -1.
     999902    2    1    2    0    0  0.87294828308E-02 -0.17129095307E-02  0.20663171552E-01  0.10214332316E+01  0.10211854592E+01 0.  0.
     999903    2    3    3    0    0 -0.19409795508E-01 -0.12445379199E+00  0.22179075256E-01  0.13246785479E+00  0.34501227111E-01 0.  0.
         14    1    1    2    0    0 -0.87294828308E-02  0.17129095307E-02 -0.20663171552E-01  0.22496768393E-01  0.00000000000E+00 0. -1.
     999901    1    3    3    0    0  0.28139278338E-01  0.12274088246E+00 -0.15159037046E-02  0.88896537682E+00  0.88000000000E+00 0.  1.
        -11    1    4    4    0    0 -0.25615853452E-01 -0.11779772975E+00  0.16367237744E-01  0.12165781797E+00  0.51100000000E-03 0.  1.
         11    1    4    4    0    0  0.62060579443E-02 -0.66560622420E-02  0.58118375125E-02  0.10810036820E-01  0.51100000000E-03 0. -1.
</event>
<event>
 8    1  0.1143957E+005  0.1043930E+01  0.7957747E-01            NaN
         13   -1    0    0    0    0  0.00000000000E+00  0.00000000000E+00  0.74505805969E-08  0.10566000000E+00  0.10566000000E+00 0.  1.
     999900   -1    0    0    0    0 -0.00000000000E+00 -0.00000000000E+00 -0.74505805969E-08  0.93827000000E+00  0.93827000000E+00 0. -1.
     999902    2    1    2    0    0 -0.47318309358E-02  0.72728594386E-02 -0.22374734300E-01  0.10199318033E+01  0.10196494349E+01 0.  0.
     999903    2    3    3    0    0 -0.34396319725E-02 -0.11375185624E+00 -0.61255224319E-01  0.13079719930E+00  0.20109424945E-01 0.  0.
         14    1    1    2    0    0  0.47318309358E-02 -0.72728594386E-02  0.22374734300E-01  0.23998196670E-01  0.00000000000E+00 0.  1.
     999901    1    3    3    0    0 -0.12921989633E-02  0.12102471568E+00  0.38880490019E-01  0.88913460403E+00  0.88000000000E+00 0. -1.
        -11    1    4    4    0    0  0.84425973784E-03 -0.97063459513E-01 -0.58521166362E-01  0.11334467778E+00  0.51100000000E-03 0. -1.
         11    1    4    4    0    0 -0.42838917103E-02 -0.16688396727E-01 -0.27340579572E-02  0.17452521520E-01  0.51100000000E-03 0.  1.
</event>
<event>
 8    1  0.1143957E+005  0.1043930E+01  0.7957747E-01            NaN
         13   -1    0    0    0    0  0.00000000000E+00  0.00000000000E+00  0.74505805969E-08  0.10566000000E+00  0.10566000000E+00 0. -1.
     999900   -1    0    0    0    0 -0.00000000000E+00 -0.00000000000E+00 -0.74505805969E-08  0.93827000000E+00  0.93827000000E+00 0. -1.
     999902    2    1    2    0    0  0.11863725337E-01  0.12043371833E-01  0.15236592276E-01  0.10211716053E+01  0.10209179707E+01 0.  0.
     999903    2    3    3    0    0 -0.10431295888E+00  0.45495192975E-01  0.63105644926E-01  0.13161694568E+00  0.19740617915E-01 0.  0.
         14    1    1    2    0    0 -0.11863725337E-01 -0.12043371833E-01 -0.15236592276E-01  0.22758394674E-01  0.00000000000E+00 0.  1.
     999901    1    3    3    0    0  0.11617668421E+00 -0.33451821142E-01 -0.47869052650E-01  0.88955465964E+00  0.88000000000E+00 0. -1.
        -11    1    4    4    0    0 -0.80529175176E-01  0.25792841874E-01  0.44447708072E-01  0.95530511463E-01  0.51100000000E-03 0.  1.
         11    1    4    4    0    0 -0.23783783701E-01  0.19702351101E-01  0.18657936854E-01  0.36086434219E-01  0.51100000000E-03 0. -1.
</event>
<event>
 8    1  0.1143957E+005  0.1043930E+01  0.7957747E-01            NaN
         13   -1    0    0    0    0  0.00000000000E+00  0.00000000000E+00  0.74505805969E-08  0.10566000000E+00  0.10566000000E+00 0.  1.
     999900   -1    0    0    0    0 -0.00000000000E+00 -0.00000000000E+00 -0.74505805969E-08  0.93827000000E+00  0.93827000000E+00 0. -1.
     999902    2    1    2    0    0 -0.14201903075E-01  0.10070449596E-01 -0.15919750750E-01  0.10203387629E+01  0.10200660001E+01 0.  0.
     999903    2    3    3    0    0 -0.33036620488E-02  0.12078481133E+00  0.46646531154E-01  0.13113069880E+00  0.20481124673E-01 0.  0.
         14    1    1    2    0    0  0.14201903075E-01 -0.10070449596E-01  0.15919750750E-01  0.23591237143E-01  0.00000000000E+00 0.  1.
     999901    1    3    3    0    0 -0.10898241026E-01 -0.11071436174E+00 -0.62566281904E-01  0.88920806406E+00  0.88000000000E+00 0. -1.
        -11    1    4    4    0    0  0.26423297114E-02  0.22715028706E-01  0.12753460882E-02  0.22909431771E-01  0.51100000000E-03 0.  1.
         11    1    4    4    0    0 -0.59459917602E-02  0.98069782625E-01  0.45371185065E-01  0.10822126703E+00  0.51100000000E-03 0. -1.
</event>
<event>
 8    1  0.1143957E+005  0.1043930E+01  0.7957747E-01            NaN
         13   -1    0    0    0    0  0.00000000000E+00  0.00000000000E+00  0.74505805969E-08  0.10566000000E+00  0.10566000000E+00 0. -1.
     999900   -1    0    0    0    0 -0.00000000000E+00 -0.00000000000E+00 -0.74505805969E-08  0.93827000000E+00  0.93827000000E+00 0. -1.
     999902    2    1    2    0    0  0.72665790140E-02 -0.16006258652E-01 -0.22900557440E-01  0.10150606561E+01  0.10146500365E+01 0.  0.
     999903    2    3    3    0    0 -0.69256190695E-01  0.69168491018E-01  0.71207978711E-01  0.12266674708E+00  0.19896092778E-01 0.  0.
         14    1    1    2    0    0 -0.72665790140E-02  0.16006258652E-01  0.22900557440E-01  0.28869343908E-01  0.00000000000E+00 0. -1.
     999901    1    3    3    0    0  0.76522769709E-01 -0.85174749670E-01 -0.94108536151E-01  0.89239390901E+00  0.88000000000E+00 0. -1.
        -11    1    4    4    0    0 -0.45621219400E-01  0.31732987666E-01  0.38066109571E-01  0.67361472554E-01  0.51100000000E-03 0. -1.
         11    1    4    4    0    0 -0.23634971295E-01  0.37435503352E-01  0.33141869140E-01  0.55305274526E-01  0.51100000000E-03 0.  1.
</event>
<event>
 8    1  0.1143957E+005  0.1043930E+01  0.7957747E-01            NaN
         13   -1    0    0    0    0  0.00000000000E+00  0.00000000000E+00  0.74505805969E-08  0.10566000000E+00  0.10566000000E+00 0.  1.
     999900   -1    0    0    0    0 -0.00000000000E+00 -0.00000000000E+00 -0.74505805969E-08  0.93827000000E+00  0.93827000000E+00 0.  1.
     999902    2    1    2    0    0 -0.16421648362E-01 -0.13233372989E-01  0.22898736513E-01  0.10127989090E+01  0.10123203471E+01 0.  0.
     999903    2    3    3    0    0  0.97168345339E-01  0.69353332787E-01  0.12066387837E-01  0.12159714144E+00  0.19715349034E-01 0.  0.
         14    1    1    2    0    0  0.16421648362E-01  0.13233372989E-01 -0.22898736513E-01  0.31131091043E-01  0.00000000000E+00 0. -1.
     999901    1    3    3    0    0 -0.11358999370E+00 -0.82586705776E-01  0.10832348677E-01  0.89120176751E+00  0.88000000000E+00 0.  1.
        -11    1    4    4    0    0  0.58926173879E-01  0.53491110765E-01  0.73194159111E-02  0.79921385556E-01  0.51100000000E-03 0. -1.
         11    1    4    4    0    0  0.38242171460E-01  0.15862222022E-01  0.47469719255E-02  0.41675755889E-01  0.51100000000E-03 0.  1.
</event>
<event>
 8    1  0.1143957E+005  0.1043930E+01  0.7957747E-01            NaN
         13   -1    0    0    0    0  0.00000000000E+00  0.00000000000E+00  0.74505805969E-08  0.10566000000E+00  0.10566000000E+00 0.  1.
     999900   -1    0    0    0    0 -0.00000000000E+00 -0.00000000000E+00 -0.74505805969E-08  0.93827000000E+00  0.93827000000E+00 0.  1.
     999902    2    1    2    0    0  0.30299884176E-03  0.21037462520E-01 -0.12510128337E-01  0.10194520518E+01  0.10191581408E+01 0.  0.
     999903    2    3    3    0    0  0.10062167345E+00 -0.31965409218E-02 -0.81295967602E-01  0.13075490704E+00  0.18784896185E-01 0.  0.
         14    1    1    2    0    0 -0.30299884176E-03 -0.21037462520E-01  0.12510128337E-01  0.24477948210E-01  0.00000000000E+00 0. -1.
     999901    1    3    3    0    0 -0.10031867461E+00  0.24234003442E-01  0.68785839265E-01  0.88869714475E+00  0.88000000000E+00 0. -1.
        -11    1    4    4    0    0  0.62866443970E-01  0.49879422046E-02 -0.42822920275E-01  0.76230787525E-01  0.51100000000E-03 0. -1.
         11    1    4    4    0    0  0.37755229485E-01 -0.81844831264E-02 -0.38473047327E-01  0.54524119517E-01  0.51100000000E-03 0.  1.
</event>
<event>
 8    1  0.1143957E+005  0.1043930E+01  0.7957747E-01            NaN
         13   -1    0    0    0    0  0.00000000000E+00  0.00000000000E+00  0.74505805969E-08  0.10566000000E+00  0.10566000000E+00 0.  1.
     999900   -1    0    0    0    0 -0.00000000000E+00 -0.00000000000E+00 -0.74505805969E-08  0.93827000000E+00  0.93827000000E+00 0.  1.
     999902    2    1    2    0    0 -0.16859284113E-01  0.14286876670E-01 -0.94873412940E-02  0.10198808846E+01  0.10195973023E+01 0.  0.
     999903    2    3    3    0    0 -0.10188441963E+00 -0.79572033482E-01  0.17086888374E-02  0.13074415735E+00  0.19467192641E-01 0.  0.
         14    1    1    2    0    0  0.16859284113E-01 -0.14286876670E-01  0.94873412940E-02  0.24049115381E-01  0.00000000000E+00 0.  1.
     999901    1    3    3    0    0  0.85025135512E-01  0.93858910152E-01 -0.11196030131E-01  0.88913672727E+00  0.88000000000E+00 0. -1.
        -11    1    4    4    0    0 -0.67282300807E-01 -0.59815054797E-01 -0.57189283815E-02  0.90209290237E-01  0.51100000000E-03 0. -1.
         11    1    4    4    0    0 -0.34602118818E-01 -0.19756978685E-01  0.74276172189E-02  0.40534867115E-01  0.51100000000E-03 0.  1.
</event>
<event>
 8    1  0.1143957E+005  0.1043930E+01  0.7957747E-01            NaN
         13   -1    0    0    0    0  0.00000000000E+00  0.00000000000E+00  0.74505805969E-08  0.10566000000E+00  0.10566000000E+00 0. -1.
     999900   -1    0    0    0    0 -0.00000000000E+00 -0.00000000000E+00 -0.74505805969E-08  0.93827000000E+00  0.93827000000E+00 0.  1.
     999902    2    1    2    0    0 -0.17443760000E-01  0.11230379806E-01 -0.11643255281E-01  0.10201398426E+01  0.10198624059E+01 0.  0.
     999903    2    3    3    0    0 -0.51079450639E-01 -0.47898397384E-01  0.10705966549E+00  0.12956814122E+00  0.20561237685E-01 0.  0.
         14    1    1    2    0    0  0.17443760000E-01 -0.11230379806E-01  0.11643255281E-01  0.23790157357E-01  0.00000000000E+00 0. -1.
     999901    1    3    3    0    0  0.33635690639E-01  0.59128777190E-01 -0.11870292077E+00  0.89057170142E+00  0.88000000000E+00 0.  1.
        -11    1    4    4    0    0 -0.80374316571E-02 -0.70523618214E-02  0.32851554848E-01  0.34551727769E-01  0.51100000000E-03 0. -1.
         11    1    4    4    0    0 -0.43042018982E-01 -0.40846035563E-01  0.74208110640E-01  0.95016413451E-01  0.51100000000E-03 0.  1.
</event>
<event>
 8    1  0.1143957E+005  0.1043930E+01  0.7957747E-01            NaN
         13   -1    0    0    0    0  0.00000000000E+00  0.00000000000E+00  0.74505805969E-08  0.10566000000E+00  0.10566000000E+00 0.  1.
     999900   -1    0    0    0    0 -0.00000000000E+00 -0.00000000000E+00 -0.74505805969E-08  0.93827000000E+00  0.93827000000E+00 0. -1.
     999902    2    1    2    0    0  0.20237538054E-01  0.12564011614E-01 -0.11622770333E-02  0.10200812428E+01  0.10198024214E+01 0.  0.
     999903    2    3    3    0    0  0.99052778839E-01 -0.64091751789E-01  0.54451805278E-01  0.13149760888E+00  0.20184558424E-01 0.  0.
         14    1    1    2    0    0 -0.20237538054E-01 -0.12564011614E-01  0.11622770333E-02  0.23848757248E-01  0.00000000000E+00 0.  1.
     999901    1    3    3    0    0 -0.78815240785E-01  0.76655763403E-01 -0.55614082311E-01  0.88858363388E+00  0.88000000000E+00 0.  1.
        -11    1    4    4    0    0  0.44665119033E-01 -0.17625056979E-01  0.24978742756E-01  0.54127758150E-01  0.51100000000E-03 0.  1.
         11    1    4    4    0    0  0.54387659807E-01 -0.46466694810E-01  0.29473062522E-01  0.77369850725E-01  0.51100000000E-03 0. -1.
</event>
<event>
 8    1  0.1143957E+005  0.1043930E+01  0.7957747E-01            NaN
         13   -1    0    0    0    0  0.00000000000E+00  0.00000000000E+00  0.74505805969E-08  0.10566000000E+00  0.10566000000E+00 0. -1.
     999900   -1    0    0    0    0 -0.00000000000E+00 -0.00000000000E+00 -0.74505805969E-08  0.93827000000E+00  0.93827000000E+00 0.  1.
     999902    2    1    2    0    0 -0.22057817043E-01  0.14291014439E-02  0.10089902281E-01  0.10196319393E+01  0.10193423841E+01 0.  0.
     999903    2    3    3    0    0 -0.72103339430E-01  0.38780569787E-01 -0.99742317843E-01  0.13060842836E+00  0.20179381577E-01 0.  0.
         14    1    1    2    0    0  0.22057817043E-01 -0.14291014439E-02 -0.10089902281E-01  0.24298060657E-01  0.00000000000E+00 0.  1.
     999901    1    3    3    0    0  0.50045522387E-01 -0.37351468343E-01  0.10983222012E+00  0.88902351098E+00  0.88000000000E+00 0. -1.
        -11    1    4    4    0    0 -0.22259479444E-01  0.11540568415E-01 -0.46095962141E-01  0.52476356497E-01  0.51100000000E-03 0. -1.
         11    1    4    4    0    0 -0.49843859986E-01  0.27240001372E-01 -0.53646355702E-01  0.78132071866E-01  0.51100000000E-03 0.  1.
</event>
<event>
 8    1  0.1143957E+005  0.1043930E+01  0.7957747E-01            NaN
         13   -1    0    0    0    0  0.00000000000E+00  0.00000000000E+00  0.74505805969E-08  0.10566000000E+00  0.10566000000E+00 0. -1.
     999900   -1    0    0    0    0 -0.00000000000E+00 -0.00000000000E+00 -0.74505805969E-08  0.93827000000E+00  0.93827000000E+00 0. -1.
     999902    2    1    2    0    0  0.17873303427E-01 -0.91398935732E-02 -0.12146423563E-01  0.10204666619E+01  0.10201968829E+01 0.  0.
     999903    2    3    3    0    0  0.39385112000E-01 -0.53558766617E-01 -0.11376397829E+00  0.13324520046E+00  0.19806871564E-01 0.  0.
         14    1    1    2    0    0 -0.17873303427E-01  0.91398935732E-02  0.12146423563E-01  0.23463338111E-01  0.00000000000E+00 0. -1.
     999901    1    3    3    0    0 -0.21511808574E-01  0.44418873043E-01  0.10161755472E+00  0.88722146143E+00  0.88000000000E+00 0.  1.
        -11    1    4    4    0    0  0.25084018268E-01 -0.34922790396E-01 -0.90418492079E-01  0.10012279507E+00  0.51100000000E-03 0. -1.
         11    1    4    4    0    0  0.14301093733E-01 -0.18635976220E-01 -0.23345486209E-01  0.33122405393E-01  0.51100000000E-03 0.  1.
</event>
<event>
 8    1  0.1143957E+005  0.1043930E+01  0.7957747E-01            NaN
         13   -1    0    0    0    0  0.00000000000E+00  0.00000000000E+00  0.74505805969E-08  0.10566000000E+00  0.10566000000E+00 0.  1.
     999900   -1    0    0    0    0 -0.00000000000E+00 -0.00000000000E+00 -0.74505805969E-08  0.93827000000E+00  0.93827000000E+00 0.  1.
     999902    2    1    2    0    0  0.76243859828E-02 -0.17153742093E-01  0.12712580836E-01  0.10212586118E+01  0.10210069346E+01 0.  0.
     999903    2    3    3    0    0  0.43444059842E-01 -0.11433085807E+00  0.51732682004E-01  0.13432625298E+00  0.20207434486E-01 0.  0.
         14    1    1    2    0    0 -0.76243859828E-02  0.17153742093E-01 -0.12712580836E-01  0.22671388156E-01  0.00000000000E+00 0. -1.
     999901    1    3    3    0    0 -0.35819673860E-01  0.97177115981E-01 -0.39020101167E-01  0.88693235886E+00  0.88000000000E+00 0.  1.
        -11    1    4    4    0    0  0.11820645528E-01 -0.34649725788E-01  0.58088129934E-02  0.37072018926E-01  0.51100000000E-03 0. -1.
         11    1    4    4    0    0  0.31623414314E-01 -0.79681132286E-01  0.45923869010E-01  0.97254234053E-01  0.51100000000E-03 0.  1.
</event>
<event>
 8    1  0.1143957E+005  0.1043930E+01  0.7957747E-01            NaN
         13   -1    0    0    0    0  0.00000000000E+00  0.00000000000E+00  0.74505805969E-08  0.10566000000E+00  0.10566000000E+00 0.  1.
     999900   -1    0    0    0    0 -0.00000000000E+00 -0.00000000000E+00 -0.74505805969E-08  0.93827000000E+00  0.93827000000E+00 0.  1.
     999902    2    1    2    0    0 -0.41023306340E-02 -0.19470596595E-01 -0.12694841342E-01  0.10203271984E+01  0.10200541650E+01 0.  0.
     999903    2    3    3    0    0  0.92912120497E-01 -0.44536431382E-02 -0.90659962383E-01  0.13144257553E+00  0.20135163496E-01 0.  0.
         14    1    1    2    0    0  0.41023306340E-02  0.19470596595E-01  0.12694841342E-01  0.23602801636E-01  0.00000000000E+00 0.  1.
     999901    1    3    3    0    0 -0.97014451131E-01 -0.15016953457E-01  0.77965121041E-01  0.88888462284E+00  0.88000000000E+00 0. -1.
        -11    1    4    4    0    0  0.18337339208E-01  0.57678857055E-02 -0.25114009921E-01  0.31630699171E-01  0.51100000000E-03 0.  1.
         11    1    4    4    0    0  0.74574781289E-01 -0.10221528844E-01 -0.65545952462E-01  0.99811876354E-01  0.51100000000E-03 0. -1.
</event>
<event>
 8    1  0.1143957E+005  0.1043930E+01  0.7957747E-01            NaN
         13   -1    0    0    0    0  0.00000000000E+00  0.00000000000E+00  0.74505805969E-08  0.10566000000E+00  0.10566000000E+00 0. -1.
     999900   -1    0    0    0    0 -0.00000000000E+00 -0.00000000000E+00 -0.74505805969E-08  0.93827000000E+00  0.93827000000E+00 0.  1.
     999902    2    1    2    0    0  0.60028021686E-02  0.63753545416E-02  0.20284224143E-01  0.10218363691E+01  0.10215974925E+01 0.  0.
     999903    2    3    3    0    0  0.14631014677E-01  0.12076371636E+00 -0.46856072241E-01  0.13185492949E+00  0.19806290551E-01 0.  0.
         14    1    1    2    0    0 -0.60028021686E-02 -0.63753545416E-02 -0.20284224143E-01  0.22093630949E-01  0.00000000000E+00 0.  1.
     999901    1    3    3    0    0 -0.86282125080E-02 -0.11438836182E+00  0.67140296385E-01  0.88998143956E+00  0.88000000000E+00 0. -1.
        -11    1    4    4    0    0 -0.22313632398E-02  0.23730100016E-01 -0.29490708348E-02  0.24021964292E-01  0.51100000000E-03 0. -1.
         11    1    4    4    0    0  0.16862377916E-01  0.97033616341E-01 -0.43907001407E-01  0.10783296520E+00  0.51100000000E-03 0.  1.
</event>
<event>
 8    1  0.1143957E+005  0.1043930E+01  0.7957747E-01            NaN
         13   -1    0    0    0    0  0.00000000000E+00  0.00000000000E+00  0.74505805969E-08  0.10566000000E+00  0.10566000000E+00 0. -1.
     999900   -1    0    0    0    0 -0.00000000000E+00 -0.00000000000E+00 -0.74505805969E-08  0.93827000000E+00  0.93827000000E+00 0. -1.
     999902    2    1    2    0    0  0.88053401293E-02 -0.20833234717E-01 -0.49272153893E-03  0.10213069927E+01  0.10210564005E+01 0.  0.
     999903    2    3    3    0    0  0.35299338409E-01 -0.12397654070E+00  0.30722154290E-01  0.13433752201E+00  0.22056589033E-01 0.  0.
         14    1    1    2    0    0 -0.88053401293E-02  0.20833234717E-01  0.49272153893E-03  0.22623007273E-01  0.00000000000E+00 0. -1.
     999901    1    3    3    0    0 -0.26493998279E-01  0.10314330598E+00 -0.31214875829E-01  0.88696947072E+00  0.88000000000E+00 0. -1.
        -11    1    4    4    0    0  0.16411741806E-01 -0.57746542601E-01  0.25628324945E-01  0.65276953146E-01  0.51100000000E-03 0.  1.
         11    1    4    4    0    0  0.18887596603E-01 -0.66229998097E-01  0.50938293446E-02  0.69060568863E-01  0.51100000000E-03 0. -1.
</event>
<event>
 8    1  0.1143957E+005  0.1043930E+01  0.7957747E-01            NaN
         13   -1    0    0    0    0  0.00000000000E+00  0.00000000000E+00  0.74505805969E-08  0.10566000000E+00  0.10566000000E+00 0.  1.
     999900   -1    0    0    0    0 -0.00000000000E+00 -0.00000000000E+00 -0.74505805969E-08  0.93827000000E+00  0.93827000000E+00 0. -1.
     999902    2    1    2    0    0  0.13156699929E-01 -0.19006963493E-01  0.42481910472E-02  0.10204265845E+01  0.10201558723E+01 0.  0.
     999903    2    3    3    0    0 -0.47558929518E-02  0.70405698331E-01  0.10701141983E+00  0.12976628657E+00  0.20205550722E-01 0.  0.
         14    1    1    2    0    0 -0.13156699929E-01  0.19006963493E-01 -0.42481910472E-02  0.23503415527E-01  0.00000000000E+00 0.  1.
     999901    1    3    3    0    0  0.17912592881E-01 -0.89412661824E-01 -0.10276322878E+00  0.89066029791E+00  0.88000000000E+00 0. -1.
        -11    1    4    4    0    0 -0.10433646874E-03  0.58570912595E-01  0.73928008329E-01  0.94319532573E-01  0.51100000000E-03 0. -1.
         11    1    4    4    0    0 -0.46515564831E-02  0.11834785736E-01  0.33083411500E-01  0.35446753993E-01  0.51100000000E-03 0.  1.
</event>
<event>
 8    1  0.1143957E+005  0.1043930E+01  0.7957747E-01            NaN
         13   -1    0    0    0    0  0.00000000000E+00  0.00000000000E+00  0.74505805969E-08  0.10566000000E+00  0.10566000000E+00 0. -1.
     999900   -1    0    0    0    0 -0.00000000000E+00 -0.00000000000E+00 -0.74505805969E-08  0.93827000000E+00  0.93827000000E+00 0. -1.
     999902    2    1    2    0    0  0.22477505209E-01 -0.11527115751E-02 -0.67817112697E-02  0.10204234351E+01  0.10201526495E+01 0.  0.
     999903    2    3    3    0    0  0.11250166531E+00  0.55724544649E-01  0.38999554461E-01  0.13282256989E+00  0.18947829674E-01 0.  0.
         14    1    1    2    0    0 -0.22477505209E-01  0.11527115751E-02  0.67817112697E-02  0.23506564873E-01  0.00000000000E+00 0. -1.
     999901    1    3    3    0    0 -0.90024160104E-01 -0.56877256224E-01 -0.45781265731E-01  0.88760086524E+00  0.88000000000E+00 0. -1.
        -11    1    4    4    0    0  0.16601819707E-01  0.14821320018E-01  0.11202217358E-01  0.24920729110E-01  0.51100000000E-03 0.  1.
         11    1    4    4    0    0  0.95899845606E-01  0.40903224631E-01  0.27797337103E-01  0.10790184078E+00  0.51100000000E-03 0. -1.
</event>
<event>
 8    1  0.1143957E+005  0.1043930E+01  0.7957747E-01            NaN
         13   -1    0    0    0    0  0.00000000000E+00  0.00000000000E+00  0.74505805969E-08  0.10566000000E+00  0.10566000000E+00 0. -1.
     999900   -1    0    0    0    0 -0.00000000000E+00 -0.00000000000E+00 -0.74505805969E-08  0.93827000000E+00  0.93827000000E+00 0. -1.
     999902    2    1    2    0    0 -0.49892592111E-02 -0.11350459236E-01  0.19515133747E-01  0.10208093149E+01  0.10205474469E+01 0.  0.
     999903    2    3    3    0    0 -0.97049888537E-02 -0.11477472180E-01 -0.12628899133E+00  0.12879973140E+00  0.20360311945E-01 0.  0.
         14    1    1    2    0    0  0.49892592111E-02  0.11350459236E-01 -0.19515133747E-01  0.23120685057E-01  0.00000000000E+00 0.  1.
     999901    1    3    3    0    0  0.47157296426E-02  0.12701294437E-03  0.14580412508E+00  0.89200958354E+00  0.88000000000E+00 0.  1.
        -11    1    4    4    0    0 -0.95476785656E-02 -0.82663535794E-03 -0.99565910538E-01  0.10002736203E+00  0.51100000000E-03 0.  1.
         11    1    4    4    0    0 -0.15731028810E-03 -0.10650836822E-01 -0.26723080790E-01  0.28772369375E-01  0.51100000000E-03 0. -1.
</event>
<event>
 8    1  0.1143957E+005  0.1043930E+01  0.7957747E-01            NaN
         13   -1    0    0    0    0  0.00000000000E+00  0.00000000000E+00  0.74505805969E-08  0.10566000000E+00  0.10566000000E+00 0.  1.
     999900   -1    0    0    0    0 -0.00000000000E+00 -0.00000000000E+00 -0.74505805969E-08  0.93827000000E+00  0.93827000000E+00 0.  1.
     999902    2    1    2    0    0  0.16204504557E-01  0.15923653053E-01 -0.57062989309E-02  0.10205054287E+01  0.10202365507E+01 0.  0.
     999903    2    3    3    0    0 -0.44613635904E-01  0.12253506332E+00 -0.53060946379E-02  0.13198699939E+00  0.19677274106E-01 0.  0.
         14    1    1    2    0    0 -0.16204504557E-01 -0.15923653053E-01  0.57062989309E-02  0.23424571330E-01  0.00000000000E+00 0.  1.
     999901    1    3    3    0    0  0.60818140461E-01 -0.10661141027E+00 -0.40020429303E-03  0.88851842928E+00  0.88000000000E+00 0.  1.
        -11    1    4    4    0    0 -0.30417684091E-01  0.54949489044E-01 -0.17462515752E-02  0.62833051551E-01  0.51100000000E-03 0.  1.
         11    1    4    4    0    0 -0.14195951814E-01  0.67585574275E-01 -0.35598430627E-02  0.69153947839E-01  0.51100000000E-03 0. -1.
</event>
<event>
 8    1  0.1143957E+005  0.1043930E+01  0.7957747E-01            NaN
         13   -1    0    0    0    0  0.00000000000E+00  0.00000000000E+00  0.74505805969E-08  0.10566000000E+00  0.10566000000E+00 0. -1.
     999900   -1    0    0    0    0 -0.00000000000E+00 -0.00000000000E+00 -0.74505805969E-08  0.93827000000E+00  0.93827000000E+00 0. -1.
     999902    2    1    2    0    0  0.20600509072E-01  0.43529369801E-02  0.11220980321E-01  0.10200712609E+01  0.10197922032E+01 0.  0.
     999903    2    3    3    0    0  0.11797342350E+00 -0.20033714766E-01  0.55230392181E-01  0.13327194783E+00  0.19797410851E-01 0.  0.
         14    1    1    2    0    0 -0.20600509072E-01 -0.43529369801E-02 -0.11220980321E-01  0.23858739148E-01  0.00000000000E+00 0.  1.
     999901    1    3    3    0    0 -0.97372914433E-01  0.24386651746E-01 -0.44009411860E-01  0.88679931302E+00  0.88000000000E+00 0. -1.
        -11    1    4    4    0    0  0.28495291140E-01 -0.63082775060E-02  0.23060029099E-01  0.37199489853E-01  0.51100000000E-03 0. -1.
         11    1    4    4    0    0  0.89478132364E-01 -0.13725437260E-01  0.32170363083E-01  0.96072457974E-01  0.51100000000E-03 0.  1.
</event>
<event>
 8    1  0.1143957E+005  0.1043930E+01  0.7957747E-01            NaN
         13   -1    0    0    0    0  0.00000000000E+00  0.00000000000E+00  0.74505805969E-08  0.10566000000E+00  0.10566000000E+00 0. -1.
     999900   -1    0    0    0    0 -0.00000000000E+00 -0.00000000000E+00 -0.74505805969E-08  0.93827000000E+00  0.93827000000E+00 0.  1.
     999902    2    1    2    0    0 -0.56229091826E-02 -0.14666404267E-01  0.18583993085E-01  0.10195971966E+01  0.10193068027E+01 0.  0.
     999903    2    3    3    0    0 -0.83099706975E-02  0.12474385220E+00 -0.18334010543E-01  0.12785430827E+00  0.19506509821E-01 0.  0.
         14    1    1    2    0    0  0.56229091826E-02  0.14666404267E-01 -0.18583993085E-01  0.24332803390E-01  0.00000000000E+00 0.  1.
     999901    1    3    3    0    0  0.26870615150E-02 -0.13941025647E+00  0.36918003628E-01  0.89174288834E+00  0.88000000000E+00 0.  1.
        -11    1    4    4    0    0  0.55568193368E-02  0.29818629039E-01 -0.79444860837E-02  0.31359286647E-01  0.51100000000E-03 0. -1.
         11    1    4    4    0    0 -0.13866790034E-01  0.94925223166E-01 -0.10389524459E-01  0.96495021625E-01  0.51100000000E-03 0.  1.
</event>
<event>
 8    1  0.1143957E+005  0.1043930E+01  0.7957747E-01            NaN
         13   -1    0    0    0    0  0.00000000000E+00  0.00000000000E+00  0.74505805969E-08  0.10566000000E+00  0.10566000000E+00 0. -1.
     999900   -1    0    0    0    0 -0.00000000000E+00 -0.00000000000E+00 -0.74505805969E-08  0.93827000000E+00  0.93827000000E+00 0. -1.
     999902    2    1    2    0    0 -0.42930692735E-02  0.62880646955E-02  0.22819753423E-01  0.10198735799E+01  0.10195898232E+01 0.  0.
     999903    2    3    3    0    0  0.33055121475E-01 -0.77056566915E-01  0.99513917483E-01  0.13182898093E+00  0.21106986519E-01 0.  0.
         14    1    1    2    0    0  0.42930692735E-02 -0.62880646955E-02 -0.22819753423E-01  0.24056420093E-01  0.00000000000E+00 0.  1.
     999901    1    3    3    0    0 -0.37348190749E-01  0.83344631610E-01 -0.76694164061E-01  0.88804459898E+00  0.88000000000E+00 0.  1.
        -11    1    4    4    0    0  0.71452951085E-02 -0.26815526852E-01  0.47472502445E-01  0.54991156852E-01  0.51100000000E-03 0. -1.
         11    1    4    4    0    0  0.25909826367E-01 -0.50241040063E-01  0.52041415039E-01  0.76837824079E-01  0.51100000000E-03 0.  1.
</event>
<event>
 8    1  0.1143957E+005  0.1043930E+01  0.7957747E-01            NaN
         13   -1    0    0    0    0  0.00000000000E+00  0.00000000000E+00  0.74505805969E-08  0.10566000000E+00  0.10566000000E+00 0. -1.
     999900   -1    0    0    0    0 -0.00000000000E+00 -0.00000000000E+00 -0.74505805969E-08  0.93827000000E+00  0.93827000000E+00 0. -1.
     999902    2    1    2    0    0  0.82750761747E-02  0.72625237970E-02 -0.19178762363E-01  0.10218156141E+01  0.10215762836E+01 0.  0.
     999903    2    3    3    0    0  0.95224221832E-01  0.74324839868E-01 -0.56305492201E-01  0.13421440735E+00  0.15854477098E-01 0.  0.
         14    1    1    2    0    0 -0.82750761747E-02 -0.72625237970E-02  0.19178762363E-01  0.22114385892E-01  0.00000000000E+00 0. -1.
     999901    1    3    3    0    0 -0.86949145657E-01 -0.67062316071E-01  0.37126729838E-01  0.88760120676E+00  0.88000000000E+00 0.  1.
        -11    1    4    4    0    0  0.26631958909E-01  0.26057539899E-01 -0.10827472508E-01  0.38804019158E-01  0.51100000000E-03 0.  1.
         11    1    4    4    0    0  0.68592262922E-01  0.48267299969E-01 -0.45478019692E-01  0.95410388193E-01  0.51100000000E-03 0. -1.
</event>
<event>
 8    1  0.1143957E+005  0.1043930E+01  0.7957747E-01            NaN
         13   -1    0    0    0    0  0.00000000000E+00  0.00000000000E+00  0.74505805969E-08  0.10566000000E+00  0.10566000000E+00 0. -1.
     999900   -1    0    0    0    0 -0.00000000000E+00 -0.00000000000E+00 -0.74505805969E-08  0.93827000000E+00  0.93827000000E+00 0.  1.
     999902    2    1    2    0    0 -0.39505714908E-02  0.62622467386E-02  0.22415779168E-01  0.10203230115E+01  0.10200498801E+01 0.  0.
     999903    2    3    3    0    0 -0.38008200667E-01  0.22677254910E-01 -0.11871356589E+00  0.12827656282E+00  0.20076967759E-01 0.  0.
         14    1    1    2    0    0  0.39505714908E-02 -0.62622467386E-02 -0.22415779168E-01  0.23606988478E-01  0.00000000000E+00 0.  1.
     999901    1    3    3    0    0  0.34057629176E-01 -0.16415008171E-01  0.14112934506E+00  0.89204644870E+00  0.88000000000E+00 0. -1.
        -11    1    4    4    0    0 -0.10817040471E-01  0.14326687020E-01 -0.65718736392E-01  0.68128377050E-01  0.51100000000E-03 0.  1.
         11    1    4    4    0    0 -0.27191160197E-01  0.83505678900E-02 -0.52994829501E-01  0.60148185773E-01  0.51100000000E-03 0. -1.
</event>
<event>
 8    1  0.1143957E+005  0.1043930E+01  0.7957747E-01            NaN
         13   -1    0    0    0    0  0.00000000000E+00  0.00000000000E+00  0.74505805969E-08  0.10566000000E+00  0.10566000000E+00 0. -1.
     999900   -1    0    0    0    0 -0.00000000000E+00 -0.00000000000E+00 -0.74505805969E-08  0.93827000000E+00  0.93827000000E+00 0. -1.
     999902    2    1    2    0    0 -0.19451955251E-01 -0.49342605321E-02 -0.10627403504E-01  0.10212216933E+01  0.10209691864E+01 0.  0.
     999903    2    3    3    0    0  0.16485176272E-01 -0.12888100515E+00 -0.98876408449E-02  0.13180906676E+00  0.19844145580E-01 0.  0.
         14    1    1    2    0    0  0.19451955251E-01  0.49342605321E-02  0.10627403504E-01  0.22708306747E-01  0.00000000000E+00 0.  1.
     999901    1    3    3    0    0 -0.35937131523E-01  0.12394674461E+00 -0.73976265868E-03  0.88941262650E+00  0.88000000000E+00 0. -1.
        -11    1    4    4    0    0  0.20513626713E-03 -0.77739797374E-01 -0.70756687265E-02  0.78063079529E-01  0.51100000000E-03 0.  1.
         11    1    4    4    0    0  0.16280040005E-01 -0.51141207772E-01 -0.28119721184E-02  0.53745987228E-01  0.51100000000E-03 0. -1.
</event>
<event>
 8    1  0.1143957E+005  0.1043930E+01  0.7957747E-01            NaN
         13   -1    0    0    0    0  0.00000000000E+00  0.00000000000E+00  0.74505805969E-08  0.10566000000E+00  0.10566000000E+00 0. -1.
     999900   -1    0    0    0    0 -0.00000000000E+00 -0.00000000000E+00 -0.74505805969E-08  0.93827000000E+00  0.93827000000E+00 0.  1.
     999902    2    1    2    0    0 -0.15487298387E-01 -0.39509025897E-02 -0.17223099321E-01  0.10204331663E+01  0.10201626075E+01 0.  0.
     999903    2    3    3    0    0  0.68441990033E-01 -0.33268124242E-01  0.10057714261E+00  0.12814368306E+00  0.22670858014E-01 0.  0.
         14    1    1    2    0    0  0.15487298387E-01  0.39509025897E-02  0.17223099321E-01  0.23496833676E-01  0.00000000000E+00 0. -1.
     999901    1    3    3    0    0 -0.83929288420E-01  0.29317221652E-01 -0.11780024193E+00  0.89228948326E+00  0.88000000000E+00 0.  1.
        -11    1    4    4    0    0  0.18283391794E-02 -0.43335581604E-02  0.15886252840E-01  0.16575786581E-01  0.51100000000E-03 0.  1.
         11    1    4    4    0    0  0.66613650853E-01 -0.28934566082E-01  0.84690889769E-01  0.11156789648E+00  0.51100000000E-03 0. -1.
</event>
<event>
 8    1  0.1143957E+005  0.1043930E+01  0.7957747E-01            NaN
         13   -1    0    0    0    0  0.00000000000E+00  0.00000000000E+00  0.74505805969E-08  0.10566000000E+00  0.10566000000E+00 0.  1.
     999900   -1    0    0    0    0 -0.00000000000E+00 -0.00000000000E+00 -0.74505805969E-08  0.93827000000E+00  0.93827000000E+00 0.  1.
     999902    2    1    2    0    0  0.19693814477E-02  0.23065632322E-01 -0.10801967419E-02  0.10207552577E+01  0.10204921496E+01 0.  0.
     999903    2    3    3    0    0  0.25831110651E-01 -0.81203645637E-01  0.94187512681E-01  0.12917385312E+00  0.23522721863E-01 0.  0.
         14    1    1    2    0    0 -0.19693814477E-02 -0.23065632322E-01  0.10801967419E-02  0.23174742344E-01  0.00000000000E+00 0. -1.
     999901    1    3    3    0    0 -0.23861729203E-01  0.10426927796E+00 -0.95267709423E-01  0.89158140453E+00  0.88000000000E+00 0.  1.
        -11    1    4    4    0    0  0.17450906346E-01 -0.21894579289E-01  0.23819101994E-01  0.36762990566E-01  0.51100000000E-03 0.  1.
         11    1    4    4    0    0  0.83802043051E-02 -0.59309066348E-01  0.70368410688E-01  0.92410862559E-01  0.51100000000E-03 0. -1.
</event>
<event>
 8    1  0.1143957E+005  0.1043930E+01  0.7957747E-01            NaN
         13   -1    0    0    0    0  0.00000000000E+00  0.00000000000E+00  0.74505805969E-08  0.10566000000E+00  0.10566000000E+00 0.  1.
     999900   -1    0    0    0    0 -0.00000000000E+00 -0.00000000000E+00 -0.74505805969E-08  0.93827000000E+00  0.93827000000E+00 0.  1.
     999902    2    1    2    0    0  0.13507338620E-01  0.10811376059E-01  0.13889321090E-01  0.10217433534E+01  0.10215024390E+01 0.  0.
     999903    2    3    3    0    0  0.11085240779E+00 -0.19208838363E-02  0.73136921709E-01  0.13430408720E+00  0.19915632421E-01 0.  0.
         14    1    1    2    0    0 -0.13507338620E-01 -0.10811376059E-01 -0.13889321090E-01  0.22186646642E-01  0.00000000000E+00 0. -1.
     999901    1    3    3    0    0 -0.97345069170E-01  0.12732259896E-01 -0.59247600619E-01  0.88743926615E+00  0.88000000000E+00 0.  1.
        -11    1    4    4    0    0  0.72530054171E-01  0.67749951719E-02  0.41401558162E-01  0.83790569021E-01  0.51100000000E-03 0.  1.
         11    1    4    4    0    0  0.38322353619E-01 -0.86958790081E-02  0.31735363547E-01  0.50513518182E-01  0.51100000000E-03 0. -1.
</event>
<event>
 8    1  0.1143957E+005  0.1043930E+01  0.7957747E-01            NaN
         13   -1    0    0    0    0  0.00000000000E+00  0.00000000000E+00  0.74505805969E-08  0.10566000000E+00  0.10566000000E+00 0.  1.
     999900   -1    0    0    0    0 -0.00000000000E+00 -0.00000000000E+00 -0.74505805969E-08  0.93827000000E+00  0.93827000000E+00 0. -1.
     999902    2    1    2    0    0 -0.17261043530E-01  0.15322617409E-01  0.31713656592E-02  0.10206322793E+01  0.10203663390E+01 0.  0.
     999903    2    3    3    0    0  0.25427841690E-02 -0.79740957846E-01 -0.99836421461E-01  0.12931870986E+00  0.19771989255E-01 0.  0.
         14    1    1    2    0    0  0.17261043530E-01 -0.15322617409E-01 -0.31713656592E-02  0.23297720665E-01  0.00000000000E+00 0. -1.
     999901    1    3    3    0    0 -0.19803827700E-01  0.95063575255E-01  0.10300778712E+00  0.89131356948E+00  0.88000000000E+00 0.  1.
        -11    1    4    4    0    0  0.66738276071E-02 -0.34216852353E-01 -0.56104558750E-01  0.66055397913E-01  0.51100000000E-03 0.  1.
         11    1    4    4    0    0 -0.41310434380E-02 -0.45524105493E-01 -0.43731862711E-01  0.63263311942E-01  0.51100000000E-03 0. -1.
</event>
<event>
 8    1  0.1143957E+005  0.1043930E+01  0.7957747E-01            NaN
         13   -1    0    0    0    0  0.00000000000E+00  0.00000000000E+00  0.74505805969E-08  0.10566000000E+00  0.10566000000E+00 0. -1.
     999900   -1    0    0    0    0 -0.00000000000E+00 -0.00000000000E+00 -0.74505805969E-08  0.93827000000E+00  0.93827000000E+00 0. -1.
     999902    2    1    2    0    0 -0.20009931441E-01 -0.19816592889E-02 -0.12667859249E-01  0.10201645001E+01  0.10198876449E+01 0.  0.
     999903    2    3    3    0    0 -0.73093193440E-01 -0.48176426256E-01 -0.98412469588E-01  0.13320118209E+00  0.19848369374E-01 0.  0.
         14    1    1    2    0    0  0.20009931441E-01  0.19816592889E-02  0.12667859249E-01  0.23765499948E-01  0.00000000000E+00 0. -1.
     999901    1    3    3    0    0  0.53083261999E-01  0.46194766967E-01  0.85744610339E-01  0.88696331796E+00  0.88000000000E+00 0. -1.
        -11    1    4    4    0    0 -0.28198960110E-01 -0.99995578332E-02 -0.42395734206E-01  0.51892503390E-01  0.51100000000E-03 0.  1.
         11    1    4    4    0    0 -0.44894233330E-01 -0.38176868423E-01 -0.56016735382E-01  0.81308678705E-01  0.51100000000E-03 0. -1.
</event>
<event>
 8    1  0.1143957E+005  0.1043930E+01  0.7957747E-01            NaN
         13   -1    0    0    0    0  0.00000000000E+00  0.00000000000E+00  0.74505805969E-08  0.10566000000E+00  0.10566000000E+00 0. -1.
     999900   -1    0    0    0    0 -0.00000000000E+00 -0.00000000000E+00 -0.74505805969E-08  0.93827000000E+00  0.93827000000E+00 0.  1.
     999902    2    1    2    0    0 -0.20019916599E-01 -0.18020581479E-02 -0.11592956640E-01  0.10207256660E+01  0.10204618778E+01 0.  0.
     999903    2    3    3    0    0 -0.61285266667E-01  0.34057862257E-02  0.11425494218E+00  0.13080002616E+00  0.16940240247E-01 0.  0.
         14    1    1    2    0    0  0.20019916599E-01  0.18020581479E-02  0.11592956640E-01  0.23204334031E-01  0.00000000000E+00 0. -1.
     999901    1    3    3    0    0  0.41265350068E-01 -0.52078443737E-02 -0.12584789882E+00  0.88992563981E+00  0.88000000000E+00 0.  1.
        -11    1    4    4    0    0 -0.49496469107E-01  0.38214278890E-02  0.10366295681E+00  0.11493812902E+00  0.51100000000E-03 0. -1.
         11    1    4    4    0    0 -0.11788797559E-01 -0.41564166323E-03  0.10591985365E-01  0.15861897139E-01  0.51100000000E-03 0.  1.
</event>
<event>
 8    1  0.1143957E+005  0.1043930E+01  0.7957747E-01            NaN
         13   -1    0    0    0    0  0.00000000000E+00  0.00000000000E+00  0.74505805969E-08  0.10566000000E+00  0.10566000000E+00 0. -1.
     999900   -1    0    0    0    0 -0.00000000000E+00 -0.00000000000E+00 -0.74505805969E-08  0.93827000000E+00  0.93827000000E+00 0.  1.
     999902    2    1    2    0    0 -0.11448606962E-01 -0.13498385888E-02 -0.20819697347E-01  0.10201318391E+01  0.10198542134E+01 0.  0.
     999903    2    3    3    0    0  0.29885541394E-01 -0.12517340601E+00 -0.48569307531E-02  0.13035906045E+00  0.20208109951E-01 0.  0.
         14    1    1    2    0    0  0.11448606962E-01  0.13498385888E-02  0.20819697347E-01  0.23798160920E-01  0.00000000000E+00 0. -1.
     999901    1    3    3    0    0 -0.41334148356E-01  0.12382356743E+00 -0.15962766594E-01  0.88977277863E+00  0.88000000000E+00 0. -1.
        -11    1    4    4    0    0  0.10253297939E-01 -0.65105010662E-01  0.62052457194E-02  0.66200896726E-01  0.51100000000E-03 0. -1.
         11    1    4    4    0    0  0.19632243455E-01 -0.60068395353E-01 -0.11062176473E-01  0.64158163725E-01  0.51100000000E-03 0.  1.
</event>
<event>
 8    1  0.1143957E+005  0.1043930E+01  0.7957747E-01            NaN
         13   -1    0    0    0    0  0.00000000000E+00  0.00000000000E+00  0.74505805969E-08  0.10566000000E+00  0.10566000000E+00 0. -1.
     999900   -1    0    0    0    0 -0.00000000000E+00 -0.00000000000E+00 -0.74505805969E-08  0.93827000000E+00  0.93827000000E+00 0.  1.
     999902    2    1    2    0    0 -0.39889191091E-02  0.13528438688E-01 -0.19132578299E-01  0.10201605725E+01  0.10198836248E+01 0.  0.
     999903    2    3    3    0    0  0.85575391091E-01  0.51904351244E-01 -0.84315987317E-01  0.13238619066E+00  0.19992711717E-01 0.  0.
         14    1    1    2    0    0  0.39889191091E-02 -0.13528438688E-01  0.19132578299E-01  0.23769427451E-01  0.00000000000E+00 0. -1.
     999901    1    3    3    0    0 -0.89564310200E-01 -0.38375912557E-01  0.65183409018E-01  0.88777438189E+00  0.88000000000E+00 0. -1.
        -11    1    4    4    0    0  0.17210428371E-01  0.12936770881E-01 -0.86230724916E-02  0.23198650516E-01  0.51100000000E-03 0. -1.
         11    1    4    4    0    0  0.68364962720E-01  0.38967580363E-01 -0.75692914826E-01  0.10918754014E+00  0.51100000000E-03 0.  1.
</event>
<event>
 8    1  0.1143957E+005  0.1043930E+01  0.7957747E-01            NaN
         13   -1    0    0    0    0  0.00000000000E+00  0.00000000000E+00  0.74505805969E-08  0.10566000000E+00  0.10566000000E+00 0.  1.
     999900   -1    0    0    0    0 -0.00000000000E+00 -0.00000000000E+00 -0.74505805969E-08  0.93827000000E+00  0.93827000000E+00 0.  1.
     999902    2    1    2    0    0  0.11770655398E-01 -0.43064744397E-02 -0.20141354981E-01  0.10202072634E+01  0.10199314154E+01 0.  0.
     999903    2    3    3    0    0 -0.89773531105E-01 -0.78532894425E-01 -0.50225963165E-01  0.13075469757E+00  0.18639773801E-01 0.  0.
         14    1    1    2    0    0 -0.11770655398E-01  0.43064744397E-02  0.20141354981E-01  0.23722736584E-01  0.00000000000E+00 0.  1.
     999901    1    3    3    0    0  0.10154418650E+00  0.74226419985E-01  0.30084608185E-01  0.88945256584E+00  0.88000000000E+00 0. -1.
        -11    1    4    4    0    0 -0.72544354717E-01 -0.57955724171E-01 -0.31602722770E-01  0.98084364570E-01  0.51100000000E-03 0.  1.
         11    1    4    4    0    0 -0.17229176388E-01 -0.20577170254E-01 -0.18623240395E-01  0.32670333002E-01  0.51100000000E-03 0. -1.
</event>
<event>
 8    1  0.1143957E+005  0.1043930E+01  0.7957747E-01            NaN
         13   -1    0    0    0    0  0.00000000000E+00  0.00000000000E+00  0.74505805969E-08  0.10566000000E+00  0.10566000000E+00 0. -1.
     999900   -1    0    0    0    0 -0.00000000000E+00 -0.00000000000E+00 -0.74505805969E-08  0.93827000000E+00  0.93827000000E+00 0. -1.
     999902    2    1    2    0    0 -0.80694932801E-02 -0.21390363742E-01 -0.20154839687E-02  0.10209794759E+01  0.10207214917E+01 0.  0.
     999903    2    3    3    0    0  0.11024143112E+00 -0.31219863058E-01 -0.60476667361E-01  0.13108521031E+00  0.19951242651E-01 0.  0.
         14    1    1    2    0    0  0.80694932801E-02  0.21390363742E-01  0.20154839687E-02  0.22950524143E-01  0.00000000000E+00 0.  1.
     999901    1    3    3    0    0 -0.11831092440E+00  0.98294993164E-02  0.58461183393E-01  0.88989426555E+00  0.88000000000E+00 0.  1.
        -11    1    4    4    0    0  0.49656421679E-01 -0.15782990903E-01 -0.16542154881E-01  0.54669617018E-01  0.51100000000E-03 0.  1.
         11    1    4    4    0    0  0.60585009437E-01 -0.15436872155E-01 -0.43934512481E-01  0.76415593293E-01  0.51100000000E-03 0. -1.
</event>
<event>
 8    1  0.1143957E+005  0.1043930E+01  0.7957747E-01            NaN
         13   -1    0    0    0    0  0.00000000000E+00  0.00000000000E+00  0.74505805969E-08  0.10566000000E+00  0.10566000000E+00 0. -1.
     999900   -1    0    0    0    0 -0.00000000000E+00 -0.00000000000E+00 -0.74505805969E-08  0.93827000000E+00  0.93827000000E+00 0.  1.
     999902    2    1    2    0    0 -0.58512963661E-02  0.21247255851E-01 -0.97872641899E-02  0.10198162261E+01  0.10195310986E+01 0.  0.
     999903    2    3    3    0    0 -0.93887095100E-01  0.48565660443E-03  0.87373117394E-01  0.12986033642E+00  0.20362289742E-01 0.  0.
         14    1    1    2    0    0  0.58512963661E-02 -0.21247255851E-01  0.97872641899E-02  0.24113773879E-01  0.00000000000E+00 0.  1.
     999901    1    3    3    0    0  0.88035798734E-01  0.20761599247E-01 -0.97160381584E-01  0.88995588970E+00  0.88000000000E+00 0.  1.
        -11    1    4    4    0    0 -0.53841295543E-01 -0.88679857171E-02  0.55450933329E-01  0.77798415180E-01  0.51100000000E-03 0.  1.
         11    1    4    4    0    0 -0.40045799557E-01  0.93536423215E-02  0.31922184065E-01  0.52061921241E-01  0.51100000000E-03 0. -1.
</event>
<event>
 8    1  0.1143957E+005  0.1043930E+01  0.7957747E-01            NaN
         13   -1    0    0    0    0  0.00000000000E+00  0.00000000000E+00  0.74505805969E-08  0.10566000000E+00  0.10566000000E+00 0. -1.
     999900   -1    0    0    0    0 -0.00000000000E+00 -0.00000000000E+00 -0.74505805969E-08  0.93827000000E+00  0.93827000000E+00 0. -1.
     999902    2    1    2    0    0  0.18232974484E-01  0.13548952266E-01  0.13621432610E-01  0.10174430430E+01  0.10170982189E+01 0.  0.
     999903    2    3    3    0    0 -0.88163145070E-01 -0.78698112962E-01 -0.34857614437E-01  0.12492980873E+00  0.20646323955E-01 0.  0.
         14    1    1    2    0    0 -0.18232974484E-01 -0.13548952266E-01 -0.13621432610E-01  0.26486957024E-01  0.00000000000E+00 0.  1.
     999901    1    3    3    0    0  0.10639611955E+00  0.92247065229E-01  0.48479047047E-01  0.89251323424E+00  0.88000000000E+00 0.  1.
        -11    1    4    4    0    0 -0.50464272773E-01 -0.31257277189E-01 -0.16533788532E-01  0.61622134725E-01  0.51100000000E-03 0. -1.
         11    1    4    4    0    0 -0.37698872297E-01 -0.47440835773E-01 -0.18323825905E-01  0.63307674006E-01  0.51100000000E-03 0.  1.
</event>
<event>
 8    1  0.1143957E+005  0.1043930E+01  0.7957747E-01            NaN
         13   -1    0    0    0    0  0.00000000000E+00  0.00000000000E+00  0.74505805969E-08  0.10566000000E+00  0.10566000000E+00 0. -1.
     999900   -1    0    0    0    0 -0.00000000000E+00 -0.00000000000E+00 -0.74505805969E-08  0.93827000000E+00  0.93827000000E+00 0. -1.
     999902    2    1    2    0    0  0.64127969539E-04 -0.20417094772E-01  0.11507732731E-01  0.10204930679E+01  0.10202239029E+01 0.  0.
     999903    2    3    3    0    0  0.47261753659E-01 -0.10177418156E+00  0.69512094489E-01  0.13358208176E+00  0.20508142208E-01 0.  0.
         14    1    1    2    0    0 -0.64127969539E-04  0.20417094772E-01 -0.11507732731E-01  0.23436932051E-01  0.00000000000E+00 0.  1.
     999901    1    3    3    0    0 -0.47197625689E-01  0.81357086783E-01 -0.58004361758E-01  0.88691098619E+00  0.88000000000E+00 0.  1.
        -11    1    4    4    0    0  0.10839961925E-01 -0.23457000937E-01  0.64532988472E-02  0.26639103860E-01  0.51100000000E-03 0.  1.
         11    1    4    4    0    0  0.36421791734E-01 -0.78317180619E-01  0.63058795642E-01  0.10694297790E+00  0.51100000000E-03 0. -1.
</event>
<event>
 8    1  0.1143957E+005  0.1043930E+01  0.7957747E-01            NaN
         13   -1    0    0    0    0  0.00000000000E+00  0.00000000000E+00  0.74505805969E-08  0.10566000000E+00  0.10566000000E+00 0. -1.
     999900   -1    0    0    0    0 -0.00000000000E+00 -0.00000000000E+00 -0.74505805969E-08  0.93827000000E+00  0.93827000000E+00 0.  1.
     999902    2    1    2    0    0 -0.67678873199E-02  0.13743010431E-01  0.20338949901E-01  0.10184673309E+01  0.10181489855E+01 0.  0.
     999903    2    3    3    0    0 -0.74425043832E-01 -0.10022069682E-01 -0.10074333391E+00  0.12728654716E+00  0.20325273189E-01 0.  0.
         14    1    1    2    0    0  0.67678873199E-02 -0.13743010431E-01 -0.20338949901E-01  0.25462669097E-01  0.00000000000E+00 0.  1.
     999901    1    3    3    0    0  0.67657156512E-01  0.23765080112E-01  0.12108228381E+00  0.89118078374E+00  0.88000000000E+00 0. -1.
        -11    1    4    4    0    0 -0.79627020812E-02 -0.75340541488E-02 -0.10558916688E-01  0.15228868604E-01  0.51100000000E-03 0.  1.
         11    1    4    4    0    0 -0.66462341751E-01 -0.24880155330E-02 -0.90184417223E-01  0.11205767855E+00  0.51100000000E-03 0. -1.
</event>
<event>
 8    1  0.1143957E+005  0.1043930E+01  0.7957747E-01            NaN
         13   -1    0    0    0    0  0.00000000000E+00  0.00000000000E+00  0.74505805969E-08  0.10566000000E+00  0.10566000000E+00 0. -1.
     999900   -1    0    0    0    0 -0.00000000000E+00 -0.00000000000E+00 -0.74505805969E-08  0.93827000000E+00  0.93827000000E+00 0. -1.
     999902    2    1    2    0    0  0.33018944025E-01 -0.92058257400E-02  0.38813795867E-02  0.10094327103E+01  0.10088430669E+01 0.  0.
     999903    2    3    3    0    0 -0.36705111707E-02 -0.11812083743E+00 -0.21058357641E-01  0.12160919942E+00  0.19476603166E-01 0.  0.
         14    1    1    2    0    0 -0.33018944025E-01  0.92058257400E-02 -0.38813795867E-02  0.34497289743E-01  0.00000000000E+00 0. -1.
     999901    1    3    3    0    0  0.36689455196E-01  0.10891501169E+00  0.24939737227E-01  0.88782351083E+00  0.88000000000E+00 0.  1.
        -11    1    4    4    0    0  0.45619774041E-02 -0.81129635316E-01 -0.20048576092E-01  0.83696092434E-01  0.51100000000E-03 0.  1.
         11    1    4    4    0    0 -0.82324885748E-02 -0.36991202114E-01 -0.10097815482E-02  0.37913106991E-01  0.51100000000E-03 0. -1.
</event>
<event>
 8    1  0.1143957E+005  0.1043930E+01  0.7957747E-01            NaN
         13   -1    0    0    0    0  0.00000000000E+00  0.00000000000E+00  0.74505805969E-08  0.10566000000E+00  0.10566000000E+00 0. -1.
     999900   -1    0    0    0    0 -0.00000000000E+00 -0.00000000000E+00 -0.74505805969E-08  0.93827000000E+00  0.93827000000E+00 0. -1.
     999902    2    1    2    0    0  0.10572736290E-01  0.92946562458E-02  0.20756699258E-01  0.10188498495E+01  0.10185411144E+01 0.  0.
     999903    2    3    3    0    0  0.68799859741E-01  0.73421624865E-01  0.83653808285E-01  0.13236312517E+00  0.19946968828E-01 0.  0.
         14    1    1    2    0    0 -0.10572736290E-01 -0.92946562458E-02 -0.20756699258E-01  0.25080150547E-01  0.00000000000E+00 0.  1.
     999901    1    3    3    0    0 -0.58227123451E-01 -0.64126968619E-01 -0.62897109028E-01  0.88648672429E+00  0.88000000000E+00 0. -1.
        -11    1    4    4    0    0  0.45511993488E-01  0.49435956097E-01  0.43222765039E-01  0.79898209273E-01  0.51100000000E-03 0. -1.
         11    1    4    4    0    0  0.23287866253E-01  0.23985668768E-01  0.40431043246E-01  0.52464915895E-01  0.51100000000E-03 0.  1.
</event>
<event>
 8    1  0.1143957E+005  0.1043930E+01  0.7957747E-01            NaN
         13   -1    0    0    0    0  0.00000000000E+00  0.00000000000E+00  0.74505805969E-08  0.10566000000E+00  0.10566000000E+00 0.  1.
     999900   -1    0    0    0    0 -0.00000000000E+00 -0.00000000000E+00 -0.74505805969E-08  0.93827000000E+00  0.93827000000E+00 0. -1.
     999902    2    1    2    0    0  0.21594543082E-01  0.66821242665E-02 -0.44474443689E-02  0.10208918830E+01  0.10206319032E+01 0.  0.
     999903    2    3    3    0    0 -0.40753163567E-01 -0.57645184449E-01 -0.10770921607E+00  0.13033686912E+00  0.20065806593E-01 0.  0.
         14    1    1    2    0    0 -0.21594543082E-01 -0.66821242665E-02  0.44474443689E-02  0.23038117047E-01  0.00000000000E+00 0.  1.
     999901    1    3    3    0    0  0.62347706649E-01  0.64327308715E-01  0.10326177170E+00  0.89055501383E+00  0.88000000000E+00 0.  1.
        -11    1    4    4    0    0 -0.13768444157E-01 -0.32250596598E-01 -0.64456975351E-01  0.73380064240E-01  0.51100000000E-03 0.  1.
         11    1    4    4    0    0 -0.26984719410E-01 -0.25394587850E-01 -0.43252240720E-01  0.56956804879E-01  0.51100000000E-03 0. -1.
</event>
<event>
 8    1  0.1143957E+005  0.1043930E+01  0.7957747E-01            NaN
         13   -1    0    0    0    0  0.00000000000E+00  0.00000000000E+00  0.74505805969E-08  0.10566000000E+00  0.10566000000E+00 0. -1.
     999900   -1    0    0    0    0 -0.00000000000E+00 -0.00000000000E+00 -0.74505805969E-08  0.93827000000E+00  0.93827000000E+00 0.  1.
     999902    2    1    2    0    0  0.86518299306E-02 -0.23666321584E-01  0.92523775550E-02  0.10170868365E+01  0.10167325496E+01 0.  0.
     999903    2    3    3    0    0 -0.11054579331E+00  0.51998369738E-01 -0.19506880689E-01  0.12536921645E+00  0.20315490797E-01 0.  0.
         14    1    1    2    0    0 -0.86518299306E-02  0.23666321584E-01 -0.92523775550E-02  0.26843163541E-01  0.00000000000E+00 0.  1.
     999901    1    3    3    0    0  0.11919762324E+00 -0.75664691322E-01  0.28759258244E-01  0.89171762001E+00  0.88000000000E+00 0.  1.
        -11    1    4    4    0    0 -0.60742762872E-01  0.33268143376E-01 -0.20232682232E-01  0.72153136843E-01  0.51100000000E-03 0. -1.
         11    1    4    4    0    0 -0.49803030434E-01  0.18730226363E-01  0.72580154286E-03  0.53216079609E-01  0.51100000000E-03 0.  1.
</event>
<event>
 8    1  0.1143957E+005  0.1043930E+01  0.7957747E-01            NaN
         13   -1    0    0    0    0  0.00000000000E+00  0.00000000000E+00  0.74505805969E-08  0.10566000000E+00  0.10566000000E+00 0.  1.
     999900   -1    0    0    0    0 -0.00000000000E+00 -0.00000000000E+00 -0.74505805969E-08  0.93827000000E+00  0.93827000000E+00 0.  1.
     999902    2    1    2    0    0 -0.20328847378E-01  0.11130315772E-01  0.22770177162E-02  0.10206420036E+01  0.10203762879E+01 0.  0.
     999903    2    3    3    0    0 -0.95838749001E-01  0.59994470811E-01 -0.67726678956E-01  0.13329203410E+00  0.19886200593E-01 0.  0.
         14    1    1    2    0    0  0.20328847378E-01 -0.11130315772E-01 -0.22770177162E-02  0.23287996363E-01  0.00000000000E+00 0.  1.
     999901    1    3    3    0    0  0.75509901622E-01 -0.48864155039E-01  0.70003696673E-01  0.88734996954E+00  0.88000000000E+00 0. -1.
        -11    1    4    4    0    0 -0.74679749275E-01  0.37880286172E-01 -0.54721433789E-01  0.10003338177E+00  0.51100000000E-03 0.  1.
         11    1    4    4    0    0 -0.21158999726E-01  0.22114184639E-01 -0.13005245167E-01  0.33258652325E-01  0.51100000000E-03 0. -1.
</event>
<event>
 8    1  0.1143957E+005  0.1043930E+01  0.7957747E-01            NaN
         13   -1    0    0    0    0  0.00000000000E+00  0.00000000000E+00  0.74505805969E-08  0.10566000000E+00  0.10566000000E+00 0. -1.
     999900   -1    0    0    0    0 -0.00000000000E+00 -0.00000000000E+00 -0.74505805969E-08  0.93827000000E+00  0.93827000000E+00 0.  1.
     999902    2    1    2    0    0  0.12676285748E-01 -0.14696912567E-01  0.13077039853E-01  0.10205270850E+01  0.10202587097E+01 0.  0.
     999903    2    3    3    0    0  0.25527261458E-01  0.41935567005E-01  0.12097788782E+00  0.13203680463E+00  0.19693541509E-01 0.  0.
         14    1    1    2    0    0 -0.12676285748E-01  0.14696912567E-01 -0.13077039853E-01  0.23402915004E-01  0.00000000000E+00 0.  1.
     999901    1    3    3    0    0 -0.12850975710E-01 -0.56632479572E-01 -0.10790084797E+00  0.88849028037E+00  0.88000000000E+00 0.  1.
        -11    1    4    4    0    0  0.16409028644E-01  0.25198889418E-01  0.96080986112E-01  0.10067798797E+00  0.51100000000E-03 0.  1.
         11    1    4    4    0    0  0.91182328145E-02  0.16736677587E-01  0.24896901707E-01  0.31358816654E-01  0.51100000000E-03 0. -1.
</event>
<event>
 8    1  0.1143957E+005  0.1043930E+01  0.7957747E-01            NaN
         13   -1    0    0    0    0  0.00000000000E+00  0.00000000000E+00  0.74505805969E-08  0.10566000000E+00  0.10566000000E+00 0.  1.
     999900   -1    0    0    0    0 -0.00000000000E+00 -0.00000000000E+00 -0.74505805969E-08  0.93827000000E+00  0.93827000000E+00 0. -1.
     999902    2    1    2    0    0 -0.10865440602E-01 -0.14375684457E-01 -0.10622942615E-01  0.10230119453E+01  0.10227980618E+01 0.  0.
     999903    2    3    3    0    0 -0.27097960826E-01  0.76818277378E-01  0.10059522991E+00  0.13118835551E+00  0.21345658093E-01 0.  0.
         14    1    1    2    0    0  0.10865440602E-01  0.14375684457E-01  0.10622942615E-01  0.20918054711E-01  0.00000000000E+00 0.  1.
     999901    1    3    3    0    0  0.16232520224E-01 -0.91193961836E-01 -0.11121817253E+00  0.89182358978E+00  0.88000000000E+00 0. -1.
        -11    1    4    4    0    0 -0.18072897930E-01  0.67456470856E-01  0.92346717106E-01  0.11578075134E+00  0.51100000000E-03 0.  1.
         11    1    4    4    0    0 -0.90250628958E-02  0.93618065226E-02  0.82485128071E-02  0.15407604167E-01  0.51100000000E-03 0. -1.
</event>
<event>
 8    1  0.1143957E+005  0.1043930E+01  0.7957747E-01            NaN
         13   -1    0    0    0    0  0.00000000000E+00  0.00000000000E+00  0.74505805969E-08  0.10566000000E+00  0.10566000000E+00 0. -1.
     999900   -1    0    0    0    0 -0.00000000000E+00 -0.00000000000E+00 -0.74505805969E-08  0.93827000000E+00  0.93827000000E+00 0.  1.
     999902    2    1    2    0    0  0.11001911045E-01  0.20077278899E-01  0.53233975488E-02  0.10204251551E+01  0.10201544096E+01 0.  0.
     999903    2    3    3    0    0  0.66643835634E-01  0.80293238470E-01  0.81128923352E-01  0.13336908957E+00  0.17804686945E-01 0.  0.
         14    1    1    2    0    0 -0.11001911045E-01 -0.20077278899E-01 -0.53233975488E-02  0.23504844949E-01  0.00000000000E+00 0.  1.
     999901    1    3    3    0    0 -0.55641924589E-01 -0.60215959571E-01 -0.75805525803E-01  0.88705606548E+00  0.88000000000E+00 0.  1.
        -11    1    4    4    0    0  0.42875053258E-01  0.46890397637E-01  0.38849532851E-01  0.74475008601E-01  0.51100000000E-03 0.  1.
         11    1    4    4    0    0  0.23768782377E-01  0.33402840833E-01  0.42279390501E-01  0.58894080972E-01  0.51100000000E-03 0. -1.
</event>
<event>
 8    1  0.1143957E+005  0.1043930E+01  0.7957747E-01            NaN
         13   -1    0    0    0    0  0.00000000000E+00  0.00000000000E+00  0.74505805969E-08  0.10566000000E+00  0.10566000000E+00 0. -1.
     999900   -1    0    0    0    0 -0.00000000000E+00 -0.00000000000E+00 -0.74505805969E-08  0.93827000000E+00  0.93827000000E+00 0. -1.
     999902    2    1    2    0    0 -0.18942513523E-01 -0.12539395604E-01  0.18403374825E-02  0.10211387275E+01  0.10208843513E+01 0.  0.
     999903    2    3    3    0    0 -0.31377861186E-01 -0.11958146107E+00 -0.45597899866E-01  0.13329694653E+00  0.20114956597E-01 0.  0.
         14    1    1    2    0    0  0.18942513523E-01  0.12539395604E-01 -0.18403374825E-02  0.22791272513E-01  0.00000000000E+00 0.  1.
     999901    1    3    3    0    0  0.12435347663E-01  0.10704206546E+00  0.47438237348E-01  0.88784178096E+00  0.88000000000E+00 0. -1.
        -11    1    4    4    0    0 -0.27377374634E-02 -0.33704643198E-01 -0.54102817426E-02  0.34249532100E-01  0.51100000000E-03 0.  1.
         11    1    4    4    0    0 -0.28640123722E-01 -0.85876817868E-01 -0.40187618123E-01  0.99047414431E-01  0.51100000000E-03 0. -1.
</event>
<event>
 8    1  0.1143957E+005  0.1043930E+01  0.7957747E-01            NaN
         13   -1    0    0    0    0  0.00000000000E+00  0.00000000000E+00  0.74505805969E-08  0.10566000000E+00  0.10566000000E+00 0.  1.
     999900   -1    0    0    0    0 -0.00000000000E+00 -0.00000000000E+00 -0.74505805969E-08  0.93827000000E+00  0.93827000000E+00 0. -1.
     999902    2    1    2    0    0 -0.68450420224E-02  0.22126384558E-01  0.58914317895E-02  0.10200314548E+01  0.10197514542E+01 0.  0.
     999903    2    3    3    0    0  0.10444157899E-01  0.12888217601E+00  0.24715517737E-01  0.13321125789E+00  0.20363857327E-01 0.  0.
         14    1    1    2    0    0  0.68450420224E-02 -0.22126384558E-01 -0.58914317895E-02  0.23898545195E-01  0.00000000000E+00 0. -1.
     999901    1    3    3    0    0 -0.17289199921E-01 -0.10675579145E+00 -0.18824085947E-01  0.88682019691E+00  0.88000000000E+00 0. -1.
        -11    1    4    4    0    0 -0.22047700136E-02  0.62433757642E-01  0.46177212455E-02  0.62645187961E-01  0.51100000000E-03 0. -1.
         11    1    4    4    0    0  0.12648927912E-01  0.66448418366E-01  0.20097796491E-01  0.70566069931E-01  0.51100000000E-03 0.  1.
</event>
<event>
 8    1  0.1143957E+005  0.1043930E+01  0.7957747E-01            NaN
         13   -1    0    0    0    0  0.00000000000E+00  0.00000000000E+00  0.74505805969E-08  0.10566000000E+00  0.10566000000E+00 0. -1.
     999900   -1    0    0    0    0 -0.00000000000E+00 -0.00000000000E+00 -0.74505805969E-08  0.93827000000E+00  0.93827000000E+00 0.  1.
     999902    2    1    2    0    0 -0.21060978035E-01 -0.12850121967E-01 -0.57013775028E-02  0.10186081490E+01  0.10182933591E+01 0.  0.
     999903    2    3    3    0    0  0.76995675197E-01 -0.72041592684E-01  0.69461057923E-01  0.12800827865E+00  0.21046514196E-01 0.  0.
         14    1    1    2    0    0  0.21060978035E-01  0.12850121967E-01  0.57013775028E-02  0.25321850955E-01  0.00000000000E+00 0. -1.
     999901    1    3    3    0    0 -0.98056653232E-01  0.59191470717E-01 -0.75162435425E-01  0.89059987040E+00  0.88000000000E+00 0.  1.
        -11    1    4    4    0    0  0.24927124037E-01 -0.37323673377E-01  0.31025418527E-01  0.54564235749E-01  0.51100000000E-03 0.  1.
         11    1    4    4    0    0  0.52068551160E-01 -0.34717919306E-01  0.38435639396E-01  0.73444042901E-01  0.51100000000E-03 0. -1.
</event>
<event>
 8    1  0.1143957E+005  0.1043930E+01  0.7957747E-01            NaN
         13   -1    0    0    0    0  0.00000000000E+00  0.00000000000E+00  0.74505805969E-08  0.10566000000E+00  0.10566000000E+00 0.  1.
     999900   -1    0    0    0    0 -0.00000000000E+00 -0.00000000000E+00 -0.74505805969E-08  0.93827000000E+00  0.93827000000E+00 0. -1.
     999902    2    1    2    0    0 -0.99252997652E-02 -0.22311166643E-01  0.11242228663E-02  0.10194848858E+01  0.10191917723E+01 0.  0.
     999903    2    3    3    0    0  0.19418206351E-01 -0.85852617412E-01  0.95782989378E-01  0.13164546370E+00  0.20209116849E-01 0.  0.
         14    1    1    2    0    0  0.99252997652E-02  0.22311166643E-01 -0.11242228663E-02  0.24445114225E-01  0.00000000000E+00 0. -1.
     999901    1    3    3    0    0 -0.29343506116E-01  0.63541450769E-01 -0.94658766511E-01  0.88783942208E+00  0.88000000000E+00 0. -1.
        -11    1    4    4    0    0  0.16022296865E-01 -0.46863004722E-01  0.65711495950E-01  0.82286797418E-01  0.51100000000E-03 0.  1.
         11    1    4    4    0    0  0.33959094862E-02 -0.38989612690E-01  0.30071493428E-01  0.49358666280E-01  0.51100000000E-03 0. -1.
</event>
<event>
 8    1  0.1143957E+005  0.1043930E+01  0.7957747E-01            NaN
         13   -1    0    0    0    0  0.00000000000E+00  0.00000000000E+00  0.74505805969E-08  0.10566000000E+00  0.10566000000E+00 0.  1.
     999900   -1    0    0    0    0 -0.00000000000E+00 -0.00000000000E+00 -0.74505805969E-08  0.93827000000E+00  0.93827000000E+00 0.  1.
     999902    2    1    2    0    0  0.16186841135E-01 -0.16693134966E-02 -0.17359564151E-01  0.10201359902E+01  0.10198584626E+01 0.  0.
     999903    2    3    3    0    0  0.11662264051E+00 -0.19524277645E-01 -0.58152400301E-01  0.13330443631E+00  0.20157712737E-01 0.  0.
         14    1    1    2    0    0 -0.16186841135E-01  0.16693134966E-02  0.17359564151E-01  0.23794009771E-01  0.00000000000E+00 0.  1.
     999901    1    3    3    0    0 -0.10043579937E+00  0.17854964149E-01  0.40792836150E-01  0.88683155392E+00  0.88000000000E+00 0. -1.
        -11    1    4    4    0    0  0.22208252859E-01 -0.11911824959E-01 -0.13293557387E-01  0.28496979803E-01  0.51100000000E-03 0. -1.
         11    1    4    4    0    0  0.94414387651E-01 -0.76124526863E-02 -0.44858842914E-01  0.10480745651E+00  0.51100000000E-03 0.  1.
</event>
<event>
 8    1  0.1143957E+005  0.1043930E+01  0.7957747E-01            NaN
         13   -1    0    0    0    0  0.00000000000E+00  0.00000000000E+00  0.74505805969E-08  0.10566000000E+00  0.10566000000E+00 0. -1.
     999900   -1    0    0    0    0 -0.00000000000E+00 -0.00000000000E+00 -0.74505805969E-08  0.93827000000E+00  0.93827000000E+00 0. -1.
     999902    2    1    2    0    0 -0.14897713227E-01 -0.89611293322E-02 -0.14945823554E-01  0.10210035668E+01  0.10207461301E+01 0.  0.
     999903    2    3    3    0    0 -0.10197594782E+00 -0.62934954392E-02  0.80027745353E-01  0.13161629793E+00  0.21902233554E-01 0.  0.
         14    1    1    2    0    0  0.14897713227E-01  0.89611293322E-02  0.14945823554E-01  0.22926433216E-01  0.00000000000E+00 0. -1.
     999901    1    3    3    0    0  0.87078234596E-01 -0.26676338930E-02 -0.94973568908E-01  0.88938726886E+00  0.88000000000E+00 0. -1.
        -11    1    4    4    0    0 -0.57637862363E-01  0.72446249561E-02  0.46218204520E-01  0.74236051340E-01  0.51100000000E-03 0. -1.
         11    1    4    4    0    0 -0.44338085460E-01 -0.13538120395E-01  0.33809540833E-01  0.57380246588E-01  0.51100000000E-03 0.  1.
</event>
<event>
 8    1  0.1143957E+005  0.1043930E+01  0.7957747E-01            NaN
         13   -1    0    0    0    0  0.00000000000E+00  0.00000000000E+00  0.74505805969E-08  0.10566000000E+00  0.10566000000E+00 0. -1.
     999900   -1    0    0    0    0 -0.00000000000E+00 -0.00000000000E+00 -0.74505805969E-08  0.93827000000E+00  0.93827000000E+00 0.  1.
     999902    2    1    2    0    0  0.81814810186E-03  0.22246497527E-01 -0.76367950750E-02  0.10203949908E+01  0.10201235418E+01 0.  0.
     999903    2    3    3    0    0  0.72720106750E-01  0.98179657617E-01  0.48354749450E-01  0.13243621389E+00  0.16544178995E-01 0.  0.
         14    1    1    2    0    0 -0.81814810186E-03 -0.22246497527E-01  0.76367950750E-02  0.23535009189E-01  0.00000000000E+00 0. -1.
     999901    1    3    3    0    0 -0.71901958648E-01 -0.75933160090E-01 -0.55991544525E-01  0.88795877692E+00  0.88000000000E+00 0.  1.
        -11    1    4    4    0    0  0.62811239286E-01  0.74171092080E-01  0.40513623284E-01  0.10530060529E+00  0.51100000000E-03 0. -1.
         11    1    4    4    0    0  0.99088674643E-02  0.24008565537E-01  0.78411261667E-02  0.27135608601E-01  0.51100000000E-03 0.  1.
</event>
<event>
 8    1  0.1143957E+005  0.1043930E+01  0.7957747E-01            NaN
         13   -1    0    0    0    0  0.00000000000E+00  0.00000000000E+00  0.74505805969E-08  0.10566000000E+00  0.10566000000E+00 0.  1.
     999900   -1    0    0    0    0 -0.00000000000E+00 -0.00000000000E+00 -0.74505805969E-08  0.93827000000E+00  0.93827000000E+00 0. -1.
     999902    2    1    2    0    0 -0.23508289206E-01  0.75170248117E-02 -0.16364954122E-02  0.10191949350E+01  0.10188947404E+01 0.  0.
     999903    2    3    3    0    0 -0.52692046647E-01 -0.61841359257E-01  0.99683236886E-01  0.13019101752E+00  0.20301424384E-01 0.  0.
         14    1    1    2    0    0  0.23508289206E-01 -0.75170248117E-02  0.16364954122E-02  0.24735065002E-01  0.00000000000E+00 0. -1.
     999901    1    3    3    0    0  0.29183757442E-01  0.69358384069E-01 -0.10131973230E+00  0.88900391748E+00  0.88000000000E+00 0. -1.
        -11    1    4    4    0    0 -0.24969422960E-01 -0.29662535294E-01  0.31963487578E-01  0.50252002369E-01  0.51100000000E-03 0. -1.
         11    1    4    4    0    0 -0.27722623688E-01 -0.32178823963E-01  0.67719749309E-01  0.79939015150E-01  0.51100000000E-03 0.  1.
</event>
<event>
 8    1  0.1143957E+005  0.1043930E+01  0.7957747E-01            NaN
         13   -1    0    0    0    0  0.00000000000E+00  0.00000000000E+00  0.74505805969E-08  0.10566000000E+00  0.10566000000E+00 0. -1.
     999900   -1    0    0    0    0 -0.00000000000E+00 -0.00000000000E+00 -0.74505805969E-08  0.93827000000E+00  0.93827000000E+00 0. -1.
     999902    2    1    2    0    0 -0.14848678290E-01 -0.17429833902E-01 -0.70856559121E-02  0.10199615024E+01  0.10196798407E+01 0.  0.
     999903    2    3    3    0    0 -0.12469157644E+00  0.57036158240E-02 -0.30742938292E-01  0.13251556841E+00  0.32167174984E-01 0.  0.
         14    1    1    2    0    0  0.14848678290E-01  0.17429833902E-01  0.70856559121E-02  0.23968497586E-01  0.00000000000E+00 0.  1.
     999901    1    3    3    0    0  0.10984289815E+00 -0.23133449726E-01  0.23657282380E-01  0.88744593400E+00  0.88000000000E+00 0.  1.
        -11    1    4    4    0    0 -0.96476384522E-01 -0.78619308641E-02 -0.16817924442E-01  0.98247679010E-01  0.51100000000E-03 0.  1.
         11    1    4    4    0    0 -0.28215191922E-01  0.13565546688E-01 -0.13925013850E-01  0.34267889399E-01  0.51100000000E-03 0. -1.
</event>
<event>
 8    1  0.1143957E+005  0.1043930E+01  0.7957747E-01            NaN
         13   -1    0    0    0    0  0.00000000000E+00  0.00000000000E+00  0.74505805969E-08  0.10566000000E+00  0.10566000000E+00 0.  1.
     999900   -1    0    0    0    0 -0.00000000000E+00 -0.00000000000E+00 -0.74505805969E-08  0.93827000000E+00  0.93827000000E+00 0. -1.
     999902    2    1    2    0    0  0.10029056331E-01  0.43350948570E-02 -0.20569850083E-01  0.10206385048E+01  0.10203727082E+01 0.  0.
     999903    2    3    3    0    0 -0.40843137681E-02  0.49998509954E-02 -0.13215753387E+00  0.13347930806E+00  0.17590673439E-01 0.  0.
         14    1    1    2    0    0 -0.10029056331E-01 -0.43350948570E-02  0.20569850083E-01  0.23291495245E-01  0.00000000000E+00 0.  1.
     999901    1    3    3    0    0  0.14113370099E-01 -0.66475613846E-03  0.11158768378E+00  0.88715919670E+00  0.88000000000E+00 0.  1.
        -11    1    4    4    0    0 -0.10764422477E-01  0.52786164789E-02 -0.80939106811E-01  0.81823815088E-01  0.51100000000E-03 0.  1.
         11    1    4    4    0    0  0.66801087086E-02 -0.27876548351E-03 -0.51218427056E-01  0.51655492967E-01  0.51100000000E-03 0. -1.
</event>
<event>
 8    1  0.1143957E+005  0.1043930E+01  0.7957747E-01            NaN
         13   -1    0    0    0    0  0.00000000000E+00  0.00000000000E+00  0.74505805969E-08  0.10566000000E+00  0.10566000000E+00 0.  1.
     999900   -1    0    0    0    0 -0.00000000000E+00 -0.00000000000E+00 -0.74505805969E-08  0.93827000000E+00  0.93827000000E+00 0.  1.
     999902    2    1    2    0    0 -0.10192795724E-01  0.34786128818E-02 -0.21015295332E-01  0.10203156724E+01  0.10200423691E+01 0.  0.
     999903    2    3    3    0    0  0.11695588757E-01 -0.11143341928E+00 -0.65691899410E-01  0.13145129830E+00  0.20244121296E-01 0.  0.
         14    1    1    2    0    0  0.10192795724E-01 -0.34786128818E-02  0.21015295332E-01  0.23614327645E-01  0.00000000000E+00 0.  1.
     999901    1    3    3    0    0 -0.21888384481E-01  0.11491203217E+00  0.44676604079E-01  0.88886437405E+00  0.88000000000E+00 0. -1.
        -11    1    4    4    0    0  0.13042830410E-01 -0.51691723637E-01 -0.23300978197E-01  0.58183729888E-01  0.51100000000E-03 0.  1.
         11    1    4    4    0    0 -0.13472416532E-02 -0.59741695646E-01 -0.42390921213E-01  0.73267568412E-01  0.51100000000E-03 0. -1.
</event>
<event>
 8    1  0.1143957E+005  0.1043930E+01  0.7957747E-01            NaN
         13   -1    0    0    0    0  0.00000000000E+00  0.00000000000E+00  0.74505805969E-08  0.10566000000E+00  0.10566000000E+00 0.  1.
     999900   -1    0    0    0    0 -0.00000000000E+00 -0.00000000000E+00 -0.74505805969E-08  0.93827000000E+00  0.93827000000E+00 0. -1.
     999902    2    1    2    0    0  0.14097250579E-01  0.12032764132E-01 -0.14915546034E-01  0.10201393842E+01  0.10198619366E+01 0.  0.
     999903    2    3    3    0    0 -0.44807418760E-01  0.37160131204E-03 -0.12204327141E+00  0.13161133606E+00  0.20472928932E-01 0.  0.
         14    1    1    2    0    0 -0.14097250579E-01 -0.12032764132E-01  0.14915546034E-01  0.23790615798E-01  0.00000000000E+00 0.  1.
     999901    1    3    3    0    0  0.58904669339E-01  0.11661162820E-01  0.10712772538E+00  0.88852804814E+00  0.88000000000E+00 0.  1.
        -11    1    4    4    0    0 -0.41571671540E-02  0.16196008035E-02 -0.37775380800E-01  0.38041367760E-01  0.51100000000E-03 0.  1.
         11    1    4    4    0    0 -0.40650251606E-01 -0.12479994914E-02 -0.84267890614E-01  0.93569968301E-01  0.51100000000E-03 0. -1.
</event>
<event>
 8    1  0.1143957E+005  0.1043930E+01  0.7957747E-01            NaN
         13   -1    0    0    0    0  0.00000000000E+00  0.00000000000E+00  0.74505805969E-08  0.10566000000E+00  0.10566000000E+00 0. -1.
     999900   -1    0    0    0    0 -0.00000000000E+00 -0.00000000000E+00 -0.74505805969E-08  0.93827000000E+00  0.93827000000E+00 0.  1.
     999902    2    1    2    0    0 -0.46410247332E-02 -0.21674889836E-01  0.48444306236E-02  0.10212406089E+01  0.10209885273E+01 0.  0.
     999903    2    3    3    0    0  0.60081324995E-01  0.10046765773E+00  0.50393491298E-01  0.12928629315E+00  0.21723852516E-01 0.  0.
         14    1    1    2    0    0  0.46410247332E-02  0.21674889836E-01 -0.48444306236E-02  0.22689391090E-01  0.00000000000E+00 0. -1.
     999901    1    3    3    0    0 -0.64722349728E-01 -0.12214254756E+00 -0.45549060674E-01  0.89195431576E+00  0.88000000000E+00 0.  1.
        -11    1    4    4    0    0  0.39657845058E-01  0.78085731184E-01  0.29253098489E-01  0.92337050968E-01  0.51100000000E-03 0.  1.
         11    1    4    4    0    0  0.20423479936E-01  0.22381926543E-01  0.21140392809E-01  0.36949242179E-01  0.51100000000E-03 0. -1.
</event>
<event>
 8    1  0.1143957E+005  0.1043930E+01  0.7957747E-01            NaN
         13   -1    0    0    0    0  0.00000000000E+00  0.00000000000E+00  0.74505805969E-08  0.10566000000E+00  0.10566000000E+00 0.  1.
     999900   -1    0    0    0    0 -0.00000000000E+00 -0.00000000000E+00 -0.74505805969E-08  0.93827000000E+00  0.93827000000E+00 0.  1.
     999902    2    1    2    0    0  0.65218365027E-02  0.24072922836E-01 -0.47590429631E-02  0.10185392841E+01  0.10182227579E+01 0.  0.
     999903    2    3    3    0    0 -0.96861704082E-01 -0.66533511821E-01  0.42683904927E-01  0.12660401974E+00  0.19944025692E-01 0.  0.
         14    1    1    2    0    0 -0.65218365027E-02 -0.24072922836E-01  0.47590429631E-02  0.25390715925E-01  0.00000000000E+00 0. -1.
     999901    1    3    3    0    0  0.10338354059E+00  0.90606434657E-01 -0.47442947890E-01  0.89193526434E+00  0.88000000000E+00 0. -1.
        -11    1    4    4    0    0 -0.74523921249E-01 -0.46536520992E-01  0.39876462253E-01  0.96487594991E-01  0.51100000000E-03 0.  1.
         11    1    4    4    0    0 -0.22337782834E-01 -0.19996990829E-01  0.28074426746E-02  0.30116424746E-01  0.51100000000E-03 0. -1.
</event>
<event>
 8    1  0.1143957E+005  0.1043930E+01  0.7957747E-01            NaN
         13   -1    0    0    0    0  0.00000000000E+00  0.00000000000E+00  0.74505805969E-08  0.10566000000E+00  0.10566000000E+00 0. -1.
     999900   -1    0    0    0    0 -0.00000000000E+00 -0.00000000000E+00 -0.74505805969E-08  0.93827000000E+00  0.93827000000E+00 0.  1.
     999902    2    1    2    0    0  0.20476490063E-01  0.21714171141E-02 -0.11908272288E-01  0.10201432674E+01  0.10198659115E+01 0.  0.
     999903    2    3    3    0    0  0.66427383233E-01  0.10956455016E+00 -0.25665805952E-01  0.13231781198E+00  0.20791389514E-01 0.  0.
         14    1    1    2    0    0 -0.20476490063E-01 -0.21714171141E-02  0.11908272288E-01  0.23786732572E-01  0.00000000000E+00 0. -1.
     999901    1    3    3    0    0 -0.45950893170E-01 -0.10739313304E+00  0.13757533665E-01  0.88782545545E+00  0.88000000000E+00 0. -1.
        -11    1    4    4    0    0  0.39282475778E-01  0.60205744585E-01 -0.41279300136E-02  0.72007954501E-01  0.51100000000E-03 0. -1.
         11    1    4    4    0    0  0.27144907455E-01  0.49358805572E-01 -0.21537875939E-01  0.60309857480E-01  0.51100000000E-03 0.  1.
</event>
<event>
 8    1  0.1143957E+005  0.1043930E+01  0.7957747E-01            NaN
         13   -1    0    0    0    0  0.00000000000E+00  0.00000000000E+00  0.74505805969E-08  0.10566000000E+00  0.10566000000E+00 0.  1.
     999900   -1    0    0    0    0 -0.00000000000E+00 -0.00000000000E+00 -0.74505805969E-08  0.93827000000E+00  0.93827000000E+00 0. -1.
     999902    2    1    2    0    0  0.19393292010E-01 -0.14962080538E-01  0.11501218882E-02  0.10194088579E+01  0.10191138961E+01 0.  0.
     999903    2    3    3    0    0 -0.43933086066E-01  0.11174268902E+00  0.37950640796E-01  0.12732219902E+00  0.18818783845E-01 0.  0.
         14    1    1    2    0    0 -0.19393292010E-01  0.14962080538E-01 -0.11501218882E-02  0.24521142089E-01  0.00000000000E+00 0. -1.
     999901    1    3    3    0    0  0.63326378076E-01 -0.12670476955E+00 -0.36800518907E-01  0.89208665890E+00  0.88000000000E+00 0. -1.
        -11    1    4    4    0    0 -0.14321406966E-01  0.20529285059E-01  0.13087560868E-01  0.28250656859E-01  0.51100000000E-03 0. -1.
         11    1    4    4    0    0 -0.29611679100E-01  0.91213403958E-01  0.24863079927E-01  0.99071542156E-01  0.51100000000E-03 0.  1.
</event>
<event>
 8    1  0.1143957E+005  0.1043930E+01  0.7957747E-01            NaN
         13   -1    0    0    0    0  0.00000000000E+00  0.00000000000E+00  0.74505805969E-08  0.10566000000E+00  0.10566000000E+00 0. -1.
     999900   -1    0    0    0    0 -0.00000000000E+00 -0.00000000000E+00 -0.74505805969E-08  0.93827000000E+00  0.93827000000E+00 0.  1.
     999902    2    1    2    0    0 -0.43473525045E-03 -0.22790104371E-01  0.58789114189E-02  0.10203898332E+01  0.10201182639E+01 0.  0.
     999903    2    3    3    0    0  0.52945562686E-01  0.46019483311E-01  0.10767123544E+00  0.13025170193E+00  0.21245833991E-01 0.  0.
         14    1    1    2    0    0  0.43473525045E-03  0.22790104371E-01 -0.58789114189E-02  0.23540166768E-01  0.00000000000E+00 0. -1.
     999901    1    3    3    0    0 -0.53380297936E-01 -0.68809587682E-01 -0.10179232402E+00  0.89013813130E+00  0.88000000000E+00 0.  1.
        -11    1    4    4    0    0  0.32921258291E-01  0.17895440361E-01  0.43786179319E-01  0.57632860883E-01  0.51100000000E-03 0. -1.
         11    1    4    4    0    0  0.20024304395E-01  0.28124042950E-01  0.63885056124E-01  0.72618841049E-01  0.51100000000E-03 0.  1.
</event>
<event>
 8    1  0.1143957E+005  0.1043930E+01  0.7957747E-01            NaN
         13   -1    0    0    0    0  0.00000000000E+00  0.00000000000E+00  0.74505805969E-08  0.10566000000E+00  0.10566000000E+00 0. -1.
     999900   -1    0    0    0    0 -0.00000000000E+00 -0.00000000000E+00 -0.74505805969E-08  0.93827000000E+00  0.93827000000E+00 0.  1.
     999902    2    1    2    0    0  0.43149995478E-02 -0.18718228082E-01 -0.12740618475E-01  0.10208797366E+01  0.10206194795E+01 0.  0.
     999903    2    3    3    0    0 -0.48584177269E-01  0.98204199329E-01 -0.66787695643E-01  0.12993065641E+00  0.20417936713E-01 0.  0.
         14    1    1    2    0    0 -0.43149995478E-02  0.18718228082E-01  0.12740618475E-01  0.23050263398E-01  0.00000000000E+00 0. -1.
     999901    1    3    3    0    0  0.52899176817E-01 -0.11692242741E+00  0.54047077168E-01  0.89094908019E+00  0.88000000000E+00 0. -1.
        -11    1    4    4    0    0 -0.68849584606E-02  0.27211987072E-01 -0.95444317095E-02  0.29652186953E-01  0.51100000000E-03 0.  1.
         11    1    4    4    0    0 -0.41699218809E-01  0.70992212257E-01 -0.57243263934E-01  0.10027846946E+00  0.51100000000E-03 0. -1.
</event>
<event>
 8    1  0.1143957E+005  0.1043930E+01  0.7957747E-01            NaN
         13   -1    0    0    0    0  0.00000000000E+00  0.00000000000E+00  0.74505805969E-08  0.10566000000E+00  0.10566000000E+00 0.  1.
     999900   -1    0    0    0    0 -0.00000000000E+00 -0.00000000000E+00 -0.74505805969E-08  0.93827000000E+00  0.93827000000E+00 0. -1.
     999902    2    1    2    0    0  0.42188529643E-02 -0.26594548269E-01  0.91150823511E-02  0.10155019602E+01  0.10151039739E+01 0.  0.
     999903    2    3    3    0    0  0.22426180294E-01 -0.50387711502E-02 -0.12134250333E+00  0.12543716488E+00  0.21958060951E-01 0.  0.
         14    1    1    2    0    0 -0.42188529643E-02  0.26594548269E-01 -0.91150823511E-02  0.28428039754E-01  0.00000000000E+00 0. -1.
     999901    1    3    3    0    0 -0.18207327330E-01 -0.21555777119E-01  0.13045758568E+00  0.89006479537E+00  0.88000000000E+00 0.  1.
        -11    1    4    4    0    0 -0.22178771625E-02 -0.63814770381E-02 -0.34250456250E-01  0.34914139008E-01  0.51100000000E-03 0. -1.
         11    1    4    4    0    0  0.24644057457E-01  0.13427058879E-02 -0.87092047078E-01  0.90523025868E-01  0.51100000000E-03 0.  1.
</event>
<event>
 8    1  0.1143957E+005  0.1043930E+01  0.7957747E-01            NaN
         13   -1    0    0    0    0  0.00000000000E+00  0.00000000000E+00  0.74505805969E-08  0.10566000000E+00  0.10566000000E+00 0.  1.
     999900   -1    0    0    0    0 -0.00000000000E+00 -0.00000000000E+00 -0.74505805969E-08  0.93827000000E+00  0.93827000000E+00 0. -1.
     999902    2    1    2    0    0  0.21960930165E-01 -0.60156277801E-02 -0.12302314774E-01  0.10180491735E+01  0.10177201494E+01 0.  0.
     999903    2    3    3    0    0 -0.41342001363E-01  0.50300820055E-01 -0.10941445134E+00  0.12866198532E+00  0.18521628729E-01 0.  0.
         14    1    1    2    0    0 -0.21960930165E-01  0.60156277801E-02  0.12302314774E-01  0.25880826496E-01  0.00000000000E+00 0.  1.
     999901    1    3    3    0    0  0.63302931528E-01 -0.56316447835E-01  0.97112136561E-01  0.88938718818E+00  0.88000000000E+00 0.  1.
        -11    1    4    4    0    0 -0.12196902178E-01  0.18539953673E-01 -0.54502151248E-01  0.58849298353E-01  0.51100000000E-03 0. -1.
         11    1    4    4    0    0 -0.29145099185E-01  0.31760866382E-01 -0.54912300087E-01  0.69812686968E-01  0.51100000000E-03 0.  1.
</event>
<event>
 8    1  0.1143957E+005  0.1043930E+01  0.7957747E-01            NaN
         13   -1    0    0    0    0  0.00000000000E+00  0.00000000000E+00  0.74505805969E-08  0.10566000000E+00  0.10566000000E+00 0. -1.
     999900   -1    0    0    0    0 -0.00000000000E+00 -0.00000000000E+00 -0.74505805969E-08  0.93827000000E+00  0.93827000000E+00 0.  1.
     999902    2    1    2    0    0  0.14105669831E-01 -0.21558530156E-01  0.64648558940E-02  0.10173681005E+01  0.10170212964E+01 0.  0.
     999903    2    3    3    0    0 -0.47105042171E-01 -0.40940223131E-01  0.11104687851E+00  0.12885259655E+00  0.19406069744E-01 0.  0.
         14    1    1    2    0    0 -0.14105669831E-01  0.21558530156E-01 -0.64648558940E-02  0.26561899510E-01  0.00000000000E+00 0.  1.
     999901    1    3    3    0    0  0.61210712001E-01  0.19381692975E-01 -0.10458202262E+00  0.88851550394E+00  0.88000000000E+00 0.  1.
        -11    1    4    4    0    0 -0.98966166523E-02 -0.19238302053E-02  0.94115849682E-02  0.13801565000E-01  0.51100000000E-03 0. -1.
         11    1    4    4    0    0 -0.37208425518E-01 -0.39016392926E-01  0.10163529354E+00  0.11505103155E+00  0.51100000000E-03 0.  1.
</event>
<event>
 8    1  0.1143957E+005  0.1043930E+01  0.7957747E-01            NaN
         13   -1    0    0    0    0  0.00000000000E+00  0.00000000000E+00  0.74505805969E-08  0.10566000000E+00  0.10566000000E+00 0.  1.
     999900   -1    0    0    0    0 -0.00000000000E+00 -0.00000000000E+00 -0.74505805969E-08  0.93827000000E+00  0.93827000000E+00 0.  1.
     999902    2    1    2    0    0  0.13405433521E-01  0.16772755650E-01  0.51969743858E-02  0.10218383834E+01  0.10215995509E+01 0.  0.
     999903    2    3    3    0    0  0.11281648717E+00 -0.66036767927E-01 -0.31546293932E-02  0.13233867906E+00  0.20375470409E-01 0.  0.
         14    1    1    2    0    0 -0.13405433521E-01 -0.16772755650E-01 -0.51969743858E-02  0.22091616572E-01  0.00000000000E+00 0. -1.
     999901    1    3    3    0    0 -0.99411053646E-01  0.82809523577E-01  0.83516037790E-02  0.88949970437E+00  0.88000000000E+00 0.  1.
        -11    1    4    4    0    0  0.59667745216E-02 -0.45274587431E-02 -0.50253099298E-02  0.90341099037E-02  0.51100000000E-03 0. -1.
         11    1    4    4    0    0  0.10684971265E+00 -0.61509309184E-01  0.18706805365E-02  0.12330456916E+00  0.51100000000E-03 0.  1.
</event>
<event>
 8    1  0.1143957E+005  0.1043930E+01  0.7957747E-01            NaN
         13   -1    0    0    0    0  0.00000000000E+00  0.00000000000E+00  0.74505805969E-08  0.10566000000E+00  0.10566000000E+00 0.  1.
     999900   -1    0    0    0    0 -0.00000000000E+00 -0.00000000000E+00 -0.74505805969E-08  0.93827000000E+00  0.93827000000E+00 0. -1.
     999902    2    1    2    0    0 -0.17230718687E-01  0.15839894153E-01  0.42533737941E-02  0.10201415343E+01  0.10198641374E+01 0.  0.
     999903    2    3    3    0    0  0.23728211723E-01 -0.75953566780E-01 -0.97738025970E-01  0.12856656878E+00  0.25390323954E-01 0.  0.
         14    1    1    2    0    0  0.17230718687E-01 -0.15839894153E-01 -0.42533737941E-02  0.23788465732E-01  0.00000000000E+00 0. -1.
     999901    1    3    3    0    0 -0.40958930410E-01  0.91793460933E-01  0.10199139976E+00  0.89157496548E+00  0.88000000000E+00 0.  1.
        -11    1    4    4    0    0  0.16684971889E-02 -0.43131944125E-02 -0.20155978659E-01  0.20686036972E-01  0.51100000000E-03 0.  1.
         11    1    4    4    0    0  0.22059714534E-01 -0.71640372367E-01 -0.77582047310E-01  0.10788053181E+00  0.51100000000E-03 0. -1.
</event>
<event>
 8    1  0.1143957E+005  0.1043930E+01  0.7957747E-01            NaN
         13   -1    0    0    0    0  0.00000000000E+00  0.00000000000E+00  0.74505805969E-08  0.10566000000E+00  0.10566000000E+00 0. -1.
     999900   -1    0    0    0    0 -0.00000000000E+00 -0.00000000000E+00 -0.74505805969E-08  0.93827000000E+00  0.93827000000E+00 0.  1.
     999902    2    1    2    0    0  0.14503962461E-01 -0.18550215643E-01 -0.14694940644E-02  0.10203368900E+01  0.10200640834E+01 0.  0.
     999903    2    3    3    0    0 -0.58766230974E-01 -0.11633042388E+00 -0.43042028877E-03  0.13189411184E+00  0.20239418280E-01 0.  0.
         14    1    1    2    0    0 -0.14503962461E-01  0.18550215643E-01  0.14694940644E-02  0.23593110017E-01  0.00000000000E+00 0.  1.
     999901    1    3    3    0    0  0.73270193435E-01  0.97780208237E-01 -0.10390737756E-02  0.88844277815E+00  0.88000000000E+00 0.  1.
        -11    1    4    4    0    0 -0.20181497922E-01 -0.26804538855E-01  0.64220963597E-02  0.34165488497E-01  0.51100000000E-03 0. -1.
         11    1    4    4    0    0 -0.38584733052E-01 -0.89525885025E-01 -0.68525166484E-02  0.97728623338E-01  0.51100000000E-03 0.  1.
</event>
<event>
 8    1  0.1143957E+005  0.1043930E+01  0.7957747E-01            NaN
         13   -1    0    0    0    0  0.00000000000E+00  0.00000000000E+00  0.74505805969E-08  0.10566000000E+00  0.10566000000E+00 0.  1.
     999900   -1    0    0    0    0 -0.00000000000E+00 -0.00000000000E+00 -0.74505805969E-08  0.93827000000E+00  0.93827000000E+00 0. -1.
     999902    2    1    2    0    0 -0.22251002538E-01  0.45828496513E-02  0.12439428058E-01  0.10180292472E+01  0.10176997097E+01 0.  0.
     999903    2    3    3    0    0 -0.53854526705E-01 -0.78960036267E-02  0.11759978931E+00  0.13111707224E+00  0.19982974419E-01 0.  0.
         14    1    1    2    0    0  0.22251002538E-01 -0.45828496513E-02 -0.12439428058E-01  0.25900752794E-01  0.00000000000E+00 0. -1.
     999901    1    3    3    0    0  0.31603524167E-01  0.12478853278E-01 -0.10516036126E+00  0.88691217496E+00  0.88000000000E+00 0. -1.
        -11    1    4    4    0    0 -0.27323153625E-01 -0.10511985997E-01  0.78568093963E-01  0.83846664117E-01  0.51100000000E-03 0.  1.
         11    1    4    4    0    0 -0.26531373080E-01  0.26159823699E-02  0.39031695352E-01  0.47270408125E-01  0.51100000000E-03 0. -1.
</event>
<event>
 8    1  0.1143957E+005  0.1043930E+01  0.7957747E-01            NaN
         13   -1    0    0    0    0  0.00000000000E+00  0.00000000000E+00  0.74505805969E-08  0.10566000000E+00  0.10566000000E+00 0.  1.
     999900   -1    0    0    0    0 -0.00000000000E+00 -0.00000000000E+00 -0.74505805969E-08  0.93827000000E+00  0.93827000000E+00 0.  1.
     999902    2    1    2    0    0 -0.15590129284E-01 -0.76588363612E-02  0.15323037168E-01  0.10207674144E+01  0.10205045854E+01 0.  0.
     999903    2    3    3    0    0  0.12687503464E+00  0.32449414644E-02 -0.95003876835E-02  0.12889779512E+00  0.20410295450E-01 0.  0.
         14    1    1    2    0    0  0.15590129284E-01  0.76588363612E-02 -0.15323037168E-01  0.23162585640E-01  0.00000000000E+00 0. -1.
     999901    1    3    3    0    0 -0.14246516392E+00 -0.10903777826E-01  0.24823424851E-01  0.89186961924E+00  0.88000000000E+00 0. -1.
        -11    1    4    4    0    0  0.52324576894E-01  0.11381860800E-01 -0.36366683374E-02  0.53673965570E-01  0.51100000000E-03 0.  1.
         11    1    4    4    0    0  0.74550457747E-01 -0.81369193359E-02 -0.58637193461E-02  0.75223829550E-01  0.51100000000E-03 0. -1.
</event>
<event>
 8    1  0.1143957E+005  0.1043930E+01  0.7957747E-01            NaN
         13   -1    0    0    0    0  0.00000000000E+00  0.00000000000E+00  0.74505805969E-08  0.10566000000E+00  0.10566000000E+00 0.  1.
     999900   -1    0    0    0    0 -0.00000000000E+00 -0.00000000000E+00 -0.74505805969E-08  0.93827000000E+00  0.93827000000E+00 0.  1.
     999902    2    1    2    0    0 -0.14083785381E-01 -0.29263558847E-02 -0.17960028485E-01  0.10209195851E+01  0.10206602373E+01 0.  0.
     999903    2    3    3    0    0 -0.10344552058E+00  0.31566818744E-01  0.71487390491E-01  0.13121393741E+00  0.20228954464E-01 0.  0.
         14    1    1    2    0    0  0.14083785381E-01  0.29263558847E-02  0.17960028485E-01  0.23010414873E-01  0.00000000000E+00 0.  1.
     999901    1    3    3    0    0  0.89361735198E-01 -0.34493174628E-01 -0.89447418976E-01  0.88970564771E+00  0.88000000000E+00 0.  1.
        -11    1    4    4    0    0 -0.63031243638E-02  0.57945383989E-03  0.10873376918E-01  0.12591925592E-01  0.51100000000E-03 0.  1.
         11    1    4    4    0    0 -0.97142396215E-01  0.30987364904E-01  0.60614013573E-01  0.11862201182E+00  0.51100000000E-03 0. -1.
</event>
<event>
 8    1  0.1143957E+005  0.1043930E+01  0.7957747E-01            NaN
         13   -1    0    0    0    0  0.00000000000E+00  0.00000000000E+00  0.74505805969E-08  0.10566000000E+00  0.10566000000E+00 0. -1.
     999900   -1    0    0    0    0 -0.00000000000E+00 -0.00000000000E+00 -0.74505805969E-08  0.93827000000E+00  0.93827000000E+00 0.  1.
     999902    2    1    2    0    0 -0.11181015594E-01 -0.14543504930E-01 -0.12914186317E-01  0.10214955432E+01  0.10212491566E+01 0.  0.
     999903    2    3    3    0    0 -0.88069772763E-01  0.31141065590E-01  0.89692413678E-01  0.13103101533E+00  0.19958633891E-01 0.  0.
         14    1    1    2    0    0  0.11181015594E-01  0.14543504930E-01  0.12914186317E-01  0.22434456837E-01  0.00000000000E+00 0.  1.
     999901    1    3    3    0    0  0.76888757169E-01 -0.45684570520E-01 -0.10260660000E+00  0.89046452783E+00  0.88000000000E+00 0.  1.
        -11    1    4    4    0    0 -0.75563753481E-02 -0.28551060311E-02  0.85378751172E-02  0.11764644974E-01  0.51100000000E-03 0. -1.
         11    1    4    4    0    0 -0.80513397415E-01  0.33996171622E-01  0.81154538561E-01  0.11926637036E+00  0.51100000000E-03 0.  1.
</event>
<event>
 8    1  0.1146087E+005  0.1043930E+01  0.7957747E-01            NaN
         13   -1    0    0    0    0  0.00000000000E+00  0.00000000000E+00  0.74505805969E-08  0.10566000000E+00  0.10566000000E+00 0. -1.
     999900   -1    0    0    0    0 -0.00000000000E+00 -0.00000000000E+00 -0.74505805969E-08  0.93827000000E+00  0.93827000000E+00 0.  1.
     999902    2    1    2    0    0  0.17650694837E-01 -0.69998218540E-02 -0.14805166805E-01  0.10198522614E+01  0.10195679955E+01 0.  0.
     999903    2    3    3    0    0 -0.46056544616E-01  0.20755640981E-01 -0.11912709346E+00  0.13096979305E+00  0.20244020345E-01 0.  0.
         14    1    1    2    0    0 -0.17650694837E-01  0.69998218540E-02  0.14805166805E-01  0.24077738647E-01  0.00000000000E+00 0.  1.
     999901    1    3    3    0    0  0.63707239453E-01 -0.27755462835E-01  0.10432192666E+00  0.88888246830E+00  0.88000000000E+00 0. -1.
        -11    1    4    4    0    0 -0.25428780902E-01  0.10414714928E-01 -0.39901985196E-01  0.48451199457E-01  0.51100000000E-03 0.  1.
         11    1    4    4    0    0 -0.20627763714E-01  0.10340926053E-01 -0.79225108268E-01  0.82518593593E-01  0.51100000000E-03 0. -1.
</event>
<event>
 8    1  0.1143957E+005  0.1043930E+01  0.7957747E-01            NaN
         13   -1    0    0    0    0  0.00000000000E+00  0.00000000000E+00  0.74505805969E-08  0.10566000000E+00  0.10566000000E+00 0. -1.
     999900   -1    0    0    0    0 -0.00000000000E+00 -0.00000000000E+00 -0.74505805969E-08  0.93827000000E+00  0.93827000000E+00 0.  1.
     999902    2    1    2    0    0  0.18068489495E-01  0.31479671020E-02 -0.12456006246E-01  0.10217594768E+01  0.10215189162E+01 0.  0.
     999903    2    3    3    0    0 -0.19781262225E-01  0.88294634601E-02  0.12660206397E+00  0.13001846614E+00  0.20185667607E-01 0.  0.
         14    1    1    2    0    0 -0.18068489495E-01 -0.31479671020E-02  0.12456006246E-01  0.22170523248E-01  0.00000000000E+00 0. -1.
     999901    1    3    3    0    0  0.37849751720E-01 -0.56814963581E-02 -0.13905807022E+00  0.89174101061E+00  0.88000000000E+00 0.  1.
        -11    1    4    4    0    0 -0.27307234359E-02 -0.30004562318E-02  0.62613633381E-01  0.62747014226E-01  0.51100000000E-03 0.  1.
         11    1    4    4    0    0 -0.17050538789E-01  0.11829919692E-01  0.63988430589E-01  0.67271451919E-01  0.51100000000E-03 0. -1.
</event>
<event>
 8    1  0.1143957E+005  0.1043930E+01  0.7957747E-01            NaN
         13   -1    0    0    0    0  0.00000000000E+00  0.00000000000E+00  0.74505805969E-08  0.10566000000E+00  0.10566000000E+00 0.  1.
     999900   -1    0    0    0    0 -0.00000000000E+00 -0.00000000000E+00 -0.74505805969E-08  0.93827000000E+00  0.93827000000E+00 0. -1.
     999902    2    1    2    0    0 -0.11882522747E-01 -0.18755143124E-01  0.94439808218E-02  0.10198024532E+01  0.10195169960E+01 0.  0.
     999903    2    3    3    0    0 -0.59054388541E-01  0.83617508699E-01  0.77647585164E-01  0.12999512777E+00  0.19755434552E-01 0.  0.
         14    1    1    2    0    0  0.11882522747E-01  0.18755143124E-01 -0.94439808218E-02  0.24127546792E-01  0.00000000000E+00 0. -1.
     999901    1    3    3    0    0  0.47171865794E-01 -0.10237265182E+00 -0.68203604342E-01  0.88980732544E+00  0.88000000000E+00 0. -1.
        -11    1    4    4    0    0 -0.24827719977E-01  0.40904058289E-01  0.47855781863E-01  0.67675657680E-01  0.51100000000E-03 0.  1.
         11    1    4    4    0    0 -0.34226668564E-01  0.42713450411E-01  0.29791803301E-01  0.62319470087E-01  0.51100000000E-03 0. -1.
</event>
<event>
 8    1  0.1143957E+005  0.1043930E+01  0.7957747E-01            NaN
         13   -1    0    0    0    0  0.00000000000E+00  0.00000000000E+00  0.74505805969E-08  0.10566000000E+00  0.10566000000E+00 0. -1.
     999900   -1    0    0    0    0 -0.00000000000E+00 -0.00000000000E+00 -0.74505805969E-08  0.93827000000E+00  0.93827000000E+00 0.  1.
     999902    2    1    2    0    0  0.26437280838E-02  0.91288468048E-02  0.21844183233E-01  0.10201078783E+01  0.10198296867E+01 0.  0.
     999903    2    3    3    0    0  0.10806149653E+00  0.81750502988E-02  0.73193600879E-01  0.13232942713E+00  0.20239950495E-01 0.  0.
         14    1    1    2    0    0 -0.26437280838E-02 -0.91288468048E-02 -0.21844183233E-01  0.23822121721E-01  0.00000000000E+00 0.  1.
     999901    1    3    3    0    0 -0.10541776844E+00  0.95379650592E-03 -0.51349417646E-01  0.88777845115E+00  0.88000000000E+00 0.  1.
        -11    1    4    4    0    0  0.81750453655E-01  0.14324040590E-01  0.51525550508E-01  0.97690625383E-01  0.51100000000E-03 0.  1.
         11    1    4    4    0    0  0.26311042872E-01 -0.61489902909E-02  0.21668050371E-01  0.34638801747E-01  0.51100000000E-03 0. -1.
</event>
<event>
 8    1  0.1169776E+005  0.1043930E+01  0.7957747E-01            NaN
         13   -1    0    0    0    0  0.00000000000E+00  0.00000000000E+00  0.74505805969E-08  0.10566000000E+00  0.10566000000E+00 0.  1.
     999900   -1    0    0    0    0 -0.00000000000E+00 -0.00000000000E+00 -0.74505805969E-08  0.93827000000E+00  0.93827000000E+00 0. -1.
     999902    2    1    2    0    0 -0.18352147120E-01 -0.20504395938E-02  0.14581564982E-01  0.10204007067E+01  0.10201293911E+01 0.  0.
     999903    2    3    3    0    0 -0.62085579153E-01  0.84637391617E-01  0.78723126419E-01  0.13273999839E+00  0.20111423125E-01 0.  0.
         14    1    1    2    0    0  0.18352147120E-01  0.20504395938E-02 -0.14581564982E-01  0.23529293312E-01  0.00000000000E+00 0. -1.
     999901    1    3    3    0    0  0.43733432033E-01 -0.86687831211E-01 -0.64141561436E-01  0.88766070830E+00  0.88000000000E+00 0. -1.
        -11    1    4    4    0    0 -0.18612551741E-01  0.35120519540E-01  0.39583171751E-01  0.56097830457E-01  0.51100000000E-03 0. -1.
         11    1    4    4    0    0 -0.43473027413E-01  0.49516872076E-01  0.39139954668E-01  0.76642167930E-01  0.51100000000E-03 0.  1.
</event>
<event>
 8    1  0.1143957E+005  0.1043930E+01  0.7957747E-01            NaN
         13   -1    0    0    0    0  0.00000000000E+00  0.00000000000E+00  0.74505805969E-08  0.10566000000E+00  0.10566000000E+00 0. -1.
     999900   -1    0    0    0    0 -0.00000000000E+00 -0.00000000000E+00 -0.74505805969E-08  0.93827000000E+00  0.93827000000E+00 0. -1.
     999902    2    1    2    0    0  0.46289222642E-02  0.31652206469E-03 -0.24117419461E-01  0.10193703374E+01  0.10190744368E+01 0.  0.
     999903    2    3    3    0    0 -0.17100531123E-01 -0.11637732865E+00 -0.53836185409E-01  0.13090377694E+00  0.20033800645E-01 0.  0.
         14    1    1    2    0    0 -0.46289222642E-02 -0.31652206469E-03  0.24117419461E-01  0.24559662641E-01  0.00000000000E+00 0. -1.
     999901    1    3    3    0    0  0.21729453387E-01  0.11669385072E+00  0.29718765948E-01  0.88846656042E+00  0.88000000000E+00 0.  1.
        -11    1    4    4    0    0  0.18783058866E-02 -0.55198617577E-01 -0.26415050969E-01  0.61224435107E-01  0.51100000000E-03 0.  1.
         11    1    4    4    0    0 -0.18978837010E-01 -0.61178711074E-01 -0.27421134440E-01  0.69679341830E-01  0.51100000000E-03 0. -1.
</event>
<event>
 8    1  0.1143957E+005  0.1043930E+01  0.7957747E-01            NaN
         13   -1    0    0    0    0  0.00000000000E+00  0.00000000000E+00  0.74505805969E-08  0.10566000000E+00  0.10566000000E+00 0. -1.
     999900   -1    0    0    0    0 -0.00000000000E+00 -0.00000000000E+00 -0.74505805969E-08  0.93827000000E+00  0.93827000000E+00 0.  1.
     999902    2    1    2    0    0  0.84370771688E-03  0.21480283985E-02 -0.22885889244E-01  0.10209280480E+01  0.10206688931E+01 0.  0.
     999903    2    3    3    0    0 -0.91400111119E-01  0.89457895443E-01  0.19282038700E-01  0.13081003946E+00  0.19564611891E-01 0.  0.
         14    1    1    2    0    0 -0.84370771688E-03 -0.21480283985E-02  0.22885889244E-01  0.23001951987E-01  0.00000000000E+00 0. -1.
     999901    1    3    3    0    0  0.92243818836E-01 -0.87309867044E-01 -0.42167927944E-01  0.89011800855E+00  0.88000000000E+00 0. -1.
        -11    1    4    4    0    0 -0.28338855295E-01  0.39952816213E-01  0.36004574892E-02  0.49117641005E-01  0.51100000000E-03 0. -1.
         11    1    4    4    0    0 -0.63061255824E-01  0.49505079230E-01  0.15681581211E-01  0.81692398459E-01  0.51100000000E-03 0.  1.
</event>
<event>
 8    1  0.1143957E+005  0.1043930E+01  0.7957747E-01            NaN
         13   -1    0    0    0    0  0.00000000000E+00  0.00000000000E+00  0.74505805969E-08  0.10566000000E+00  0.10566000000E+00 0.  1.
     999900   -1    0    0    0    0 -0.00000000000E+00 -0.00000000000E+00 -0.74505805969E-08  0.93827000000E+00  0.93827000000E+00 0. -1.
     999902    2    1    2    0    0 -0.10918401502E-01 -0.32349328034E-02 -0.19411325856E-01  0.10214249816E+01  0.10211770254E+01 0.  0.
     999903    2    3    3    0    0 -0.44562947721E-01 -0.96759150810E-01 -0.78485087893E-01  0.13386177585E+00  0.20270087253E-01 0.  0.
         14    1    1    2    0    0  0.10918401502E-01  0.32349328034E-02  0.19411325856E-01  0.22505018397E-01  0.00000000000E+00 0.  1.
     999901    1    3    3    0    0  0.33644546219E-01  0.93524218007E-01  0.59073762038E-01  0.88756320575E+00  0.88000000000E+00 0.  1.
        -11    1    4    4    0    0 -0.48279604708E-02 -0.30885339382E-01 -0.18692211371E-01  0.36426271810E-01  0.51100000000E-03 0.  1.
         11    1    4    4    0    0 -0.39734987250E-01 -0.65873811428E-01 -0.59792876522E-01  0.97435504040E-01  0.51100000000E-03 0. -1.
</event>
<event>
 8    1  0.1143957E+005  0.1043930E+01  0.7957747E-01            NaN
         13   -1    0    0    0    0  0.00000000000E+00  0.00000000000E+00  0.74505805969E-08  0.10566000000E+00  0.10566000000E+00 0.  1.
     999900   -1    0    0    0    0 -0.00000000000E+00 -0.00000000000E+00 -0.74505805969E-08  0.93827000000E+00  0.93827000000E+00 0. -1.
     999902    2    1    2    0    0  0.10272768667E-01 -0.79127891505E-02 -0.19756149196E-01  0.10202985075E+01  0.10200248021E+01 0.  0.
     999903    2    3    3    0    0 -0.17288478344E-01  0.91773675030E-01  0.86282762908E-01  0.12791895573E+00  0.14044399180E-01 0.  0.
         14    1    1    2    0    0 -0.10272768667E-01  0.79127891505E-02  0.19756149196E-01  0.23631492532E-01  0.00000000000E+00 0.  1.
     999901    1    3    3    0    0  0.27561247011E-01 -0.99686464181E-01 -0.10603891210E+00  0.89237955174E+00  0.88000000000E+00 0. -1.
        -11    1    4    4    0    0 -0.17868592822E-01  0.80353653304E-01  0.70245368488E-01  0.10821584507E+00  0.51100000000E-03 0.  1.
         11    1    4    4    0    0  0.58011447827E-03  0.11420021726E-01  0.16037394419E-01  0.19703110663E-01  0.51100000000E-03 0. -1.
</event>
<event>
 8    1  0.1143957E+005  0.1043930E+01  0.7957747E-01            NaN
         13   -1    0    0    0    0  0.00000000000E+00  0.00000000000E+00  0.74505805969E-08  0.10566000000E+00  0.10566000000E+00 0. -1.
     999900   -1    0    0    0    0 -0.00000000000E+00 -0.00000000000E+00 -0.74505805969E-08  0.93827000000E+00  0.93827000000E+00 0. -1.
     999902    2    1    2    0    0 -0.13459648957E-01  0.20456910938E-01 -0.42962906878E-02  0.10190682730E+01  0.10187649580E+01 0.  0.
     999903    2    3    3    0    0  0.96055275727E-01  0.76155900334E-01 -0.38022816451E-01  0.12989260157E+00  0.20000405505E-01 0.  0.
         14    1    1    2    0    0  0.13459648957E-01 -0.20456910938E-01  0.42962906878E-02  0.24861726989E-01  0.00000000000E+00 0.  1.
     999901    1    3    3    0    0 -0.10951492468E+00 -0.55698989395E-01  0.33726525763E-01  0.88917567144E+00  0.88000000000E+00 0.  1.
        -11    1    4    4    0    0  0.48828052884E-01  0.26131584248E-01 -0.18176651894E-01  0.58289709545E-01  0.51100000000E-03 0. -1.
         11    1    4    4    0    0  0.47227222842E-01  0.50024316086E-01 -0.19846164558E-01  0.71602892022E-01  0.51100000000E-03 0.  1.
</event>
<event>
 8    1  0.1143957E+005  0.1043930E+01  0.7957747E-01            NaN
         13   -1    0    0    0    0  0.00000000000E+00  0.00000000000E+00  0.74505805969E-08  0.10566000000E+00  0.10566000000E+00 0. -1.
     999900   -1    0    0    0    0 -0.00000000000E+00 -0.00000000000E+00 -0.74505805969E-08  0.93827000000E+00  0.93827000000E+00 0. -1.
     999902    2    1    2    0    0  0.83349908991E-02  0.87373251523E-02 -0.20197945544E-01  0.10203976833E+01  0.10201262972E+01 0.  0.
     999903    2    3    3    0    0 -0.12234354184E-01  0.10563580365E+00  0.71995079751E-01  0.13005394801E+00  0.20545935121E-01 0.  0.
         14    1    1    2    0    0 -0.83349908991E-02 -0.87373251523E-02  0.20197945544E-01  0.23532316680E-01  0.00000000000E+00 0. -1.
     999901    1    3    3    0    0  0.20569345083E-01 -0.96898478496E-01 -0.92193025295E-01  0.89034373531E+00  0.88000000000E+00 0. -1.
        -11    1    4    4    0    0 -0.91233726902E-02  0.58922073157E-01  0.52102754384E-01  0.79183361698E-01  0.51100000000E-03 0.  1.
         11    1    4    4    0    0 -0.31109814936E-02  0.46713730492E-01  0.19892325367E-01  0.50870586313E-01  0.51100000000E-03 0. -1.
</event>
<event>
 8    1  0.1143957E+005  0.1043930E+01  0.7957747E-01            NaN
         13   -1    0    0    0    0  0.00000000000E+00  0.00000000000E+00  0.74505805969E-08  0.10566000000E+00  0.10566000000E+00 0. -1.
     999900   -1    0    0    0    0 -0.00000000000E+00 -0.00000000000E+00 -0.74505805969E-08  0.93827000000E+00  0.93827000000E+00 0.  1.
     999902    2    1    2    0    0 -0.73456161557E-03 -0.14638183125E-01 -0.19598050076E-01  0.10194575757E+01  0.10191637989E+01 0.  0.
     999903    2    3    3    0    0  0.38041459742E-01  0.79936199974E-01  0.88527242878E-01  0.12696725485E+00  0.21134387800E-01 0.  0.
         14    1    1    2    0    0  0.73456161557E-03  0.14638183125E-01  0.19598050076E-01  0.24472424333E-01  0.00000000000E+00 0. -1.
     999901    1    3    3    0    0 -0.38776021357E-01 -0.94574383099E-01 -0.10812529295E+00  0.89249032081E+00  0.88000000000E+00 0.  1.
        -11    1    4    4    0    0  0.15060118206E-01  0.20032106566E-01  0.14326658249E-01  0.28872248119E-01  0.51100000000E-03 0.  1.
         11    1    4    4    0    0  0.22981341536E-01  0.59904093408E-01  0.74200584629E-01  0.98095006734E-01  0.51100000000E-03 0. -1.
</event>
<event>
 8    1  0.1143957E+005  0.1043930E+01  0.7957747E-01            NaN
         13   -1    0    0    0    0  0.00000000000E+00  0.00000000000E+00  0.74505805969E-08  0.10566000000E+00  0.10566000000E+00 0.  1.
     999900   -1    0    0    0    0 -0.00000000000E+00 -0.00000000000E+00 -0.74505805969E-08  0.93827000000E+00  0.93827000000E+00 0.  1.
     999902    2    1    2    0    0 -0.20415461106E-01  0.74675119717E-02 -0.68148349551E-02  0.10211484996E+01  0.10208943439E+01 0.  0.
     999903    2    3    3    0    0  0.20065280638E-01  0.10543363182E+00  0.72825158828E-01  0.13121671582E+00  0.19886089229E-01 0.  0.
         14    1    1    2    0    0  0.20415461106E-01 -0.74675119717E-02  0.68148349551E-02  0.22781500448E-01  0.00000000000E+00 0.  1.
     999901    1    3    3    0    0 -0.40480741744E-01 -0.97966119852E-01 -0.79639993783E-01  0.88993178373E+00  0.88000000000E+00 0. -1.
        -11    1    4    4    0    0 -0.40044674372E-03  0.41313957758E-01  0.21541258319E-01  0.46597107144E-01  0.51100000000E-03 0. -1.
         11    1    4    4    0    0  0.20465727382E-01  0.64119674066E-01  0.51283900509E-01  0.84619608673E-01  0.51100000000E-03 0.  1.
</event>
<event>
 8    1  0.1143957E+005  0.1043930E+01  0.7957747E-01            NaN
         13   -1    0    0    0    0  0.00000000000E+00  0.00000000000E+00  0.74505805969E-08  0.10566000000E+00  0.10566000000E+00 0.  1.
     999900   -1    0    0    0    0 -0.00000000000E+00 -0.00000000000E+00 -0.74505805969E-08  0.93827000000E+00  0.93827000000E+00 0. -1.
     999902    2    1    2    0    0 -0.14484366725E-01 -0.17658953298E-01  0.46575845257E-02  0.10206205898E+01  0.10203543795E+01 0.  0.
     999903    2    3    3    0    0  0.11431624466E-01  0.11282517301E+00 -0.57203723716E-01  0.12847454385E+00  0.19319438586E-01 0.  0.
         14    1    1    2    0    0  0.14484366725E-01  0.17658953298E-01 -0.46575845257E-02  0.23309410216E-01  0.00000000000E+00 0. -1.
     999901    1    3    3    0    0 -0.25915991190E-01 -0.13048412631E+00  0.61861308242E-01  0.89214604593E+00  0.88000000000E+00 0.  1.
        -11    1    4    4    0    0 -0.52769282316E-03  0.80678659053E-01 -0.38363108666E-01  0.89338198515E-01  0.51100000000E-03 0.  1.
         11    1    4    4    0    0  0.11959317289E-01  0.32146513959E-01 -0.18840615050E-01  0.39136345335E-01  0.51100000000E-03 0. -1.
</event>
<event>
 8    1  0.1143957E+005  0.1043930E+01  0.7957747E-01            NaN
         13   -1    0    0    0    0  0.00000000000E+00  0.00000000000E+00  0.74505805969E-08  0.10566000000E+00  0.10566000000E+00 0. -1.
     999900   -1    0    0    0    0 -0.00000000000E+00 -0.00000000000E+00 -0.74505805969E-08  0.93827000000E+00  0.93827000000E+00 0. -1.
     999902    2    1    2    0    0 -0.16182318186E-03  0.15223639861E-01  0.18745931799E-01  0.10197805620E+01  0.10194945803E+01 0.  0.
     999903    2    3    3    0    0  0.56876923136E-01 -0.10178969709E+00  0.52696505433E-01  0.12955689287E+00  0.20296304711E-01 0.  0.
         14    1    1    2    0    0  0.16182318186E-03 -0.15223639861E-01 -0.18745931799E-01  0.24149438014E-01  0.00000000000E+00 0.  1.
     999901    1    3    3    0    0 -0.57038746318E-01  0.11701333696E+00 -0.33950573633E-01  0.89022366912E+00  0.88000000000E+00 0. -1.
        -11    1    4    4    0    0  0.38563912729E-01 -0.67774097916E-01  0.45418855699E-01  0.90242103739E-01  0.51100000000E-03 0.  1.
         11    1    4    4    0    0  0.18313010407E-01 -0.34015599178E-01  0.72776497342E-02  0.39314789129E-01  0.51100000000E-03 0. -1.
</event>
<event>
 8    1  0.1143957E+005  0.1043930E+01  0.7957747E-01            NaN
         13   -1    0    0    0    0  0.00000000000E+00  0.00000000000E+00  0.74505805969E-08  0.10566000000E+00  0.10566000000E+00 0.  1.
     999900   -1    0    0    0    0 -0.00000000000E+00 -0.00000000000E+00 -0.74505805969E-08  0.93827000000E+00  0.93827000000E+00 0.  1.
     999902    2    1    2    0    0 -0.19601339220E-01 -0.20681512696E-02 -0.11499932209E-01  0.10211103114E+01  0.10208552933E+01 0.  0.
     999903    2    3    3    0    0  0.30822722259E-01 -0.12552507679E+00  0.47023229653E-02  0.13091555092E+00  0.20253012627E-01 0.  0.
         14    1    1    2    0    0  0.19601339220E-01  0.20681512696E-02  0.11499932209E-01  0.22819688641E-01  0.00000000000E+00 0. -1.
     999901    1    3    3    0    0 -0.50424061478E-01  0.12345692552E+00 -0.16202255174E-01  0.89019476044E+00  0.88000000000E+00 0. -1.
        -11    1    4    4    0    0  0.20622353418E-01 -0.59809973503E-01  0.10604820975E-01  0.64150118782E-01  0.51100000000E-03 0.  1.
         11    1    4    4    0    0  0.10200368841E-01 -0.65715103291E-01 -0.59024980100E-02  0.66765432140E-01  0.51100000000E-03 0. -1.
</event>
<event>
 8    1  0.1143957E+005  0.1043930E+01  0.7957747E-01            NaN
         13   -1    0    0    0    0  0.00000000000E+00  0.00000000000E+00  0.74505805969E-08  0.10566000000E+00  0.10566000000E+00 0.  1.
     999900   -1    0    0    0    0 -0.00000000000E+00 -0.00000000000E+00 -0.74505805969E-08  0.93827000000E+00  0.93827000000E+00 0.  1.
     999902    2    1    2    0    0  0.70767090479E-04 -0.20374878354E-01  0.11167488695E-01  0.10206952528E+01  0.10204307647E+01 0.  0.
     999903    2    3    3    0    0 -0.11896600700E+00 -0.50810652418E-01 -0.15068358730E-01  0.13177207856E+00  0.20054725947E-01 0.  0.
         14    1    1    2    0    0 -0.70767090479E-04  0.20374878354E-01 -0.11167488695E-01  0.23234747248E-01  0.00000000000E+00 0. -1.
     999901    1    3    3    0    0  0.11903677409E+00  0.30435774064E-01  0.26235847425E-01  0.88892317419E+00  0.88000000000E+00 0.  1.
        -11    1    4    4    0    0 -0.83271849863E-01 -0.34414440180E-01 -0.11991537524E-02  0.90112450656E-01  0.51100000000E-03 0.  1.
         11    1    4    4    0    0 -0.35694157134E-01 -0.16396212238E-01 -0.13869204977E-01  0.41659627902E-01  0.51100000000E-03 0. -1.
</event>
<event>
 8    1  0.1143957E+005  0.1043930E+01  0.7957747E-01            NaN
         13   -1    0    0    0    0  0.00000000000E+00  0.00000000000E+00  0.74505805969E-08  0.10566000000E+00  0.10566000000E+00 0.  1.
     999900   -1    0    0    0    0 -0.00000000000E+00 -0.00000000000E+00 -0.74505805969E-08  0.93827000000E+00  0.93827000000E+00 0. -1.
     999902    2    1    2    0    0  0.16114024583E-01  0.10496995341E-01  0.12811384293E-01  0.10208219870E+01  0.10205604092E+01 0.  0.
     999903    2    3    3    0    0 -0.35147036395E-01 -0.10151546895E+00 -0.67738131779E-01  0.12859852107E+00  0.20209416644E-01 0.  0.
         14    1    1    2    0    0 -0.16114024583E-01 -0.10496995341E-01 -0.12811384293E-01  0.23108013046E-01  0.00000000000E+00 0. -1.
     999901    1    3    3    0    0  0.51261060977E-01  0.11201246429E+00  0.80549516072E-01  0.89222346588E+00  0.88000000000E+00 0.  1.
        -11    1    4    4    0    0 -0.25323963477E-01 -0.56829151488E-01 -0.48821167874E-01  0.79086175395E-01  0.51100000000E-03 0.  1.
         11    1    4    4    0    0 -0.98230729179E-02 -0.44686317464E-01 -0.18916963905E-01  0.49512345677E-01  0.51100000000E-03 0. -1.
</event>
<event>
 8    1  0.1143957E+005  0.1043930E+01  0.7957747E-01            NaN
         13   -1    0    0    0    0  0.00000000000E+00  0.00000000000E+00  0.74505805969E-08  0.10566000000E+00  0.10566000000E+00 0.  1.
     999900   -1    0    0    0    0 -0.00000000000E+00 -0.00000000000E+00 -0.74505805969E-08  0.93827000000E+00  0.93827000000E+00 0. -1.
     999902    2    1    2    0    0  0.25519958546E-01 -0.39598798502E-02 -0.57605574763E-02  0.10174699744E+01  0.10171258604E+01 0.  0.
     999903    2    3    3    0    0  0.96715242586E-02 -0.11740809204E+00 -0.48332230310E-01  0.12902525634E+00  0.20816191507E-01 0.  0.
         14    1    1    2    0    0 -0.25519958546E-01  0.39598798502E-02  0.57605574763E-02  0.26460025605E-01  0.00000000000E+00 0.  1.
     999901    1    3    3    0    0  0.15848434287E-01  0.11344821219E+00  0.42571672833E-01  0.88844471806E+00  0.88000000000E+00 0.  1.
        -11    1    4    4    0    0  0.10781017184E-01 -0.25257619728E-01 -0.10596758619E-01  0.29440280231E-01  0.51100000000E-03 0.  1.
         11    1    4    4    0    0 -0.11094929252E-02 -0.92150472309E-01 -0.37735471691E-01  0.99584976106E-01  0.51100000000E-03 0. -1.
</event>
<event>
 8    1  0.1143957E+005  0.1043930E+01  0.7957747E-01            NaN
         13   -1    0    0    0    0  0.00000000000E+00  0.00000000000E+00  0.74505805969E-08  0.10566000000E+00  0.10566000000E+00 0. -1.
     999900   -1    0    0    0    0 -0.00000000000E+00 -0.00000000000E+00 -0.74505805969E-08  0.93827000000E+00  0.93827000000E+00 0. -1.
     999902    2    1    2    0    0 -0.48328342635E-02  0.16451449071E-01 -0.16492474162E-01  0.10201390738E+01  0.10198616190E+01 0.  0.
     999903    2    3    3    0    0  0.51562888628E-01 -0.11064596394E+00  0.31677722876E-01  0.12792015573E+00  0.21420254348E-01 0.  0.
         14    1    1    2    0    0  0.48328342635E-02 -0.16451449071E-01  0.16492474162E-01  0.23790926160E-01  0.00000000000E+00 0. -1.
     999901    1    3    3    0    0 -0.56395722892E-01  0.12709741301E+00 -0.48170197038E-01  0.89221891811E+00  0.88000000000E+00 0.  1.
        -11    1    4    4    0    0  0.22769875498E-01 -0.29815440205E-01  0.38634381606E-02  0.37717568589E-01  0.51100000000E-03 0.  1.
         11    1    4    4    0    0  0.28793013130E-01 -0.80830523730E-01  0.27814284716E-01  0.90202587140E-01  0.51100000000E-03 0. -1.
</event>
<event>
 8    1  0.1143957E+005  0.1043930E+01  0.7957747E-01            NaN
         13   -1    0    0    0    0  0.00000000000E+00  0.00000000000E+00  0.74505805969E-08  0.10566000000E+00  0.10566000000E+00 0. -1.
     999900   -1    0    0    0    0 -0.00000000000E+00 -0.00000000000E+00 -0.74505805969E-08  0.93827000000E+00  0.93827000000E+00 0.  1.
     999902    2    1    2    0    0 -0.54321324315E-02  0.90148513138E-02  0.21054483010E-01  0.10203913751E+01  0.10201198418E+01 0.  0.
     999903    2    3    3    0    0  0.36885260504E-01  0.81155618918E-01 -0.91479467612E-01  0.12929152541E+00  0.20026198419E-01 0.  0.
         14    1    1    2    0    0  0.54321324315E-02 -0.90148513138E-02 -0.21054483010E-01  0.23538624891E-01  0.00000000000E+00 0.  1.
     999901    1    3    3    0    0 -0.42317392936E-01 -0.72140767604E-01  0.11253395062E+00  0.89109984970E+00  0.88000000000E+00 0. -1.
        -11    1    4    4    0    0  0.38359094834E-02  0.13836941749E-01 -0.26124740109E-01  0.29815068762E-01  0.51100000000E-03 0.  1.
         11    1    4    4    0    0  0.33049351021E-01  0.67318677169E-01 -0.65354727503E-01  0.99476456645E-01  0.51100000000E-03 0. -1.
</event>
<event>
 8    1  0.1143957E+005  0.1043930E+01  0.7957747E-01            NaN
         13   -1    0    0    0    0  0.00000000000E+00  0.00000000000E+00  0.74505805969E-08  0.10566000000E+00  0.10566000000E+00 0. -1.
     999900   -1    0    0    0    0 -0.00000000000E+00 -0.00000000000E+00 -0.74505805969E-08  0.93827000000E+00  0.93827000000E+00 0.  1.
     999902    2    1    2    0    0 -0.10830057596E-01 -0.14864970718E-01 -0.16153607433E-01  0.10194515087E+01  0.10191575845E+01 0.  0.
     999903    2    3    3    0    0 -0.48772012798E-01 -0.11846932849E+00  0.22402913057E-01  0.13172403918E+00  0.20872013778E-01 0.  0.
         14    1    1    2    0    0  0.10830057596E-01  0.14864970718E-01  0.16153607433E-01  0.24478491274E-01  0.00000000000E+00 0. -1.
     999901    1    3    3    0    0  0.37941955201E-01  0.10360435777E+00 -0.38556520490E-01  0.88772746955E+00  0.88000000000E+00 0.  1.
        -11    1    4    4    0    0 -0.36042133054E-01 -0.64322911597E-01  0.73587720554E-02  0.74100505791E-01  0.51100000000E-03 0. -1.
         11    1    4    4    0    0 -0.12729879744E-01 -0.54146416894E-01  0.15044141002E-01  0.57623533388E-01  0.51100000000E-03 0.  1.
</event>
<event>
 8    1  0.1143957E+005  0.1043930E+01  0.7957747E-01            NaN
         13   -1    0    0    0    0  0.00000000000E+00  0.00000000000E+00  0.74505805969E-08  0.10566000000E+00  0.10566000000E+00 0.  1.
     999900   -1    0    0    0    0 -0.00000000000E+00 -0.00000000000E+00 -0.74505805969E-08  0.93827000000E+00  0.93827000000E+00 0. -1.
     999902    2    1    2    0    0  0.17851776039E-01  0.43134260344E-02  0.61393100620E-02  0.10245655305E+01  0.10243825182E+01 0.  0.
     999903    2    3    3    0    0  0.45615652773E-01 -0.33486388239E-01 -0.12017271774E+00  0.13431029338E+00  0.19890873338E-01 0.  0.
         14    1    1    2    0    0 -0.17851776039E-01 -0.43134260344E-02 -0.61393100620E-02  0.19364469524E-01  0.00000000000E+00 0. -1.
     999901    1    3    3    0    0 -0.27763876734E-01  0.37799814274E-01  0.12631202781E+00  0.89025523710E+00  0.88000000000E+00 0.  1.
        -11    1    4    4    0    0  0.21835944124E-01 -0.54488311020E-02 -0.55928586754E-01  0.60289021832E-01  0.51100000000E-03 0. -1.
         11    1    4    4    0    0  0.23779708649E-01 -0.28037557137E-01 -0.64244130991E-01  0.74021271547E-01  0.51100000000E-03 0.  1.
</event>
<event>
 8    1  0.1143957E+005  0.1043930E+01  0.7957747E-01            NaN
         13   -1    0    0    0    0  0.00000000000E+00  0.00000000000E+00  0.74505805969E-08  0.10566000000E+00  0.10566000000E+00 0.  1.
     999900   -1    0    0    0    0 -0.00000000000E+00 -0.00000000000E+00 -0.74505805969E-08  0.93827000000E+00  0.93827000000E+00 0.  1.
     999902    2    1    2    0    0  0.24881526936E-01  0.11723396845E-01 -0.26966942063E-02  0.10162930578E+01  0.10159172106E+01 0.  0.
     999903    2    3    3    0    0 -0.36096083061E-01  0.27291943826E-01 -0.11661716811E+00  0.12672095673E+00  0.20269671105E-01 0.  0.
         14    1    1    2    0    0 -0.24881526936E-01 -0.11723396845E-01  0.26966942063E-02  0.27636942231E-01  0.00000000000E+00 0. -1.
     999901    1    3    3    0    0  0.60977609997E-01 -0.15568546981E-01  0.11392047390E+00  0.88957210104E+00  0.88000000000E+00 0. -1.
        -11    1    4    4    0    0  0.27343767872E-05 -0.25779539895E-02 -0.45898871790E-02  0.52890490227E-02  0.51100000000E-03 0. -1.
         11    1    4    4    0    0 -0.36098817438E-01  0.29869897815E-01 -0.11202728093E+00  0.12143190771E+00  0.51100000000E-03 0.  1.
</event>
<event>
 8    1  0.1143957E+005  0.1043930E+01  0.7957747E-01            NaN
         13   -1    0    0    0    0  0.00000000000E+00  0.00000000000E+00  0.74505805969E-08  0.10566000000E+00  0.10566000000E+00 0. -1.
     999900   -1    0    0    0    0 -0.00000000000E+00 -0.00000000000E+00 -0.74505805969E-08  0.93827000000E+00  0.93827000000E+00 0.  1.
     999902    2    1    2    0    0  0.18865206339E-01  0.12348671592E-01  0.76863642331E-02  0.10201084573E+01  0.10198302794E+01 0.  0.
     999903    2    3    3    0    0 -0.67562513494E-01  0.21214992305E-01  0.10732816137E+00  0.13023383125E+00  0.20657866582E-01 0.  0.
         14    1    1    2    0    0 -0.18865206339E-01 -0.12348671592E-01 -0.76863642331E-02  0.23821542675E-01  0.00000000000E+00 0.  1.
     999901    1    3    3    0    0  0.86427719832E-01 -0.88663207132E-02 -0.99641797132E-01  0.88987462608E+00  0.88000000000E+00 0.  1.
        -11    1    4    4    0    0 -0.88775642671E-02 -0.18405011996E-02  0.59822387986E-02  0.10874138772E-01  0.51100000000E-03 0.  1.
         11    1    4    4    0    0 -0.58684949227E-01  0.23055493505E-01  0.10134592257E+00  0.11935969248E+00  0.51100000000E-03 0. -1.
</event>
<event>
 8    1  0.1143957E+005  0.1043930E+01  0.7957747E-01            NaN
         13   -1    0    0    0    0  0.00000000000E+00  0.00000000000E+00  0.74505805969E-08  0.10566000000E+00  0.10566000000E+00 0.  1.
     999900   -1    0    0    0    0 -0.00000000000E+00 -0.00000000000E+00 -0.74505805969E-08  0.93827000000E+00  0.93827000000E+00 0. -1.
     999902    2    1    2    0    0  0.18356967385E-01  0.14959833851E-01  0.39009322291E-02  0.10199301635E+01  0.10196477560E+01 0.  0.
     999903    2    3    3    0    0  0.98855262636E-01  0.61132545674E-01  0.61756471989E-01  0.13316122045E+00  0.20211326212E-01 0.  0.
         14    1    1    2    0    0 -0.18356967385E-01 -0.14959833851E-01 -0.39009322291E-02  0.23999836514E-01  0.00000000000E+00 0. -1.
     999901    1    3    3    0    0 -0.80498295251E-01 -0.46172711823E-01 -0.57855539760E-01  0.88676894304E+00  0.88000000000E+00 0. -1.
        -11    1    4    4    0    0  0.70237926301E-01  0.32995659440E-01  0.44648672684E-01  0.89531251116E-01  0.51100000000E-03 0. -1.
         11    1    4    4    0    0  0.28617336335E-01  0.28136886234E-01  0.17107799306E-01  0.43629969333E-01  0.51100000000E-03 0.  1.
</event>
<event>
 8    1  0.1143957E+005  0.1043930E+01  0.7957747E-01            NaN
         13   -1    0    0    0    0  0.00000000000E+00  0.00000000000E+00  0.74505805969E-08  0.10566000000E+00  0.10566000000E+00 0.  1.
     999900   -1    0    0    0    0 -0.00000000000E+00 -0.00000000000E+00 -0.74505805969E-08  0.93827000000E+00  0.93827000000E+00 0.  1.
     999902    2    1    2    0    0  0.21109473532E-01 -0.14383383377E-02  0.93748643901E-02  0.10207876844E+01  0.10205253205E+01 0.  0.
     999903    2    3    3    0    0 -0.10267074248E+00 -0.71596315148E-01  0.22574964812E-01  0.12926206712E+00  0.23059472125E-01 0.  0.
         14    1    1    2    0    0 -0.21109473532E-01  0.14383383377E-02 -0.93748643901E-02  0.23142315621E-01  0.00000000000E+00 0.  1.
     999901    1    3    3    0    0  0.12378021601E+00  0.70157976810E-01 -0.13200100422E-01  0.89152561726E+00  0.88000000000E+00 0.  1.
        -11    1    4    4    0    0 -0.91037419675E-01 -0.65157112753E-01  0.27137338866E-01  0.11519530114E+00  0.51100000000E-03 0.  1.
         11    1    4    4    0    0 -0.11633322805E-01 -0.64392023952E-02 -0.45623740541E-02  0.14066765974E-01  0.51100000000E-03 0. -1.
</event>
<event>
 8    1  0.1143957E+005  0.1043930E+01  0.7957747E-01            NaN
         13   -1    0    0    0    0  0.00000000000E+00  0.00000000000E+00  0.74505805969E-08  0.10566000000E+00  0.10566000000E+00 0. -1.
     999900   -1    0    0    0    0 -0.00000000000E+00 -0.00000000000E+00 -0.74505805969E-08  0.93827000000E+00  0.93827000000E+00 0. -1.
     999902    2    1    2    0    0 -0.15744730843E-01  0.16109672087E-01  0.98198196366E-02  0.10193567027E+01  0.10190604694E+01 0.  0.
     999903    2    3    3    0    0  0.59624967822E-01  0.11273530308E+00  0.21541238072E-01  0.13078791203E+00  0.19418229800E-01 0.  0.
         14    1    1    2    0    0  0.15744730843E-01 -0.16109672087E-01 -0.98198196366E-02  0.24573297332E-01  0.00000000000E+00 0.  1.
     999901    1    3    3    0    0 -0.75369698664E-01 -0.96625630991E-01 -0.11721418435E-01  0.88856879064E+00  0.88000000000E+00 0. -1.
        -11    1    4    4    0    0  0.49657575212E-01  0.10156579305E+00  0.24088026476E-01  0.11559402767E+00  0.51100000000E-03 0. -1.
         11    1    4    4    0    0  0.99673926102E-02  0.11169510030E-01 -0.25467884041E-02  0.15193884360E-01  0.51100000000E-03 0.  1.
</event>
<event>
 8    1  0.1143957E+005  0.1043930E+01  0.7957747E-01            NaN
         13   -1    0    0    0    0  0.00000000000E+00  0.00000000000E+00  0.74505805969E-08  0.10566000000E+00  0.10566000000E+00 0.  1.
     999900   -1    0    0    0    0 -0.00000000000E+00 -0.00000000000E+00 -0.74505805969E-08  0.93827000000E+00  0.93827000000E+00 0.  1.
     999902    2    1    2    0    0  0.32753769822E-02  0.19599914584E-01  0.14696632705E-01  0.10192140991E+01  0.10189143752E+01 0.  0.
     999903    2    3    3    0    0  0.32551015649E-01  0.85848593425E-01 -0.89893877556E-01  0.13006555956E+00  0.20164100502E-01 0.  0.
         14    1    1    2    0    0 -0.32753769822E-02 -0.19599914584E-01 -0.14696632705E-01  0.24715900934E-01  0.00000000000E+00 0. -1.
     999901    1    3    3    0    0 -0.29275638667E-01 -0.66248678841E-01  0.10459051026E+00  0.88914853951E+00  0.88000000000E+00 0.  1.
        -11    1    4    4    0    0  0.89315020238E-02  0.33631882123E-01 -0.46986450982E-01  0.58471043435E-01  0.51100000000E-03 0. -1.
         11    1    4    4    0    0  0.23619513625E-01  0.52216711302E-01 -0.42907426575E-01  0.71594516127E-01  0.51100000000E-03 0.  1.
</event>
<event>
 8    1  0.1143957E+005  0.1043930E+01  0.7957747E-01            NaN
         13   -1    0    0    0    0  0.00000000000E+00  0.00000000000E+00  0.74505805969E-08  0.10566000000E+00  0.10566000000E+00 0.  1.
     999900   -1    0    0    0    0 -0.00000000000E+00 -0.00000000000E+00 -0.74505805969E-08  0.93827000000E+00  0.93827000000E+00 0. -1.
     999902    2    1    2    0    0 -0.15201580926E-01 -0.16924841316E-01 -0.41368261684E-02  0.10208074645E+01  0.10205455541E+01 0.  0.
     999903    2    3    3    0    0  0.57333767851E-01  0.35536263242E-01  0.10845713673E+00  0.12912874166E+00  0.19007747759E-01 0.  0.
         14    1    1    2    0    0  0.15201580926E-01  0.16924841316E-01  0.41368261684E-02  0.23122535479E-01  0.00000000000E+00 0.  1.
     999901    1    3    3    0    0 -0.72535348776E-01 -0.52461104558E-01 -0.11259396290E+00  0.89167872286E+00  0.88000000000E+00 0. -1.
        -11    1    4    4    0    0  0.16661790006E-01  0.20874479858E-01  0.45284294801E-01  0.52576493152E-01  0.51100000000E-03 0. -1.
         11    1    4    4    0    0  0.40671977845E-01  0.14661783383E-01  0.63172841930E-01  0.76552248512E-01  0.51100000000E-03 0.  1.
</event>
<event>
 8    1  0.1143957E+005  0.1043930E+01  0.7957747E-01            NaN
         13   -1    0    0    0    0  0.00000000000E+00  0.00000000000E+00  0.74505805969E-08  0.10566000000E+00  0.10566000000E+00 0.  1.
     999900   -1    0    0    0    0 -0.00000000000E+00 -0.00000000000E+00 -0.74505805969E-08  0.93827000000E+00  0.93827000000E+00 0.  1.
     999902    2    1    2    0    0 -0.93042202530E-02  0.17697417914E-01 -0.30832457392E-01  0.10071821083E+01  0.10065114961E+01 0.  0.
     999903    2    3    3    0    0  0.99834766246E-01  0.21285285286E-01  0.54824791232E-01  0.11630537418E+00  0.10056759295E-01 0.  0.
         14    1    1    2    0    0  0.93042202530E-02 -0.17697417914E-01  0.30832457392E-01  0.36747891697E-01  0.00000000000E+00 0.  1.
     999901    1    3    3    0    0 -0.10913898650E+00 -0.35878673718E-02 -0.85657248624E-01  0.89087673413E+00  0.88000000000E+00 0.  1.
        -11    1    4    4    0    0  0.46173440006E-01  0.66822277958E-02  0.20595257199E-01  0.51000632059E-01  0.51100000000E-03 0. -1.
         11    1    4    4    0    0  0.53661326240E-01  0.14603057490E-01  0.34229534033E-01  0.65304742118E-01  0.51100000000E-03 0.  1.
</event>
<event>
 8    1  0.1143957E+005  0.1043930E+01  0.7957747E-01            NaN
         13   -1    0    0    0    0  0.00000000000E+00  0.00000000000E+00  0.74505805969E-08  0.10566000000E+00  0.10566000000E+00 0. -1.
     999900   -1    0    0    0    0 -0.00000000000E+00 -0.00000000000E+00 -0.74505805969E-08  0.93827000000E+00  0.93827000000E+00 0. -1.
     999902    2    1    2    0    0 -0.41682882948E-02 -0.14503871240E-01 -0.18196949943E-01  0.10202896553E+01  0.10200157425E+01 0.  0.
     999903    2    3    3    0    0 -0.12944880441E-01  0.12531792240E+00 -0.20240291390E-01  0.12920529470E+00  0.20302393387E-01 0.  0.
         14    1    1    2    0    0  0.41682882948E-02  0.14503871240E-01  0.18196949943E-01  0.23640344657E-01  0.00000000000E+00 0. -1.
     999901    1    3    3    0    0  0.87765921464E-02 -0.13982179364E+00  0.20433414464E-02  0.89108436065E+00  0.88000000000E+00 0.  1.
        -11    1    4    4    0    0 -0.27440149569E-02  0.30015758904E-01 -0.13763938235E-01  0.33138836995E-01  0.51100000000E-03 0. -1.
         11    1    4    4    0    0 -0.10200865484E-01  0.95302163497E-01 -0.64763531547E-02  0.96066457700E-01  0.51100000000E-03 0.  1.
</event>
<event>
 8    1  0.1143957E+005  0.1043930E+01  0.7957747E-01            NaN
         13   -1    0    0    0    0  0.00000000000E+00  0.00000000000E+00  0.74505805969E-08  0.10566000000E+00  0.10566000000E+00 0. -1.
     999900   -1    0    0    0    0 -0.00000000000E+00 -0.00000000000E+00 -0.74505805969E-08  0.93827000000E+00  0.93827000000E+00 0. -1.
     999902    2    1    2    0    0  0.11301022241E-01  0.16147188599E-01  0.13842941688E-01  0.10198453194E+01  0.10195608877E+01 0.  0.
     999903    2    3    3    0    0  0.12831550757E+00 -0.72775311822E-02 -0.17362583181E-01  0.13124254426E+00  0.20132416266E-01 0.  0.
         14    1    1    2    0    0 -0.11301022241E-01 -0.16147188599E-01 -0.13842941688E-01  0.24084680565E-01  0.00000000000E+00 0.  1.
     999901    1    3    3    0    0 -0.11701448533E+00  0.23424719781E-01  0.31205524869E-01  0.88860277518E+00  0.88000000000E+00 0.  1.
        -11    1    4    4    0    0  0.17443082538E-01 -0.11852544950E-02  0.45215383028E-02  0.18065751750E-01  0.51100000000E-03 0. -1.
         11    1    4    4    0    0  0.11087242503E+00 -0.60922766872E-02 -0.21884121484E-01  0.11317679251E+00  0.51100000000E-03 0.  1.
</event>
<event>
 8    1  0.1143957E+005  0.1043930E+01  0.7957747E-01            NaN
         13   -1    0    0    0    0  0.00000000000E+00  0.00000000000E+00  0.74505805969E-08  0.10566000000E+00  0.10566000000E+00 0. -1.
     999900   -1    0    0    0    0 -0.00000000000E+00 -0.00000000000E+00 -0.74505805969E-08  0.93827000000E+00  0.93827000000E+00 0. -1.
     999902    2    1    2    0    0 -0.22165732698E-01  0.69602710845E-02 -0.42131467528E-02  0.10203182299E+01  0.10200449866E+01 0.  0.
     999903    2    3    3    0    0  0.25102763950E-01 -0.76159061889E-01 -0.99315168433E-01  0.13004437948E+00  0.24853299343E-01 0.  0.
         14    1    1    2    0    0  0.22165732698E-01 -0.69602710845E-02  0.42131467528E-02  0.23611770056E-01  0.00000000000E+00 0.  1.
     999901    1    3    3    0    0 -0.47268496648E-01  0.83119332974E-01  0.95102021680E-01  0.89027385046E+00  0.88000000000E+00 0.  1.
        -11    1    4    4    0    0  0.24300401014E-01 -0.52365581754E-01 -0.83290047372E-01  0.10134178188E+00  0.51100000000E-03 0. -1.
         11    1    4    4    0    0  0.80236293589E-03 -0.23793480135E-01 -0.16025121061E-01  0.28702597604E-01  0.51100000000E-03 0.  1.
</event>
<event>
 8    1  0.1143957E+005  0.1043930E+01  0.7957747E-01            NaN
         13   -1    0    0    0    0  0.00000000000E+00  0.00000000000E+00  0.74505805969E-08  0.10566000000E+00  0.10566000000E+00 0.  1.
     999900   -1    0    0    0    0 -0.00000000000E+00 -0.00000000000E+00 -0.74505805969E-08  0.93827000000E+00  0.93827000000E+00 0. -1.
     999902    2    1    2    0    0  0.23562337762E-01 -0.35372141372E-02 -0.33977909785E-02  0.10198625816E+01  0.10195785623E+01 0.  0.
     999903    2    3    3    0    0  0.39813512224E-01 -0.11245274108E-01 -0.12344232572E+00  0.13153032103E+00  0.18725534036E-01 0.  0.
         14    1    1    2    0    0 -0.23562337762E-01  0.35372141372E-02  0.33977909785E-02  0.24067418395E-01  0.00000000000E+00 0. -1.
     999901    1    3    3    0    0 -0.16251174462E-01  0.77080599709E-02  0.12004453474E+00  0.88833226058E+00  0.88000000000E+00 0.  1.
        -11    1    4    4    0    0  0.16303851116E-01  0.43570695660E-02 -0.53813982536E-01  0.56400402958E-01  0.51100000000E-03 0.  1.
         11    1    4    4    0    0  0.23509661108E-01 -0.15602343674E-01 -0.69628343185E-01  0.75129918070E-01  0.51100000000E-03 0. -1.
</event>
<event>
 8    1  0.1143957E+005  0.1043930E+01  0.7957747E-01            NaN
         13   -1    0    0    0    0  0.00000000000E+00  0.00000000000E+00  0.74505805969E-08  0.10566000000E+00  0.10566000000E+00 0. -1.
     999900   -1    0    0    0    0 -0.00000000000E+00 -0.00000000000E+00 -0.74505805969E-08  0.93827000000E+00  0.93827000000E+00 0. -1.
     999902    2    1    2    0    0  0.15745419393E-01  0.27200011715E-01 -0.76819690257E-03  0.10124919817E+01  0.10120037865E+01 0.  0.
     999903    2    3    3    0    0  0.78593329061E-01 -0.89496365078E-01 -0.19483039149E-01  0.12236943426E+00  0.20203437635E-01 0.  0.
         14    1    1    2    0    0 -0.15745419393E-01 -0.27200011715E-01  0.76819690257E-03  0.31438018316E-01  0.00000000000E+00 0. -1.
     999901    1    3    3    0    0 -0.62847909668E-01  0.11669637679E+00  0.18714842247E-01  0.89012254742E+00  0.88000000000E+00 0.  1.
        -11    1    4    4    0    0  0.68705413807E-01 -0.66127877155E-01 -0.13699852565E-01  0.96339385014E-01  0.51100000000E-03 0.  1.
         11    1    4    4    0    0  0.98879152539E-02 -0.23368487923E-01 -0.57831865841E-02  0.26030049250E-01  0.51100000000E-03 0. -1.
</event>
<event>
 8    1  0.1143957E+005  0.1043930E+01  0.7957747E-01            NaN
         13   -1    0    0    0    0  0.00000000000E+00  0.00000000000E+00  0.74505805969E-08  0.10566000000E+00  0.10566000000E+00 0. -1.
     999900   -1    0    0    0    0 -0.00000000000E+00 -0.00000000000E+00 -0.74505805969E-08  0.93827000000E+00  0.93827000000E+00 0. -1.
     999902    2    1    2    0    0 -0.29962222354E-01  0.17410930627E-01 -0.63161714301E-02  0.10087054447E+01  0.10080902266E+01 0.  0.
     999903    2    3    3    0    0  0.77863649691E-01  0.72688434748E-01  0.48257990148E-01  0.11872771451E+00  0.20520236121E-01 0.  0.
         14    1    1    2    0    0  0.29962222354E-01 -0.17410930627E-01  0.63161714301E-02  0.35224555288E-01  0.00000000000E+00 0. -1.
     999901    1    3    3    0    0 -0.10782587204E+00 -0.55277504121E-01 -0.54574161578E-01  0.88997773020E+00  0.88000000000E+00 0. -1.
        -11    1    4    4    0    0  0.47979266181E-02  0.37923299763E-02 -0.19636124204E-02  0.64435053518E-02  0.51100000000E-03 0. -1.
         11    1    4    4    0    0  0.73065723073E-01  0.68896104771E-01  0.50221602568E-01  0.11228420916E+00  0.51100000000E-03 0.  1.
</event>
<event>
 8    1  0.1143957E+005  0.1043930E+01  0.7957747E-01            NaN
         13   -1    0    0    0    0  0.00000000000E+00  0.00000000000E+00  0.74505805969E-08  0.10566000000E+00  0.10566000000E+00 0. -1.
     999900   -1    0    0    0    0 -0.00000000000E+00 -0.00000000000E+00 -0.74505805969E-08  0.93827000000E+00  0.93827000000E+00 0.  1.
     999902    2    1    2    0    0 -0.23057304917E-01  0.43496159586E-02  0.19752537276E-02  0.10203830236E+01  0.10201112953E+01 0.  0.
     999903    2    3    3    0    0  0.52508074374E-01  0.94985523287E-01 -0.68231731679E-01  0.12973493653E+00  0.19905703718E-01 0.  0.
         14    1    1    2    0    0  0.23057304917E-01 -0.43496159586E-02 -0.19752537276E-02  0.23546976373E-01  0.00000000000E+00 0. -1.
     999901    1    3    3    0    0 -0.75565379292E-01 -0.90635907329E-01  0.70206985407E-01  0.89064808709E+00  0.88000000000E+00 0. -1.
        -11    1    4    4    0    0  0.30699886938E-01  0.66642250429E-01 -0.36641118179E-01  0.82015274569E-01  0.51100000000E-03 0.  1.
         11    1    4    4    0    0  0.21808187436E-01  0.28343272858E-01 -0.31590613500E-01  0.47719661964E-01  0.51100000000E-03 0. -1.
</event>
<event>
 7    1  0.1457204E+005  0.1043930E+01  0.7957747E-01            NaN
         13   -1    0    0    0    0  0.00000000000E+00  0.00000000000E+00  0.74505805969E-08  0.10566000000E+00  0.10566000000E+00 0. -1.
     999900   -1    0    0    0    0 -0.00000000000E+00 -0.00000000000E+00 -0.74505805969E-08  0.93827000000E+00  0.93827000000E+00 0.  1.
     999903    2    1    2    0    0 -0.35634789734E-01 -0.28717296691E-01 -0.59738351954E-01  0.77947737699E-01  0.20313979168E-01 0.  0.
         14    1    1    2    0    0  0.58543444208E-01 -0.46611340859E-01 -0.23800115193E-01  0.78526412369E-01  0.00000000000E+00 0. -1.
     999901    1    1    2    0    0 -0.22908654474E-01  0.75328637550E-01  0.83538467147E-01  0.88745584993E+00  0.88000000000E+00 0. -1.
        -11    1    3    3    0    0 -0.32445940321E-01 -0.25829009992E-01 -0.39582944859E-01  0.57331905996E-01  0.51100000000E-03 0.  1.
         11    1    3    3    0    0 -0.31888494130E-02 -0.28882866991E-02 -0.20155407095E-01  0.20615831703E-01  0.51100000000E-03 0. -1.
</event>
<event>
 8    1  0.1143957E+005  0.1043930E+01  0.7957747E-01            NaN
         13   -1    0    0    0    0  0.00000000000E+00  0.00000000000E+00  0.74505805969E-08  0.10566000000E+00  0.10566000000E+00 0. -1.
     999900   -1    0    0    0    0 -0.00000000000E+00 -0.00000000000E+00 -0.74505805969E-08  0.93827000000E+00  0.93827000000E+00 0.  1.
     999902    2    1    2    0    0  0.11298635715E-01 -0.18606170222E-01  0.10556513751E-01  0.10197372589E+01  0.10194502383E+01 0.  0.
     999903    2    3    3    0    0  0.87647189619E-01 -0.57423213996E-01  0.77815502801E-01  0.13302443268E+00  0.25705872103E-01 0.  0.
         14    1    1    2    0    0 -0.11298635715E-01  0.18606170222E-01 -0.10556513751E-01  0.24192741100E-01  0.00000000000E+00 0.  1.
     999901    1    3    3    0    0 -0.76348553904E-01  0.38817043774E-01 -0.67258989050E-01  0.88671282622E+00  0.88000000000E+00 0. -1.
        -11    1    4    4    0    0  0.51419370937E-01 -0.32756648024E-01  0.60514800433E-01  0.85902572079E-01  0.51100000000E-03 0. -1.
         11    1    4    4    0    0  0.36227818683E-01 -0.24666565972E-01  0.17300702368E-01  0.47121860604E-01  0.51100000000E-03 0.  1.
</event>
<event>
 8    1  0.1143957E+005  0.1043930E+01  0.7957747E-01            NaN
         13   -1    0    0    0    0  0.00000000000E+00  0.00000000000E+00  0.74505805969E-08  0.10566000000E+00  0.10566000000E+00 0.  1.
     999900   -1    0    0    0    0 -0.00000000000E+00 -0.00000000000E+00 -0.74505805969E-08  0.93827000000E+00  0.93827000000E+00 0.  1.
     999902    2    1    2    0    0  0.21682865455E-01 -0.59741725267E-02 -0.83917700745E-02  0.10199246007E+01  0.10196420607E+01 0.  0.
     999903    2    3    3    0    0  0.60370415798E-01 -0.99982180333E-01 -0.58359969858E-01  0.13266418058E+00  0.23513299188E-01 0.  0.
         14    1    1    2    0    0 -0.21682865455E-01  0.59741725267E-02  0.83917700745E-02  0.24005399324E-01  0.00000000000E+00 0.  1.
     999901    1    3    3    0    0 -0.38687550343E-01  0.94008007807E-01  0.49968199784E-01  0.88726042010E+00  0.88000000000E+00 0. -1.
        -11    1    4    4    0    0  0.13812093339E-01 -0.44994649752E-01 -0.22000516256E-01  0.51957446678E-01  0.51100000000E-03 0. -1.
         11    1    4    4    0    0  0.46558322459E-01 -0.54987530581E-01 -0.36359453602E-01  0.80706733900E-01  0.51100000000E-03 0.  1.
</event>
<event>
 8    1  0.1143957E+005  0.1043930E+01  0.7957747E-01            NaN
         13   -1    0    0    0    0  0.00000000000E+00  0.00000000000E+00  0.74505805969E-08  0.10566000000E+00  0.10566000000E+00 0. -1.
     999900   -1    0    0    0    0 -0.00000000000E+00 -0.00000000000E+00 -0.74505805969E-08  0.93827000000E+00  0.93827000000E+00 0.  1.
     999902    2    1    2    0    0 -0.20230636477E-01  0.10254953318E-01 -0.22940233139E-01  0.10116701640E+01  0.10111556872E+01 0.  0.
     999903    2    3    3    0    0 -0.99228662432E-01  0.84526386973E-02  0.70103248151E-01  0.12324401300E+00  0.18890388807E-01 0.  0.
         14    1    1    2    0    0  0.20230636477E-01 -0.10254953318E-01  0.22940233139E-01  0.32259835962E-01  0.00000000000E+00 0. -1.
     999901    1    3    3    0    0  0.78998025955E-01  0.18023146208E-02 -0.93043481290E-01  0.88842615104E+00  0.88000000000E+00 0. -1.
        -11    1    4    4    0    0 -0.69879680808E-01  0.90661857914E-02  0.58822132358E-01  0.91791447808E-01  0.51100000000E-03 0.  1.
         11    1    4    4    0    0 -0.29348981625E-01 -0.61354709408E-03  0.11281115793E-01  0.31452565189E-01  0.51100000000E-03 0. -1.
</event>
<event>
 8    1  0.1143957E+005  0.1043930E+01  0.7957747E-01            NaN
         13   -1    0    0    0    0  0.00000000000E+00  0.00000000000E+00  0.74505805969E-08  0.10566000000E+00  0.10566000000E+00 0.  1.
     999900   -1    0    0    0    0 -0.00000000000E+00 -0.00000000000E+00 -0.74505805969E-08  0.93827000000E+00  0.93827000000E+00 0.  1.
     999902    2    1    2    0    0 -0.16210478521E-01  0.10412810653E-01  0.14091491129E-01  0.10200600113E+01  0.10197806873E+01 0.  0.
     999903    2    3    3    0    0 -0.34650720809E-01  0.27284617540E-01  0.12384359775E+00  0.13289022746E+00  0.19428150812E-01 0.  0.
         14    1    1    2    0    0  0.16210478521E-01 -0.10412810653E-01 -0.14091491129E-01  0.23869988726E-01  0.00000000000E+00 0. -1.
     999901    1    3    3    0    0  0.18440242289E-01 -0.16871806887E-01 -0.10975210662E+00  0.88716978381E+00  0.88000000000E+00 0.  1.
        -11    1    4    4    0    0 -0.20621299265E-01  0.66851461108E-02  0.41049284294E-01  0.46424498101E-01  0.51100000000E-03 0.  1.
         11    1    4    4    0    0 -0.14029421545E-01  0.20599471429E-01  0.82794313456E-01  0.86465729360E-01  0.51100000000E-03 0. -1.
</event>
<event>
 8    1  0.1143957E+005  0.1043930E+01  0.7957747E-01            NaN
         13   -1    0    0    0    0  0.00000000000E+00  0.00000000000E+00  0.74505805969E-08  0.10566000000E+00  0.10566000000E+00 0. -1.
     999900   -1    0    0    0    0 -0.00000000000E+00 -0.00000000000E+00 -0.74505805969E-08  0.93827000000E+00  0.93827000000E+00 0. -1.
     999902    2    1    2    0    0 -0.12510418126E-01 -0.18065717619E-01  0.76521282228E-02  0.10206612273E+01  0.10203959551E+01 0.  0.
     999903    2    3    3    0    0 -0.61515470306E-01  0.92969899545E-01 -0.62992599082E-01  0.12952651198E+00  0.19531883136E-01 0.  0.
         14    1    1    2    0    0  0.12510418126E-01  0.18065717619E-01 -0.76521282228E-02  0.23268772660E-01  0.00000000000E+00 0.  1.
     999901    1    3    3    0    0  0.49005052180E-01 -0.11103561716E+00  0.70644727305E-01  0.89113471536E+00  0.88000000000E+00 0. -1.
        -11    1    4    4    0    0 -0.75858873849E-02  0.24993531483E-01 -0.10814280182E-01  0.28274229968E-01  0.51100000000E-03 0. -1.
         11    1    4    4    0    0 -0.53929582921E-01  0.67976368062E-01 -0.52178318900E-01  0.10125228201E+00  0.51100000000E-03 0.  1.
</event>
<event>
 8    1  0.1143957E+005  0.1043930E+01  0.7957747E-01            NaN
         13   -1    0    0    0    0  0.00000000000E+00  0.00000000000E+00  0.74505805969E-08  0.10566000000E+00  0.10566000000E+00 0.  1.
     999900   -1    0    0    0    0 -0.00000000000E+00 -0.00000000000E+00 -0.74505805969E-08  0.93827000000E+00  0.93827000000E+00 0. -1.
     999902    2    1    2    0    0  0.16813251445E-01  0.14870623094E-01  0.21378168552E-02  0.10213824698E+01  0.10211335655E+01 0.  0.
     999903    2    3    3    0    0  0.11278467337E+00 -0.65845433183E-01 -0.32625547852E-02  0.13247597331E+00  0.21982620886E-01 0.  0.
         14    1    1    2    0    0 -0.16813251445E-01 -0.14870623094E-01 -0.21378168552E-02  0.22547530159E-01  0.00000000000E+00 0.  1.
     999901    1    3    3    0    0 -0.95971421927E-01  0.80716056277E-01  0.54003716403E-02  0.88890649653E+00  0.88000000000E+00 0.  1.
        -11    1    4    4    0    0  0.95077301499E-01 -0.54517299150E-01 -0.10818874507E-01  0.11013236733E+00  0.51100000000E-03 0.  1.
         11    1    4    4    0    0  0.17707371873E-01 -0.11328134034E-01  0.75563197219E-02  0.22343605978E-01  0.51100000000E-03 0. -1.
</event>
<event>
 8    1  0.1143957E+005  0.1043930E+01  0.7957747E-01            NaN
         13   -1    0    0    0    0  0.00000000000E+00  0.00000000000E+00  0.74505805969E-08  0.10566000000E+00  0.10566000000E+00 0. -1.
     999900   -1    0    0    0    0 -0.00000000000E+00 -0.00000000000E+00 -0.74505805969E-08  0.93827000000E+00  0.93827000000E+00 0. -1.
     999902    2    1    2    0    0  0.22500017650E-01 -0.55167244470E-02 -0.57646639414E-02  0.10200570782E+01  0.10197776848E+01 0.  0.
     999903    2    3    3    0    0 -0.93095953720E-01 -0.43765677880E-01 -0.75219119460E-01  0.12896262061E+00  0.19777523159E-01 0.  0.
         14    1    1    2    0    0 -0.22500017650E-01  0.55167244470E-02  0.57646639414E-02  0.23872921757E-01  0.00000000000E+00 0.  1.
     999901    1    3    3    0    0  0.11559597137E+00  0.38248953433E-01  0.69454455519E-01  0.89109445763E+00  0.88000000000E+00 0.  1.
        -11    1    4    4    0    0 -0.53965962515E-01 -0.19981985491E-01 -0.31290130241E-01  0.65505253422E-01  0.51100000000E-03 0. -1.
         11    1    4    4    0    0 -0.39129991205E-01 -0.23783692390E-01 -0.43928989219E-01  0.63457367186E-01  0.51100000000E-03 0.  1.
</event>
<event>
 8    1  0.1143957E+005  0.1043930E+01  0.7957747E-01            NaN
         13   -1    0    0    0    0  0.00000000000E+00  0.00000000000E+00  0.74505805969E-08  0.10566000000E+00  0.10566000000E+00 0. -1.
     999900   -1    0    0    0    0 -0.00000000000E+00 -0.00000000000E+00 -0.74505805969E-08  0.93827000000E+00  0.93827000000E+00 0.  1.
     999902    2    1    2    0    0  0.12350261878E-02  0.15360282355E-01  0.16885624266E-01  0.10210698191E+01  0.10208138849E+01 0.  0.
     999903    2    3    3    0    0 -0.73943798003E-01 -0.43949266937E-01 -0.94086984163E-01  0.12894628614E+00  0.19379390946E-01 0.  0.
         14    1    1    2    0    0 -0.12350261878E-02 -0.15360282355E-01 -0.16885624266E-01  0.22860180895E-01  0.00000000000E+00 0.  1.
     999901    1    3    3    0    0  0.75178824191E-01  0.59309549292E-01  0.11097260843E+00  0.89212353296E+00  0.88000000000E+00 0.  1.
        -11    1    4    4    0    0 -0.50710095431E-01 -0.39458720998E-01 -0.72943533708E-01  0.97208665623E-01  0.51100000000E-03 0. -1.
         11    1    4    4    0    0 -0.23233702572E-01 -0.44905459386E-02 -0.21143450456E-01  0.31737620519E-01  0.51100000000E-03 0.  1.
</event>
<event>
 8    1  0.1143957E+005  0.1043930E+01  0.7957747E-01            NaN
         13   -1    0    0    0    0  0.00000000000E+00  0.00000000000E+00  0.74505805969E-08  0.10566000000E+00  0.10566000000E+00 0.  1.
     999900   -1    0    0    0    0 -0.00000000000E+00 -0.00000000000E+00 -0.74505805969E-08  0.93827000000E+00  0.93827000000E+00 0.  1.
     999902    2    1    2    0    0 -0.21947529794E-01 -0.87089638138E-02  0.21622849626E-02  0.10202189142E+01  0.10199433402E+01 0.  0.
     999903    2    3    3    0    0  0.10691731920E-01 -0.34310668542E-01 -0.12361605314E+00  0.13030826752E+00  0.20193585199E-01 0.  0.
         14    1    1    2    0    0  0.21947529794E-01  0.87089638138E-02 -0.21622849626E-02  0.23711085826E-01  0.00000000000E+00 0.  1.
     999901    1    3    3    0    0 -0.32639261714E-01  0.25601704729E-01  0.12577833810E+00  0.88991064665E+00  0.88000000000E+00 0. -1.
        -11    1    4    4    0    0  0.66944474198E-02 -0.25248591361E-01 -0.53986136684E-01  0.59975587259E-01  0.51100000000E-03 0.  1.
         11    1    4    4    0    0  0.39972845001E-02 -0.90620771811E-02 -0.69629916455E-01  0.70332680262E-01  0.51100000000E-03 0. -1.
</event>
<event>
 8    1  0.1143957E+005  0.1043930E+01  0.7957747E-01            NaN
         13   -1    0    0    0    0  0.00000000000E+00  0.00000000000E+00  0.74505805969E-08  0.10566000000E+00  0.10566000000E+00 0.  1.
     999900   -1    0    0    0    0 -0.00000000000E+00 -0.00000000000E+00 -0.74505805969E-08  0.93827000000E+00  0.93827000000E+00 0.  1.
     999902    2    1    2    0    0  0.77765161339E-02 -0.11092825449E-01  0.18806208746E-01  0.10207524577E+01  0.10204892853E+01 0.  0.
     999903    2    3    3    0    0 -0.89660787066E-01 -0.31183049830E-01 -0.85377473278E-01  0.12903956401E+00  0.18720491534E-01 0.  0.
         14    1    1    2    0    0 -0.77765161339E-02  0.11092825449E-01 -0.18806208746E-01  0.23177542299E-01  0.00000000000E+00 0. -1.
     999901    1    3    3    0    0  0.97437303200E-01  0.20090224381E-01  0.10418368202E+00  0.89171289369E+00  0.88000000000E+00 0. -1.
        -11    1    4    4    0    0 -0.21997881647E-01 -0.13158188184E-01 -0.31925660292E-01  0.40945739941E-01  0.51100000000E-03 0.  1.
         11    1    4    4    0    0 -0.67662905419E-01 -0.18024861646E-01 -0.53451812986E-01  0.88093824072E-01  0.51100000000E-03 0. -1.
</event>
<event>
 8    1  0.1143957E+005  0.1043930E+01  0.7957747E-01            NaN
         13   -1    0    0    0    0  0.00000000000E+00  0.00000000000E+00  0.74505805969E-08  0.10566000000E+00  0.10566000000E+00 0.  1.
     999900   -1    0    0    0    0 -0.00000000000E+00 -0.00000000000E+00 -0.74505805969E-08  0.93827000000E+00  0.93827000000E+00 0. -1.
     999902    2    1    2    0    0 -0.56531252371E-02  0.13141905700E-01  0.19348834742E-01  0.10198666479E+01  0.10195827257E+01 0.  0.
     999903    2    3    3    0    0  0.61563043847E-01 -0.11090813734E+00  0.68705475772E-02  0.12854059404E+00  0.19617762292E-01 0.  0.
         14    1    1    2    0    0  0.56531252371E-02 -0.13141905700E-01 -0.19348834742E-01  0.24063352141E-01  0.00000000000E+00 0. -1.
     999901    1    3    3    0    0 -0.67216169085E-01  0.12405004304E+00  0.12478287165E-01  0.89132605382E+00  0.88000000000E+00 0.  1.
        -11    1    4    4    0    0  0.39917218438E-01 -0.60668278837E-01 -0.41182707166E-02  0.72740948987E-01  0.51100000000E-03 0.  1.
         11    1    4    4    0    0  0.21645825409E-01 -0.50239858499E-01  0.10988818294E-01  0.55799645054E-01  0.51100000000E-03 0. -1.
</event>
<event>
 7    1  0.1143957E+005  0.1043930E+01  0.7957747E-01            NaN
         13   -1    0    0    0    0  0.00000000000E+00  0.00000000000E+00  0.74505805969E-08  0.10566000000E+00  0.10566000000E+00 0.  1.
     999900   -1    0    0    0    0 -0.00000000000E+00 -0.00000000000E+00 -0.74505805969E-08  0.93827000000E+00  0.93827000000E+00 0. -1.
     999902    2    1    2    0    0  0.16905555049E-01 -0.12362936714E-01  0.93722285229E-02  0.10209848771E+01  0.10207270157E+01 0.  0.
         14    1    1    2    0    0 -0.16905555049E-01  0.12362936714E-01 -0.93722285229E-02  0.22945122863E-01  0.00000000000E+00 0. -1.
     999901    1    3    3    0    0 -0.98636927893E-01  0.49973711113E-01 -0.16711632453E-01  0.88707716350E+00  0.88000000000E+00 0. -1.
        -11    1    3    3    0    0  0.70348072787E-01 -0.36210915971E-01  0.16721230313E-01  0.80869910625E-01  0.51100000000E-03 0. -1.
         11    1    3    3    0    0  0.45194410155E-01 -0.26125731856E-01  0.93626306635E-02  0.53037803011E-01  0.51100000000E-03 0.  1.
</event>
<event>
 8    1  0.1143957E+005  0.1043930E+01  0.7957747E-01            NaN
         13   -1    0    0    0    0  0.00000000000E+00  0.00000000000E+00  0.74505805969E-08  0.10566000000E+00  0.10566000000E+00 0.  1.
     999900   -1    0    0    0    0 -0.00000000000E+00 -0.00000000000E+00 -0.74505805969E-08  0.93827000000E+00  0.93827000000E+00 0. -1.
     999902    2    1    2    0    0  0.18810824371E-01  0.80889085437E-02 -0.13171489263E-01  0.10195832202E+01  0.10192924886E+01 0.  0.
     999903    2    3    3    0    0  0.98844756202E-01 -0.78113135666E-01 -0.32262162415E-01  0.13155130839E+00  0.19823012486E-01 0.  0.
         14    1    1    2    0    0 -0.18810824371E-01 -0.80889085437E-02  0.13171489263E-01  0.24346779753E-01  0.00000000000E+00 0. -1.
     999901    1    3    3    0    0 -0.80033931831E-01  0.86202044210E-01  0.19090673152E-01  0.88803191185E+00  0.88000000000E+00 0.  1.
        -11    1    4    4    0    0  0.66507426544E-01 -0.55952797378E-01 -0.13041158372E-01  0.87887918696E-01  0.51100000000E-03 0. -1.
         11    1    4    4    0    0  0.32337329657E-01 -0.22160338288E-01 -0.19221004043E-01  0.43663389697E-01  0.51100000000E-03 0.  1.
</event>
<event>
 8    1  0.1143957E+005  0.1043930E+01  0.7957747E-01            NaN
         13   -1    0    0    0    0  0.00000000000E+00  0.00000000000E+00  0.74505805969E-08  0.10566000000E+00  0.10566000000E+00 0. -1.
     999900   -1    0    0    0    0 -0.00000000000E+00 -0.00000000000E+00 -0.74505805969E-08  0.93827000000E+00  0.93827000000E+00 0. -1.
     999902    2    1    2    0    0 -0.11763540729E-01  0.19952608664E-01  0.38233335545E-02  0.10204543666E+01  0.10201843015E+01 0.  0.
     999903    2    3    3    0    0  0.10425261424E+00 -0.67705414663E-01  0.24677061722E-01  0.12827806384E+00  0.19841208041E-01 0.  0.
         14    1    1    2    0    0  0.11763540729E-01 -0.19952608664E-01 -0.38233335545E-02  0.23475633377E-01  0.00000000000E+00 0. -1.
     999901    1    3    3    0    0 -0.11601615497E+00  0.87658023327E-01 -0.20853728168E-01  0.89217630278E+00  0.88000000000E+00 0.  1.
        -11    1    4    4    0    0  0.60080765828E-01 -0.43353067445E-01  0.54344692663E-02  0.74289847601E-01  0.51100000000E-03 0. -1.
         11    1    4    4    0    0  0.44171848415E-01 -0.24352347218E-01  0.19242592456E-01  0.53988216241E-01  0.51100000000E-03 0.  1.
</event>
<event>
 8    1  0.1143957E+005  0.1043930E+01  0.7957747E-01            NaN
         13   -1    0    0    0    0  0.00000000000E+00  0.00000000000E+00  0.74505805969E-08  0.10566000000E+00  0.10566000000E+00 0.  1.
     999900   -1    0    0    0    0 -0.00000000000E+00 -0.00000000000E+00 -0.74505805969E-08  0.93827000000E+00  0.93827000000E+00 0.  1.
     999902    2    1    2    0    0 -0.18153098776E-01 -0.69923306987E-02 -0.13444077532E-01  0.10202832052E+01  0.10200091411E+01 0.  0.
     999903    2    3    3    0    0 -0.31981048164E-01  0.11029797794E+00  0.52048105477E-01  0.12998131554E+00  0.31586480146E-01 0.  0.
         14    1    1    2    0    0  0.18153098776E-01  0.69923306987E-02  0.13444077532E-01  0.23646794803E-01  0.00000000000E+00 0.  1.
     999901    1    3    3    0    0  0.13827949388E-01 -0.11729030864E+00 -0.65492183009E-01  0.89030188965E+00  0.88000000000E+00 0.  1.
        -11    1    4    4    0    0 -0.36451697146E-01  0.74744882069E-01  0.38890069924E-01  0.91805349954E-01  0.51100000000E-03 0. -1.
         11    1    4    4    0    0  0.44706489825E-02  0.35553095868E-01  0.13158035552E-01  0.38175965590E-01  0.51100000000E-03 0.  1.
</event>
<event>
 8    1  0.1143957E+005  0.1043930E+01  0.7957747E-01            NaN
         13   -1    0    0    0    0  0.00000000000E+00  0.00000000000E+00  0.74505805969E-08  0.10566000000E+00  0.10566000000E+00 0. -1.
     999900   -1    0    0    0    0 -0.00000000000E+00 -0.00000000000E+00 -0.74505805969E-08  0.93827000000E+00  0.93827000000E+00 0.  1.
     999902    2    1    2    0    0 -0.17733587176E-01  0.14770403971E-01 -0.63422719906E-02  0.10199953105E+01  0.10197144522E+01 0.  0.
     999903    2    3    3    0    0 -0.34435662161E-01 -0.20928676467E-01  0.12222255743E+00  0.12978056168E+00  0.16757574907E-01 0.  0.
         14    1    1    2    0    0  0.17733587176E-01 -0.14770403971E-01  0.63422719906E-02  0.23934689503E-01  0.00000000000E+00 0. -1.
     999901    1    3    3    0    0  0.16702074985E-01  0.35699080438E-01 -0.12856482942E+00  0.89021474882E+00  0.88000000000E+00 0.  1.
        -11    1    4    4    0    0 -0.29845733596E-01 -0.95198442334E-02  0.88392918420E-01  0.93781471496E-01  0.51100000000E-03 0. -1.
         11    1    4    4    0    0 -0.45899285647E-02 -0.11408832234E-01  0.33829639012E-01  0.35999090181E-01  0.51100000000E-03 0.  1.
</event>
<event>
 8    1  0.1143957E+005  0.1043930E+01  0.7957747E-01            NaN
         13   -1    0    0    0    0  0.00000000000E+00  0.00000000000E+00  0.74505805969E-08  0.10566000000E+00  0.10566000000E+00 0.  1.
     999900   -1    0    0    0    0 -0.00000000000E+00 -0.00000000000E+00 -0.74505805969E-08  0.93827000000E+00  0.93827000000E+00 0.  1.
     999902    2    1    2    0    0 -0.55840945656E-02  0.23233296785E-01 -0.57690765401E-02  0.10193484940E+01  0.10190520604E+01 0.  0.
     999903    2    3    3    0    0 -0.33319515873E-01  0.71421165142E-01 -0.10382437918E+00  0.13215845428E+00  0.21798677908E-01 0.  0.
         14    1    1    2    0    0  0.55840945656E-02 -0.23233296785E-01  0.57690765401E-02  0.24581505970E-01  0.00000000000E+00 0.  1.
     999901    1    3    3    0    0  0.27735421307E-01 -0.48187868357E-01  0.98055302637E-01  0.88719003975E+00  0.88000000000E+00 0. -1.
        -11    1    4    4    0    0 -0.17129862996E-02  0.87926913437E-02 -0.25384558453E-01  0.26923645221E-01  0.51100000000E-03 0.  1.
         11    1    4    4    0    0 -0.31606529573E-01  0.62628473799E-01 -0.78439820724E-01  0.10523480906E+00  0.51100000000E-03 0. -1.
</event>
<event>
 8    1  0.1143957E+005  0.1043930E+01  0.7957747E-01            NaN
         13   -1    0    0    0    0  0.00000000000E+00  0.00000000000E+00  0.74505805969E-08  0.10566000000E+00  0.10566000000E+00 0. -1.
     999900   -1    0    0    0    0 -0.00000000000E+00 -0.00000000000E+00 -0.74505805969E-08  0.93827000000E+00  0.93827000000E+00 0. -1.
     999902    2    1    2    0    0  0.17146244172E-01  0.30088964715E-02 -0.15526568984E-01  0.10206035881E+01  0.10203369848E+01 0.  0.
     999903    2    3    3    0    0  0.72802595141E-01 -0.67184641726E-01  0.82901257661E-01  0.13059639754E+00  0.19204337687E-01 0.  0.
         14    1    1    2    0    0 -0.17146244172E-01 -0.30088964715E-02  0.15526568984E-01  0.23326411888E-01  0.00000000000E+00 0. -1.
     999901    1    3    3    0    0 -0.55656350970E-01  0.70193538198E-01 -0.98427826645E-01  0.89000719057E+00  0.88000000000E+00 0.  1.
        -11    1    4    4    0    0  0.84540357475E-02 -0.12833102577E-01  0.58894263580E-02  0.16465287911E-01  0.51100000000E-03 0.  1.
         11    1    4    4    0    0  0.64348559394E-01 -0.54351539149E-01  0.77011831303E-01  0.11413110963E+00  0.51100000000E-03 0. -1.
</event>
<event>
 8    1  0.1143957E+005  0.1043930E+01  0.7957747E-01            NaN
         13   -1    0    0    0    0  0.00000000000E+00  0.00000000000E+00  0.74505805969E-08  0.10566000000E+00  0.10566000000E+00 0.  1.
     999900   -1    0    0    0    0 -0.00000000000E+00 -0.00000000000E+00 -0.74505805969E-08  0.93827000000E+00  0.93827000000E+00 0.  1.
     999902    2    1    2    0    0 -0.25336731962E-03  0.86237732063E-02  0.22593180365E-01  0.10197455947E+01  0.10194587743E+01 0.  0.
     999903    2    3    3    0    0  0.97671628717E-01  0.42957619030E-01 -0.69411922302E-01  0.12888474323E+00  0.20202920349E-01 0.  0.
         14    1    1    2    0    0  0.25336731962E-03 -0.86237732063E-02 -0.22593180365E-01  0.24184405271E-01  0.00000000000E+00 0. -1.
     999901    1    3    3    0    0 -0.97924996037E-01 -0.34333845824E-01  0.92005102667E-01  0.89086085150E+00  0.88000000000E+00 0. -1.
        -11    1    4    4    0    0  0.77723984299E-01  0.36710018858E-01 -0.45993312412E-01  0.97489943725E-01  0.51100000000E-03 0. -1.
         11    1    4    4    0    0  0.19947644418E-01  0.62476001722E-02 -0.23418609890E-01  0.31394799504E-01  0.51100000000E-03 0.  1.
</event>
<event>
 8    1  0.1143957E+005  0.1043930E+01  0.7957747E-01            NaN
         13   -1    0    0    0    0  0.00000000000E+00  0.00000000000E+00  0.74505805969E-08  0.10566000000E+00  0.10566000000E+00 0. -1.
     999900   -1    0    0    0    0 -0.00000000000E+00 -0.00000000000E+00 -0.74505805969E-08  0.93827000000E+00  0.93827000000E+00 0.  1.
     999902    2    1    2    0    0 -0.16218418835E-01 -0.45653850078E-02 -0.18759544488E-01  0.10187149180E+01  0.10184028102E+01 0.  0.
     999903    2    3    3    0    0 -0.87130631968E-01 -0.87349404343E-01 -0.41551767424E-01  0.13169675516E+00  0.19895237521E-01 0.  0.
         14    1    1    2    0    0  0.16218418835E-01  0.45653850078E-02  0.18759544488E-01  0.25215081978E-01  0.00000000000E+00 0. -1.
     999901    1    3    3    0    0  0.70912213133E-01  0.82784019335E-01  0.22792222936E-01  0.88701816287E+00  0.88000000000E+00 0. -1.
        -11    1    4    4    0    0 -0.62609851771E-01 -0.74362308759E-01 -0.32877181537E-01  0.10262025477E+00  0.51100000000E-03 0. -1.
         11    1    4    4    0    0 -0.24520780197E-01 -0.12987095584E-01 -0.86745858867E-02  0.29076500383E-01  0.51100000000E-03 0.  1.
</event>
<event>
 8    1  0.1143957E+005  0.1043930E+01  0.7957747E-01            NaN
         13   -1    0    0    0    0  0.00000000000E+00  0.00000000000E+00  0.74505805969E-08  0.10566000000E+00  0.10566000000E+00 0.  1.
     999900   -1    0    0    0    0 -0.00000000000E+00 -0.00000000000E+00 -0.74505805969E-08  0.93827000000E+00  0.93827000000E+00 0. -1.
     999902    2    1    2    0    0  0.13458378745E-01 -0.18014820306E-01  0.91464736499E-02  0.10196540924E+01  0.10193650712E+01 0.  0.
     999903    2    3    3    0    0 -0.46834073814E-01 -0.43093153662E-01  0.11302493902E+00  0.13114138107E+00  0.19312551019E-01 0.  0.
         14    1    1    2    0    0 -0.13458378745E-01  0.18014820306E-01 -0.91464736499E-02  0.24275907590E-01  0.00000000000E+00 0. -1.
     999901    1    3    3    0    0  0.60292452559E-01  0.25078333356E-01 -0.10387846537E+00  0.88851271134E+00  0.88000000000E+00 0. -1.
        -11    1    4    4    0    0 -0.20170283382E-01 -0.11957795500E-01  0.57686301287E-01  0.62271981518E-01  0.51100000000E-03 0.  1.
         11    1    4    4    0    0 -0.26663790432E-01 -0.31135358162E-01  0.55338637732E-01  0.68869399555E-01  0.51100000000E-03 0. -1.
</event>
<event>
 8    1  0.1143957E+005  0.1043930E+01  0.7957747E-01            NaN
         13   -1    0    0    0    0  0.00000000000E+00  0.00000000000E+00  0.74505805969E-08  0.10566000000E+00  0.10566000000E+00 0. -1.
     999900   -1    0    0    0    0 -0.00000000000E+00 -0.00000000000E+00 -0.74505805969E-08  0.93827000000E+00  0.93827000000E+00 0. -1.
     999902    2    1    2    0    0 -0.14382617280E-01 -0.46367740151E-02  0.17821992818E-01  0.10205637256E+01  0.10202961997E+01 0.  0.
     999903    2    3    3    0    0  0.93312917850E-01 -0.85619049108E-01 -0.18350712107E-01  0.12957274820E+00  0.20357461351E-01 0.  0.
         14    1    1    2    0    0  0.14382617280E-01  0.46367740151E-02 -0.17821992818E-01  0.23366274437E-01  0.00000000000E+00 0. -1.
     999901    1    3    3    0    0 -0.10769553513E+00  0.80982275093E-01  0.36172704924E-01  0.89099097737E+00  0.88000000000E+00 0. -1.
        -11    1    4    4    0    0  0.76762847453E-01 -0.68358198685E-01 -0.68078356823E-02  0.10301449327E+00  0.51100000000E-03 0. -1.
         11    1    4    4    0    0  0.16550070396E-01 -0.17260850424E-01 -0.11542876424E-01  0.26558254924E-01  0.51100000000E-03 0.  1.
</event>
<event>
 8    1  0.1143957E+005  0.1043930E+01  0.7957747E-01            NaN
         13   -1    0    0    0    0  0.00000000000E+00  0.00000000000E+00  0.74505805969E-08  0.10566000000E+00  0.10566000000E+00 0.  1.
     999900   -1    0    0    0    0 -0.00000000000E+00 -0.00000000000E+00 -0.74505805969E-08  0.93827000000E+00  0.93827000000E+00 0.  1.
     999902    2    1    2    0    0 -0.71032681781E-02 -0.22254223319E-01 -0.19091348911E-01  0.10137607031E+01  0.10133116878E+01 0.  0.
     999903    2    3    3    0    0  0.21765063554E-02 -0.12226646455E+00  0.27786504024E-01  0.12680743727E+00  0.18820489007E-01 0.  0.
         14    1    1    2    0    0  0.71032681781E-02  0.22254223319E-01  0.19091348911E-01  0.30169296935E-01  0.00000000000E+00 0.  1.
     999901    1    3    3    0    0 -0.92797745335E-02  0.10001224123E+00 -0.46877852935E-01  0.88695326580E+00  0.88000000000E+00 0.  1.
        -11    1    4    4    0    0 -0.30993449456E-02 -0.88641136013E-01  0.27156931188E-01  0.92761074623E-01  0.51100000000E-03 0.  1.
         11    1    4    4    0    0  0.52758513009E-02 -0.33625328540E-01  0.62957283584E-03  0.34046362644E-01  0.51100000000E-03 0. -1.
</event>
<event>
 8    1  0.1143957E+005  0.1043930E+01  0.7957747E-01            NaN
         13   -1    0    0    0    0  0.00000000000E+00  0.00000000000E+00  0.74505805969E-08  0.10566000000E+00  0.10566000000E+00 0. -1.
     999900   -1    0    0    0    0 -0.00000000000E+00 -0.00000000000E+00 -0.74505805969E-08  0.93827000000E+00  0.93827000000E+00 0.  1.
     999902    2    1    2    0    0  0.14898228948E-01  0.52970511871E-02  0.16466362675E-01  0.10211011350E+01  0.10208459094E+01 0.  0.
     999903    2    3    3    0    0 -0.73276387419E-01 -0.66794550998E-01  0.83677998317E-01  0.13121947656E+00  0.19636767305E-01 0.  0.
         14    1    1    2    0    0 -0.14898228948E-01 -0.52970511871E-02 -0.16466362675E-01  0.22828864992E-01  0.00000000000E+00 0.  1.
     999901    1    3    3    0    0  0.88174616367E-01  0.72091602185E-01 -0.67211635642E-01  0.88988165845E+00  0.88000000000E+00 0.  1.
        -11    1    4    4    0    0 -0.41889721338E-01 -0.47585908943E-01  0.44435830069E-01  0.77420743981E-01  0.51100000000E-03 0. -1.
         11    1    4    4    0    0 -0.31386666081E-01 -0.19208642055E-01  0.39242168248E-01  0.53798732579E-01  0.51100000000E-03 0.  1.
</event>
<event>
 8    1  0.1143957E+005  0.1043930E+01  0.7957747E-01            NaN
         13   -1    0    0    0    0  0.00000000000E+00  0.00000000000E+00  0.74505805969E-08  0.10566000000E+00  0.10566000000E+00 0. -1.
     999900   -1    0    0    0    0 -0.00000000000E+00 -0.00000000000E+00 -0.74505805969E-08  0.93827000000E+00  0.93827000000E+00 0. -1.
     999902    2    1    2    0    0  0.15865718697E-01 -0.45921353641E-02 -0.18971217358E-01  0.10187761569E+01  0.10184655821E+01 0.  0.
     999903    2    3    3    0    0  0.18128485684E-01  0.12594938193E+00 -0.26413823672E-02  0.12899367143E+00  0.20988129161E-01 0.  0.
         14    1    1    2    0    0 -0.15865718697E-01  0.45921353641E-02  0.18971217358E-01  0.25153843146E-01  0.00000000000E+00 0. -1.
     999901    1    3    3    0    0 -0.22627669872E-02 -0.13054151730E+00 -0.16329834991E-01  0.88978248542E+00  0.88000000000E+00 0. -1.
        -11    1    4    4    0    0  0.16884367052E-01  0.10361128258E+00 -0.99553571720E-02  0.10545022516E+00  0.51100000000E-03 0. -1.
         11    1    4    4    0    0  0.12441186315E-02  0.22338099353E-01  0.73139748048E-02  0.23543446271E-01  0.51100000000E-03 0.  1.
</event>
<event>
 8    1  0.1143957E+005  0.1043930E+01  0.7957747E-01            NaN
         13   -1    0    0    0    0  0.00000000000E+00  0.00000000000E+00  0.74505805969E-08  0.10566000000E+00  0.10566000000E+00 0.  1.
     999900   -1    0    0    0    0 -0.00000000000E+00 -0.00000000000E+00 -0.74505805969E-08  0.93827000000E+00  0.93827000000E+00 0. -1.
     999902    2    1    2    0    0  0.20448565453E-01 -0.11260520917E-01 -0.59337215070E-02  0.10198436509E+01  0.10195591793E+01 0.  0.
     999903    2    3    3    0    0  0.39540588567E-01  0.84314681118E-01  0.85773964594E-01  0.12972600462E+00  0.28270827297E-01 0.  0.
         14    1    1    2    0    0 -0.20448565453E-01  0.11260520917E-01  0.59337215070E-02  0.24086349066E-01  0.00000000000E+00 0. -1.
     999901    1    3    3    0    0 -0.19092023114E-01 -0.95575202034E-01 -0.91707686101E-01  0.89011764631E+00  0.88000000000E+00 0. -1.
        -11    1    4    4    0    0 -0.88797704236E-03  0.19374925598E-01  0.91455702652E-02  0.21449448049E-01  0.51100000000E-03 0.  1.
         11    1    4    4    0    0  0.40428565609E-01  0.64939755520E-01  0.76628394329E-01  0.10827655657E+00  0.51100000000E-03 0. -1.
</event>
<event>
 8    1  0.1143957E+005  0.1043930E+01  0.7957747E-01            NaN
         13   -1    0    0    0    0  0.00000000000E+00  0.00000000000E+00  0.74505805969E-08  0.10566000000E+00  0.10566000000E+00 0.  1.
     999900   -1    0    0    0    0 -0.00000000000E+00 -0.00000000000E+00 -0.74505805969E-08  0.93827000000E+00  0.93827000000E+00 0.  1.
     999902    2    1    2    0    0 -0.79167969747E-03  0.92204993214E-02  0.22400948191E-01  0.10196926973E+01  0.10194046056E+01 0.  0.
     999903    2    3    3    0    0 -0.49493334862E-01 -0.76735139312E-01  0.92414019568E-01  0.13140104853E+00  0.19698039028E-01 0.  0.
         14    1    1    2    0    0  0.79167969747E-03 -0.92204993214E-02 -0.22400948191E-01  0.24237302744E-01  0.00000000000E+00 0. -1.
     999901    1    3    3    0    0  0.48701655164E-01  0.85955638634E-01 -0.70013071378E-01  0.88829164872E+00  0.88000000000E+00 0.  1.
        -11    1    4    4    0    0 -0.39440245124E-01 -0.72335618262E-01  0.80335529131E-01  0.11507403255E+00  0.51100000000E-03 0. -1.
         11    1    4    4    0    0 -0.10053089737E-01 -0.43995210499E-02  0.12078490437E-01  0.16327015985E-01  0.51100000000E-03 0.  1.
</event>
<event>
 8    1  0.1143957E+005  0.1043930E+01  0.7957747E-01            NaN
         13   -1    0    0    0    0  0.00000000000E+00  0.00000000000E+00  0.74505805969E-08  0.10566000000E+00  0.10566000000E+00 0.  1.
     999900   -1    0    0    0    0 -0.00000000000E+00 -0.00000000000E+00 -0.74505805969E-08  0.93827000000E+00  0.93827000000E+00 0. -1.
     999902    2    1    2    0    0  0.18243782141E-01 -0.13950820371E-01 -0.25247860084E-02  0.10208251191E+01  0.10205636131E+01 0.  0.
     999903    2    3    3    0    0  0.83372576001E-01 -0.10088524970E+00  0.19761753814E-01  0.13386624485E+00  0.20020603410E-01 0.  0.
         14    1    1    2    0    0 -0.18243782141E-01  0.13950820371E-01  0.25247860084E-02  0.23104880874E-01  0.00000000000E+00 0.  1.
     999901    1    3    3    0    0 -0.65128793860E-01  0.86934429331E-01 -0.22286539822E-01  0.88695887427E+00  0.88000000000E+00 0. -1.
        -11    1    4    4    0    0  0.80694688874E-01 -0.88835898230E-01  0.18745715875E-01  0.12147062448E+00  0.51100000000E-03 0. -1.
         11    1    4    4    0    0  0.26778871273E-02 -0.12049351472E-01  0.10160379382E-02  0.12395620374E-01  0.51100000000E-03 0.  1.
</event>
<event>
 8    1  0.1143957E+005  0.1043930E+01  0.7957747E-01            NaN
         13   -1    0    0    0    0  0.00000000000E+00  0.00000000000E+00  0.74505805969E-08  0.10566000000E+00  0.10566000000E+00 0.  1.
     999900   -1    0    0    0    0 -0.00000000000E+00 -0.00000000000E+00 -0.74505805969E-08  0.93827000000E+00  0.93827000000E+00 0.  1.
     999902    2    1    2    0    0 -0.19700677487E-01  0.14234107428E-01 -0.34208716408E-02  0.10193855735E+01  0.10190900444E+01 0.  0.
     999903    2    3    3    0    0  0.89337472248E-01 -0.46379366161E-01 -0.75613152833E-01  0.12765969820E+00  0.21152307434E-01 0.  0.
         14    1    1    2    0    0  0.19700677487E-01 -0.14234107428E-01  0.34208716408E-02  0.24544426466E-01  0.00000000000E+00 0.  1.
     999901    1    3    3    0    0 -0.10903814974E+00  0.60613473589E-01  0.72192281193E-01  0.89172587534E+00  0.88000000000E+00 0.  1.
        -11    1    4    4    0    0  0.38536575533E-01 -0.12308473024E-01 -0.20646961743E-01  0.45421628243E-01  0.51100000000E-03 0. -1.
         11    1    4    4    0    0  0.50800896715E-01 -0.34070893137E-01 -0.54966191090E-01  0.82238069956E-01  0.51100000000E-03 0.  1.
</event>
<event>
 8    1  0.1143957E+005  0.1043930E+01  0.7957747E-01            NaN
         13   -1    0    0    0    0  0.00000000000E+00  0.00000000000E+00  0.74505805969E-08  0.10566000000E+00  0.10566000000E+00 0.  1.
     999900   -1    0    0    0    0 -0.00000000000E+00 -0.00000000000E+00 -0.74505805969E-08  0.93827000000E+00  0.93827000000E+00 0.  1.
     999902    2    1    2    0    0  0.65138824847E-02  0.21531270829E-01  0.73981744224E-02  0.10202496437E+01  0.10199747920E+01 0.  0.
     999903    2    3    3    0    0  0.32985096409E-02 -0.19468950480E-01  0.12810909474E+00  0.13105760426E+00  0.19345161652E-01 0.  0.
         14    1    1    2    0    0 -0.65138824847E-02 -0.21531270829E-01 -0.73981744224E-02  0.23680356275E-01  0.00000000000E+00 0.  1.
     999901    1    3    3    0    0  0.32153728438E-02  0.41000221308E-01 -0.12071092032E+00  0.88919203947E+00  0.88000000000E+00 0.  1.
        -11    1    4    4    0    0 -0.56509657244E-02 -0.16855346081E-01  0.71199364661E-01  0.73386965833E-01  0.51100000000E-03 0.  1.
         11    1    4    4    0    0  0.89494753653E-02 -0.26136043984E-02  0.56909730081E-01  0.57670638423E-01  0.51100000000E-03 0. -1.
</event>
<event>
 8    1  0.1143957E+005  0.1043930E+01  0.7957747E-01            NaN
         13   -1    0    0    0    0  0.00000000000E+00  0.00000000000E+00  0.74505805969E-08  0.10566000000E+00  0.10566000000E+00 0. -1.
     999900   -1    0    0    0    0 -0.00000000000E+00 -0.00000000000E+00 -0.74505805969E-08  0.93827000000E+00  0.93827000000E+00 0.  1.
     999902    2    1    2    0    0  0.57576976091E-02 -0.21660052695E-01 -0.77278854759E-02  0.10202228454E+01  0.10199473639E+01 0.  0.
     999903    2    3    3    0    0 -0.54585288396E-01  0.10862948338E+00 -0.33819797894E-01  0.12820410847E+00  0.22640590316E-01 0.  0.
         14    1    1    2    0    0 -0.57576976091E-02  0.21660052695E-01  0.77278854759E-02  0.23707154583E-01  0.00000000000E+00 0. -1.
     999901    1    3    3    0    0  0.60342986005E-01 -0.13028953608E+00  0.26091912418E-01  0.89201873695E+00  0.88000000000E+00 0.  1.
        -11    1    4    4    0    0 -0.45307555459E-01  0.66326332980E-01 -0.20725390283E-01  0.82956373785E-01  0.51100000000E-03 0. -1.
         11    1    4    4    0    0 -0.92777329369E-02  0.42303150402E-01 -0.13094407611E-01  0.45247734684E-01  0.51100000000E-03 0.  1.
</event>
<event>
 8    1  0.1143957E+005  0.1043930E+01  0.7957747E-01            NaN
         13   -1    0    0    0    0  0.00000000000E+00  0.00000000000E+00  0.74505805969E-08  0.10566000000E+00  0.10566000000E+00 0. -1.
     999900   -1    0    0    0    0 -0.00000000000E+00 -0.00000000000E+00 -0.74505805969E-08  0.93827000000E+00  0.93827000000E+00 0. -1.
     999902    2    1    2    0    0 -0.11238832033E-01  0.13861472983E-01  0.16100656583E-01  0.10198949647E+01  0.10196117183E+01 0.  0.
     999903    2    3    3    0    0  0.10802918159E+00 -0.62868943778E-01 -0.18417542200E-01  0.12787258721E+00  0.19732828801E-01 0.  0.
         14    1    1    2    0    0  0.11238832033E-01 -0.13861472983E-01 -0.16100656583E-01  0.24035035285E-01  0.00000000000E+00 0.  1.
     999901    1    3    3    0    0 -0.11926801362E+00  0.76730416761E-01  0.34518198783E-01  0.89202237751E+00  0.88000000000E+00 0.  1.
        -11    1    4    4    0    0  0.41507338738E-01 -0.35136309051E-01 -0.10197545525E-01  0.55332363392E-01  0.51100000000E-03 0.  1.
         11    1    4    4    0    0  0.66521842847E-01 -0.27732634727E-01 -0.82199966749E-02  0.72540223814E-01  0.51100000000E-03 0. -1.
</event>
<event>
 8    1  0.1143957E+005  0.1043930E+01  0.7957747E-01            NaN
         13   -1    0    0    0    0  0.00000000000E+00  0.00000000000E+00  0.74505805969E-08  0.10566000000E+00  0.10566000000E+00 0.  1.
     999900   -1    0    0    0    0 -0.00000000000E+00 -0.00000000000E+00 -0.74505805969E-08  0.93827000000E+00  0.93827000000E+00 0. -1.
     999902    2    1    2    0    0 -0.72594643491E-03  0.33948295487E-02  0.20638496079E-01  0.10230015651E+01  0.10227874671E+01 0.  0.
     999903    2    3    3    0    0 -0.12745116317E+00 -0.56596742782E-02  0.36082421333E-01  0.13374357139E+00  0.17594625665E-01 0.  0.
         14    1    1    2    0    0  0.72594643491E-03 -0.33948295487E-02 -0.20638496079E-01  0.20928434874E-01  0.00000000000E+00 0. -1.
     999901    1    3    3    0    0  0.12672521674E+00  0.90545038269E-02 -0.15443925254E-01  0.88925799374E+00  0.88000000000E+00 0.  1.
        -11    1    4    4    0    0 -0.10411013579E+00 -0.11424021370E-01  0.29461902796E-01  0.10880116486E+00  0.51100000000E-03 0. -1.
         11    1    4    4    0    0 -0.23341027386E-01  0.57643470917E-02  0.66205185369E-02  0.24942406530E-01  0.51100000000E-03 0.  1.
</event>
<event>
 8    1  0.1143957E+005  0.1043930E+01  0.7957747E-01            NaN
         13   -1    0    0    0    0  0.00000000000E+00  0.00000000000E+00  0.74505805969E-08  0.10566000000E+00  0.10566000000E+00 0.  1.
     999900   -1    0    0    0    0 -0.00000000000E+00 -0.00000000000E+00 -0.74505805969E-08  0.93827000000E+00  0.93827000000E+00 0.  1.
     999902    2    1    2    0    0  0.17800334512E-01 -0.70263919792E-02 -0.12922979810E-01  0.10208383240E+01  0.10205771202E+01 0.  0.
     999903    2    3    3    0    0  0.83972918436E-01  0.90500823439E-01 -0.43265373073E-01  0.13246282376E+00  0.20800410995E-01 0.  0.
         14    1    1    2    0    0 -0.17800334512E-01  0.70263919792E-02  0.12922979810E-01  0.23091675992E-01  0.00000000000E+00 0. -1.
     999901    1    3    3    0    0 -0.66172583924E-01 -0.97527215419E-01  0.30342393264E-01  0.88837550025E+00  0.88000000000E+00 0.  1.
        -11    1    4    4    0    0  0.56139486714E-01  0.73447952061E-01 -0.29579386464E-01  0.97064127540E-01  0.51100000000E-03 0. -1.
         11    1    4    4    0    0  0.27833431722E-01  0.17052871379E-01 -0.13685986610E-01  0.35398696221E-01  0.51100000000E-03 0.  1.
</event>
<event>
 8    1  0.1143957E+005  0.1043930E+01  0.7957747E-01            NaN
         13   -1    0    0    0    0  0.00000000000E+00  0.00000000000E+00  0.74505805969E-08  0.10566000000E+00  0.10566000000E+00 0.  1.
     999900   -1    0    0    0    0 -0.00000000000E+00 -0.00000000000E+00 -0.74505805969E-08  0.93827000000E+00  0.93827000000E+00 0. -1.
     999902    2    1    2    0    0  0.90635448614E-02 -0.15511295424E-01 -0.15203881192E-01  0.10203947895E+01  0.10201233358E+01 0.  0.
     999903    2    3    3    0    0 -0.62590374914E-01 -0.10811168614E+00  0.34849479454E-01  0.13122975671E+00  0.20026760019E-01 0.  0.
         14    1    1    2    0    0 -0.90635448614E-02  0.15511295424E-01  0.15203881192E-01  0.23535210526E-01  0.00000000000E+00 0.  1.
     999901    1    3    3    0    0  0.71653919775E-01  0.92600390712E-01 -0.50053360645E-01  0.88916503276E+00  0.88000000000E+00 0.  1.
        -11    1    4    4    0    0 -0.68332748286E-02 -0.28331653040E-01  0.67367873389E-02  0.29916912165E-01  0.51100000000E-03 0. -1.
         11    1    4    4    0    0 -0.55757100085E-01 -0.79780033097E-01  0.28112692115E-01  0.10131284454E+00  0.51100000000E-03 0.  1.
</event>
<event>
 8    1  0.1143957E+005  0.1043930E+01  0.7957747E-01            NaN
         13   -1    0    0    0    0  0.00000000000E+00  0.00000000000E+00  0.74505805969E-08  0.10566000000E+00  0.10566000000E+00 0. -1.
     999900   -1    0    0    0    0 -0.00000000000E+00 -0.00000000000E+00 -0.74505805969E-08  0.93827000000E+00  0.93827000000E+00 0. -1.
     999902    2    1    2    0    0 -0.18894919425E-01 -0.23504206041E-02 -0.12134594643E-01  0.10213514517E+01  0.10211018544E+01 0.  0.
     999903    2    3    3    0    0  0.49068343100E-01  0.11680164123E+00  0.21806717324E-01  0.13007807524E+00  0.19860691080E-01 0.  0.
         14    1    1    2    0    0  0.18894919425E-01  0.23504206041E-02  0.12134594643E-01  0.22578548320E-01  0.00000000000E+00 0. -1.
     999901    1    3    3    0    0 -0.67963262525E-01 -0.11915206183E+00 -0.33941311967E-01  0.89127337644E+00  0.88000000000E+00 0. -1.
        -11    1    4    4    0    0  0.14282845381E-01  0.42671270283E-01  0.16809169416E-01  0.48037967038E-01  0.51100000000E-03 0. -1.
         11    1    4    4    0    0  0.34785497719E-01  0.74130370944E-01  0.49975479082E-02  0.82040108203E-01  0.51100000000E-03 0.  1.
</event>
<event>
 8    1  0.1143957E+005  0.1043930E+01  0.7957747E-01            NaN
         13   -1    0    0    0    0  0.00000000000E+00  0.00000000000E+00  0.74505805969E-08  0.10566000000E+00  0.10566000000E+00 0.  1.
     999900   -1    0    0    0    0 -0.00000000000E+00 -0.00000000000E+00 -0.74505805969E-08  0.93827000000E+00  0.93827000000E+00 0.  1.
     999902    2    1    2    0    0 -0.17082835399E-02 -0.21152411733E-01  0.83763024454E-02  0.10211154170E+01  0.10208605143E+01 0.  0.
     999903    2    3    3    0    0  0.30164876926E-01 -0.12879024546E+00  0.88880462956E-02  0.13398404934E+00  0.19387650345E-01 0.  0.
         14    1    1    2    0    0  0.17082835399E-02  0.21152411733E-01 -0.83763024454E-02  0.22814583000E-01  0.00000000000E+00 0. -1.
     999901    1    3    3    0    0 -0.31873160466E-01  0.10763783372E+00 -0.51174385023E-03  0.88713136766E+00  0.88000000000E+00 0. -1.
        -11    1    4    4    0    0  0.34822168447E-03 -0.50233955279E-02 -0.33790349352E-02  0.60856190371E-02  0.51100000000E-03 0. -1.
         11    1    4    4    0    0  0.29816655242E-01 -0.12376684993E+00  0.12267081231E-01  0.12789843030E+00  0.51100000000E-03 0.  1.
</event>
<event>
 8    1  0.1143957E+005  0.1043930E+01  0.7957747E-01            NaN
         13   -1    0    0    0    0  0.00000000000E+00  0.00000000000E+00  0.74505805969E-08  0.10566000000E+00  0.10566000000E+00 0. -1.
     999900   -1    0    0    0    0 -0.00000000000E+00 -0.00000000000E+00 -0.74505805969E-08  0.93827000000E+00  0.93827000000E+00 0.  1.
     999902    2    1    2    0    0 -0.10154667417E-01  0.20135788245E-01 -0.71295206442E-02  0.10202784186E+01  0.10200042422E+01 0.  0.
     999903    2    3    3    0    0  0.56507925204E-01  0.11603168070E+00  0.19681023443E-01  0.13215752101E+00  0.20537067407E-01 0.  0.
         14    1    1    2    0    0  0.10154667417E-01 -0.20135788245E-01  0.71295206442E-02  0.23651581411E-01  0.00000000000E+00 0.  1.
     999901    1    3    3    0    0 -0.66662592620E-01 -0.95895892458E-01 -0.26810544088E-01  0.88812089758E+00  0.88000000000E+00 0.  1.
        -11    1    4    4    0    0  0.41733260104E-01  0.72823606925E-01  0.20808021530E-01  0.86476456944E-01  0.51100000000E-03 0.  1.
         11    1    4    4    0    0  0.14774665100E-01  0.43208073778E-01 -0.11269980868E-02  0.45681064065E-01  0.51100000000E-03 0. -1.
</event>
<event>
 8    1  0.1143957E+005  0.1043930E+01  0.7957747E-01            NaN
         13   -1    0    0    0    0  0.00000000000E+00  0.00000000000E+00  0.74505805969E-08  0.10566000000E+00  0.10566000000E+00 0.  1.
     999900   -1    0    0    0    0 -0.00000000000E+00 -0.00000000000E+00 -0.74505805969E-08  0.93827000000E+00  0.93827000000E+00 0. -1.
     999902    2    1    2    0    0 -0.77556324972E-02  0.10843828758E-01  0.19882460607E-01  0.10199915227E+01  0.10197105744E+01 0.  0.
     999903    2    3    3    0    0  0.12347603198E+00 -0.25564049861E-01 -0.17075722257E-01  0.12874902442E+00  0.19618355670E-01 0.  0.
         14    1    1    2    0    0  0.77556324972E-02 -0.10843828758E-01 -0.19882460607E-01  0.23938477340E-01  0.00000000000E+00 0. -1.
     999901    1    3    3    0    0 -0.13123166448E+00  0.36407878619E-01  0.36958182863E-01  0.89124249824E+00  0.88000000000E+00 0. -1.
        -11    1    4    4    0    0  0.59191046660E-01 -0.69500089214E-02 -0.16411517010E-01  0.61818133588E-01  0.51100000000E-03 0.  1.
         11    1    4    4    0    0  0.64284985323E-01 -0.18614040939E-01 -0.66420524611E-03  0.66930890833E-01  0.51100000000E-03 0. -1.
</event>
<event>
 8    1  0.1143957E+005  0.1043930E+01  0.7957747E-01            NaN
         13   -1    0    0    0    0  0.00000000000E+00  0.00000000000E+00  0.74505805969E-08  0.10566000000E+00  0.10566000000E+00 0. -1.
     999900   -1    0    0    0    0 -0.00000000000E+00 -0.00000000000E+00 -0.74505805969E-08  0.93827000000E+00  0.93827000000E+00 0. -1.
     999902    2    1    2    0    0  0.80856440446E-02 -0.53307186737E-02  0.21445610650E-01  0.10203989903E+01  0.10201276347E+01 0.  0.
     999903    2    3    3    0    0  0.23922357147E-01 -0.49902914878E-01 -0.11445482395E+00  0.12871159537E+00  0.20104426719E-01 0.  0.
         14    1    1    2    0    0 -0.80856440446E-02  0.53307186737E-02 -0.21445610650E-01  0.23531009697E-01  0.00000000000E+00 0.  1.
     999901    1    3    3    0    0 -0.15836713102E-01  0.44572196204E-01  0.13590043460E+00  0.89168739493E+00  0.88000000000E+00 0.  1.
        -11    1    4    4    0    0  0.18999410628E-01 -0.20310216501E-01 -0.42995451508E-01  0.51208910063E-01  0.51100000000E-03 0. -1.
         11    1    4    4    0    0  0.49229465190E-02 -0.29592698377E-01 -0.71459372439E-01  0.77502685309E-01  0.51100000000E-03 0.  1.
</event>
<event>
 8    1  0.1143957E+005  0.1043930E+01  0.7957747E-01            NaN
         13   -1    0    0    0    0  0.00000000000E+00  0.00000000000E+00  0.74505805969E-08  0.10566000000E+00  0.10566000000E+00 0. -1.
     999900   -1    0    0    0    0 -0.00000000000E+00 -0.00000000000E+00 -0.74505805969E-08  0.93827000000E+00  0.93827000000E+00 0.  1.
     999902    2    1    2    0    0 -0.82504849083E-02 -0.18551496745E-01 -0.11840249593E-01  0.10204263823E+01  0.10201556654E+01 0.  0.
     999903    2    3    3    0    0 -0.33949413864E-01 -0.51100764720E-01  0.11361551673E+00  0.13056176393E+00  0.19340054365E-01 0.  0.
         14    1    1    2    0    0  0.82504849083E-02  0.18551496745E-01  0.11840249593E-01  0.23503617661E-01  0.00000000000E+00 0. -1.
     999901    1    3    3    0    0  0.25698928956E-01  0.32549267975E-01 -0.12545576632E+00  0.88986461841E+00  0.88000000000E+00 0.  1.
        -11    1    4    4    0    0 -0.26043973376E-01 -0.21954239487E-01  0.57501899200E-01  0.66835669468E-01  0.51100000000E-03 0. -1.
         11    1    4    4    0    0 -0.79054404888E-02 -0.29146525233E-01  0.56113617526E-01  0.63726094462E-01  0.51100000000E-03 0.  1.
</event>
<event>
 8    1  0.1143957E+005  0.1043930E+01  0.7957747E-01            NaN
         13   -1    0    0    0    0  0.00000000000E+00  0.00000000000E+00  0.74505805969E-08  0.10566000000E+00  0.10566000000E+00 0. -1.
     999900   -1    0    0    0    0 -0.00000000000E+00 -0.00000000000E+00 -0.74505805969E-08  0.93827000000E+00  0.93827000000E+00 0. -1.
     999902    2    1    2    0    0 -0.21729375094E-01  0.99654547164E-02  0.38404521040E-02  0.10197179141E+01  0.10194304289E+01 0.  0.
     999903    2    3    3    0    0 -0.84091218132E-01 -0.97454915534E-01 -0.69634133885E-02  0.13092949222E+00  0.22918317540E-01 0.  0.
         14    1    1    2    0    0  0.21729375094E-01 -0.99654547164E-02 -0.38404521040E-02  0.24212085867E-01  0.00000000000E+00 0. -1.
     999901    1    3    3    0    0  0.62361843038E-01  0.10742037025E+00  0.10803865493E-01  0.88878842191E+00  0.88000000000E+00 0.  1.
        -11    1    4    4    0    0 -0.71204920144E-01 -0.81010946962E-01 -0.14257004005E-01  0.10879539266E+00  0.51100000000E-03 0. -1.
         11    1    4    4    0    0 -0.12886297989E-01 -0.16443968572E-01  0.72935906168E-02  0.22134099560E-01  0.51100000000E-03 0.  1.
</event>
<event>
 8    1  0.1143957E+005  0.1043930E+01  0.7957747E-01            NaN
         13   -1    0    0    0    0  0.00000000000E+00  0.00000000000E+00  0.74505805969E-08  0.10566000000E+00  0.10566000000E+00 0.  1.
     999900   -1    0    0    0    0 -0.00000000000E+00 -0.00000000000E+00 -0.74505805969E-08  0.93827000000E+00  0.93827000000E+00 0.  1.
     999902    2    1    2    0    0 -0.90822122996E-02 -0.52093019467E-02  0.21519391631E-01  0.10199986895E+01  0.10197179114E+01 0.  0.
     999903    2    3    3    0    0  0.53311971416E-01 -0.10475243585E+00 -0.49998982671E-01  0.12931538576E+00  0.20182458008E-01 0.  0.
         14    1    1    2    0    0  0.90822122996E-02  0.52093019467E-02 -0.21519391631E-01  0.23931310520E-01  0.00000000000E+00 0. -1.
     999901    1    3    3    0    0 -0.62394183716E-01  0.99543133908E-01  0.71518374302E-01  0.89068330372E+00  0.88000000000E+00 0. -1.
        -11    1    4    4    0    0  0.50048301462E-01 -0.86826068926E-01 -0.47536868856E-01  0.11092165589E+00  0.51100000000E-03 0.  1.
         11    1    4    4    0    0  0.32636699542E-02 -0.17926366929E-01 -0.24621138153E-02  0.18393729863E-01  0.51100000000E-03 0. -1.
</event>
<event>
 8    1  0.1143957E+005  0.1043930E+01  0.7957747E-01            NaN
         13   -1    0    0    0    0  0.00000000000E+00  0.00000000000E+00  0.74505805969E-08  0.10566000000E+00  0.10566000000E+00 0. -1.
     999900   -1    0    0    0    0 -0.00000000000E+00 -0.00000000000E+00 -0.74505805969E-08  0.93827000000E+00  0.93827000000E+00 0.  1.
     999902    2    1    2    0    0 -0.36513041156E-02  0.14001212941E-01  0.18684655461E-01  0.10202977691E+01  0.10200240465E+01 0.  0.
     999903    2    3    3    0    0  0.48674305184E-01 -0.99556622721E-01 -0.60928705004E-01  0.12790119889E+00  0.19123296583E-01 0.  0.
         14    1    1    2    0    0  0.36513041156E-02 -0.14001212941E-01 -0.18684655461E-01  0.23632230857E-01  0.00000000000E+00 0. -1.
     999901    1    3    3    0    0 -0.52325609300E-01  0.11355783566E+00  0.79613360466E-01  0.89239657025E+00  0.88000000000E+00 0. -1.
        -11    1    4    4    0    0  0.37872278622E-01 -0.59740480866E-01 -0.44006904628E-01  0.83307282503E-01  0.51100000000E-03 0. -1.
         11    1    4    4    0    0  0.10802026562E-01 -0.39816141855E-01 -0.16921800377E-01  0.44593916391E-01  0.51100000000E-03 0.  1.
</event>
<event>
 8    1  0.1143957E+005  0.1043930E+01  0.7957747E-01            NaN
         13   -1    0    0    0    0  0.00000000000E+00  0.00000000000E+00  0.74505805969E-08  0.10566000000E+00  0.10566000000E+00 0. -1.
     999900   -1    0    0    0    0 -0.00000000000E+00 -0.00000000000E+00 -0.74505805969E-08  0.93827000000E+00  0.93827000000E+00 0. -1.
     999902    2    1    2    0    0  0.20015613573E-01  0.12505908000E-02  0.13235070627E-01  0.10199017695E+01  0.10196186854E+01 0.  0.
     999903    2    3    3    0    0  0.11503337578E+00  0.31206398732E-02 -0.60823294593E-01  0.13169204562E+00  0.20022631641E-01 0.  0.
         14    1    1    2    0    0 -0.20015613573E-01 -0.12505908000E-02 -0.13235070627E-01  0.24028230450E-01  0.00000000000E+00 0.  1.
     999901    1    3    3    0    0 -0.95017762211E-01 -0.18700490732E-02  0.74058365220E-01  0.88820972393E+00  0.88000000000E+00 0.  1.
        -11    1    4    4    0    0  0.77808182914E-01  0.28495433188E-02 -0.30302070557E-01  0.83550642287E-01  0.51100000000E-03 0.  1.
         11    1    4    4    0    0  0.37225192870E-01  0.27109655447E-03 -0.30521224036E-01  0.48141403336E-01  0.51100000000E-03 0. -1.
</event>
<event>
 8    1  0.1143957E+005  0.1043930E+01  0.7957747E-01            NaN
         13   -1    0    0    0    0  0.00000000000E+00  0.00000000000E+00  0.74505805969E-08  0.10566000000E+00  0.10566000000E+00 0.  1.
     999900   -1    0    0    0    0 -0.00000000000E+00 -0.00000000000E+00 -0.74505805969E-08  0.93827000000E+00  0.93827000000E+00 0.  1.
     999902    2    1    2    0    0 -0.17897977676E-01  0.11703645284E-01  0.10285033378E-01  0.10202003808E+01  0.10199243708E+01 0.  0.
     999903    2    3    3    0    0 -0.81176401029E-01  0.61789443457E-02  0.10334059718E+00  0.13301718708E+00  0.19659745576E-01 0.  0.
         14    1    1    2    0    0  0.17897977676E-01 -0.11703645284E-01 -0.10285033378E-01  0.23729619243E-01  0.00000000000E+00 0.  1.
     999901    1    3    3    0    0  0.63278423353E-01  0.55247009383E-02 -0.93055563805E-01  0.88718319367E+00  0.88000000000E+00 0.  1.
        -11    1    4    4    0    0 -0.59354989489E-01  0.11848727237E-01  0.67421268807E-01  0.90605163887E-01  0.51100000000E-03 0. -1.
         11    1    4    4    0    0 -0.21821411539E-01 -0.56697828909E-02  0.35919328376E-01  0.42412023196E-01  0.51100000000E-03 0.  1.
</event>
<event>
 8    1  0.1143957E+005  0.1043930E+01  0.7957747E-01            NaN
         13   -1    0    0    0    0  0.00000000000E+00  0.00000000000E+00  0.74505805969E-08  0.10566000000E+00  0.10566000000E+00 0.  1.
     999900   -1    0    0    0    0 -0.00000000000E+00 -0.00000000000E+00 -0.74505805969E-08  0.93827000000E+00  0.93827000000E+00 0.  1.
     999902    2    1    2    0    0  0.95287944940E-02 -0.12057406826E-01 -0.15047654237E-01  0.10224216090E+01  0.10221953511E+01 0.  0.
     999903    2    3    3    0    0  0.59227235736E-01  0.10774197913E+00  0.40993511644E-01  0.13115148151E+00  0.20100835467E-01 0.  0.
         14    1    1    2    0    0 -0.95287944940E-02  0.12057406826E-01  0.15047654237E-01  0.21508390965E-01  0.00000000000E+00 0.  1.
     999901    1    3    3    0    0 -0.49698441242E-01 -0.11979938596E+00 -0.56041165882E-01  0.89127012752E+00  0.88000000000E+00 0.  1.
        -11    1    4    4    0    0  0.46055642530E-01  0.77461247634E-01  0.38602451861E-01  0.98039673116E-01  0.51100000000E-03 0.  1.
         11    1    4    4    0    0  0.13171593205E-01  0.30280731496E-01  0.23910597835E-02  0.33111808398E-01  0.51100000000E-03 0. -1.
</event>
<event>
 8    1  0.1143957E+005  0.1043930E+01  0.7957747E-01            NaN
         13   -1    0    0    0    0  0.00000000000E+00  0.00000000000E+00  0.74505805969E-08  0.10566000000E+00  0.10566000000E+00 0.  1.
     999900   -1    0    0    0    0 -0.00000000000E+00 -0.00000000000E+00 -0.74505805969E-08  0.93827000000E+00  0.93827000000E+00 0. -1.
     999902    2    1    2    0    0  0.60648397111E-02  0.19985479114E-01 -0.96257763031E-02  0.10209331040E+01  0.10206740643E+01 0.  0.
     999903    2    3    3    0    0 -0.76195842912E-01  0.10024624584E+00 -0.38008981855E-01  0.13300618306E+00  0.19769819104E-01 0.  0.
         14    1    1    2    0    0 -0.60648397111E-02 -0.19985479114E-01  0.96257763031E-02  0.22996895999E-01  0.00000000000E+00 0.  1.
     999901    1    3    3    0    0  0.82260682623E-01 -0.80260766727E-01  0.28383205552E-01  0.88792692094E+00  0.88000000000E+00 0.  1.
        -11    1    4    4    0    0 -0.27429600149E-01  0.34589470407E-01 -0.23254378181E-01  0.49898313127E-01  0.51100000000E-03 0. -1.
         11    1    4    4    0    0 -0.48766242763E-01  0.65656775434E-01 -0.14754603674E-01  0.83107869929E-01  0.51100000000E-03 0.  1.
</event>
<event>
 7    1  0.1561269E+005  0.1043930E+01  0.7957747E-01            NaN
         13   -1    0    0    0    0  0.00000000000E+00  0.00000000000E+00  0.74505805969E-08  0.10566000000E+00  0.10566000000E+00 0. -1.
     999900   -1    0    0    0    0 -0.00000000000E+00 -0.00000000000E+00 -0.74505805969E-08  0.93827000000E+00  0.93827000000E+00 0.  1.
     999903    2    1    2    0    0 -0.30348370262E-01 -0.44684855903E-01 -0.78373634370E-01  0.97264801607E-01  0.20006377552E-01 0.  0.
         14    1    1    2    0    0  0.54133432849E-01  0.30770221286E-01 -0.39553726042E-02  0.62392948660E-01  0.00000000000E+00 0.  1.
     999901    1    1    2    0    0 -0.23785062587E-01  0.13914634617E-01  0.82329006974E-01  0.88427224973E+00  0.88000000000E+00 0. -1.
        -11    1    3    3    0    0 -0.15960212720E-01 -0.89473447784E-02 -0.33029918441E-01  0.37762680014E-01  0.51100000000E-03 0. -1.
         11    1    3    3    0    0 -0.14388157542E-01 -0.35737511124E-01 -0.45343715929E-01  0.59502121593E-01  0.51100000000E-03 0.  1.
</event>
<event>
 8    1  0.1143957E+005  0.1043930E+01  0.7957747E-01            NaN
         13   -1    0    0    0    0  0.00000000000E+00  0.00000000000E+00  0.74505805969E-08  0.10566000000E+00  0.10566000000E+00 0.  1.
     999900   -1    0    0    0    0 -0.00000000000E+00 -0.00000000000E+00 -0.74505805969E-08  0.93827000000E+00  0.93827000000E+00 0.  1.
     999902    2    1    2    0    0  0.19935481048E-01 -0.30878798147E-03 -0.11677046570E-01  0.10208243260E+01  0.10205628018E+01 0.  0.
     999903    2    3    3    0    0  0.95608490001E-01  0.63925996035E-02  0.87425638940E-01  0.13200901607E+00  0.24521200830E-01 0.  0.
         14    1    1    2    0    0 -0.19935481048E-01  0.30878798147E-03  0.11677046570E-01  0.23105674005E-01  0.00000000000E+00 0. -1.
     999901    1    3    3    0    0 -0.75673008953E-01 -0.67013875850E-02 -0.99102685510E-01  0.88881530992E+00  0.88000000000E+00 0.  1.
        -11    1    4    4    0    0  0.50247856429E-01  0.15038047923E-01  0.41547312638E-01  0.66913603023E-01  0.51100000000E-03 0.  1.
         11    1    4    4    0    0  0.45360633572E-01 -0.86454483200E-02  0.45878326302E-01  0.65095413048E-01  0.51100000000E-03 0. -1.
</event>
<event>
 8    1  0.1143957E+005  0.1043930E+01  0.7957747E-01            NaN
         13   -1    0    0    0    0  0.00000000000E+00  0.00000000000E+00  0.74505805969E-08  0.10566000000E+00  0.10566000000E+00 0.  1.
     999900   -1    0    0    0    0 -0.00000000000E+00 -0.00000000000E+00 -0.74505805969E-08  0.93827000000E+00  0.93827000000E+00 0.  1.
     999902    2    1    2    0    0  0.11953804989E-01  0.38430533657E-02 -0.19403175766E-01  0.10208184067E+01  0.10205567470E+01 0.  0.
     999903    2    3    3    0    0  0.65289608582E-01 -0.79620753978E-01 -0.81801976585E-01  0.13306589313E+00  0.20316768684E-01 0.  0.
         14    1    1    2    0    0 -0.11953804989E-01 -0.38430533657E-02  0.19403175766E-01  0.23111593253E-01  0.00000000000E+00 0.  1.
     999901    1    3    3    0    0 -0.53335803593E-01  0.83463807344E-01  0.62398800819E-01  0.88775251361E+00  0.88000000000E+00 0. -1.
        -11    1    4    4    0    0  0.26144887146E-01 -0.32909771522E-01 -0.21043929839E-01  0.47007619484E-01  0.51100000000E-03 0. -1.
         11    1    4    4    0    0  0.39144721435E-01 -0.46710982456E-01 -0.60758046747E-01  0.86058273651E-01  0.51100000000E-03 0.  1.
</event>
<event>
 8    1  0.1143957E+005  0.1043930E+01  0.7957747E-01            NaN
         13   -1    0    0    0    0  0.00000000000E+00  0.00000000000E+00  0.74505805969E-08  0.10566000000E+00  0.10566000000E+00 0.  1.
     999900   -1    0    0    0    0 -0.00000000000E+00 -0.00000000000E+00 -0.74505805969E-08  0.93827000000E+00  0.93827000000E+00 0.  1.
     999902    2    1    2    0    0  0.21741696195E-01  0.10968181328E-01 -0.15133140665E-02  0.10195313838E+01  0.10192393978E+01 0.  0.
     999903    2    3    3    0    0  0.10240111801E+00 -0.63250489231E-01  0.48003084615E-01  0.13134996810E+00  0.21491966594E-01 0.  0.
         14    1    1    2    0    0 -0.21741696195E-01 -0.10968181328E-01  0.15133140665E-02  0.24398616243E-01  0.00000000000E+00 0. -1.
     999901    1    3    3    0    0 -0.80659421818E-01  0.74218670559E-01 -0.49516398681E-01  0.88818141566E+00  0.88000000000E+00 0.  1.
        -11    1    4    4    0    0  0.63352728582E-01 -0.28626386294E-01  0.21220397176E-01  0.72688407524E-01  0.51100000000E-03 0.  1.
         11    1    4    4    0    0  0.39048389431E-01 -0.34624102937E-01  0.26782687439E-01  0.58661560572E-01  0.51100000000E-03 0. -1.
</event>
<event>
 8    1  0.1143957E+005  0.1043930E+01  0.7957747E-01            NaN
         13   -1    0    0    0    0  0.00000000000E+00  0.00000000000E+00  0.74505805969E-08  0.10566000000E+00  0.10566000000E+00 0.  1.
     999900   -1    0    0    0    0 -0.00000000000E+00 -0.00000000000E+00 -0.74505805969E-08  0.93827000000E+00  0.93827000000E+00 0.  1.
     999902    2    1    2    0    0  0.91137414175E-02 -0.17151615767E-01 -0.10580073164E-01  0.10218126730E+01  0.10215732781E+01 0.  0.
     999903    2    3    3    0    0 -0.77756166293E-01 -0.10372499621E-01  0.10202618836E+00  0.13036861562E+00  0.20809197073E-01 0.  0.
         14    1    1    2    0    0 -0.91137414175E-02  0.17151615767E-01  0.10580073164E-01  0.22117327013E-01  0.00000000000E+00 0.  1.
     999901    1    3    3    0    0  0.86869907710E-01 -0.67791161467E-02 -0.11260626152E+00  0.89144405737E+00  0.88000000000E+00 0.  1.
        -11    1    4    4    0    0 -0.22740994576E-01 -0.12076583779E-01  0.38406384442E-01  0.46241844654E-01  0.51100000000E-03 0.  1.
         11    1    4    4    0    0 -0.55015171717E-01  0.17040841585E-02  0.63619803915E-01  0.84126770966E-01  0.51100000000E-03 0. -1.
</event>
<event>
 8    1  0.1143957E+005  0.1043930E+01  0.7957747E-01            NaN
         13   -1    0    0    0    0  0.00000000000E+00  0.00000000000E+00  0.74505805969E-08  0.10566000000E+00  0.10566000000E+00 0.  1.
     999900   -1    0    0    0    0 -0.00000000000E+00 -0.00000000000E+00 -0.74505805969E-08  0.93827000000E+00  0.93827000000E+00 0. -1.
     999902    2    1    2    0    0 -0.18998852595E-01 -0.44483629600E-03  0.13505048720E-01  0.10206160424E+01  0.10203497270E+01 0.  0.
     999903    2    3    3    0    0 -0.43659415325E-01 -0.65615759410E-01 -0.10164114198E+00  0.13038346725E+00  0.21385844887E-01 0.  0.
         14    1    1    2    0    0  0.18998852595E-01  0.44483629600E-03 -0.13505048720E-01  0.23313957626E-01  0.00000000000E+00 0. -1.
     999901    1    3    3    0    0  0.24660562730E-01  0.65170923114E-01  0.11514619070E+00  0.89023257512E+00  0.88000000000E+00 0.  1.
        -11    1    4    4    0    0 -0.13701968250E-01 -0.12479245545E-01 -0.37693776791E-01  0.42006635583E-01  0.51100000000E-03 0. -1.
         11    1    4    4    0    0 -0.29957447075E-01 -0.53136513865E-01 -0.63947365185E-01  0.88376831671E-01  0.51100000000E-03 0.  1.
</event>
<event>
 8    1  0.1143957E+005  0.1043930E+01  0.7957747E-01            NaN
         13   -1    0    0    0    0  0.00000000000E+00  0.00000000000E+00  0.74505805969E-08  0.10566000000E+00  0.10566000000E+00 0. -1.
     999900   -1    0    0    0    0 -0.00000000000E+00 -0.00000000000E+00 -0.74505805969E-08  0.93827000000E+00  0.93827000000E+00 0. -1.
     999902    2    1    2    0    0 -0.12690069965E-01  0.18660151471E-01 -0.47855121503E-02  0.10208618346E+01  0.10206011685E+01 0.  0.
     999903    2    3    3    0    0  0.10959662278E+00  0.43330369633E-01  0.51762978111E-01  0.13026631100E+00  0.20024116018E-01 0.  0.
         14    1    1    2    0    0  0.12690069965E-01 -0.18660151471E-01  0.47855121503E-02  0.23068165406E-01  0.00000000000E+00 0. -1.
     999901    1    3    3    0    0 -0.12228669275E+00 -0.24670218162E-01 -0.56548490262E-01  0.89059552359E+00  0.88000000000E+00 0.  1.
        -11    1    4    4    0    0  0.73150985706E-01  0.32289386501E-01  0.25221535469E-01  0.83845442112E-01  0.51100000000E-03 0. -1.
         11    1    4    4    0    0  0.36445637074E-01  0.11040983132E-01  0.26541442642E-01  0.46420868893E-01  0.51100000000E-03 0.  1.
</event>
<event>
 8    1  0.1143957E+005  0.1043930E+01  0.7957747E-01            NaN
         13   -1    0    0    0    0  0.00000000000E+00  0.00000000000E+00  0.74505805969E-08  0.10566000000E+00  0.10566000000E+00 0. -1.
     999900   -1    0    0    0    0 -0.00000000000E+00 -0.00000000000E+00 -0.74505805969E-08  0.93827000000E+00  0.93827000000E+00 0.  1.
     999902    2    1    2    0    0 -0.26445297559E-01 -0.38773683236E-03  0.23727404218E-02  0.10173756407E+01  0.10170290361E+01 0.  0.
     999903    2    3    3    0    0 -0.94952600613E-01 -0.58820142067E-01  0.63328038132E-01  0.13068339141E+00  0.24329054689E-01 0.  0.
         14    1    1    2    0    0  0.26445297559E-01  0.38773683236E-03 -0.23727404218E-02  0.26554359339E-01  0.00000000000E+00 0.  1.
     999901    1    3    3    0    0  0.68507303055E-01  0.58432405234E-01 -0.60955297711E-01  0.88669224925E+00  0.88000000000E+00 0.  1.
        -11    1    4    4    0    0 -0.80677244222E-01 -0.45040234306E-01  0.60955133115E-01  0.11069430796E+00  0.51100000000E-03 0.  1.
         11    1    4    4    0    0 -0.14275356392E-01 -0.13779907761E-01  0.23729050179E-02  0.19989083451E-01  0.51100000000E-03 0. -1.
</event>
<event>
 8    1  0.1143957E+005  0.1043930E+01  0.7957747E-01            NaN
         13   -1    0    0    0    0  0.00000000000E+00  0.00000000000E+00  0.74505805969E-08  0.10566000000E+00  0.10566000000E+00 0.  1.
     999900   -1    0    0    0    0 -0.00000000000E+00 -0.00000000000E+00 -0.74505805969E-08  0.93827000000E+00  0.93827000000E+00 0.  1.
     999902    2    1    2    0    0 -0.15956742259E-01  0.75451513587E-02 -0.16078778333E-01  0.10200537766E+01  0.10197743050E+01 0.  0.
     999903    2    3    3    0    0  0.98233108847E-01  0.52980299551E-01  0.59972417038E-01  0.12826486707E+00  0.19963203787E-01 0.  0.
         14    1    1    2    0    0  0.15956742259E-01 -0.75451513587E-02  0.16078778333E-01  0.23876223429E-01  0.00000000000E+00 0.  1.
     999901    1    3    3    0    0 -0.11418985111E+00 -0.45435148192E-01 -0.76051195371E-01  0.89178890950E+00  0.88000000000E+00 0.  1.
        -11    1    4    4    0    0  0.41149011646E-01  0.17681308753E-01  0.14057015330E-01  0.46943909506E-01  0.51100000000E-03 0.  1.
         11    1    4    4    0    0  0.57084097201E-01  0.35298990797E-01  0.45915401708E-01  0.81320957567E-01  0.51100000000E-03 0. -1.
</event>
<event>
 8    1  0.1143957E+005  0.1043930E+01  0.7957747E-01            NaN
         13   -1    0    0    0    0  0.00000000000E+00  0.00000000000E+00  0.74505805969E-08  0.10566000000E+00  0.10566000000E+00 0.  1.
     999900   -1    0    0    0    0 -0.00000000000E+00 -0.00000000000E+00 -0.74505805969E-08  0.93827000000E+00  0.93827000000E+00 0.  1.
     999902    2    1    2    0    0 -0.97300282457E-02  0.88518017480E-02 -0.19838107484E-01  0.10201270936E+01  0.10198493559E+01 0.  0.
     999903    2    3    3    0    0 -0.15299147353E-01 -0.17271832943E-01 -0.12954989761E+00  0.13291227393E+00  0.18711399384E-01 0.  0.
         14    1    1    2    0    0  0.97300282457E-02 -0.88518017480E-02  0.19838107484E-01  0.23802906385E-01  0.00000000000E+00 0.  1.
     999901    1    3    3    0    0  0.55691191078E-02  0.26123634691E-01  0.10971179013E+00  0.88721481969E+00  0.88000000000E+00 0. -1.
        -11    1    4    4    0    0 -0.55179516788E-02  0.36286380430E-02 -0.29409006472E-01  0.30145739126E-01  0.51100000000E-03 0. -1.
         11    1    4    4    0    0 -0.97811956747E-02 -0.20900470986E-01 -0.10014089114E+00  0.10276653480E+00  0.51100000000E-03 0.  1.
</event>
<event>
 8    1  0.1143957E+005  0.1043930E+01  0.7957747E-01            NaN
         13   -1    0    0    0    0  0.00000000000E+00  0.00000000000E+00  0.74505805969E-08  0.10566000000E+00  0.10566000000E+00 0. -1.
     999900   -1    0    0    0    0 -0.00000000000E+00 -0.00000000000E+00 -0.74505805969E-08  0.93827000000E+00  0.93827000000E+00 0. -1.
     999902    2    1    2    0    0  0.16062133228E-01 -0.68382141563E-02 -0.17851250789E-01  0.10189616110E+01  0.10186556553E+01 0.  0.
     999903    2    3    3    0    0 -0.11099512477E+00 -0.46899254826E-01  0.35939450764E-01  0.12731040484E+00  0.19920773964E-01 0.  0.
         14    1    1    2    0    0 -0.16062133228E-01  0.68382141563E-02  0.17851250789E-01  0.24968389043E-01  0.00000000000E+00 0. -1.
     999901    1    3    3    0    0  0.12705725799E+00  0.40061040670E-01 -0.53790701553E-01  0.89165120611E+00  0.88000000000E+00 0. -1.
        -11    1    4    4    0    0 -0.46056851531E-01 -0.23719789792E-01  0.24891301120E-01  0.57477821750E-01  0.51100000000E-03 0.  1.
         11    1    4    4    0    0 -0.64938273235E-01 -0.23179465034E-01  0.11048149644E-01  0.69832583094E-01  0.51100000000E-03 0. -1.
</event>
<event>
 8    1  0.1143957E+005  0.1043930E+01  0.7957747E-01            NaN
         13   -1    0    0    0    0  0.00000000000E+00  0.00000000000E+00  0.74505805969E-08  0.10566000000E+00  0.10566000000E+00 0. -1.
     999900   -1    0    0    0    0 -0.00000000000E+00 -0.00000000000E+00 -0.74505805969E-08  0.93827000000E+00  0.93827000000E+00 0.  1.
     999902    2    1    2    0    0  0.17090258922E-03 -0.13480524310E-01  0.19457223495E-01  0.10202585554E+01  0.10199839129E+01 0.  0.
     999903    2    3    3    0    0  0.45425209174E-02  0.12342727096E+00 -0.29193701249E-01  0.12833380076E+00  0.19035926893E-01 0.  0.
         14    1    1    2    0    0 -0.17090258922E-03  0.13480524310E-01 -0.19457223495E-01  0.23671444601E-01  0.00000000000E+00 0.  1.
     999901    1    3    3    0    0 -0.43716183282E-02 -0.13690779527E+00  0.48650924745E-01  0.89192475464E+00  0.88000000000E+00 0.  1.
        -11    1    4    4    0    0  0.85584633075E-02  0.10542526551E+00 -0.29737895252E-01  0.10987418913E+00  0.51100000000E-03 0. -1.
         11    1    4    4    0    0 -0.40159423901E-02  0.18002005449E-01  0.54419400299E-03  0.18459611631E-01  0.51100000000E-03 0.  1.
</event>
<event>
 8    1  0.1143957E+005  0.1043930E+01  0.7957747E-01            NaN
         13   -1    0    0    0    0  0.00000000000E+00  0.00000000000E+00  0.74505805969E-08  0.10566000000E+00  0.10566000000E+00 0. -1.
     999900   -1    0    0    0    0 -0.00000000000E+00 -0.00000000000E+00 -0.74505805969E-08  0.93827000000E+00  0.93827000000E+00 0. -1.
     999902    2    1    2    0    0 -0.26365362687E-01 -0.65010811764E-02 -0.11645547403E-01  0.10143831697E+01  0.10139527601E+01 0.  0.
     999903    2    3    3    0    0  0.89720856058E-01 -0.43796429013E-01 -0.70312176084E-01  0.12404125422E+00  0.21782365270E-01 0.  0.
         14    1    1    2    0    0  0.26365362687E-01  0.65010811764E-02  0.11645547403E-01  0.29546830293E-01  0.00000000000E+00 0. -1.
     999901    1    3    3    0    0 -0.11608621874E+00  0.37295347837E-01  0.58666628681E-01  0.89034191549E+00  0.88000000000E+00 0.  1.
        -11    1    4    4    0    0  0.21018623441E-01 -0.32752046362E-02 -0.22857106482E-01  0.31228479542E-01  0.51100000000E-03 0.  1.
         11    1    4    4    0    0  0.68702232617E-01 -0.40521224377E-01 -0.47455069602E-01  0.92812774678E-01  0.51100000000E-03 0. -1.
</event>
<event>
 8    1  0.1143957E+005  0.1043930E+01  0.7957747E-01            NaN
         13   -1    0    0    0    0  0.00000000000E+00  0.00000000000E+00  0.74505805969E-08  0.10566000000E+00  0.10566000000E+00 0.  1.
     999900   -1    0    0    0    0 -0.00000000000E+00 -0.00000000000E+00 -0.74505805969E-08  0.93827000000E+00  0.93827000000E+00 0. -1.
     999902    2    1    2    0    0  0.41944935864E-02 -0.13505068062E-01 -0.19537038941E-01  0.10198120289E+01  0.10195268009E+01 0.  0.
     999903    2    3    3    0    0 -0.48050375058E-01 -0.24181750019E-01 -0.11951640159E+00  0.13254691023E+00  0.19771635890E-01 0.  0.
         14    1    1    2    0    0 -0.41944935864E-02  0.13505068062E-01  0.19537038941E-01  0.24117971109E-01  0.00000000000E+00 0.  1.
     999901    1    3    3    0    0  0.52244868645E-01  0.10676681957E-01  0.99979362647E-01  0.88726511866E+00  0.88000000000E+00 0.  1.
        -11    1    4    4    0    0 -0.20010928221E-01 -0.80281883003E-02 -0.71185072760E-01  0.74380540201E-01  0.51100000000E-03 0.  1.
         11    1    4    4    0    0 -0.28039446838E-01 -0.16153561719E-01 -0.48331328828E-01  0.58166370030E-01  0.51100000000E-03 0. -1.
</event>
<event>
 8    1  0.1143957E+005  0.1043930E+01  0.7957747E-01            NaN
         13   -1    0    0    0    0  0.00000000000E+00  0.00000000000E+00  0.74505805969E-08  0.10566000000E+00  0.10566000000E+00 0. -1.
     999900   -1    0    0    0    0 -0.00000000000E+00 -0.00000000000E+00 -0.74505805969E-08  0.93827000000E+00  0.93827000000E+00 0.  1.
     999902    2    1    2    0    0 -0.11018061293E-01 -0.22203936432E-01 -0.20673232516E-03  0.10191417930E+01  0.10188402912E+01 0.  0.
     999903    2    3    3    0    0  0.29883083632E-01  0.11627069944E+00 -0.35204634217E-01  0.12668844320E+00  0.19968002816E-01 0.  0.
         14    1    1    2    0    0  0.11018061293E-01  0.22203936432E-01  0.20673232516E-03  0.24788206994E-01  0.00000000000E+00 0. -1.
     999901    1    3    3    0    0 -0.40901144925E-01 -0.13847463587E+00  0.34997901892E-01  0.89245334980E+00  0.88000000000E+00 0. -1.
        -11    1    4    4    0    0  0.90762434614E-02  0.74247424947E-01 -0.21984867075E-01  0.77965722006E-01  0.51100000000E-03 0. -1.
         11    1    4    4    0    0  0.20806840170E-01  0.42023274489E-01 -0.13219767142E-01  0.48722721198E-01  0.51100000000E-03 0.  1.
</event>
<event>
 8    1  0.1143957E+005  0.1043930E+01  0.7957747E-01            NaN
         13   -1    0    0    0    0  0.00000000000E+00  0.00000000000E+00  0.74505805969E-08  0.10566000000E+00  0.10566000000E+00 0. -1.
     999900   -1    0    0    0    0 -0.00000000000E+00 -0.00000000000E+00 -0.74505805969E-08  0.93827000000E+00  0.93827000000E+00 0. -1.
     999902    2    1    2    0    0  0.20099738921E-01  0.25423670083E-01 -0.88316236986E-02  0.10103389285E+01  0.10097803674E+01 0.  0.
     999903    2    3    3    0    0 -0.19176499085E-01 -0.10395717462E+00 -0.45963256575E-01  0.11923804535E+00  0.30500134952E-01 0.  0.
         14    1    1    2    0    0 -0.20099738921E-01 -0.25423670083E-01  0.88316236986E-02  0.33591071467E-01  0.00000000000E+00 0. -1.
     999901    1    3    3    0    0  0.39276238006E-01  0.12938084470E+00  0.37131632877E-01  0.89110088318E+00  0.88000000000E+00 0.  1.
        -11    1    4    4    0    0 -0.12989027599E-01 -0.60571799410E-01 -0.10444696141E-01  0.62825237924E-01  0.51100000000E-03 0. -1.
         11    1    4    4    0    0 -0.61874714856E-02 -0.43385375209E-01 -0.35518560435E-01  0.56412807427E-01  0.51100000000E-03 0.  1.
</event>
<event>
 8    1  0.1143957E+005  0.1043930E+01  0.7957747E-01            NaN
         13   -1    0    0    0    0  0.00000000000E+00  0.00000000000E+00  0.74505805969E-08  0.10566000000E+00  0.10566000000E+00 0. -1.
     999900   -1    0    0    0    0 -0.00000000000E+00 -0.00000000000E+00 -0.74505805969E-08  0.93827000000E+00  0.93827000000E+00 0.  1.
     999902    2    1    2    0    0  0.12650369019E-02  0.12750100430E-01 -0.21451578626E-01  0.10189432914E+01  0.10186368811E+01 0.  0.
     999903    2    3    3    0    0 -0.99790613126E-01  0.19892751322E-01 -0.80413079854E-01  0.13117095548E+00  0.19638434923E-01 0.  0.
         14    1    1    2    0    0 -0.12650369019E-02 -0.12750100430E-01  0.21451578626E-01  0.24986708564E-01  0.00000000000E+00 0. -1.
     999901    1    3    3    0    0  0.10105565003E+00 -0.71426508919E-02  0.58961501228E-01  0.88777233596E+00  0.88000000000E+00 0.  1.
        -11    1    4    4    0    0 -0.82765080108E-02 -0.29102150449E-03 -0.14124585172E-01  0.16381401211E-01  0.51100000000E-03 0. -1.
         11    1    4    4    0    0 -0.91514105115E-01  0.20183772827E-01 -0.66288494682E-01  0.11478955427E+00  0.51100000000E-03 0.  1.
</event>
<event>
 8    1  0.1143957E+005  0.1043930E+01  0.7957747E-01            NaN
         13   -1    0    0    0    0  0.00000000000E+00  0.00000000000E+00  0.74505805969E-08  0.10566000000E+00  0.10566000000E+00 0. -1.
     999900   -1    0    0    0    0 -0.00000000000E+00 -0.00000000000E+00 -0.74505805969E-08  0.93827000000E+00  0.93827000000E+00 0. -1.
     999902    2    1    2    0    0 -0.16211977401E-01 -0.16325343173E-01  0.35235913191E-02  0.10206542457E+01  0.10203888125E+01 0.  0.
     999903    2    3    3    0    0  0.47608651208E-01 -0.11804476068E+00  0.29169266785E-01  0.13212871813E+00  0.20149512064E-01 0.  0.
         14    1    1    2    0    0  0.16211977401E-01  0.16325343173E-01 -0.35235913191E-02  0.23275754268E-01  0.00000000000E+00 0.  1.
     999901    1    3    3    0    0 -0.63820628608E-01  0.10171941750E+00 -0.25645675466E-01  0.88852552760E+00  0.88000000000E+00 0. -1.
        -11    1    4    4    0    0  0.32953487713E-01 -0.96868621146E-01  0.29069043892E-01  0.10637073164E+00  0.51100000000E-03 0. -1.
         11    1    4    4    0    0  0.14655163494E-01 -0.21176139531E-01  0.10022289379E-03  0.25757986492E-01  0.51100000000E-03 0.  1.
</event>
<event>
 8    1  0.1143957E+005  0.1043930E+01  0.7957747E-01            NaN
         13   -1    0    0    0    0  0.00000000000E+00  0.00000000000E+00  0.74505805969E-08  0.10566000000E+00  0.10566000000E+00 0.  1.
     999900   -1    0    0    0    0 -0.00000000000E+00 -0.00000000000E+00 -0.74505805969E-08  0.93827000000E+00  0.93827000000E+00 0. -1.
     999902    2    1    2    0    0  0.11074872710E-01 -0.19163672800E-01 -0.78342655307E-02  0.10204507565E+01  0.10201806073E+01 0.  0.
     999903    2    3    3    0    0 -0.53366565564E-01  0.27855433656E-02  0.11578274804E+00  0.12920688798E+00  0.20809266842E-01 0.  0.
         14    1    1    2    0    0 -0.11074872710E-01  0.19163672800E-01  0.78342655307E-02  0.23479243539E-01  0.00000000000E+00 0. -1.
     999901    1    3    3    0    0  0.64441438274E-01 -0.21949216166E-01 -0.12361701357E+00  0.89124386848E+00  0.88000000000E+00 0. -1.
        -11    1    4    4    0    0 -0.39344410723E-01  0.10510495463E-01  0.74140218487E-01  0.84590107508E-01  0.51100000000E-03 0.  1.
         11    1    4    4    0    0 -0.14022154841E-01 -0.77249520974E-02  0.41642529553E-01  0.44616780474E-01  0.51100000000E-03 0. -1.
</event>
<event>
 7    1  0.1143957E+005  0.1043930E+01  0.7957747E-01            NaN
         13   -1    0    0    0    0  0.00000000000E+00  0.00000000000E+00  0.74505805969E-08  0.10566000000E+00  0.10566000000E+00 0.  1.
     999900   -1    0    0    0    0 -0.00000000000E+00 -0.00000000000E+00 -0.74505805969E-08  0.93827000000E+00  0.93827000000E+00 0. -1.
     999903    2    1    2    0    0 -0.97929274334E-01 -0.97780463690E-02  0.14106006777E-01  0.10142869970E+00  0.20076073632E-01 0.  0.
         14    1    1    2    0    0 -0.38736767154E-01 -0.25484520134E-01  0.20239545780E-01  0.50592856307E-01  0.00000000000E+00 0.  1.
     999901    1    1    2    0    0  0.13666604149E+00  0.35262566503E-01 -0.34345552557E-01  0.89190844400E+00  0.88000000000E+00 0. -1.
        -11    1    3    3    0    0 -0.54003316691E-01  0.20798110770E-02  0.91314063972E-03  0.54053480689E-01  0.51100000000E-03 0. -1.
         11    1    3    3    0    0 -0.43925957643E-01 -0.11857857446E-01  0.13192866138E-01  0.47375219007E-01  0.51100000000E-03 0.  1.
</event>
<event>
 8    1  0.1143957E+005  0.1043930E+01  0.7957747E-01            NaN
         13   -1    0    0    0    0  0.00000000000E+00  0.00000000000E+00  0.74505805969E-08  0.10566000000E+00  0.10566000000E+00 0. -1.
     999900   -1    0    0    0    0 -0.00000000000E+00 -0.00000000000E+00 -0.74505805969E-08  0.93827000000E+00  0.93827000000E+00 0. -1.
     999902    2    1    2    0    0  0.14964309438E-01  0.18852722304E-01 -0.19796666533E-02  0.10197789177E+01  0.10194928966E+01 0.  0.
     999903    2    3    3    0    0 -0.43229548155E-01 -0.86141836998E-01 -0.80523805348E-01  0.12816265258E+00  0.25541581250E-01 0.  0.
         14    1    1    2    0    0 -0.14964309438E-01 -0.18852722304E-01  0.19796666533E-02  0.24151082280E-01  0.00000000000E+00 0.  1.
     999901    1    3    3    0    0  0.58193857593E-01  0.10499455930E+00  0.78544138695E-01  0.89161626514E+00  0.88000000000E+00 0. -1.
        -11    1    4    4    0    0 -0.39381837053E-01 -0.58150990847E-01 -0.47956566852E-01  0.85044460439E-01  0.51100000000E-03 0. -1.
         11    1    4    4    0    0 -0.38477111017E-02 -0.27990846151E-01 -0.32567238496E-01  0.43118192138E-01  0.51100000000E-03 0.  1.
</event>
<event>
 7    1  0.1143957E+005  0.1043930E+01  0.7957747E-01            NaN
         13   -1    0    0    0    0  0.00000000000E+00  0.00000000000E+00  0.74505805969E-08  0.10566000000E+00  0.10566000000E+00 0.  1.
     999900   -1    0    0    0    0 -0.00000000000E+00 -0.00000000000E+00 -0.74505805969E-08  0.93827000000E+00  0.93827000000E+00 0. -1.
     999903    2    1    2    0    0 -0.25253446724E-01 -0.34154867180E-01  0.58838161544E-01  0.75073252963E-01  0.19229470430E-01 0.  0.
         14    1    1    2    0    0 -0.40642063495E-01  0.35123812237E-02  0.65485166781E-01  0.77151935914E-01  0.00000000000E+00 0.  1.
     999901    1    1    2    0    0  0.65895510219E-01  0.30642485957E-01 -0.12432332833E+00  0.89170481112E+00  0.88000000000E+00 0. -1.
        -11    1    3    3    0    0 -0.24960163571E-01 -0.18970676128E-01  0.37590193244E-01  0.48950792306E-01  0.51100000000E-03 0. -1.
         11    1    3    3    0    0 -0.29328315340E-03 -0.15184191052E-01  0.21247968301E-01  0.26122460658E-01  0.51100000000E-03 0.  1.
</event>
<event>
 8    1  0.1143957E+005  0.1043930E+01  0.7957747E-01            NaN
         13   -1    0    0    0    0  0.00000000000E+00  0.00000000000E+00  0.74505805969E-08  0.10566000000E+00  0.10566000000E+00 0.  1.
     999900   -1    0    0    0    0 -0.00000000000E+00 -0.00000000000E+00 -0.74505805969E-08  0.93827000000E+00  0.93827000000E+00 0.  1.
     999902    2    1    2    0    0  0.66831584364E-02  0.22187600251E-01 -0.59458895535E-02  0.10200070442E+01  0.10197264645E+01 0.  0.
     999903    2    3    3    0    0 -0.97955844795E-01 -0.70199010998E-01  0.35014625267E-01  0.12806401311E+00  0.25517029547E-01 0.  0.
         14    1    1    2    0    0 -0.66831584364E-02 -0.22187600251E-01  0.59458895535E-02  0.23922955799E-01  0.00000000000E+00 0. -1.
     999901    1    3    3    0    0  0.10463900323E+00  0.92386611249E-01 -0.40960514820E-01  0.89194303109E+00  0.88000000000E+00 0. -1.
        -11    1    4    4    0    0 -0.78235626679E-01 -0.43809921968E-01  0.20076038788E-01  0.91888143953E-01  0.51100000000E-03 0. -1.
         11    1    4    4    0    0 -0.19720218117E-01 -0.26389089029E-01  0.14938586479E-01  0.36175869158E-01  0.51100000000E-03 0.  1.
</event>
<event>
 8    1  0.1143957E+005  0.1043930E+01  0.7957747E-01            NaN
         13   -1    0    0    0    0  0.00000000000E+00  0.00000000000E+00  0.74505805969E-08  0.10566000000E+00  0.10566000000E+00 0.  1.
     999900   -1    0    0    0    0 -0.00000000000E+00 -0.00000000000E+00 -0.74505805969E-08  0.93827000000E+00  0.93827000000E+00 0.  1.
     999902    2    1    2    0    0  0.83124115669E-02  0.14128254398E-01 -0.13280612847E-01  0.10228331179E+01  0.10226155233E+01 0.  0.
     999903    2    3    3    0    0  0.69348647232E-01  0.26587026877E-01 -0.11124106137E+00  0.13520882090E+00  0.19767312529E-01 0.  0.
         14    1    1    2    0    0 -0.83124115669E-02 -0.14128254398E-01  0.13280612847E-01  0.21096882139E-01  0.00000000000E+00 0.  1.
     999901    1    3    3    0    0 -0.61036235665E-01 -0.12458772479E-01  0.97960448521E-01  0.88762429696E+00  0.88000000000E+00 0.  1.
        -11    1    4    4    0    0  0.63343324074E-01  0.22081796628E-01 -0.87205586394E-01  0.11002298790E+00  0.51100000000E-03 0. -1.
         11    1    4    4    0    0  0.60053231576E-02  0.45052302493E-02 -0.24035474974E-01  0.25185833003E-01  0.51100000000E-03 0.  1.
</event>
<event>
 8    1  0.1143957E+005  0.1043930E+01  0.7957747E-01            NaN
         13   -1    0    0    0    0  0.00000000000E+00  0.00000000000E+00  0.74505805969E-08  0.10566000000E+00  0.10566000000E+00 0. -1.
     999900   -1    0    0    0    0 -0.00000000000E+00 -0.00000000000E+00 -0.74505805969E-08  0.93827000000E+00  0.93827000000E+00 0. -1.
     999902    2    1    2    0    0  0.57539455012E-03 -0.23757322434E-01 -0.10264228271E-02  0.10201435544E+01  0.10198662053E+01 0.  0.
     999903    2    3    3    0    0 -0.80871926923E-01  0.58123618641E-01  0.79590106727E-01  0.12894370059E+00  0.19320176612E-01 0.  0.
         14    1    1    2    0    0 -0.57539455012E-03  0.23757322434E-01  0.10264228271E-02  0.23786445550E-01  0.00000000000E+00 0. -1.
     999901    1    3    3    0    0  0.81447321473E-01 -0.81880941075E-01 -0.80616529554E-01  0.89119985386E+00  0.88000000000E+00 0.  1.
        -11    1    4    4    0    0 -0.28471702149E-01  0.11733838698E-01  0.17732156860E-01  0.35538870293E-01  0.51100000000E-03 0.  1.
         11    1    4    4    0    0 -0.52400224774E-01  0.46389779944E-01  0.61857949867E-01  0.93404830294E-01  0.51100000000E-03 0. -1.
</event>
<event>
 8    1  0.1143957E+005  0.1043930E+01  0.7957747E-01            NaN
         13   -1    0    0    0    0  0.00000000000E+00  0.00000000000E+00  0.74505805969E-08  0.10566000000E+00  0.10566000000E+00 0. -1.
     999900   -1    0    0    0    0 -0.00000000000E+00 -0.00000000000E+00 -0.74505805969E-08  0.93827000000E+00  0.93827000000E+00 0.  1.
     999902    2    1    2    0    0  0.80785407811E-02 -0.11799154277E-01  0.18666992881E-01  0.10204153347E+01  0.10201443602E+01 0.  0.
     999903    2    3    3    0    0 -0.10865496187E+00 -0.46017566992E-01 -0.48968563247E-01  0.12947640361E+00  0.21040477499E-01 0.  0.
         14    1    1    2    0    0 -0.80785407811E-02  0.11799154277E-01 -0.18666992881E-01  0.23514665340E-01  0.00000000000E+00 0. -1.
     999901    1    3    3    0    0  0.11673350265E+00  0.34218412714E-01  0.67635556128E-01  0.89093893105E+00  0.88000000000E+00 0. -1.
        -11    1    4    4    0    0 -0.38220023925E-01 -0.26339410489E-01 -0.23543845656E-01  0.52049097619E-01  0.51100000000E-03 0.  1.
         11    1    4    4    0    0 -0.70434937949E-01 -0.19678156503E-01 -0.25424717591E-01  0.77427305989E-01  0.51100000000E-03 0. -1.
</event>
<event>
 8    1  0.1143957E+005  0.1043930E+01  0.7957747E-01            NaN
         13   -1    0    0    0    0  0.00000000000E+00  0.00000000000E+00  0.74505805969E-08  0.10566000000E+00  0.10566000000E+00 0. -1.
     999900   -1    0    0    0    0 -0.00000000000E+00 -0.00000000000E+00 -0.74505805969E-08  0.93827000000E+00  0.93827000000E+00 0.  1.
     999902    2    1    2    0    0  0.16587247465E-01 -0.17063713934E-01 -0.33878296132E-03  0.10201303806E+01  0.10198527205E+01 0.  0.
     999903    2    3    3    0    0  0.38912914138E-01  0.63852043496E-01 -0.10449130792E+00  0.13002165481E+00  0.19897209452E-01 0.  0.
         14    1    1    2    0    0 -0.16587247465E-01  0.17063713934E-01  0.33878296132E-03  0.23799619442E-01  0.00000000000E+00 0.  1.
     999901    1    3    3    0    0 -0.22325666673E-01 -0.80915757430E-01  0.10415252496E+00  0.89010872575E+00  0.88000000000E+00 0. -1.
        -11    1    4    4    0    0  0.16511807248E-01  0.17667364758E-01 -0.47611254395E-01  0.53402885897E-01  0.51100000000E-03 0.  1.
         11    1    4    4    0    0  0.22401106890E-01  0.46184678738E-01 -0.56880053525E-01  0.76618768915E-01  0.51100000000E-03 0. -1.
</event>
<event>
 8    1  0.1143957E+005  0.1043930E+01  0.7957747E-01            NaN
         13   -1    0    0    0    0  0.00000000000E+00  0.00000000000E+00  0.74505805969E-08  0.10566000000E+00  0.10566000000E+00 0.  1.
     999900   -1    0    0    0    0 -0.00000000000E+00 -0.00000000000E+00 -0.74505805969E-08  0.93827000000E+00  0.93827000000E+00 0.  1.
     999902    2    1    2    0    0  0.12198245000E-01  0.19750945494E-01  0.54982065477E-02  0.10200736108E+01  0.10197946088E+01 0.  0.
     999903    2    3    3    0    0 -0.19715158849E-01 -0.73541338836E-01  0.10061466767E+00  0.12947321961E+00  0.29034242556E-01 0.  0.
         14    1    1    2    0    0 -0.12198245000E-01 -0.19750945494E-01 -0.54982065477E-02  0.23856389170E-01  0.00000000000E+00 0. -1.
     999901    1    3    3    0    0  0.31913403849E-01  0.93292284330E-01 -0.95116461120E-01  0.89060039122E+00  0.88000000000E+00 0.  1.
        -11    1    4    4    0    0 -0.65752372826E-02 -0.65477908956E-01  0.77320324130E-01  0.10153464409E+00  0.51100000000E-03 0.  1.
         11    1    4    4    0    0 -0.13139921567E-01 -0.80634298800E-02  0.23294343538E-01  0.27938575520E-01  0.51100000000E-03 0. -1.
</event>
<event>
 8    1  0.1143957E+005  0.1043930E+01  0.7957747E-01            NaN
         13   -1    0    0    0    0  0.00000000000E+00  0.00000000000E+00  0.74505805969E-08  0.10566000000E+00  0.10566000000E+00 0.  1.
     999900   -1    0    0    0    0 -0.00000000000E+00 -0.00000000000E+00 -0.74505805969E-08  0.93827000000E+00  0.93827000000E+00 0. -1.
     999902    2    1    2    0    0  0.15403481031E-02  0.12562412245E-01 -0.46081188878E-02  0.10304607152E+01  0.10303726820E+01 0.  0.
     999903    2    3    3    0    0  0.18785385275E-02  0.12157763755E+00  0.67815617098E-01  0.14078120477E+00  0.20874358333E-01 0.  0.
         14    1    1    2    0    0 -0.15403481031E-02 -0.12562412245E-01  0.46081188878E-02  0.13469284813E-01  0.00000000000E+00 0.  1.
     999901    1    3    3    0    0 -0.33819042441E-03 -0.10901522530E+00 -0.72423735986E-01  0.88967951042E+00  0.88000000000E+00 0. -1.
        -11    1    4    4    0    0 -0.76283387877E-02  0.82398865903E-01  0.50142606940E-01  0.96759014084E-01  0.51100000000E-03 0.  1.
         11    1    4    4    0    0  0.95068773152E-02  0.39178771644E-01  0.17673010159E-01  0.44022190687E-01  0.51100000000E-03 0. -1.
</event>
<event>
 8    1  0.1143957E+005  0.1043930E+01  0.7957747E-01            NaN
         13   -1    0    0    0    0  0.00000000000E+00  0.00000000000E+00  0.74505805969E-08  0.10566000000E+00  0.10566000000E+00 0. -1.
     999900   -1    0    0    0    0 -0.00000000000E+00 -0.00000000000E+00 -0.74505805969E-08  0.93827000000E+00  0.93827000000E+00 0. -1.
     999902    2    1    2    0    0 -0.43248735115E-03  0.22193669015E-01  0.82323276792E-02  0.10202547554E+01  0.10199800236E+01 0.  0.
     999903    2    3    3    0    0  0.77556196279E-01 -0.64599252465E-01 -0.76947352305E-01  0.12847517280E+00  0.19923553867E-01 0.  0.
         14    1    1    2    0    0  0.43248735115E-03 -0.22193669015E-01 -0.82323276792E-02  0.23675244638E-01  0.00000000000E+00 0.  1.
     999901    1    3    3    0    0 -0.77988683631E-01  0.86792921480E-01  0.85179679984E-01  0.89177958256E+00  0.88000000000E+00 0.  1.
        -11    1    4    4    0    0  0.59288817276E-01 -0.58424182970E-01 -0.58133690479E-01  0.10152997636E+00  0.51100000000E-03 0. -1.
         11    1    4    4    0    0  0.18267379003E-01 -0.61750694952E-02 -0.18813661826E-01  0.26945196440E-01  0.51100000000E-03 0.  1.
</event>
<event>
 8    1  0.1143957E+005  0.1043930E+01  0.7957747E-01            NaN
         13   -1    0    0    0    0  0.00000000000E+00  0.00000000000E+00  0.74505805969E-08  0.10566000000E+00  0.10566000000E+00 0. -1.
     999900   -1    0    0    0    0 -0.00000000000E+00 -0.00000000000E+00 -0.74505805969E-08  0.93827000000E+00  0.93827000000E+00 0. -1.
     999902    2    1    2    0    0  0.32174876738E-02  0.14545503936E-01 -0.18568456265E-01  0.10201242973E+01  0.10198464936E+01 0.  0.
     999903    2    3    3    0    0  0.72822739156E-01  0.42987708281E-01  0.96185078741E-01  0.12949405766E+00  0.19132359866E-01 0.  0.
         14    1    1    2    0    0 -0.32174876738E-02 -0.14545503936E-01  0.18568456265E-01  0.23805702673E-01  0.00000000000E+00 0. -1.
     999901    1    3    3    0    0 -0.69605251482E-01 -0.28442204346E-01 -0.11475353501E+00  0.89063023967E+00  0.88000000000E+00 0. -1.
        -11    1    4    4    0    0  0.54147670230E-01  0.30064974832E-01  0.81812934213E-01  0.10261330434E+00  0.51100000000E-03 0. -1.
         11    1    4    4    0    0  0.18675068926E-01  0.12922733450E-01  0.14372144528E-01  0.26880753311E-01  0.51100000000E-03 0.  1.
</event>
<event>
 8    1  0.1143957E+005  0.1043930E+01  0.7957747E-01            NaN
         13   -1    0    0    0    0  0.00000000000E+00  0.00000000000E+00  0.74505805969E-08  0.10566000000E+00  0.10566000000E+00 0.  1.
     999900   -1    0    0    0    0 -0.00000000000E+00 -0.00000000000E+00 -0.74505805969E-08  0.93827000000E+00  0.93827000000E+00 0.  1.
     999902    2    1    2    0    0 -0.16717341146E-01 -0.12403760511E-01  0.11367400286E-01  0.10202120625E+01  0.10199363274E+01 0.  0.
     999903    2    3    3    0    0 -0.35393769992E-01 -0.13462344380E-01  0.12555541771E+00  0.13263737105E+00  0.19863423922E-01 0.  0.
         14    1    1    2    0    0  0.16717341146E-01  0.12403760511E-01 -0.11367400286E-01  0.23717937496E-01  0.00000000000E+00 0. -1.
     999901    1    3    3    0    0  0.18676428846E-01  0.10585838685E-02 -0.11418801743E+00  0.88757469146E+00  0.88000000000E+00 0.  1.
        -11    1    4    4    0    0 -0.24891490034E-01 -0.48299545931E-02  0.52241831845E-01  0.58072238230E-01  0.51100000000E-03 0.  1.
         11    1    4    4    0    0 -0.10502279958E-01 -0.86323897867E-02  0.73313585869E-01  0.74565132815E-01  0.51100000000E-03 0. -1.
</event>
<event>
 8    1  0.1143957E+005  0.1043930E+01  0.7957747E-01            NaN
         13   -1    0    0    0    0  0.00000000000E+00  0.00000000000E+00  0.74505805969E-08  0.10566000000E+00  0.10566000000E+00 0.  1.
     999900   -1    0    0    0    0 -0.00000000000E+00 -0.00000000000E+00 -0.74505805969E-08  0.93827000000E+00  0.93827000000E+00 0. -1.
     999902    2    1    2    0    0 -0.16094382637E-01  0.30031203615E-02 -0.16331608058E-01  0.10208049204E+01  0.10205429517E+01 0.  0.
     999903    2    3    3    0    0 -0.66223550708E-01 -0.11079039696E+00 -0.18213715256E-01  0.13206117759E+00  0.21174146419E-01 0.  0.
         14    1    1    2    0    0  0.16094382637E-01 -0.30031203615E-02  0.16331608058E-01  0.23125079592E-01  0.00000000000E+00 0.  1.
     999901    1    3    3    0    0  0.50129168071E-01  0.11379351732E+00  0.18821071979E-02  0.88874374282E+00  0.88000000000E+00 0.  1.
        -11    1    4    4    0    0 -0.21885554650E-01 -0.54734502537E-01 -0.32561738114E-02  0.59039876856E-01  0.51100000000E-03 0.  1.
         11    1    4    4    0    0 -0.44337996058E-01 -0.56055894419E-01 -0.14957541444E-01  0.73021300732E-01  0.51100000000E-03 0. -1.
</event>
<event>
 8    1  0.1143957E+005  0.1043930E+01  0.7957747E-01            NaN
         13   -1    0    0    0    0  0.00000000000E+00  0.00000000000E+00  0.74505805969E-08  0.10566000000E+00  0.10566000000E+00 0.  1.
     999900   -1    0    0    0    0 -0.00000000000E+00 -0.00000000000E+00 -0.74505805969E-08  0.93827000000E+00  0.93827000000E+00 0.  1.
     999902    2    1    2    0    0  0.23305678891E-01 -0.45841419903E-02 -0.21922847726E-02  0.10200768002E+01  0.10197978737E+01 0.  0.
     999903    2    3    3    0    0 -0.23942855940E-01 -0.10316434109E+00 -0.73515309046E-01  0.13044909525E+00  0.19907891989E-01 0.  0.
         14    1    1    2    0    0 -0.23305678891E-01  0.45841419903E-02  0.21922847726E-02  0.23853199761E-01  0.00000000000E+00 0. -1.
     999901    1    3    3    0    0  0.47248534830E-01  0.98580199100E-01  0.71323024273E-01  0.88962770499E+00  0.88000000000E+00 0. -1.
        -11    1    4    4    0    0 -0.16063915440E-01 -0.48631371584E-01 -0.46075572168E-01  0.68893244611E-01  0.51100000000E-03 0.  1.
         11    1    4    4    0    0 -0.78789404998E-02 -0.54532969506E-01 -0.27439736877E-01  0.61555850636E-01  0.51100000000E-03 0. -1.
</event>
<event>
 8    1  0.1143957E+005  0.1043930E+01  0.7957747E-01            NaN
         13   -1    0    0    0    0  0.00000000000E+00  0.00000000000E+00  0.74505805969E-08  0.10566000000E+00  0.10566000000E+00 0. -1.
     999900   -1    0    0    0    0 -0.00000000000E+00 -0.00000000000E+00 -0.74505805969E-08  0.93827000000E+00  0.93827000000E+00 0.  1.
     999902    2    1    2    0    0 -0.88860220232E-02  0.47885006245E-02 -0.20551879615E-01  0.10210330377E+01  0.10207762699E+01 0.  0.
     999903    2    3    3    0    0 -0.11369464720E+00 -0.22333092048E-01  0.59068606472E-01  0.13083089748E+00  0.14226161192E-01 0.  0.
         14    1    1    2    0    0  0.88860220232E-02 -0.47885006245E-02  0.20551879615E-01  0.22896962274E-01  0.00000000000E+00 0. -1.
     999901    1    3    3    0    0  0.10480862517E+00  0.27121592673E-01 -0.79620486088E-01  0.89020214025E+00  0.88000000000E+00 0.  1.
        -11    1    4    4    0    0 -0.63782878733E-01 -0.12242718915E-01  0.40943422942E-01  0.76777371595E-01  0.51100000000E-03 0.  1.
         11    1    4    4    0    0 -0.49911768465E-01 -0.10090373134E-01  0.18125183531E-01  0.54053525882E-01  0.51100000000E-03 0. -1.
</event>
<event>
 8    1  0.1143957E+005  0.1043930E+01  0.7957747E-01            NaN
         13   -1    0    0    0    0  0.00000000000E+00  0.00000000000E+00  0.74505805969E-08  0.10566000000E+00  0.10566000000E+00 0. -1.
     999900   -1    0    0    0    0 -0.00000000000E+00 -0.00000000000E+00 -0.74505805969E-08  0.93827000000E+00  0.93827000000E+00 0. -1.
     999902    2    1    2    0    0 -0.29745712144E-02  0.68463715828E-02 -0.21744161219E-01  0.10209402322E+01  0.10206813549E+01 0.  0.
     999903    2    3    3    0    0  0.15377846265E-01 -0.92528115713E-01 -0.91537674122E-01  0.13241154136E+00  0.18861074939E-01 0.  0.
         14    1    1    2    0    0  0.29745712144E-02 -0.68463715828E-02  0.21744161219E-01  0.22989767830E-01  0.00000000000E+00 0. -1.
     999901    1    3    3    0    0 -0.18352417480E-01  0.99374487296E-01  0.69793512903E-01  0.88852869081E+00  0.88000000000E+00 0.  1.
        -11    1    4    4    0    0  0.81300731146E-02 -0.83285965007E-01 -0.77033464188E-01  0.11374122288E+00  0.51100000000E-03 0. -1.
         11    1    4    4    0    0  0.72477731506E-02 -0.92421507060E-02 -0.14504209934E-01  0.18670318480E-01  0.51100000000E-03 0.  1.
</event>
<event>
 8    1  0.1143957E+005  0.1043930E+01  0.7957747E-01            NaN
         13   -1    0    0    0    0  0.00000000000E+00  0.00000000000E+00  0.74505805969E-08  0.10566000000E+00  0.10566000000E+00 0. -1.
     999900   -1    0    0    0    0 -0.00000000000E+00 -0.00000000000E+00 -0.74505805969E-08  0.93827000000E+00  0.93827000000E+00 0. -1.
     999902    2    1    2    0    0  0.19232815497E-01  0.13604294157E-01  0.22441927565E-02  0.10202653763E+01  0.10199908940E+01 0.  0.
     999903    2    3    3    0    0 -0.10070060085E+00 -0.74480651507E-01 -0.13157275261E-01  0.12763993013E+00  0.20757153265E-01 0.  0.
         14    1    1    2    0    0 -0.19232815497E-01 -0.13604294157E-01 -0.22441927565E-02  0.23664623652E-01  0.00000000000E+00 0.  1.
     999901    1    3    3    0    0  0.11993341635E+00  0.88084945664E-01  0.15401468018E-01  0.89262544621E+00  0.88000000000E+00 0. -1.
        -11    1    4    4    0    0 -0.66825397147E-01 -0.50873701607E-01  0.98094719445E-03  0.83993991437E-01  0.51100000000E-03 0.  1.
         11    1    4    4    0    0 -0.33875203705E-01 -0.23606949900E-01 -0.14138222456E-01  0.43645938698E-01  0.51100000000E-03 0. -1.
</event>
<event>
 8    1  0.1143957E+005  0.1043930E+01  0.7957747E-01            NaN
         13   -1    0    0    0    0  0.00000000000E+00  0.00000000000E+00  0.74505805969E-08  0.10566000000E+00  0.10566000000E+00 0.  1.
     999900   -1    0    0    0    0 -0.00000000000E+00 -0.00000000000E+00 -0.74505805969E-08  0.93827000000E+00  0.93827000000E+00 0. -1.
     999902    2    1    2    0    0  0.16275771003E-01 -0.85714558399E-02  0.13191384870E-01  0.10212941167E+01  0.10210432359E+01 0.  0.
     999903    2    3    3    0    0 -0.67843832348E-01  0.73087512923E-01 -0.78921480611E-01  0.12875331943E+00  0.20105895376E-01 0.  0.
         14    1    1    2    0    0 -0.16275771003E-01  0.85714558399E-02 -0.13191384870E-01  0.22635883278E-01  0.00000000000E+00 0.  1.
     999901    1    3    3    0    0  0.84119603351E-01 -0.81658968763E-01  0.92112865481E-01  0.89254079729E+00  0.88000000000E+00 0.  1.
        -11    1    4    4    0    0 -0.36074585972E-01  0.33554387374E-01 -0.50763407562E-01  0.70742189205E-01  0.51100000000E-03 0. -1.
         11    1    4    4    0    0 -0.31769246376E-01  0.39533125549E-01 -0.28158073049E-01  0.58011130223E-01  0.51100000000E-03 0.  1.
</event>
<event>
 8    1  0.1143957E+005  0.1043930E+01  0.7957747E-01            NaN
         13   -1    0    0    0    0  0.00000000000E+00  0.00000000000E+00  0.74505805969E-08  0.10566000000E+00  0.10566000000E+00 0. -1.
     999900   -1    0    0    0    0 -0.00000000000E+00 -0.00000000000E+00 -0.74505805969E-08  0.93827000000E+00  0.93827000000E+00 0. -1.
     999902    2    1    2    0    0  0.16008718388E-01  0.21834099610E-02 -0.15856295746E-01  0.10212922338E+01  0.10210413108E+01 0.  0.
     999903    2    3    3    0    0 -0.93568517555E-01  0.12717464689E-01 -0.88982138225E-01  0.13142397064E+00  0.20919793280E-01 0.  0.
         14    1    1    2    0    0 -0.16008718388E-01 -0.21834099610E-02  0.15856295746E-01  0.22637766195E-01  0.00000000000E+00 0. -1.
     999901    1    3    3    0    0  0.10957723594E+00 -0.10534054728E-01  0.73125842479E-01  0.88986826316E+00  0.88000000000E+00 0.  1.
        -11    1    4    4    0    0 -0.43228070446E-01  0.14425737316E-01 -0.50577037107E-01  0.68081317372E-01  0.51100000000E-03 0.  1.
         11    1    4    4    0    0 -0.50340447109E-01 -0.17082726271E-02 -0.38405101118E-01  0.63342653270E-01  0.51100000000E-03 0. -1.
</event>
<event>
 8    1  0.1143957E+005  0.1043930E+01  0.7957747E-01            NaN
         13   -1    0    0    0    0  0.00000000000E+00  0.00000000000E+00  0.74505805969E-08  0.10566000000E+00  0.10566000000E+00 0.  1.
     999900   -1    0    0    0    0 -0.00000000000E+00 -0.00000000000E+00 -0.74505805969E-08  0.93827000000E+00  0.93827000000E+00 0.  1.
     999902    2    1    2    0    0 -0.22510325550E-01 -0.80757768591E-02 -0.27598746304E-02  0.10198561587E+01  0.10195719860E+01 0.  0.
     999903    2    3    3    0    0  0.11180942459E+00 -0.43644600172E-01  0.38970914385E-01  0.12797702156E+00  0.21288196927E-01 0.  0.
         14    1    1    2    0    0  0.22510325550E-01  0.80757768591E-02  0.27598746304E-02  0.24073841327E-01  0.00000000000E+00 0.  1.
     999901    1    3    3    0    0 -0.13431975014E+00  0.35568823313E-01 -0.41730789016E-01  0.89187913711E+00  0.88000000000E+00 0. -1.
        -11    1    4    4    0    0  0.30023064402E-01 -0.12274136448E-01  0.20738936036E-01  0.38501992293E-01  0.51100000000E-03 0. -1.
         11    1    4    4    0    0  0.81786360185E-01 -0.31370463724E-01  0.18231978349E-01  0.89475029266E-01  0.51100000000E-03 0.  1.
</event>
<event>
 8    1  0.1143957E+005  0.1043930E+01  0.7957747E-01            NaN
         13   -1    0    0    0    0  0.00000000000E+00  0.00000000000E+00  0.74505805969E-08  0.10566000000E+00  0.10566000000E+00 0.  1.
     999900   -1    0    0    0    0 -0.00000000000E+00 -0.00000000000E+00 -0.74505805969E-08  0.93827000000E+00  0.93827000000E+00 0. -1.
     999902    2    1    2    0    0  0.90707140922E-02  0.93370923227E-02 -0.19783978000E-01  0.10202474129E+01  0.10199725087E+01 0.  0.
     999903    2    3    3    0    0  0.19302882108E-01  0.10390008803E+00  0.73507577143E-01  0.13021922699E+00  0.19643157308E-01 0.  0.
         14    1    1    2    0    0 -0.90707140922E-02 -0.93370923227E-02  0.19783978000E-01  0.23682587120E-01  0.00000000000E+00 0.  1.
     999901    1    3    3    0    0 -0.10232168016E-01 -0.94562995711E-01 -0.93291555143E-01  0.89002818589E+00  0.88000000000E+00 0. -1.
        -11    1    4    4    0    0  0.51991676839E-02  0.54411724538E-02  0.86475507205E-02  0.11475145173E-01  0.51100000000E-03 0.  1.
         11    1    4    4    0    0  0.14103714425E-01  0.98458915580E-01  0.64860026422E-01  0.11874408182E+00  0.51100000000E-03 0. -1.
</event>
<event>
 8    1  0.1143957E+005  0.1043930E+01  0.7957747E-01            NaN
         13   -1    0    0    0    0  0.00000000000E+00  0.00000000000E+00  0.74505805969E-08  0.10566000000E+00  0.10566000000E+00 0. -1.
     999900   -1    0    0    0    0 -0.00000000000E+00 -0.00000000000E+00 -0.74505805969E-08  0.93827000000E+00  0.93827000000E+00 0.  1.
     999902    2    1    2    0    0 -0.52069547884E-02  0.16112970307E-01  0.16922395610E-01  0.10199903328E+01  0.10197093564E+01 0.  0.
     999903    2    3    3    0    0  0.10117401049E+00 -0.49019403675E-01  0.61973263262E-01  0.13005285381E+00  0.20832116789E-01 0.  0.
         14    1    1    2    0    0  0.52069547884E-02 -0.16112970307E-01 -0.16922395610E-01  0.23939667154E-01  0.00000000000E+00 0.  1.
     999901    1    3    3    0    0 -0.10638096528E+00  0.65132373982E-01 -0.45050867652E-01  0.88993747903E+00  0.88000000000E+00 0. -1.
        -11    1    4    4    0    0  0.37895724070E-01 -0.28613801946E-01  0.30941908583E-01  0.56678906062E-01  0.51100000000E-03 0.  1.
         11    1    4    4    0    0  0.63278286420E-01 -0.20405601729E-01  0.31031354679E-01  0.73373947750E-01  0.51100000000E-03 0. -1.
</event>
<event>
 8    1  0.1143957E+005  0.1043930E+01  0.7957747E-01            NaN
         13   -1    0    0    0    0  0.00000000000E+00  0.00000000000E+00  0.74505805969E-08  0.10566000000E+00  0.10566000000E+00 0.  1.
     999900   -1    0    0    0    0 -0.00000000000E+00 -0.00000000000E+00 -0.74505805969E-08  0.93827000000E+00  0.93827000000E+00 0.  1.
     999902    2    1    2    0    0 -0.99286948965E-02 -0.16534882454E-01  0.12946833084E-01  0.10207006693E+01  0.10204363059E+01 0.  0.
     999903    2    3    3    0    0 -0.12175488681E+00 -0.39846183384E-01  0.26579709155E-01  0.13321299651E+00  0.25044973722E-01 0.  0.
         14    1    1    2    0    0  0.99286948965E-02  0.16534882454E-01 -0.12946833084E-01  0.23229330749E-01  0.00000000000E+00 0.  1.
     999901    1    3    3    0    0  0.11182619192E+00  0.23311300930E-01 -0.13632876071E-01  0.88748767274E+00  0.88000000000E+00 0.  1.
        -11    1    4    4    0    0 -0.50187377604E-01 -0.29123620827E-01  0.14880471763E-01  0.59905322983E-01  0.51100000000E-03 0.  1.
         11    1    4    4    0    0 -0.71567509209E-01 -0.10722562557E-01  0.11699237392E-01  0.73307673532E-01  0.51100000000E-03 0. -1.
</event>
<event>
 8    1  0.1143957E+005  0.1043930E+01  0.7957747E-01            NaN
         13   -1    0    0    0    0  0.00000000000E+00  0.00000000000E+00  0.74505805969E-08  0.10566000000E+00  0.10566000000E+00 0.  1.
     999900   -1    0    0    0    0 -0.00000000000E+00 -0.00000000000E+00 -0.74505805969E-08  0.93827000000E+00  0.93827000000E+00 0.  1.
     999902    2    1    2    0    0 -0.69498943076E-02  0.20311734756E-01 -0.87360987965E-02  0.10207527046E+01  0.10204895379E+01 0.  0.
     999903    2    3    3    0    0 -0.11052572321E+00 -0.62276140192E-01  0.22220013235E-01  0.13029945468E+00  0.19747551110E-01 0.  0.
         14    1    1    2    0    0  0.69498943076E-02 -0.20311734756E-01  0.87360987965E-02  0.23177295396E-01  0.00000000000E+00 0.  1.
     999901    1    3    3    0    0  0.10357582890E+00  0.82587874948E-01 -0.30956112031E-01  0.89045324992E+00  0.88000000000E+00 0.  1.
        -11    1    4    4    0    0 -0.59706244201E-01 -0.44603936923E-01  0.14778953669E-01  0.75980427600E-01  0.51100000000E-03 0. -1.
         11    1    4    4    0    0 -0.50819479007E-01 -0.17672203269E-01  0.74410595653E-02  0.54319027084E-01  0.51100000000E-03 0.  1.
</event>
<event>
 8    1  0.1143957E+005  0.1043930E+01  0.7957747E-01            NaN
         13   -1    0    0    0    0  0.00000000000E+00  0.00000000000E+00  0.74505805969E-08  0.10566000000E+00  0.10566000000E+00 0. -1.
     999900   -1    0    0    0    0 -0.00000000000E+00 -0.00000000000E+00 -0.74505805969E-08  0.93827000000E+00  0.93827000000E+00 0. -1.
     999902    2    1    2    0    0  0.18496909575E-01  0.19916541781E-01  0.59951946239E-02  0.10160957287E+01  0.10157144201E+01 0.  0.
     999903    2    3    3    0    0  0.43475690778E-01 -0.64512105178E-01  0.98348592503E-01  0.12689311622E+00  0.19428584445E-01 0.  0.
         14    1    1    2    0    0 -0.18496909575E-01 -0.19916541781E-01 -0.59951946239E-02  0.27834271303E-01  0.00000000000E+00 0.  1.
     999901    1    3    3    0    0 -0.24978781202E-01  0.84428646959E-01 -0.92353397879E-01  0.88920261248E+00  0.88000000000E+00 0. -1.
        -11    1    4    4    0    0  0.38821058273E-01 -0.48797017894E-01  0.67089825245E-01  0.91594373698E-01  0.51100000000E-03 0.  1.
         11    1    4    4    0    0  0.46546325047E-02 -0.15715087284E-01  0.31258767258E-01  0.35298742521E-01  0.51100000000E-03 0. -1.
</event>
<event>
 8    1  0.1143957E+005  0.1043930E+01  0.7957747E-01            NaN
         13   -1    0    0    0    0  0.00000000000E+00  0.00000000000E+00  0.74505805969E-08  0.10566000000E+00  0.10566000000E+00 0. -1.
     999900   -1    0    0    0    0 -0.00000000000E+00 -0.00000000000E+00 -0.74505805969E-08  0.93827000000E+00  0.93827000000E+00 0.  1.
     999902    2    1    2    0    0  0.12521152651E-01  0.13104379452E-01  0.14222641274E-01  0.10208911730E+01  0.10206311771E+01 0.  0.
     999903    2    3    3    0    0 -0.48278110088E-01  0.77694254037E-01  0.94582331904E-01  0.13278865520E+00  0.17883970975E-01 0.  0.
         14    1    1    2    0    0 -0.12521152651E-01 -0.13104379452E-01 -0.14222641274E-01  0.23038826996E-01  0.00000000000E+00 0.  1.
     999901    1    3    3    0    0  0.60799262739E-01 -0.64589874585E-01 -0.80359690630E-01  0.88810251780E+00  0.88000000000E+00 0.  1.
        -11    1    4    4    0    0 -0.14456694669E-01  0.30815560521E-01  0.24503660087E-01  0.41943834703E-01  0.51100000000E-03 0. -1.
         11    1    4    4    0    0 -0.33821415419E-01  0.46878693516E-01  0.70078671817E-01  0.90844820499E-01  0.51100000000E-03 0.  1.
</event>
<event>
 8    1  0.1143957E+005  0.1043930E+01  0.7957747E-01            NaN
         13   -1    0    0    0    0  0.00000000000E+00  0.00000000000E+00  0.74505805969E-08  0.10566000000E+00  0.10566000000E+00 0.  1.
     999900   -1    0    0    0    0 -0.00000000000E+00 -0.00000000000E+00 -0.74505805969E-08  0.93827000000E+00  0.93827000000E+00 0.  1.
     999902    2    1    2    0    0  0.12208811208E-01 -0.19529464121E-01  0.36249850745E-02  0.10206148642E+01  0.10203485216E+01 0.  0.
     999903    2    3    3    0    0  0.41188499211E-01  0.40853049838E-01  0.11579329528E+00  0.13097021598E+00  0.19484509111E-01 0.  0.
         14    1    1    2    0    0 -0.12208811208E-01  0.19529464121E-01 -0.36249850745E-02  0.23315135787E-01  0.00000000000E+00 0. -1.
     999901    1    3    3    0    0 -0.28979688003E-01 -0.60382513959E-01 -0.11216831020E+00  0.88964464823E+00  0.88000000000E+00 0.  1.
        -11    1    4    4    0    0  0.21517196374E-01  0.24248580488E-01  0.84118692497E-01  0.90150978607E-01  0.51100000000E-03 0.  1.
         11    1    4    4    0    0  0.19671302837E-01  0.16604469349E-01  0.31674602781E-01  0.40819237377E-01  0.51100000000E-03 0. -1.
</event>
<event>
 8    1  0.1143957E+005  0.1043930E+01  0.7957747E-01            NaN
         13   -1    0    0    0    0  0.00000000000E+00  0.00000000000E+00  0.74505805969E-08  0.10566000000E+00  0.10566000000E+00 0. -1.
     999900   -1    0    0    0    0 -0.00000000000E+00 -0.00000000000E+00 -0.74505805969E-08  0.93827000000E+00  0.93827000000E+00 0. -1.
     999902    2    1    2    0    0  0.16088345642E-01 -0.49047016225E-02 -0.26220220472E-01  0.10127789017E+01  0.10122997149E+01 0.  0.
     999903    2    3    3    0    0  0.26895955251E-01  0.77758325022E-01  0.86539847536E-01  0.12167575765E+00  0.23368681385E-01 0.  0.
         14    1    1    2    0    0 -0.16088345642E-01  0.49047016225E-02  0.26220220472E-01  0.31151098296E-01  0.00000000000E+00 0. -1.
     999901    1    3    3    0    0 -0.10807609609E-01 -0.82663026645E-01 -0.11276006801E+00  0.89110314405E+00  0.88000000000E+00 0. -1.
        -11    1    4    4    0    0  0.22611838885E-02  0.79148064363E-02  0.21795181213E-01  0.23303393714E-01  0.51100000000E-03 0.  1.
         11    1    4    4    0    0  0.24634771363E-01  0.69843518586E-01  0.64744666324E-01  0.98372363939E-01  0.51100000000E-03 0. -1.
</event>
<event>
 8    1  0.1143957E+005  0.1043930E+01  0.7957747E-01            NaN
         13   -1    0    0    0    0  0.00000000000E+00  0.00000000000E+00  0.74505805969E-08  0.10566000000E+00  0.10566000000E+00 0. -1.
     999900   -1    0    0    0    0 -0.00000000000E+00 -0.00000000000E+00 -0.74505805969E-08  0.93827000000E+00  0.93827000000E+00 0. -1.
     999902    2    1    2    0    0 -0.16575935126E-01  0.11855042497E-01 -0.90034317549E-02  0.10216507397E+01  0.10214077875E+01 0.  0.
     999903    2    3    3    0    0 -0.62778584303E-01 -0.10160504605E+00 -0.52820215258E-01  0.13208467297E+00  0.19790140571E-01 0.  0.
         14    1    1    2    0    0  0.16575935126E-01 -0.11855042497E-01  0.90034317549E-02  0.22279260339E-01  0.00000000000E+00 0.  1.
     999901    1    3    3    0    0  0.46202649178E-01  0.11346008855E+00  0.43816783503E-01  0.88956606669E+00  0.88000000000E+00 0.  1.
        -11    1    4    4    0    0 -0.38537097980E-01 -0.53741620186E-01 -0.38616873994E-01  0.76581941337E-01  0.51100000000E-03 0. -1.
         11    1    4    4    0    0 -0.24241486324E-01 -0.47863425868E-01 -0.14203341264E-01  0.55502731636E-01  0.51100000000E-03 0.  1.
</event>
<event>
 8    1  0.1143957E+005  0.1043930E+01  0.7957747E-01            NaN
         13   -1    0    0    0    0  0.00000000000E+00  0.00000000000E+00  0.74505805969E-08  0.10566000000E+00  0.10566000000E+00 0.  1.
     999900   -1    0    0    0    0 -0.00000000000E+00 -0.00000000000E+00 -0.74505805969E-08  0.93827000000E+00  0.93827000000E+00 0. -1.
     999902    2    1    2    0    0 -0.94923934718E-02  0.21387992155E-01  0.43903040965E-02  0.10201218814E+01  0.10198440206E+01 0.  0.
     999903    2    3    3    0    0 -0.10242820581E+00  0.35509288416E-01 -0.72029008193E-01  0.13182216421E+00  0.20891578379E-01 0.  0.
         14    1    1    2    0    0  0.94923934718E-02 -0.21387992155E-01 -0.43903040965E-02  0.23808118621E-01  0.00000000000E+00 0. -1.
     999901    1    3    3    0    0  0.92935812341E-01 -0.14121296261E-01  0.76419312289E-01  0.88829971716E+00  0.88000000000E+00 0.  1.
        -11    1    4    4    0    0 -0.33455579477E-01  0.15312795717E-01 -0.13714467740E-01  0.39269648040E-01  0.51100000000E-03 0.  1.
         11    1    4    4    0    0 -0.68972626336E-01  0.20196492699E-01 -0.58314540453E-01  0.92552516174E-01  0.51100000000E-03 0. -1.
</event>
<event>
 8    1  0.1143957E+005  0.1043930E+01  0.7957747E-01            NaN
         13   -1    0    0    0    0  0.00000000000E+00  0.00000000000E+00  0.74505805969E-08  0.10566000000E+00  0.10566000000E+00 0.  1.
     999900   -1    0    0    0    0 -0.00000000000E+00 -0.00000000000E+00 -0.74505805969E-08  0.93827000000E+00  0.93827000000E+00 0.  1.
     999902    2    1    2    0    0 -0.16564039194E-01 -0.10140388722E-01  0.15370389369E-01  0.10191622034E+01  0.10188612041E+01 0.  0.
     999903    2    3    3    0    0 -0.42095901184E-01  0.91496477695E-01  0.79829045489E-01  0.13060334384E+00  0.23256968678E-01 0.  0.
         14    1    1    2    0    0  0.16564039194E-01  0.10140388722E-01 -0.15370389369E-01  0.24767796576E-01  0.00000000000E+00 0. -1.
     999901    1    3    3    0    0  0.25531861991E-01 -0.10163686642E+00 -0.64458656120E-01  0.88855885958E+00  0.88000000000E+00 0.  1.
        -11    1    4    4    0    0 -0.13708329697E-01  0.36076524475E-01  0.44890324680E-01  0.59201657850E-01  0.51100000000E-03 0. -1.
         11    1    4    4    0    0 -0.28387571487E-01  0.55419953220E-01  0.34938720809E-01  0.71401685993E-01  0.51100000000E-03 0.  1.
</event>
<event>
 8    1  0.1143957E+005  0.1043930E+01  0.7957747E-01            NaN
         13   -1    0    0    0    0  0.00000000000E+00  0.00000000000E+00  0.74505805969E-08  0.10566000000E+00  0.10566000000E+00 0. -1.
     999900   -1    0    0    0    0 -0.00000000000E+00 -0.00000000000E+00 -0.74505805969E-08  0.93827000000E+00  0.93827000000E+00 0.  1.
     999902    2    1    2    0    0 -0.78193502448E-02  0.21304878027E-01 -0.10925993143E-01  0.10187423564E+01  0.10184309359E+01 0.  0.
     999903    2    3    3    0    0  0.38140759365E-02  0.34547977094E-01 -0.12529142950E+00  0.13116691207E+00  0.17283131048E-01 0.  0.
         14    1    1    2    0    0  0.78193502448E-02 -0.21304878027E-01  0.10925993143E-01  0.25187643640E-01  0.00000000000E+00 0.  1.
     999901    1    3    3    0    0 -0.11633426181E-01 -0.13243099068E-01  0.11436543636E+00  0.88757544429E+00  0.88000000000E+00 0. -1.
        -11    1    4    4    0    0  0.10126443212E-01  0.25671292290E-01 -0.81878921704E-01  0.86405897024E-01  0.51100000000E-03 0.  1.
         11    1    4    4    0    0 -0.63123672755E-02  0.88766848041E-02 -0.43412507795E-01  0.44761015044E-01  0.51100000000E-03 0. -1.
</event>
<event>
 8    1  0.1143957E+005  0.1043930E+01  0.7957747E-01            NaN
         13   -1    0    0    0    0  0.00000000000E+00  0.00000000000E+00  0.74505805969E-08  0.10566000000E+00  0.10566000000E+00 0.  1.
     999900   -1    0    0    0    0 -0.00000000000E+00 -0.00000000000E+00 -0.74505805969E-08  0.93827000000E+00  0.93827000000E+00 0. -1.
     999902    2    1    2    0    0  0.15142381935E-01 -0.84102484590E-02 -0.17160565876E-01  0.10195474441E+01  0.10192558471E+01 0.  0.
     999903    2    3    3    0    0 -0.11202958617E+00 -0.17035217313E-01 -0.59202682852E-01  0.12937069810E+00  0.19773544541E-01 0.  0.
         14    1    1    2    0    0 -0.15142381935E-01  0.84102484590E-02  0.17160565876E-01  0.24382555874E-01  0.00000000000E+00 0.  1.
     999901    1    3    3    0    0  0.12717196811E+00  0.86249688540E-02  0.42042116977E-01  0.89017674602E+00  0.88000000000E+00 0.  1.
        -11    1    4    4    0    0 -0.64968461165E-01 -0.16258651036E-01 -0.26358023244E-01  0.71973961889E-01  0.51100000000E-03 0.  1.
         11    1    4    4    0    0 -0.47061125007E-01 -0.77656627671E-03 -0.32844659609E-01  0.57396736214E-01  0.51100000000E-03 0. -1.
</event>
<event>
 8    1  0.1143957E+005  0.1043930E+01  0.7957747E-01            NaN
         13   -1    0    0    0    0  0.00000000000E+00  0.00000000000E+00  0.74505805969E-08  0.10566000000E+00  0.10566000000E+00 0.  1.
     999900   -1    0    0    0    0 -0.00000000000E+00 -0.00000000000E+00 -0.74505805969E-08  0.93827000000E+00  0.93827000000E+00 0.  1.
     999902    2    1    2    0    0  0.11150958523E-01  0.33722779240E-02 -0.22335091830E-01  0.10187392783E+01  0.10184277808E+01 0.  0.
     999903    2    3    3    0    0  0.41915528650E-01  0.11672478936E+00  0.30685668078E-01  0.12935384348E+00  0.20229152389E-01 0.  0.
         14    1    1    2    0    0 -0.11150958523E-01 -0.33722779240E-02  0.22335091830E-01  0.25190721733E-01  0.00000000000E+00 0.  1.
     999901    1    3    3    0    0 -0.30764570127E-01 -0.11335251143E+00 -0.53020759909E-01  0.88938543478E+00  0.88000000000E+00 0.  1.
        -11    1    4    4    0    0  0.15530453785E-01  0.24547536661E-01  0.13120323796E-01  0.31877587242E-01  0.51100000000E-03 0.  1.
         11    1    4    4    0    0  0.26385074865E-01  0.92177252695E-01  0.17565344282E-01  0.97476256241E-01  0.51100000000E-03 0. -1.
</event>
<event>
 8    1  0.1143957E+005  0.1043930E+01  0.7957747E-01            NaN
         13   -1    0    0    0    0  0.00000000000E+00  0.00000000000E+00  0.74505805969E-08  0.10566000000E+00  0.10566000000E+00 0.  1.
     999900   -1    0    0    0    0 -0.00000000000E+00 -0.00000000000E+00 -0.74505805969E-08  0.93827000000E+00  0.93827000000E+00 0.  1.
     999902    2    1    2    0    0  0.12384303792E-02 -0.81393819802E-02  0.21474792745E-01  0.10209310876E+01  0.10206720020E+01 0.  0.
     999903    2    3    3    0    0  0.13663085748E-02 -0.10517278976E+00 -0.74371689971E-01  0.13042446390E+00  0.20401225679E-01 0.  0.
         14    1    1    2    0    0 -0.12384303792E-02  0.81393819802E-02 -0.21474792745E-01  0.22998912415E-01  0.00000000000E+00 0. -1.
     999901    1    3    3    0    0 -0.12787819555E-03  0.97033407781E-01  0.95846482716E-01  0.89050662369E+00  0.88000000000E+00 0. -1.
        -11    1    4    4    0    0  0.19053884936E-03 -0.84061842510E-01 -0.68598335815E-01  0.10850079478E+00  0.51100000000E-03 0.  1.
         11    1    4    4    0    0  0.11757697254E-02 -0.21110947250E-01 -0.57733541558E-02  0.21923669115E-01  0.51100000000E-03 0. -1.
</event>
<event>
 8    1  0.1143957E+005  0.1043930E+01  0.7957747E-01            NaN
         13   -1    0    0    0    0  0.00000000000E+00  0.00000000000E+00  0.74505805969E-08  0.10566000000E+00  0.10566000000E+00 0.  1.
     999900   -1    0    0    0    0 -0.00000000000E+00 -0.00000000000E+00 -0.74505805969E-08  0.93827000000E+00  0.93827000000E+00 0.  1.
     999902    2    1    2    0    0 -0.72076277046E-03  0.17889546240E-01 -0.16013444658E-01  0.10199094718E+01  0.10196265713E+01 0.  0.
     999903    2    3    3    0    0  0.45048975097E-01 -0.43060743953E-01 -0.11414019734E+00  0.13118079199E+00  0.17227237494E-01 0.  0.
         14    1    1    2    0    0  0.72076277046E-03 -0.17889546240E-01  0.16013444658E-01  0.24020528168E-01  0.00000000000E+00 0.  1.
     999901    1    3    3    0    0 -0.45769737868E-01  0.60950290193E-01  0.98126752682E-01  0.88872867984E+00  0.88000000000E+00 0. -1.
        -11    1    4    4    0    0  0.81285813049E-02 -0.11880384648E-01 -0.14497261947E-01  0.20436464919E-01  0.51100000000E-03 0.  1.
         11    1    4    4    0    0  0.36920393793E-01 -0.31180359305E-01 -0.99642935392E-01  0.11074432707E+00  0.51100000000E-03 0. -1.
</event>
<event>
 8    1  0.1143957E+005  0.1043930E+01  0.7957747E-01            NaN
         13   -1    0    0    0    0  0.00000000000E+00  0.00000000000E+00  0.74505805969E-08  0.10566000000E+00  0.10566000000E+00 0. -1.
     999900   -1    0    0    0    0 -0.00000000000E+00 -0.00000000000E+00 -0.74505805969E-08  0.93827000000E+00  0.93827000000E+00 0.  1.
     999902    2    1    2    0    0  0.32938604608E-02  0.43331991500E-02 -0.24017887143E-01  0.10193030831E+01  0.10190055399E+01 0.  0.
     999903    2    3    3    0    0  0.42501708107E-01  0.20870131405E-01  0.11648284684E+00  0.12714212137E+00  0.18838997913E-01 0.  0.
         14    1    1    2    0    0 -0.32938604608E-02 -0.43331991500E-02  0.24017887143E-01  0.24626916868E-01  0.00000000000E+00 0. -1.
     999901    1    3    3    0    0 -0.39207847646E-01 -0.16536932255E-01 -0.14050073398E+00  0.89216096176E+00  0.88000000000E+00 0.  1.
        -11    1    4    4    0    0  0.43175415744E-01  0.16874565228E-01  0.11110928064E+00  0.12039269430E+00  0.51100000000E-03 0. -1.
         11    1    4    4    0    0 -0.67370763655E-03  0.39955661775E-02  0.53735661973E-02  0.67494270671E-02  0.51100000000E-03 0.  1.
</event>
<event>
 8    1  0.1143957E+005  0.1043930E+01  0.7957747E-01            NaN
         13   -1    0    0    0    0  0.00000000000E+00  0.00000000000E+00  0.74505805969E-08  0.10566000000E+00  0.10566000000E+00 0. -1.
     999900   -1    0    0    0    0 -0.00000000000E+00 -0.00000000000E+00 -0.74505805969E-08  0.93827000000E+00  0.93827000000E+00 0.  1.
     999902    2    1    2    0    0  0.83509115048E-02 -0.14083684092E-01  0.17331739016E-01  0.10200872431E+01  0.10198085636E+01 0.  0.
     999903    2    3    3    0    0 -0.33076900464E-01 -0.10273906917E+00  0.75166369282E-01  0.13277620101E+00  0.18169722244E-01 0.  0.
         14    1    1    2    0    0 -0.83509115048E-02  0.14083684092E-01 -0.17331739016E-01  0.23842756927E-01  0.00000000000E+00 0.  1.
     999901    1    3    3    0    0  0.41427811968E-01  0.88655385075E-01 -0.57834630267E-01  0.88731104206E+00  0.88000000000E+00 0.  1.
        -11    1    4    4    0    0  0.44231864773E-03 -0.21786196250E-01  0.13647955657E-01  0.25716955641E-01  0.51100000000E-03 0. -1.
         11    1    4    4    0    0 -0.33519219111E-01 -0.80952872917E-01  0.61518413625E-01  0.10705924537E+00  0.51100000000E-03 0.  1.
</event>
<event>
 8    1  0.1143957E+005  0.1043930E+01  0.7957747E-01            NaN
         13   -1    0    0    0    0  0.00000000000E+00  0.00000000000E+00  0.74505805969E-08  0.10566000000E+00  0.10566000000E+00 0.  1.
     999900   -1    0    0    0    0 -0.00000000000E+00 -0.00000000000E+00 -0.74505805969E-08  0.93827000000E+00  0.93827000000E+00 0. -1.
     999902    2    1    2    0    0 -0.22555408149E-01 -0.84978342099E-02  0.21794682606E-02  0.10197285599E+01  0.10194413304E+01 0.  0.
     999903    2    3    3    0    0 -0.16450451499E-01 -0.86336241258E-01  0.95420231392E-01  0.13136493610E+00  0.20667897052E-01 0.  0.
         14    1    1    2    0    0  0.22555408149E-01  0.84978342099E-02 -0.21794682606E-02  0.24201440142E-01  0.00000000000E+00 0.  1.
     999901    1    3    3    0    0 -0.61049566500E-02  0.77838407048E-01 -0.93240763132E-01  0.88836362376E+00  0.88000000000E+00 0. -1.
        -11    1    4    4    0    0 -0.15292615392E-01 -0.73684253483E-01  0.69250997008E-01  0.10227020585E+00  0.51100000000E-03 0. -1.
         11    1    4    4    0    0 -0.11578361071E-02 -0.12651987775E-01  0.26169234384E-01  0.29094730250E-01  0.51100000000E-03 0.  1.
</event>
<event>
 8    1  0.1143957E+005  0.1043930E+01  0.7957747E-01            NaN
         13   -1    0    0    0    0  0.00000000000E+00  0.00000000000E+00  0.74505805969E-08  0.10566000000E+00  0.10566000000E+00 0.  1.
     999900   -1    0    0    0    0 -0.00000000000E+00 -0.00000000000E+00 -0.74505805969E-08  0.93827000000E+00  0.93827000000E+00 0. -1.
     999902    2    1    2    0    0  0.89176368534E-02  0.40093137952E-02  0.21059821868E-01  0.10207111512E+01  0.10204470291E+01 0.  0.
     999903    2    3    3    0    0 -0.29835544481E-02 -0.12846075900E+00  0.13479216010E-01  0.13068450880E+00  0.19638823159E-01 0.  0.
         14    1    1    2    0    0 -0.89176368534E-02 -0.40093137952E-02 -0.21059821868E-01  0.23218848836E-01  0.00000000000E+00 0. -1.
     999901    1    3    3    0    0  0.11901191302E-01  0.13247007279E+00  0.75806058579E-02  0.89002664237E+00  0.88000000000E+00 0.  1.
        -11    1    4    4    0    0 -0.48901892888E-02 -0.73426443783E-02  0.39390613228E-03  0.88456012112E-02  0.51100000000E-03 0. -1.
         11    1    4    4    0    0  0.19066348406E-02 -0.12111811462E+00  0.13085309878E-01  0.12183890758E+00  0.51100000000E-03 0.  1.
</event>
<event>
 8    1  0.1143957E+005  0.1043930E+01  0.7957747E-01            NaN
         13   -1    0    0    0    0  0.00000000000E+00  0.00000000000E+00  0.74505805969E-08  0.10566000000E+00  0.10566000000E+00 0.  1.
     999900   -1    0    0    0    0 -0.00000000000E+00 -0.00000000000E+00 -0.74505805969E-08  0.93827000000E+00  0.93827000000E+00 0. -1.
     999902    2    1    2    0    0 -0.18990853775E-01  0.11370102016E-01  0.99019417504E-02  0.10196816970E+01  0.10193933407E+01 0.  0.
     999903    2    3    3    0    0 -0.80663535450E-01 -0.13640803536E-01  0.10255289136E+00  0.13231860137E+00  0.17275394916E-01 0.  0.
         14    1    1    2    0    0  0.18990853775E-01 -0.11370102016E-01 -0.99019417504E-02  0.24248302979E-01  0.00000000000E+00 0. -1.
     999901    1    3    3    0    0  0.61672681675E-01  0.25010905552E-01 -0.92650949610E-01  0.88736309565E+00  0.88000000000E+00 0. -1.
        -11    1    4    4    0    0 -0.26097447654E-01 -0.11536971381E-01  0.42001214551E-01  0.50779342527E-01  0.51100000000E-03 0.  1.
         11    1    4    4    0    0 -0.54566087796E-01 -0.21038321550E-02  0.60551676809E-01  0.81539258842E-01  0.51100000000E-03 0. -1.
</event>
<event>
 8    1  0.1143957E+005  0.1043930E+01  0.7957747E-01            NaN
         13   -1    0    0    0    0  0.00000000000E+00  0.00000000000E+00  0.74505805969E-08  0.10566000000E+00  0.10566000000E+00 0.  1.
     999900   -1    0    0    0    0 -0.00000000000E+00 -0.00000000000E+00 -0.74505805969E-08  0.93827000000E+00  0.93827000000E+00 0. -1.
     999902    2    1    2    0    0  0.22420150228E-01 -0.49044916143E-02  0.60038008304E-02  0.10202073779E+01  0.10199315326E+01 0.  0.
     999903    2    3    3    0    0  0.56382795119E-01 -0.97559154466E-01 -0.65489089054E-01  0.13181018009E+00  0.19705191823E-01 0.  0.
         14    1    1    2    0    0 -0.22420150228E-01  0.49044916143E-02 -0.60038008304E-02  0.23722622086E-01  0.00000000000E+00 0. -1.
     999901    1    3    3    0    0 -0.33962644891E-01  0.92654662852E-01  0.71492889885E-01  0.88839719782E+00  0.88000000000E+00 0.  1.
        -11    1    4    4    0    0  0.33303663294E-01 -0.64523433545E-01 -0.31755194066E-01  0.79253144647E-01  0.51100000000E-03 0.  1.
         11    1    4    4    0    0  0.23079131825E-01 -0.33035720922E-01 -0.33733894988E-01  0.52557035444E-01  0.51100000000E-03 0. -1.
</event>
<event>
 8    1  0.1143957E+005  0.1043930E+01  0.7957747E-01            NaN
         13   -1    0    0    0    0  0.00000000000E+00  0.00000000000E+00  0.74505805969E-08  0.10566000000E+00  0.10566000000E+00 0. -1.
     999900   -1    0    0    0    0 -0.00000000000E+00 -0.00000000000E+00 -0.74505805969E-08  0.93827000000E+00  0.93827000000E+00 0. -1.
     999902    2    1    2    0    0 -0.10967726115E-01 -0.20633588004E-01  0.66668525317E-02  0.10196301462E+01  0.10193405477E+01 0.  0.
     999903    2    3    3    0    0  0.21020473946E-01  0.12196051130E+00 -0.21638785324E-01  0.12712942846E+00  0.19427503957E-01 0.  0.
         14    1    1    2    0    0  0.10967726115E-01  0.20633588004E-01 -0.66668525317E-02  0.24299853760E-01  0.00000000000E+00 0.  1.
     999901    1    3    3    0    0 -0.31988200062E-01 -0.14259409930E+00  0.28305637856E-01  0.89250071778E+00  0.88000000000E+00 0. -1.
        -11    1    4    4    0    0  0.35230106021E-02  0.74028544926E-01 -0.99454917625E-02  0.74778412627E-01  0.51100000000E-03 0.  1.
         11    1    4    4    0    0  0.17497463344E-01  0.47931966372E-01 -0.11693293561E-01  0.52351015836E-01  0.51100000000E-03 0. -1.
</event>
<event>
 8    1  0.1143957E+005  0.1043930E+01  0.7957747E-01            NaN
         13   -1    0    0    0    0  0.00000000000E+00  0.00000000000E+00  0.74505805969E-08  0.10566000000E+00  0.10566000000E+00 0. -1.
     999900   -1    0    0    0    0 -0.00000000000E+00 -0.00000000000E+00 -0.74505805969E-08  0.93827000000E+00  0.93827000000E+00 0. -1.
     999902    2    1    2    0    0 -0.13452954304E-01  0.21816824519E-02 -0.17738400944E-01  0.10215605435E+01  0.10213155983E+01 0.  0.
     999903    2    3    3    0    0 -0.93060646606E-02 -0.75547138939E-01  0.10364056530E+00  0.12982525773E+00  0.17867784664E-01 0.  0.
         14    1    1    2    0    0  0.13452954304E-01 -0.21816824519E-02  0.17738400944E-01  0.22369456540E-01  0.00000000000E+00 0.  1.
     999901    1    3    3    0    0 -0.41468896430E-02  0.77728821391E-01 -0.12137896624E+00  0.89173528573E+00  0.88000000000E+00 0. -1.
        -11    1    4    4    0    0 -0.96368211508E-02 -0.33330366520E-01  0.58498841976E-01  0.68015860560E-01  0.51100000000E-03 0. -1.
         11    1    4    4    0    0  0.33075649019E-03 -0.42216772419E-01  0.45141723321E-01  0.61809397171E-01  0.51100000000E-03 0.  1.
</event>
<event>
 8    1  0.1143957E+005  0.1043930E+01  0.7957747E-01            NaN
         13   -1    0    0    0    0  0.00000000000E+00  0.00000000000E+00  0.74505805969E-08  0.10566000000E+00  0.10566000000E+00 0. -1.
     999900   -1    0    0    0    0 -0.00000000000E+00 -0.00000000000E+00 -0.74505805969E-08  0.93827000000E+00  0.93827000000E+00 0.  1.
     999902    2    1    2    0    0  0.34831016203E-03  0.82421629309E-02  0.20888976504E-01  0.10214710617E+01  0.10212241311E+01 0.  0.
     999903    2    3    3    0    0  0.25577107905E-01 -0.10109493402E+00 -0.73866921373E-01  0.12929968065E+00  0.19690383659E-01 0.  0.
         14    1    1    2    0    0 -0.34831016203E-03 -0.82421629309E-02 -0.20888976504E-01  0.22458938290E-01  0.00000000000E+00 0.  1.
     999901    1    3    3    0    0 -0.25228797743E-01  0.10933709695E+00  0.94755897877E-01  0.89217138106E+00  0.88000000000E+00 0. -1.
        -11    1    4    4    0    0  0.46317101055E-02 -0.54917605520E-01 -0.33610281150E-01  0.64554691964E-01  0.51100000000E-03 0. -1.
         11    1    4    4    0    0  0.20945397799E-01 -0.46177328501E-01 -0.40256640223E-01  0.64744988683E-01  0.51100000000E-03 0.  1.
</event>
<event>
 8    1  0.1143957E+005  0.1043930E+01  0.7957747E-01            NaN
         13   -1    0    0    0    0  0.00000000000E+00  0.00000000000E+00  0.74505805969E-08  0.10566000000E+00  0.10566000000E+00 0. -1.
     999900   -1    0    0    0    0 -0.00000000000E+00 -0.00000000000E+00 -0.74505805969E-08  0.93827000000E+00  0.93827000000E+00 0.  1.
     999902    2    1    2    0    0  0.19728656748E-01 -0.61306019378E-02 -0.14393459336E-01  0.10187511230E+01  0.10184399220E+01 0.  0.
     999903    2    3    3    0    0  0.11312377972E+00  0.55789185161E-01  0.27582725258E-01  0.13065275617E+00  0.19997830961E-01 0.  0.
         14    1    1    2    0    0 -0.19728656748E-01  0.61306019378E-02  0.14393459336E-01  0.25178877037E-01  0.00000000000E+00 0. -1.
     999901    1    3    3    0    0 -0.93395122970E-01 -0.61919787099E-01 -0.41976184594E-01  0.88809836679E+00  0.88000000000E+00 0.  1.
        -11    1    4    4    0    0  0.32496585992E-01  0.68771984373E-02  0.10274302585E-01  0.34772782087E-01  0.51100000000E-03 0. -1.
         11    1    4    4    0    0  0.80627193727E-01  0.48911986724E-01  0.17308422674E-01  0.95879974082E-01  0.51100000000E-03 0.  1.
</event>
<event>
 8    1  0.1143957E+005  0.1043930E+01  0.7957747E-01            NaN
         13   -1    0    0    0    0  0.00000000000E+00  0.00000000000E+00  0.74505805969E-08  0.10566000000E+00  0.10566000000E+00 0.  1.
     999900   -1    0    0    0    0 -0.00000000000E+00 -0.00000000000E+00 -0.74505805969E-08  0.93827000000E+00  0.93827000000E+00 0. -1.
     999902    2    1    2    0    0 -0.11656638669E-01  0.12828034004E-01  0.19418623653E-01  0.10179008120E+01  0.10175679557E+01 0.  0.
     999903    2    3    3    0    0  0.11433305302E+00 -0.50629926264E-01  0.95711324244E-02  0.12661113510E+00  0.17416558432E-01 0.  0.
         14    1    1    2    0    0  0.11656638669E-01 -0.12828034004E-01 -0.19418623653E-01  0.26029187964E-01  0.00000000000E+00 0. -1.
     999901    1    3    3    0    0 -0.12598969169E+00  0.63457960268E-01  0.98474912282E-02  0.89128967694E+00  0.88000000000E+00 0. -1.
        -11    1    4    4    0    0  0.67078188210E-01 -0.38300977324E-01  0.90132639332E-02  0.77768555633E-01  0.51100000000E-03 0.  1.
         11    1    4    4    0    0  0.47254864813E-01 -0.12328948940E-01  0.55786849126E-03  0.48842579464E-01  0.51100000000E-03 0. -1.
</event>
<event>
 8    1  0.1143957E+005  0.1043930E+01  0.7957747E-01            NaN
         13   -1    0    0    0    0  0.00000000000E+00  0.00000000000E+00  0.74505805969E-08  0.10566000000E+00  0.10566000000E+00 0. -1.
     999900   -1    0    0    0    0 -0.00000000000E+00 -0.00000000000E+00 -0.74505805969E-08  0.93827000000E+00  0.93827000000E+00 0. -1.
     999902    2    1    2    0    0  0.12650089357E-01  0.12309010147E-01  0.16323480795E-01  0.10198885251E+01  0.10196051251E+01 0.  0.
     999903    2    3    3    0    0  0.87620768723E-01  0.55992324959E-01  0.80324751294E-01  0.13330801695E+00  0.22503825147E-01 0.  0.
         14    1    1    2    0    0 -0.12650089357E-01 -0.12309010147E-01 -0.16323480795E-01  0.24041474930E-01  0.00000000000E+00 0.  1.
     999901    1    3    3    0    0 -0.74970679366E-01 -0.43683314811E-01 -0.64001270499E-01  0.88658050812E+00  0.88000000000E+00 0.  1.
        -11    1    4    4    0    0  0.75620700665E-01  0.48734316052E-01  0.58338782790E-01  0.10722499069E+00  0.51100000000E-03 0.  1.
         11    1    4    4    0    0  0.12000068058E-01  0.72580089061E-02  0.21985968504E-01  0.26083026257E-01  0.51100000000E-03 0. -1.
</event>
<event>
 8    1  0.1143957E+005  0.1043930E+01  0.7957747E-01            NaN
         13   -1    0    0    0    0  0.00000000000E+00  0.00000000000E+00  0.74505805969E-08  0.10566000000E+00  0.10566000000E+00 0.  1.
     999900   -1    0    0    0    0 -0.00000000000E+00 -0.00000000000E+00 -0.74505805969E-08  0.93827000000E+00  0.93827000000E+00 0. -1.
     999902    2    1    2    0    0 -0.21866920538E-01  0.23186277639E-02  0.94493465622E-02  0.10199961662E+01  0.10197153283E+01 0.  0.
     999903    2    3    3    0    0 -0.25365942079E-01 -0.38159647992E-01 -0.11971093149E+00  0.12964055672E+00  0.19400440079E-01 0.  0.
         14    1    1    2    0    0  0.21866920538E-01 -0.23186277639E-02 -0.94493465622E-02  0.23933833771E-01  0.00000000000E+00 0. -1.
     999901    1    3    3    0    0  0.34990215413E-02  0.40478275755E-01  0.12916027805E+00  0.89035560951E+00  0.88000000000E+00 0.  1.
        -11    1    4    4    0    0 -0.47377204905E-03 -0.66409322080E-02 -0.38102400465E-01  0.38683077473E-01  0.51100000000E-03 0.  1.
         11    1    4    4    0    0 -0.24892170030E-01 -0.31518715784E-01 -0.81608531026E-01  0.90957479246E-01  0.51100000000E-03 0. -1.
</event>
<event>
 8    1  0.1143957E+005  0.1043930E+01  0.7957747E-01            NaN
         13   -1    0    0    0    0  0.00000000000E+00  0.00000000000E+00  0.74505805969E-08  0.10566000000E+00  0.10566000000E+00 0. -1.
     999900   -1    0    0    0    0 -0.00000000000E+00 -0.00000000000E+00 -0.74505805969E-08  0.93827000000E+00  0.93827000000E+00 0.  1.
     999902    2    1    2    0    0  0.72041364928E-02  0.19712408764E-01 -0.95085596047E-02  0.10208889204E+01  0.10206288731E+01 0.  0.
     999903    2    3    3    0    0  0.82224034579E-01 -0.77212704914E-01 -0.63271471509E-01  0.13076931416E+00  0.19358221945E-01 0.  0.
         14    1    1    2    0    0 -0.72041364928E-02 -0.19712408764E-01  0.95085596047E-02  0.23041079568E-01  0.00000000000E+00 0. -1.
     999901    1    3    3    0    0 -0.75019898087E-01  0.96925113678E-01  0.53762911904E-01  0.89011960627E+00  0.88000000000E+00 0. -1.
        -11    1    4    4    0    0  0.34408059811E-01 -0.25021259393E-01 -0.15096949999E-01  0.45145952441E-01  0.51100000000E-03 0.  1.
         11    1    4    4    0    0  0.47815974768E-01 -0.52191445521E-01 -0.48174521510E-01  0.85623361721E-01  0.51100000000E-03 0. -1.
</event>
<event>
 8    1  0.1143957E+005  0.1043930E+01  0.7957747E-01            NaN
         13   -1    0    0    0    0  0.00000000000E+00  0.00000000000E+00  0.74505805969E-08  0.10566000000E+00  0.10566000000E+00 0.  1.
     999900   -1    0    0    0    0 -0.00000000000E+00 -0.00000000000E+00 -0.74505805969E-08  0.93827000000E+00  0.93827000000E+00 0. -1.
     999902    2    1    2    0    0 -0.20570778769E-01 -0.59537232495E-02  0.10655301162E-01  0.10200105685E+01  0.10197300725E+01 0.  0.
     999903    2    3    3    0    0 -0.14728941826E-01 -0.10298557694E-01  0.12929960722E+00  0.13201874648E+00  0.19686517664E-01 0.  0.
         14    1    1    2    0    0  0.20570778769E-01  0.59537232495E-02 -0.10655301162E-01  0.23919431484E-01  0.00000000000E+00 0. -1.
     999901    1    3    3    0    0 -0.58418369424E-02  0.43448344449E-02 -0.11864430605E+00  0.88799182204E+00  0.88000000000E+00 0. -1.
        -11    1    4    4    0    0  0.25856236015E-03  0.50630854731E-02  0.20728801702E-01  0.21345866813E-01  0.51100000000E-03 0. -1.
         11    1    4    4    0    0 -0.14987504186E-01 -0.15361643167E-01  0.10857080551E+00  0.11067287967E+00  0.51100000000E-03 0.  1.
</event>
<event>
 8    1  0.1143957E+005  0.1043930E+01  0.7957747E-01            NaN
         13   -1    0    0    0    0  0.00000000000E+00  0.00000000000E+00  0.74505805969E-08  0.10566000000E+00  0.10566000000E+00 0.  1.
     999900   -1    0    0    0    0 -0.00000000000E+00 -0.00000000000E+00 -0.74505805969E-08  0.93827000000E+00  0.93827000000E+00 0.  1.
     999902    2    1    2    0    0 -0.16867955073E-01 -0.45895618891E-02 -0.13904379147E-01  0.10215933990E+01  0.10213491808E+01 0.  0.
     999903    2    3    3    0    0  0.32110127109E-01 -0.11091725295E+00  0.58107639827E-01  0.13092501999E+00  0.20764531971E-01 0.  0.
         14    1    1    2    0    0  0.16867955073E-01  0.45895618891E-02  0.13904379147E-01  0.22336601043E-01  0.00000000000E+00 0. -1.
     999901    1    3    3    0    0 -0.48978082182E-01  0.10632769106E+00 -0.72012018974E-01  0.89066837897E+00  0.88000000000E+00 0. -1.
        -11    1    4    4    0    0  0.33496198548E-01 -0.89575881108E-01  0.50991681469E-01  0.10838010193E+00  0.51100000000E-03 0.  1.
         11    1    4    4    0    0 -0.13860714390E-02 -0.21341371840E-01  0.71159583580E-02  0.22544918062E-01  0.51100000000E-03 0. -1.
</event>
<event>
 8    1  0.1157008E+005  0.1043930E+01  0.7957747E-01            NaN
         13   -1    0    0    0    0  0.00000000000E+00  0.00000000000E+00  0.74505805969E-08  0.10566000000E+00  0.10566000000E+00 0.  1.
     999900   -1    0    0    0    0 -0.00000000000E+00 -0.00000000000E+00 -0.74505805969E-08  0.93827000000E+00  0.93827000000E+00 0.  1.
     999902    2    1    2    0    0 -0.92789704820E-02  0.11784604396E-01  0.18220285112E-01  0.10203301063E+01  0.10200571409E+01 0.  0.
     999903    2    3    3    0    0 -0.97564530218E-01 -0.79452205438E-01  0.32936917998E-01  0.13109724881E+00  0.16436470800E-01 0.  0.
         14    1    1    2    0    0  0.92789704820E-02 -0.11784604396E-01 -0.18220285112E-01  0.23599893719E-01  0.00000000000E+00 0. -1.
     999901    1    3    3    0    0  0.88285559736E-01  0.91236809834E-01 -0.14716632886E-01  0.88923285747E+00  0.88000000000E+00 0.  1.
        -11    1    4    4    0    0 -0.51388722398E-01 -0.32376160538E-01  0.19549495631E-01  0.63807996844E-01  0.51100000000E-03 0.  1.
         11    1    4    4    0    0 -0.46175807820E-01 -0.47076044900E-01  0.13387422367E-01  0.67289251964E-01  0.51100000000E-03 0. -1.
</event>
<event>
 8    1  0.1143957E+005  0.1043930E+01  0.7957747E-01            NaN
         13   -1    0    0    0    0  0.00000000000E+00  0.00000000000E+00  0.74505805969E-08  0.10566000000E+00  0.10566000000E+00 0.  1.
     999900   -1    0    0    0    0 -0.00000000000E+00 -0.00000000000E+00 -0.74505805969E-08  0.93827000000E+00  0.93827000000E+00 0. -1.
     999902    2    1    2    0    0  0.48812287595E-02 -0.15410862677E-01  0.30916362586E-01  0.10090424297E+01  0.10084391318E+01 0.  0.
     999903    2    3    3    0    0 -0.35043856623E-01 -0.67262881265E-01 -0.88717496993E-01  0.11853981626E+00  0.20700886030E-01 0.  0.
         14    1    1    2    0    0 -0.48812287595E-02  0.15410862677E-01 -0.30916362586E-01  0.34887570253E-01  0.00000000000E+00 0. -1.
     999901    1    3    3    0    0  0.39925085382E-01  0.51852018588E-01  0.11963385958E+00  0.89050261349E+00  0.88000000000E+00 0.  1.
        -11    1    4    4    0    0 -0.10153320507E-01 -0.26672248033E-01 -0.48197323163E-01  0.56015549747E-01  0.51100000000E-03 0. -1.
         11    1    4    4    0    0 -0.24890536116E-01 -0.40590633232E-01 -0.40520173830E-01  0.62524266510E-01  0.51100000000E-03 0.  1.
</event>
<event>
 8    1  0.1143957E+005  0.1043930E+01  0.7957747E-01            NaN
         13   -1    0    0    0    0  0.00000000000E+00  0.00000000000E+00  0.74505805969E-08  0.10566000000E+00  0.10566000000E+00 0.  1.
     999900   -1    0    0    0    0 -0.00000000000E+00 -0.00000000000E+00 -0.74505805969E-08  0.93827000000E+00  0.93827000000E+00 0. -1.
     999902    2    1    2    0    0  0.12109456382E-01 -0.20074753748E-01  0.11580248586E-02  0.10204571286E+01  0.10201871277E+01 0.  0.
     999903    2    3    3    0    0 -0.94351721226E-01  0.82722749953E-01 -0.16130691514E-01  0.12793250211E+00  0.19005926189E-01 0.  0.
         14    1    1    2    0    0 -0.12109456382E-01  0.20074753748E-01 -0.11580248586E-02  0.23472871437E-01  0.00000000000E+00 0.  1.
     999901    1    3    3    0    0  0.10646117761E+00 -0.10279750370E+00  0.17288716373E-01  0.89252462645E+00  0.88000000000E+00 0.  1.
        -11    1    4    4    0    0 -0.19445448018E-01  0.26303940808E-01 -0.87471868023E-02  0.33864393522E-01  0.51100000000E-03 0.  1.
         11    1    4    4    0    0 -0.74906273207E-01  0.56418809145E-01 -0.73835047121E-02  0.94068108592E-01  0.51100000000E-03 0. -1.
</event>
<event>
 8    1  0.1143957E+005  0.1043930E+01  0.7957747E-01            NaN
         13   -1    0    0    0    0  0.00000000000E+00  0.00000000000E+00  0.74505805969E-08  0.10566000000E+00  0.10566000000E+00 0. -1.
     999900   -1    0    0    0    0 -0.00000000000E+00 -0.00000000000E+00 -0.74505805969E-08  0.93827000000E+00  0.93827000000E+00 0. -1.
     999902    2    1    2    0    0 -0.11932231446E-01  0.59495653388E-02  0.19249039454E-01  0.10205141721E+01  0.10202454972E+01 0.  0.
     999903    2    3    3    0    0  0.41127538972E-01 -0.10333864263E+00  0.65650573810E-01  0.13095677992E+00  0.21664044976E-01 0.  0.
         14    1    1    2    0    0  0.11932231446E-01 -0.59495653388E-02 -0.19249039454E-01  0.23415827872E-01  0.00000000000E+00 0.  1.
     999901    1    3    3    0    0 -0.53059770418E-01  0.10928820796E+00 -0.46401534356E-01  0.88955739221E+00  0.88000000000E+00 0.  1.
        -11    1    4    4    0    0  0.14578071577E-01 -0.64455256678E-01  0.35097873543E-01  0.74827282007E-01  0.51100000000E-03 0. -1.
         11    1    4    4    0    0  0.26549467396E-01 -0.38883385947E-01  0.30552700267E-01  0.56129497916E-01  0.51100000000E-03 0.  1.
</event>
<event>
 8    1  0.1143957E+005  0.1043930E+01  0.7957747E-01            NaN
         13   -1    0    0    0    0  0.00000000000E+00  0.00000000000E+00  0.74505805969E-08  0.10566000000E+00  0.10566000000E+00 0.  1.
     999900   -1    0    0    0    0 -0.00000000000E+00 -0.00000000000E+00 -0.74505805969E-08  0.93827000000E+00  0.93827000000E+00 0.  1.
     999902    2    1    2    0    0  0.17005192795E-01 -0.15777276545E-01 -0.42133453545E-02  0.10203535008E+01  0.10200810827E+01 0.  0.
     999903    2    3    3    0    0 -0.34091598256E-01  0.11750701429E+00 -0.31808900960E-01  0.12842463649E+00  0.22604105745E-01 0.  0.
         14    1    1    2    0    0 -0.17005192795E-01  0.15777276545E-01  0.42133453545E-02  0.23576499237E-01  0.00000000000E+00 0.  1.
     999901    1    3    3    0    0  0.51096791051E-01 -0.13328429084E+00  0.27595555606E-01  0.89192886428E+00  0.88000000000E+00 0.  1.
        -11    1    4    4    0    0 -0.18579626914E-01  0.43110526055E-01 -0.26390144501E-02  0.47020692373E-01  0.51100000000E-03 0. -1.
         11    1    4    4    0    0 -0.15511971342E-01  0.74396488239E-01 -0.29169886510E-01  0.81403944113E-01  0.51100000000E-03 0.  1.
</event>
<event>
 8    1  0.1143957E+005  0.1043930E+01  0.7957747E-01            NaN
         13   -1    0    0    0    0  0.00000000000E+00  0.00000000000E+00  0.74505805969E-08  0.10566000000E+00  0.10566000000E+00 0.  1.
     999900   -1    0    0    0    0 -0.00000000000E+00 -0.00000000000E+00 -0.74505805969E-08  0.93827000000E+00  0.93827000000E+00 0. -1.
     999902    2    1    2    0    0  0.59949826327E-02 -0.12015951829E-01  0.21800910389E-01  0.10183252620E+01  0.10180033087E+01 0.  0.
     999903    2    3    3    0    0  0.54470393650E-01 -0.98848127982E-01  0.64728771058E-01  0.13168413192E+00  0.20320448030E-01 0.  0.
         14    1    1    2    0    0 -0.59949826327E-02  0.12015951829E-01 -0.21800910389E-01  0.25604738017E-01  0.00000000000E+00 0.  1.
     999901    1    3    3    0    0 -0.48475411017E-01  0.86832176153E-01 -0.42927860669E-01  0.88664113006E+00  0.88000000000E+00 0. -1.
        -11    1    4    4    0    0  0.29723711634E-01 -0.58452057351E-01  0.26195113200E-01  0.70615771032E-01  0.51100000000E-03 0.  1.
         11    1    4    4    0    0  0.24746682016E-01 -0.40396070631E-01  0.38533657858E-01  0.61068360893E-01  0.51100000000E-03 0. -1.
</event>
<event>
 8    1  0.1143957E+005  0.1043930E+01  0.7957747E-01            NaN
         13   -1    0    0    0    0  0.00000000000E+00  0.00000000000E+00  0.74505805969E-08  0.10566000000E+00  0.10566000000E+00 0.  1.
     999900   -1    0    0    0    0 -0.00000000000E+00 -0.00000000000E+00 -0.74505805969E-08  0.93827000000E+00  0.93827000000E+00 0.  1.
     999902    2    1    2    0    0 -0.11949824469E-01 -0.14642300567E-01  0.13792019143E-01  0.10205330972E+01  0.10202648614E+01 0.  0.
     999903    2    3    3    0    0  0.13495127197E-01 -0.79429828110E-01 -0.10067281704E+00  0.13039430572E+00  0.19402134494E-01 0.  0.
         14    1    1    2    0    0  0.11949824469E-01  0.14642300567E-01 -0.13792019143E-01  0.23396902846E-01  0.00000000000E+00 0. -1.
     999901    1    3    3    0    0 -0.25444951667E-01  0.64787527543E-01  0.11446483618E+00  0.89013879143E+00  0.88000000000E+00 0. -1.
        -11    1    4    4    0    0 -0.45010921508E-02 -0.11651738491E-01 -0.19010355443E-01  0.22752528991E-01  0.51100000000E-03 0.  1.
         11    1    4    4    0    0  0.17996219348E-01 -0.67778089620E-01 -0.81662461593E-01  0.10764177673E+00  0.51100000000E-03 0. -1.
</event>
<event>
 8    1  0.1143957E+005  0.1043930E+01  0.7957747E-01            NaN
         13   -1    0    0    0    0  0.00000000000E+00  0.00000000000E+00  0.74505805969E-08  0.10566000000E+00  0.10566000000E+00 0.  1.
     999900   -1    0    0    0    0 -0.00000000000E+00 -0.00000000000E+00 -0.74505805969E-08  0.93827000000E+00  0.93827000000E+00 0.  1.
     999902    2    1    2    0    0  0.19167291602E-01  0.10872021690E-01  0.92706935200E-02  0.10200232712E+01  0.10197430765E+01 0.  0.
     999903    2    3    3    0    0 -0.11894468553E+00  0.42819030490E-01  0.77054890005E-02  0.12867710980E+00  0.22740194324E-01 0.  0.
         14    1    1    2    0    0 -0.19167291602E-01 -0.10872021690E-01 -0.92706935200E-02  0.23906728788E-01  0.00000000000E+00 0. -1.
     999901    1    3    3    0    0  0.13811197713E+00 -0.31947008800E-01  0.15652045195E-02  0.89134616141E+00  0.88000000000E+00 0. -1.
        -11    1    4    4    0    0 -0.71517388256E-01  0.35210402906E-01 -0.16698814280E-02  0.79734302033E-01  0.51100000000E-03 0. -1.
         11    1    4    4    0    0 -0.47427297274E-01  0.76086275838E-02  0.93753704285E-02  0.48942807767E-01  0.51100000000E-03 0.  1.
</event>
<event>
 8    1  0.1143957E+005  0.1043930E+01  0.7957747E-01            NaN
         13   -1    0    0    0    0  0.00000000000E+00  0.00000000000E+00  0.74505805969E-08  0.10566000000E+00  0.10566000000E+00 0. -1.
     999900   -1    0    0    0    0 -0.00000000000E+00 -0.00000000000E+00 -0.74505805969E-08  0.93827000000E+00  0.93827000000E+00 0.  1.
     999902    2    1    2    0    0 -0.18409621341E-01  0.86630025578E-02  0.43525015981E-02  0.10231236058E+01  0.10229120229E+01 0.  0.
     999903    2    3    3    0    0 -0.37171821224E-01  0.71881537847E-01 -0.10479599817E+00  0.13393183884E+00  0.20170187087E-01 0.  0.
         14    1    1    2    0    0  0.18409621341E-01 -0.86630025578E-02 -0.43525015981E-02  0.20806394243E-01  0.00000000000E+00 0.  1.
     999901    1    3    3    0    0  0.18762199882E-01 -0.63218535289E-01  0.10914849977E+00  0.88919176692E+00  0.88000000000E+00 0. -1.
        -11    1    4    4    0    0 -0.30644547931E-01  0.42985219566E-01 -0.56956087182E-01  0.77659992320E-01  0.51100000000E-03 0.  1.
         11    1    4    4    0    0 -0.65272732932E-02  0.28896318281E-01 -0.47839910986E-01  0.56271846522E-01  0.51100000000E-03 0. -1.
</event>
<event>
 8    1  0.1143957E+005  0.1043930E+01  0.7957747E-01            NaN
         13   -1    0    0    0    0  0.00000000000E+00  0.00000000000E+00  0.74505805969E-08  0.10566000000E+00  0.10566000000E+00 0.  1.
     999900   -1    0    0    0    0 -0.00000000000E+00 -0.00000000000E+00 -0.74505805969E-08  0.93827000000E+00  0.93827000000E+00 0. -1.
     999902    2    1    2    0    0  0.68057582970E-02 -0.17450006216E-01  0.15137394772E-01  0.10198476043E+01  0.10195632272E+01 0.  0.
     999903    2    3    3    0    0  0.31485640568E-01 -0.75835843481E-02  0.12707522833E+00  0.13235871903E+00  0.17940471995E-01 0.  0.
         14    1    1    2    0    0 -0.68057582970E-02  0.17450006216E-01 -0.15137394772E-01  0.24082395716E-01  0.00000000000E+00 0. -1.
     999901    1    3    3    0    0 -0.24679882271E-01 -0.98664218684E-02 -0.11193783355E+00  0.88748888525E+00  0.88000000000E+00 0. -1.
        -11    1    4    4    0    0  0.19828722594E-02  0.30814548744E-02  0.44697307435E-02  0.58023064776E-02  0.51100000000E-03 0.  1.
         11    1    4    4    0    0  0.29502768309E-01 -0.10665039223E-01  0.12260549758E+00  0.12655641255E+00  0.51100000000E-03 0. -1.
</event>
<event>
 8    1  0.1143957E+005  0.1043930E+01  0.7957747E-01            NaN
         13   -1    0    0    0    0  0.00000000000E+00  0.00000000000E+00  0.74505805969E-08  0.10566000000E+00  0.10566000000E+00 0. -1.
     999900   -1    0    0    0    0 -0.00000000000E+00 -0.00000000000E+00 -0.74505805969E-08  0.93827000000E+00  0.93827000000E+00 0.  1.
     999902    2    1    2    0    0  0.58980071842E-02  0.23059706859E-01 -0.36257039749E-02  0.10198534077E+01  0.10195691692E+01 0.  0.
     999903    2    3    3    0    0  0.39942563600E-02  0.13047535889E+00 -0.16969254643E-01  0.13321943758E+00  0.20486326722E-01 0.  0.
         14    1    1    2    0    0 -0.58980071842E-02 -0.23059706859E-01  0.36257039749E-02  0.24076592335E-01  0.00000000000E+00 0. -1.
     999901    1    3    3    0    0  0.19037508242E-02 -0.10741565204E+00  0.13343550668E-01  0.88663397009E+00  0.88000000000E+00 0.  1.
        -11    1    4    4    0    0  0.11512039112E-01  0.76939595597E-01 -0.14216013707E-01  0.79085931630E-01  0.51100000000E-03 0.  1.
         11    1    4    4    0    0 -0.75177827521E-02  0.53535763298E-01 -0.27532409357E-02  0.54133505946E-01  0.51100000000E-03 0. -1.
</event>
<event>
 8    1  0.1143957E+005  0.1043930E+01  0.7957747E-01            NaN
         13   -1    0    0    0    0  0.00000000000E+00  0.00000000000E+00  0.74505805969E-08  0.10566000000E+00  0.10566000000E+00 0. -1.
     999900   -1    0    0    0    0 -0.00000000000E+00 -0.00000000000E+00 -0.74505805969E-08  0.93827000000E+00  0.93827000000E+00 0. -1.
     999902    2    1    2    0    0  0.85188142589E-02 -0.31214824783E-02 -0.21677176784E-01  0.10204307693E+01  0.10201601546E+01 0.  0.
     999903    2    3    3    0    0  0.12141158651E+00  0.31411629718E-01  0.32237360714E-01  0.13091174692E+00  0.19265882661E-01 0.  0.
         14    1    1    2    0    0 -0.85188142589E-02  0.31214824783E-02  0.21677176784E-01  0.23499230680E-01  0.00000000000E+00 0. -1.
     999901    1    3    3    0    0 -0.11289277225E+00 -0.34533112197E-01 -0.53914537498E-01  0.88951902240E+00  0.88000000000E+00 0. -1.
        -11    1    4    4    0    0  0.63193362411E-01  0.85325650088E-02  0.10146077568E-01  0.64570966614E-01  0.51100000000E-03 0.  1.
         11    1    4    4    0    0  0.58218224098E-01  0.22879064709E-01  0.22091283147E-01  0.66340780302E-01  0.51100000000E-03 0. -1.
</event>
<event>
 8    1  0.1143957E+005  0.1043930E+01  0.7957747E-01            NaN
         13   -1    0    0    0    0  0.00000000000E+00  0.00000000000E+00  0.74505805969E-08  0.10566000000E+00  0.10566000000E+00 0. -1.
     999900   -1    0    0    0    0 -0.00000000000E+00 -0.00000000000E+00 -0.74505805969E-08  0.93827000000E+00  0.93827000000E+00 0. -1.
     999902    2    1    2    0    0  0.99580414675E-03  0.22395643283E-01  0.29787342886E-03  0.10215102499E+01  0.10212641899E+01 0.  0.
     999903    2    3    3    0    0  0.10643936319E+00  0.40403498066E-01  0.65117021552E-01  0.13266597284E+00  0.19956281273E-01 0.  0.
         14    1    1    2    0    0 -0.99580414675E-03 -0.22395643283E-01 -0.29787342886E-03  0.22419750055E-01  0.00000000000E+00 0.  1.
     999901    1    3    3    0    0 -0.10544355904E+00 -0.18007854783E-01 -0.64819148123E-01  0.88884427710E+00  0.88000000000E+00 0. -1.
        -11    1    4    4    0    0  0.73195480237E-01  0.21610022849E-01  0.34685380556E-01  0.83832619904E-01  0.51100000000E-03 0. -1.
         11    1    4    4    0    0  0.33243882951E-01  0.18793475216E-01  0.30431640996E-01  0.48833352937E-01  0.51100000000E-03 0.  1.
</event>
<event>
 8    1  0.1143957E+005  0.1043930E+01  0.7957747E-01            NaN
         13   -1    0    0    0    0  0.00000000000E+00  0.00000000000E+00  0.74505805969E-08  0.10566000000E+00  0.10566000000E+00 0.  1.
     999900   -1    0    0    0    0 -0.00000000000E+00 -0.00000000000E+00 -0.74505805969E-08  0.93827000000E+00  0.93827000000E+00 0. -1.
     999902    2    1    2    0    0 -0.62219903265E-02 -0.26310157458E-02  0.23336702143E-01  0.10196352048E+01  0.10193457283E+01 0.  0.
     999903    2    3    3    0    0 -0.91922244719E-01  0.27586023640E-01 -0.82814101909E-01  0.12861017917E+00  0.21718999458E-01 0.  0.
         14    1    1    2    0    0  0.62219903265E-02  0.26310157458E-02 -0.23336702143E-01  0.24294795212E-01  0.00000000000E+00 0. -1.
     999901    1    3    3    0    0  0.85700254392E-01 -0.30217039386E-01  0.10615080405E+00  0.89102502562E+00  0.88000000000E+00 0.  1.
        -11    1    4    4    0    0 -0.52482035601E-02  0.38179753128E-02 -0.13920364897E-01  0.15367441425E-01  0.51100000000E-03 0.  1.
         11    1    4    4    0    0 -0.86674041159E-01  0.23768048327E-01 -0.68893737012E-01  0.11324273775E+00  0.51100000000E-03 0. -1.
</event>
<event>
 8    1  0.1143957E+005  0.1043930E+01  0.7957747E-01            NaN
         13   -1    0    0    0    0  0.00000000000E+00  0.00000000000E+00  0.74505805969E-08  0.10566000000E+00  0.10566000000E+00 0.  1.
     999900   -1    0    0    0    0 -0.00000000000E+00 -0.00000000000E+00 -0.74505805969E-08  0.93827000000E+00  0.93827000000E+00 0. -1.
     999902    2    1    2    0    0 -0.18768790073E-01 -0.82958224019E-02  0.10979886366E-01  0.10206567094E+01  0.10203913330E+01 0.  0.
     999903    2    3    3    0    0  0.20602811093E-01  0.12527377601E+00  0.17021140656E-01  0.12968675630E+00  0.20271673580E-01 0.  0.
         14    1    1    2    0    0  0.18768790073E-01  0.82958224019E-02 -0.10979886366E-01  0.23273290587E-01  0.00000000000E+00 0. -1.
     999901    1    3    3    0    0 -0.39371601166E-01 -0.13356959841E+00 -0.60412542904E-02  0.89096995311E+00  0.88000000000E+00 0. -1.
        -11    1    4    4    0    0  0.12986769644E-01  0.35416886946E-01  0.11038382173E-01  0.39308002604E-01  0.51100000000E-03 0. -1.
         11    1    4    4    0    0  0.76160414494E-02  0.89856889063E-01  0.59827584834E-02  0.90378753696E-01  0.51100000000E-03 0.  1.
</event>
<event>
 8    1  0.1143957E+005  0.1043930E+01  0.7957747E-01            NaN
         13   -1    0    0    0    0  0.00000000000E+00  0.00000000000E+00  0.74505805969E-08  0.10566000000E+00  0.10566000000E+00 0. -1.
     999900   -1    0    0    0    0 -0.00000000000E+00 -0.00000000000E+00 -0.74505805969E-08  0.93827000000E+00  0.93827000000E+00 0.  1.
     999902    2    1    2    0    0 -0.12911529010E-01 -0.60463734488E-02  0.17461647056E-01  0.10213872555E+01  0.10211384579E+01 0.  0.
     999903    2    3    3    0    0 -0.12044812153E+00 -0.27606039976E-02 -0.51225033100E-01  0.13217818272E+00  0.18212552177E-01 0.  0.
         14    1    1    2    0    0  0.12911529010E-01  0.60463734488E-02 -0.17461647056E-01  0.22542744535E-01  0.00000000000E+00 0.  1.
     999901    1    3    3    0    0  0.10753659252E+00 -0.32857694511E-02  0.68686680156E-01  0.88920907274E+00  0.88000000000E+00 0. -1.
        -11    1    4    4    0    0 -0.33310895408E-01 -0.53833683492E-02 -0.21764891936E-01  0.40156793318E-01  0.51100000000E-03 0.  1.
         11    1    4    4    0    0 -0.87137226126E-01  0.26227643516E-02 -0.29460141165E-01  0.92021389406E-01  0.51100000000E-03 0. -1.
</event>
<event>
 8    1  0.1143957E+005  0.1043930E+01  0.7957747E-01            NaN
         13   -1    0    0    0    0  0.00000000000E+00  0.00000000000E+00  0.74505805969E-08  0.10566000000E+00  0.10566000000E+00 0.  1.
     999900   -1    0    0    0    0 -0.00000000000E+00 -0.00000000000E+00 -0.74505805969E-08  0.93827000000E+00  0.93827000000E+00 0.  1.
     999902    2    1    2    0    0  0.20886546455E-01  0.75594027604E-02  0.12653705175E-01  0.10183661848E+01  0.10180452729E+01 0.  0.
     999903    2    3    3    0    0 -0.16128352476E-01 -0.19028898938E-01 -0.12240639565E+00  0.12689645937E+00  0.22297151298E-01 0.  0.
         14    1    1    2    0    0 -0.20886546455E-01 -0.75594027604E-02 -0.12653705175E-01  0.25563815200E-01  0.00000000000E+00 0. -1.
     999901    1    3    3    0    0  0.37014898930E-01  0.26588301698E-01  0.13506010082E+00  0.89146972543E+00  0.88000000000E+00 0. -1.
        -11    1    4    4    0    0 -0.56456591566E-02 -0.18528242830E-01 -0.10320668032E+00  0.10500975781E+00  0.51100000000E-03 0.  1.
         11    1    4    4    0    0 -0.10482693319E-01 -0.50065610793E-03 -0.19199715323E-01  0.21886701562E-01  0.51100000000E-03 0. -1.
</event>
<event>
 8    1  0.1143957E+005  0.1043930E+01  0.7957747E-01            NaN
         13   -1    0    0    0    0  0.00000000000E+00  0.00000000000E+00  0.74505805969E-08  0.10566000000E+00  0.10566000000E+00 0. -1.
     999900   -1    0    0    0    0 -0.00000000000E+00 -0.00000000000E+00 -0.74505805969E-08  0.93827000000E+00  0.93827000000E+00 0. -1.
     999902    2    1    2    0    0 -0.23214097896E-01  0.15658012070E-02 -0.48937497842E-02  0.10201540697E+01  0.10198769686E+01 0.  0.
     999903    2    3    3    0    0  0.13077551862E-01 -0.93702782051E-01  0.86821754628E-01  0.12953354414E+00  0.17020230753E-01 0.  0.
         14    1    1    2    0    0  0.23214097896E-01 -0.15658012070E-02  0.48937497842E-02  0.23775930297E-01  0.00000000000E+00 0. -1.
     999901    1    3    3    0    0 -0.36291649757E-01  0.95268583258E-01 -0.91715504413E-01  0.89062052556E+00  0.88000000000E+00 0. -1.
        -11    1    4    4    0    0  0.11343618080E-01 -0.43612276665E-01  0.50173858777E-01  0.67441719822E-01  0.51100000000E-03 0.  1.
         11    1    4    4    0    0  0.17339337820E-02 -0.50090505387E-01  0.36647895851E-01  0.62091824322E-01  0.51100000000E-03 0. -1.
</event>
<event>
 8    1  0.1143957E+005  0.1043930E+01  0.7957747E-01            NaN
         13   -1    0    0    0    0  0.00000000000E+00  0.00000000000E+00  0.74505805969E-08  0.10566000000E+00  0.10566000000E+00 0. -1.
     999900   -1    0    0    0    0 -0.00000000000E+00 -0.00000000000E+00 -0.74505805969E-08  0.93827000000E+00  0.93827000000E+00 0. -1.
     999902    2    1    2    0    0  0.82548645705E-02  0.86360358263E-02 -0.20468456773E-01  0.10202301767E+01  0.10199548675E+01 0.  0.
     999903    2    3    3    0    0  0.67381235785E-01 -0.32429412335E-01 -0.10809885632E+00  0.13295266329E+00  0.19978744161E-01 0.  0.
         14    1    1    2    0    0 -0.82548645705E-02 -0.86360358263E-02  0.20468456773E-01  0.23699823344E-01  0.00000000000E+00 0. -1.
     999901    1    3    3    0    0 -0.59126371215E-01  0.41065448161E-01  0.87630399542E-01  0.88727751337E+00  0.88000000000E+00 0.  1.
        -11    1    4    4    0    0  0.51990297060E-01 -0.24374384945E-01 -0.66450696993E-01  0.87824016543E-01  0.51100000000E-03 0.  1.
         11    1    4    4    0    0  0.15390938726E-01 -0.80550273898E-02 -0.41648159322E-01  0.45128646745E-01  0.51100000000E-03 0. -1.
</event>
<event>
 8    1  0.1143957E+005  0.1043930E+01  0.7957747E-01            NaN
         13   -1    0    0    0    0  0.00000000000E+00  0.00000000000E+00  0.74505805969E-08  0.10566000000E+00  0.10566000000E+00 0.  1.
     999900   -1    0    0    0    0 -0.00000000000E+00 -0.00000000000E+00 -0.74505805969E-08  0.93827000000E+00  0.93827000000E+00 0.  1.
     999902    2    1    2    0    0  0.71816988902E-02  0.21249977917E-01 -0.10783654645E-01  0.10190417384E+01  0.10187377675E+01 0.  0.
     999903    2    3    3    0    0  0.10308866672E-01  0.38953683980E-01 -0.12371351225E+00  0.13164309449E+00  0.20030201878E-01 0.  0.
         14    1    1    2    0    0 -0.71816988902E-02 -0.21249977917E-01  0.10783654645E-01  0.24888261650E-01  0.00000000000E+00 0.  1.
     999901    1    3    3    0    0 -0.31271677821E-02 -0.17703706062E-01  0.11292985760E+00  0.88739864386E+00  0.88000000000E+00 0. -1.
        -11    1    4    4    0    0  0.16022058197E-01  0.23070493393E-01 -0.75431564666E-01  0.80493080965E-01  0.51100000000E-03 0.  1.
         11    1    4    4    0    0 -0.57131915243E-02  0.15883190586E-01 -0.48281947579E-01  0.51150013525E-01  0.51100000000E-03 0. -1.
</event>
<event>
 8    1  0.1143957E+005  0.1043930E+01  0.7957747E-01            NaN
         13   -1    0    0    0    0  0.00000000000E+00  0.00000000000E+00  0.74505805969E-08  0.10566000000E+00  0.10566000000E+00 0. -1.
     999900   -1    0    0    0    0 -0.00000000000E+00 -0.00000000000E+00 -0.74505805969E-08  0.93827000000E+00  0.93827000000E+00 0.  1.
     999902    2    1    2    0    0 -0.18990465806E-02 -0.22509798830E-01  0.44932776445E-02  0.10208976974E+01  0.10206378503E+01 0.  0.
     999903    2    3    3    0    0 -0.62535619754E-01  0.26641853969E-01  0.11027722486E+00  0.13113204143E+00  0.20348313067E-01 0.  0.
         14    1    1    2    0    0  0.18990465806E-02  0.22509798830E-01 -0.44932776445E-02  0.23032302648E-01  0.00000000000E+00 0.  1.
     999901    1    3    3    0    0  0.60636573174E-01 -0.49151652799E-01 -0.10578394721E+00  0.88976565593E+00  0.88000000000E+00 0.  1.
        -11    1    4    4    0    0 -0.31344020702E-01  0.24271199030E-01  0.59980159720E-01  0.71898674655E-01  0.51100000000E-03 0.  1.
         11    1    4    4    0    0 -0.31191599052E-01  0.23706549391E-02  0.50297065140E-01  0.59233366770E-01  0.51100000000E-03 0. -1.
</event>
<event>
 8    1  0.1143957E+005  0.1043930E+01  0.7957747E-01            NaN
         13   -1    0    0    0    0  0.00000000000E+00  0.00000000000E+00  0.74505805969E-08  0.10566000000E+00  0.10566000000E+00 0. -1.
     999900   -1    0    0    0    0 -0.00000000000E+00 -0.00000000000E+00 -0.74505805969E-08  0.93827000000E+00  0.93827000000E+00 0.  1.
     999902    2    1    2    0    0 -0.17834071182E-01 -0.13849288667E-01  0.68382328789E-02  0.10203372401E+01  0.10200644417E+01 0.  0.
     999903    2    3    3    0    0 -0.12730197248E+00  0.13379420499E-01  0.30142451249E-01  0.13283078343E+00  0.18725612591E-01 0.  0.
         14    1    1    2    0    0  0.17834071182E-01  0.13849288667E-01 -0.68382328789E-02  0.23592759915E-01  0.00000000000E+00 0.  1.
     999901    1    3    3    0    0  0.10946790130E+00 -0.27228709167E-01 -0.23304218371E-01  0.88750645666E+00  0.88000000000E+00 0.  1.
        -11    1    4    4    0    0 -0.44650405595E-01  0.12547408890E-01  0.63362487509E-02  0.46813516839E-01  0.51100000000E-03 0.  1.
         11    1    4    4    0    0 -0.82651566889E-01  0.83201160918E-03  0.23806202499E-01  0.86017266586E-01  0.51100000000E-03 0. -1.
</event>
<event>
 8    1  0.1143957E+005  0.1043930E+01  0.7957747E-01            NaN
         13   -1    0    0    0    0  0.00000000000E+00  0.00000000000E+00  0.74505805969E-08  0.10566000000E+00  0.10566000000E+00 0.  1.
     999900   -1    0    0    0    0 -0.00000000000E+00 -0.00000000000E+00 -0.74505805969E-08  0.93827000000E+00  0.93827000000E+00 0.  1.
     999902    2    1    2    0    0 -0.94447639203E-02  0.14557319135E-02 -0.21921055463E-01  0.10200165019E+01  0.10197361466E+01 0.  0.
     999903    2    3    3    0    0 -0.10169658661E+00 -0.77401554605E-01 -0.24516349612E-01  0.13168345284E+00  0.20156487050E-01 0.  0.
         14    1    1    2    0    0  0.94447639203E-02 -0.14557319135E-02  0.21921055463E-01  0.23913498145E-01  0.00000000000E+00 0.  1.
     999901    1    3    3    0    0  0.92251822686E-01  0.78857286518E-01  0.25952941492E-02  0.88833304902E+00  0.88000000000E+00 0. -1.
        -11    1    4    4    0    0 -0.45501940954E-02 -0.10415772280E-01 -0.21155224551E-02  0.11572775585E-01  0.51100000000E-03 0. -1.
         11    1    4    4    0    0 -0.97146392510E-01 -0.66985782325E-01 -0.22400827157E-01  0.12011067725E+00  0.51100000000E-03 0.  1.
</event>
<event>
 8    1  0.1143957E+005  0.1043930E+01  0.7957747E-01            NaN
         13   -1    0    0    0    0  0.00000000000E+00  0.00000000000E+00  0.74505805969E-08  0.10566000000E+00  0.10566000000E+00 0. -1.
     999900   -1    0    0    0    0 -0.00000000000E+00 -0.00000000000E+00 -0.74505805969E-08  0.93827000000E+00  0.93827000000E+00 0.  1.
     999902    2    1    2    0    0  0.81544748835E-02  0.79858150997E-02  0.19187127416E-01  0.10216047998E+01  0.10213608336E+01 0.  0.
     999903    2    3    3    0    0 -0.66481606928E-01 -0.17237321177E-01  0.11238707538E+00  0.13318317606E+00  0.19747768755E-01 0.  0.
         14    1    1    2    0    0 -0.81544748835E-02 -0.79858150997E-02 -0.19187127416E-01  0.22325200154E-01  0.00000000000E+00 0.  1.
     999901    1    3    3    0    0  0.74636081811E-01  0.25223136277E-01 -0.93199947967E-01  0.88842162379E+00  0.88000000000E+00 0.  1.
        -11    1    4    4    0    0 -0.33202447977E-01 -0.16597765275E-01  0.47807559331E-01  0.60528606576E-01  0.51100000000E-03 0.  1.
         11    1    4    4    0    0 -0.33279158951E-01 -0.63955590209E-03  0.64579516052E-01  0.72654569483E-01  0.51100000000E-03 0. -1.
</event>
<event>
 8    1  0.1143957E+005  0.1043930E+01  0.7957747E-01            NaN
         13   -1    0    0    0    0  0.00000000000E+00  0.00000000000E+00  0.74505805969E-08  0.10566000000E+00  0.10566000000E+00 0.  1.
     999900   -1    0    0    0    0 -0.00000000000E+00 -0.00000000000E+00 -0.74505805969E-08  0.93827000000E+00  0.93827000000E+00 0.  1.
     999902    2    1    2    0    0  0.57681188746E-02 -0.25329598988E-02 -0.23160843264E-01  0.10199276722E+01  0.10196452053E+01 0.  0.
     999903    2    3    3    0    0  0.11832374197E+00 -0.19944091713E-01 -0.52574921900E-01  0.13210049087E+00  0.16974762695E-01 0.  0.
         14    1    1    2    0    0 -0.57681188746E-02  0.25329598988E-02  0.23160843264E-01  0.24002327843E-01  0.00000000000E+00 0.  1.
     999901    1    3    3    0    0 -0.11255562310E+00  0.17411131814E-01  0.29414078636E-01  0.88782718128E+00  0.88000000000E+00 0. -1.
        -11    1    4    4    0    0  0.69060424032E-01 -0.19292181667E-01 -0.27317462584E-01  0.76733534546E-01  0.51100000000E-03 0. -1.
         11    1    4    4    0    0  0.49263317938E-01 -0.65191004583E-03 -0.25257459316E-01  0.55366956329E-01  0.51100000000E-03 0.  1.
</event>
<event>
 8    1  0.1143957E+005  0.1043930E+01  0.7957747E-01            NaN
         13   -1    0    0    0    0  0.00000000000E+00  0.00000000000E+00  0.74505805969E-08  0.10566000000E+00  0.10566000000E+00 0.  1.
     999900   -1    0    0    0    0 -0.00000000000E+00 -0.00000000000E+00 -0.74505805969E-08  0.93827000000E+00  0.93827000000E+00 0. -1.
     999902    2    1    2    0    0  0.10755940289E-01 -0.15102875176E-01 -0.10742762186E-01  0.10225011869E+01  0.10222766178E+01 0.  0.
     999903    2    3    3    0    0  0.66974698551E-01  0.26272034793E-01  0.10847825216E+00  0.13172282942E+00  0.20187682901E-01 0.  0.
         14    1    1    2    0    0 -0.10755940289E-01  0.15102875176E-01  0.10742762186E-01  0.21428813067E-01  0.00000000000E+00 0.  1.
     999901    1    3    3    0    0 -0.56218758262E-01 -0.41374909969E-01 -0.11922101434E+00  0.89077835751E+00  0.88000000000E+00 0. -1.
        -11    1    4    4    0    0  0.37983534825E-01  0.24787076261E-01  0.60006589421E-01  0.75221007453E-01  0.51100000000E-03 0. -1.
         11    1    4    4    0    0  0.28991163727E-01  0.14849585322E-02  0.48471662735E-01  0.56501821965E-01  0.51100000000E-03 0.  1.
</event>
<event>
 8    1  0.1143957E+005  0.1043930E+01  0.7957747E-01            NaN
         13   -1    0    0    0    0  0.00000000000E+00  0.00000000000E+00  0.74505805969E-08  0.10566000000E+00  0.10566000000E+00 0.  1.
     999900   -1    0    0    0    0 -0.00000000000E+00 -0.00000000000E+00 -0.74505805969E-08  0.93827000000E+00  0.93827000000E+00 0.  1.
     999902    2    1    2    0    0  0.52016893263E-02 -0.22638586152E-01  0.86774848017E-03  0.10206852986E+01  0.10204205813E+01 0.  0.
     999903    2    3    3    0    0  0.26386945408E-02  0.12206664037E+00  0.35692275878E-01  0.12818380325E+00  0.15808904399E-01 0.  0.
         14    1    1    2    0    0 -0.52016893263E-02  0.22638586152E-01 -0.86774848017E-03  0.23244701380E-01  0.00000000000E+00 0. -1.
     999901    1    3    3    0    0  0.25629947855E-02 -0.14470522652E+00 -0.34824527398E-01  0.89250149537E+00  0.88000000000E+00 0. -1.
        -11    1    4    4    0    0  0.56863714525E-02  0.94314902435E-01  0.21683993576E-01  0.96943758644E-01  0.51100000000E-03 0. -1.
         11    1    4    4    0    0 -0.30476769117E-02  0.27751737937E-01  0.14008282302E-01  0.31240044608E-01  0.51100000000E-03 0.  1.
</event>
<event>
 8    1  0.1143957E+005  0.1043930E+01  0.7957747E-01            NaN
         13   -1    0    0    0    0  0.00000000000E+00  0.00000000000E+00  0.74505805969E-08  0.10566000000E+00  0.10566000000E+00 0. -1.
     999900   -1    0    0    0    0 -0.00000000000E+00 -0.00000000000E+00 -0.74505805969E-08  0.93827000000E+00  0.93827000000E+00 0. -1.
     999902    2    1    2    0    0 -0.85826215752E-02  0.13533075919E-01 -0.17458011936E-01  0.10202321580E+01  0.10199568954E+01 0.  0.
     999903    2    3    3    0    0  0.85953296385E-01  0.44902348981E-01  0.82655705206E-01  0.12897247221E+00  0.19943492185E-01 0.  0.
         14    1    1    2    0    0  0.85826215752E-02 -0.13533075919E-01  0.17458011936E-01  0.23697842047E-01  0.00000000000E+00 0. -1.
     999901    1    3    3    0    0 -0.94535917960E-01 -0.31369273062E-01 -0.10011371714E+00  0.89125968575E+00  0.88000000000E+00 0. -1.
        -11    1    4    4    0    0  0.49424135011E-01  0.23724477398E-01  0.33845456732E-01  0.64431141630E-01  0.51100000000E-03 0. -1.
         11    1    4    4    0    0  0.36529161374E-01  0.21177871583E-01  0.48810248474E-01  0.64541330576E-01  0.51100000000E-03 0.  1.
</event>
<event>
 7    1  0.1143957E+005  0.1043930E+01  0.7957747E-01            NaN
         13   -1    0    0    0    0  0.00000000000E+00  0.00000000000E+00  0.74505805969E-08  0.10566000000E+00  0.10566000000E+00 0.  1.
     999900   -1    0    0    0    0 -0.00000000000E+00 -0.00000000000E+00 -0.74505805969E-08  0.93827000000E+00  0.93827000000E+00 0.  1.
     999902    2    1    2    0    0  0.13574094796E-01 -0.15283401166E-01  0.12778881893E-01  0.10198231914E+01  0.10195382305E+01 0.  0.
         14    1    1    2    0    0 -0.13574094796E-01  0.15283401166E-01 -0.12778881893E-01  0.24106808647E-01  0.00000000000E+00 0.  1.
     999901    1    3    3    0    0 -0.69643317260E-01 -0.62565728441E-01  0.68911317083E-01  0.88764487924E+00  0.88000000000E+00 0.  1.
        -11    1    3    3    0    0  0.27795708328E-01 -0.14761139401E-02  0.13285257178E-01  0.30847033782E-01  0.51100000000E-03 0. -1.
         11    1    3    3    0    0  0.55421703728E-01  0.48758441215E-01 -0.69417692369E-01  0.10133127833E+00  0.51100000000E-03 0.  1.
</event>
<event>
 8    1  0.1143957E+005  0.1043930E+01  0.7957747E-01            NaN
         13   -1    0    0    0    0  0.00000000000E+00  0.00000000000E+00  0.74505805969E-08  0.10566000000E+00  0.10566000000E+00 0. -1.
     999900   -1    0    0    0    0 -0.00000000000E+00 -0.00000000000E+00 -0.74505805969E-08  0.93827000000E+00  0.93827000000E+00 0. -1.
     999902    2    1    2    0    0  0.25689232057E-01  0.47738626295E-02 -0.62384074844E-03  0.10177935200E+01  0.10174578782E+01 0.  0.
     999903    2    3    3    0    0 -0.10758770233E+00  0.61188383188E-01  0.10843059671E-01  0.12589844258E+00  0.20339959951E-01 0.  0.
         14    1    1    2    0    0 -0.25689232057E-01 -0.47738626295E-02  0.62384074844E-03  0.26136479973E-01  0.00000000000E+00 0.  1.
     999901    1    3    3    0    0  0.13327693439E+00 -0.56414520559E-01 -0.11466900420E-01  0.89189507745E+00  0.88000000000E+00 0. -1.
        -11    1    4    4    0    0 -0.94443629011E-01  0.59027902052E-01  0.13854268820E-01  0.11223232229E+00  0.51100000000E-03 0. -1.
         11    1    4    4    0    0 -0.13144073320E-01  0.21604811363E-02 -0.30112091487E-02  0.13666120288E-01  0.51100000000E-03 0.  1.
</event>
<event>
 8    1  0.1143957E+005  0.1043930E+01  0.7957747E-01            NaN
         13   -1    0    0    0    0  0.00000000000E+00  0.00000000000E+00  0.74505805969E-08  0.10566000000E+00  0.10566000000E+00 0.  1.
     999900   -1    0    0    0    0 -0.00000000000E+00 -0.00000000000E+00 -0.74505805969E-08  0.93827000000E+00  0.93827000000E+00 0.  1.
     999902    2    1    2    0    0  0.18485457396E-01  0.13723034217E-01 -0.44543088157E-02  0.10204805934E+01  0.10202111384E+01 0.  0.
     999903    2    3    3    0    0 -0.10051668691E+00  0.49616238105E-01 -0.61999326122E-01  0.12988457866E+00  0.21464200510E-01 0.  0.
         14    1    1    2    0    0 -0.18485457396E-01 -0.13723034217E-01  0.44543088157E-02  0.23449406608E-01  0.00000000000E+00 0. -1.
     999901    1    3    3    0    0  0.11900214431E+00 -0.35893203888E-01  0.57545017306E-01  0.89059601473E+00  0.88000000000E+00 0. -1.
        -11    1    4    4    0    0 -0.28953755925E-01  0.25579638509E-01 -0.20846188181E-01  0.43902876569E-01  0.51100000000E-03 0. -1.
         11    1    4    4    0    0 -0.71562930985E-01  0.24036599597E-01 -0.41153137941E-01  0.85981702093E-01  0.51100000000E-03 0.  1.
</event>
<event>
 8    1  0.1143957E+005  0.1043930E+01  0.7957747E-01            NaN
         13   -1    0    0    0    0  0.00000000000E+00  0.00000000000E+00  0.74505805969E-08  0.10566000000E+00  0.10566000000E+00 0.  1.
     999900   -1    0    0    0    0 -0.00000000000E+00 -0.00000000000E+00 -0.74505805969E-08  0.93827000000E+00  0.93827000000E+00 0.  1.
     999902    2    1    2    0    0 -0.14242096791E-02 -0.80267411504E-02 -0.21913534543E-01  0.10205492399E+01  0.10202813784E+01 0.  0.
     999903    2    3    3    0    0 -0.63041547287E-01  0.37370026727E-01  0.10358368730E+00  0.12835693130E+00  0.19369201253E-01 0.  0.
         14    1    1    2    0    0  0.14242096791E-02  0.80267411504E-02  0.21913534543E-01  0.23380760100E-01  0.00000000000E+00 0.  1.
     999901    1    3    3    0    0  0.61617337608E-01 -0.45396767877E-01 -0.12549722184E+00  0.89219230860E+00  0.88000000000E+00 0.  1.
        -11    1    4    4    0    0 -0.28742022804E-01  0.26252019036E-01  0.63093169535E-01  0.74136910789E-01  0.51100000000E-03 0. -1.
         11    1    4    4    0    0 -0.34299524483E-01  0.11118007691E-01  0.40490517765E-01  0.54220020515E-01  0.51100000000E-03 0.  1.
</event>
<event>
 8    1  0.1143957E+005  0.1043930E+01  0.7957747E-01            NaN
         13   -1    0    0    0    0  0.00000000000E+00  0.00000000000E+00  0.74505805969E-08  0.10566000000E+00  0.10566000000E+00 0.  1.
     999900   -1    0    0    0    0 -0.00000000000E+00 -0.00000000000E+00 -0.74505805969E-08  0.93827000000E+00  0.93827000000E+00 0.  1.
     999902    2    1    2    0    0 -0.86289335885E-03  0.22714312533E-01  0.71749879568E-02  0.10200937874E+01  0.10198152627E+01 0.  0.
     999903    2    3    3    0    0  0.36993754156E-01 -0.95832835672E-01 -0.73166156289E-01  0.12771424283E+00  0.20128863768E-01 0.  0.
         14    1    1    2    0    0  0.86289335885E-03 -0.22714312533E-01 -0.71749879568E-02  0.23836212597E-01  0.00000000000E+00 0. -1.
     999901    1    3    3    0    0 -0.37856647515E-01  0.11854714821E+00  0.80341144246E-01  0.89237954457E+00  0.88000000000E+00 0.  1.
        -11    1    4    4    0    0  0.16263664857E-02 -0.15072994737E-01 -0.40901363822E-02  0.15710842591E-01  0.51100000000E-03 0.  1.
         11    1    4    4    0    0  0.35367387670E-01 -0.80759840935E-01 -0.69076019907E-01  0.11200340024E+00  0.51100000000E-03 0. -1.
</event>
<event>
 8    1  0.1143957E+005  0.1043930E+01  0.7957747E-01            NaN
         13   -1    0    0    0    0  0.00000000000E+00  0.00000000000E+00  0.74505805969E-08  0.10566000000E+00  0.10566000000E+00 0.  1.
     999900   -1    0    0    0    0 -0.00000000000E+00 -0.00000000000E+00 -0.74505805969E-08  0.93827000000E+00  0.93827000000E+00 0. -1.
     999902    2    1    2    0    0  0.12924398445E-01 -0.35603902655E-02  0.19126113201E-01  0.10205735307E+01  0.10203062319E+01 0.  0.
     999903    2    3    3    0    0  0.11865524935E+00  0.46087270321E-01  0.32570843125E-01  0.13275335528E+00  0.18960190744E-01 0.  0.
         14    1    1    2    0    0 -0.12924398445E-01  0.35603902655E-02 -0.19126113201E-01  0.23356469344E-01  0.00000000000E+00 0. -1.
     999901    1    3    3    0    0 -0.10573085091E+00 -0.49647660586E-01 -0.13444729923E-01  0.88782017537E+00  0.88000000000E+00 0. -1.
        -11    1    4    4    0    0  0.31511647930E-01  0.85244565078E-02  0.16233259385E-01  0.36461351391E-01  0.51100000000E-03 0. -1.
         11    1    4    4    0    0  0.87143601422E-01  0.37562813813E-01  0.16337583740E-01  0.96292003893E-01  0.51100000000E-03 0.  1.
</event>
<event>
 7    1  0.1143957E+005  0.1043930E+01  0.7957747E-01            NaN
         13   -1    0    0    0    0  0.00000000000E+00  0.00000000000E+00  0.74505805969E-08  0.10566000000E+00  0.10566000000E+00 0.  1.
     999900   -1    0    0    0    0 -0.00000000000E+00 -0.00000000000E+00 -0.74505805969E-08  0.93827000000E+00  0.93827000000E+00 0.  1.
     999903    2    1    2    0    0  0.19289057394E-01  0.49593126212E-01 -0.43057759736E-01  0.71161675214E-01  0.19454239725E-01 0.  0.
         14    1    1    2    0    0  0.57377687657E-01  0.20884308347E-01 -0.53760559682E-01  0.81354478386E-01  0.00000000000E+00 0. -1.
     999901    1    1    2    0    0 -0.76666745051E-01 -0.70477434559E-01  0.96818319418E-01  0.89141384640E+00  0.88000000000E+00 0. -1.
        -11    1    3    3    0    0 -0.48129485755E-04  0.17552798541E-01 -0.61721544849E-02  0.18613427010E-01  0.51100000000E-03 0.  1.
         11    1    3    3    0    0  0.19337186880E-01  0.32040327671E-01 -0.36885605251E-01  0.52548248205E-01  0.51100000000E-03 0. -1.
</event>
<event>
 8    1  0.1143957E+005  0.1043930E+01  0.7957747E-01            NaN
         13   -1    0    0    0    0  0.00000000000E+00  0.00000000000E+00  0.74505805969E-08  0.10566000000E+00  0.10566000000E+00 0.  1.
     999900   -1    0    0    0    0 -0.00000000000E+00 -0.00000000000E+00 -0.74505805969E-08  0.93827000000E+00  0.93827000000E+00 0.  1.
     999902    2    1    2    0    0 -0.22045411738E-03  0.12098100122E-01  0.18496977170E-01  0.10218268149E+01  0.10215877294E+01 0.  0.
     999903    2    3    3    0    0 -0.38411144917E-01  0.12215676487E+00 -0.24471752335E-01  0.13310990258E+00  0.26864255915E-01 0.  0.
         14    1    1    2    0    0  0.22045411738E-03 -0.12098100122E-01 -0.18496977170E-01  0.22103185087E-01  0.00000000000E+00 0. -1.
     999901    1    3    3    0    0  0.38190690800E-01 -0.11005866475E+00  0.42968729505E-01  0.88871691233E+00  0.88000000000E+00 0. -1.
        -11    1    4    4    0    0 -0.12891299006E-01  0.65206049170E-01 -0.24086221231E-01  0.70699516353E-01  0.51100000000E-03 0.  1.
         11    1    4    4    0    0 -0.25519845911E-01  0.56950715698E-01 -0.38553110450E-03  0.62410386228E-01  0.51100000000E-03 0. -1.
</event>
<event>
 8    1  0.1143957E+005  0.1043930E+01  0.7957747E-01            NaN
         13   -1    0    0    0    0  0.00000000000E+00  0.00000000000E+00  0.74505805969E-08  0.10566000000E+00  0.10566000000E+00 0. -1.
     999900   -1    0    0    0    0 -0.00000000000E+00 -0.00000000000E+00 -0.74505805969E-08  0.93827000000E+00  0.93827000000E+00 0. -1.
     999902    2    1    2    0    0 -0.23031669406E-01 -0.24459549894E-02  0.31346195588E-02  0.10205576588E+01  0.10202899924E+01 0.  0.
     999903    2    3    3    0    0  0.78313204861E-01 -0.18707841057E-01 -0.98503522047E-01  0.12878103641E+00  0.19966725113E-01 0.  0.
         14    1    1    2    0    0  0.23031669406E-01  0.24459549894E-02 -0.31346195588E-02  0.23372341158E-01  0.00000000000E+00 0.  1.
     999901    1    3    3    0    0 -0.10134487427E+00  0.16261886068E-01  0.10163814161E+00  0.89177662243E+00  0.88000000000E+00 0.  1.
        -11    1    4    4    0    0  0.62280140457E-01 -0.10016818360E-01 -0.64668314195E-01  0.90340492180E-01  0.51100000000E-03 0. -1.
         11    1    4    4    0    0  0.16033064404E-01 -0.86910226974E-02 -0.33835207852E-01  0.38440544235E-01  0.51100000000E-03 0.  1.
</event>
<event>
 8    1  0.1143957E+005  0.1043930E+01  0.7957747E-01            NaN
         13   -1    0    0    0    0  0.00000000000E+00  0.00000000000E+00  0.74505805969E-08  0.10566000000E+00  0.10566000000E+00 0. -1.
     999900   -1    0    0    0    0 -0.00000000000E+00 -0.00000000000E+00 -0.74505805969E-08  0.93827000000E+00  0.93827000000E+00 0. -1.
     999902    2    1    2    0    0  0.15222390574E-02  0.23522509081E-01  0.40324556044E-02  0.10200158547E+01  0.10197354841E+01 0.  0.
     999903    2    3    3    0    0 -0.40354573624E-01 -0.11568895491E+00  0.30417189074E-01  0.12769884084E+00  0.19218810022E-01 0.  0.
         14    1    1    2    0    0 -0.15222390574E-02 -0.23522509081E-01 -0.40324556044E-02  0.23914145258E-01  0.00000000000E+00 0.  1.
     999901    1    3    3    0    0  0.41876812681E-01  0.13921146399E+00 -0.26384733470E-01  0.89231701391E+00  0.88000000000E+00 0.  1.
        -11    1    4    4    0    0 -0.14701815924E-01 -0.44873469231E-01  0.22262642532E-02  0.47275670337E-01  0.51100000000E-03 0.  1.
         11    1    4    4    0    0 -0.25652757700E-01 -0.70815485680E-01  0.28190924821E-01  0.80423170498E-01  0.51100000000E-03 0. -1.
</event>
<event>
 8    1  0.1143957E+005  0.1043930E+01  0.7957747E-01            NaN
         13   -1    0    0    0    0  0.00000000000E+00  0.00000000000E+00  0.74505805969E-08  0.10566000000E+00  0.10566000000E+00 0.  1.
     999900   -1    0    0    0    0 -0.00000000000E+00 -0.00000000000E+00 -0.74505805969E-08  0.93827000000E+00  0.93827000000E+00 0.  1.
     999902    2    1    2    0    0  0.88473397403E-02 -0.22322356790E-01 -0.18028714507E-03  0.10199175962E+01  0.10196348893E+01 0.  0.
     999903    2    3    3    0    0  0.12899361684E+00 -0.16855083573E-01 -0.62198685308E-02  0.13171632648E+00  0.19673760894E-01 0.  0.
         14    1    1    2    0    0 -0.88473397403E-02  0.22322356790E-01  0.18028714507E-03  0.24012403807E-01  0.00000000000E+00 0.  1.
     999901    1    3    3    0    0 -0.12014627710E+00 -0.54672732167E-02  0.60395813857E-02  0.88820126971E+00  0.88000000000E+00 0. -1.
        -11    1    4    4    0    0  0.16456382923E-01 -0.86708173574E-02  0.11248169412E-02  0.18641940530E-01  0.51100000000E-03 0. -1.
         11    1    4    4    0    0  0.11253723392E+00 -0.81842662158E-02 -0.73446854720E-02  0.11307438595E+00  0.51100000000E-03 0.  1.
</event>
<event>
 7    1  0.1143957E+005  0.1043930E+01  0.7957747E-01            NaN
         13   -1    0    0    0    0  0.00000000000E+00  0.00000000000E+00  0.74505805969E-08  0.10566000000E+00  0.10566000000E+00 0. -1.
     999900   -1    0    0    0    0 -0.00000000000E+00 -0.00000000000E+00 -0.74505805969E-08  0.93827000000E+00  0.93827000000E+00 0.  1.
     999903    2    1    2    0    0  0.62858131707E-01 -0.17869924171E-01  0.92023916523E-01  0.11465098987E+00  0.20148681182E-01 0.  0.
         14    1    1    2    0    0  0.73008769664E-02  0.36411020363E-01  0.14548447629E-01  0.39883863112E-01  0.00000000000E+00 0.  1.
     999901    1    1    2    0    0 -0.70159008673E-01 -0.18541096192E-01 -0.10657236415E+00  0.88939514702E+00  0.88000000000E+00 0.  1.
        -11    1    3    3    0    0  0.37761888106E-01 -0.14434172264E-02  0.43726338416E-01  0.57795306374E-01  0.51100000000E-03 0. -1.
         11    1    3    3    0    0  0.25096243601E-01 -0.16426506945E-01  0.48297578106E-01  0.56855683491E-01  0.51100000000E-03 0.  1.
</event>
<event>
 8    1  0.1143957E+005  0.1043930E+01  0.7957747E-01            NaN
         13   -1    0    0    0    0  0.00000000000E+00  0.00000000000E+00  0.74505805969E-08  0.10566000000E+00  0.10566000000E+00 0. -1.
     999900   -1    0    0    0    0 -0.00000000000E+00 -0.00000000000E+00 -0.74505805969E-08  0.93827000000E+00  0.93827000000E+00 0.  1.
     999902    2    1    2    0    0  0.39541071799E-02 -0.84777154590E-02  0.22092839896E-01  0.10199383307E+01  0.10196561176E+01 0.  0.
     999903    2    3    3    0    0  0.95308198882E-01  0.85456734842E-01 -0.46033525435E-02  0.12983612433E+00  0.21206650428E-01 0.  0.
         14    1    1    2    0    0 -0.39541071799E-02  0.84777154590E-02 -0.22092839896E-01  0.23991669339E-01  0.00000000000E+00 0.  1.
     999901    1    3    3    0    0 -0.91354091702E-01 -0.93934450301E-01  0.26696192440E-01  0.89010220633E+00  0.88000000000E+00 0. -1.
        -11    1    4    4    0    0  0.40380368532E-01  0.48998510758E-01 -0.68896579621E-02  0.63868276375E-01  0.51100000000E-03 0. -1.
         11    1    4    4    0    0  0.54927830350E-01  0.36458224084E-01  0.22863054185E-02  0.65967847955E-01  0.51100000000E-03 0.  1.
</event>
<event>
 8    1  0.1143957E+005  0.1043930E+01  0.7957747E-01            NaN
         13   -1    0    0    0    0  0.00000000000E+00  0.00000000000E+00  0.74505805969E-08  0.10566000000E+00  0.10566000000E+00 0.  1.
     999900   -1    0    0    0    0 -0.00000000000E+00 -0.00000000000E+00 -0.74505805969E-08  0.93827000000E+00  0.93827000000E+00 0. -1.
     999902    2    1    2    0    0 -0.39000492680E-02 -0.21220151622E-01 -0.86061931775E-02  0.10207013156E+01  0.10204369671E+01 0.  0.
     999903    2    3    3    0    0 -0.47330871212E-01 -0.44308576455E-01 -0.11428697983E+00  0.13301458011E+00  0.20685827190E-01 0.  0.
         14    1    1    2    0    0  0.39000492680E-02  0.21220151622E-01  0.86061931775E-02  0.23228684426E-01  0.00000000000E+00 0.  1.
     999901    1    3    3    0    0  0.43430821944E-01  0.23088424833E-01  0.10568078665E+00  0.88768673547E+00  0.88000000000E+00 0.  1.
        -11    1    4    4    0    0 -0.15829945493E-01 -0.51172802650E-02 -0.39833845012E-01  0.43171403279E-01  0.51100000000E-03 0.  1.
         11    1    4    4    0    0 -0.31500925719E-01 -0.39191296190E-01 -0.74453134813E-01  0.89843176829E-01  0.51100000000E-03 0. -1.
</event>
<event>
 8    1  0.1143957E+005  0.1043930E+01  0.7957747E-01            NaN
         13   -1    0    0    0    0  0.00000000000E+00  0.00000000000E+00  0.74505805969E-08  0.10566000000E+00  0.10566000000E+00 0. -1.
     999900   -1    0    0    0    0 -0.00000000000E+00 -0.00000000000E+00 -0.74505805969E-08  0.93827000000E+00  0.93827000000E+00 0.  1.
     999902    2    1    2    0    0 -0.10033284552E-01  0.76331628529E-02  0.20806736392E-01  0.10196019862E+01  0.10193117080E+01 0.  0.
     999903    2    3    3    0    0  0.12500443051E+00 -0.15258328213E-01  0.19769865446E-01  0.12900652255E+00  0.19821984071E-01 0.  0.
         14    1    1    2    0    0  0.10033284552E-01 -0.76331628529E-02 -0.20806736392E-01  0.24328013756E-01  0.00000000000E+00 0.  1.
     999901    1    3    3    0    0 -0.13503771507E+00  0.22891491066E-01  0.10368709455E-02  0.89059546370E+00  0.88000000000E+00 0.  1.
        -11    1    4    4    0    0  0.26558549292E-01 -0.11467291248E-01  0.33268625117E-02  0.29123606305E-01  0.51100000000E-03 0.  1.
         11    1    4    4    0    0  0.98445881222E-01 -0.37910369643E-02  0.16443002934E-01  0.99882916244E-01  0.51100000000E-03 0. -1.
</event>
<event>
 8    1  0.1143957E+005  0.1043930E+01  0.7957747E-01            NaN
         13   -1    0    0    0    0  0.00000000000E+00  0.00000000000E+00  0.74505805969E-08  0.10566000000E+00  0.10566000000E+00 0. -1.
     999900   -1    0    0    0    0 -0.00000000000E+00 -0.00000000000E+00 -0.74505805969E-08  0.93827000000E+00  0.93827000000E+00 0. -1.
     999902    2    1    2    0    0 -0.18903338314E-01  0.15528075969E-01 -0.46726835747E-04  0.10194665676E+01  0.10191730093E+01 0.  0.
     999903    2    3    3    0    0  0.12022657095E+00  0.22161964726E-01 -0.31414969708E-01  0.12795935684E+00  0.21002753111E-01 0.  0.
         14    1    1    2    0    0  0.18903338314E-01 -0.15528075969E-01  0.46726835747E-04  0.24463432427E-01  0.00000000000E+00 0. -1.
     999901    1    3    3    0    0 -0.13912990926E+00 -0.66338887575E-02  0.31368242872E-01  0.89150721073E+00  0.88000000000E+00 0. -1.
        -11    1    4    4    0    0  0.80146762834E-01  0.91742736871E-02 -0.11972844454E-01  0.81555386185E-01  0.51100000000E-03 0. -1.
         11    1    4    4    0    0  0.40079808114E-01  0.12987691039E-01 -0.19442125254E-01  0.46403970653E-01  0.51100000000E-03 0.  1.
</event>
<event>
 8    1  0.1143957E+005  0.1043930E+01  0.7957747E-01            NaN
         13   -1    0    0    0    0  0.00000000000E+00  0.00000000000E+00  0.74505805969E-08  0.10566000000E+00  0.10566000000E+00 0.  1.
     999900   -1    0    0    0    0 -0.00000000000E+00 -0.00000000000E+00 -0.74505805969E-08  0.93827000000E+00  0.93827000000E+00 0. -1.
     999902    2    1    2    0    0  0.10635346287E-01 -0.17485154064E-01  0.11791158331E-01  0.10203106728E+01  0.10200372524E+01 0.  0.
     999903    2    3    3    0    0 -0.36898283039E-01 -0.12010024659E+00  0.37518163940E-01  0.13270085876E+00  0.20404724198E-01 0.  0.
         14    1    1    2    0    0 -0.10635346287E-01  0.17485154064E-01 -0.11791158331E-01  0.23619327215E-01  0.00000000000E+00 0. -1.
     999901    1    3    3    0    0  0.47533629327E-01  0.10261509252E+00 -0.25727005609E-01  0.88760981402E+00  0.88000000000E+00 0.  1.
        -11    1    4    4    0    0 -0.83364024254E-02 -0.53017628270E-01  0.22825475630E-01  0.58323477018E-01  0.51100000000E-03 0.  1.
         11    1    4    4    0    0 -0.28561880614E-01 -0.67082618317E-01  0.14692688310E-01  0.74377381745E-01  0.51100000000E-03 0. -1.
</event>
<event>
 8    1  0.1143957E+005  0.1043930E+01  0.7957747E-01            NaN
         13   -1    0    0    0    0  0.00000000000E+00  0.00000000000E+00  0.74505805969E-08  0.10566000000E+00  0.10566000000E+00 0.  1.
     999900   -1    0    0    0    0 -0.00000000000E+00 -0.00000000000E+00 -0.74505805969E-08  0.93827000000E+00  0.93827000000E+00 0. -1.
     999902    2    1    2    0    0  0.72888184900E-02  0.74845549500E-02 -0.20419396241E-01  0.10209931916E+01  0.10207355192E+01 0.  0.
     999903    2    3    3    0    0  0.94296675233E-01 -0.42262456637E-01 -0.81765243866E-01  0.13318215013E+00  0.19337833577E-01 0.  0.
         14    1    1    2    0    0 -0.72888184900E-02 -0.74845549500E-02  0.20419396241E-01  0.22936808423E-01  0.00000000000E+00 0.  1.
     999901    1    3    3    0    0 -0.87007856743E-01  0.49747011587E-01  0.61345847625E-01  0.88781104145E+00  0.88000000000E+00 0.  1.
        -11    1    4    4    0    0  0.24380295868E-01 -0.20145738625E-01 -0.21273153826E-01  0.38118995345E-01  0.51100000000E-03 0.  1.
         11    1    4    4    0    0  0.69916379365E-01 -0.22116718012E-01 -0.60492090040E-01  0.95063154784E-01  0.51100000000E-03 0. -1.
</event>
<event>
 8    1  0.1143957E+005  0.1043930E+01  0.7957747E-01            NaN
         13   -1    0    0    0    0  0.00000000000E+00  0.00000000000E+00  0.74505805969E-08  0.10566000000E+00  0.10566000000E+00 0.  1.
     999900   -1    0    0    0    0 -0.00000000000E+00 -0.00000000000E+00 -0.74505805969E-08  0.93827000000E+00  0.93827000000E+00 0. -1.
     999902    2    1    2    0    0 -0.21992683622E-01 -0.80439285063E-02 -0.36355425766E-02  0.10202318969E+01  0.10199566282E+01 0.  0.
     999903    2    3    3    0    0 -0.46746730897E-01  0.80600309840E-01 -0.89419839828E-01  0.13128335540E+00  0.23616622440E-01 0.  0.
         14    1    1    2    0    0  0.21992683622E-01  0.80439285063E-02  0.36355425766E-02  0.23698103057E-01  0.00000000000E+00 0. -1.
     999901    1    3    3    0    0  0.24754047275E-01 -0.88644238347E-01  0.85784297251E-01  0.88894854154E+00  0.88000000000E+00 0.  1.
        -11    1    4    4    0    0 -0.30674919859E-01  0.32340352193E-01 -0.49561684739E-01  0.66659363959E-01  0.51100000000E-03 0. -1.
         11    1    4    4    0    0 -0.16071811038E-01  0.48259957648E-01 -0.39858155089E-01  0.64623991445E-01  0.51100000000E-03 0.  1.
</event>
<event>
 8    1  0.1143957E+005  0.1043930E+01  0.7957747E-01            NaN
         13   -1    0    0    0    0  0.00000000000E+00  0.00000000000E+00  0.74505805969E-08  0.10566000000E+00  0.10566000000E+00 0. -1.
     999900   -1    0    0    0    0 -0.00000000000E+00 -0.00000000000E+00 -0.74505805969E-08  0.93827000000E+00  0.93827000000E+00 0.  1.
     999902    2    1    2    0    0  0.14346966056E-01 -0.17504195052E-01  0.93702685404E-02  0.10194344042E+01  0.10191400641E+01 0.  0.
     999903    2    3    3    0    0 -0.21825744481E-01 -0.69610888964E-01  0.10778438969E+00  0.13167942014E+00  0.19998901083E-01 0.  0.
         14    1    1    2    0    0 -0.14346966056E-01  0.17504195052E-01 -0.93702685404E-02  0.24495595767E-01  0.00000000000E+00 0.  1.
     999901    1    3    3    0    0  0.36172710537E-01  0.52106693912E-01 -0.98414121145E-01  0.88775498409E+00  0.88000000000E+00 0.  1.
        -11    1    4    4    0    0 -0.12652526733E-01 -0.24747921683E-01  0.26631002334E-01  0.38496979968E-01  0.51100000000E-03 0.  1.
         11    1    4    4    0    0 -0.91732177480E-02 -0.44862967282E-01  0.81153387352E-01  0.93182440174E-01  0.51100000000E-03 0. -1.
</event>
<event>
 8    1  0.1143957E+005  0.1043930E+01  0.7957747E-01            NaN
         13   -1    0    0    0    0  0.00000000000E+00  0.00000000000E+00  0.74505805969E-08  0.10566000000E+00  0.10566000000E+00 0. -1.
     999900   -1    0    0    0    0 -0.00000000000E+00 -0.00000000000E+00 -0.74505805969E-08  0.93827000000E+00  0.93827000000E+00 0.  1.
     999902    2    1    2    0    0 -0.20090113320E-01 -0.10016305120E-01  0.63768523468E-02  0.10205932636E+01  0.10203264215E+01 0.  0.
     999903    2    3    3    0    0  0.11253681682E+00 -0.56320775490E-01  0.22137875323E-01  0.12931192952E+00  0.19872712498E-01 0.  0.
         14    1    1    2    0    0  0.20090113320E-01  0.10016305120E-01 -0.63768523468E-02  0.23336736433E-01  0.00000000000E+00 0. -1.
     999901    1    3    3    0    0 -0.13262693014E+00  0.46304470370E-01 -0.15761022977E-01  0.89128133405E+00  0.88000000000E+00 0. -1.
        -11    1    4    4    0    0  0.10654074944E+00 -0.56731096586E-01  0.18101964429E-01  0.12205445853E+00  0.51100000000E-03 0. -1.
         11    1    4    4    0    0  0.59960673757E-02  0.41032109589E-03  0.40359108947E-02  0.72574709869E-02  0.51100000000E-03 0.  1.
</event>
<event>
 8    1  0.1143957E+005  0.1043930E+01  0.7957747E-01            NaN
         13   -1    0    0    0    0  0.00000000000E+00  0.00000000000E+00  0.74505805969E-08  0.10566000000E+00  0.10566000000E+00 0.  1.
     999900   -1    0    0    0    0 -0.00000000000E+00 -0.00000000000E+00 -0.74505805969E-08  0.93827000000E+00  0.93827000000E+00 0. -1.
     999902    2    1    2    0    0 -0.13398135346E-01 -0.15996190878E-01  0.12102600553E-01  0.10198082029E+01  0.10195228834E+01 0.  0.
     999903    2    3    3    0    0 -0.11847212756E+00 -0.28601473893E-01  0.42485232007E-01  0.13294714206E+00  0.31878806849E-01 0.  0.
         14    1    1    2    0    0  0.13398135346E-01  0.15996190878E-01 -0.12102600553E-01  0.24121797062E-01  0.00000000000E+00 0. -1.
     999901    1    3    3    0    0  0.10507399222E+00  0.12605283015E-01 -0.30382631454E-01  0.88686106087E+00  0.88000000000E+00 0. -1.
        -11    1    4    4    0    0 -0.64269636493E-01 -0.37213137891E-02  0.33684624273E-01  0.72659131460E-01  0.51100000000E-03 0. -1.
         11    1    4    4    0    0 -0.54202491071E-01 -0.24880160104E-01  0.88006077348E-02  0.60288010604E-01  0.51100000000E-03 0.  1.
</event>
<event>
 8    1  0.1143957E+005  0.1043930E+01  0.7957747E-01            NaN
         13   -1    0    0    0    0  0.00000000000E+00  0.00000000000E+00  0.74505805969E-08  0.10566000000E+00  0.10566000000E+00 0. -1.
     999900   -1    0    0    0    0 -0.00000000000E+00 -0.00000000000E+00 -0.74505805969E-08  0.93827000000E+00  0.93827000000E+00 0. -1.
     999902    2    1    2    0    0 -0.21375785083E-01 -0.81419955417E-02 -0.59955254553E-02  0.10202833807E+01  0.10200093207E+01 0.  0.
     999903    2    3    3    0    0 -0.11432063685E-01  0.12306140612E+00 -0.34374578460E-01  0.13004825397E+00  0.21357316304E-01 0.  0.
         14    1    1    2    0    0  0.21375785083E-01  0.81419955417E-02  0.59955254553E-02  0.23646619310E-01  0.00000000000E+00 0. -1.
     999901    1    3    3    0    0 -0.99437213982E-02 -0.13120340166E+00  0.28379053005E-01  0.89023512672E+00  0.88000000000E+00 0. -1.
        -11    1    4    4    0    0 -0.35736955387E-02  0.80091463473E-01 -0.31920944780E-01  0.86293810078E-01  0.51100000000E-03 0.  1.
         11    1    4    4    0    0 -0.78583681463E-02  0.42969942644E-01 -0.24536336800E-02  0.43754443889E-01  0.51100000000E-03 0. -1.
</event>
<event>
 8    1  0.1143957E+005  0.1043930E+01  0.7957747E-01            NaN
         13   -1    0    0    0    0  0.00000000000E+00  0.00000000000E+00  0.74505805969E-08  0.10566000000E+00  0.10566000000E+00 0.  1.
     999900   -1    0    0    0    0 -0.00000000000E+00 -0.00000000000E+00 -0.74505805969E-08  0.93827000000E+00  0.93827000000E+00 0.  1.
     999902    2    1    2    0    0  0.17185255247E-01  0.70459731382E-03 -0.14946996305E-01  0.10211431144E+01  0.10208888372E+01 0.  0.
     999903    2    3    3    0    0 -0.21993808839E-01  0.47763224830E-01 -0.12049928445E+00  0.13272271900E+00  0.18171112031E-01 0.  0.
         14    1    1    2    0    0 -0.17185255247E-01 -0.70459731382E-03  0.14946996305E-01  0.22786885567E-01  0.00000000000E+00 0. -1.
     999901    1    3    3    0    0  0.39179064086E-01 -0.47058627516E-01  0.10555228815E+00  0.88842039543E+00  0.88000000000E+00 0. -1.
        -11    1    4    4    0    0 -0.16043608343E-01  0.46733383863E-01 -0.10389645390E+00  0.11504842802E+00  0.51100000000E-03 0.  1.
         11    1    4    4    0    0 -0.59502004953E-02  0.10298409665E-02 -0.16602830556E-01  0.17674290985E-01  0.51100000000E-03 0. -1.
</event>
<event>
 8    1  0.1143957E+005  0.1043930E+01  0.7957747E-01            NaN
         13   -1    0    0    0    0  0.00000000000E+00  0.00000000000E+00  0.74505805969E-08  0.10566000000E+00  0.10566000000E+00 0.  1.
     999900   -1    0    0    0    0 -0.00000000000E+00 -0.00000000000E+00 -0.74505805969E-08  0.93827000000E+00  0.93827000000E+00 0. -1.
     999902    2    1    2    0    0 -0.24148139215E-02  0.49703243816E-02  0.25873921129E-01  0.10174725767E+01  0.10171285313E+01 0.  0.
     999903    2    3    3    0    0 -0.77659829312E-01  0.43373820697E-01 -0.87834404249E-01  0.12614422864E+00  0.16886279614E-01 0.  0.
         14    1    1    2    0    0  0.24148139215E-02 -0.49703243816E-02 -0.25873921129E-01  0.26457423256E-01  0.00000000000E+00 0. -1.
     999901    1    3    3    0    0  0.75245015391E-01 -0.38403496316E-01  0.11370832538E+00  0.89132834810E+00  0.88000000000E+00 0.  1.
        -11    1    4    4    0    0 -0.48138240804E-01  0.27788972952E-01 -0.65827349888E-01  0.86156940288E-01  0.51100000000E-03 0.  1.
         11    1    4    4    0    0 -0.29521588508E-01  0.15584847745E-01 -0.22007054361E-01  0.39987288354E-01  0.51100000000E-03 0. -1.
</event>
<event>
 8    1  0.1143957E+005  0.1043930E+01  0.7957747E-01            NaN
         13   -1    0    0    0    0  0.00000000000E+00  0.00000000000E+00  0.74505805969E-08  0.10566000000E+00  0.10566000000E+00 0.  1.
     999900   -1    0    0    0    0 -0.00000000000E+00 -0.00000000000E+00 -0.74505805969E-08  0.93827000000E+00  0.93827000000E+00 0.  1.
     999902    2    1    2    0    0  0.60856466591E-02  0.22761125032E-01 -0.32699229381E-02  0.10201435269E+01  0.10198661771E+01 0.  0.
     999903    2    3    3    0    0  0.11729122159E+00  0.55648966000E-01 -0.17470571958E-01  0.13242175266E+00  0.19397464091E-01 0.  0.
         14    1    1    2    0    0 -0.60856466591E-02 -0.22761125032E-01  0.32699229381E-02  0.23786473131E-01  0.00000000000E+00 0. -1.
     999901    1    3    3    0    0 -0.11120557493E+00 -0.32887840968E-01  0.14200649020E-01  0.88772177421E+00  0.88000000000E+00 0.  1.
        -11    1    4    4    0    0  0.68385738897E-01  0.41368061184E-01 -0.15616980652E-01  0.81437564897E-01  0.51100000000E-03 0.  1.
         11    1    4    4    0    0  0.48905482692E-01  0.14280904815E-01 -0.18535913057E-02  0.50984187759E-01  0.51100000000E-03 0. -1.
</event>
<event>
 8    1  0.1143957E+005  0.1043930E+01  0.7957747E-01            NaN
         13   -1    0    0    0    0  0.00000000000E+00  0.00000000000E+00  0.74505805969E-08  0.10566000000E+00  0.10566000000E+00 0.  1.
     999900   -1    0    0    0    0 -0.00000000000E+00 -0.00000000000E+00 -0.74505805969E-08  0.93827000000E+00  0.93827000000E+00 0.  1.
     999902    2    1    2    0    0  0.98576340261E-03 -0.17848939796E-01  0.15161024998E-01  0.10204904381E+01  0.10202212119E+01 0.  0.
     999903    2    3    3    0    0  0.99176020643E-01  0.61438832017E-01 -0.51100631967E-01  0.12902059313E+00  0.20601594929E-01 0.  0.
         14    1    1    2    0    0 -0.98576340261E-03  0.17848939796E-01 -0.15161024998E-01  0.23439561863E-01  0.00000000000E+00 0.  1.
     999901    1    3    3    0    0 -0.98190257240E-01 -0.79287771813E-01  0.66261656965E-01  0.89146984501E+00  0.88000000000E+00 0. -1.
        -11    1    4    4    0    0  0.16167467927E-01  0.10968514192E-01 -0.65403107813E-03  0.19554646517E-01  0.51100000000E-03 0.  1.
         11    1    4    4    0    0  0.83008552716E-01  0.50470317825E-01 -0.50446600889E-01  0.10946594661E+00  0.51100000000E-03 0. -1.
</event>
<event>
 8    1  0.1143957E+005  0.1043930E+01  0.7957747E-01            NaN
         13   -1    0    0    0    0  0.00000000000E+00  0.00000000000E+00  0.74505805969E-08  0.10566000000E+00  0.10566000000E+00 0. -1.
     999900   -1    0    0    0    0 -0.00000000000E+00 -0.00000000000E+00 -0.74505805969E-08  0.93827000000E+00  0.93827000000E+00 0.  1.
     999902    2    1    2    0    0  0.24051441110E-02  0.19191185412E-01  0.12171431570E-01  0.10210776465E+01  0.10208218895E+01 0.  0.
     999903    2    3    3    0    0 -0.51774381585E-01  0.10942582599E+00  0.53373008984E-01  0.13384865610E+00  0.20302380886E-01 0.  0.
         14    1    1    2    0    0 -0.24051441110E-02 -0.19191185412E-01 -0.12171431570E-01  0.22852353537E-01  0.00000000000E+00 0. -1.
     999901    1    3    3    0    0  0.54179525696E-01 -0.90234640575E-01 -0.41201577415E-01  0.88722899037E+00  0.88000000000E+00 0.  1.
        -11    1    4    4    0    0 -0.28767942907E-01  0.45246249974E-01  0.15308378743E-01  0.55762220692E-01  0.51100000000E-03 0. -1.
         11    1    4    4    0    0 -0.23006438678E-01  0.64179576013E-01  0.38064630242E-01  0.78086435405E-01  0.51100000000E-03 0.  1.
</event>
<event>
 8    1  0.1362087E+005  0.1043930E+01  0.7957747E-01            NaN
         13   -1    0    0    0    0  0.00000000000E+00  0.00000000000E+00  0.74505805969E-08  0.10566000000E+00  0.10566000000E+00 0. -1.
     999900   -1    0    0    0    0 -0.00000000000E+00 -0.00000000000E+00 -0.74505805969E-08  0.93827000000E+00  0.93827000000E+00 0.  1.
     999902    2    1    2    0    0 -0.11596421066E-01 -0.19206816934E-01 -0.56842270021E-02  0.10207850387E+01  0.10205226141E+01 0.  0.
     999903    2    3    3    0    0 -0.98042957636E-01 -0.70674720133E-01 -0.53692303187E-01  0.13375250030E+00  0.19988254253E-01 0.  0.
         14    1    1    2    0    0  0.11596421066E-01  0.19206816934E-01  0.56842270021E-02  0.23144961328E-01  0.00000000000E+00 0. -1.
     999901    1    3    3    0    0  0.86446536571E-01  0.51467903199E-01  0.48008076184E-01  0.88703253837E+00  0.88000000000E+00 0.  1.
        -11    1    4    4    0    0 -0.61470455184E-01 -0.44757320042E-01 -0.23065413219E-01  0.79461367757E-01  0.51100000000E-03 0. -1.
         11    1    4    4    0    0 -0.36572502452E-01 -0.25917400090E-01 -0.30626889968E-01  0.54291132546E-01  0.51100000000E-03 0.  1.
</event>
<event>
 8    1  0.1143957E+005  0.1043930E+01  0.7957747E-01            NaN
         13   -1    0    0    0    0  0.00000000000E+00  0.00000000000E+00  0.74505805969E-08  0.10566000000E+00  0.10566000000E+00 0. -1.
     999900   -1    0    0    0    0 -0.00000000000E+00 -0.00000000000E+00 -0.74505805969E-08  0.93827000000E+00  0.93827000000E+00 0.  1.
     999902    2    1    2    0    0  0.13479735783E-01  0.15661593283E-01 -0.12194230248E-01  0.10199365002E+01  0.10196542436E+01 0.  0.
     999903    2    3    3    0    0 -0.60584557603E-01  0.11382907184E+00  0.85027318946E-02  0.13114477115E+00  0.22340732618E-01 0.  0.
         14    1    1    2    0    0 -0.13479735783E-01 -0.15661593283E-01  0.12194230248E-01  0.23993499793E-01  0.00000000000E+00 0. -1.
     999901    1    3    3    0    0  0.74064293386E-01 -0.98167478558E-01 -0.20696962143E-01  0.88879172906E+00  0.88000000000E+00 0. -1.
        -11    1    4    4    0    0 -0.10872568560E-01  0.23098826279E-01 -0.71321861921E-02  0.26512218380E-01  0.51100000000E-03 0. -1.
         11    1    4    4    0    0 -0.49711989043E-01  0.90730245562E-01  0.15634918087E-01  0.10463255277E+00  0.51100000000E-03 0.  1.
</event>
<event>
 8    1  0.1143957E+005  0.1043930E+01  0.7957747E-01            NaN
         13   -1    0    0    0    0  0.00000000000E+00  0.00000000000E+00  0.74505805969E-08  0.10566000000E+00  0.10566000000E+00 0.  1.
     999900   -1    0    0    0    0 -0.00000000000E+00 -0.00000000000E+00 -0.74505805969E-08  0.93827000000E+00  0.93827000000E+00 0. -1.
     999902    2    1    2    0    0  0.20749479327E-01 -0.60421612769E-02  0.93147058220E-02  0.10203967820E+01  0.10201253748E+01 0.  0.
     999903    2    3    3    0    0  0.90910851455E-01  0.75981576941E-01  0.55610201428E-01  0.13259399720E+00  0.21229475835E-01 0.  0.
         14    1    1    2    0    0 -0.20749479327E-01  0.60421612769E-02 -0.93147058220E-02  0.23533218008E-01  0.00000000000E+00 0. -1.
     999901    1    3    3    0    0 -0.70161372128E-01 -0.82023738217E-01 -0.46295495606E-01  0.88780278479E+00  0.88000000000E+00 0. -1.
        -11    1    4    4    0    0  0.26833294463E-01  0.21774134438E-01  0.27212516585E-01  0.43987734679E-01  0.51100000000E-03 0. -1.
         11    1    4    4    0    0  0.64077556992E-01  0.54207442503E-01  0.28397684842E-01  0.88606262522E-01  0.51100000000E-03 0.  1.
</event>
<event>
 8    1  0.1143957E+005  0.1043930E+01  0.7957747E-01            NaN
         13   -1    0    0    0    0  0.00000000000E+00  0.00000000000E+00  0.74505805969E-08  0.10566000000E+00  0.10566000000E+00 0. -1.
     999900   -1    0    0    0    0 -0.00000000000E+00 -0.00000000000E+00 -0.74505805969E-08  0.93827000000E+00  0.93827000000E+00 0.  1.
     999902    2    1    2    0    0 -0.16751140081E-01 -0.99028254593E-02 -0.14284711007E-01  0.10197904140E+01  0.10195046683E+01 0.  0.
     999903    2    3    3    0    0  0.81193796640E-01 -0.51552246478E-01 -0.85839217191E-01  0.13049410098E+00  0.20255183383E-01 0.  0.
         14    1    1    2    0    0  0.16751140081E-01  0.99028254593E-02  0.14284711007E-01  0.24139586050E-01  0.00000000000E+00 0.  1.
     999901    1    3    3    0    0 -0.97944936721E-01  0.41649421018E-01  0.71554506184E-01  0.88929631297E+00  0.88000000000E+00 0. -1.
        -11    1    4    4    0    0  0.57583023133E-02  0.16067984100E-02 -0.53953972001E-02  0.80691560035E-02  0.51100000000E-03 0. -1.
         11    1    4    4    0    0  0.75435494327E-01 -0.53159044888E-01 -0.80443819991E-01  0.12242494498E+00  0.51100000000E-03 0.  1.
</event>
<event>
 8    1  0.1143957E+005  0.1043930E+01  0.7957747E-01            NaN
         13   -1    0    0    0    0  0.00000000000E+00  0.00000000000E+00  0.74505805969E-08  0.10566000000E+00  0.10566000000E+00 0.  1.
     999900   -1    0    0    0    0 -0.00000000000E+00 -0.00000000000E+00 -0.74505805969E-08  0.93827000000E+00  0.93827000000E+00 0. -1.
     999902    2    1    2    0    0 -0.15601794276E-01 -0.15435568564E-01  0.82799958668E-02  0.10204729948E+01  0.10202033631E+01 0.  0.
     999903    2    3    3    0    0  0.87437449794E-01 -0.63591028134E-01 -0.68921826199E-01  0.12980125087E+00  0.20224245709E-01 0.  0.
         14    1    1    2    0    0  0.15601794276E-01  0.15435568564E-01 -0.82799958668E-02  0.23457005203E-01  0.00000000000E+00 0.  1.
     999901    1    3    3    0    0 -0.10303924407E+00  0.48155459570E-01  0.77201822066E-01  0.89067174393E+00  0.88000000000E+00 0.  1.
        -11    1    4    4    0    0  0.37192131176E-01 -0.20733461090E-01 -0.37160958847E-01  0.56518395356E-01  0.51100000000E-03 0. -1.
         11    1    4    4    0    0  0.50245318618E-01 -0.42857567044E-01 -0.31760867352E-01  0.73282855511E-01  0.51100000000E-03 0.  1.
</event>
<event>
 8    1  0.1143957E+005  0.1043930E+01  0.7957747E-01            NaN
         13   -1    0    0    0    0  0.00000000000E+00  0.00000000000E+00  0.74505805969E-08  0.10566000000E+00  0.10566000000E+00 0. -1.
     999900   -1    0    0    0    0 -0.00000000000E+00 -0.00000000000E+00 -0.74505805969E-08  0.93827000000E+00  0.93827000000E+00 0.  1.
     999902    2    1    2    0    0  0.15351426000E-01 -0.13887685497E-01 -0.10877866697E-01  0.10205449177E+01  0.10202769560E+01 0.  0.
     999903    2    3    3    0    0  0.56734772294E-01  0.23807452394E-01 -0.11574166763E+00  0.13255284484E+00  0.19710247956E-01 0.  0.
         14    1    1    2    0    0 -0.15351426000E-01  0.13887685497E-01  0.10877866697E-01  0.23385082266E-01  0.00000000000E+00 0.  1.
     999901    1    3    3    0    0 -0.41383346294E-01 -0.37695137891E-01  0.10486380093E+00  0.88799207289E+00  0.88000000000E+00 0. -1.
        -11    1    4    4    0    0  0.30385784684E-01  0.46211587454E-02 -0.43168521201E-01  0.52994654096E-01  0.51100000000E-03 0. -1.
         11    1    4    4    0    0  0.26348987610E-01  0.19186293649E-01 -0.72573146425E-01  0.79558190748E-01  0.51100000000E-03 0.  1.
</event>
<event>
 8    1  0.1143957E+005  0.1043930E+01  0.7957747E-01            NaN
         13   -1    0    0    0    0  0.00000000000E+00  0.00000000000E+00  0.74505805969E-08  0.10566000000E+00  0.10566000000E+00 0. -1.
     999900   -1    0    0    0    0 -0.00000000000E+00 -0.00000000000E+00 -0.74505805969E-08  0.93827000000E+00  0.93827000000E+00 0. -1.
     999902    2    1    2    0    0  0.68084184156E-02  0.21303534819E-01  0.80451823522E-02  0.10201619518E+01  0.10198850365E+01 0.  0.
     999903    2    3    3    0    0  0.11736846247E-01  0.12800575076E+00  0.29530761843E-01  0.13344255850E+00  0.20288537083E-01 0.  0.
         14    1    1    2    0    0 -0.68084184156E-02 -0.21303534819E-01 -0.80451823522E-02  0.23768048220E-01  0.00000000000E+00 0.  1.
     999901    1    3    3    0    0 -0.49284278313E-02 -0.10670221594E+00 -0.21485579490E-01  0.88671939328E+00  0.88000000000E+00 0.  1.
        -11    1    4    4    0    0  0.53355495202E-02  0.70995113841E-01  0.26575448052E-01  0.75995327739E-01  0.51100000000E-03 0. -1.
         11    1    4    4    0    0  0.64012967266E-02  0.57010636921E-01  0.29553137910E-02  0.57447230764E-01  0.51100000000E-03 0.  1.
</event>
<event>
 8    1  0.1143957E+005  0.1043930E+01  0.7957747E-01            NaN
         13   -1    0    0    0    0  0.00000000000E+00  0.00000000000E+00  0.74505805969E-08  0.10566000000E+00  0.10566000000E+00 0. -1.
     999900   -1    0    0    0    0 -0.00000000000E+00 -0.00000000000E+00 -0.74505805969E-08  0.93827000000E+00  0.93827000000E+00 0.  1.
     999902    2    1    2    0    0 -0.66945125505E-02 -0.22393656259E-01  0.46116085058E-02  0.10201064975E+01  0.10198282733E+01 0.  0.
     999903    2    3    3    0    0  0.31475892517E-03  0.95541860034E-01 -0.82981390877E-01  0.12790111226E+00  0.18559019192E-01 0.  0.
         14    1    1    2    0    0  0.66945125505E-02  0.22393656259E-01 -0.46116085058E-02  0.23823502512E-01  0.00000000000E+00 0. -1.
     999901    1    3    3    0    0 -0.70092714756E-02 -0.11793551629E+00  0.87592999383E-01  0.89220538523E+00  0.88000000000E+00 0. -1.
        -11    1    4    4    0    0 -0.68716856826E-02  0.45823034081E-01 -0.31913724522E-01  0.56264708747E-01  0.51100000000E-03 0.  1.
         11    1    4    4    0    0  0.71864446077E-02  0.49718825953E-01 -0.51067666355E-01  0.71636403513E-01  0.51100000000E-03 0. -1.
</event>
<event>
 8    1  0.1143957E+005  0.1043930E+01  0.7957747E-01            NaN
         13   -1    0    0    0    0  0.00000000000E+00  0.00000000000E+00  0.74505805969E-08  0.10566000000E+00  0.10566000000E+00 0. -1.
     999900   -1    0    0    0    0 -0.00000000000E+00 -0.00000000000E+00 -0.74505805969E-08  0.93827000000E+00  0.93827000000E+00 0.  1.
     999902    2    1    2    0    0 -0.18099572216E-01  0.15308840233E-01  0.28168285820E-02  0.10200576388E+01  0.10197782587E+01 0.  0.
     999903    2    3    3    0    0 -0.48263049207E-01  0.47135846005E-02 -0.12068031528E+00  0.13085932614E+00  0.14452852430E-01 0.  0.
         14    1    1    2    0    0  0.18099572216E-01 -0.15308840233E-01 -0.28168285820E-02  0.23872361152E-01  0.00000000000E+00 0. -1.
     999901    1    3    3    0    0  0.30163476991E-01  0.10595255632E-01  0.12349714386E+00  0.88919831271E+00  0.88000000000E+00 0. -1.
        -11    1    4    4    0    0 -0.30234230807E-01  0.72912920871E-02 -0.89438990366E-01  0.94693536059E-01  0.51100000000E-03 0.  1.
         11    1    4    4    0    0 -0.18028818401E-01 -0.25777074866E-02 -0.31241324911E-01  0.36165790079E-01  0.51100000000E-03 0. -1.
</event>
<event>
 8    1  0.1143957E+005  0.1043930E+01  0.7957747E-01            NaN
         13   -1    0    0    0    0  0.00000000000E+00  0.00000000000E+00  0.74505805969E-08  0.10566000000E+00  0.10566000000E+00 0.  1.
     999900   -1    0    0    0    0 -0.00000000000E+00 -0.00000000000E+00 -0.74505805969E-08  0.93827000000E+00  0.93827000000E+00 0. -1.
     999902    2    1    2    0    0  0.74329942177E-02  0.12980702672E-02 -0.21756079658E-01  0.10209025948E+01  0.10206428595E+01 0.  0.
     999903    2    3    3    0    0  0.11605450080E+00  0.58800372094E-01 -0.12989027170E-01  0.13231832324E+00  0.20329607039E-01 0.  0.
         14    1    1    2    0    0 -0.74329942177E-02 -0.12980702672E-02  0.21756079658E-01  0.23027405228E-01  0.00000000000E+00 0.  1.
     999901    1    3    3    0    0 -0.10862150659E+00 -0.57502301827E-01 -0.87670524880E-02  0.88858427153E+00  0.88000000000E+00 0.  1.
        -11    1    4    4    0    0  0.37152017717E-01  0.20731543656E-01 -0.13727221997E-01  0.44707572822E-01  0.51100000000E-03 0.  1.
         11    1    4    4    0    0  0.78902483086E-01  0.38068828438E-01  0.73819482711E-03  0.87610750416E-01  0.51100000000E-03 0. -1.
</event>
<event>
 8    1  0.1143957E+005  0.1043930E+01  0.7957747E-01            NaN
         13   -1    0    0    0    0  0.00000000000E+00  0.00000000000E+00  0.74505805969E-08  0.10566000000E+00  0.10566000000E+00 0. -1.
     999900   -1    0    0    0    0 -0.00000000000E+00 -0.00000000000E+00 -0.74505805969E-08  0.93827000000E+00  0.93827000000E+00 0. -1.
     999902    2    1    2    0    0 -0.28332886567E-02  0.57088980317E-02 -0.20337531179E-01  0.10226172288E+01  0.10223951107E+01 0.  0.
     999903    2    3    3    0    0 -0.89407063851E-01  0.66972247740E-01  0.67393738236E-01  0.13191806961E+00  0.19533461087E-01 0.  0.
         14    1    1    2    0    0  0.28332886567E-02 -0.57088980317E-02  0.20337531179E-01  0.21312771190E-01  0.00000000000E+00 0. -1.
     999901    1    3    3    0    0  0.86573775194E-01 -0.61263349709E-01 -0.87731269415E-01  0.89069915920E+00  0.88000000000E+00 0. -1.
        -11    1    4    4    0    0 -0.18641908623E-01  0.53626497473E-02  0.88820880396E-02  0.21340838277E-01  0.51100000000E-03 0.  1.
         11    1    4    4    0    0 -0.70765155228E-01  0.61609597993E-01  0.58511650197E-01  0.11057723133E+00  0.51100000000E-03 0. -1.
</event>
<event>
 8    1  0.1143957E+005  0.1043930E+01  0.7957747E-01            NaN
         13   -1    0    0    0    0  0.00000000000E+00  0.00000000000E+00  0.74505805969E-08  0.10566000000E+00  0.10566000000E+00 0.  1.
     999900   -1    0    0    0    0 -0.00000000000E+00 -0.00000000000E+00 -0.74505805969E-08  0.93827000000E+00  0.93827000000E+00 0.  1.
     999902    2    1    2    0    0  0.11231981348E-02 -0.83791724697E-02  0.23272851054E-01  0.10191691902E+01  0.10188683627E+01 0.  0.
     999903    2    3    3    0    0 -0.39327394563E-02 -0.97645212529E-01  0.87131353532E-01  0.13233668249E+00  0.19263197914E-01 0.  0.
         14    1    1    2    0    0 -0.11231981348E-02  0.83791724697E-02 -0.23272851054E-01  0.24760809791E-01  0.00000000000E+00 0. -1.
     999901    1    3    3    0    0  0.50559375911E-02  0.89266040059E-01 -0.63858502478E-01  0.88683250772E+00  0.88000000000E+00 0.  1.
        -11    1    4    4    0    0  0.63705366020E-02 -0.43320789865E-01  0.31852724023E-01  0.54149161765E-01  0.51100000000E-03 0. -1.
         11    1    4    4    0    0 -0.10303276058E-01 -0.54324422664E-01  0.55278629509E-01  0.78187520722E-01  0.51100000000E-03 0.  1.
</event>
<event>
 8    1  0.1143957E+005  0.1043930E+01  0.7957747E-01            NaN
         13   -1    0    0    0    0  0.00000000000E+00  0.00000000000E+00  0.74505805969E-08  0.10566000000E+00  0.10566000000E+00 0. -1.
     999900   -1    0    0    0    0 -0.00000000000E+00 -0.00000000000E+00 -0.74505805969E-08  0.93827000000E+00  0.93827000000E+00 0.  1.
     999902    2    1    2    0    0 -0.19333008370E-01 -0.77949770295E-02 -0.42856391203E-02  0.10226487035E+01  0.10224272478E+01 0.  0.
     999903    2    3    3    0    0  0.58771182376E-01 -0.99011467317E-01 -0.62755664705E-01  0.13257036051E+00  0.19475741168E-01 0.  0.
         14    1    1    2    0    0  0.19333008370E-01  0.77949770295E-02  0.42856391203E-02  0.21281296535E-01  0.00000000000E+00 0. -1.
     999901    1    3    3    0    0 -0.78104190746E-01  0.91216490288E-01  0.58470025584E-01  0.89007834296E+00  0.88000000000E+00 0.  1.
        -11    1    4    4    0    0  0.43983304532E-01 -0.73875688214E-01 -0.36790135117E-01  0.93519642587E-01  0.51100000000E-03 0.  1.
         11    1    4    4    0    0  0.14787877844E-01 -0.25135779103E-01 -0.25965529587E-01  0.39050717919E-01  0.51100000000E-03 0. -1.
</event>
<event>
 8    1  0.1143957E+005  0.1043930E+01  0.7957747E-01            NaN
         13   -1    0    0    0    0  0.00000000000E+00  0.00000000000E+00  0.74505805969E-08  0.10566000000E+00  0.10566000000E+00 0. -1.
     999900   -1    0    0    0    0 -0.00000000000E+00 -0.00000000000E+00 -0.74505805969E-08  0.93827000000E+00  0.93827000000E+00 0.  1.
     999902    2    1    2    0    0  0.13448193159E-01  0.82906546166E-03 -0.19698986319E-01  0.10200638878E+01  0.10197846557E+01 0.  0.
     999903    2    3    3    0    0 -0.92596004750E-01  0.34102313317E-01 -0.83460191011E-01  0.13078441984E+00  0.20049267347E-01 0.  0.
         14    1    1    2    0    0 -0.13448193159E-01 -0.82906546166E-03  0.19698986319E-01  0.23866112184E-01  0.00000000000E+00 0. -1.
     999901    1    3    3    0    0  0.10604419791E+00 -0.33273247855E-01  0.63761204692E-01  0.88927946797E+00  0.88000000000E+00 0.  1.
        -11    1    4    4    0    0 -0.26573056539E-01  0.13057479406E-01 -0.36832246956E-01  0.47259926355E-01  0.51100000000E-03 0. -1.
         11    1    4    4    0    0 -0.66022948211E-01  0.21044833911E-01 -0.46627944055E-01  0.83524493489E-01  0.51100000000E-03 0.  1.
</event>
<event>
 8    1  0.1143957E+005  0.1043930E+01  0.7957747E-01            NaN
         13   -1    0    0    0    0  0.00000000000E+00  0.00000000000E+00  0.74505805969E-08  0.10566000000E+00  0.10566000000E+00 0.  1.
     999900   -1    0    0    0    0 -0.00000000000E+00 -0.00000000000E+00 -0.74505805969E-08  0.93827000000E+00  0.93827000000E+00 0. -1.
     999902    2    1    2    0    0  0.62028509464E-02 -0.15930467353E-01  0.16470052915E-01  0.10201914703E+01  0.10199152505E+01 0.  0.
     999903    2    3    3    0    0  0.70936439807E-01  0.50039382487E-01 -0.92716420304E-01  0.12863993249E+00  0.20395571688E-01 0.  0.
         14    1    1    2    0    0 -0.62028509464E-02  0.15930467353E-01 -0.16470052915E-01  0.23738529714E-01  0.00000000000E+00 0. -1.
     999901    1    3    3    0    0 -0.64733588860E-01 -0.65969849841E-01  0.10918647322E+00  0.89155153780E+00  0.88000000000E+00 0.  1.
        -11    1    4    4    0    0  0.47640192982E-01  0.25040209978E-01 -0.66592502227E-01  0.85623726718E-01  0.51100000000E-03 0. -1.
         11    1    4    4    0    0  0.23296246825E-01  0.24999172509E-01 -0.26123918077E-01  0.43016205771E-01  0.51100000000E-03 0.  1.
</event>
<event>
 8    1  0.1143957E+005  0.1043930E+01  0.7957747E-01            NaN
         13   -1    0    0    0    0  0.00000000000E+00  0.00000000000E+00  0.74505805969E-08  0.10566000000E+00  0.10566000000E+00 0. -1.
     999900   -1    0    0    0    0 -0.00000000000E+00 -0.00000000000E+00 -0.74505805969E-08  0.93827000000E+00  0.93827000000E+00 0. -1.
     999902    2    1    2    0    0  0.12722065221E-02 -0.23795733172E-01 -0.29362233676E-02  0.10199200680E+01  0.10196374200E+01 0.  0.
     999903    2    3    3    0    0  0.10595161129E+00 -0.63308719758E-01  0.41589126059E-01  0.13171876164E+00  0.19658047451E-01 0.  0.
         14    1    1    2    0    0 -0.12722065221E-02  0.23795733172E-01  0.29362233676E-02  0.24009931993E-01  0.00000000000E+00 0. -1.
     999901    1    3    3    0    0 -0.10467940477E+00  0.39512986586E-01 -0.44525349426E-01  0.88820130637E+00  0.88000000000E+00 0. -1.
        -11    1    4    4    0    0  0.57387311773E-01 -0.23865239404E-01  0.24975752815E-01  0.66984345589E-01  0.51100000000E-03 0. -1.
         11    1    4    4    0    0  0.48564299515E-01 -0.39443480354E-01  0.16613373244E-01  0.64734416051E-01  0.51100000000E-03 0.  1.
</event>
<event>
 8    1  0.1143957E+005  0.1043930E+01  0.7957747E-01            NaN
         13   -1    0    0    0    0  0.00000000000E+00  0.00000000000E+00  0.74505805969E-08  0.10566000000E+00  0.10566000000E+00 0. -1.
     999900   -1    0    0    0    0 -0.00000000000E+00 -0.00000000000E+00 -0.74505805969E-08  0.93827000000E+00  0.93827000000E+00 0. -1.
     999902    2    1    2    0    0 -0.20187004300E-01 -0.19639902494E-01 -0.83802942137E-02  0.10145451358E+01  0.10141195010E+01 0.  0.
     999903    2    3    3    0    0 -0.83345386213E-01  0.74646443485E-01  0.53056218186E-01  0.12513334069E+00  0.18023477327E-01 0.  0.
         14    1    1    2    0    0  0.20187004300E-01  0.19639902494E-01  0.83802942137E-02  0.29384864194E-01  0.00000000000E+00 0.  1.
     999901    1    3    3    0    0  0.63158381912E-01 -0.94286345979E-01 -0.61436512399E-01  0.88941179512E+00  0.88000000000E+00 0. -1.
        -11    1    4    4    0    0 -0.17365332080E-01  0.26178542313E-01  0.13241398665E-01  0.34094964371E-01  0.51100000000E-03 0.  1.
         11    1    4    4    0    0 -0.65980054133E-01  0.48467901172E-01  0.39814819520E-01  0.91038376314E-01  0.51100000000E-03 0. -1.
</event>
<event>
 8    1  0.1143957E+005  0.1043930E+01  0.7957747E-01            NaN
         13   -1    0    0    0    0  0.00000000000E+00  0.00000000000E+00  0.74505805969E-08  0.10566000000E+00  0.10566000000E+00 0. -1.
     999900   -1    0    0    0    0 -0.00000000000E+00 -0.00000000000E+00 -0.74505805969E-08  0.93827000000E+00  0.93827000000E+00 0. -1.
     999902    2    1    2    0    0 -0.42666678878E-02 -0.20470375441E-01  0.13528043581E-01  0.10190252075E+01  0.10187208277E+01 0.  0.
     999903    2    3    3    0    0 -0.71080124996E-01 -0.11339582221E-01  0.10807045525E+00  0.13139596226E+00  0.20117288724E-01 0.  0.
         14    1    1    2    0    0  0.42666678878E-02  0.20470375441E-01 -0.13528043581E-01  0.24904792484E-01  0.00000000000E+00 0. -1.
     999901    1    3    3    0    0  0.66813457109E-01 -0.91307932206E-02 -0.94542411666E-01  0.88762924526E+00  0.88000000000E+00 0. -1.
        -11    1    4    4    0    0 -0.36614517011E-03 -0.25612405545E-03  0.97829356376E-02  0.98064576941E-02  0.51100000000E-03 0.  1.
         11    1    4    4    0    0 -0.70713979826E-01 -0.11083458165E-01  0.98287519609E-01  0.12158950456E+00  0.51100000000E-03 0. -1.
</event>
<event>
 8    1  0.1143957E+005  0.1043930E+01  0.7957747E-01            NaN
         13   -1    0    0    0    0  0.00000000000E+00  0.00000000000E+00  0.74505805969E-08  0.10566000000E+00  0.10566000000E+00 0.  1.
     999900   -1    0    0    0    0 -0.00000000000E+00 -0.00000000000E+00 -0.74505805969E-08  0.93827000000E+00  0.93827000000E+00 0. -1.
     999902    2    1    2    0    0 -0.17841594855E-01  0.13857405133E-01  0.65439003684E-02  0.10204103738E+01  0.10201392837E+01 0.  0.
     999903    2    3    3    0    0 -0.11736419820E-01  0.17531156280E-02 -0.12779511310E+00  0.13011224536E+00  0.21372610880E-01 0.  0.
         14    1    1    2    0    0  0.17841594855E-01 -0.13857405133E-01 -0.65439003684E-02  0.23519626188E-01  0.00000000000E+00 0.  1.
     999901    1    3    3    0    0 -0.61051750351E-02  0.12104289505E-01  0.13433901347E+00  0.89029812845E+00  0.88000000000E+00 0.  1.
        -11    1    4    4    0    0  0.62472940716E-02 -0.88861668627E-04 -0.28187766156E-01  0.28876423973E-01  0.51100000000E-03 0.  1.
         11    1    4    4    0    0 -0.17983713892E-01  0.18419772966E-02 -0.99607346943E-01  0.10123582139E+00  0.51100000000E-03 0. -1.
</event>
<event>
 8    1  0.1143957E+005  0.1043930E+01  0.7957747E-01            NaN
         13   -1    0    0    0    0  0.00000000000E+00  0.00000000000E+00  0.74505805969E-08  0.10566000000E+00  0.10566000000E+00 0. -1.
     999900   -1    0    0    0    0 -0.00000000000E+00 -0.00000000000E+00 -0.74505805969E-08  0.93827000000E+00  0.93827000000E+00 0. -1.
     999902    2    1    2    0    0  0.61992602563E-02  0.22542728495E-01 -0.26776779377E-02  0.10203975672E+01  0.10201261783E+01 0.  0.
     999903    2    3    3    0    0 -0.76524445627E-01 -0.69920921954E-01  0.73124210956E-01  0.12846782525E+00  0.20295462303E-01 0.  0.
         14    1    1    2    0    0 -0.61992602563E-02 -0.22542728495E-01  0.26776779377E-02  0.23532432829E-01  0.00000000000E+00 0. -1.
     999901    1    3    3    0    0  0.82723705883E-01  0.92463650449E-01 -0.75801888894E-01  0.89192974192E+00  0.88000000000E+00 0. -1.
        -11    1    4    4    0    0 -0.21303329400E-01 -0.31105841649E-01  0.20793357486E-01  0.43058449400E-01  0.51100000000E-03 0. -1.
         11    1    4    4    0    0 -0.55221116227E-01 -0.38815080305E-01  0.52330853470E-01  0.85409375846E-01  0.51100000000E-03 0.  1.
</event>
<event>
 7    1  0.1244293E+005  0.1043930E+01  0.7957747E-01            NaN
         13   -1    0    0    0    0  0.00000000000E+00  0.00000000000E+00  0.74505805969E-08  0.10566000000E+00  0.10566000000E+00 0.  1.
     999900   -1    0    0    0    0 -0.00000000000E+00 -0.00000000000E+00 -0.74505805969E-08  0.93827000000E+00  0.93827000000E+00 0. -1.
     999903    2    1    2    0    0  0.69537957172E-01  0.19840869248E-02  0.80165673688E-01  0.10795259396E+00  0.19691704227E-01 0.  0.
         14    1    1    2    0    0  0.13410953804E-01  0.45227328528E-01  0.21815886379E-03  0.47174278171E-01  0.00000000000E+00 0. -1.
     999901    1    1    2    0    0 -0.82948910976E-01 -0.47211415453E-01 -0.80383832552E-01  0.88880312787E+00  0.88000000000E+00 0. -1.
        -11    1    3    3    0    0  0.44646333488E-01  0.33778026501E-02  0.64449022030E-01  0.78477017058E-01  0.51100000000E-03 0.  1.
         11    1    3    3    0    0  0.24891623683E-01 -0.13937157253E-02  0.15716651658E-01  0.29475576898E-01  0.51100000000E-03 0. -1.
</event>
<event>
 8    1  0.1143957E+005  0.1043930E+01  0.7957747E-01            NaN
         13   -1    0    0    0    0  0.00000000000E+00  0.00000000000E+00  0.74505805969E-08  0.10566000000E+00  0.10566000000E+00 0. -1.
     999900   -1    0    0    0    0 -0.00000000000E+00 -0.00000000000E+00 -0.74505805969E-08  0.93827000000E+00  0.93827000000E+00 0. -1.
     999902    2    1    2    0    0  0.10030582027E-01  0.23079127360E-01 -0.81449072099E-02  0.10174800811E+01  0.10171362334E+01 0.  0.
     999903    2    3    3    0    0  0.15550721831E-01 -0.39024450359E-01  0.11744860925E+00  0.12637904437E+00  0.20316357105E-01 0.  0.
         14    1    1    2    0    0 -0.10030582027E-01 -0.23079127360E-01  0.81449072099E-02  0.26449918884E-01  0.00000000000E+00 0. -1.
     999901    1    3    3    0    0 -0.55201398044E-02  0.62103577719E-01 -0.12559351646E+00  0.89110103674E+00  0.88000000000E+00 0. -1.
        -11    1    4    4    0    0  0.19079131308E-02 -0.22036752385E-01  0.37765458362E-01  0.43769276376E-01  0.51100000000E-03 0.  1.
         11    1    4    4    0    0  0.13642808701E-01 -0.16987697974E-01  0.79683150890E-01  0.82609767996E-01  0.51100000000E-03 0. -1.
</event>
<event>
 8    1  0.1143957E+005  0.1043930E+01  0.7957747E-01            NaN
         13   -1    0    0    0    0  0.00000000000E+00  0.00000000000E+00  0.74505805969E-08  0.10566000000E+00  0.10566000000E+00 0.  1.
     999900   -1    0    0    0    0 -0.00000000000E+00 -0.00000000000E+00 -0.74505805969E-08  0.93827000000E+00  0.93827000000E+00 0.  1.
     999902    2    1    2    0    0  0.78057071798E-03 -0.22360021625E-01 -0.63266841085E-02  0.10206790476E+01  0.10204141862E+01 0.  0.
     999903    2    3    3    0    0  0.72664406215E-01 -0.78429172184E-01  0.75145293900E-01  0.13222605575E+00  0.20141093408E-01 0.  0.
         14    1    1    2    0    0 -0.78057071798E-03  0.22360021625E-01  0.63266841085E-02  0.23250952443E-01  0.00000000000E+00 0.  1.
     999901    1    3    3    0    0 -0.71883835497E-01  0.56069150560E-01 -0.81471978009E-01  0.88845299181E+00  0.88000000000E+00 0. -1.
        -11    1    4    4    0    0  0.17320090525E-01 -0.26221920230E-01  0.31565425064E-01  0.44544492553E-01  0.51100000000E-03 0. -1.
         11    1    4    4    0    0  0.55344315690E-01 -0.52207251954E-01  0.43579868836E-01  0.87681563197E-01  0.51100000000E-03 0.  1.
</event>
<event>
 8    1  0.1143957E+005  0.1043930E+01  0.7957747E-01            NaN
         13   -1    0    0    0    0  0.00000000000E+00  0.00000000000E+00  0.74505805969E-08  0.10566000000E+00  0.10566000000E+00 0. -1.
     999900   -1    0    0    0    0 -0.00000000000E+00 -0.00000000000E+00 -0.74505805969E-08  0.93827000000E+00  0.93827000000E+00 0. -1.
     999902    2    1    2    0    0 -0.21203621019E-01 -0.94508170552E-02  0.39506863734E-03  0.10207121714E+01  0.10204480728E+01 0.  0.
     999903    2    3    3    0    0 -0.68303267056E-01  0.10888728703E+00  0.17978653990E-01  0.13136889343E+00  0.20316904141E-01 0.  0.
         14    1    1    2    0    0  0.21203621019E-01  0.94508170552E-02 -0.39506863734E-03  0.23217828636E-01  0.00000000000E+00 0.  1.
     999901    1    3    3    0    0  0.47099646037E-01 -0.11833810409E+00 -0.17583585353E-01  0.88934327794E+00  0.88000000000E+00 0. -1.
        -11    1    4    4    0    0 -0.36229948031E-01  0.57300190480E-01  0.19694205830E-01  0.70597760784E-01  0.51100000000E-03 0.  1.
         11    1    4    4    0    0 -0.32073319025E-01  0.51587096551E-01 -0.17155518405E-02  0.60771132645E-01  0.51100000000E-03 0. -1.
</event>
<event>
 8    1  0.1143957E+005  0.1043930E+01  0.7957747E-01            NaN
         13   -1    0    0    0    0  0.00000000000E+00  0.00000000000E+00  0.74505805969E-08  0.10566000000E+00  0.10566000000E+00 0. -1.
     999900   -1    0    0    0    0 -0.00000000000E+00 -0.00000000000E+00 -0.74505805969E-08  0.93827000000E+00  0.93827000000E+00 0.  1.
     999902    2    1    2    0    0  0.24798277025E-01  0.75810910952E-02 -0.54500752309E-02  0.10174322490E+01  0.10170871401E+01 0.  0.
     999903    2    3    3    0    0  0.99261648331E-01  0.59223748370E-01 -0.58740001042E-01  0.13117519045E+00  0.19905166846E-01 0.  0.
         14    1    1    2    0    0 -0.24798277025E-01 -0.75810910952E-02  0.54500752309E-02  0.26497750954E-01  0.00000000000E+00 0.  1.
     999901    1    3    3    0    0 -0.74463371306E-01 -0.51642657275E-01  0.53289925811E-01  0.88625705860E+00  0.88000000000E+00 0.  1.
        -11    1    4    4    0    0  0.19030388182E-01  0.30284035418E-02 -0.11186086798E-01  0.22287138920E-01  0.51100000000E-03 0.  1.
         11    1    4    4    0    0  0.80231260148E-01  0.56195344828E-01 -0.47553914243E-01  0.10888805153E+00  0.51100000000E-03 0. -1.
</event>
<event>
 8    1  0.1143957E+005  0.1043930E+01  0.7957747E-01            NaN
         13   -1    0    0    0    0  0.00000000000E+00  0.00000000000E+00  0.74505805969E-08  0.10566000000E+00  0.10566000000E+00 0.  1.
     999900   -1    0    0    0    0 -0.00000000000E+00 -0.00000000000E+00 -0.74505805969E-08  0.93827000000E+00  0.93827000000E+00 0. -1.
     999902    2    1    2    0    0 -0.16014123598E-01 -0.11935259029E-01  0.11987623430E-01  0.10206361021E+01  0.10203702501E+01 0.  0.
     999903    2    3    3    0    0  0.14314499443E-01 -0.12449042008E+00  0.38522941969E-01  0.13255242770E+00  0.19579567026E-01 0.  0.
         14    1    1    2    0    0  0.16014123598E-01  0.11935259029E-01 -0.11987623430E-01  0.23293897874E-01  0.00000000000E+00 0.  1.
     999901    1    3    3    0    0 -0.30328623040E-01  0.11255516105E+00 -0.26535318539E-01  0.88808367443E+00  0.88000000000E+00 0.  1.
        -11    1    4    4    0    0  0.13709747051E-01 -0.61886558583E-01  0.11794734619E-01  0.64476974054E-01  0.51100000000E-03 0.  1.
         11    1    4    4    0    0  0.60475239107E-03 -0.62603861497E-01  0.26728207349E-01  0.68075453644E-01  0.51100000000E-03 0. -1.
</event>
<event>
 8    1  0.1143957E+005  0.1043930E+01  0.7957747E-01            NaN
         13   -1    0    0    0    0  0.00000000000E+00  0.00000000000E+00  0.74505805969E-08  0.10566000000E+00  0.10566000000E+00 0. -1.
     999900   -1    0    0    0    0 -0.00000000000E+00 -0.00000000000E+00 -0.74505805969E-08  0.93827000000E+00  0.93827000000E+00 0. -1.
     999902    2    1    2    0    0 -0.16967760803E-01 -0.18787273064E-01  0.37406195986E-02  0.10183397915E+01  0.10180182082E+01 0.  0.
     999903    2    3    3    0    0  0.16509277268E-02  0.32178089402E-01 -0.12198575486E+00  0.12774940026E+00  0.20030723380E-01 0.  0.
         14    1    1    2    0    0  0.16967760803E-01  0.18787273064E-01 -0.37406195986E-02  0.25590208495E-01  0.00000000000E+00 0. -1.
     999901    1    3    3    0    0 -0.18618688530E-01 -0.50965362466E-01  0.12572637446E+00  0.89059039124E+00  0.88000000000E+00 0.  1.
        -11    1    4    4    0    0 -0.63449455250E-02  0.28308697892E-01 -0.91305519808E-01  0.95805009152E-01  0.51100000000E-03 0.  1.
         11    1    4    4    0    0  0.79958732518E-02  0.38693915098E-02 -0.30680235052E-01  0.31944391113E-01  0.51100000000E-03 0. -1.
</event>
<event>
 8    1  0.1143957E+005  0.1043930E+01  0.7957747E-01            NaN
         13   -1    0    0    0    0  0.00000000000E+00  0.00000000000E+00  0.74505805969E-08  0.10566000000E+00  0.10566000000E+00 0. -1.
     999900   -1    0    0    0    0 -0.00000000000E+00 -0.00000000000E+00 -0.74505805969E-08  0.93827000000E+00  0.93827000000E+00 0. -1.
     999902    2    1    2    0    0 -0.16949570950E-01  0.12837050684E-01  0.60188770524E-02  0.10218323823E+01  0.10215934186E+01 0.  0.
     999903    2    3    3    0    0  0.11726434611E+00 -0.31935261542E-01  0.41060641832E-01  0.12984255013E+00  0.20058008796E-01 0.  0.
         14    1    1    2    0    0  0.16949570950E-01 -0.12837050684E-01 -0.60188770524E-02  0.22097617669E-01  0.00000000000E+00 0.  1.
     999901    1    3    3    0    0 -0.13421391706E+00  0.44772312226E-01 -0.35041764779E-01  0.89198983220E+00  0.88000000000E+00 0. -1.
        -11    1    4    4    0    0  0.88893973834E-01 -0.18414821726E-01  0.37451502072E-01  0.98204482441E-01  0.51100000000E-03 0. -1.
         11    1    4    4    0    0  0.28370372280E-01 -0.13520439816E-01  0.36091397597E-02  0.31638067686E-01  0.51100000000E-03 0.  1.
</event>
<event>
 8    1  0.1143957E+005  0.1043930E+01  0.7957747E-01            NaN
         13   -1    0    0    0    0  0.00000000000E+00  0.00000000000E+00  0.74505805969E-08  0.10566000000E+00  0.10566000000E+00 0. -1.
     999900   -1    0    0    0    0 -0.00000000000E+00 -0.00000000000E+00 -0.74505805969E-08  0.93827000000E+00  0.93827000000E+00 0.  1.
     999902    2    1    2    0    0 -0.23761684987E-01  0.33648727172E-02  0.17134302764E-02  0.10198701603E+01  0.10195863220E+01 0.  0.
     999903    2    3    3    0    0  0.64063845082E-01  0.10126129199E+00 -0.43109891601E-01  0.12896827862E+00  0.20404132787E-01 0.  0.
         14    1    1    2    0    0  0.23761684987E-01 -0.33648727172E-02 -0.17134302764E-02  0.24059839674E-01  0.00000000000E+00 0.  1.
     999901    1    3    3    0    0 -0.87825530069E-01 -0.97896419273E-01  0.44823321878E-01  0.89090188170E+00  0.88000000000E+00 0. -1.
        -11    1    4    4    0    0  0.40176333578E-01  0.50327217484E-01 -0.15211192089E-01  0.66171051716E-01  0.51100000000E-03 0.  1.
         11    1    4    4    0    0  0.23887511503E-01  0.50934074507E-01 -0.27898699512E-01  0.62797226907E-01  0.51100000000E-03 0. -1.
</event>
<event>
 8    1  0.1143957E+005  0.1043930E+01  0.7957747E-01            NaN
         13   -1    0    0    0    0  0.00000000000E+00  0.00000000000E+00  0.74505805969E-08  0.10566000000E+00  0.10566000000E+00 0.  1.
     999900   -1    0    0    0    0 -0.00000000000E+00 -0.00000000000E+00 -0.74505805969E-08  0.93827000000E+00  0.93827000000E+00 0. -1.
     999902    2    1    2    0    0  0.20805298104E-01 -0.54129429108E-03  0.19549811283E-01  0.10153756912E+01  0.10149741109E+01 0.  0.
     999903    2    3    3    0    0 -0.10841449255E+00  0.53071132734E-01  0.21155221460E-01  0.12432315407E+00  0.20939339008E-01 0.  0.
         14    1    1    2    0    0 -0.20805298104E-01  0.54129429108E-03 -0.19549811283E-01  0.28554308781E-01  0.00000000000E+00 0. -1.
     999901    1    3    3    0    0  0.12921979065E+00 -0.53612427025E-01 -0.16054101766E-02  0.89105253715E+00  0.88000000000E+00 0.  1.
        -11    1    4    4    0    0 -0.25092943220E-01  0.37618414438E-02  0.82717366052E-03  0.25391978807E-01  0.51100000000E-03 0.  1.
         11    1    4    4    0    0 -0.83321549326E-01  0.49309291290E-01  0.20328047799E-01  0.98931175258E-01  0.51100000000E-03 0. -1.
</event>
<event>
 8    1  0.1143957E+005  0.1043930E+01  0.7957747E-01            NaN
         13   -1    0    0    0    0  0.00000000000E+00  0.00000000000E+00  0.74505805969E-08  0.10566000000E+00  0.10566000000E+00 0.  1.
     999900   -1    0    0    0    0 -0.00000000000E+00 -0.00000000000E+00 -0.74505805969E-08  0.93827000000E+00  0.93827000000E+00 0. -1.
     999902    2    1    2    0    0 -0.20037313952E-01 -0.83176320089E-02 -0.11643767523E-01  0.10193077687E+01  0.10190103400E+01 0.  0.
     999903    2    3    3    0    0  0.34654967624E-01 -0.12277846468E+00  0.12586166052E-01  0.12988120198E+00  0.20861372972E-01 0.  0.
         14    1    1    2    0    0  0.20037313952E-01  0.83176320089E-02  0.11643767523E-01  0.24622231312E-01  0.00000000000E+00 0.  1.
     999901    1    3    3    0    0 -0.54692281576E-01  0.11446083267E+00 -0.24229933575E-01  0.88942656671E+00  0.88000000000E+00 0.  1.
        -11    1    4    4    0    0  0.24058115597E-01 -0.10835945114E+00  0.14215304914E-01  0.11190576211E+00  0.51100000000E-03 0.  1.
         11    1    4    4    0    0  0.10596852027E-01 -0.14419013538E-01 -0.16291388622E-02  0.17975439875E-01  0.51100000000E-03 0. -1.
</event>
<event>
 8    1  0.1143957E+005  0.1043930E+01  0.7957747E-01            NaN
         13   -1    0    0    0    0  0.00000000000E+00  0.00000000000E+00  0.74505805969E-08  0.10566000000E+00  0.10566000000E+00 0. -1.
     999900   -1    0    0    0    0 -0.00000000000E+00 -0.00000000000E+00 -0.74505805969E-08  0.93827000000E+00  0.93827000000E+00 0.  1.
     999902    2    1    2    0    0 -0.13268090623E-01 -0.77033213625E-02 -0.16345679483E-01  0.10215120468E+01  0.10212660266E+01 0.  0.
     999903    2    3    3    0    0 -0.96267154362E-01  0.36400856467E-01  0.79238599190E-01  0.13136016232E+00  0.19604828029E-01 0.  0.
         14    1    1    2    0    0  0.13268090623E-01  0.77033213625E-02  0.16345679483E-01  0.22417953220E-01  0.00000000000E+00 0.  1.
     999901    1    3    3    0    0  0.82999063738E-01 -0.44104177829E-01 -0.95584278673E-01  0.89015188446E+00  0.88000000000E+00 0.  1.
        -11    1    4    4    0    0 -0.95984622275E-01  0.33996547885E-01  0.75057282894E-01  0.12650165935E+00  0.51100000000E-03 0.  1.
         11    1    4    4    0    0 -0.28253208683E-03  0.24043085825E-02  0.41813162960E-02  0.48585029697E-02  0.51100000000E-03 0. -1.
</event>
<event>
 8    1  0.1143957E+005  0.1043930E+01  0.7957747E-01            NaN
         13   -1    0    0    0    0  0.00000000000E+00  0.00000000000E+00  0.74505805969E-08  0.10566000000E+00  0.10566000000E+00 0.  1.
     999900   -1    0    0    0    0 -0.00000000000E+00 -0.00000000000E+00 -0.74505805969E-08  0.93827000000E+00  0.93827000000E+00 0. -1.
     999902    2    1    2    0    0 -0.88587438839E-02 -0.22207375112E-01  0.33127192631E-02  0.10197924989E+01  0.10195068032E+01 0.  0.
     999903    2    3    3    0    0  0.55847154642E-01  0.11003520461E+00 -0.22942818774E-01  0.12717594822E+00  0.20510922366E-01 0.  0.
         14    1    1    2    0    0  0.88587438839E-02  0.22207375112E-01 -0.33127192631E-02  0.24137501144E-01  0.00000000000E+00 0.  1.
     999901    1    3    3    0    0 -0.64705898526E-01 -0.13224257972E+00  0.26255538037E-01  0.89261655064E+00  0.88000000000E+00 0.  1.
        -11    1    4    4    0    0  0.27448936725E-01  0.35270073903E-01 -0.13214812572E-01  0.46608096215E-01  0.51100000000E-03 0.  1.
         11    1    4    4    0    0  0.28398217917E-01  0.74765130708E-01 -0.97280062026E-02  0.80567852003E-01  0.51100000000E-03 0. -1.
</event>
<event>
 8    1  0.1143957E+005  0.1043930E+01  0.7957747E-01            NaN
         13   -1    0    0    0    0  0.00000000000E+00  0.00000000000E+00  0.74505805969E-08  0.10566000000E+00  0.10566000000E+00 0. -1.
     999900   -1    0    0    0    0 -0.00000000000E+00 -0.00000000000E+00 -0.74505805969E-08  0.93827000000E+00  0.93827000000E+00 0. -1.
     999902    2    1    2    0    0 -0.63893518343E-02 -0.19687271349E-01 -0.58527741319E-02  0.10224202944E+01  0.10221940085E+01 0.  0.
     999903    2    3    3    0    0  0.68885346180E-01  0.10189600669E+00 -0.37956801981E-01  0.13029953897E+00  0.20230272892E-01 0.  0.
         14    1    1    2    0    0  0.63893518343E-02  0.19687271349E-01  0.58527741319E-02  0.21509705602E-01  0.00000000000E+00 0. -1.
     999901    1    3    3    0    0 -0.75274698014E-01 -0.12158327804E+00  0.32104027849E-01  0.89212075543E+00  0.88000000000E+00 0.  1.
        -11    1    4    4    0    0  0.21135416809E-01  0.48284418718E-01 -0.12988058059E-01  0.54286662337E-01  0.51100000000E-03 0.  1.
         11    1    4    4    0    0  0.47749929371E-01  0.53611587974E-01 -0.24968743922E-01  0.76012876633E-01  0.51100000000E-03 0. -1.
</event>
<event>
 7    1  0.1143957E+005  0.1043930E+01  0.7957747E-01            NaN
         13   -1    0    0    0    0  0.00000000000E+00  0.00000000000E+00  0.74505805969E-08  0.10566000000E+00  0.10566000000E+00 0. -1.
     999900   -1    0    0    0    0 -0.00000000000E+00 -0.00000000000E+00 -0.74505805969E-08  0.93827000000E+00  0.93827000000E+00 0.  1.
     999903    2    1    2    0    0  0.96716382615E-01 -0.44107668672E-01 -0.34619195761E-01  0.11376495834E+00  0.21081554223E-01 0.  0.
         14    1    1    2    0    0 -0.17056739737E-01 -0.36099964883E-02  0.41757054818E-01  0.45250591954E-01  0.00000000000E+00 0. -1.
     999901    1    1    2    0    0 -0.79659642878E-01  0.47717665161E-01 -0.71378590565E-02  0.88491444971E+00  0.88000000000E+00 0.  1.
        -11    1    3    3    0    0  0.59750677117E-01 -0.16609003426E-01 -0.15833599209E-01  0.64007549521E-01  0.51100000000E-03 0.  1.
         11    1    3    3    0    0  0.36965705498E-01 -0.27498665246E-01 -0.18785596552E-01  0.49757408816E-01  0.51100000000E-03 0. -1.
</event>
<event>
 8    1  0.1143957E+005  0.1043930E+01  0.7957747E-01            NaN
         13   -1    0    0    0    0  0.00000000000E+00  0.00000000000E+00  0.74505805969E-08  0.10566000000E+00  0.10566000000E+00 0. -1.
     999900   -1    0    0    0    0 -0.00000000000E+00 -0.00000000000E+00 -0.74505805969E-08  0.93827000000E+00  0.93827000000E+00 0.  1.
     999902    2    1    2    0    0 -0.14803516387E-01 -0.16573801861E-01 -0.53112008462E-02  0.10210817209E+01  0.10208260561E+01 0.  0.
     999903    2    3    3    0    0  0.56282155831E-01 -0.11145468737E+00 -0.39452047742E-01  0.13247542296E+00  0.20085945729E-01 0.  0.
         14    1    1    2    0    0  0.14803516387E-01  0.16573801861E-01  0.53112008462E-02  0.22848279147E-01  0.00000000000E+00 0. -1.
     999901    1    3    3    0    0 -0.71085672219E-01  0.94880885508E-01  0.34140846896E-01  0.88860629789E+00  0.88000000000E+00 0.  1.
        -11    1    4    4    0    0  0.43010457284E-01 -0.99943833968E-01 -0.32294025774E-01  0.11349817005E+00  0.51100000000E-03 0.  1.
         11    1    4    4    0    0  0.13271698547E-01 -0.11510853401E-01 -0.71580219677E-02  0.18977252905E-01  0.51100000000E-03 0. -1.
</event>
<event>
 8    1  0.1143957E+005  0.1043930E+01  0.7957747E-01            NaN
         13   -1    0    0    0    0  0.00000000000E+00  0.00000000000E+00  0.74505805969E-08  0.10566000000E+00  0.10566000000E+00 0.  1.
     999900   -1    0    0    0    0 -0.00000000000E+00 -0.00000000000E+00 -0.74505805969E-08  0.93827000000E+00  0.93827000000E+00 0. -1.
     999902    2    1    2    0    0  0.11935295634E-01  0.36236625631E-03 -0.21192411930E-01  0.10196050968E+01  0.10193148937E+01 0.  0.
     999903    2    3    3    0    0  0.83530442063E-01  0.50303018989E-01 -0.87791947025E-01  0.13278187212E+00  0.20392918673E-01 0.  0.
         14    1    1    2    0    0 -0.11935295634E-01 -0.36236625631E-03  0.21192411930E-01  0.24324903178E-01  0.00000000000E+00 0.  1.
     999901    1    3    3    0    0 -0.71595146428E-01 -0.49940652733E-01  0.66599535094E-01  0.88682322470E+00  0.88000000000E+00 0. -1.
        -11    1    4    4    0    0  0.49720139460E-01  0.19428218230E-01 -0.53473783292E-01  0.75559609264E-01  0.51100000000E-03 0. -1.
         11    1    4    4    0    0  0.33810302602E-01  0.30874800759E-01 -0.34318163733E-01  0.57222262861E-01  0.51100000000E-03 0.  1.
</event>
<event>
 8    1  0.1143957E+005  0.1043930E+01  0.7957747E-01            NaN
         13   -1    0    0    0    0  0.00000000000E+00  0.00000000000E+00  0.74505805969E-08  0.10566000000E+00  0.10566000000E+00 0. -1.
     999900   -1    0    0    0    0 -0.00000000000E+00 -0.00000000000E+00 -0.74505805969E-08  0.93827000000E+00  0.93827000000E+00 0. -1.
     999902    2    1    2    0    0  0.83342270441E-02  0.13410840630E-01  0.18994001135E-01  0.10192301606E+01  0.10189308309E+01 0.  0.
     999903    2    3    3    0    0  0.10032993336E+00 -0.45278505588E-01  0.68376273190E-01  0.13111628383E+00  0.19998163712E-01 0.  0.
         14    1    1    2    0    0 -0.83342270441E-02 -0.13410840630E-01 -0.18994001135E-01  0.24699839391E-01  0.00000000000E+00 0.  1.
     999901    1    3    3    0    0 -0.91995706320E-01  0.58689346218E-01 -0.49382272055E-01  0.88811387678E+00  0.88000000000E+00 0. -1.
        -11    1    4    4    0    0  0.17530183758E-01 -0.52181919185E-02  0.20291926838E-01  0.27323255393E-01  0.51100000000E-03 0.  1.
         11    1    4    4    0    0  0.82799749607E-01 -0.40060313670E-01  0.48084346353E-01  0.10379302843E+00  0.51100000000E-03 0. -1.
</event>
<event>
 8    1  0.1143957E+005  0.1043930E+01  0.7957747E-01            NaN
         13   -1    0    0    0    0  0.00000000000E+00  0.00000000000E+00  0.74505805969E-08  0.10566000000E+00  0.10566000000E+00 0.  1.
     999900   -1    0    0    0    0 -0.00000000000E+00 -0.00000000000E+00 -0.74505805969E-08  0.93827000000E+00  0.93827000000E+00 0.  1.
     999902    2    1    2    0    0  0.13816134785E-01 -0.12914170279E-01 -0.12862052774E-01  0.10210587566E+01  0.10208025718E+01 0.  0.
     999903    2    3    3    0    0 -0.35590024878E-02  0.82234382909E-01 -0.10045959422E+00  0.13143609958E+00  0.20202919828E-01 0.  0.
         14    1    1    2    0    0 -0.13816134785E-01  0.12914170279E-01  0.12862052774E-01  0.22871243428E-01  0.00000000000E+00 0.  1.
     999901    1    3    3    0    0  0.17375137273E-01 -0.95148553189E-01  0.87597541449E-01  0.88962265699E+00  0.88000000000E+00 0. -1.
        -11    1    4    4    0    0 -0.93398879286E-03  0.27014030165E-01 -0.48711683713E-01  0.55711034921E-01  0.51100000000E-03 0.  1.
         11    1    4    4    0    0 -0.26250136949E-02  0.55220352744E-01 -0.51747910510E-01  0.75725064656E-01  0.51100000000E-03 0. -1.
</event>
<event>
 8    1  0.1143957E+005  0.1043930E+01  0.7957747E-01            NaN
         13   -1    0    0    0    0  0.00000000000E+00  0.00000000000E+00  0.74505805969E-08  0.10566000000E+00  0.10566000000E+00 0. -1.
     999900   -1    0    0    0    0 -0.00000000000E+00 -0.00000000000E+00 -0.74505805969E-08  0.93827000000E+00  0.93827000000E+00 0. -1.
     999902    2    1    2    0    0  0.14690512440E-01  0.18125199083E-01 -0.70501290976E-03  0.10205883839E+01  0.10203214289E+01 0.  0.
     999903    2    3    3    0    0  0.25386490743E-01 -0.12473054001E+00  0.61297166090E-02  0.12897811051E+00  0.19889646576E-01 0.  0.
         14    1    1    2    0    0 -0.14690512440E-01 -0.18125199083E-01  0.70501290976E-03  0.23341616069E-01  0.00000000000E+00 0. -1.
     999901    1    3    3    0    0 -0.10695978304E-01  0.14285573909E+00 -0.68347295188E-02  0.89161027342E+00  0.88000000000E+00 0. -1.
        -11    1    4    4    0    0 -0.96312454800E-03 -0.37693073133E-01 -0.13332376661E-02  0.37732400067E-01  0.51100000000E-03 0.  1.
         11    1    4    4    0    0  0.26349615291E-01 -0.87037466878E-01  0.74629542751E-02  0.91245710442E-01  0.51100000000E-03 0. -1.
</event>
<event>
 8    1  0.1143957E+005  0.1043930E+01  0.7957747E-01            NaN
         13   -1    0    0    0    0  0.00000000000E+00  0.00000000000E+00  0.74505805969E-08  0.10566000000E+00  0.10566000000E+00 0. -1.
     999900   -1    0    0    0    0 -0.00000000000E+00 -0.00000000000E+00 -0.74505805969E-08  0.93827000000E+00  0.93827000000E+00 0. -1.
     999902    2    1    2    0    0 -0.45819544614E-02  0.61124160549E-02 -0.19708994542E-01  0.10227923463E+01  0.10225739012E+01 0.  0.
     999903    2    3    3    0    0  0.74459889104E-01  0.32487880267E-01 -0.10549581917E+00  0.13470301669E+00  0.20391110648E-01 0.  0.
         14    1    1    2    0    0  0.45819544614E-02 -0.61124160549E-02  0.19708994542E-01  0.21137653668E-01  0.00000000000E+00 0. -1.
     999901    1    3    3    0    0 -0.79041843565E-01 -0.26375464212E-01  0.85786824626E-01  0.88808932964E+00  0.88000000000E+00 0.  1.
        -11    1    4    4    0    0  0.65832377988E-02  0.12088605046E-03 -0.18856023149E-01  0.19979098161E-01  0.51100000000E-03 0. -1.
         11    1    4    4    0    0  0.67876651305E-01  0.32366994216E-01 -0.86639796020E-01  0.11472391853E+00  0.51100000000E-03 0.  1.
</event>
<event>
 8    1  0.1143957E+005  0.1043930E+01  0.7957747E-01            NaN
         13   -1    0    0    0    0  0.00000000000E+00  0.00000000000E+00  0.74505805969E-08  0.10566000000E+00  0.10566000000E+00 0.  1.
     999900   -1    0    0    0    0 -0.00000000000E+00 -0.00000000000E+00 -0.74505805969E-08  0.93827000000E+00  0.93827000000E+00 0.  1.
     999902    2    1    2    0    0 -0.50345111697E-02  0.20146597121E-01  0.12693312163E-01  0.10195917204E+01  0.10193011942E+01 0.  0.
     999903    2    3    3    0    0  0.28868979724E-01  0.12609931819E+00  0.19848049777E-01  0.13255924298E+00  0.21060669039E-01 0.  0.
         14    1    1    2    0    0  0.50345111697E-02 -0.20146597121E-01 -0.12693312163E-01  0.24338279560E-01  0.00000000000E+00 0. -1.
     999901    1    3    3    0    0 -0.33903490894E-01 -0.10595272107E+00 -0.71547376146E-02  0.88703247746E+00  0.88000000000E+00 0.  1.
        -11    1    4    4    0    0  0.49410666230E-03  0.47391848364E-01  0.72778299307E-02  0.47952678363E-01  0.51100000000E-03 0. -1.
         11    1    4    4    0    0  0.28374873062E-01  0.78707469830E-01  0.12570219847E-01  0.84606564617E-01  0.51100000000E-03 0.  1.
</event>
<event>
 8    1  0.1143957E+005  0.1043930E+01  0.7957747E-01            NaN
         13   -1    0    0    0    0  0.00000000000E+00  0.00000000000E+00  0.74505805969E-08  0.10566000000E+00  0.10566000000E+00 0.  1.
     999900   -1    0    0    0    0 -0.00000000000E+00 -0.00000000000E+00 -0.74505805969E-08  0.93827000000E+00  0.93827000000E+00 0.  1.
     999902    2    1    2    0    0 -0.13793978988E-02 -0.14036570059E-01 -0.20365189150E-01  0.10191576572E+01  0.10188565460E+01 0.  0.
     999903    2    3    3    0    0 -0.48317809122E-01  0.87628784694E-01 -0.80528381700E-01  0.13002399542E+00  0.20199122296E-01 0.  0.
         14    1    1    2    0    0  0.13793978988E-02  0.14036570059E-01  0.20365189150E-01  0.24772342778E-01  0.00000000000E+00 0.  1.
     999901    1    3    3    0    0  0.46938411223E-01 -0.10166535475E+00  0.60163192550E-01  0.88913366180E+00  0.88000000000E+00 0. -1.
        -11    1    4    4    0    0 -0.30667316975E-01  0.68746753181E-01 -0.51815250719E-01  0.91387535974E-01  0.51100000000E-03 0.  1.
         11    1    4    4    0    0 -0.17650492147E-01  0.18882031513E-01 -0.28713130981E-01  0.38636459450E-01  0.51100000000E-03 0. -1.
</event>
<event>
 8    1  0.1143957E+005  0.1043930E+01  0.7957747E-01            NaN
         13   -1    0    0    0    0  0.00000000000E+00  0.00000000000E+00  0.74505805969E-08  0.10566000000E+00  0.10566000000E+00 0. -1.
     999900   -1    0    0    0    0 -0.00000000000E+00 -0.00000000000E+00 -0.74505805969E-08  0.93827000000E+00  0.93827000000E+00 0. -1.
     999902    2    1    2    0    0 -0.64665842407E-02 -0.35749656636E-02  0.22468280402E-01  0.10202779237E+01  0.10200037357E+01 0.  0.
     999903    2    3    3    0    0 -0.10681703807E+00  0.15142869841E-01 -0.69201845448E-01  0.12964669642E+00  0.19498316612E-01 0.  0.
         14    1    1    2    0    0  0.64665842407E-02  0.35749656636E-02 -0.22468280402E-01  0.23652076346E-01  0.00000000000E+00 0.  1.
     999901    1    3    3    0    0  0.10035045383E+00 -0.18717835505E-01  0.91670125850E-01  0.89063122723E+00  0.88000000000E+00 0.  1.
        -11    1    4    4    0    0 -0.21259471223E-01  0.30070197027E-02 -0.23700030084E-01  0.31983743232E-01  0.51100000000E-03 0.  1.
         11    1    4    4    0    0 -0.85557566845E-01  0.12135850138E-01 -0.45501815364E-01  0.97662953189E-01  0.51100000000E-03 0. -1.
</event>
<event>
 8    1  0.1143957E+005  0.1043930E+01  0.7957747E-01            NaN
         13   -1    0    0    0    0  0.00000000000E+00  0.00000000000E+00  0.74505805969E-08  0.10566000000E+00  0.10566000000E+00 0.  1.
     999900   -1    0    0    0    0 -0.00000000000E+00 -0.00000000000E+00 -0.74505805969E-08  0.93827000000E+00  0.93827000000E+00 0. -1.
     999902    2    1    2    0    0 -0.11970242840E-01  0.18681657831E-01 -0.85405720392E-02  0.10201553828E+01  0.10198783126E+01 0.  0.
     999903    2    3    3    0    0 -0.19117422863E-01  0.85323618454E-01 -0.98247435690E-01  0.13305924680E+00  0.20164543527E-01 0.  0.
         14    1    1    2    0    0  0.11970242840E-01 -0.18681657831E-01  0.85405720392E-02  0.23774617215E-01  0.00000000000E+00 0.  1.
     999901    1    3    3    0    0  0.71471800235E-02 -0.66641960622E-01  0.89706863651E-01  0.88709613599E+00  0.88000000000E+00 0.  1.
        -11    1    4    4    0    0 -0.38731045423E-02  0.18080067163E-01 -0.98698878943E-02  0.20965819217E-01  0.51100000000E-03 0.  1.
         11    1    4    4    0    0 -0.15244318321E-01  0.67243551291E-01 -0.88377547795E-01  0.11209342758E+00  0.51100000000E-03 0. -1.
</event>
<event>
 8    1  0.1143957E+005  0.1043930E+01  0.7957747E-01            NaN
         13   -1    0    0    0    0  0.00000000000E+00  0.00000000000E+00  0.74505805969E-08  0.10566000000E+00  0.10566000000E+00 0.  1.
     999900   -1    0    0    0    0 -0.00000000000E+00 -0.00000000000E+00 -0.74505805969E-08  0.93827000000E+00  0.93827000000E+00 0.  1.
     999902    2    1    2    0    0  0.32834317340E-02 -0.16223843534E-01 -0.16513079750E-01  0.10205489002E+01  0.10202810309E+01 0.  0.
     999903    2    3    3    0    0  0.88391583771E-01 -0.25783842646E-01 -0.94048886018E-01  0.13299800459E+00  0.19115377055E-01 0.  0.
         14    1    1    2    0    0 -0.32834317340E-02  0.16223843534E-01  0.16513079750E-01  0.23381099756E-01  0.00000000000E+00 0.  1.
     999901    1    3    3    0    0 -0.85108152037E-01  0.95599991124E-02  0.77535806269E-01  0.88755089566E+00  0.88000000000E+00 0. -1.
        -11    1    4    4    0    0  0.79620611616E-01 -0.17242523084E-01 -0.85214606264E-01  0.11789205503E+00  0.51100000000E-03 0. -1.
         11    1    4    4    0    0  0.87709721554E-02 -0.85413195624E-02 -0.88342797545E-02  0.15105949563E-01  0.51100000000E-03 0.  1.
</event>
<event>
 8    1  0.1143957E+005  0.1043930E+01  0.7957747E-01            NaN
         13   -1    0    0    0    0  0.00000000000E+00  0.00000000000E+00  0.74505805969E-08  0.10566000000E+00  0.10566000000E+00 0. -1.
     999900   -1    0    0    0    0 -0.00000000000E+00 -0.00000000000E+00 -0.74505805969E-08  0.93827000000E+00  0.93827000000E+00 0. -1.
     999902    2    1    2    0    0 -0.21974079961E-02 -0.23433221547E-01 -0.48031076586E-02  0.10199088777E+01  0.10196259630E+01 0.  0.
     999903    2    3    3    0    0  0.63056431745E-02  0.12260481965E+00  0.27197101734E-01  0.12725921250E+00  0.19583714794E-01 0.  0.
         14    1    1    2    0    0  0.21974079961E-02  0.23433221547E-01  0.48031076586E-02  0.24021122313E-01  0.00000000000E+00 0. -1.
     999901    1    3    3    0    0 -0.85030511706E-02 -0.14603804120E+00 -0.32000209393E-01  0.89264966519E+00  0.88000000000E+00 0.  1.
        -11    1    4    4    0    0 -0.41191051961E-02  0.83303486796E-01  0.22041260362E-01  0.86270019238E-01  0.51100000000E-03 0.  1.
         11    1    4    4    0    0  0.10424748371E-01  0.39301332858E-01  0.51558413722E-02  0.40989193262E-01  0.51100000000E-03 0. -1.
</event>
<event>
 8    1  0.1143957E+005  0.1043930E+01  0.7957747E-01            NaN
         13   -1    0    0    0    0  0.00000000000E+00  0.00000000000E+00  0.74505805969E-08  0.10566000000E+00  0.10566000000E+00 0. -1.
     999900   -1    0    0    0    0 -0.00000000000E+00 -0.00000000000E+00 -0.74505805969E-08  0.93827000000E+00  0.93827000000E+00 0. -1.
     999902    2    1    2    0    0  0.23398479652E-01  0.21202020179E-02 -0.53818208050E-02  0.10198271350E+01  0.10195422685E+01 0.  0.
     999903    2    3    3    0    0 -0.54140077059E-01  0.44558344291E-01 -0.10704182494E+00  0.12957549633E+00  0.20378002178E-01 0.  0.
         14    1    1    2    0    0 -0.23398479652E-01 -0.21202020179E-02  0.53818208050E-02  0.24102865012E-01  0.00000000000E+00 0.  1.
     999901    1    3    3    0    0  0.77538556711E-01 -0.42438142274E-01  0.10166000413E+00  0.89025163866E+00  0.88000000000E+00 0.  1.
        -11    1    4    4    0    0 -0.44664620892E-01  0.39495988678E-01 -0.10087208190E+00  0.11717636071E+00  0.51100000000E-03 0. -1.
         11    1    4    4    0    0 -0.94754561674E-02  0.50623556130E-02 -0.61697430343E-02  0.12399135617E-01  0.51100000000E-03 0.  1.
</event>
<event>
 8    1  0.1143957E+005  0.1043930E+01  0.7957747E-01            NaN
         13   -1    0    0    0    0  0.00000000000E+00  0.00000000000E+00  0.74505805969E-08  0.10566000000E+00  0.10566000000E+00 0. -1.
     999900   -1    0    0    0    0 -0.00000000000E+00 -0.00000000000E+00 -0.74505805969E-08  0.93827000000E+00  0.93827000000E+00 0. -1.
     999902    2    1    2    0    0 -0.12184666626E-01 -0.20189467292E-01  0.11530921485E-03  0.10203483549E+01  0.10200758165E+01 0.  0.
     999903    2    3    3    0    0 -0.29010655696E-01  0.52133613339E-01  0.11380913681E+00  0.12993270568E+00  0.19247249197E-01 0.  0.
         14    1    1    2    0    0  0.12184666626E-01  0.20189467292E-01 -0.11530921485E-03  0.23581645120E-01  0.00000000000E+00 0. -1.
     999901    1    3    3    0    0  0.16825989070E-01 -0.72323080631E-01 -0.11369382759E+00  0.89041564920E+00  0.88000000000E+00 0. -1.
        -11    1    4    4    0    0 -0.50951347552E-02  0.24925848101E-01  0.58746638607E-01  0.64020988514E-01  0.51100000000E-03 0. -1.
         11    1    4    4    0    0 -0.23915520941E-01  0.27207765237E-01  0.55062498202E-01  0.65911717170E-01  0.51100000000E-03 0.  1.
</event>
<event>
 8    1  0.1143957E+005  0.1043930E+01  0.7957747E-01            NaN
         13   -1    0    0    0    0  0.00000000000E+00  0.00000000000E+00  0.74505805969E-08  0.10566000000E+00  0.10566000000E+00 0.  1.
     999900   -1    0    0    0    0 -0.00000000000E+00 -0.00000000000E+00 -0.74505805969E-08  0.93827000000E+00  0.93827000000E+00 0. -1.
     999902    2    1    2    0    0  0.67186499747E-02  0.22124840986E-01 -0.74041632713E-02  0.10196509868E+01  0.10193618908E+01 0.  0.
     999903    2    3    3    0    0  0.36217537548E-01 -0.17530900082E-01 -0.12277955701E+00  0.13074478052E+00  0.20008386476E-01 0.  0.
         14    1    1    2    0    0 -0.67186499747E-02 -0.22124840986E-01  0.74041632713E-02  0.24279013157E-01  0.00000000000E+00 0.  1.
     999901    1    3    3    0    0 -0.29498887573E-01  0.39655741068E-01  0.11537539374E+00  0.88890620633E+00  0.88000000000E+00 0.  1.
        -11    1    4    4    0    0  0.12455860990E-01 -0.12255901852E-01 -0.76278840706E-01  0.78256490233E-01  0.51100000000E-03 0. -1.
         11    1    4    4    0    0  0.23761676558E-01 -0.52749982302E-02 -0.46500716301E-01  0.52488290282E-01  0.51100000000E-03 0.  1.
</event>
<event>
 8    1  0.1143957E+005  0.1043930E+01  0.7957747E-01            NaN
         13   -1    0    0    0    0  0.00000000000E+00  0.00000000000E+00  0.74505805969E-08  0.10566000000E+00  0.10566000000E+00 0. -1.
     999900   -1    0    0    0    0 -0.00000000000E+00 -0.00000000000E+00 -0.74505805969E-08  0.93827000000E+00  0.93827000000E+00 0.  1.
     999902    2    1    2    0    0  0.61848836612E-02 -0.54032681265E-03 -0.22597457517E-01  0.10204952006E+01  0.10202260850E+01 0.  0.
     999903    2    3    3    0    0 -0.86236286908E-01 -0.87112546656E-01 -0.42449169893E-01  0.13120868176E+00  0.19710230346E-01 0.  0.
         14    1    1    2    0    0 -0.61848836612E-02  0.54032681265E-03  0.22597457517E-01  0.23434799449E-01  0.00000000000E+00 0. -1.
     999901    1    3    3    0    0  0.92421170569E-01  0.86572219843E-01  0.19851712376E-01  0.88928651879E+00  0.88000000000E+00 0.  1.
        -11    1    4    4    0    0 -0.43569011478E-01 -0.32132543767E-01 -0.13255946924E-01  0.55738141160E-01  0.51100000000E-03 0. -1.
         11    1    4    4    0    0 -0.42667275429E-01 -0.54980002889E-01 -0.29193222969E-01  0.75470540601E-01  0.51100000000E-03 0.  1.
</event>
<event>
 8    1  0.1143957E+005  0.1043930E+01  0.7957747E-01            NaN
         13   -1    0    0    0    0  0.00000000000E+00  0.00000000000E+00  0.74505805969E-08  0.10566000000E+00  0.10566000000E+00 0. -1.
     999900   -1    0    0    0    0 -0.00000000000E+00 -0.00000000000E+00 -0.74505805969E-08  0.93827000000E+00  0.93827000000E+00 0.  1.
     999902    2    1    2    0    0 -0.46267557901E-02 -0.15792442527E-01  0.16337882568E-01  0.10207408966E+01  0.10204774586E+01 0.  0.
     999903    2    3    3    0    0 -0.12321981438E+00 -0.41410237483E-01  0.13568636783E-01  0.13241198583E+00  0.21234303970E-01 0.  0.
         14    1    1    2    0    0  0.46267557901E-02  0.15792442527E-01 -0.16337882568E-01  0.23189103409E-01  0.00000000000E+00 0.  1.
     999901    1    3    3    0    0  0.11859305859E+00  0.25617794955E-01  0.27692457848E-02  0.88832891076E+00  0.88000000000E+00 0. -1.
        -11    1    4    4    0    0 -0.66875285643E-01 -0.13268121102E-01  0.13093145185E-01  0.69426496666E-01  0.51100000000E-03 0.  1.
         11    1    4    4    0    0 -0.56344528734E-01 -0.28142116380E-01  0.47549159819E-03  0.62985489169E-01  0.51100000000E-03 0. -1.
</event>
<event>
 8    1  0.1143957E+005  0.1043930E+01  0.7957747E-01            NaN
         13   -1    0    0    0    0  0.00000000000E+00  0.00000000000E+00  0.74505805969E-08  0.10566000000E+00  0.10566000000E+00 0.  1.
     999900   -1    0    0    0    0 -0.00000000000E+00 -0.00000000000E+00 -0.74505805969E-08  0.93827000000E+00  0.93827000000E+00 0. -1.
     999902    2    1    2    0    0 -0.18259429486E-01 -0.14244302020E-02 -0.15020118509E-01  0.10202437228E+01  0.10199687320E+01 0.  0.
     999903    2    3    3    0    0 -0.37326003093E-02  0.10905163652E+00 -0.70630151712E-01  0.13147577455E+00  0.19775470427E-01 0.  0.
         14    1    1    2    0    0  0.18259429486E-01  0.14244302020E-02  0.15020118509E-01  0.23686277179E-01  0.00000000000E+00 0.  1.
     999901    1    3    3    0    0 -0.14526829177E-01 -0.11047606672E+00  0.55610033203E-01  0.88876794827E+00  0.88000000000E+00 0.  1.
        -11    1    4    4    0    0 -0.68775508565E-02  0.10426562673E+00 -0.69811196357E-01  0.12566815778E+00  0.51100000000E-03 0. -1.
         11    1    4    4    0    0  0.31449505472E-02  0.47860097904E-02 -0.81895535575E-03  0.58076167687E-02  0.51100000000E-03 0.  1.
</event>
<event>
 8    1  0.1143957E+005  0.1043930E+01  0.7957747E-01            NaN
         13   -1    0    0    0    0  0.00000000000E+00  0.00000000000E+00  0.74505805969E-08  0.10566000000E+00  0.10566000000E+00 0. -1.
     999900   -1    0    0    0    0 -0.00000000000E+00 -0.00000000000E+00 -0.74505805969E-08  0.93827000000E+00  0.93827000000E+00 0. -1.
     999902    2    1    2    0    0  0.13524257730E-01 -0.12943073629E-01 -0.13841218321E-01  0.10206489342E+01  0.10203833783E+01 0.  0.
     999903    2    3    3    0    0  0.17036392212E-01  0.43339901382E-02 -0.13004153728E+00  0.13283513265E+00  0.20623988923E-01 0.  0.
         14    1    1    2    0    0 -0.13524257730E-01  0.12943073629E-01  0.13841218321E-01  0.23281065841E-01  0.00000000000E+00 0. -1.
     999901    1    3    3    0    0 -0.35121344819E-02 -0.17277063767E-01  0.11620031896E+00  0.88781380151E+00  0.88000000000E+00 0.  1.
        -11    1    4    4    0    0  0.84724526421E-03 -0.57736780683E-02 -0.13164498236E-01  0.14408966576E-01  0.51100000000E-03 0. -1.
         11    1    4    4    0    0  0.16189146948E-01  0.10107668207E-01 -0.11687703904E+00  0.11842616608E+00  0.51100000000E-03 0.  1.
</event>
<event>
 8    1  0.1143957E+005  0.1043930E+01  0.7957747E-01            NaN
         13   -1    0    0    0    0  0.00000000000E+00  0.00000000000E+00  0.74505805969E-08  0.10566000000E+00  0.10566000000E+00 0. -1.
     999900   -1    0    0    0    0 -0.00000000000E+00 -0.00000000000E+00 -0.74505805969E-08  0.93827000000E+00  0.93827000000E+00 0. -1.
     999902    2    1    2    0    0 -0.62429198396E-02  0.17328772437E-01 -0.14544386089E-01  0.10204608805E+01  0.10201909670E+01 0.  0.
     999903    2    3    3    0    0 -0.73320765362E-01  0.97646847420E-01  0.47056080300E-01  0.13212251707E+00  0.18200092823E-01 0.  0.
         14    1    1    2    0    0  0.62429198396E-02 -0.17328772437E-01  0.14544386089E-01  0.23469119476E-01  0.00000000000E+00 0. -1.
     999901    1    3    3    0    0  0.67077845522E-01 -0.80318074983E-01 -0.61600466388E-01  0.88833836346E+00  0.88000000000E+00 0. -1.
        -11    1    4    4    0    0 -0.71053205480E-01  0.90089105759E-01  0.39958331604E-01  0.12149705499E+00  0.51100000000E-03 0. -1.
         11    1    4    4    0    0 -0.22675598811E-02  0.75577416616E-02  0.70977486952E-02  0.10625462078E-01  0.51100000000E-03 0.  1.
</event>
<event>
 8    1  0.1143957E+005  0.1043930E+01  0.7957747E-01            NaN
         13   -1    0    0    0    0  0.00000000000E+00  0.00000000000E+00  0.74505805969E-08  0.10566000000E+00  0.10566000000E+00 0. -1.
     999900   -1    0    0    0    0 -0.00000000000E+00 -0.00000000000E+00 -0.74505805969E-08  0.93827000000E+00  0.93827000000E+00 0.  1.
     999902    2    1    2    0    0  0.19905953729E-01 -0.45736858816E-02  0.11794051804E-01  0.10203447238E+01  0.10200721004E+01 0.  0.
     999903    2    3    3    0    0  0.13148056308E-01 -0.10961992196E+00 -0.66697806661E-01  0.13060242809E+00  0.20469443924E-01 0.  0.
         14    1    1    2    0    0 -0.19905953729E-01  0.45736858816E-02 -0.11794051804E-01  0.23585276219E-01  0.00000000000E+00 0.  1.
     999901    1    3    3    0    0  0.67578974206E-02  0.10504623608E+00  0.78491858465E-01  0.88974229569E+00  0.88000000000E+00 0.  1.
        -11    1    4    4    0    0  0.14540285330E-01 -0.94531162258E-01 -0.64308984096E-01  0.11525392441E+00  0.51100000000E-03 0.  1.
         11    1    4    4    0    0 -0.13922290225E-02 -0.15088759703E-01 -0.23888225653E-02  0.15348503682E-01  0.51100000000E-03 0. -1.
</event>
<event>
 8    1  0.1143957E+005  0.1043930E+01  0.7957747E-01            NaN
         13   -1    0    0    0    0  0.00000000000E+00  0.00000000000E+00  0.74505805969E-08  0.10566000000E+00  0.10566000000E+00 0. -1.
     999900   -1    0    0    0    0 -0.00000000000E+00 -0.00000000000E+00 -0.74505805969E-08  0.93827000000E+00  0.93827000000E+00 0.  1.
     999902    2    1    2    0    0 -0.75470090860E-02  0.14807309276E-01  0.16129243017E-01  0.10207704181E+01  0.10205076581E+01 0.  0.
     999903    2    3    3    0    0 -0.25525330356E-01  0.12350841309E+00 -0.34928693755E-01  0.13243148338E+00  0.20303042855E-01 0.  0.
         14    1    1    2    0    0  0.75470090860E-02 -0.14807309276E-01 -0.16129243017E-01  0.23159581914E-01  0.00000000000E+00 0.  1.
     999901    1    3    3    0    0  0.17978321270E-01 -0.10870110381E+00  0.51057936772E-01  0.88833893471E+00  0.88000000000E+00 0. -1.
        -11    1    4    4    0    0  0.85573575305E-03  0.41446685392E-01 -0.91012049471E-02  0.42445883972E-01  0.51100000000E-03 0.  1.
         11    1    4    4    0    0 -0.26381066109E-01  0.82061727698E-01 -0.25827488808E-01  0.89985599408E-01  0.51100000000E-03 0. -1.
</event>
<event>
 8    1  0.1143957E+005  0.1043930E+01  0.7957747E-01            NaN
         13   -1    0    0    0    0  0.00000000000E+00  0.00000000000E+00  0.74505805969E-08  0.10566000000E+00  0.10566000000E+00 0. -1.
     999900   -1    0    0    0    0 -0.00000000000E+00 -0.00000000000E+00 -0.74505805969E-08  0.93827000000E+00  0.93827000000E+00 0. -1.
     999902    2    1    2    0    0 -0.76536336578E-02 -0.52799682024E-02  0.22557595794E-01  0.10195312029E+01  0.10192392125E+01 0.  0.
     999903    2    3    3    0    0  0.78849574323E-01  0.13883247590E-01 -0.96811148946E-01  0.12706331492E+00  0.19044356246E-01 0.  0.
         14    1    1    2    0    0  0.76536336578E-02  0.52799682024E-02 -0.22557595794E-01  0.24398797109E-01  0.00000000000E+00 0.  1.
     999901    1    3    3    0    0 -0.86503207980E-01 -0.19163215793E-01  0.11936874474E+00  0.89246788797E+00  0.88000000000E+00 0.  1.
        -11    1    4    4    0    0  0.48542252289E-01  0.25929425753E-02 -0.46642046290E-01  0.67370729636E-01  0.51100000000E-03 0. -1.
         11    1    4    4    0    0  0.30307322034E-01  0.11290305015E-01 -0.50169102656E-01  0.59692585289E-01  0.51100000000E-03 0.  1.
</event>
<event>
 8    1  0.1143957E+005  0.1043930E+01  0.7957747E-01            NaN
         13   -1    0    0    0    0  0.00000000000E+00  0.00000000000E+00  0.74505805969E-08  0.10566000000E+00  0.10566000000E+00 0. -1.
     999900   -1    0    0    0    0 -0.00000000000E+00 -0.00000000000E+00 -0.74505805969E-08  0.93827000000E+00  0.93827000000E+00 0. -1.
     999902    2    1    2    0    0 -0.11806607519E-01 -0.57838619102E-02 -0.15602363297E-01  0.10235269909E+01  0.10233236137E+01 0.  0.
     999903    2    3    3    0    0 -0.36533887152E-01  0.19053645754E-01 -0.12768535437E+00  0.13572580988E+00  0.20498278445E-01 0.  0.
         14    1    1    2    0    0  0.11806607519E-01  0.57838619102E-02  0.15602363297E-01  0.20403009096E-01  0.00000000000E+00 0. -1.
     999901    1    3    3    0    0  0.24727279633E-01 -0.24837507664E-01  0.11208299107E+00  0.88780118103E+00  0.88000000000E+00 0.  1.
        -11    1    4    4    0    0 -0.17024845324E-01  0.12613838105E-01 -0.93215600177E-01  0.95594788077E-01  0.51100000000E-03 0. -1.
         11    1    4    4    0    0 -0.19509041829E-01  0.64398076490E-02 -0.34469754193E-01  0.40131021800E-01  0.51100000000E-03 0.  1.
</event>
<event>
 8    1  0.1143957E+005  0.1043930E+01  0.7957747E-01            NaN
         13   -1    0    0    0    0  0.00000000000E+00  0.00000000000E+00  0.74505805969E-08  0.10566000000E+00  0.10566000000E+00 0.  1.
     999900   -1    0    0    0    0 -0.00000000000E+00 -0.00000000000E+00 -0.74505805969E-08  0.93827000000E+00  0.93827000000E+00 0.  1.
     999902    2    1    2    0    0  0.58016658321E-02  0.21504397074E-01 -0.83259094581E-02  0.10201514553E+01  0.10198742925E+01 0.  0.
     999903    2    3    3    0    0  0.77960926560E-02  0.12999352435E+00 -0.21075087430E-01  0.13339533887E+00  0.19775279749E-01 0.  0.
         14    1    1    2    0    0 -0.58016658321E-02 -0.21504397074E-01  0.83259094581E-02  0.23778544704E-01  0.00000000000E+00 0.  1.
     999901    1    3    3    0    0 -0.19944268239E-02 -0.10848912728E+00  0.12749177972E-01  0.88675611642E+00  0.88000000000E+00 0.  1.
        -11    1    4    4    0    0  0.12693379775E-01  0.72748763513E-01 -0.66004610516E-02  0.74143992946E-01  0.51100000000E-03 0.  1.
         11    1    4    4    0    0 -0.48972871191E-02  0.57244760836E-01 -0.14474626379E-01  0.59251345927E-01  0.51100000000E-03 0. -1.
</event>
<event>
 8    1  0.1143957E+005  0.1043930E+01  0.7957747E-01            NaN
         13   -1    0    0    0    0  0.00000000000E+00  0.00000000000E+00  0.74505805969E-08  0.10566000000E+00  0.10566000000E+00 0.  1.
     999900   -1    0    0    0    0 -0.00000000000E+00 -0.00000000000E+00 -0.74505805969E-08  0.93827000000E+00  0.93827000000E+00 0.  1.
     999902    2    1    2    0    0 -0.42199569981E-03  0.18353437153E-02  0.22684835716E-01  0.10211671281E+01  0.10209133926E+01 0.  0.
     999903    2    3    3    0    0 -0.46409702266E-01 -0.95749457464E-01 -0.72087241505E-01  0.12952851900E+00  0.16101173132E-01 0.  0.
         14    1    1    2    0    0  0.42199569981E-03 -0.18353437153E-02 -0.22684835716E-01  0.22762871927E-01  0.00000000000E+00 0. -1.
     999901    1    3    3    0    0  0.45987706566E-01  0.97584801180E-01  0.94772077221E-01  0.89163860908E+00  0.88000000000E+00 0. -1.
        -11    1    4    4    0    0 -0.24080522777E-01 -0.64907193428E-01 -0.51097762275E-01  0.86046834726E-01  0.51100000000E-03 0. -1.
         11    1    4    4    0    0 -0.22329179489E-01 -0.30842264037E-01 -0.20989479230E-01  0.43481684270E-01  0.51100000000E-03 0.  1.
</event>
<event>
 8    1  0.1143957E+005  0.1043930E+01  0.7957747E-01            NaN
         13   -1    0    0    0    0  0.00000000000E+00  0.00000000000E+00  0.74505805969E-08  0.10566000000E+00  0.10566000000E+00 0.  1.
     999900   -1    0    0    0    0 -0.00000000000E+00 -0.00000000000E+00 -0.74505805969E-08  0.93827000000E+00  0.93827000000E+00 0.  1.
     999902    2    1    2    0    0 -0.20242037199E-01  0.13749522513E-02 -0.12503422234E-01  0.10200979600E+01  0.10198195340E+01 0.  0.
     999903    2    3    3    0    0 -0.70758134019E-01  0.60032272816E-01  0.90014432879E-01  0.13077098530E+00  0.19694292561E-01 0.  0.
         14    1    1    2    0    0  0.20242037199E-01 -0.13749522513E-02  0.12503422234E-01  0.23832040014E-01  0.00000000000E+00 0.  1.
     999901    1    3    3    0    0  0.50516096819E-01 -0.58657320565E-01 -0.10251785511E+00  0.88932697469E+00  0.88000000000E+00 0.  1.
        -11    1    4    4    0    0 -0.30502683653E-01  0.15677897646E-01  0.25531723003E-01  0.42759094766E-01  0.51100000000E-03 0. -1.
         11    1    4    4    0    0 -0.40255450366E-01  0.44354375170E-01  0.64482709876E-01  0.88011890531E-01  0.51100000000E-03 0.  1.
</event>
<event>
 8    1  0.1143957E+005  0.1043930E+01  0.7957747E-01            NaN
         13   -1    0    0    0    0  0.00000000000E+00  0.00000000000E+00  0.74505805969E-08  0.10566000000E+00  0.10566000000E+00 0. -1.
     999900   -1    0    0    0    0 -0.00000000000E+00 -0.00000000000E+00 -0.74505805969E-08  0.93827000000E+00  0.93827000000E+00 0.  1.
     999902    2    1    2    0    0  0.22501967545E-01 -0.75940809787E-02  0.16706262121E-02  0.10201224466E+01  0.10198445991E+01 0.  0.
     999903    2    3    3    0    0 -0.47656853308E-01 -0.10725516617E+00  0.52762802445E-01  0.13025447740E+00  0.20185866954E-01 0.  0.
         14    1    1    2    0    0 -0.22501967545E-01  0.75940809787E-02 -0.16706262121E-02  0.23807553450E-01  0.00000000000E+00 0. -1.
     999901    1    3    3    0    0  0.70158820853E-01  0.99661085188E-01 -0.51092176233E-01  0.88986796915E+00  0.88000000000E+00 0.  1.
        -11    1    4    4    0    0 -0.29023403072E-01 -0.73058752806E-01  0.44862631175E-01  0.90514397111E-01  0.51100000000E-03 0.  1.
         11    1    4    4    0    0 -0.18633450235E-01 -0.34196413360E-01  0.79001712707E-02  0.39740080290E-01  0.51100000000E-03 0. -1.
</event>
<event>
 8    1  0.1143957E+005  0.1043930E+01  0.7957747E-01            NaN
         13   -1    0    0    0    0  0.00000000000E+00  0.00000000000E+00  0.74505805969E-08  0.10566000000E+00  0.10566000000E+00 0.  1.
     999900   -1    0    0    0    0 -0.00000000000E+00 -0.00000000000E+00 -0.74505805969E-08  0.93827000000E+00  0.93827000000E+00 0.  1.
     999902    2    1    2    0    0 -0.10226632610E-01 -0.61793478195E-02 -0.20887582007E-01  0.10198663462E+01  0.10195824168E+01 0.  0.
     999903    2    3    3    0    0  0.87049511842E-01  0.71971968178E-01 -0.61483131954E-01  0.13013701926E+00  0.19947093809E-01 0.  0.
         14    1    1    2    0    0  0.10226632610E-01  0.61793478195E-02  0.20887582007E-01  0.24063653840E-01  0.00000000000E+00 0.  1.
     999901    1    3    3    0    0 -0.97276144453E-01 -0.78151315997E-01  0.40595549947E-01  0.88972932690E+00  0.88000000000E+00 0.  1.
        -11    1    4    4    0    0  0.97017421118E-02  0.17282245501E-01 -0.82487887843E-02  0.21473319421E-01  0.51100000000E-03 0.  1.
         11    1    4    4    0    0  0.77347769731E-01  0.54689722677E-01 -0.53234343170E-01  0.10866369984E+00  0.51100000000E-03 0. -1.
</event>
<event>
 8    1  0.1143957E+005  0.1043930E+01  0.7957747E-01            NaN
         13   -1    0    0    0    0  0.00000000000E+00  0.00000000000E+00  0.74505805969E-08  0.10566000000E+00  0.10566000000E+00 0. -1.
     999900   -1    0    0    0    0 -0.00000000000E+00 -0.00000000000E+00 -0.74505805969E-08  0.93827000000E+00  0.93827000000E+00 0.  1.
     999902    2    1    2    0    0  0.28803864266E-02  0.15089389243E-01  0.19001327710E-01  0.10194956646E+01  0.10192028126E+01 0.  0.
     999903    2    3    3    0    0 -0.48935110833E-01  0.74985933620E-01  0.95414866031E-01  0.13264084520E+00  0.21726984188E-01 0.  0.
         14    1    1    2    0    0 -0.28803864266E-02 -0.15089389243E-01 -0.19001327710E-01  0.24434335441E-01  0.00000000000E+00 0.  1.
     999901    1    3    3    0    0  0.51815497260E-01 -0.59896544377E-01 -0.76413538321E-01  0.88685481936E+00  0.88000000000E+00 0.  1.
        -11    1    4    4    0    0 -0.31615758193E-01  0.29081806399E-01  0.47834648061E-01  0.64294030093E-01  0.51100000000E-03 0. -1.
         11    1    4    4    0    0 -0.17319352640E-01  0.45904127221E-01  0.47580217971E-01  0.68346815105E-01  0.51100000000E-03 0.  1.
</event>
<event>
 8    1  0.1143957E+005  0.1043930E+01  0.7957747E-01            NaN
         13   -1    0    0    0    0  0.00000000000E+00  0.00000000000E+00  0.74505805969E-08  0.10566000000E+00  0.10566000000E+00 0.  1.
     999900   -1    0    0    0    0 -0.00000000000E+00 -0.00000000000E+00 -0.74505805969E-08  0.93827000000E+00  0.93827000000E+00 0.  1.
     999902    2    1    2    0    0  0.87368554294E-02  0.16885738173E-01  0.11350685964E-01  0.10217873067E+01  0.10215473563E+01 0.  0.
     999903    2    3    3    0    0  0.40357573004E-01 -0.31550788728E-01  0.12128002715E+00  0.13306326233E+00  0.19308050903E-01 0.  0.
         14    1    1    2    0    0 -0.87368554294E-02 -0.16885738173E-01 -0.11350685964E-01  0.22142693339E-01  0.00000000000E+00 0.  1.
     999901    1    3    3    0    0 -0.31620717574E-01  0.48436526901E-01 -0.10992934118E+00  0.88872404433E+00  0.88000000000E+00 0.  1.
        -11    1    4    4    0    0  0.17936245914E-01 -0.25805937813E-01  0.64723095964E-01  0.71951342003E-01  0.51100000000E-03 0. -1.
         11    1    4    4    0    0  0.22421327090E-01 -0.57448509154E-02  0.56556931181E-01  0.61111920328E-01  0.51100000000E-03 0.  1.
</event>
<event>
 8    1  0.1143957E+005  0.1043930E+01  0.7957747E-01            NaN
         13   -1    0    0    0    0  0.00000000000E+00  0.00000000000E+00  0.74505805969E-08  0.10566000000E+00  0.10566000000E+00 0. -1.
     999900   -1    0    0    0    0 -0.00000000000E+00 -0.00000000000E+00 -0.74505805969E-08  0.93827000000E+00  0.93827000000E+00 0.  1.
     999902    2    1    2    0    0  0.12221954257E-02 -0.18517162874E-01 -0.18201310085E-01  0.10179364090E+01  0.10176044743E+01 0.  0.
     999903    2    3    3    0    0 -0.43856167950E-01 -0.12131868984E+00 -0.70760470853E-02  0.13073632773E+00  0.20008222640E-01 0.  0.
         14    1    1    2    0    0 -0.12221954257E-02  0.18517162874E-01  0.18201310085E-01  0.25993590967E-01  0.00000000000E+00 0. -1.
     999901    1    3    3    0    0  0.45078363375E-01  0.10280152697E+00 -0.11125263000E-01  0.88720008131E+00  0.88000000000E+00 0.  1.
        -11    1    4    4    0    0 -0.32329274808E-01 -0.66620266307E-01 -0.10177973964E-01  0.74748205112E-01  0.51100000000E-03 0. -1.
         11    1    4    4    0    0 -0.11526893142E-01 -0.54698423534E-01  0.31019268792E-02  0.55988122616E-01  0.51100000000E-03 0.  1.
</event>
<event>
 8    1  0.1143957E+005  0.1043930E+01  0.7957747E-01            NaN
         13   -1    0    0    0    0  0.00000000000E+00  0.00000000000E+00  0.74505805969E-08  0.10566000000E+00  0.10566000000E+00 0.  1.
     999900   -1    0    0    0    0 -0.00000000000E+00 -0.00000000000E+00 -0.74505805969E-08  0.93827000000E+00  0.93827000000E+00 0. -1.
     999902    2    1    2    0    0 -0.16331956809E-01  0.16766403955E-01 -0.10516101363E-01  0.10182700409E+01  0.10179466797E+01 0.  0.
     999903    2    3    3    0    0  0.42998412565E-01 -0.11612421424E+00  0.12347893668E-01  0.12602412667E+00  0.19897572925E-01 0.  0.
         14    1    1    2    0    0  0.16331956809E-01 -0.16766403955E-01  0.10516101363E-01  0.25659959132E-01  0.00000000000E+00 0. -1.
     999901    1    3    3    0    0 -0.59330369375E-01  0.13289061820E+00 -0.22863995030E-01  0.89224591420E+00  0.88000000000E+00 0. -1.
        -11    1    4    4    0    0  0.22390466085E-01 -0.45491789349E-01 -0.32494492200E-02  0.50809998139E-01  0.51100000000E-03 0.  1.
         11    1    4    4    0    0  0.20607946481E-01 -0.70632424893E-01  0.15597342888E-01  0.75214128531E-01  0.51100000000E-03 0. -1.
</event>
<event>
 8    1  0.1143957E+005  0.1043930E+01  0.7957747E-01            NaN
         13   -1    0    0    0    0  0.00000000000E+00  0.00000000000E+00  0.74505805969E-08  0.10566000000E+00  0.10566000000E+00 0. -1.
     999900   -1    0    0    0    0 -0.00000000000E+00 -0.00000000000E+00 -0.74505805969E-08  0.93827000000E+00  0.93827000000E+00 0.  1.
     999902    2    1    2    0    0 -0.46988018125E-02 -0.16585634887E-01 -0.19203867812E-01  0.10181239821E+01  0.10177968816E+01 0.  0.
     999903    2    3    3    0    0 -0.10463454567E+00 -0.69115254196E-01 -0.31255629406E-01  0.13082935300E+00  0.20349415865E-01 0.  0.
         14    1    1    2    0    0  0.46988018125E-02  0.16585634887E-01  0.19203867812E-01  0.25806017942E-01  0.00000000000E+00 0. -1.
     999901    1    3    3    0    0  0.99935743855E-01  0.52529619308E-01  0.12051761594E-01  0.88729462906E+00  0.88000000000E+00 0. -1.
        -11    1    4    4    0    0 -0.66254420169E-01 -0.42766427228E-01 -0.94670885265E-02  0.79426081207E-01  0.51100000000E-03 0. -1.
         11    1    4    4    0    0 -0.38380125499E-01 -0.26348826967E-01 -0.21788540880E-01  0.51403271788E-01  0.51100000000E-03 0.  1.
</event>
<event>
 8    1  0.1143957E+005  0.1043930E+01  0.7957747E-01            NaN
         13   -1    0    0    0    0  0.00000000000E+00  0.00000000000E+00  0.74505805969E-08  0.10566000000E+00  0.10566000000E+00 0.  1.
     999900   -1    0    0    0    0 -0.00000000000E+00 -0.00000000000E+00 -0.74505805969E-08  0.93827000000E+00  0.93827000000E+00 0.  1.
     999902    2    1    2    0    0 -0.47037326688E-02  0.17394342450E-01  0.14847264587E-01  0.10205819912E+01  0.10203148883E+01 0.  0.
     999903    2    3    3    0    0 -0.72954872922E-01  0.72996348703E-01 -0.78433948366E-01  0.13128384886E+00  0.20801065051E-01 0.  0.
         14    1    1    2    0    0  0.47037326688E-02 -0.17394342450E-01 -0.14847264587E-01  0.23348008823E-01  0.00000000000E+00 0. -1.
     999901    1    3    3    0    0  0.68251140253E-01 -0.55602006253E-01  0.93281212953E-01  0.88929814232E+00  0.88000000000E+00 0. -1.
        -11    1    4    4    0    0 -0.68002661176E-01  0.66774775015E-01 -0.64017200820E-01  0.11481156574E+00  0.51100000000E-03 0.  1.
         11    1    4    4    0    0 -0.49522117460E-02  0.62215736881E-02 -0.14416747547E-01  0.16472283119E-01  0.51100000000E-03 0. -1.
</event>
<event>
 8    1  0.1143957E+005  0.1043930E+01  0.7957747E-01            NaN
         13   -1    0    0    0    0  0.00000000000E+00  0.00000000000E+00  0.74505805969E-08  0.10566000000E+00  0.10566000000E+00 0. -1.
     999900   -1    0    0    0    0 -0.00000000000E+00 -0.00000000000E+00 -0.74505805969E-08  0.93827000000E+00  0.93827000000E+00 0.  1.
     999902    2    1    2    0    0  0.51632075484E-02 -0.23067200220E-01 -0.31223376632E-02  0.10200866900E+01  0.10198079975E+01 0.  0.
     999903    2    3    3    0    0  0.12322129508E+00 -0.21800378594E-01  0.33482908591E-01  0.13144769644E+00  0.22330420127E-01 0.  0.
         14    1    1    2    0    0 -0.51632075484E-02  0.23067200220E-01  0.31223376632E-02  0.23843309977E-01  0.00000000000E+00 0. -1.
     999901    1    3    3    0    0 -0.11805808753E+00 -0.12668216263E-02 -0.36605246254E-01  0.88863899359E+00  0.88000000000E+00 0. -1.
        -11    1    4    4    0    0  0.57406903666E-01 -0.29116972384E-05  0.20168467621E-01  0.60848835685E-01  0.51100000000E-03 0.  1.
         11    1    4    4    0    0  0.65814391413E-01 -0.21797466896E-01  0.13314440970E-01  0.70598860752E-01  0.51100000000E-03 0. -1.
</event>
<event>
 8    1  0.1143957E+005  0.1043930E+01  0.7957747E-01            NaN
         13   -1    0    0    0    0  0.00000000000E+00  0.00000000000E+00  0.74505805969E-08  0.10566000000E+00  0.10566000000E+00 0.  1.
     999900   -1    0    0    0    0 -0.00000000000E+00 -0.00000000000E+00 -0.74505805969E-08  0.93827000000E+00  0.93827000000E+00 0.  1.
     999902    2    1    2    0    0 -0.18456340177E-01 -0.11461179879E-02  0.16570955009E-01  0.10190996430E+01  0.10187971023E+01 0.  0.
     999903    2    3    3    0    0  0.57240985444E-01  0.44490081785E-01 -0.10008429799E+00  0.12701153306E+00  0.29311517076E-01 0.  0.
         14    1    1    2    0    0  0.18456340177E-01  0.11461179879E-02 -0.16570955009E-01  0.24830357007E-01  0.00000000000E+00 0. -1.
     999901    1    3    3    0    0 -0.75697325621E-01 -0.45636199773E-01  0.11665525300E+00  0.89208810994E+00  0.88000000000E+00 0. -1.
        -11    1    4    4    0    0  0.18914760688E-01  0.25354321499E-01 -0.24055270533E-01  0.39743262976E-01  0.51100000000E-03 0.  1.
         11    1    4    4    0    0  0.38326224756E-01  0.19135760287E-01 -0.76029027458E-01  0.87268270081E-01  0.51100000000E-03 0. -1.
</event>
<event>
 8    1  0.1143957E+005  0.1043930E+01  0.7957747E-01            NaN
         13   -1    0    0    0    0  0.00000000000E+00  0.00000000000E+00  0.74505805969E-08  0.10566000000E+00  0.10566000000E+00 0.  1.
     999900   -1    0    0    0    0 -0.00000000000E+00 -0.00000000000E+00 -0.74505805969E-08  0.93827000000E+00  0.93827000000E+00 0. -1.
     999902    2    1    2    0    0  0.49080891521E-02 -0.20983772176E-01 -0.67425639359E-02  0.10213496944E+01  0.10211000578E+01 0.  0.
     999903    2    3    3    0    0 -0.54345297452E-01  0.11522098556E+00 -0.89881134721E-02  0.12889927987E+00  0.17462854774E-01 0.  0.
         14    1    1    2    0    0 -0.49080891521E-02  0.20983772176E-01  0.67425639359E-02  0.22580305629E-01  0.00000000000E+00 0.  1.
     999901    1    3    3    0    0  0.59253386604E-01 -0.13620475774E+00  0.22455495362E-02  0.89245041450E+00  0.88000000000E+00 0.  1.
        -11    1    4    4    0    0 -0.14337350927E-01  0.50415602222E-01 -0.43020061162E-02  0.52593354681E-01  0.51100000000E-03 0.  1.
         11    1    4    4    0    0 -0.40007946525E-01  0.64805383342E-01 -0.46861073559E-02  0.76305925186E-01  0.51100000000E-03 0. -1.
</event>
<event>
 8    1  0.1143957E+005  0.1043930E+01  0.7957747E-01            NaN
         13   -1    0    0    0    0  0.00000000000E+00  0.00000000000E+00  0.74505805969E-08  0.10566000000E+00  0.10566000000E+00 0.  1.
     999900   -1    0    0    0    0 -0.00000000000E+00 -0.00000000000E+00 -0.74505805969E-08  0.93827000000E+00  0.93827000000E+00 0.  1.
     999902    2    1    2    0    0  0.53995280877E-02  0.24294687632E-01 -0.72528755282E-02  0.10180072117E+01  0.10176771060E+01 0.  0.
     999903    2    3    3    0    0  0.11523328321E+00  0.87693140557E-02  0.53724964045E-01  0.12894996498E+00  0.19649714521E-01 0.  0.
         14    1    1    2    0    0 -0.53995280877E-02 -0.24294687632E-01  0.72528755282E-02  0.25922788317E-01  0.00000000000E+00 0.  1.
     999901    1    3    3    0    0 -0.10983375512E+00  0.15525373576E-01 -0.60977839573E-01  0.88905724670E+00  0.88000000000E+00 0.  1.
        -11    1    4    4    0    0  0.38405404466E-01 -0.61250670389E-02  0.19960138110E-01  0.43716813388E-01  0.51100000000E-03 0.  1.
         11    1    4    4    0    0  0.76827878739E-01  0.14894381095E-01  0.33764825935E-01  0.85233151597E-01  0.51100000000E-03 0. -1.
</event>
<event>
 8    1  0.1143957E+005  0.1043930E+01  0.7957747E-01            NaN
         13   -1    0    0    0    0  0.00000000000E+00  0.00000000000E+00  0.74505805969E-08  0.10566000000E+00  0.10566000000E+00 0.  1.
     999900   -1    0    0    0    0 -0.00000000000E+00 -0.00000000000E+00 -0.74505805969E-08  0.93827000000E+00  0.93827000000E+00 0.  1.
     999902    2    1    2    0    0 -0.68591845380E-02 -0.71916814385E-02  0.23510809667E-01  0.10184049757E+01  0.10180850493E+01 0.  0.
     999903    2    3    3    0    0 -0.52940247430E-01 -0.14603678791E-01  0.11827629402E+00  0.13208736948E+00  0.21020328682E-01 0.  0.
         14    1    1    2    0    0  0.68591845380E-02  0.71916814385E-02 -0.23510809667E-01  0.25525024302E-01  0.00000000000E+00 0. -1.
     999901    1    3    3    0    0  0.46081062892E-01  0.74119973520E-02 -0.94765484352E-01  0.88631760621E+00  0.88000000000E+00 0.  1.
        -11    1    4    4    0    0 -0.14261179504E-01  0.36070222879E-02  0.19306480664E-01  0.24277420935E-01  0.51100000000E-03 0. -1.
         11    1    4    4    0    0 -0.38679067926E-01 -0.18210701078E-01  0.98969813354E-01  0.10780994855E+00  0.51100000000E-03 0.  1.
</event>
<event>
 8    1  0.1143957E+005  0.1043930E+01  0.7957747E-01            NaN
         13   -1    0    0    0    0  0.00000000000E+00  0.00000000000E+00  0.74505805969E-08  0.10566000000E+00  0.10566000000E+00 0.  1.
     999900   -1    0    0    0    0 -0.00000000000E+00 -0.00000000000E+00 -0.74505805969E-08  0.93827000000E+00  0.93827000000E+00 0.  1.
     999902    2    1    2    0    0  0.15587071028E-01 -0.54624133725E-02  0.18737535154E-01  0.10189522105E+01  0.10186460216E+01 0.  0.
     999903    2    3    3    0    0  0.15821975405E-01  0.89146770875E-01 -0.87376453883E-01  0.12754257877E+00  0.20856247110E-01 0.  0.
         14    1    1    2    0    0 -0.15587071028E-01  0.54624133725E-02 -0.18737535154E-01  0.24977789468E-01  0.00000000000E+00 0. -1.
     999901    1    3    3    0    0 -0.23490437695E-03 -0.94609184248E-01  0.10611398904E+00  0.89140963176E+00  0.88000000000E+00 0. -1.
        -11    1    4    4    0    0  0.19347879110E-01  0.61125435627E-01 -0.66833194363E-01  0.92615313509E-01  0.51100000000E-03 0. -1.
         11    1    4    4    0    0 -0.35259037058E-02  0.28021335249E-01 -0.20543259521E-01  0.34927265264E-01  0.51100000000E-03 0.  1.
</event>
<event>
 8    1  0.1143957E+005  0.1043930E+01  0.7957747E-01            NaN
         13   -1    0    0    0    0  0.00000000000E+00  0.00000000000E+00  0.74505805969E-08  0.10566000000E+00  0.10566000000E+00 0. -1.
     999900   -1    0    0    0    0 -0.00000000000E+00 -0.00000000000E+00 -0.74505805969E-08  0.93827000000E+00  0.93827000000E+00 0. -1.
     999902    2    1    2    0    0 -0.22959836882E-02  0.16958292796E-02  0.23919808554E-01  0.10198404874E+01  0.10195559401E+01 0.  0.
     999903    2    3    3    0    0 -0.10990023725E+00  0.63950350341E-01  0.23925777698E-01  0.13110301160E+00  0.21162404323E-01 0.  0.
         14    1    1    2    0    0  0.22959836882E-02 -0.16958292796E-02 -0.23919808554E-01  0.24089512642E-01  0.00000000000E+00 0.  1.
     999901    1    3    3    0    0  0.10760425356E+00 -0.62254521061E-01 -0.59691439967E-05  0.88873747576E+00  0.88000000000E+00 0. -1.
        -11    1    4    4    0    0 -0.81546990874E-01  0.48770335788E-01  0.27027269336E-01  0.98788621725E-01  0.51100000000E-03 0. -1.
         11    1    4    4    0    0 -0.28353246374E-01  0.15180014553E-01 -0.31014916373E-02  0.32314389877E-01  0.51100000000E-03 0.  1.
</event>
<event>
 8    1  0.1143957E+005  0.1043930E+01  0.7957747E-01            NaN
         13   -1    0    0    0    0  0.00000000000E+00  0.00000000000E+00  0.74505805969E-08  0.10566000000E+00  0.10566000000E+00 0.  1.
     999900   -1    0    0    0    0 -0.00000000000E+00 -0.00000000000E+00 -0.74505805969E-08  0.93827000000E+00  0.93827000000E+00 0. -1.
     999902    2    1    2    0    0 -0.72058278215E-02  0.20520431817E-01 -0.84883740225E-02  0.10205833820E+01  0.10203163113E+01 0.  0.
     999903    2    3    3    0    0  0.31322428190E-01 -0.11193328860E+00  0.50714433906E-01  0.12787212579E+00  0.16406436038E-01 0.  0.
         14    1    1    2    0    0  0.72058278215E-02 -0.20520431817E-01  0.84883740225E-02  0.23346617959E-01  0.00000000000E+00 0.  1.
     999901    1    3    3    0    0 -0.38528256012E-01  0.13245372042E+00 -0.59202807929E-01  0.89271125625E+00  0.88000000000E+00 0. -1.
        -11    1    4    4    0    0  0.30073526397E-01 -0.82393345234E-01  0.35580111373E-01  0.94653503766E-01  0.51100000000E-03 0. -1.
         11    1    4    4    0    0  0.12489017932E-02 -0.29539943369E-01  0.15134322533E-01  0.33218622028E-01  0.51100000000E-03 0.  1.
</event>
<event>
 8    1  0.1143957E+005  0.1043930E+01  0.7957747E-01            NaN
         13   -1    0    0    0    0  0.00000000000E+00  0.00000000000E+00  0.74505805969E-08  0.10566000000E+00  0.10566000000E+00 0. -1.
     999900   -1    0    0    0    0 -0.00000000000E+00 -0.00000000000E+00 -0.74505805969E-08  0.93827000000E+00  0.93827000000E+00 0. -1.
     999902    2    1    2    0    0  0.19253896438E-02 -0.20468586829E-01 -0.11524146818E-01  0.10203614588E+01  0.10200892268E+01 0.  0.
     999903    2    3    3    0    0  0.64021455260E-01  0.58250870693E-01  0.90492066096E-01  0.12881225547E+00  0.30197226061E-01 0.  0.
         14    1    1    2    0    0 -0.19253896438E-02  0.20468586829E-01  0.11524146818E-01  0.23568541150E-01  0.00000000000E+00 0. -1.
     999901    1    3    3    0    0 -0.62096065616E-01 -0.78719457522E-01 -0.10201621291E+00  0.89154920338E+00  0.88000000000E+00 0.  1.
        -11    1    4    4    0    0  0.37279198463E-02  0.19788341917E-01  0.20696816167E-01  0.28880706062E-01  0.51100000000E-03 0.  1.
         11    1    4    4    0    0  0.60293535414E-01  0.38462528776E-01  0.69795249929E-01  0.99931549404E-01  0.51100000000E-03 0. -1.
</event>
<event>
 8    1  0.1143957E+005  0.1043930E+01  0.7957747E-01            NaN
         13   -1    0    0    0    0  0.00000000000E+00  0.00000000000E+00  0.74505805969E-08  0.10566000000E+00  0.10566000000E+00 0.  1.
     999900   -1    0    0    0    0 -0.00000000000E+00 -0.00000000000E+00 -0.74505805969E-08  0.93827000000E+00  0.93827000000E+00 0. -1.
     999902    2    1    2    0    0  0.17372854919E-01  0.11834556707E-02  0.15737026371E-01  0.10204593661E+01  0.10201894173E+01 0.  0.
     999903    2    3    3    0    0 -0.23062243867E-01 -0.43697213343E-02  0.12860041319E+00  0.13231299358E+00  0.20437721014E-01 0.  0.
         14    1    1    2    0    0 -0.17372854919E-01 -0.11834556707E-02 -0.15737026371E-01  0.23470633872E-01  0.00000000000E+00 0.  1.
     999901    1    3    3    0    0  0.40435098785E-01  0.55531770050E-02 -0.11286338682E+00  0.88814637255E+00  0.88000000000E+00 0. -1.
        -11    1    4    4    0    0  0.31871573492E-02  0.17628236434E-02  0.24661321402E-01  0.24934061311E-01  0.51100000000E-03 0.  1.
         11    1    4    4    0    0 -0.26249401216E-01 -0.61325449777E-02  0.10393909179E+00  0.10737893227E+00  0.51100000000E-03 0. -1.
</event>
<event>
 8    1  0.1143957E+005  0.1043930E+01  0.7957747E-01            NaN
         13   -1    0    0    0    0  0.00000000000E+00  0.00000000000E+00  0.74505805969E-08  0.10566000000E+00  0.10566000000E+00 0. -1.
     999900   -1    0    0    0    0 -0.00000000000E+00 -0.00000000000E+00 -0.74505805969E-08  0.93827000000E+00  0.93827000000E+00 0. -1.
     999902    2    1    2    0    0  0.23224991786E-01 -0.17432302594E-02  0.90676200420E-02  0.10189367844E+01  0.10186302124E+01 0.  0.
     999903    2    3    3    0    0  0.12686889215E+00  0.30536376191E-01 -0.35625506002E-02  0.13217664075E+00  0.20731293382E-01 0.  0.
         14    1    1    2    0    0 -0.23224991786E-01  0.17432302594E-02 -0.90676200420E-02  0.24993215648E-01  0.00000000000E+00 0.  1.
     999901    1    3    3    0    0 -0.10364390037E+00 -0.32279606450E-01  0.12630170642E-01  0.88676014361E+00  0.88000000000E+00 0. -1.
        -11    1    4    4    0    0  0.56341600874E-01  0.96586621131E-02 -0.11112489488E-01  0.58235850526E-01  0.51100000000E-03 0. -1.
         11    1    4    4    0    0  0.70527291279E-01  0.20877714077E-01  0.75499388875E-02  0.73940790221E-01  0.51100000000E-03 0.  1.
</event>
<event>
 8    1  0.1143957E+005  0.1043930E+01  0.7957747E-01            NaN
         13   -1    0    0    0    0  0.00000000000E+00  0.00000000000E+00  0.74505805969E-08  0.10566000000E+00  0.10566000000E+00 0.  1.
     999900   -1    0    0    0    0 -0.00000000000E+00 -0.00000000000E+00 -0.74505805969E-08  0.93827000000E+00  0.93827000000E+00 0.  1.
     999902    2    1    2    0    0 -0.49953885738E-02  0.29295762589E-02 -0.22917487408E-01  0.10202921584E+01  0.10200183043E+01 0.  0.
     999903    2    3    3    0    0 -0.10214835736E+00  0.43960500636E-01 -0.69836504560E-01  0.13275419855E+00  0.19486593698E-01 0.  0.
         14    1    1    2    0    0  0.49953885738E-02 -0.29295762589E-02  0.22917487408E-01  0.23637841550E-01  0.00000000000E+00 0.  1.
     999901    1    3    3    0    0  0.97152968791E-01 -0.41030924377E-01  0.46919017151E-01  0.88753795990E+00  0.88000000000E+00 0. -1.
        -11    1    4    4    0    0 -0.21029228549E-01  0.14155069467E-02 -0.99373945028E-02  0.23307617720E-01  0.51100000000E-03 0. -1.
         11    1    4    4    0    0 -0.81119128815E-01  0.42544993690E-01 -0.59899110057E-01  0.10944658083E+00  0.51100000000E-03 0.  1.
</event>
<event>
 8    1  0.1143957E+005  0.1043930E+01  0.7957747E-01            NaN
         13   -1    0    0    0    0  0.00000000000E+00  0.00000000000E+00  0.74505805969E-08  0.10566000000E+00  0.10566000000E+00 0. -1.
     999900   -1    0    0    0    0 -0.00000000000E+00 -0.00000000000E+00 -0.74505805969E-08  0.93827000000E+00  0.93827000000E+00 0. -1.
     999902    2    1    2    0    0  0.19987696423E-02  0.36149362225E-02 -0.22684985195E-01  0.10208719993E+01  0.10206115654E+01 0.  0.
     999903    2    3    3    0    0 -0.12310170747E+00 -0.10273721370E-01  0.34673255435E-01  0.13006731140E+00  0.21346922910E-01 0.  0.
         14    1    1    2    0    0 -0.19987696423E-02 -0.36149362225E-02  0.22684985195E-01  0.23058000722E-01  0.00000000000E+00 0. -1.
     999901    1    3    3    0    0  0.12510047712E+00  0.13888657592E-01 -0.57358240631E-01  0.89080468788E+00  0.88000000000E+00 0. -1.
        -11    1    4    4    0    0 -0.64741907977E-02 -0.20256795177E-02  0.73146086897E-02  0.99891513792E-02  0.51100000000E-03 0. -1.
         11    1    4    4    0    0 -0.11662751668E+00 -0.82480418523E-02  0.27358646746E-01  0.12007816002E+00  0.51100000000E-03 0.  1.
</event>
<event>
 8    1  0.1143957E+005  0.1043930E+01  0.7957747E-01            NaN
         13   -1    0    0    0    0  0.00000000000E+00  0.00000000000E+00  0.74505805969E-08  0.10566000000E+00  0.10566000000E+00 0.  1.
     999900   -1    0    0    0    0 -0.00000000000E+00 -0.00000000000E+00 -0.74505805969E-08  0.93827000000E+00  0.93827000000E+00 0. -1.
     999902    2    1    2    0    0  0.15548116124E-02  0.62244601248E-02 -0.22333382938E-01  0.10206933622E+01  0.10204288306E+01 0.  0.
     999903    2    3    3    0    0  0.35108238714E-01  0.57663665607E-01  0.10760560647E+00  0.12903425396E+00  0.22653595615E-01 0.  0.
         14    1    1    2    0    0 -0.15548116124E-02 -0.62244601248E-02  0.22333382938E-01  0.23236637804E-01  0.00000000000E+00 0.  1.
     999901    1    3    3    0    0 -0.33553427102E-01 -0.51439205482E-01 -0.12993898941E+00  0.89165910824E+00  0.88000000000E+00 0. -1.
        -11    1    4    4    0    0  0.11565767821E-01  0.38735612898E-01  0.53403585682E-01  0.66980734368E-01  0.51100000000E-03 0.  1.
         11    1    4    4    0    0  0.23542470893E-01  0.18928052709E-01  0.54202020789E-01  0.62053519592E-01  0.51100000000E-03 0. -1.
</event>
<event>
 8    1  0.1143957E+005  0.1043930E+01  0.7957747E-01            NaN
         13   -1    0    0    0    0  0.00000000000E+00  0.00000000000E+00  0.74505805969E-08  0.10566000000E+00  0.10566000000E+00 0. -1.
     999900   -1    0    0    0    0 -0.00000000000E+00 -0.00000000000E+00 -0.74505805969E-08  0.93827000000E+00  0.93827000000E+00 0. -1.
     999902    2    1    2    0    0 -0.10617002483E-01  0.19190295930E-01 -0.10978685485E-01  0.10194041007E+01  0.10191090231E+01 0.  0.
     999903    2    3    3    0    0 -0.91871848675E-01  0.56330895705E-01  0.71818414436E-01  0.13101390835E+00  0.19828089637E-01 0.  0.
         14    1    1    2    0    0  0.10617002483E-01 -0.19190295930E-01  0.10978685485E-01  0.24525899261E-01  0.00000000000E+00 0. -1.
     999901    1    3    3    0    0  0.81254846192E-01 -0.37140599775E-01 -0.82797099921E-01  0.88839019239E+00  0.88000000000E+00 0. -1.
        -11    1    4    4    0    0 -0.59299114263E-01  0.25889970967E-01  0.37860908318E-01  0.74969227345E-01  0.51100000000E-03 0. -1.
         11    1    4    4    0    0 -0.32572734412E-01  0.30440924738E-01  0.33957506119E-01  0.56044681003E-01  0.51100000000E-03 0.  1.
</event>
<event>
 8    1  0.1143957E+005  0.1043930E+01  0.7957747E-01            NaN
         13   -1    0    0    0    0  0.00000000000E+00  0.00000000000E+00  0.74505805969E-08  0.10566000000E+00  0.10566000000E+00 0. -1.
     999900   -1    0    0    0    0 -0.00000000000E+00 -0.00000000000E+00 -0.74505805969E-08  0.93827000000E+00  0.93827000000E+00 0.  1.
     999902    2    1    2    0    0 -0.20115520701E-01  0.57159138915E-02 -0.81381814581E-02  0.10214903957E+01  0.10212438948E+01 0.  0.
     999903    2    3    3    0    0  0.61232748865E-01 -0.11048036129E+00  0.19903276652E-01  0.12969140560E+00  0.21641638106E-01 0.  0.
         14    1    1    2    0    0  0.20115520701E-01 -0.57159138915E-02  0.81381814581E-02  0.22439604322E-01  0.00000000000E+00 0.  1.
     999901    1    3    3    0    0 -0.81348269566E-01  0.11619627519E+00 -0.28041458110E-01  0.89179899008E+00  0.88000000000E+00 0.  1.
        -11    1    4    4    0    0  0.51061870650E-01 -0.10039604720E+00  0.23163503857E-01  0.11499343442E+00  0.51100000000E-03 0.  1.
         11    1    4    4    0    0  0.10170878215E-01 -0.10084314094E-01 -0.32602272047E-02  0.14697971181E-01  0.51100000000E-03 0. -1.
</event>
<event>
 8    1  0.1143957E+005  0.1043930E+01  0.7957747E-01            NaN
         13   -1    0    0    0    0  0.00000000000E+00  0.00000000000E+00  0.74505805969E-08  0.10566000000E+00  0.10566000000E+00 0.  1.
     999900   -1    0    0    0    0 -0.00000000000E+00 -0.00000000000E+00 -0.74505805969E-08  0.93827000000E+00  0.93827000000E+00 0.  1.
     999902    2    1    2    0    0 -0.13983526486E-01  0.19726718624E-02 -0.19638279189E-01  0.10197413155E+01  0.10194543924E+01 0.  0.
     999903    2    3    3    0    0 -0.12660253662E+00  0.43646987039E-02  0.29617345450E-01  0.13119481713E+00  0.16959953329E-01 0.  0.
         14    1    1    2    0    0  0.13983526486E-01 -0.19726718624E-02  0.19638279189E-01  0.24188684478E-01  0.00000000000E+00 0.  1.
     999901    1    3    3    0    0  0.11261901014E+00 -0.23920268415E-02 -0.49255624639E-01  0.88854649839E+00  0.88000000000E+00 0.  1.
        -11    1    4    4    0    0 -0.64844646731E-01 -0.51611072995E-03  0.23356743586E-01  0.68926723206E-01  0.51100000000E-03 0.  1.
         11    1    4    4    0    0 -0.61757889894E-01  0.48808094338E-02  0.62606018645E-02  0.62268093929E-01  0.51100000000E-03 0. -1.
</event>
<event>
 8    1  0.1143957E+005  0.1043930E+01  0.7957747E-01            NaN
         13   -1    0    0    0    0  0.00000000000E+00  0.00000000000E+00  0.74505805969E-08  0.10566000000E+00  0.10566000000E+00 0. -1.
     999900   -1    0    0    0    0 -0.00000000000E+00 -0.00000000000E+00 -0.74505805969E-08  0.93827000000E+00  0.93827000000E+00 0. -1.
     999902    2    1    2    0    0  0.10265737772E-01  0.15264668506E-01  0.12292231943E-01  0.10218054787E+01  0.10215659263E+01 0.  0.
     999903    2    3    3    0    0  0.67315535131E-01  0.94717198106E-01  0.65336511799E-01  0.13479866956E+00  0.19977303458E-01 0.  0.
         14    1    1    2    0    0 -0.10265737772E-01 -0.15264668506E-01 -0.12292231943E-01  0.22124521300E-01  0.00000000000E+00 0.  1.
     999901    1    3    3    0    0 -0.57049797359E-01 -0.79452529600E-01 -0.53044279856E-01  0.88700680914E+00  0.88000000000E+00 0. -1.
        -11    1    4    4    0    0  0.14922922375E-01  0.30577640848E-01  0.11071508062E-01  0.35784425995E-01  0.51100000000E-03 0. -1.
         11    1    4    4    0    0  0.52392612756E-01  0.64139557258E-01  0.54265003738E-01  0.99014243563E-01  0.51100000000E-03 0.  1.
</event>
<event>
 8    1  0.1143957E+005  0.1043930E+01  0.7957747E-01            NaN
         13   -1    0    0    0    0  0.00000000000E+00  0.00000000000E+00  0.74505805969E-08  0.10566000000E+00  0.10566000000E+00 0. -1.
     999900   -1    0    0    0    0 -0.00000000000E+00 -0.00000000000E+00 -0.74505805969E-08  0.93827000000E+00  0.93827000000E+00 0.  1.
     999902    2    1    2    0    0 -0.65998052480E-02 -0.18767711595E-01  0.20385047823E-02  0.10239315018E+01  0.10237361870E+01 0.  0.
     999903    2    3    3    0    0  0.89165571703E-01 -0.64986532196E-01  0.74514715866E-01  0.13457218862E+00  0.19582709847E-01 0.  0.
         14    1    1    2    0    0  0.65998052480E-02  0.18767711595E-01 -0.20385047823E-02  0.19998498183E-01  0.00000000000E+00 0.  1.
     999901    1    3    3    0    0 -0.95765376951E-01  0.46218820601E-01 -0.72476211084E-01  0.88935931320E+00  0.88000000000E+00 0.  1.
        -11    1    4    4    0    0  0.29169686067E-01 -0.11391748796E-01  0.16617718486E-01  0.35454932162E-01  0.51100000000E-03 0. -1.
         11    1    4    4    0    0  0.59995885635E-01 -0.53594783400E-01  0.57896997380E-01  0.99117256457E-01  0.51100000000E-03 0.  1.
</event>
<event>
 8    1  0.1143957E+005  0.1043930E+01  0.7957747E-01            NaN
         13   -1    0    0    0    0  0.00000000000E+00  0.00000000000E+00  0.74505805969E-08  0.10566000000E+00  0.10566000000E+00 0. -1.
     999900   -1    0    0    0    0 -0.00000000000E+00 -0.00000000000E+00 -0.74505805969E-08  0.93827000000E+00  0.93827000000E+00 0.  1.
     999902    2    1    2    0    0 -0.43333163339E-02  0.15462157950E-01  0.16140547568E-01  0.10211621886E+01  0.10209083417E+01 0.  0.
     999903    2    3    3    0    0  0.66405465222E-01 -0.35234308036E-01 -0.10259303361E+00  0.12893364718E+00  0.21152128840E-01 0.  0.
         14    1    1    2    0    0  0.43333163339E-02 -0.15462157950E-01 -0.16140547568E-01  0.22767811373E-01  0.00000000000E+00 0.  1.
     999901    1    3    3    0    0 -0.70738781555E-01  0.50696465985E-01  0.11873358118E+00  0.89222854145E+00  0.88000000000E+00 0. -1.
        -11    1    4    4    0    0  0.26331299987E-01 -0.24001074464E-01 -0.56801914693E-01  0.67053020575E-01  0.51100000000E-03 0. -1.
         11    1    4    4    0    0  0.40074165235E-01 -0.11233233571E-01 -0.45791118919E-01  0.61880626602E-01  0.51100000000E-03 0.  1.
</event>
<event>
 8    1  0.1143957E+005  0.1043930E+01  0.7957747E-01            NaN
         13   -1    0    0    0    0  0.00000000000E+00  0.00000000000E+00  0.74505805969E-08  0.10566000000E+00  0.10566000000E+00 0.  1.
     999900   -1    0    0    0    0 -0.00000000000E+00 -0.00000000000E+00 -0.74505805969E-08  0.93827000000E+00  0.93827000000E+00 0.  1.
     999902    2    1    2    0    0 -0.48662291628E-02 -0.22739430843E-01 -0.53871277431E-02  0.10200598712E+01  0.10197805440E+01 0.  0.
     999903    2    3    3    0    0 -0.11557788408E+00  0.34642172881E-02 -0.58658447041E-01  0.13113831387E+00  0.19651866755E-01 0.  0.
         14    1    1    2    0    0  0.48662291628E-02  0.22739430843E-01  0.53871277431E-02  0.23870128752E-01  0.00000000000E+00 0. -1.
     999901    1    3    3    0    0  0.11071165491E+00 -0.26203648131E-01  0.53271319298E-01  0.88892155738E+00  0.88000000000E+00 0. -1.
        -11    1    4    4    0    0 -0.64684528711E-01 -0.20241384262E-02 -0.42629168993E-01  0.77496403536E-01  0.51100000000E-03 0. -1.
         11    1    4    4    0    0 -0.50893355364E-01  0.54883557143E-02 -0.16029278048E-01  0.53641910335E-01  0.51100000000E-03 0.  1.
</event>
<event>
 8    1  0.1143957E+005  0.1043930E+01  0.7957747E-01            NaN
         13   -1    0    0    0    0  0.00000000000E+00  0.00000000000E+00  0.74505805969E-08  0.10566000000E+00  0.10566000000E+00 0.  1.
     999900   -1    0    0    0    0 -0.00000000000E+00 -0.00000000000E+00 -0.74505805969E-08  0.93827000000E+00  0.93827000000E+00 0. -1.
     999902    2    1    2    0    0  0.37270612445E-02  0.17008515034E-01  0.16822319682E-01  0.10197190312E+01  0.10194315728E+01 0.  0.
     999903    2    3    3    0    0 -0.97381825517E-01 -0.78429892984E-01  0.24442169215E-01  0.12877034651E+00  0.18706000345E-01 0.  0.
         14    1    1    2    0    0 -0.37270612445E-02 -0.17008515034E-01 -0.16822319682E-01  0.24210968768E-01  0.00000000000E+00 0. -1.
     999901    1    3    3    0    0  0.10110888676E+00  0.95438408018E-01 -0.76198495332E-02  0.89094868473E+00  0.88000000000E+00 0.  1.
        -11    1    4    4    0    0 -0.37759384449E-01 -0.39207774893E-01  0.42571113362E-02  0.54602242114E-01  0.51100000000E-03 0.  1.
         11    1    4    4    0    0 -0.59622441068E-01 -0.39222118091E-01  0.20185057879E-01  0.74168104392E-01  0.51100000000E-03 0. -1.
</event>
<event>
 8    1  0.1143957E+005  0.1043930E+01  0.7957747E-01            NaN
         13   -1    0    0    0    0  0.00000000000E+00  0.00000000000E+00  0.74505805969E-08  0.10566000000E+00  0.10566000000E+00 0.  1.
     999900   -1    0    0    0    0 -0.00000000000E+00 -0.00000000000E+00 -0.74505805969E-08  0.93827000000E+00  0.93827000000E+00 0. -1.
     999902    2    1    2    0    0  0.13676543851E-01  0.51280516937E-02  0.17542134866E-01  0.10211030146E+01  0.10208478316E+01 0.  0.
     999903    2    3    3    0    0  0.28822518581E-01  0.12224434612E+00 -0.33976380056E-01  0.13172132808E+00  0.20535241294E-01 0.  0.
         14    1    1    2    0    0 -0.13676543851E-01 -0.51280516937E-02 -0.17542134866E-01  0.22826985380E-01  0.00000000000E+00 0. -1.
     999901    1    3    3    0    0 -0.15145974730E-01 -0.11711629442E+00  0.51518514922E-01  0.88938168654E+00  0.88000000000E+00 0.  1.
        -11    1    4    4    0    0  0.17506016392E-01  0.81998805806E-01 -0.32374521106E-01  0.89881229972E-01  0.51100000000E-03 0. -1.
         11    1    4    4    0    0  0.11316502188E-01  0.40245540311E-01 -0.16018589505E-02  0.41840098110E-01  0.51100000000E-03 0.  1.
</event>
<event>
 8    1  0.1143957E+005  0.1043930E+01  0.7957747E-01            NaN
         13   -1    0    0    0    0  0.00000000000E+00  0.00000000000E+00  0.74505805969E-08  0.10566000000E+00  0.10566000000E+00 0.  1.
     999900   -1    0    0    0    0 -0.00000000000E+00 -0.00000000000E+00 -0.74505805969E-08  0.93827000000E+00  0.93827000000E+00 0. -1.
     999902    2    1    2    0    0  0.18752333623E-01 -0.11234630436E-01 -0.11291234527E-01  0.10193259574E+01  0.10190289733E+01 0.  0.
     999903    2    3    3    0    0  0.29704196030E-03  0.12521103245E+00  0.17983189574E-01  0.12813854238E+00  0.20449940183E-01 0.  0.
         14    1    1    2    0    0 -0.18752333623E-01  0.11234630436E-01  0.11291234527E-01  0.24604042646E-01  0.00000000000E+00 0.  1.
     999901    1    3    3    0    0  0.18455291663E-01 -0.13644566289E+00 -0.29274424101E-01  0.89118741498E+00  0.88000000000E+00 0.  1.
        -11    1    4    4    0    0  0.68349428281E-02  0.58824448034E-01  0.16228884251E-01  0.61405780958E-01  0.51100000000E-03 0. -1.
         11    1    4    4    0    0 -0.65379008678E-02  0.66386584416E-01  0.17543053234E-02  0.66732761418E-01  0.51100000000E-03 0.  1.
</event>
<event>
 8    1  0.1143957E+005  0.1043930E+01  0.7957747E-01            NaN
         13   -1    0    0    0    0  0.00000000000E+00  0.00000000000E+00  0.74505805969E-08  0.10566000000E+00  0.10566000000E+00 0.  1.
     999900   -1    0    0    0    0 -0.00000000000E+00 -0.00000000000E+00 -0.74505805969E-08  0.93827000000E+00  0.93827000000E+00 0.  1.
     999902    2    1    2    0    0 -0.50436464154E-02  0.54017203136E-02 -0.22394924967E-01  0.10203471754E+01  0.10200746094E+01 0.  0.
     999903    2    3    3    0    0  0.28223785817E-01 -0.67460567986E-01  0.10301996326E+00  0.12785374165E+00  0.19645765597E-01 0.  0.
         14    1    1    2    0    0  0.50436464154E-02 -0.54017203136E-02  0.22394924967E-01  0.23582824593E-01  0.00000000000E+00 0.  1.
     999901    1    3    3    0    0 -0.33267432232E-01  0.72862288299E-01 -0.12541488823E+00  0.89249343375E+00  0.88000000000E+00 0.  1.
        -11    1    4    4    0    0  0.62437744463E-02 -0.26477717350E-01  0.52853077267E-01  0.59445463519E-01  0.51100000000E-03 0.  1.
         11    1    4    4    0    0  0.21980011371E-01 -0.40982850636E-01  0.50166885993E-01  0.68408278134E-01  0.51100000000E-03 0. -1.
</event>
<event>
 8    1  0.1143957E+005  0.1043930E+01  0.7957747E-01            NaN
         13   -1    0    0    0    0  0.00000000000E+00  0.00000000000E+00  0.74505805969E-08  0.10566000000E+00  0.10566000000E+00 0.  1.
     999900   -1    0    0    0    0 -0.00000000000E+00 -0.00000000000E+00 -0.74505805969E-08  0.93827000000E+00  0.93827000000E+00 0.  1.
     999902    2    1    2    0    0 -0.50661220375E-02  0.90653794456E-02 -0.21040177620E-01  0.10204665013E+01  0.10201967185E+01 0.  0.
     999903    2    3    3    0    0  0.20530873447E-01  0.93665900655E-01  0.84996124352E-01  0.12970494415E+00  0.20105065804E-01 0.  0.
         14    1    1    2    0    0  0.50661220375E-02 -0.90653794456E-02  0.21040177620E-01  0.23463498700E-01  0.00000000000E+00 0.  1.
     999901    1    3    3    0    0 -0.25596995484E-01 -0.84600521210E-01 -0.10603630197E+00  0.89076155715E+00  0.88000000000E+00 0.  1.
        -11    1    4    4    0    0  0.22775679517E-01  0.66460941367E-01  0.66413265101E-01  0.96678700897E-01  0.51100000000E-03 0.  1.
         11    1    4    4    0    0 -0.22448060703E-02  0.27204959288E-01  0.18582859251E-01  0.33026243249E-01  0.51100000000E-03 0. -1.
</event>
<event>
 8    1  0.1143957E+005  0.1043930E+01  0.7957747E-01            NaN
         13   -1    0    0    0    0  0.00000000000E+00  0.00000000000E+00  0.74505805969E-08  0.10566000000E+00  0.10566000000E+00 0. -1.
     999900   -1    0    0    0    0 -0.00000000000E+00 -0.00000000000E+00 -0.74505805969E-08  0.93827000000E+00  0.93827000000E+00 0. -1.
     999902    2    1    2    0    0 -0.18761487459E-01 -0.12342994407E-01 -0.11031481869E-02  0.10214453417E+01  0.10211978389E+01 0.  0.
     999903    2    3    3    0    0 -0.54421961158E-01 -0.10054731527E+00  0.66650791565E-01  0.13372789344E+00  0.19217414086E-01 0.  0.
         14    1    1    2    0    0  0.18761487459E-01  0.12342994407E-01  0.11031481869E-02  0.22484658292E-01  0.00000000000E+00 0. -1.
     999901    1    3    3    0    0  0.35660473699E-01  0.88204320861E-01 -0.67753939752E-01  0.88771744827E+00  0.88000000000E+00 0. -1.
        -11    1    4    4    0    0 -0.13035107499E-01 -0.43115161438E-01  0.28590827854E-01  0.53352860576E-01  0.51100000000E-03 0.  1.
         11    1    4    4    0    0 -0.41386853659E-01 -0.57432153831E-01  0.38059963711E-01  0.80375032866E-01  0.51100000000E-03 0. -1.
</event>
<event>
 8    1  0.1143957E+005  0.1043930E+01  0.7957747E-01            NaN
         13   -1    0    0    0    0  0.00000000000E+00  0.00000000000E+00  0.74505805969E-08  0.10566000000E+00  0.10566000000E+00 0.  1.
     999900   -1    0    0    0    0 -0.00000000000E+00 -0.00000000000E+00 -0.74505805969E-08  0.93827000000E+00  0.93827000000E+00 0. -1.
     999902    2    1    2    0    0 -0.98264546469E-02 -0.10175490101E-01 -0.17666182202E-01  0.10212983009E+01  0.10210475139E+01 0.  0.
     999903    2    3    3    0    0  0.10184018198E+00 -0.11091157451E-02 -0.81526112826E-01  0.13189978078E+00  0.19452308188E-01 0.  0.
         14    1    1    2    0    0  0.98264546469E-02  0.10175490101E-01  0.17666182202E-01  0.22631699082E-01  0.00000000000E+00 0.  1.
     999901    1    3    3    0    0 -0.11166663663E+00 -0.90663743563E-02  0.63859930624E-01  0.88939852014E+00  0.88000000000E+00 0.  1.
        -11    1    4    4    0    0  0.62722963767E-01 -0.85291259760E-02 -0.43236735916E-01  0.76658937034E-01  0.51100000000E-03 0.  1.
         11    1    4    4    0    0  0.39117218217E-01  0.74200102309E-02 -0.38289376910E-01  0.55240843748E-01  0.51100000000E-03 0. -1.
</event>
<event>
 8    1  0.1143957E+005  0.1043930E+01  0.7957747E-01            NaN
         13   -1    0    0    0    0  0.00000000000E+00  0.00000000000E+00  0.74505805969E-08  0.10566000000E+00  0.10566000000E+00 0. -1.
     999900   -1    0    0    0    0 -0.00000000000E+00 -0.00000000000E+00 -0.74505805969E-08  0.93827000000E+00  0.93827000000E+00 0.  1.
     999902    2    1    2    0    0 -0.22169116124E-01 -0.46928817497E-03  0.14093748037E-02  0.10217111729E+01  0.10214695514E+01 0.  0.
     999903    2    3    3    0    0  0.72116539194E-01 -0.18391542743E-01 -0.10486812577E+00  0.13013621858E+00  0.19976674266E-01 0.  0.
         14    1    1    2    0    0  0.22169116124E-01  0.46928817497E-03 -0.14093748037E-02  0.22218827117E-01  0.00000000000E+00 0. -1.
     999901    1    3    3    0    0 -0.94285655318E-01  0.17922254568E-01  0.10627750057E+00  0.89157495430E+00  0.88000000000E+00 0. -1.
        -11    1    4    4    0    0  0.69077366102E-01 -0.20168694394E-01 -0.92094801406E-01  0.11687673981E+00  0.51100000000E-03 0.  1.
         11    1    4    4    0    0  0.30391730917E-02  0.17771516505E-02 -0.12773324364E-01  0.13259478774E-01  0.51100000000E-03 0. -1.
</event>
<event>
 8    1  0.1143957E+005  0.1043930E+01  0.7957747E-01            NaN
         13   -1    0    0    0    0  0.00000000000E+00  0.00000000000E+00  0.74505805969E-08  0.10566000000E+00  0.10566000000E+00 0. -1.
     999900   -1    0    0    0    0 -0.00000000000E+00 -0.00000000000E+00 -0.74505805969E-08  0.93827000000E+00  0.93827000000E+00 0. -1.
     999902    2    1    2    0    0  0.18180253957E-01 -0.12497375500E-01  0.75664424391E-02  0.10206071125E+01  0.10203405907E+01 0.  0.
     999903    2    3    3    0    0  0.11496333548E+00 -0.57289003512E-01  0.31811995519E-01  0.13383707377E+00  0.20043972364E-01 0.  0.
         14    1    1    2    0    0 -0.18180253957E-01  0.12497375500E-01 -0.75664424391E-02  0.23322887461E-01  0.00000000000E+00 0.  1.
     999901    1    3    3    0    0 -0.96783081527E-01  0.44791628013E-01 -0.24245553080E-01  0.88677003877E+00  0.88000000000E+00 0. -1.
        -11    1    4    4    0    0  0.28235437527E-01 -0.89072590327E-02  0.18818899288E-03  0.29612087598E-01  0.51100000000E-03 0.  1.
         11    1    4    4    0    0  0.86727897957E-01 -0.48381744480E-01  0.31623806526E-01  0.10422498617E+00  0.51100000000E-03 0. -1.
</event>
<event>
 8    1  0.1143957E+005  0.1043930E+01  0.7957747E-01            NaN
         13   -1    0    0    0    0  0.00000000000E+00  0.00000000000E+00  0.74505805969E-08  0.10566000000E+00  0.10566000000E+00 0.  1.
     999900   -1    0    0    0    0 -0.00000000000E+00 -0.00000000000E+00 -0.74505805969E-08  0.93827000000E+00  0.93827000000E+00 0. -1.
     999902    2    1    2    0    0  0.16363078120E-01 -0.80645414554E-02  0.27208157819E-02  0.10254857599E+01  0.10253198787E+01 0.  0.
     999903    2    3    3    0    0  0.90143857937E-01 -0.99748037813E-01  0.20935934285E-01  0.13746478181E+00  0.19561869121E-01 0.  0.
         14    1    1    2    0    0 -0.16363078120E-01  0.80645414554E-02 -0.27208157819E-02  0.18444240103E-01  0.00000000000E+00 0. -1.
     999901    1    3    3    0    0 -0.73780779817E-01  0.91683496357E-01 -0.18215118503E-01  0.88802097808E+00  0.88000000000E+00 0. -1.
        -11    1    4    4    0    0  0.12577484432E-01 -0.25527366280E-01  0.57815244421E-02  0.29043530944E-01  0.51100000000E-03 0.  1.
         11    1    4    4    0    0  0.77566373505E-01 -0.74220671532E-01  0.15154409842E-01  0.10842125087E+00  0.51100000000E-03 0. -1.
</event>
<event>
 8    1  0.1143957E+005  0.1043930E+01  0.7957747E-01            NaN
         13   -1    0    0    0    0  0.00000000000E+00  0.00000000000E+00  0.74505805969E-08  0.10566000000E+00  0.10566000000E+00 0. -1.
     999900   -1    0    0    0    0 -0.00000000000E+00 -0.00000000000E+00 -0.74505805969E-08  0.93827000000E+00  0.93827000000E+00 0.  1.
     999902    2    1    2    0    0  0.13924187212E-01 -0.11933471543E-02  0.17889841364E-01  0.10212286016E+01  0.10209762500E+01 0.  0.
     999903    2    3    3    0    0 -0.43198963353E-01 -0.27163973959E-01  0.12111917343E+00  0.13297535908E+00  0.20212867999E-01 0.  0.
         14    1    1    2    0    0 -0.13924187212E-01  0.11933471543E-02 -0.17889841364E-01  0.22701398437E-01  0.00000000000E+00 0.  1.
     999901    1    3    3    0    0  0.57123150565E-01  0.25970626805E-01 -0.10322933207E+00  0.88825324249E+00  0.88000000000E+00 0.  1.
        -11    1    4    4    0    0 -0.12492416525E-01 -0.54997221417E-03  0.16271914233E-01  0.20528011445E-01  0.51100000000E-03 0.  1.
         11    1    4    4    0    0 -0.30706546828E-01 -0.26614001745E-01  0.10484725920E+00  0.11244734763E+00  0.51100000000E-03 0. -1.
</event>
<event>
 8    1  0.1143957E+005  0.1043930E+01  0.7957747E-01            NaN
         13   -1    0    0    0    0  0.00000000000E+00  0.00000000000E+00  0.74505805969E-08  0.10566000000E+00  0.10566000000E+00 0. -1.
     999900   -1    0    0    0    0 -0.00000000000E+00 -0.00000000000E+00 -0.74505805969E-08  0.93827000000E+00  0.93827000000E+00 0. -1.
     999902    2    1    2    0    0 -0.17767694336E-01 -0.12624942675E-01 -0.11863802996E-01  0.10191140785E+01  0.10188118938E+01 0.  0.
     999903    2    3    3    0    0 -0.18482468478E-01 -0.12857668760E+00 -0.22840970935E-02  0.13145587352E+00  0.20046529591E-01 0.  0.
         14    1    1    2    0    0  0.17767694336E-01  0.12624942675E-01  0.11863802996E-01  0.24815921524E-01  0.00000000000E+00 0.  1.
     999901    1    3    3    0    0  0.71477414184E-03  0.11595174493E+00 -0.95797059028E-02  0.88765820495E+00  0.88000000000E+00 0. -1.
        -11    1    4    4    0    0 -0.68129615441E-03 -0.48273689355E-01  0.65723750453E-02  0.48726486464E-01  0.51100000000E-03 0. -1.
         11    1    4    4    0    0 -0.17801172324E-01 -0.80302998247E-01 -0.88564721388E-02  0.82729387060E-01  0.51100000000E-03 0.  1.
</event>
<event>
 8    1  0.1143957E+005  0.1043930E+01  0.7957747E-01            NaN
         13   -1    0    0    0    0  0.00000000000E+00  0.00000000000E+00  0.74505805969E-08  0.10566000000E+00  0.10566000000E+00 0.  1.
     999900   -1    0    0    0    0 -0.00000000000E+00 -0.00000000000E+00 -0.74505805969E-08  0.93827000000E+00  0.93827000000E+00 0. -1.
     999902    2    1    2    0    0  0.17456392368E-01  0.19134932853E-01 -0.11139351277E-01  0.10157350282E+01  0.10153436320E+01 0.  0.
     999903    2    3    3    0    0 -0.55212918210E-01  0.95922181350E-01  0.58235064627E-01  0.12669626646E+00  0.20275353791E-01 0.  0.
         14    1    1    2    0    0 -0.17456392368E-01 -0.19134932853E-01  0.11139351277E-01  0.28194971833E-01  0.00000000000E+00 0.  1.
     999901    1    3    3    0    0  0.72669310577E-01 -0.76787248497E-01 -0.69374415904E-01  0.88903876170E+00  0.88000000000E+00 0. -1.
        -11    1    4    4    0    0 -0.26243607945E-01  0.26584674415E-01  0.20220248642E-01  0.42480483141E-01  0.51100000000E-03 0.  1.
         11    1    4    4    0    0 -0.28969310264E-01  0.69337506935E-01  0.38014815985E-01  0.84215783322E-01  0.51100000000E-03 0. -1.
</event>
<event>
 8    1  0.1143957E+005  0.1043930E+01  0.7957747E-01            NaN
         13   -1    0    0    0    0  0.00000000000E+00  0.00000000000E+00  0.74505805969E-08  0.10566000000E+00  0.10566000000E+00 0. -1.
     999900   -1    0    0    0    0 -0.00000000000E+00 -0.00000000000E+00 -0.74505805969E-08  0.93827000000E+00  0.93827000000E+00 0.  1.
     999902    2    1    2    0    0 -0.20014967216E-01  0.68215880169E-02 -0.10846065738E-01  0.10201651075E+01  0.10198882666E+01 0.  0.
     999903    2    3    3    0    0  0.11706588098E+00  0.48895976768E-01 -0.44918397686E-02  0.12853637905E+00  0.20154083503E-01 0.  0.
         14    1    1    2    0    0  0.20014967216E-01 -0.68215880169E-02  0.10846065738E-01  0.23764892546E-01  0.00000000000E+00 0. -1.
     999901    1    3    3    0    0 -0.13708084819E+00 -0.42074388751E-01 -0.63542259689E-02  0.89162872841E+00  0.88000000000E+00 0. -1.
        -11    1    4    4    0    0  0.64273604950E-01  0.32761704591E-01  0.58146527236E-02  0.72377461189E-01  0.51100000000E-03 0.  1.
         11    1    4    4    0    0  0.52792276025E-01  0.16134272177E-01 -0.10306492492E-01  0.56158917859E-01  0.51100000000E-03 0. -1.
</event>
<event>
 8    1  0.1143957E+005  0.1043930E+01  0.7957747E-01            NaN
         13   -1    0    0    0    0  0.00000000000E+00  0.00000000000E+00  0.74505805969E-08  0.10566000000E+00  0.10566000000E+00 0. -1.
     999900   -1    0    0    0    0 -0.00000000000E+00 -0.00000000000E+00 -0.74505805969E-08  0.93827000000E+00  0.93827000000E+00 0. -1.
     999902    2    1    2    0    0 -0.18417784968E-01  0.32487753081E-02  0.15600938015E-01  0.10195751522E+01  0.10192842255E+01 0.  0.
     999903    2    3    3    0    0 -0.82103983562E-01 -0.82525334895E-01 -0.55188581322E-01  0.13029213431E+00  0.19461904787E-01 0.  0.
         14    1    1    2    0    0  0.18417784968E-01 -0.32487753081E-02 -0.15600938015E-01  0.24354847795E-01  0.00000000000E+00 0.  1.
     999901    1    3    3    0    0  0.63686198594E-01  0.85774110203E-01  0.70789519337E-01  0.88928301790E+00  0.88000000000E+00 0.  1.
        -11    1    4    4    0    0 -0.55193811434E-01 -0.42450084230E-01 -0.29696928521E-01  0.75700298258E-01  0.51100000000E-03 0.  1.
         11    1    4    4    0    0 -0.26910172128E-01 -0.40075250664E-01 -0.25491652801E-01  0.54591836050E-01  0.51100000000E-03 0. -1.
</event>
<event>
 8    1  0.1143957E+005  0.1043930E+01  0.7957747E-01            NaN
         13   -1    0    0    0    0  0.00000000000E+00  0.00000000000E+00  0.74505805969E-08  0.10566000000E+00  0.10566000000E+00 0.  1.
     999900   -1    0    0    0    0 -0.00000000000E+00 -0.00000000000E+00 -0.74505805969E-08  0.93827000000E+00  0.93827000000E+00 0.  1.
     999902    2    1    2    0    0  0.15857222132E-01 -0.13959909297E-01  0.11093792798E-01  0.10200678375E+01  0.10197886988E+01 0.  0.
     999903    2    3    3    0    0 -0.12097232609E+00 -0.34831129167E-01 -0.18099758024E-01  0.12877091923E+00  0.20170204732E-01 0.  0.
         14    1    1    2    0    0 -0.15857222132E-01  0.13959909297E-01 -0.11093792798E-01  0.23862162517E-01  0.00000000000E+00 0. -1.
     999901    1    3    3    0    0  0.13682954822E+00  0.20871219870E-01  0.29193550822E-01  0.89129691826E+00  0.88000000000E+00 0.  1.
        -11    1    4    4    0    0 -0.50428587486E-01 -0.24645598720E-01 -0.56515547331E-02  0.56414972871E-01  0.51100000000E-03 0. -1.
         11    1    4    4    0    0 -0.70543738605E-01 -0.10185530447E-01 -0.12448203291E-01  0.72355946355E-01  0.51100000000E-03 0.  1.
</event>
<event>
 8    1  0.1143957E+005  0.1043930E+01  0.7957747E-01            NaN
         13   -1    0    0    0    0  0.00000000000E+00  0.00000000000E+00  0.74505805969E-08  0.10566000000E+00  0.10566000000E+00 0.  1.
     999900   -1    0    0    0    0 -0.00000000000E+00 -0.00000000000E+00 -0.74505805969E-08  0.93827000000E+00  0.93827000000E+00 0.  1.
     999902    2    1    2    0    0 -0.23173537143E-01  0.62520875208E-02  0.20895045617E-02  0.10198371079E+01  0.10195524798E+01 0.  0.
     999903    2    3    3    0    0 -0.21836951783E-01  0.44628725948E-01  0.11985484554E+00  0.13116212320E+00  0.19228700403E-01 0.  0.
         14    1    1    2    0    0  0.23173537143E-01 -0.62520875208E-02 -0.20895045617E-02  0.24092892135E-01  0.00000000000E+00 0. -1.
     999901    1    3    3    0    0 -0.13365853603E-02 -0.38376638427E-01 -0.11776534098E+00  0.88867498467E+00  0.88000000000E+00 0.  1.
        -11    1    4    4    0    0  0.27682476727E-02  0.42123543261E-02  0.20462043373E-01  0.21079930364E-01  0.51100000000E-03 0. -1.
         11    1    4    4    0    0 -0.24605199456E-01  0.40416371622E-01  0.99392802168E-01  0.11008219283E+00  0.51100000000E-03 0.  1.
</event>
<event>
 8    1  0.1143957E+005  0.1043930E+01  0.7957747E-01            NaN
         13   -1    0    0    0    0  0.00000000000E+00  0.00000000000E+00  0.74505805969E-08  0.10566000000E+00  0.10566000000E+00 0.  1.
     999900   -1    0    0    0    0 -0.00000000000E+00 -0.00000000000E+00 -0.74505805969E-08  0.93827000000E+00  0.93827000000E+00 0. -1.
     999902    2    1    2    0    0  0.17968501195E-01  0.32624215965E-02 -0.14316330095E-01  0.10207250924E+01  0.10204612910E+01 0.  0.
     999903    2    3    3    0    0  0.48195253857E-01 -0.12092581704E+00  0.27606789156E-02  0.13132754380E+00  0.17130869587E-01 0.  0.
         14    1    1    2    0    0 -0.17968501195E-01 -0.32624215965E-02  0.14316330095E-01  0.23204907612E-01  0.00000000000E+00 0.  1.
     999901    1    3    3    0    0 -0.30226752662E-01  0.12418823863E+00 -0.17077009011E-01  0.88939754858E+00  0.88000000000E+00 0.  1.
        -11    1    4    4    0    0  0.30434307758E-01 -0.82669178969E-01 -0.58019249687E-02  0.88285693600E-01  0.51100000000E-03 0.  1.
         11    1    4    4    0    0  0.17760946099E-01 -0.38256638069E-01  0.85626038843E-02  0.43041850204E-01  0.51100000000E-03 0. -1.
</event>
<event>
 8    1  0.1143957E+005  0.1043930E+01  0.7957747E-01            NaN
         13   -1    0    0    0    0  0.00000000000E+00  0.00000000000E+00  0.74505805969E-08  0.10566000000E+00  0.10566000000E+00 0. -1.
     999900   -1    0    0    0    0 -0.00000000000E+00 -0.00000000000E+00 -0.74505805969E-08  0.93827000000E+00  0.93827000000E+00 0.  1.
     999902    2    1    2    0    0 -0.17788994789E-01  0.12202455494E-01 -0.87860326587E-02  0.10206374556E+01  0.10203716348E+01 0.  0.
     999903    2    3    3    0    0 -0.58120256769E-01 -0.11036566447E-01  0.11484684264E+00  0.13077693241E+00  0.20323354560E-01 0.  0.
         14    1    1    2    0    0  0.17788994789E-01 -0.12202455494E-01  0.87860326587E-02  0.23292544420E-01  0.00000000000E+00 0.  1.
     999901    1    3    3    0    0  0.40331261979E-01  0.23239021940E-01 -0.12363287530E+00  0.88986052317E+00  0.88000000000E+00 0.  1.
        -11    1    4    4    0    0 -0.34682107607E-01 -0.58504988145E-02  0.46300415162E-01  0.58146938781E-01  0.51100000000E-03 0. -1.
         11    1    4    4    0    0 -0.23438149162E-01 -0.51860676323E-02  0.68546427481E-01  0.72629993632E-01  0.51100000000E-03 0.  1.
</event>
<event>
 8    1  0.1143957E+005  0.1043930E+01  0.7957747E-01            NaN
         13   -1    0    0    0    0  0.00000000000E+00  0.00000000000E+00  0.74505805969E-08  0.10566000000E+00  0.10566000000E+00 0.  1.
     999900   -1    0    0    0    0 -0.00000000000E+00 -0.00000000000E+00 -0.74505805969E-08  0.93827000000E+00  0.93827000000E+00 0.  1.
     999902    2    1    2    0    0  0.10924833564E-01  0.26907437781E-01  0.42526131248E-02  0.10145795841E+01  0.10141549613E+01 0.  0.
     999903    2    3    3    0    0  0.20695739628E-01 -0.36892489815E-01  0.11601531738E+00  0.12516584266E+00  0.20434403787E-01 0.  0.
         14    1    1    2    0    0 -0.10924833564E-01 -0.26907437781E-01 -0.42526131248E-02  0.29350415921E-01  0.00000000000E+00 0. -1.
     999901    1    3    3    0    0 -0.97709060636E-02  0.63799927596E-01 -0.11176270425E+00  0.88941374142E+00  0.88000000000E+00 0.  1.
        -11    1    4    4    0    0  0.86643592105E-03 -0.16002216829E-02  0.30425438096E-01  0.30484091343E-01  0.51100000000E-03 0.  1.
         11    1    4    4    0    0  0.19829303707E-01 -0.35292268132E-01  0.85589879283E-01  0.94681751315E-01  0.51100000000E-03 0. -1.
</event>
<event>
 8    1  0.1143957E+005  0.1043930E+01  0.7957747E-01            NaN
         13   -1    0    0    0    0  0.00000000000E+00  0.00000000000E+00  0.74505805969E-08  0.10566000000E+00  0.10566000000E+00 0.  1.
     999900   -1    0    0    0    0 -0.00000000000E+00 -0.00000000000E+00 -0.74505805969E-08  0.93827000000E+00  0.93827000000E+00 0. -1.
     999902    2    1    2    0    0 -0.11862311968E-01 -0.11131970522E-01  0.16513588925E-01  0.10207495377E+01  0.10204862982E+01 0.  0.
     999903    2    3    3    0    0 -0.27879217941E-01  0.54546083809E-01  0.11590057781E+00  0.13257842713E+00  0.19788111389E-01 0.  0.
         14    1    1    2    0    0  0.11862311968E-01  0.11131970522E-01 -0.16513588925E-01  0.23180462293E-01  0.00000000000E+00 0. -1.
     999901    1    3    3    0    0  0.16016905973E-01 -0.65678054331E-01 -0.99386988886E-01  0.88817111057E+00  0.88000000000E+00 0. -1.
        -11    1    4    4    0    0 -0.17440630604E-01  0.20412943140E-01  0.34697076309E-01  0.43874959475E-01  0.51100000000E-03 0. -1.
         11    1    4    4    0    0 -0.10438587338E-01  0.34133140668E-01  0.81203501502E-01  0.88703467659E-01  0.51100000000E-03 0.  1.
</event>
<event>
 8    1  0.1143957E+005  0.1043930E+01  0.7957747E-01            NaN
         13   -1    0    0    0    0  0.00000000000E+00  0.00000000000E+00  0.74505805969E-08  0.10566000000E+00  0.10566000000E+00 0.  1.
     999900   -1    0    0    0    0 -0.00000000000E+00 -0.00000000000E+00 -0.74505805969E-08  0.93827000000E+00  0.93827000000E+00 0. -1.
     999902    2    1    2    0    0 -0.14893597985E-02  0.11461966273E-01  0.21247215118E-01  0.10197424203E+01  0.10194555236E+01 0.  0.
     999903    2    3    3    0    0  0.12021703850E+00  0.38100444716E-01  0.27610011159E-01  0.13094405106E+00  0.21914642540E-01 0.  0.
         14    1    1    2    0    0  0.14893597985E-02 -0.11461966273E-01 -0.21247215118E-01  0.24187579741E-01  0.00000000000E+00 0. -1.
     999901    1    3    3    0    0 -0.12170639830E+00 -0.26638478443E-01 -0.63627960408E-02  0.88879836920E+00  0.88000000000E+00 0. -1.
        -11    1    4    4    0    0  0.24337915365E-01  0.16883875002E-01  0.93086173979E-02  0.31053354702E-01  0.51100000000E-03 0.  1.
         11    1    4    4    0    0  0.95879123137E-01  0.21216569714E-01  0.18301393761E-01  0.99890696356E-01  0.51100000000E-03 0. -1.
</event>
<event>
 8    1  0.1143957E+005  0.1043930E+01  0.7957747E-01            NaN
         13   -1    0    0    0    0  0.00000000000E+00  0.00000000000E+00  0.74505805969E-08  0.10566000000E+00  0.10566000000E+00 0. -1.
     999900   -1    0    0    0    0 -0.00000000000E+00 -0.00000000000E+00 -0.74505805969E-08  0.93827000000E+00  0.93827000000E+00 0. -1.
     999902    2    1    2    0    0  0.10512547643E-01 -0.18051103554E-01  0.11400747325E-01  0.10201322472E+01  0.10198546312E+01 0.  0.
     999903    2    3    3    0    0  0.57979475457E-01  0.46418409315E-02 -0.11432721828E+00  0.12964047281E+00  0.18782254638E-01 0.  0.
         14    1    1    2    0    0 -0.10512547643E-01  0.18051103554E-01 -0.11400747325E-01  0.23797752773E-01  0.00000000000E+00 0.  1.
     999901    1    3    3    0    0 -0.47466927814E-01 -0.22692944486E-01  0.12572796561E+00  0.89049177442E+00  0.88000000000E+00 0.  1.
        -11    1    4    4    0    0  0.27280459002E-01 -0.36515239925E-02 -0.68817387023E-01  0.74119167214E-01  0.51100000000E-03 0.  1.
         11    1    4    4    0    0  0.30699016455E-01  0.82933649240E-02 -0.45509831259E-01  0.55521305598E-01  0.51100000000E-03 0. -1.
</event>
<event>
 8    1  0.1143957E+005  0.1043930E+01  0.7957747E-01            NaN
         13   -1    0    0    0    0  0.00000000000E+00  0.00000000000E+00  0.74505805969E-08  0.10566000000E+00  0.10566000000E+00 0. -1.
     999900   -1    0    0    0    0 -0.00000000000E+00 -0.00000000000E+00 -0.74505805969E-08  0.93827000000E+00  0.93827000000E+00 0.  1.
     999902    2    1    2    0    0  0.22519930642E-01 -0.36326449782E-02 -0.61594632215E-04  0.10211188804E+01  0.10208640559E+01 0.  0.
     999903    2    3    3    0    0 -0.47528163509E-01 -0.42879093509E-01  0.11184916595E+00  0.13040510054E+00  0.19942701297E-01 0.  0.
         14    1    1    2    0    0 -0.22519930642E-01  0.36326449782E-02  0.61594632215E-04  0.22811119647E-01  0.00000000000E+00 0.  1.
     999901    1    3    3    0    0  0.70048094150E-01  0.39246448531E-01 -0.11191076059E+00  0.89071377981E+00  0.88000000000E+00 0.  1.
        -11    1    4    4    0    0 -0.13562377124E-01 -0.24964232419E-01  0.52927868437E-01  0.60073050129E-01  0.51100000000E-03 0.  1.
         11    1    4    4    0    0 -0.33965786385E-01 -0.17914861090E-01  0.58921297518E-01  0.70332050410E-01  0.51100000000E-03 0. -1.
</event>
<event>
 8    1  0.1143957E+005  0.1043930E+01  0.7957747E-01            NaN
         13   -1    0    0    0    0  0.00000000000E+00  0.00000000000E+00  0.74505805969E-08  0.10566000000E+00  0.10566000000E+00 0. -1.
     999900   -1    0    0    0    0 -0.00000000000E+00 -0.00000000000E+00 -0.74505805969E-08  0.93827000000E+00  0.93827000000E+00 0. -1.
     999902    2    1    2    0    0  0.67531904755E-02  0.11447635488E-01 -0.22645282712E-01  0.10176723769E+01  0.10173335756E+01 0.  0.
     999903    2    3    3    0    0  0.33145681959E-01  0.54183456464E-01  0.10775726871E+00  0.12664614869E+00  0.19827627981E-01 0.  0.
         14    1    1    2    0    0 -0.67531904755E-02 -0.11447635488E-01  0.22645282712E-01  0.26257623064E-01  0.00000000000E+00 0. -1.
     999901    1    3    3    0    0 -0.26392491483E-01 -0.42735820976E-01 -0.13040255142E+00  0.89102622824E+00  0.88000000000E+00 0. -1.
        -11    1    4    4    0    0  0.25392483871E-01  0.30467391087E-01  0.50720179242E-01  0.64388181060E-01  0.51100000000E-03 0. -1.
         11    1    4    4    0    0  0.77531980876E-02  0.23716065377E-01  0.57037089470E-01  0.62257967632E-01  0.51100000000E-03 0.  1.
</event>
<event>
 8    1  0.1143957E+005  0.1043930E+01  0.7957747E-01            NaN
         13   -1    0    0    0    0  0.00000000000E+00  0.00000000000E+00  0.74505805969E-08  0.10566000000E+00  0.10566000000E+00 0. -1.
     999900   -1    0    0    0    0 -0.00000000000E+00 -0.00000000000E+00 -0.74505805969E-08  0.93827000000E+00  0.93827000000E+00 0. -1.
     999902    2    1    2    0    0 -0.31341094382E-02  0.66783036569E-02  0.22875962620E-01  0.10198939428E+01  0.10196106720E+01 0.  0.
     999903    2    3    3    0    0 -0.77574519564E-01 -0.95326107848E-01 -0.33062833812E-01  0.12912156804E+00  0.21779702245E-01 0.  0.
         14    1    1    2    0    0  0.31341094382E-02 -0.66783036569E-02 -0.22875962620E-01  0.24036057237E-01  0.00000000000E+00 0.  1.
     999901    1    3    3    0    0  0.74440410126E-01  0.10200441151E+00  0.55938796432E-01  0.89077237472E+00  0.88000000000E+00 0.  1.
        -11    1    4    4    0    0 -0.52025204115E-01 -0.78500479048E-01 -0.26425353872E-01  0.97813636689E-01  0.51100000000E-03 0. -1.
         11    1    4    4    0    0 -0.25549315449E-01 -0.16825628800E-01 -0.66374799396E-02  0.31307931350E-01  0.51100000000E-03 0.  1.
</event>
<event>
 8    1  0.1143957E+005  0.1043930E+01  0.7957747E-01            NaN
         13   -1    0    0    0    0  0.00000000000E+00  0.00000000000E+00  0.74505805969E-08  0.10566000000E+00  0.10566000000E+00 0.  1.
     999900   -1    0    0    0    0 -0.00000000000E+00 -0.00000000000E+00 -0.74505805969E-08  0.93827000000E+00  0.93827000000E+00 0. -1.
     999902    2    1    2    0    0 -0.20778969125E-01 -0.45944665236E-02 -0.54281274722E-02  0.10219677768E+01  0.10217317640E+01 0.  0.
     999903    2    3    3    0    0 -0.71178905234E-01  0.80391021406E-01 -0.76867554072E-01  0.13356118159E+00  0.20020376768E-01 0.  0.
         14    1    1    2    0    0  0.20778969125E-01  0.45944665236E-02  0.54281274722E-02  0.21962223212E-01  0.00000000000E+00 0.  1.
     999901    1    3    3    0    0  0.50399936109E-01 -0.84985487930E-01  0.71439426599E-01  0.88840659520E+00  0.88000000000E+00 0.  1.
        -11    1    4    4    0    0 -0.48780684946E-01  0.44728791815E-01 -0.55284137917E-01  0.86236982016E-01  0.51100000000E-03 0. -1.
         11    1    4    4    0    0 -0.22398220288E-01  0.35662229591E-01 -0.21583416155E-01  0.47324199574E-01  0.51100000000E-03 0.  1.
</event>
<event>
 8    1  0.1143957E+005  0.1043930E+01  0.7957747E-01            NaN
         13   -1    0    0    0    0  0.00000000000E+00  0.00000000000E+00  0.74505805969E-08  0.10566000000E+00  0.10566000000E+00 0.  1.
     999900   -1    0    0    0    0 -0.00000000000E+00 -0.00000000000E+00 -0.74505805969E-08  0.93827000000E+00  0.93827000000E+00 0. -1.
     999902    2    1    2    0    0 -0.15201660439E-01  0.80951318094E-02  0.15919504951E-01  0.10204768067E+01  0.10202072636E+01 0.  0.
     999903    2    3    3    0    0 -0.11175591280E+00 -0.54910592042E-01 -0.36903670285E-01  0.13138584804E+00  0.19894798810E-01 0.  0.
         14    1    1    2    0    0  0.15201660439E-01 -0.80951318094E-02 -0.15919504951E-01  0.23453193322E-01  0.00000000000E+00 0. -1.
     999901    1    3    3    0    0  0.96554252366E-01  0.63005723851E-01  0.52823175236E-01  0.88909095864E+00  0.88000000000E+00 0. -1.
        -11    1    4    4    0    0 -0.34837124358E-01 -0.25790973519E-01 -0.72194620274E-02  0.43945207948E-01  0.51100000000E-03 0.  1.
         11    1    4    4    0    0 -0.76918788447E-01 -0.29119618523E-01 -0.29684208257E-01  0.87440640093E-01  0.51100000000E-03 0. -1.
</event>
<event>
 8    1  0.1143957E+005  0.1043930E+01  0.7957747E-01            NaN
         13   -1    0    0    0    0  0.00000000000E+00  0.00000000000E+00  0.74505805969E-08  0.10566000000E+00  0.10566000000E+00 0. -1.
     999900   -1    0    0    0    0 -0.00000000000E+00 -0.00000000000E+00 -0.74505805969E-08  0.93827000000E+00  0.93827000000E+00 0.  1.
     999902    2    1    2    0    0 -0.11132607716E-01  0.11791611356E-01  0.16509516863E-01  0.10207882369E+01  0.10205258857E+01 0.  0.
     999903    2    3    3    0    0  0.68306418868E-01  0.57685791594E-01 -0.91573225957E-01  0.12944166343E+00  0.19392552896E-01 0.  0.
         14    1    1    2    0    0  0.11132607716E-01 -0.11791611356E-01 -0.16509516863E-01  0.23141763114E-01  0.00000000000E+00 0.  1.
     999901    1    3    3    0    0 -0.79439026585E-01 -0.45894180237E-01  0.10808274282E+00  0.89134657346E+00  0.88000000000E+00 0. -1.
        -11    1    4    4    0    0  0.12619774818E-01  0.12760914064E-01 -0.30395786547E-01  0.35302473072E-01  0.51100000000E-03 0.  1.
         11    1    4    4    0    0  0.55686644050E-01  0.44924877530E-01 -0.61177439410E-01  0.94139190354E-01  0.51100000000E-03 0. -1.
</event>
<event>
 8    1  0.1143957E+005  0.1043930E+01  0.7957747E-01            NaN
         13   -1    0    0    0    0  0.00000000000E+00  0.00000000000E+00  0.74505805969E-08  0.10566000000E+00  0.10566000000E+00 0. -1.
     999900   -1    0    0    0    0 -0.00000000000E+00 -0.00000000000E+00 -0.74505805969E-08  0.93827000000E+00  0.93827000000E+00 0.  1.
     999902    2    1    2    0    0 -0.19320668185E-01 -0.27645552232E-03  0.13805465487E-01  0.10201822522E+01  0.10199058154E+01 0.  0.
     999903    2    3    3    0    0  0.89783977577E-03  0.32957903248E-01  0.12638275341E+00  0.13215806539E+00  0.20152528000E-01 0.  0.
         14    1    1    2    0    0  0.19320668185E-01  0.27645552232E-03 -0.13805465487E-01  0.23747747769E-01  0.00000000000E+00 0.  1.
     999901    1    3    3    0    0 -0.20218507961E-01 -0.33234358770E-01 -0.11257728792E+00  0.88802418685E+00  0.88000000000E+00 0.  1.
        -11    1    4    4    0    0  0.28172804310E-02  0.10231152254E-01  0.77370213000E-01  0.78096251678E-01  0.51100000000E-03 0. -1.
         11    1    4    4    0    0 -0.19194406552E-02  0.22726750993E-01  0.49012540408E-01  0.54061813708E-01  0.51100000000E-03 0.  1.
</event>
<event>
 8    1  0.1143957E+005  0.1043930E+01  0.7957747E-01            NaN
         13   -1    0    0    0    0  0.00000000000E+00  0.00000000000E+00  0.74505805969E-08  0.10566000000E+00  0.10566000000E+00 0. -1.
     999900   -1    0    0    0    0 -0.00000000000E+00 -0.00000000000E+00 -0.74505805969E-08  0.93827000000E+00  0.93827000000E+00 0. -1.
     999902    2    1    2    0    0  0.33460055211E-02  0.17297730169E-02  0.23174837273E-01  0.10204510530E+01  0.10201809108E+01 0.  0.
     999903    2    3    3    0    0 -0.19847851563E-01 -0.31037047425E-01 -0.12078670531E+00  0.12785005300E+00  0.19974292222E-01 0.  0.
         14    1    1    2    0    0 -0.33460055211E-02 -0.17297730169E-02 -0.23174837273E-01  0.23478946958E-01  0.00000000000E+00 0.  1.
     999901    1    3    3    0    0  0.23193857084E-01  0.32766820442E-01  0.14396154258E+00  0.89260100004E+00  0.88000000000E+00 0.  1.
        -11    1    4    4    0    0 -0.23975206636E-01 -0.26200728998E-01 -0.10136044634E+00  0.10740339816E+00  0.51100000000E-03 0. -1.
         11    1    4    4    0    0  0.41273550735E-02 -0.48363184273E-02 -0.19426258966E-01  0.20446654842E-01  0.51100000000E-03 0.  1.
</event>
<event>
 8    1  0.1143957E+005  0.1043930E+01  0.7957747E-01            NaN
         13   -1    0    0    0    0  0.00000000000E+00  0.00000000000E+00  0.74505805969E-08  0.10566000000E+00  0.10566000000E+00 0. -1.
     999900   -1    0    0    0    0 -0.00000000000E+00 -0.00000000000E+00 -0.74505805969E-08  0.93827000000E+00  0.93827000000E+00 0. -1.
     999902    2    1    2    0    0 -0.16409869342E-01 -0.42294949138E-02 -0.16284948324E-01  0.10204274048E+01  0.10201567117E+01 0.  0.
     999903    2    3    3    0    0  0.71383824607E-01  0.53742693982E-01 -0.93280434070E-01  0.13082254184E+00  0.20721257227E-01 0.  0.
         14    1    1    2    0    0  0.16409869342E-01  0.42294949138E-02  0.16284948324E-01  0.23502595197E-01  0.00000000000E+00 0. -1.
     999901    1    3    3    0    0 -0.87793693950E-01 -0.57972188896E-01  0.76995485746E-01  0.88960486296E+00  0.88000000000E+00 0.  1.
        -11    1    4    4    0    0  0.45559615687E-01  0.29789433776E-01 -0.42706815829E-01  0.69189754917E-01  0.51100000000E-03 0.  1.
         11    1    4    4    0    0  0.25824208921E-01  0.23953260206E-01 -0.50573618241E-01  0.61632786923E-01  0.51100000000E-03 0. -1.
</event>
<event>
 8    1  0.1143957E+005  0.1043930E+01  0.7957747E-01            NaN
         13   -1    0    0    0    0  0.00000000000E+00  0.00000000000E+00  0.74505805969E-08  0.10566000000E+00  0.10566000000E+00 0. -1.
     999900   -1    0    0    0    0 -0.00000000000E+00 -0.00000000000E+00 -0.74505805969E-08  0.93827000000E+00  0.93827000000E+00 0.  1.
     999902    2    1    2    0    0 -0.21802406375E-01 -0.63837681495E-02 -0.26630391848E-02  0.10210566706E+01  0.10208004386E+01 0.  0.
     999903    2    3    3    0    0  0.11416064166E+00 -0.55956163395E-01  0.10357810070E-01  0.12914136336E+00  0.20160931882E-01 0.  0.
         14    1    1    2    0    0  0.21802406375E-01  0.63837681495E-02  0.26630391848E-02  0.22873329387E-01  0.00000000000E+00 0. -1.
     999901    1    3    3    0    0 -0.13596304803E+00  0.49572395246E-01 -0.13020849255E-01  0.89191530726E+00  0.88000000000E+00 0.  1.
        -11    1    4    4    0    0  0.39535823351E-01 -0.30088915320E-01  0.21310095064E-02  0.49731544071E-01  0.51100000000E-03 0.  1.
         11    1    4    4    0    0  0.74624818309E-01 -0.25867248075E-01  0.82268005637E-02  0.79409819287E-01  0.51100000000E-03 0. -1.
</event>
<event>
 8    1  0.1143957E+005  0.1043930E+01  0.7957747E-01            NaN
         13   -1    0    0    0    0  0.00000000000E+00  0.00000000000E+00  0.74505805969E-08  0.10566000000E+00  0.10566000000E+00 0. -1.
     999900   -1    0    0    0    0 -0.00000000000E+00 -0.00000000000E+00 -0.74505805969E-08  0.93827000000E+00  0.93827000000E+00 0.  1.
     999902    2    1    2    0    0  0.14791388284E-01  0.22285687677E-01 -0.27827945332E-02  0.10170379754E+01  0.10166823803E+01 0.  0.
     999903    2    3    3    0    0 -0.38764692777E-02 -0.91093630881E-01 -0.84323245971E-01  0.12582969221E+00  0.20239195351E-01 0.  0.
         14    1    1    2    0    0 -0.14791388284E-01 -0.22285687677E-01  0.27827945332E-02  0.26892024618E-01  0.00000000000E+00 0.  1.
     999901    1    3    3    0    0  0.18667857562E-01  0.11337931856E+00  0.81540451437E-01  0.89120828318E+00  0.88000000000E+00 0. -1.
        -11    1    4    4    0    0  0.52730865584E-02 -0.13024711183E-01 -0.18924777542E-01  0.23576617002E-01  0.51100000000E-03 0. -1.
         11    1    4    4    0    0 -0.91495558362E-02 -0.78068919697E-01 -0.65398468429E-01  0.10225307520E+00  0.51100000000E-03 0.  1.
</event>
<event>
 8    1  0.1143957E+005  0.1043930E+01  0.7957747E-01            NaN
         13   -1    0    0    0    0  0.00000000000E+00  0.00000000000E+00  0.74505805969E-08  0.10566000000E+00  0.10566000000E+00 0. -1.
     999900   -1    0    0    0    0 -0.00000000000E+00 -0.00000000000E+00 -0.74505805969E-08  0.93827000000E+00  0.93827000000E+00 0.  1.
     999902    2    1    2    0    0  0.12612275974E-01 -0.77720826364E-02  0.16067779013E-01  0.10220748337E+01  0.10218411409E+01 0.  0.
     999903    2    3    3    0    0  0.10711651324E+00 -0.66471755013E-01  0.42531685349E-01  0.13467580236E+00  0.20885063069E-01 0.  0.
         14    1    1    2    0    0 -0.12612275974E-01  0.77720826364E-02 -0.16067779013E-01  0.21855166350E-01  0.00000000000E+00 0.  1.
     999901    1    3    3    0    0 -0.94504237265E-01  0.58699672376E-01 -0.26463906336E-01  0.88739903129E+00  0.88000000000E+00 0.  1.
        -11    1    4    4    0    0  0.51151371168E-01 -0.28033180033E-01  0.92472636936E-02  0.59060096190E-01  0.51100000000E-03 0.  1.
         11    1    4    4    0    0  0.55965142071E-01 -0.38438574979E-01  0.33284421655E-01  0.75615706169E-01  0.51100000000E-03 0. -1.
</event>
<event>
 8    1  0.1143957E+005  0.1043930E+01  0.7957747E-01            NaN
         13   -1    0    0    0    0  0.00000000000E+00  0.00000000000E+00  0.74505805969E-08  0.10566000000E+00  0.10566000000E+00 0. -1.
     999900   -1    0    0    0    0 -0.00000000000E+00 -0.00000000000E+00 -0.74505805969E-08  0.93827000000E+00  0.93827000000E+00 0.  1.
     999902    2    1    2    0    0 -0.71161623867E-02  0.19703993198E-01 -0.11638458447E-01  0.10199645910E+01  0.10196830027E+01 0.  0.
     999903    2    3    3    0    0 -0.11656199568E+00 -0.52979817632E-01 -0.11860215302E-01  0.13021104309E+00  0.20510756296E-01 0.  0.
         14    1    1    2    0    0  0.71161623867E-02 -0.19703993198E-01  0.11638458447E-01  0.23965409032E-01  0.00000000000E+00 0.  1.
     999901    1    3    3    0    0  0.10944583329E+00  0.72683810830E-01  0.22175685561E-03  0.88975354788E+00  0.88000000000E+00 0. -1.
        -11    1    4    4    0    0 -0.61540682889E-01 -0.32327539071E-01 -0.15860870510E-01  0.71303252150E-01  0.51100000000E-03 0. -1.
         11    1    4    4    0    0 -0.55021312788E-01 -0.20652278560E-01  0.40006552078E-02  0.58907790942E-01  0.51100000000E-03 0.  1.
</event>
<event>
 8    1  0.1143957E+005  0.1043930E+01  0.7957747E-01            NaN
         13   -1    0    0    0    0  0.00000000000E+00  0.00000000000E+00  0.74505805969E-08  0.10566000000E+00  0.10566000000E+00 0. -1.
     999900   -1    0    0    0    0 -0.00000000000E+00 -0.00000000000E+00 -0.74505805969E-08  0.93827000000E+00  0.93827000000E+00 0.  1.
     999902    2    1    2    0    0 -0.15334004455E-01  0.18306976175E-01  0.80465717420E-03  0.10200359727E+01  0.10197560792E+01 0.  0.
     999903    2    3    3    0    0  0.25895231438E-01 -0.44303588255E-01 -0.11678983325E+00  0.12905426867E+00  0.19538888618E-01 0.  0.
         14    1    1    2    0    0  0.15334004455E-01 -0.18306976175E-01 -0.80465717420E-03  0.23894027339E-01  0.00000000000E+00 0.  1.
     999901    1    3    3    0    0 -0.41229235893E-01  0.62610564431E-01  0.11759449042E+00  0.89098170399E+00  0.88000000000E+00 0. -1.
        -11    1    4    4    0    0  0.22385213383E-01 -0.20227686130E-01 -0.72286763852E-01  0.78331950145E-01  0.51100000000E-03 0. -1.
         11    1    4    4    0    0  0.35100180553E-02 -0.24075902125E-01 -0.44503069395E-01  0.50722318524E-01  0.51100000000E-03 0.  1.
</event>
<event>
 8    1  0.1143957E+005  0.1043930E+01  0.7957747E-01            NaN
         13   -1    0    0    0    0  0.00000000000E+00  0.00000000000E+00  0.74505805969E-08  0.10566000000E+00  0.10566000000E+00 0. -1.
     999900   -1    0    0    0    0 -0.00000000000E+00 -0.00000000000E+00 -0.74505805969E-08  0.93827000000E+00  0.93827000000E+00 0.  1.
     999902    2    1    2    0    0  0.17093949906E-02 -0.18561550853E-01 -0.11856341317E-01  0.10218386888E+01  0.10215998629E+01 0.  0.
     999903    2    3    3    0    0  0.40482995473E-01  0.12159223462E+00 -0.60621294335E-02  0.12988574801E+00  0.20248794557E-01 0.  0.
         14    1    1    2    0    0 -0.17093949906E-02  0.18561550853E-01  0.11856341317E-01  0.22091311204E-01  0.00000000000E+00 0. -1.
     999901    1    3    3    0    0 -0.38773600482E-01 -0.14015378548E+00 -0.57942118833E-02  0.89195294078E+00  0.88000000000E+00 0.  1.
        -11    1    4    4    0    0  0.38821845813E-01  0.10032353028E+00  0.44827529407E-03  0.10757512962E+00  0.51100000000E-03 0.  1.
         11    1    4    4    0    0  0.16611496602E-02  0.21268704339E-01 -0.65104047276E-02  0.22310618395E-01  0.51100000000E-03 0. -1.
</event>
<event>
 8    1  0.1143957E+005  0.1043930E+01  0.7957747E-01            NaN
         13   -1    0    0    0    0  0.00000000000E+00  0.00000000000E+00  0.74505805969E-08  0.10566000000E+00  0.10566000000E+00 0. -1.
     999900   -1    0    0    0    0 -0.00000000000E+00 -0.00000000000E+00 -0.74505805969E-08  0.93827000000E+00  0.93827000000E+00 0.  1.
     999902    2    1    2    0    0  0.16731224056E-01 -0.16323110786E-01  0.33941475578E-02  0.10203101346E+01  0.10200367017E+01 0.  0.
     999903    2    3    3    0    0 -0.87635224438E-02 -0.10172628486E+00  0.81594855754E-01  0.13235797653E+00  0.20877670108E-01 0.  0.
         14    1    1    2    0    0 -0.16731224056E-01  0.16323110786E-01 -0.33941475578E-02  0.23619865406E-01  0.00000000000E+00 0. -1.
     999901    1    3    3    0    0  0.25494746499E-01  0.85403174076E-01 -0.78200708196E-01  0.88795215806E+00  0.88000000000E+00 0.  1.
        -11    1    4    4    0    0 -0.10466980371E-01 -0.22362232743E-01  0.22291671503E-01  0.33268707080E-01  0.51100000000E-03 0.  1.
         11    1    4    4    0    0  0.17034579275E-02 -0.79364052119E-01  0.59303184251E-01  0.99089269454E-01  0.51100000000E-03 0. -1.
</event>
<event>
 7    1  0.1143957E+005  0.1043930E+01  0.7957747E-01            NaN
         13   -1    0    0    0    0  0.00000000000E+00  0.00000000000E+00  0.74505805969E-08  0.10566000000E+00  0.10566000000E+00 0.  1.
     999900   -1    0    0    0    0 -0.00000000000E+00 -0.00000000000E+00 -0.74505805969E-08  0.93827000000E+00  0.93827000000E+00 0. -1.
     999903    2    1    2    0    0 -0.36420580172E-01  0.77543255634E-01 -0.53683927302E-01  0.10270468438E+00  0.18079629100E-01 0.  0.
         14    1    1    2    0    0  0.43543796856E-01  0.26962454071E-01 -0.11932277362E-01  0.52587217242E-01  0.00000000000E+00 0. -1.
     999901    1    1    2    0    0 -0.71232166837E-02 -0.10450570971E+00  0.65616204664E-01  0.88863809838E+00  0.88000000000E+00 0.  1.
        -11    1    3    3    0    0 -0.15542505068E-01  0.31187249534E-01 -0.32407755412E-01  0.47589260650E-01  0.51100000000E-03 0.  1.
         11    1    3    3    0    0 -0.20878075104E-01  0.46356006100E-01 -0.21276171889E-01  0.55115423729E-01  0.51100000000E-03 0. -1.
</event>
<event>
 8    1  0.1143957E+005  0.1043930E+01  0.7957747E-01            NaN
         13   -1    0    0    0    0  0.00000000000E+00  0.00000000000E+00  0.74505805969E-08  0.10566000000E+00  0.10566000000E+00 0. -1.
     999900   -1    0    0    0    0 -0.00000000000E+00 -0.00000000000E+00 -0.74505805969E-08  0.93827000000E+00  0.93827000000E+00 0.  1.
     999902    2    1    2    0    0 -0.17538706235E-01 -0.16016045844E-01 -0.85559406199E-03  0.10201633851E+01  0.10198865037E+01 0.  0.
     999903    2    3    3    0    0 -0.77439849793E-01  0.35772135692E-02  0.10379762907E+00  0.13172411320E+00  0.23823673199E-01 0.  0.
         14    1    1    2    0    0  0.17538706235E-01  0.16016045844E-01  0.85559406199E-03  0.23766614864E-01  0.00000000000E+00 0. -1.
     999901    1    3    3    0    0  0.59901143558E-01 -0.19593259413E-01 -0.10465322313E+00  0.88843927194E+00  0.88000000000E+00 0.  1.
        -11    1    4    4    0    0 -0.26029246900E-01  0.33509816969E-02  0.18441542709E-01  0.32079625793E-01  0.51100000000E-03 0. -1.
         11    1    4    4    0    0 -0.51410602893E-01  0.22623187231E-03  0.85356086358E-01  0.99644487404E-01  0.51100000000E-03 0.  1.
</event>
<event>
 8    1  0.1143957E+005  0.1043930E+01  0.7957747E-01            NaN
         13   -1    0    0    0    0  0.00000000000E+00  0.00000000000E+00  0.74505805969E-08  0.10566000000E+00  0.10566000000E+00 0.  1.
     999900   -1    0    0    0    0 -0.00000000000E+00 -0.00000000000E+00 -0.74505805969E-08  0.93827000000E+00  0.93827000000E+00 0. -1.
     999902    2    1    2    0    0  0.15490075875E-01 -0.10284247923E-01  0.15107817248E-01  0.10199726557E+01  0.10196912591E+01 0.  0.
     999903    2    3    3    0    0  0.97424285737E-01 -0.85415725539E-01 -0.15885156859E-01  0.13243757572E+00  0.22361476548E-01 0.  0.
         14    1    1    2    0    0 -0.15490075875E-01  0.10284247923E-01 -0.15107817248E-01  0.23957344343E-01  0.00000000000E+00 0. -1.
     999901    1    3    3    0    0 -0.81934209862E-01  0.75131477616E-01  0.30992974107E-01  0.88753507994E+00  0.88000000000E+00 0. -1.
        -11    1    4    4    0    0  0.61690640961E-01 -0.54930840592E-01  0.74564634581E-03  0.82607200290E-01  0.51100000000E-03 0. -1.
         11    1    4    4    0    0  0.35733644776E-01 -0.30484884948E-01 -0.16630803205E-01  0.49830375430E-01  0.51100000000E-03 0.  1.
</event>
<event>
 8    1  0.1143957E+005  0.1043930E+01  0.7957747E-01            NaN
         13   -1    0    0    0    0  0.00000000000E+00  0.00000000000E+00  0.74505805969E-08  0.10566000000E+00  0.10566000000E+00 0.  1.
     999900   -1    0    0    0    0 -0.00000000000E+00 -0.00000000000E+00 -0.74505805969E-08  0.93827000000E+00  0.93827000000E+00 0.  1.
     999902    2    1    2    0    0  0.19840458605E-01 -0.11884598286E-01 -0.84922730019E-02  0.10192925047E+01  0.10189947026E+01 0.  0.
     999903    2    3    3    0    0  0.98931665416E-01 -0.44812458849E-02 -0.86275446167E-01  0.13229732396E+00  0.15861063309E-01 0.  0.
         14    1    1    2    0    0 -0.19840458605E-01  0.11884598286E-01  0.84922730019E-02  0.24637495303E-01  0.00000000000E+00 0.  1.
     999901    1    3    3    0    0 -0.79091206810E-01 -0.74033524014E-02  0.77783173165E-01  0.88699518074E+00  0.88000000000E+00 0.  1.
        -11    1    4    4    0    0  0.80395439644E-01 -0.16976327144E-02 -0.77167559557E-01  0.11145134383E+00  0.51100000000E-03 0. -1.
         11    1    4    4    0    0  0.18536225771E-01 -0.27836131704E-02 -0.91078866096E-02  0.20845980131E-01  0.51100000000E-03 0.  1.
</event>
<event>
 8    1  0.1143957E+005  0.1043930E+01  0.7957747E-01            NaN
         13   -1    0    0    0    0  0.00000000000E+00  0.00000000000E+00  0.74505805969E-08  0.10566000000E+00  0.10566000000E+00 0.  1.
     999900   -1    0    0    0    0 -0.00000000000E+00 -0.00000000000E+00 -0.74505805969E-08  0.93827000000E+00  0.93827000000E+00 0.  1.
     999902    2    1    2    0    0  0.46596498227E-02  0.44798689171E-02  0.18634854706E-01  0.10242059190E+01  0.10240159789E+01 0.  0.
     999903    2    3    3    0    0 -0.15827130924E-01 -0.89220234780E-02  0.13369242513E+00  0.13637847887E+00  0.19882766044E-01 0.  0.
         14    1    1    2    0    0 -0.46596498227E-02 -0.44798689171E-02 -0.18634854706E-01  0.19724081015E-01  0.00000000000E+00 0. -1.
     999901    1    3    3    0    0  0.20486780747E-01  0.13401892395E-01 -0.11505757043E+00  0.88782744011E+00  0.88000000000E+00 0.  1.
        -11    1    4    4    0    0 -0.14027618271E-01 -0.61224326154E-02  0.43387578297E-01  0.46010882701E-01  0.51100000000E-03 0.  1.
         11    1    4    4    0    0 -0.17995126535E-02 -0.27995908627E-02  0.90304846834E-01  0.90367596170E-01  0.51100000000E-03 0. -1.
</event>
<event>
 8    1  0.1143957E+005  0.1043930E+01  0.7957747E-01            NaN
         13   -1    0    0    0    0  0.00000000000E+00  0.00000000000E+00  0.74505805969E-08  0.10566000000E+00  0.10566000000E+00 0. -1.
     999900   -1    0    0    0    0 -0.00000000000E+00 -0.00000000000E+00 -0.74505805969E-08  0.93827000000E+00  0.93827000000E+00 0.  1.
     999902    2    1    2    0    0 -0.63985018155E-02 -0.65017384286E-03 -0.22594231984E-01  0.10204382382E+01  0.10201677976E+01 0.  0.
     999903    2    3    3    0    0  0.67498766906E-01  0.10915241423E+00 -0.13270371961E-01  0.13049197636E+00  0.19537657378E-01 0.  0.
         14    1    1    2    0    0  0.63985018155E-02  0.65017384286E-03  0.22594231984E-01  0.23491761758E-01  0.00000000000E+00 0. -1.
     999901    1    3    3    0    0 -0.73897268721E-01 -0.10980258808E+00 -0.93238600235E-02  0.88994626188E+00  0.88000000000E+00 0.  1.
        -11    1    4    4    0    0  0.46710521427E-02  0.24745751885E-02  0.21513791608E-02  0.57299043427E-02  0.51100000000E-03 0. -1.
         11    1    4    4    0    0  0.62827714763E-01  0.10667783904E+00 -0.15421751122E-01  0.12476207202E+00  0.51100000000E-03 0.  1.
</event>
<event>
 8    1  0.1143957E+005  0.1043930E+01  0.7957747E-01            NaN
         13   -1    0    0    0    0  0.00000000000E+00  0.00000000000E+00  0.74505805969E-08  0.10566000000E+00  0.10566000000E+00 0.  1.
     999900   -1    0    0    0    0 -0.00000000000E+00 -0.00000000000E+00 -0.74505805969E-08  0.93827000000E+00  0.93827000000E+00 0. -1.
     999902    2    1    2    0    0  0.23383770909E-01 -0.15519474785E-02  0.77463621678E-02  0.10192477106E+01  0.10189488114E+01 0.  0.
     999903    2    3    3    0    0  0.52348317205E-01 -0.11762176888E+00  0.14523419156E-01  0.13112774299E+00  0.20207138531E-01 0.  0.
         14    1    1    2    0    0 -0.23383770909E-01  0.15519474785E-02 -0.77463621678E-02  0.24682289394E-01  0.00000000000E+00 0. -1.
     999901    1    3    3    0    0 -0.28964546296E-01  0.11606982140E+00 -0.67770569879E-02  0.88811996762E+00  0.88000000000E+00 0. -1.
        -11    1    4    4    0    0  0.20733688155E-01 -0.57085216228E-01  0.16025410607E-01  0.62814669007E-01  0.51100000000E-03 0. -1.
         11    1    4    4    0    0  0.31614629050E-01 -0.60536552654E-01 -0.15019914517E-02  0.68313073980E-01  0.51100000000E-03 0.  1.
</event>
<event>
 8    1  0.1143957E+005  0.1043930E+01  0.7957747E-01            NaN
         13   -1    0    0    0    0  0.00000000000E+00  0.00000000000E+00  0.74505805969E-08  0.10566000000E+00  0.10566000000E+00 0. -1.
     999900   -1    0    0    0    0 -0.00000000000E+00 -0.00000000000E+00 -0.74505805969E-08  0.93827000000E+00  0.93827000000E+00 0.  1.
     999902    2    1    2    0    0  0.27754302836E-02  0.23368912982E-01  0.23653118177E-02  0.10202782811E+01  0.10200041015E+01 0.  0.
     999903    2    3    3    0    0  0.11147698339E+00 -0.21562665123E-01  0.61098982409E-01  0.13051172833E+00  0.20202950967E-01 0.  0.
         14    1    1    2    0    0 -0.27754302836E-02 -0.23368912982E-01 -0.23653118177E-02  0.23651718907E-01  0.00000000000E+00 0. -1.
     999901    1    3    3    0    0 -0.10870155310E+00  0.44931578105E-01 -0.58733670591E-01  0.88976655276E+00  0.88000000000E+00 0. -1.
        -11    1    4    4    0    0  0.34680672591E-01 -0.30978386092E-02  0.28751387753E-01  0.45158045508E-01  0.51100000000E-03 0. -1.
         11    1    4    4    0    0  0.76796310795E-01 -0.18464826514E-01  0.32347594656E-01  0.85353682820E-01  0.51100000000E-03 0.  1.
</event>
<event>
 8    1  0.1143957E+005  0.1043930E+01  0.7957747E-01            NaN
         13   -1    0    0    0    0  0.00000000000E+00  0.00000000000E+00  0.74505805969E-08  0.10566000000E+00  0.10566000000E+00 0. -1.
     999900   -1    0    0    0    0 -0.00000000000E+00 -0.00000000000E+00 -0.74505805969E-08  0.93827000000E+00  0.93827000000E+00 0. -1.
     999902    2    1    2    0    0  0.16609549785E-01  0.16589994879E-01  0.53910806666E-02  0.10198433061E+01  0.10195588262E+01 0.  0.
     999903    2    3    3    0    0 -0.17740515292E-01 -0.71115978770E-01  0.10463437299E+00  0.12926961688E+00  0.19750278944E-01 0.  0.
         14    1    1    2    0    0 -0.16609549785E-01 -0.16589994879E-01 -0.53910806666E-02  0.24086693939E-01  0.00000000000E+00 0.  1.
     999901    1    3    3    0    0  0.34350065077E-01  0.87705973649E-01 -0.99243292326E-01  0.89057368918E+00  0.88000000000E+00 0. -1.
        -11    1    4    4    0    0  0.15787105580E-02 -0.22321344489E-01  0.22049458298E-01  0.31419332887E-01  0.51100000000E-03 0.  1.
         11    1    4    4    0    0 -0.19319225850E-01 -0.48794634280E-01  0.82584914694E-01  0.97850283996E-01  0.51100000000E-03 0. -1.
</event>
<event>
 7    1  0.1149229E+005  0.1043930E+01  0.7957747E-01            NaN
         13   -1    0    0    0    0  0.00000000000E+00  0.00000000000E+00  0.74505805969E-08  0.10566000000E+00  0.10566000000E+00 0.  1.
     999900   -1    0    0    0    0 -0.00000000000E+00 -0.00000000000E+00 -0.74505805969E-08  0.93827000000E+00  0.93827000000E+00 0.  1.
     999903    2    1    2    0    0  0.68322222520E-02 -0.24913716834E-01 -0.88050478962E-01  0.97226689047E-01  0.32136733968E-01 0.  0.
         14    1    1    2    0    0  0.40166187776E-01  0.45833237782E-01  0.14864018863E-02  0.60960788353E-01  0.00000000000E+00 0.  1.
     999901    1    1    2    0    0 -0.46998410028E-01 -0.20919520947E-01  0.86564077076E-01  0.88574252260E+00  0.88000000000E+00 0. -1.
        -11    1    3    3    0    0 -0.48101055232E-02 -0.22702461770E-01 -0.29761965880E-01  0.37743537455E-01  0.51100000000E-03 0.  1.
         11    1    3    3    0    0  0.11642327775E-01 -0.22112550643E-02 -0.58288513082E-01  0.59483151592E-01  0.51100000000E-03 0. -1.
</event>
<event>
 8    1  0.1143957E+005  0.1043930E+01  0.7957747E-01            NaN
         13   -1    0    0    0    0  0.00000000000E+00  0.00000000000E+00  0.74505805969E-08  0.10566000000E+00  0.10566000000E+00 0.  1.
     999900   -1    0    0    0    0 -0.00000000000E+00 -0.00000000000E+00 -0.74505805969E-08  0.93827000000E+00  0.93827000000E+00 0. -1.
     999902    2    1    2    0    0  0.22459794746E-01 -0.43423199498E-02 -0.36672639477E-02  0.10207622002E+01  0.10204992516E+01 0.  0.
     999903    2    3    3    0    0  0.93796681964E-01  0.10048985793E-01  0.90906700974E-01  0.13270798114E+00  0.21179714652E-01 0.  0.
         14    1    1    2    0    0 -0.22459794746E-01  0.43423199498E-02  0.36672639477E-02  0.23167799797E-01  0.00000000000E+00 0.  1.
     999901    1    3    3    0    0 -0.71336887218E-01 -0.14391305743E-01 -0.94573964922E-01  0.88805421907E+00  0.88000000000E+00 0. -1.
        -11    1    4    4    0    0  0.64833140275E-01 -0.30128620298E-02  0.60995951615E-01  0.89068404330E-01  0.51100000000E-03 0.  1.
         11    1    4    4    0    0  0.28963541689E-01  0.13061847823E-01  0.29910749359E-01  0.43639576807E-01  0.51100000000E-03 0. -1.
</event>
<event>
 8    1  0.1143957E+005  0.1043930E+01  0.7957747E-01            NaN
         13   -1    0    0    0    0  0.00000000000E+00  0.00000000000E+00  0.74505805969E-08  0.10566000000E+00  0.10566000000E+00 0. -1.
     999900   -1    0    0    0    0 -0.00000000000E+00 -0.00000000000E+00 -0.74505805969E-08  0.93827000000E+00  0.93827000000E+00 0.  1.
     999902    2    1    2    0    0 -0.66065788728E-02  0.99020322890E-03 -0.28686445378E-01  0.10144759759E+01  0.10140483056E+01 0.  0.
     999903    2    3    3    0    0  0.99286254968E-01 -0.39434645487E-01 -0.64838143202E-01  0.12647011674E+00  0.19438465086E-01 0.  0.
         14    1    1    2    0    0  0.66065788728E-02 -0.99020322890E-03  0.28686445378E-01  0.29454024093E-01  0.00000000000E+00 0. -1.
     999901    1    3    3    0    0 -0.10589283384E+00  0.40424848716E-01  0.36151697824E-01  0.88800585916E+00  0.88000000000E+00 0. -1.
        -11    1    4    4    0    0  0.91430921723E-01 -0.36036636635E-01 -0.65114699790E-01  0.11789163616E+00  0.51100000000E-03 0.  1.
         11    1    4    4    0    0  0.78553332452E-02 -0.33980088523E-02  0.27655658759E-03  0.85784805822E-02  0.51100000000E-03 0. -1.
</event>
<event>
 8    1  0.1143957E+005  0.1043930E+01  0.7957747E-01            NaN
         13   -1    0    0    0    0  0.00000000000E+00  0.00000000000E+00  0.74505805969E-08  0.10566000000E+00  0.10566000000E+00 0.  1.
     999900   -1    0    0    0    0 -0.00000000000E+00 -0.00000000000E+00 -0.74505805969E-08  0.93827000000E+00  0.93827000000E+00 0.  1.
     999902    2    1    2    0    0 -0.19055020821E-01 -0.11108518243E-01 -0.88009437348E-02  0.10201823768E+01  0.10199059429E+01 0.  0.
     999903    2    3    3    0    0 -0.11630296711E+00 -0.47433718618E-01 -0.40580263844E-01  0.13351073048E+00  0.20050424416E-01 0.  0.
         14    1    1    2    0    0  0.19055020821E-01  0.11108518243E-01  0.88009437348E-02  0.23747623179E-01  0.00000000000E+00 0.  1.
     999901    1    3    3    0    0  0.97247946288E-01  0.36325200376E-01  0.31779320109E-01  0.88667164634E+00  0.88000000000E+00 0. -1.
        -11    1    4    4    0    0 -0.17538394942E-01 -0.15094715715E-02 -0.10538031498E-01  0.20522792949E-01  0.51100000000E-03 0.  1.
         11    1    4    4    0    0 -0.98764572167E-01 -0.45924247047E-01 -0.30042232346E-01  0.11298793753E+00  0.51100000000E-03 0. -1.
</event>
<event>
 8    1  0.1143957E+005  0.1043930E+01  0.7957747E-01            NaN
         13   -1    0    0    0    0  0.00000000000E+00  0.00000000000E+00  0.74505805969E-08  0.10566000000E+00  0.10566000000E+00 0. -1.
     999900   -1    0    0    0    0 -0.00000000000E+00 -0.00000000000E+00 -0.74505805969E-08  0.93827000000E+00  0.93827000000E+00 0.  1.
     999902    2    1    2    0    0 -0.19900994507E-01  0.13622670863E-02  0.13164813797E-01  0.10200298394E+01  0.10197498005E+01 0.  0.
     999903    2    3    3    0    0  0.83296668299E-01  0.43554074648E-01  0.87312209064E-01  0.12990190340E+00  0.20390936417E-01 0.  0.
         14    1    1    2    0    0  0.19900994507E-01 -0.13622670863E-02 -0.13164813797E-01  0.23900160591E-01  0.00000000000E+00 0.  1.
     999901    1    3    3    0    0 -0.10319766281E+00 -0.42191807562E-01 -0.74147395267E-01  0.89012793601E+00  0.88000000000E+00 0.  1.
        -11    1    4    4    0    0  0.47889108880E-02  0.81315978101E-02  0.13446452217E-01  0.16435472267E-01  0.51100000000E-03 0.  1.
         11    1    4    4    0    0  0.78507757411E-01  0.35422476838E-01  0.73865756847E-01  0.11346643114E+00  0.51100000000E-03 0. -1.
</event>
<event>
 8    1  0.1143957E+005  0.1043930E+01  0.7957747E-01            NaN
         13   -1    0    0    0    0  0.00000000000E+00  0.00000000000E+00  0.74505805969E-08  0.10566000000E+00  0.10566000000E+00 0.  1.
     999900   -1    0    0    0    0 -0.00000000000E+00 -0.00000000000E+00 -0.74505805969E-08  0.93827000000E+00  0.93827000000E+00 0.  1.
     999902    2    1    2    0    0 -0.21060357879E-01  0.10914068965E-01 -0.23890118126E-02  0.10200896361E+01  0.10198110132E+01 0.  0.
     999903    2    3    3    0    0  0.10721706946E+00  0.58700156837E-01 -0.36089011157E-01  0.12886895715E+00  0.19067852373E-01 0.  0.
         14    1    1    2    0    0  0.21060357879E-01 -0.10914068965E-01  0.23890118126E-02  0.23840363941E-01  0.00000000000E+00 0.  1.
     999901    1    3    3    0    0 -0.12827742734E+00 -0.47786087872E-01  0.33699999344E-01  0.89122067891E+00  0.88000000000E+00 0.  1.
        -11    1    4    4    0    0  0.10363941421E+00  0.54652849787E-01 -0.30485575771E-01  0.12106896224E+00  0.51100000000E-03 0.  1.
         11    1    4    4    0    0  0.35776552562E-02  0.40473070496E-02 -0.56034353853E-02  0.77999949105E-02  0.51100000000E-03 0. -1.
</event>
<event>
 8    1  0.1143957E+005  0.1043930E+01  0.7957747E-01            NaN
         13   -1    0    0    0    0  0.00000000000E+00  0.00000000000E+00  0.74505805969E-08  0.10566000000E+00  0.10566000000E+00 0.  1.
     999900   -1    0    0    0    0 -0.00000000000E+00 -0.00000000000E+00 -0.74505805969E-08  0.93827000000E+00  0.93827000000E+00 0.  1.
     999902    2    1    2    0    0 -0.19517852761E-01  0.63523591374E-02 -0.11580617148E-01  0.10203628675E+01  0.10200906683E+01 0.  0.
     999903    2    3    3    0    0  0.50043127818E-01 -0.88279914602E-01  0.75993623902E-01  0.12825119006E+00  0.19382438257E-01 0.  0.
         14    1    1    2    0    0  0.19517852761E-01 -0.63523591374E-02  0.11580617148E-01  0.23567132548E-01  0.00000000000E+00 0.  1.
     999901    1    3    3    0    0 -0.69560980580E-01  0.94632273740E-01 -0.87574241049E-01  0.89211167740E+00  0.88000000000E+00 0.  1.
        -11    1    4    4    0    0  0.24959382237E-03 -0.11312473556E-02  0.53840923642E-02  0.55309663932E-02  0.51100000000E-03 0.  1.
         11    1    4    4    0    0  0.49793533996E-01 -0.87148667247E-01  0.70609531537E-01  0.12272022366E+00  0.51100000000E-03 0. -1.
</event>
<event>
 8    1  0.1143957E+005  0.1043930E+01  0.7957747E-01            NaN
         13   -1    0    0    0    0  0.00000000000E+00  0.00000000000E+00  0.74505805969E-08  0.10566000000E+00  0.10566000000E+00 0.  1.
     999900   -1    0    0    0    0 -0.00000000000E+00 -0.00000000000E+00 -0.74505805969E-08  0.93827000000E+00  0.93827000000E+00 0. -1.
     999902    2    1    2    0    0 -0.24137854189E-01  0.23539682216E-01 -0.15825080380E-01  0.10066850565E+01  0.10059958336E+01 0.  0.
     999903    2    3    3    0    0 -0.71292100531E-01 -0.36929174455E-01 -0.87352987620E-01  0.12045921226E+00  0.20821859847E-01 0.  0.
         14    1    1    2    0    0  0.24137854189E-01 -0.23539682216E-01  0.15825080380E-01  0.37244943452E-01  0.00000000000E+00 0.  1.
     999901    1    3    3    0    0  0.47154246342E-01  0.60468856671E-01  0.71527907240E-01  0.88622584429E+00  0.88000000000E+00 0.  1.
        -11    1    4    4    0    0 -0.44641302536E-01 -0.15789413783E-01 -0.39052740534E-01  0.61380201564E-01  0.51100000000E-03 0.  1.
         11    1    4    4    0    0 -0.26650797995E-01 -0.21139760672E-01 -0.48300247085E-01  0.59079010694E-01  0.51100000000E-03 0. -1.
</event>
<event>
 8    1  0.1143957E+005  0.1043930E+01  0.7957747E-01            NaN
         13   -1    0    0    0    0  0.00000000000E+00  0.00000000000E+00  0.74505805969E-08  0.10566000000E+00  0.10566000000E+00 0. -1.
     999900   -1    0    0    0    0 -0.00000000000E+00 -0.00000000000E+00 -0.74505805969E-08  0.93827000000E+00  0.93827000000E+00 0. -1.
     999902    2    1    2    0    0 -0.21223996712E-01  0.80692553035E-02 -0.71492777899E-02  0.10201248936E+01  0.10198471040E+01 0.  0.
     999903    2    3    3    0    0  0.10237244367E+00  0.74198786017E-01  0.15092447098E-01  0.12875297951E+00  0.19078016238E-01 0.  0.
         14    1    1    2    0    0  0.21223996712E-01 -0.80692553035E-02  0.71492777899E-02  0.23805106396E-01  0.00000000000E+00 0. -1.
     999901    1    3    3    0    0 -0.12359644039E+00 -0.66129530714E-01 -0.22241724888E-01  0.89137191409E+00  0.88000000000E+00 0. -1.
        -11    1    4    4    0    0  0.65806646120E-01  0.50227197083E-01  0.93226112529E-03  0.82791401922E-01  0.51100000000E-03 0.  1.
         11    1    4    4    0    0  0.36565797553E-01  0.23971588934E-01  0.14160185972E-01  0.45961577589E-01  0.51100000000E-03 0. -1.
</event>
<event>
 8    1  0.1143957E+005  0.1043930E+01  0.7957747E-01            NaN
         13   -1    0    0    0    0  0.00000000000E+00  0.00000000000E+00  0.74505805969E-08  0.10566000000E+00  0.10566000000E+00 0. -1.
     999900   -1    0    0    0    0 -0.00000000000E+00 -0.00000000000E+00 -0.74505805969E-08  0.93827000000E+00  0.93827000000E+00 0.  1.
     999902    2    1    2    0    0  0.95770938265E-02 -0.17618763468E-01 -0.14176495874E-01  0.10193716086E+01  0.10190757390E+01 0.  0.
     999903    2    3    3    0    0 -0.64889709460E-01  0.57519688781E-01 -0.93984132388E-01  0.12945006676E+00  0.20127435336E-01 0.  0.
         14    1    1    2    0    0 -0.95770938265E-02  0.17618763468E-01  0.14176495874E-01  0.24558391388E-01  0.00000000000E+00 0. -1.
     999901    1    3    3    0    0  0.74466803287E-01 -0.75138452249E-01  0.79807636514E-01  0.88992154185E+00  0.88000000000E+00 0.  1.
        -11    1    4    4    0    0 -0.51623273849E-01  0.47202641983E-01 -0.85941521387E-01  0.11081181360E+00  0.51100000000E-03 0.  1.
         11    1    4    4    0    0 -0.13266435611E-01  0.10317046798E-01 -0.80426110015E-02  0.18638253169E-01  0.51100000000E-03 0. -1.
</event>
<event>
 8    1  0.1143957E+005  0.1043930E+01  0.7957747E-01            NaN
         13   -1    0    0    0    0  0.00000000000E+00  0.00000000000E+00  0.74505805969E-08  0.10566000000E+00  0.10566000000E+00 0.  1.
     999900   -1    0    0    0    0 -0.00000000000E+00 -0.00000000000E+00 -0.74505805969E-08  0.93827000000E+00  0.93827000000E+00 0. -1.
     999902    2    1    2    0    0  0.21094550991E-01 -0.75068624167E-03 -0.11604596895E-01  0.10198424455E+01  0.10195579451E+01 0.  0.
     999903    2    3    3    0    0  0.10585442816E+00 -0.46078064140E-01 -0.62862911214E-01  0.13312590528E+00  0.21033618203E-01 0.  0.
         14    1    1    2    0    0 -0.21094550991E-01  0.75068624167E-03  0.11604596895E-01  0.24087554472E-01  0.00000000000E+00 0.  1.
     999901    1    3    3    0    0 -0.84759877166E-01  0.45327377898E-01  0.51258314319E-01  0.88671654025E+00  0.88000000000E+00 0.  1.
        -11    1    4    4    0    0  0.67285037559E-01 -0.22509736493E-01 -0.29019881261E-01  0.76657544611E-01  0.51100000000E-03 0. -1.
         11    1    4    4    0    0  0.38569390598E-01 -0.23568327647E-01 -0.33843029953E-01  0.56468360668E-01  0.51100000000E-03 0.  1.
</event>
<event>
 8    1  0.1143957E+005  0.1043930E+01  0.7957747E-01            NaN
         13   -1    0    0    0    0  0.00000000000E+00  0.00000000000E+00  0.74505805969E-08  0.10566000000E+00  0.10566000000E+00 0. -1.
     999900   -1    0    0    0    0 -0.00000000000E+00 -0.00000000000E+00 -0.74505805969E-08  0.93827000000E+00  0.93827000000E+00 0. -1.
     999902    2    1    2    0    0  0.17948074269E-01  0.38637285712E-02 -0.12379036481E-01  0.10217872289E+01  0.10215472768E+01 0.  0.
     999903    2    3    3    0    0  0.16383279991E-01 -0.65259280904E-01  0.11007938484E+00  0.13062141717E+00  0.20427874288E-01 0.  0.
         14    1    1    2    0    0 -0.17948074269E-01 -0.38637285712E-02  0.12379036481E-01  0.22142771114E-01  0.00000000000E+00 0. -1.
     999901    1    3    3    0    0  0.15647942777E-02  0.69123009475E-01 -0.12245842133E+00  0.89116581172E+00  0.88000000000E+00 0. -1.
        -11    1    4    4    0    0  0.27553600656E-02 -0.84107127757E-02  0.45120254087E-02  0.99474415190E-02  0.51100000000E-03 0. -1.
         11    1    4    4    0    0  0.13627919925E-01 -0.56848568129E-01  0.10556735944E+00  0.12067397565E+00  0.51100000000E-03 0.  1.
</event>
<event>
 8    1  0.1143957E+005  0.1043930E+01  0.7957747E-01            NaN
         13   -1    0    0    0    0  0.00000000000E+00  0.00000000000E+00  0.74505805969E-08  0.10566000000E+00  0.10566000000E+00 0. -1.
     999900   -1    0    0    0    0 -0.00000000000E+00 -0.00000000000E+00 -0.74505805969E-08  0.93827000000E+00  0.93827000000E+00 0. -1.
     999902    2    1    2    0    0  0.72828892649E-02  0.10701531062E-01 -0.17463422359E-01  0.10221921445E+01  0.10219609806E+01 0.  0.
     999903    2    3    3    0    0 -0.70602999438E-01  0.10820073085E+00  0.21315824776E-01  0.13254269910E+00  0.20518796584E-01 0.  0.
         14    1    1    2    0    0 -0.72828892649E-02 -0.10701531062E-01  0.17463422359E-01  0.21737855543E-01  0.00000000000E+00 0. -1.
     999901    1    3    3    0    0  0.77885888703E-01 -0.97499199785E-01 -0.38779247135E-01  0.88964944536E+00  0.88000000000E+00 0. -1.
        -11    1    4    4    0    0 -0.27431594363E-01  0.58872348822E-01  0.15182594968E-01  0.66702459745E-01  0.51100000000E-03 0. -1.
         11    1    4    4    0    0 -0.43171405075E-01  0.49328382025E-01  0.61332298079E-02  0.65840239354E-01  0.51100000000E-03 0.  1.
</event>
<event>
 8    1  0.1143957E+005  0.1043930E+01  0.7957747E-01            NaN
         13   -1    0    0    0    0  0.00000000000E+00  0.00000000000E+00  0.74505805969E-08  0.10566000000E+00  0.10566000000E+00 0.  1.
     999900   -1    0    0    0    0 -0.00000000000E+00 -0.00000000000E+00 -0.74505805969E-08  0.93827000000E+00  0.93827000000E+00 0.  1.
     999902    2    1    2    0    0  0.18300970316E-02  0.13704560757E-01 -0.18180933703E-01  0.10210890151E+01  0.10208335154E+01 0.  0.
     999903    2    3    3    0    0 -0.51067343610E-01  0.54292035866E-01  0.10462336676E+00  0.13006355050E+00  0.20371046961E-01 0.  0.
         14    1    1    2    0    0 -0.18300970316E-02 -0.13704560757E-01  0.18180933703E-01  0.22840984896E-01  0.00000000000E+00 0.  1.
     999901    1    3    3    0    0  0.52897440642E-01 -0.40587475109E-01 -0.12280430046E+00  0.89102546461E+00  0.88000000000E+00 0. -1.
        -11    1    4    4    0    0 -0.26777929514E-01  0.14578445951E-01  0.36671516114E-01  0.47693288946E-01  0.51100000000E-03 0. -1.
         11    1    4    4    0    0 -0.24289414097E-01  0.39713589915E-01  0.67951850646E-01  0.82370261553E-01  0.51100000000E-03 0.  1.
</event>
<event>
 8    1  0.1143957E+005  0.1043930E+01  0.7957747E-01            NaN
         13   -1    0    0    0    0  0.00000000000E+00  0.00000000000E+00  0.74505805969E-08  0.10566000000E+00  0.10566000000E+00 0.  1.
     999900   -1    0    0    0    0 -0.00000000000E+00 -0.00000000000E+00 -0.74505805969E-08  0.93827000000E+00  0.93827000000E+00 0. -1.
     999902    2    1    2    0    0 -0.17306008347E-02  0.13612627178E-01  0.17569913993E-01  0.10216364925E+01  0.10213932261E+01 0.  0.
     999903    2    3    3    0    0  0.70523109674E-01  0.11038715003E+00  0.12366172427E-01  0.13337246315E+00  0.21827959502E-01 0.  0.
         14    1    1    2    0    0  0.17306008347E-02 -0.13612627178E-01 -0.17569913993E-01  0.22293507478E-01  0.00000000000E+00 0. -1.
     999901    1    3    3    0    0 -0.72253710509E-01 -0.96774522850E-01  0.52037415660E-02  0.88826402937E+00  0.88000000000E+00 0.  1.
        -11    1    4    4    0    0  0.43096227328E-01  0.81514370356E-01  0.15174335837E-01  0.93447305866E-01  0.51100000000E-03 0. -1.
         11    1    4    4    0    0  0.27426882346E-01  0.28872779673E-01 -0.28081634106E-02  0.39925157282E-01  0.51100000000E-03 0.  1.
</event>
<event>
 8    1  0.1143957E+005  0.1043930E+01  0.7957747E-01            NaN
         13   -1    0    0    0    0  0.00000000000E+00  0.00000000000E+00  0.74505805969E-08  0.10566000000E+00  0.10566000000E+00 0. -1.
     999900   -1    0    0    0    0 -0.00000000000E+00 -0.00000000000E+00 -0.74505805969E-08  0.93827000000E+00  0.93827000000E+00 0. -1.
     999902    2    1    2    0    0 -0.13800239599E-01  0.98219145913E-02 -0.15613527252E-01  0.10208930980E+01  0.10206331460E+01 0.  0.
     999903    2    3    3    0    0  0.69413183762E-01 -0.94572111277E-01  0.48582977196E-01  0.12851213810E+00  0.19823966646E-01 0.  0.
         14    1    1    2    0    0  0.13800239599E-01 -0.98219145913E-02  0.15613527252E-01  0.23036901973E-01  0.00000000000E+00 0. -1.
     999901    1    3    3    0    0 -0.83213423361E-01  0.10439402587E+00 -0.64196504448E-01  0.89238095993E+00  0.88000000000E+00 0. -1.
        -11    1    4    4    0    0  0.13551631692E-01 -0.19727692059E-01  0.18943066065E-01  0.30527519199E-01  0.51100000000E-03 0.  1.
         11    1    4    4    0    0  0.55861552069E-01 -0.74844419217E-01  0.29639911131E-01  0.97984618897E-01  0.51100000000E-03 0. -1.
</event>
<event>
 8    1  0.1143957E+005  0.1043930E+01  0.7957747E-01            NaN
         13   -1    0    0    0    0  0.00000000000E+00  0.00000000000E+00  0.74505805969E-08  0.10566000000E+00  0.10566000000E+00 0. -1.
     999900   -1    0    0    0    0 -0.00000000000E+00 -0.00000000000E+00 -0.74505805969E-08  0.93827000000E+00  0.93827000000E+00 0. -1.
     999902    2    1    2    0    0  0.20102598160E-01 -0.70901259756E-02 -0.93141187596E-02  0.10206676453E+01  0.10204025210E+01 0.  0.
     999903    2    3    3    0    0 -0.63976988297E-01 -0.11130314285E+00  0.51079660812E-02  0.13042176560E+00  0.22412072287E-01 0.  0.
         14    1    1    2    0    0 -0.20102598160E-01  0.70901259756E-02  0.93141187596E-02  0.23262354726E-01  0.00000000000E+00 0.  1.
     999901    1    3    3    0    0  0.84079586457E-01  0.10421301688E+00 -0.14422084841E-01  0.89024587967E+00  0.88000000000E+00 0.  1.
        -11    1    4    4    0    0 -0.48069256496E-02 -0.25495524455E-01  0.34372241327E-02  0.26176400290E-01  0.51100000000E-03 0.  1.
         11    1    4    4    0    0 -0.59170062647E-01 -0.85807618399E-01  0.16707419485E-02  0.10424536531E+00  0.51100000000E-03 0. -1.
</event>
<event>
 8    1  0.1143957E+005  0.1043930E+01  0.7957747E-01            NaN
         13   -1    0    0    0    0  0.00000000000E+00  0.00000000000E+00  0.74505805969E-08  0.10566000000E+00  0.10566000000E+00 0. -1.
     999900   -1    0    0    0    0 -0.00000000000E+00 -0.00000000000E+00 -0.74505805969E-08  0.93827000000E+00  0.93827000000E+00 0.  1.
     999902    2    1    2    0    0  0.50016934990E-03 -0.15577903287E-01 -0.15627214525E-01  0.10218589539E+01  0.10216205708E+01 0.  0.
     999903    2    3    3    0    0  0.22356055481E-02  0.82019975561E-01 -0.10181400672E+00  0.13227673692E+00  0.19969197357E-01 0.  0.
         14    1    1    2    0    0 -0.50016934990E-03  0.15577903287E-01  0.15627214525E-01  0.22071046056E-01  0.00000000000E+00 0. -1.
     999901    1    3    3    0    0 -0.17354361982E-02 -0.97597878848E-01  0.86186792194E-01  0.88958221702E+00  0.88000000000E+00 0. -1.
        -11    1    4    4    0    0 -0.20304926567E-02  0.18319239393E-01 -0.36770578220E-01  0.41134583697E-01  0.51100000000E-03 0. -1.
         11    1    4    4    0    0  0.42660982048E-02  0.63700736168E-01 -0.65043428500E-01  0.91142153224E-01  0.51100000000E-03 0.  1.
</event>
<event>
 8    1  0.1143957E+005  0.1043930E+01  0.7957747E-01            NaN
         13   -1    0    0    0    0  0.00000000000E+00  0.00000000000E+00  0.74505805969E-08  0.10566000000E+00  0.10566000000E+00 0. -1.
     999900   -1    0    0    0    0 -0.00000000000E+00 -0.00000000000E+00 -0.74505805969E-08  0.93827000000E+00  0.93827000000E+00 0.  1.
     999902    2    1    2    0    0 -0.15355843059E-01 -0.84730935637E-02 -0.16473156104E-01  0.10198684102E+01  0.10195845301E+01 0.  0.
     999903    2    3    3    0    0  0.67631256836E-01 -0.72613603199E-01 -0.83246264734E-01  0.13112800281E+00  0.20442364319E-01 0.  0.
         14    1    1    2    0    0  0.15355843059E-01  0.84730935637E-02  0.16473156104E-01  0.24061589777E-01  0.00000000000E+00 0. -1.
     999901    1    3    3    0    0 -0.82987099895E-01  0.64140509635E-01  0.66773108631E-01  0.88874040741E+00  0.88000000000E+00 0.  1.
        -11    1    4    4    0    0  0.18392615306E-01 -0.34297122433E-01 -0.32214515960E-01  0.50523430847E-01  0.51100000000E-03 0. -1.
         11    1    4    4    0    0  0.49238641531E-01 -0.38316480765E-01 -0.51031748775E-01  0.80604571967E-01  0.51100000000E-03 0.  1.
</event>
<event>
 8    1  0.1143957E+005  0.1043930E+01  0.7957747E-01            NaN
         13   -1    0    0    0    0  0.00000000000E+00  0.00000000000E+00  0.74505805969E-08  0.10566000000E+00  0.10566000000E+00 0.  1.
     999900   -1    0    0    0    0 -0.00000000000E+00 -0.00000000000E+00 -0.74505805969E-08  0.93827000000E+00  0.93827000000E+00 0. -1.
     999902    2    1    2    0    0 -0.19319222902E-01 -0.14445765911E-02  0.62895027793E-02  0.10235614699E+01  0.10233587863E+01 0.  0.
     999903    2    3    3    0    0 -0.11801023447E+00  0.30960494937E-01  0.56826315985E-01  0.13601204931E+00  0.19623447268E-01 0.  0.
         14    1    1    2    0    0  0.19319222902E-01  0.14445765911E-02 -0.62895027793E-02  0.20368530145E-01  0.00000000000E+00 0. -1.
     999901    1    3    3    0    0  0.98691011565E-01 -0.32405071528E-01 -0.50536813206E-01  0.88754942055E+00  0.88000000000E+00 0. -1.
        -11    1    4    4    0    0 -0.78099593778E-01  0.12830403260E-01  0.30157849217E-01  0.84699012902E-01  0.51100000000E-03 0. -1.
         11    1    4    4    0    0 -0.39910640689E-01  0.18130091677E-01  0.26668466768E-01  0.51313036406E-01  0.51100000000E-03 0.  1.
</event>
<event>
 8    1  0.1143957E+005  0.1043930E+01  0.7957747E-01            NaN
         13   -1    0    0    0    0  0.00000000000E+00  0.00000000000E+00  0.74505805969E-08  0.10566000000E+00  0.10566000000E+00 0. -1.
     999900   -1    0    0    0    0 -0.00000000000E+00 -0.00000000000E+00 -0.74505805969E-08  0.93827000000E+00  0.93827000000E+00 0.  1.
     999902    2    1    2    0    0 -0.21265822881E-01  0.68612483718E-02 -0.11959185108E-01  0.10185856898E+01  0.10182703341E+01 0.  0.
     999903    2    3    3    0    0  0.11439396845E+00  0.45648562617E-01 -0.22338581253E-01  0.12728564681E+00  0.23083595618E-01 0.  0.
         14    1    1    2    0    0  0.21265822881E-01 -0.68612483718E-02  0.11959185108E-01  0.25344310219E-01  0.00000000000E+00 0. -1.
     999901    1    3    3    0    0 -0.13565979133E+00 -0.38787314245E-01  0.10379396145E-01  0.89130004297E+00  0.88000000000E+00 0. -1.
        -11    1    4    4    0    0  0.43162004757E-01  0.28620656311E-01 -0.13435103887E-01  0.53505735765E-01  0.51100000000E-03 0.  1.
         11    1    4    4    0    0  0.71231963689E-01  0.17027906305E-01 -0.89034773662E-02  0.73779911048E-01  0.51100000000E-03 0. -1.
</event>
<event>
 8    1  0.1143957E+005  0.1043930E+01  0.7957747E-01            NaN
         13   -1    0    0    0    0  0.00000000000E+00  0.00000000000E+00  0.74505805969E-08  0.10566000000E+00  0.10566000000E+00 0.  1.
     999900   -1    0    0    0    0 -0.00000000000E+00 -0.00000000000E+00 -0.74505805969E-08  0.93827000000E+00  0.93827000000E+00 0. -1.
     999902    2    1    2    0    0  0.20106817567E-01 -0.10235339356E-01  0.74212700278E-02  0.10201787572E+01  0.10199022380E+01 0.  0.
     999903    2    3    3    0    0 -0.54830958592E-01 -0.81650961963E-01 -0.81696312863E-01  0.12964082708E+00  0.21427620062E-01 0.  0.
         14    1    1    2    0    0 -0.20106817567E-01  0.10235339356E-01 -0.74212700278E-02  0.23751242772E-01  0.00000000000E+00 0.  1.
     999901    1    3    3    0    0  0.74937776159E-01  0.71415622607E-01  0.89117582891E-01  0.89053793015E+00  0.88000000000E+00 0.  1.
        -11    1    4    4    0    0 -0.25844027720E-01 -0.20522970865E-01 -0.26822514611E-01  0.42530160039E-01  0.51100000000E-03 0. -1.
         11    1    4    4    0    0 -0.28986930872E-01 -0.61127991097E-01 -0.54873798253E-01  0.87110667043E-01  0.51100000000E-03 0.  1.
</event>
<event>
 8    1  0.1143957E+005  0.1043930E+01  0.7957747E-01            NaN
         13   -1    0    0    0    0  0.00000000000E+00  0.00000000000E+00  0.74505805969E-08  0.10566000000E+00  0.10566000000E+00 0. -1.
     999900   -1    0    0    0    0 -0.00000000000E+00 -0.00000000000E+00 -0.74505805969E-08  0.93827000000E+00  0.93827000000E+00 0.  1.
     999902    2    1    2    0    0  0.23910901225E-01 -0.48605782692E-02  0.15549961728E-02  0.10194805740E+01  0.10191873559E+01 0.  0.
     999903    2    3    3    0    0 -0.86860655779E-01 -0.51891061858E-01  0.76078424100E-01  0.12816921116E+00  0.20049046162E-01 0.  0.
         14    1    1    2    0    0 -0.23910901225E-01  0.48605782692E-02 -0.15549961728E-02  0.24449425998E-01  0.00000000000E+00 0. -1.
     999901    1    3    3    0    0  0.11077155700E+00  0.47030483588E-01 -0.74523427927E-01  0.89131136285E+00  0.88000000000E+00 0.  1.
        -11    1    4    4    0    0 -0.60518533329E-01 -0.41985412385E-01  0.63850165027E-01  0.97480112969E-01  0.51100000000E-03 0.  1.
         11    1    4    4    0    0 -0.26342122450E-01 -0.99056494722E-02  0.12228259073E-01  0.30689098188E-01  0.51100000000E-03 0. -1.
</event>
<event>
 8    1  0.1143957E+005  0.1043930E+01  0.7957747E-01            NaN
         13   -1    0    0    0    0  0.00000000000E+00  0.00000000000E+00  0.74505805969E-08  0.10566000000E+00  0.10566000000E+00 0. -1.
     999900   -1    0    0    0    0 -0.00000000000E+00 -0.00000000000E+00 -0.74505805969E-08  0.93827000000E+00  0.93827000000E+00 0.  1.
     999902    2    1    2    0    0 -0.13317830446E-01  0.18769271039E-01 -0.83144309192E-02  0.10194600203E+01  0.10191663030E+01 0.  0.
     999903    2    3    3    0    0  0.10025675851E+00  0.20056568801E-01 -0.77060044182E-01  0.12950114279E+00  0.19457954515E-01 0.  0.
         14    1    1    2    0    0  0.13317830446E-01 -0.18769271039E-01  0.83144309192E-02  0.24469979661E-01  0.00000000000E+00 0. -1.
     999901    1    3    3    0    0 -0.11357458896E+00 -0.12872977627E-02  0.68745613263E-01  0.88995887755E+00  0.88000000000E+00 0. -1.
        -11    1    4    4    0    0  0.12895561703E-01 -0.37166853835E-02 -0.80278131371E-02  0.15646602399E-01  0.51100000000E-03 0. -1.
         11    1    4    4    0    0  0.87361196810E-01  0.23773254185E-01 -0.69032231045E-01  0.11385454039E+00  0.51100000000E-03 0.  1.
</event>
<event>
 8    1  0.1143957E+005  0.1043930E+01  0.7957747E-01            NaN
         13   -1    0    0    0    0  0.00000000000E+00  0.00000000000E+00  0.74505805969E-08  0.10566000000E+00  0.10566000000E+00 0.  1.
     999900   -1    0    0    0    0 -0.00000000000E+00 -0.00000000000E+00 -0.74505805969E-08  0.93827000000E+00  0.93827000000E+00 0.  1.
     999902    2    1    2    0    0 -0.23015713929E-01 -0.62783252840E-02 -0.71488853000E-02  0.10190252411E+01  0.10187208621E+01 0.  0.
     999903    2    3    3    0    0 -0.94152843064E-01  0.86969417702E-01  0.16234518573E-01  0.13093604719E+00  0.21266202977E-01 0.  0.
         14    1    1    2    0    0  0.23015713929E-01  0.62783252840E-02  0.71488853000E-02  0.24904758924E-01  0.00000000000E+00 0.  1.
     999901    1    3    3    0    0  0.71137129136E-01 -0.93247742986E-01 -0.23383403873E-01  0.88808919388E+00  0.88000000000E+00 0.  1.
        -11    1    4    4    0    0 -0.18543260033E-01  0.11564944315E-01  0.98049655521E-02  0.23958274148E-01  0.51100000000E-03 0. -1.
         11    1    4    4    0    0 -0.75609583031E-01  0.75404473387E-01  0.64295530207E-02  0.10697777305E+00  0.51100000000E-03 0.  1.
</event>
<event>
 8    1  0.1143957E+005  0.1043930E+01  0.7957747E-01            NaN
         13   -1    0    0    0    0  0.00000000000E+00  0.00000000000E+00  0.74505805969E-08  0.10566000000E+00  0.10566000000E+00 0.  1.
     999900   -1    0    0    0    0 -0.00000000000E+00 -0.00000000000E+00 -0.74505805969E-08  0.93827000000E+00  0.93827000000E+00 0.  1.
     999902    2    1    2    0    0  0.66256993279E-02 -0.19539232748E-01 -0.11124066159E-01  0.10204901545E+01  0.10202209217E+01 0.  0.
     999903    2    3    3    0    0  0.11979134388E+00  0.27307055161E-01  0.39448550221E-01  0.13056958092E+00  0.19914467550E-01 0.  0.
         14    1    1    2    0    0 -0.66256993279E-02  0.19539232748E-01  0.11124066159E-01  0.23439845475E-01  0.00000000000E+00 0.  1.
     999901    1    3    3    0    0 -0.11316564455E+00 -0.46846287910E-01 -0.50572616380E-01  0.88992057360E+00  0.88000000000E+00 0. -1.
        -11    1    4    4    0    0  0.40405526969E-01  0.16385150298E-03  0.15934119600E-01  0.43437204622E-01  0.51100000000E-03 0. -1.
         11    1    4    4    0    0  0.79385816908E-01  0.27143203658E-01  0.23514430621E-01  0.87132376298E-01  0.51100000000E-03 0.  1.
</event>
<event>
 8    1  0.1143957E+005  0.1043930E+01  0.7957747E-01            NaN
         13   -1    0    0    0    0  0.00000000000E+00  0.00000000000E+00  0.74505805969E-08  0.10566000000E+00  0.10566000000E+00 0.  1.
     999900   -1    0    0    0    0 -0.00000000000E+00 -0.00000000000E+00 -0.74505805969E-08  0.93827000000E+00  0.93827000000E+00 0. -1.
     999902    2    1    2    0    0 -0.22055516452E-01  0.29762103712E-03  0.19669640587E-01  0.10143761653E+01  0.10139455486E+01 0.  0.
     999903    2    3    3    0    0 -0.68359163696E-01 -0.98323790230E-01  0.39122703086E-01  0.12744401900E+00  0.19257442618E-01 0.  0.
         14    1    1    2    0    0  0.22055516452E-01 -0.29762103712E-03 -0.19669640587E-01  0.29553834693E-01  0.00000000000E+00 0.  1.
     999901    1    3    3    0    0  0.46303647244E-01  0.98621411268E-01 -0.19453062500E-01  0.88693214630E+00  0.88000000000E+00 0. -1.
        -11    1    4    4    0    0 -0.50652666236E-01 -0.84096356091E-01  0.27660386675E-01  0.10199631276E+00  0.51100000000E-03 0. -1.
         11    1    4    4    0    0 -0.17706497460E-01 -0.14227434139E-01  0.11462316411E-01  0.25447706242E-01  0.51100000000E-03 0.  1.
</event>
<event>
 8    1  0.1143957E+005  0.1043930E+01  0.7957747E-01            NaN
         13   -1    0    0    0    0  0.00000000000E+00  0.00000000000E+00  0.74505805969E-08  0.10566000000E+00  0.10566000000E+00 0.  1.
     999900   -1    0    0    0    0 -0.00000000000E+00 -0.00000000000E+00 -0.74505805969E-08  0.93827000000E+00  0.93827000000E+00 0. -1.
     999902    2    1    2    0    0  0.50518693637E-02 -0.19718356183E-01  0.10253792659E-01  0.10211380010E+01  0.10208836084E+01 0.  0.
     999903    2    3    3    0    0  0.19593523126E-01 -0.10604174091E+00  0.77418872175E-01  0.13424774040E+00  0.20000426714E-01 0.  0.
         14    1    1    2    0    0 -0.50518693637E-02  0.19718356183E-01 -0.10253792659E-01  0.22791999002E-01  0.00000000000E+00 0.  1.
     999901    1    3    3    0    0 -0.14541653762E-01  0.86323384728E-01 -0.67165079516E-01  0.88689026060E+00  0.88000000000E+00 0.  1.
        -11    1    4    4    0    0  0.11238652086E-01 -0.86150444360E-01  0.53503322799E-01  0.10203466585E+00  0.51100000000E-03 0. -1.
         11    1    4    4    0    0  0.83548710400E-02 -0.19891296550E-01  0.23915549376E-01  0.32213074543E-01  0.51100000000E-03 0.  1.
</event>
<event>
 8    1  0.1143957E+005  0.1043930E+01  0.7957747E-01            NaN
         13   -1    0    0    0    0  0.00000000000E+00  0.00000000000E+00  0.74505805969E-08  0.10566000000E+00  0.10566000000E+00 0. -1.
     999900   -1    0    0    0    0 -0.00000000000E+00 -0.00000000000E+00 -0.74505805969E-08  0.93827000000E+00  0.93827000000E+00 0.  1.
     999902    2    1    2    0    0  0.49491047253E-02  0.21960097369E-01  0.98764872011E-02  0.10193478009E+01  0.10190513504E+01 0.  0.
     999903    2    3    3    0    0  0.19327573307E-01  0.12480218874E+00  0.38016492939E-01  0.13279543580E+00  0.15499439587E-01 0.  0.
         14    1    1    2    0    0 -0.49491047253E-02 -0.21960097369E-01 -0.98764872011E-02  0.24582199117E-01  0.00000000000E+00 0. -1.
     999901    1    3    3    0    0 -0.14378468582E-01 -0.10284209138E+00 -0.28140005738E-01  0.88655236509E+00  0.88000000000E+00 0.  1.
        -11    1    4    4    0    0  0.13956559189E-01  0.83538551021E-01  0.17879301150E-01  0.86564459114E-01  0.51100000000E-03 0. -1.
         11    1    4    4    0    0  0.53710141180E-02  0.41263637724E-01  0.20137191789E-01  0.46230976682E-01  0.51100000000E-03 0.  1.
</event>
<event>
 8    1  0.1436551E+005  0.1043930E+01  0.7957747E-01            NaN
         13   -1    0    0    0    0  0.00000000000E+00  0.00000000000E+00  0.74505805969E-08  0.10566000000E+00  0.10566000000E+00 0.  1.
     999900   -1    0    0    0    0 -0.00000000000E+00 -0.00000000000E+00 -0.74505805969E-08  0.93827000000E+00  0.93827000000E+00 0.  1.
     999902    2    1    2    0    0 -0.15272514233E-01 -0.22297286510E-01  0.23257159832E-01  0.10082745073E+01  0.10076438696E+01 0.  0.
     999903    2    3    3    0    0  0.19969904370E-01  0.11867294870E-02 -0.11258767772E+00  0.11684456222E+00  0.24009605127E-01 0.  0.
         14    1    1    2    0    0  0.15272514233E-01  0.22297286510E-01 -0.23257159832E-01  0.35655492706E-01  0.00000000000E+00 0. -1.
     999901    1    3    3    0    0 -0.35242418603E-01 -0.23484015997E-01  0.13584483756E+00  0.89142994507E+00  0.88000000000E+00 0. -1.
        -11    1    4    4    0    0  0.76836069556E-02  0.12045228092E-01 -0.63453751121E-01  0.65044330944E-01  0.51100000000E-03 0.  1.
         11    1    4    4    0    0  0.12286297415E-01 -0.10858498605E-01 -0.49133926604E-01  0.51800231280E-01  0.51100000000E-03 0. -1.
</event>
<event>
 8    1  0.1143957E+005  0.1043930E+01  0.7957747E-01            NaN
         13   -1    0    0    0    0  0.00000000000E+00  0.00000000000E+00  0.74505805969E-08  0.10566000000E+00  0.10566000000E+00 0.  1.
     999900   -1    0    0    0    0 -0.00000000000E+00 -0.00000000000E+00 -0.74505805969E-08  0.93827000000E+00  0.93827000000E+00 0. -1.
     999902    2    1    2    0    0 -0.18932758067E-01  0.36819413977E-02  0.85449941954E-02  0.10228344330E+01  0.10226168659E+01 0.  0.
     999903    2    3    3    0    0 -0.23230833906E-01 -0.50431347999E-01  0.11870834713E+00  0.13430605087E+00  0.29384538769E-01 0.  0.
         14    1    1    2    0    0  0.18932758067E-01 -0.36819413977E-02 -0.85449941954E-02  0.21095566981E-01  0.00000000000E+00 0.  1.
     999901    1    3    3    0    0  0.42980758395E-02  0.54113289397E-01 -0.11016335293E+00  0.88852838214E+00  0.88000000000E+00 0. -1.
        -11    1    4    4    0    0 -0.26081514418E-01 -0.39183135933E-01  0.70876079283E-01  0.85083742698E-01  0.51100000000E-03 0. -1.
         11    1    4    4    0    0  0.28506805114E-02 -0.11248212065E-01  0.47832267846E-01  0.49222308177E-01  0.51100000000E-03 0.  1.
</event>
<event>
 8    1  0.1143957E+005  0.1043930E+01  0.7957747E-01            NaN
         13   -1    0    0    0    0  0.00000000000E+00  0.00000000000E+00  0.74505805969E-08  0.10566000000E+00  0.10566000000E+00 0.  1.
     999900   -1    0    0    0    0 -0.00000000000E+00 -0.00000000000E+00 -0.74505805969E-08  0.93827000000E+00  0.93827000000E+00 0. -1.
     999902    2    1    2    0    0 -0.50121169860E-02  0.17833449489E-01 -0.14957355153E-01  0.10201208482E+01  0.10198429630E+01 0.  0.
     999903    2    3    3    0    0  0.81038037802E-01 -0.46126520021E-02  0.97025114664E-01  0.12857806729E+00  0.23021867478E-01 0.  0.
         14    1    1    2    0    0  0.50121169860E-02 -0.17833449489E-01  0.14957355153E-01  0.23809151824E-01  0.00000000000E+00 0.  1.
     999901    1    3    3    0    0 -0.86050154788E-01  0.22446101491E-01 -0.11198246982E+00  0.89154278089E+00  0.88000000000E+00 0. -1.
        -11    1    4    4    0    0  0.23972237691E-01  0.87097417166E-02  0.24923434547E-01  0.35664639228E-01  0.51100000000E-03 0.  1.
         11    1    4    4    0    0  0.57065800112E-01 -0.13322393719E-01  0.72101680117E-01  0.92913428058E-01  0.51100000000E-03 0. -1.
</event>
<event>
 8    1  0.1143957E+005  0.1043930E+01  0.7957747E-01            NaN
         13   -1    0    0    0    0  0.00000000000E+00  0.00000000000E+00  0.74505805969E-08  0.10566000000E+00  0.10566000000E+00 0.  1.
     999900   -1    0    0    0    0 -0.00000000000E+00 -0.00000000000E+00 -0.74505805969E-08  0.93827000000E+00  0.93827000000E+00 0.  1.
     999902    2    1    2    0    0  0.51898943821E-02  0.22303374572E-01  0.50009330303E-02  0.10204910399E+01  0.10202218276E+01 0.  0.
     999903    2    3    3    0    0  0.11273454872E+00 -0.48307483983E-01 -0.38405127558E-01  0.13007774700E+00  0.20064270635E-01 0.  0.
         14    1    1    2    0    0 -0.51898943821E-02 -0.22303374572E-01 -0.50009330303E-02  0.23438960134E-01  0.00000000000E+00 0. -1.
     999901    1    3    3    0    0 -0.10754465434E+00  0.70610858556E-01  0.43406060588E-01  0.89041329287E+00  0.88000000000E+00 0. -1.
        -11    1    4    4    0    0  0.99145738058E-02 -0.10870326077E-01 -0.65320326764E-02  0.16105630527E-01  0.51100000000E-03 0. -1.
         11    1    4    4    0    0  0.10281997492E+00 -0.37437157906E-01 -0.31873094881E-01  0.11397211647E+00  0.51100000000E-03 0.  1.
</event>
<event>
 8    1  0.1143957E+005  0.1043930E+01  0.7957747E-01            NaN
         13   -1    0    0    0    0  0.00000000000E+00  0.00000000000E+00  0.74505805969E-08  0.10566000000E+00  0.10566000000E+00 0. -1.
     999900   -1    0    0    0    0 -0.00000000000E+00 -0.00000000000E+00 -0.74505805969E-08  0.93827000000E+00  0.93827000000E+00 0.  1.
     999902    2    1    2    0    0 -0.16178222539E-01 -0.32786580937E-03 -0.21527208307E-01  0.10169992912E+01  0.10166426585E+01 0.  0.
     999903    2    3    3    0    0  0.10092381089E+00  0.23560672070E-02  0.70144186941E-01  0.12451750736E+00  0.19830179547E-01 0.  0.
         14    1    1    2    0    0  0.16178222539E-01  0.32786580937E-03  0.21527208307E-01  0.26930708829E-01  0.00000000000E+00 0. -1.
     999901    1    3    3    0    0 -0.11710203343E+00 -0.26839330163E-02 -0.91671395248E-01  0.89248178381E+00  0.88000000000E+00 0.  1.
        -11    1    4    4    0    0  0.57009320567E-01 -0.12366852574E-02  0.50888827314E-01  0.76429875626E-01  0.51100000000E-03 0.  1.
         11    1    4    4    0    0  0.43914490320E-01  0.35927524644E-02  0.19255359627E-01  0.48087631734E-01  0.51100000000E-03 0. -1.
</event>
<event>
 8    1  0.1143957E+005  0.1043930E+01  0.7957747E-01            NaN
         13   -1    0    0    0    0  0.00000000000E+00  0.00000000000E+00  0.74505805969E-08  0.10566000000E+00  0.10566000000E+00 0.  1.
     999900   -1    0    0    0    0 -0.00000000000E+00 -0.00000000000E+00 -0.74505805969E-08  0.93827000000E+00  0.93827000000E+00 0.  1.
     999902    2    1    2    0    0  0.62210170225E-02  0.16633733840E-01  0.15631783048E-01  0.10202712850E+01  0.10199969413E+01 0.  0.
     999903    2    3    3    0    0  0.80217843909E-02 -0.40642236427E-01  0.12350206973E+00  0.13183458029E+00  0.20284351726E-01 0.  0.
         14    1    1    2    0    0 -0.62210170225E-02 -0.16633733840E-01 -0.15631783048E-01  0.23658715001E-01  0.00000000000E+00 0. -1.
     999901    1    3    3    0    0 -0.18007673684E-02  0.57275970267E-01 -0.10787028668E+00  0.88843670471E+00  0.88000000000E+00 0.  1.
        -11    1    4    4    0    0  0.96274503692E-02 -0.58368439065E-02  0.29045646603E-01  0.31155533296E-01  0.51100000000E-03 0.  1.
         11    1    4    4    0    0 -0.16056659783E-02 -0.34805392521E-01  0.94456423127E-01  0.10067904699E+00  0.51100000000E-03 0. -1.
</event>
<event>
 8    1  0.1143957E+005  0.1043930E+01  0.7957747E-01            NaN
         13   -1    0    0    0    0  0.00000000000E+00  0.00000000000E+00  0.74505805969E-08  0.10566000000E+00  0.10566000000E+00 0. -1.
     999900   -1    0    0    0    0 -0.00000000000E+00 -0.00000000000E+00 -0.74505805969E-08  0.93827000000E+00  0.93827000000E+00 0.  1.
     999902    2    1    2    0    0  0.80121141876E-02 -0.18021364148E-01  0.11865229944E-01  0.10209137618E+01  0.10206542812E+01 0.  0.
     999903    2    3    3    0    0 -0.69902903842E-01 -0.35627362432E-01 -0.10163082633E+00  0.13003662324E+00  0.20614887935E-01 0.  0.
         14    1    1    2    0    0 -0.80121141876E-02  0.18021364148E-01 -0.11865229944E-01  0.23016238205E-01  0.00000000000E+00 0.  1.
     999901    1    3    3    0    0  0.77915018029E-01  0.17605998285E-01  0.11349605627E+00  0.89087713855E+00  0.88000000000E+00 0. -1.
        -11    1    4    4    0    0 -0.60657430040E-01 -0.37449798494E-01 -0.93520689370E-01  0.11759333182E+00  0.51100000000E-03 0.  1.
         11    1    4    4    0    0 -0.92454738021E-02  0.18224360619E-02 -0.81101369559E-02  0.12443291424E-01  0.51100000000E-03 0. -1.
</event>
<event>
 8    1  0.1143957E+005  0.1043930E+01  0.7957747E-01            NaN
         13   -1    0    0    0    0  0.00000000000E+00  0.00000000000E+00  0.74505805969E-08  0.10566000000E+00  0.10566000000E+00 0.  1.
     999900   -1    0    0    0    0 -0.00000000000E+00 -0.00000000000E+00 -0.74505805969E-08  0.93827000000E+00  0.93827000000E+00 0.  1.
     999902    2    1    2    0    0 -0.11685452070E-01 -0.10545791622E-01  0.17836325252E-01  0.10201413891E+01  0.10198639888E+01 0.  0.
     999903    2    3    3    0    0 -0.41501661893E-01  0.47189615771E-01 -0.11023761235E+00  0.12849946705E+00  0.20261640541E-01 0.  0.
         14    1    1    2    0    0  0.11685452070E-01  0.10545791622E-01 -0.17836325252E-01  0.23788610920E-01  0.00000000000E+00 0. -1.
     999901    1    3    3    0    0  0.29816209823E-01 -0.57735407393E-01  0.12807393760E+00  0.89164192203E+00  0.88000000000E+00 0. -1.
        -11    1    4    4    0    0 -0.14762165039E-01  0.18752758230E-01 -0.24062756052E-01  0.33894908286E-01  0.51100000000E-03 0.  1.
         11    1    4    4    0    0 -0.26739496854E-01  0.28436857541E-01 -0.86174856300E-01  0.94604558760E-01  0.51100000000E-03 0. -1.
</event>
<event>
 8    1  0.1143957E+005  0.1043930E+01  0.7957747E-01            NaN
         13   -1    0    0    0    0  0.00000000000E+00  0.00000000000E+00  0.74505805969E-08  0.10566000000E+00  0.10566000000E+00 0.  1.
     999900   -1    0    0    0    0 -0.00000000000E+00 -0.00000000000E+00 -0.74505805969E-08  0.93827000000E+00  0.93827000000E+00 0. -1.
     999902    2    1    2    0    0 -0.54385069690E-02  0.66361092698E-02 -0.21152492632E-01  0.10211036282E+01  0.10208484590E+01 0.  0.
     999903    2    3    3    0    0 -0.10368977345E+00  0.19020030149E-01  0.74131229697E-01  0.13043777583E+00  0.20130660256E-01 0.  0.
         14    1    1    2    0    0  0.54385069690E-02 -0.66361092698E-02  0.21152492632E-01  0.22826371784E-01  0.00000000000E+00 0.  1.
     999901    1    3    3    0    0  0.98251266482E-01 -0.12383920880E-01 -0.95283722330E-01  0.89066585238E+00  0.88000000000E+00 0. -1.
        -11    1    4    4    0    0 -0.54929367492E-01 -0.12774818433E-03  0.37315902991E-01  0.66407751579E-01  0.51100000000E-03 0. -1.
         11    1    4    4    0    0 -0.48760405958E-01  0.19147778334E-01  0.36815326706E-01  0.64030024253E-01  0.51100000000E-03 0.  1.
</event>
<event>
 8    1  0.1143957E+005  0.1043930E+01  0.7957747E-01            NaN
         13   -1    0    0    0    0  0.00000000000E+00  0.00000000000E+00  0.74505805969E-08  0.10566000000E+00  0.10566000000E+00 0.  1.
     999900   -1    0    0    0    0 -0.00000000000E+00 -0.00000000000E+00 -0.74505805969E-08  0.93827000000E+00  0.93827000000E+00 0.  1.
     999902    2    1    2    0    0 -0.54791749638E-02  0.18119554869E-01 -0.14437249803E-01  0.10201229882E+01  0.10198451536E+01 0.  0.
     999903    2    3    3    0    0  0.12736992243E+00  0.45123312802E-02  0.11732047256E-01  0.12966306701E+00  0.20770453529E-01 0.  0.
         14    1    1    2    0    0  0.54791749638E-02 -0.18119554869E-01  0.14437249803E-01  0.23807011757E-01  0.00000000000E+00 0.  1.
     999901    1    3    3    0    0 -0.13284909740E+00  0.13607223589E-01 -0.26169297059E-01  0.89045992123E+00  0.88000000000E+00 0.  1.
        -11    1    4    4    0    0  0.79402616071E-01  0.37962725539E-02 -0.27716940364E-02  0.79543262021E-01  0.51100000000E-03 0. -1.
         11    1    4    4    0    0  0.47967306361E-01  0.71605872622E-03  0.14503741292E-01  0.50119804989E-01  0.51100000000E-03 0.  1.
</event>
<event>
 7    1  0.1143957E+005  0.1043930E+01  0.7957747E-01            NaN
         13   -1    0    0    0    0  0.00000000000E+00  0.00000000000E+00  0.74505805969E-08  0.10566000000E+00  0.10566000000E+00 0.  1.
     999900   -1    0    0    0    0 -0.00000000000E+00 -0.00000000000E+00 -0.74505805969E-08  0.93827000000E+00  0.93827000000E+00 0. -1.
     999903    2    1    2    0    0  0.29862887024E-01 -0.95156934166E-01  0.41797182284E-01  0.10993096118E+00  0.19778211161E-01 0.  0.
         14    1    1    2    0    0 -0.14819413853E-01 -0.23818163349E-02  0.41927279302E-01  0.44532963360E-01  0.00000000000E+00 0.  1.
     999901    1    1    2    0    0 -0.15043473171E-01  0.97538750501E-01 -0.83724461586E-01  0.88946607546E+00  0.88000000000E+00 0. -1.
        -11    1    3    3    0    0  0.61565628222E-03 -0.21900927497E-01  0.33167742400E-02  0.22165102532E-01  0.51100000000E-03 0.  1.
         11    1    3    3    0    0  0.29247230742E-01 -0.73256006669E-01  0.38480408044E-01  0.87765858643E-01  0.51100000000E-03 0. -1.
</event>
<event>
 8    1  0.1143957E+005  0.1043930E+01  0.7957747E-01            NaN
         13   -1    0    0    0    0  0.00000000000E+00  0.00000000000E+00  0.74505805969E-08  0.10566000000E+00  0.10566000000E+00 0. -1.
     999900   -1    0    0    0    0 -0.00000000000E+00 -0.00000000000E+00 -0.74505805969E-08  0.93827000000E+00  0.93827000000E+00 0. -1.
     999902    2    1    2    0    0  0.11153127536E-01  0.16708576855E-01 -0.12621926422E-01  0.10202048694E+01  0.10199289651E+01 0.  0.
     999903    2    3    3    0    0  0.65366592954E-01 -0.78752907093E-01 -0.79074423231E-01  0.13089731346E+00  0.20162599358E-01 0.  0.
         14    1    1    2    0    0 -0.11153127536E-01 -0.16708576855E-01  0.12621926422E-01  0.23725130579E-01  0.00000000000E+00 0. -1.
     999901    1    3    3    0    0 -0.54213465418E-01  0.95461483948E-01  0.66452496808E-01  0.88930755596E+00  0.88000000000E+00 0.  1.
        -11    1    4    4    0    0  0.30746829830E-01 -0.49116157120E-01 -0.36209997643E-01  0.68331467752E-01  0.51100000000E-03 0.  1.
         11    1    4    4    0    0  0.34619763125E-01 -0.29636749973E-01 -0.42864425587E-01  0.62565845712E-01  0.51100000000E-03 0. -1.
</event>
<event>
 8    1  0.1143957E+005  0.1043930E+01  0.7957747E-01            NaN
         13   -1    0    0    0    0  0.00000000000E+00  0.00000000000E+00  0.74505805969E-08  0.10566000000E+00  0.10566000000E+00 0. -1.
     999900   -1    0    0    0    0 -0.00000000000E+00 -0.00000000000E+00 -0.74505805969E-08  0.93827000000E+00  0.93827000000E+00 0. -1.
     999902    2    1    2    0    0 -0.17682428709E-02 -0.18884308736E-01  0.15597147526E-01  0.10193736401E+01  0.10190778201E+01 0.  0.
     999903    2    3    3    0    0  0.38546364429E-01 -0.83507668372E-01 -0.89570266869E-01  0.12984475851E+00  0.19428734357E-01 0.  0.
         14    1    1    2    0    0  0.17682428709E-02  0.18884308736E-01 -0.15597147526E-01  0.24556359874E-01  0.00000000000E+00 0.  1.
     999901    1    3    3    0    0 -0.40314607300E-01  0.64623359636E-01  0.10516741440E+00  0.88952888161E+00  0.88000000000E+00 0.  1.
        -11    1    4    4    0    0  0.30598991498E-01 -0.53448579433E-01 -0.48859901713E-01  0.78616792357E-01  0.51100000000E-03 0. -1.
         11    1    4    4    0    0  0.79473729310E-02 -0.30059088939E-01 -0.40710365156E-01  0.51227966156E-01  0.51100000000E-03 0.  1.
</event>
<event>
 8    1  0.1143957E+005  0.1043930E+01  0.7957747E-01            NaN
         13   -1    0    0    0    0  0.00000000000E+00  0.00000000000E+00  0.74505805969E-08  0.10566000000E+00  0.10566000000E+00 0.  1.
     999900   -1    0    0    0    0 -0.00000000000E+00 -0.00000000000E+00 -0.74505805969E-08  0.93827000000E+00  0.93827000000E+00 0. -1.
     999902    2    1    2    0    0 -0.13653085443E-01 -0.82180543925E-02 -0.18159513730E-01  0.10197698862E+01  0.10194836486E+01 0.  0.
     999903    2    3    3    0    0 -0.21207051946E-01  0.96329879956E-01 -0.84141838213E-01  0.13109615522E+00  0.19420817447E-01 0.  0.
         14    1    1    2    0    0  0.13653085443E-01  0.82180543925E-02  0.18159513730E-01  0.24160113804E-01  0.00000000000E+00 0.  1.
     999901    1    3    3    0    0  0.75539665031E-02 -0.10454793435E+00  0.65982324483E-01  0.88867373098E+00  0.88000000000E+00 0. -1.
        -11    1    4    4    0    0  0.26050631592E-02  0.28280725170E-01 -0.25194390458E-01  0.37968463252E-01  0.51100000000E-03 0. -1.
         11    1    4    4    0    0 -0.23812115105E-01  0.68049154787E-01 -0.58947447756E-01  0.93127691966E-01  0.51100000000E-03 0.  1.
</event>
<event>
 8    1  0.1143957E+005  0.1043930E+01  0.7957747E-01            NaN
         13   -1    0    0    0    0  0.00000000000E+00  0.00000000000E+00  0.74505805969E-08  0.10566000000E+00  0.10566000000E+00 0.  1.
     999900   -1    0    0    0    0 -0.00000000000E+00 -0.00000000000E+00 -0.74505805969E-08  0.93827000000E+00  0.93827000000E+00 0. -1.
     999902    2    1    2    0    0 -0.11862828053E-01 -0.10686735329E-01 -0.86270942129E-03  0.10279400885E+01  0.10278157171E+01 0.  0.
     999903    2    3    3    0    0  0.77340523189E-03 -0.93849994745E-01  0.99706420507E-01  0.13822667849E+00  0.18889803759E-01 0.  0.
         14    1    1    2    0    0  0.11862828053E-01  0.10686735329E-01  0.86270942129E-03  0.15989911474E-01  0.00000000000E+00 0. -1.
     999901    1    3    3    0    0 -0.12636233285E-01  0.83163259415E-01 -0.10056912993E+00  0.88971341004E+00  0.88000000000E+00 0. -1.
        -11    1    4    4    0    0  0.24402855279E-02 -0.82672566630E-01  0.95037532819E-01  0.12598849960E+00  0.51100000000E-03 0.  1.
         11    1    4    4    0    0 -0.16668802960E-02 -0.11177428114E-01  0.46688876873E-02  0.12238178884E-01  0.51100000000E-03 0. -1.
</event>
<event>
 8    1  0.1143957E+005  0.1043930E+01  0.7957747E-01            NaN
         13   -1    0    0    0    0  0.00000000000E+00  0.00000000000E+00  0.74505805969E-08  0.10566000000E+00  0.10566000000E+00 0.  1.
     999900   -1    0    0    0    0 -0.00000000000E+00 -0.00000000000E+00 -0.74505805969E-08  0.93827000000E+00  0.93827000000E+00 0. -1.
     999902    2    1    2    0    0 -0.21791115390E-02  0.71503515646E-02  0.20985934040E-01  0.10216525342E+01  0.10214096216E+01 0.  0.
     999903    2    3    3    0    0 -0.12790681554E+00  0.86952964696E-02  0.28007738550E-01  0.13268732221E+00  0.19640020726E-01 0.  0.
         14    1    1    2    0    0  0.21791115390E-02 -0.71503515646E-02 -0.20985934040E-01  0.22277465793E-01  0.00000000000E+00 0. -1.
     999901    1    3    3    0    0  0.12572770400E+00 -0.15449449050E-02 -0.70218045094E-02  0.88896521200E+00  0.88000000000E+00 0.  1.
        -11    1    4    4    0    0 -0.34013250622E-01  0.42801433669E-02  0.16298502659E-01  0.37962127904E-01  0.51100000000E-03 0. -1.
         11    1    4    4    0    0 -0.93893564916E-01  0.44151531028E-02  0.11709235891E-01  0.94725194303E-01  0.51100000000E-03 0.  1.
</event>
<event>
 8    1  0.1143957E+005  0.1043930E+01  0.7957747E-01            NaN
         13   -1    0    0    0    0  0.00000000000E+00  0.00000000000E+00  0.74505805969E-08  0.10566000000E+00  0.10566000000E+00 0.  1.
     999900   -1    0    0    0    0 -0.00000000000E+00 -0.00000000000E+00 -0.74505805969E-08  0.93827000000E+00  0.93827000000E+00 0. -1.
     999902    2    1    2    0    0  0.21579508830E-01  0.27968836313E-02  0.95902083939E-02  0.10201503899E+01  0.10198732020E+01 0.  0.
     999903    2    3    3    0    0  0.27529951358E-01 -0.12520566581E+00 -0.14306005894E-01  0.13054874338E+00  0.20098647296E-01 0.  0.
         14    1    1    2    0    0 -0.21579508830E-01 -0.27968836313E-02 -0.95902083939E-02  0.23779610098E-01  0.00000000000E+00 0.  1.
     999901    1    3    3    0    0 -0.59504425283E-02  0.12800254944E+00  0.23896214288E-01  0.88960164652E+00  0.88000000000E+00 0. -1.
        -11    1    4    4    0    0  0.38688788410E-02 -0.86243296974E-02  0.38362530405E-02  0.10213973008E-01  0.51100000000E-03 0. -1.
         11    1    4    4    0    0  0.23661072517E-01 -0.11658133611E+00 -0.18142258935E-01  0.12033477038E+00  0.51100000000E-03 0.  1.
</event>
<event>
 8    1  0.1143957E+005  0.1043930E+01  0.7957747E-01            NaN
         13   -1    0    0    0    0  0.00000000000E+00  0.00000000000E+00  0.74505805969E-08  0.10566000000E+00  0.10566000000E+00 0.  1.
     999900   -1    0    0    0    0 -0.00000000000E+00 -0.00000000000E+00 -0.74505805969E-08  0.93827000000E+00  0.93827000000E+00 0. -1.
     999902    2    1    2    0    0  0.16875996055E-01  0.13862556345E-01 -0.76551520532E-02  0.10207875916E+01  0.10205252257E+01 0.  0.
     999903    2    3    3    0    0  0.11791758136E+00 -0.54037502514E-01  0.15585772150E-01  0.13210319294E+00  0.19589017807E-01 0.  0.
         14    1    1    2    0    0 -0.16875996055E-01 -0.13862556345E-01  0.76551520532E-02  0.23142408350E-01  0.00000000000E+00 0. -1.
     999901    1    3    3    0    0 -0.10104158531E+00  0.67900058859E-01 -0.23240924203E-01  0.88868439871E+00  0.88000000000E+00 0.  1.
        -11    1    4    4    0    0  0.82340614342E-01 -0.29920685232E-01  0.16301199382E-01  0.89113491668E-01  0.51100000000E-03 0.  1.
         11    1    4    4    0    0  0.35576967021E-01 -0.24116817282E-01 -0.71542723219E-03  0.42989701271E-01  0.51100000000E-03 0. -1.
</event>
<event>
 8    1  0.1143957E+005  0.1043930E+01  0.7957747E-01            NaN
         13   -1    0    0    0    0  0.00000000000E+00  0.00000000000E+00  0.74505805969E-08  0.10566000000E+00  0.10566000000E+00 0. -1.
     999900   -1    0    0    0    0 -0.00000000000E+00 -0.00000000000E+00 -0.74505805969E-08  0.93827000000E+00  0.93827000000E+00 0.  1.
     999902    2    1    2    0    0  0.66054881972E-02  0.22088461414E-01  0.48519750916E-02  0.10203699859E+01  0.10200979531E+01 0.  0.
     999903    2    3    3    0    0  0.10776132963E+00  0.35769110342E-01  0.65155098281E-01  0.13241946303E+00  0.19944772200E-01 0.  0.
         14    1    1    2    0    0 -0.66054881972E-02 -0.22088461414E-01 -0.48519750916E-02  0.23560014097E-01  0.00000000000E+00 0.  1.
     999901    1    3    3    0    0 -0.10115584143E+00 -0.13680648929E-01 -0.60303123189E-01  0.88795052288E+00  0.88000000000E+00 0.  1.
        -11    1    4    4    0    0  0.25623819688E-01  0.17448334709E-01  0.14903777303E-01  0.34400700842E-01  0.51100000000E-03 0. -1.
         11    1    4    4    0    0  0.82137509941E-01  0.18320775633E-01  0.50251320978E-01  0.98018762184E-01  0.51100000000E-03 0.  1.
</event>
<event>
 8    1  0.1143957E+005  0.1043930E+01  0.7957747E-01            NaN
         13   -1    0    0    0    0  0.00000000000E+00  0.00000000000E+00  0.74505805969E-08  0.10566000000E+00  0.10566000000E+00 0.  1.
     999900   -1    0    0    0    0 -0.00000000000E+00 -0.00000000000E+00 -0.74505805969E-08  0.93827000000E+00  0.93827000000E+00 0.  1.
     999902    2    1    2    0    0 -0.23284829198E-01 -0.18143029575E-01  0.10775859428E-01  0.10125059338E+01  0.10120181787E+01 0.  0.
     999903    2    3    3    0    0 -0.94894655582E-01  0.70670641168E-01  0.35502191001E-01  0.12479695733E+00  0.17735270311E-01 0.  0.
         14    1    1    2    0    0  0.23284829198E-01  0.18143029575E-01 -0.10775859428E-01  0.31424066245E-01  0.00000000000E+00 0.  1.
     999901    1    3    3    0    0  0.71609826384E-01 -0.88813670743E-01 -0.24726331572E-01  0.88770897642E+00  0.88000000000E+00 0.  1.
        -11    1    4    4    0    0 -0.35245581790E-02  0.82399807025E-02  0.25496183912E-02  0.93317451356E-02  0.51100000000E-03 0. -1.
         11    1    4    4    0    0 -0.91370097403E-01  0.62430660465E-01  0.32952572609E-01  0.11546521220E+00  0.51100000000E-03 0.  1.
</event>
<event>
 8    1  0.1143957E+005  0.1043930E+01  0.7957747E-01            NaN
         13   -1    0    0    0    0  0.00000000000E+00  0.00000000000E+00  0.74505805969E-08  0.10566000000E+00  0.10566000000E+00 0. -1.
     999900   -1    0    0    0    0 -0.00000000000E+00 -0.00000000000E+00 -0.74505805969E-08  0.93827000000E+00  0.93827000000E+00 0.  1.
     999902    2    1    2    0    0 -0.15261155066E-01 -0.88191538234E-02 -0.16088365476E-01  0.10200654692E+01  0.10197862745E+01 0.  0.
     999903    2    3    3    0    0 -0.12878150019E+00  0.17735112702E-01  0.11108646966E-01  0.13195980242E+00  0.19768115836E-01 0.  0.
         14    1    1    2    0    0  0.15261155066E-01  0.88191538234E-02  0.16088365476E-01  0.23864530832E-01  0.00000000000E+00 0. -1.
     999901    1    3    3    0    0  0.11352034512E+00 -0.26554266525E-01 -0.27197012443E-01  0.88810566675E+00  0.88000000000E+00 0.  1.
        -11    1    4    4    0    0 -0.67007277171E-01  0.16483580166E-02 -0.73698900860E-03  0.67033547957E-01  0.51100000000E-03 0.  1.
         11    1    4    4    0    0 -0.61774223017E-01  0.16086754685E-01  0.11845635975E-01  0.64926254461E-01  0.51100000000E-03 0. -1.
</event>
<event>
 8    1  0.1143957E+005  0.1043930E+01  0.7957747E-01            NaN
         13   -1    0    0    0    0  0.00000000000E+00  0.00000000000E+00  0.74505805969E-08  0.10566000000E+00  0.10566000000E+00 0.  1.
     999900   -1    0    0    0    0 -0.00000000000E+00 -0.00000000000E+00 -0.74505805969E-08  0.93827000000E+00  0.93827000000E+00 0. -1.
     999902    2    1    2    0    0 -0.13664059126E-01 -0.41290329129E-02 -0.19394135317E-01  0.10198491381E+01  0.10195647976E+01 0.  0.
     999903    2    3    3    0    0  0.28899506800E-01 -0.94314675498E-01 -0.84993732085E-01  0.13179034818E+00  0.20354898009E-01 0.  0.
         14    1    1    2    0    0  0.13664059126E-01  0.41290329129E-02  0.19394135317E-01  0.24080861888E-01  0.00000000000E+00 0.  1.
     999901    1    3    3    0    0 -0.42563565926E-01  0.90185642585E-01  0.65599596769E-01  0.88805878993E+00  0.88000000000E+00 0. -1.
        -11    1    4    4    0    0  0.97191794788E-02 -0.11514272922E-01 -0.18568117612E-01  0.23918132104E-01  0.51100000000E-03 0. -1.
         11    1    4    4    0    0  0.19180327321E-01 -0.82800402576E-01 -0.66425614473E-01  0.10787221608E+00  0.51100000000E-03 0.  1.
</event>
<event>
 8    1  0.1143957E+005  0.1043930E+01  0.7957747E-01            NaN
         13   -1    0    0    0    0  0.00000000000E+00  0.00000000000E+00  0.74505805969E-08  0.10566000000E+00  0.10566000000E+00 0.  1.
     999900   -1    0    0    0    0 -0.00000000000E+00 -0.00000000000E+00 -0.74505805969E-08  0.93827000000E+00  0.93827000000E+00 0. -1.
     999902    2    1    2    0    0  0.18637917053E-01  0.31480370443E-02 -0.13303148719E-01  0.10208160247E+01  0.10205543104E+01 0.  0.
     999903    2    3    3    0    0  0.56742169589E-01  0.85877845330E-01 -0.82422577981E-01  0.13341890346E+00  0.20308725023E-01 0.  0.
         14    1    1    2    0    0 -0.18637917053E-01 -0.31480370443E-02  0.13303148719E-01  0.23113975321E-01  0.00000000000E+00 0.  1.
     999901    1    3    3    0    0 -0.38104252536E-01 -0.82729808286E-01  0.69119429261E-01  0.88739712122E+00  0.88000000000E+00 0.  1.
        -11    1    4    4    0    0  0.39092974595E-01  0.48242297040E-01 -0.59237565088E-01  0.85819171081E-01  0.51100000000E-03 0.  1.
         11    1    4    4    0    0  0.17649194994E-01  0.37635548290E-01 -0.23185012892E-01  0.47599732382E-01  0.51100000000E-03 0. -1.
</event>
<event>
 8    1  0.1143957E+005  0.1043930E+01  0.7957747E-01            NaN
         13   -1    0    0    0    0  0.00000000000E+00  0.00000000000E+00  0.74505805969E-08  0.10566000000E+00  0.10566000000E+00 0.  1.
     999900   -1    0    0    0    0 -0.00000000000E+00 -0.00000000000E+00 -0.74505805969E-08  0.93827000000E+00  0.93827000000E+00 0. -1.
     999902    2    1    2    0    0  0.12638562089E-01 -0.10577904790E-01 -0.16503420831E-01  0.10206064449E+01  0.10203399077E+01 0.  0.
     999903    2    3    3    0    0 -0.57143292205E-01  0.55441255317E-01 -0.10237227464E+00  0.13122379572E+00  0.20012828708E-01 0.  0.
         14    1    1    2    0    0 -0.12638562089E-01  0.10577904790E-01  0.16503420831E-01  0.23323555058E-01  0.00000000000E+00 0.  1.
     999901    1    3    3    0    0  0.69781854294E-01 -0.66019160106E-01  0.85868853805E-01  0.88938264923E+00  0.88000000000E+00 0.  1.
        -11    1    4    4    0    0 -0.32498244567E-01  0.19646048230E-01 -0.39543131068E-01  0.54827214471E-01  0.51100000000E-03 0.  1.
         11    1    4    4    0    0 -0.24645047638E-01  0.35795207086E-01 -0.62829143568E-01  0.76396581245E-01  0.51100000000E-03 0. -1.
</event>
<event>
 8    1  0.1143957E+005  0.1043930E+01  0.7957747E-01            NaN
         13   -1    0    0    0    0  0.00000000000E+00  0.00000000000E+00  0.74505805969E-08  0.10566000000E+00  0.10566000000E+00 0. -1.
     999900   -1    0    0    0    0 -0.00000000000E+00 -0.00000000000E+00 -0.74505805969E-08  0.93827000000E+00  0.93827000000E+00 0. -1.
     999902    2    1    2    0    0  0.60799827596E-02  0.22651801871E-01 -0.17161048166E-02  0.10204137219E+01  0.10201427099E+01 0.  0.
     999903    2    3    3    0    0  0.11386699937E+00  0.39482247696E-01 -0.50699715335E-01  0.13232549492E+00  0.20372384328E-01 0.  0.
         14    1    1    2    0    0 -0.60799827596E-02 -0.22651801871E-01  0.17161048166E-02  0.23516278067E-01  0.00000000000E+00 0.  1.
     999901    1    3    3    0    0 -0.10778701661E+00 -0.16830445825E-01  0.48983610519E-01  0.88808822701E+00  0.88000000000E+00 0.  1.
        -11    1    4    4    0    0  0.12539136194E-01  0.14993576595E-02 -0.11918549815E-01  0.17372131722E-01  0.51100000000E-03 0. -1.
         11    1    4    4    0    0  0.10132786317E+00  0.37982890036E-01 -0.38781165520E-01  0.11495336320E+00  0.51100000000E-03 0.  1.
</event>
<event>
 8    1  0.1143957E+005  0.1043930E+01  0.7957747E-01            NaN
         13   -1    0    0    0    0  0.00000000000E+00  0.00000000000E+00  0.74505805969E-08  0.10566000000E+00  0.10566000000E+00 0.  1.
     999900   -1    0    0    0    0 -0.00000000000E+00 -0.00000000000E+00 -0.74505805969E-08  0.93827000000E+00  0.93827000000E+00 0.  1.
     999902    2    1    2    0    0  0.18851923659E-01  0.64579089786E-02  0.13393124506E-01  0.10199200979E+01  0.10196374506E+01 0.  0.
     999903    2    3    3    0    0 -0.74827131450E-01 -0.50776773683E-01  0.90710417124E-01  0.12973498346E+00  0.20625368151E-01 0.  0.
         14    1    1    2    0    0 -0.18851923659E-01 -0.64579089786E-02 -0.13393124506E-01  0.24009902083E-01  0.00000000000E+00 0. -1.
     999901    1    3    3    0    0  0.93679055109E-01  0.57234682661E-01 -0.77317292619E-01  0.89018511446E+00  0.88000000000E+00 0.  1.
        -11    1    4    4    0    0 -0.41408896313E-01 -0.16927593818E-01  0.50314793472E-01  0.67328149310E-01  0.51100000000E-03 0.  1.
         11    1    4    4    0    0 -0.33418235137E-01 -0.33849179865E-01  0.40395623653E-01  0.62406834149E-01  0.51100000000E-03 0. -1.
</event>
<event>
 8    1  0.1143957E+005  0.1043930E+01  0.7957747E-01            NaN
         13   -1    0    0    0    0  0.00000000000E+00  0.00000000000E+00  0.74505805969E-08  0.10566000000E+00  0.10566000000E+00 0. -1.
     999900   -1    0    0    0    0 -0.00000000000E+00 -0.00000000000E+00 -0.74505805969E-08  0.93827000000E+00  0.93827000000E+00 0.  1.
     999902    2    1    2    0    0  0.19174291342E-01  0.58320682392E-02  0.12615431023E-01  0.10202484551E+01  0.10199735754E+01 0.  0.
     999903    2    3    3    0    0  0.78875127576E-01 -0.54294260821E-01  0.90258853150E-01  0.13277571396E+00  0.17708109340E-01 0.  0.
         14    1    1    2    0    0 -0.19174291342E-01 -0.58320682392E-02 -0.12615431023E-01  0.23681544889E-01  0.00000000000E+00 0.  1.
     999901    1    3    3    0    0 -0.59700836234E-01  0.60126329060E-01 -0.77643422126E-01  0.88747274115E+00  0.88000000000E+00 0.  1.
        -11    1    4    4    0    0  0.14510714311E-01 -0.11502647232E-01  0.27776137178E-01  0.33386324157E-01  0.51100000000E-03 0. -1.
         11    1    4    4    0    0  0.64364413265E-01 -0.42791613589E-01  0.62482715972E-01  0.99389389799E-01  0.51100000000E-03 0.  1.
</event>
<event>
 8    1  0.1143957E+005  0.1043930E+01  0.7957747E-01            NaN
         13   -1    0    0    0    0  0.00000000000E+00  0.00000000000E+00  0.74505805969E-08  0.10566000000E+00  0.10566000000E+00 0.  1.
     999900   -1    0    0    0    0 -0.00000000000E+00 -0.00000000000E+00 -0.74505805969E-08  0.93827000000E+00  0.93827000000E+00 0. -1.
     999902    2    1    2    0    0  0.87008692097E-02 -0.17513069665E-01  0.59790744250E-02  0.10234809887E+01  0.10232766840E+01 0.  0.
     999903    2    3    3    0    0 -0.55136523710E-01 -0.49097620123E-02 -0.11855996607E+00  0.13233339779E+00  0.19786879653E-01 0.  0.
         14    1    1    2    0    0 -0.87008692097E-02  0.17513069665E-01 -0.59790744250E-02  0.20449011347E-01  0.00000000000E+00 0. -1.
     999901    1    3    3    0    0  0.63837392920E-01 -0.12603307652E-01  0.12453904049E+00  0.89114759087E+00  0.88000000000E+00 0.  1.
        -11    1    4    4    0    0 -0.30183235364E-01 -0.11530856080E-01 -0.56016505021E-01  0.64669144843E-01  0.51100000000E-03 0.  1.
         11    1    4    4    0    0 -0.24953288347E-01  0.66210940680E-02 -0.62543461046E-01  0.67664252945E-01  0.51100000000E-03 0. -1.
</event>
<event>
 8    1  0.1143957E+005  0.1043930E+01  0.7957747E-01            NaN
         13   -1    0    0    0    0  0.00000000000E+00  0.00000000000E+00  0.74505805969E-08  0.10566000000E+00  0.10566000000E+00 0.  1.
     999900   -1    0    0    0    0 -0.00000000000E+00 -0.00000000000E+00 -0.74505805969E-08  0.93827000000E+00  0.93827000000E+00 0. -1.
     999902    2    1    2    0    0 -0.15004934842E-02 -0.11147252330E-01  0.20706114322E-01  0.10203661318E+01  0.10200940089E+01 0.  0.
     999903    2    3    3    0    0 -0.10451832409E+00 -0.11953591799E-01 -0.72755061370E-01  0.12944059338E+00  0.19864537089E-01 0.  0.
         14    1    1    2    0    0  0.15004934842E-02  0.11147252330E-01 -0.20706114322E-01  0.23563868220E-01  0.00000000000E+00 0. -1.
     999901    1    3    3    0    0  0.10301783060E+00  0.80633946883E-03  0.93461175692E-01  0.89092553840E+00  0.88000000000E+00 0.  1.
        -11    1    4    4    0    0 -0.52981930914E-01 -0.10912644928E-01 -0.47708167348E-01  0.72128365956E-01  0.51100000000E-03 0.  1.
         11    1    4    4    0    0 -0.51536393172E-01 -0.10409468709E-02 -0.25046894022E-01  0.57312227428E-01  0.51100000000E-03 0. -1.
</event>
<event>
 8    1  0.1143957E+005  0.1043930E+01  0.7957747E-01            NaN
         13   -1    0    0    0    0  0.00000000000E+00  0.00000000000E+00  0.74505805969E-08  0.10566000000E+00  0.10566000000E+00 0.  1.
     999900   -1    0    0    0    0 -0.00000000000E+00 -0.00000000000E+00 -0.74505805969E-08  0.93827000000E+00  0.93827000000E+00 0.  1.
     999902    2    1    2    0    0 -0.12270320538E-01  0.22579169852E-02  0.22447891230E-01  0.10182479678E+01  0.10179240430E+01 0.  0.
     999903    2    3    3    0    0  0.95193052776E-01 -0.76131677190E-01 -0.29015804970E-01  0.12676503637E+00  0.19227790791E-01 0.  0.
         14    1    1    2    0    0  0.12270320538E-01 -0.22579169852E-02 -0.22447891230E-01  0.25682032160E-01  0.00000000000E+00 0. -1.
     999901    1    3    3    0    0 -0.10746337331E+00  0.78389594175E-01  0.51463696200E-01  0.89148293147E+00  0.88000000000E+00 0. -1.
        -11    1    4    4    0    0  0.51665022680E-01 -0.44679219316E-01 -0.25619577495E-01  0.72952937427E-01  0.51100000000E-03 0. -1.
         11    1    4    4    0    0  0.43528030097E-01 -0.31452457874E-01 -0.33962274755E-02  0.53812098941E-01  0.51100000000E-03 0.  1.
</event>
<event>
 8    1  0.1143957E+005  0.1043930E+01  0.7957747E-01            NaN
         13   -1    0    0    0    0  0.00000000000E+00  0.00000000000E+00  0.74505805969E-08  0.10566000000E+00  0.10566000000E+00 0. -1.
     999900   -1    0    0    0    0 -0.00000000000E+00 -0.00000000000E+00 -0.74505805969E-08  0.93827000000E+00  0.93827000000E+00 0.  1.
     999902    2    1    2    0    0 -0.83530640419E-02 -0.80262863615E-02  0.19563021117E-01  0.10211944167E+01  0.10209412961E+01 0.  0.
     999903    2    3    3    0    0 -0.37306078915E-01 -0.10856192155E+00  0.65772399517E-01  0.13379315593E+00  0.19929016539E-01 0.  0.
         14    1    1    2    0    0  0.83530640419E-02  0.80262863615E-02 -0.19563021117E-01  0.22735583275E-01  0.00000000000E+00 0.  1.
     999901    1    3    3    0    0  0.28953014873E-01  0.10053563519E+00 -0.46209378400E-01  0.88740126080E+00  0.88000000000E+00 0.  1.
        -11    1    4    4    0    0 -0.61188406803E-02 -0.29796239065E-01  0.26794585264E-01  0.40539696522E-01  0.51100000000E-03 0.  1.
         11    1    4    4    0    0 -0.31187238234E-01 -0.78765682485E-01  0.38977814253E-01  0.93253459405E-01  0.51100000000E-03 0. -1.
</event>
<event>
 8    1  0.1143957E+005  0.1043930E+01  0.7957747E-01            NaN
         13   -1    0    0    0    0  0.00000000000E+00  0.00000000000E+00  0.74505805969E-08  0.10566000000E+00  0.10566000000E+00 0. -1.
     999900   -1    0    0    0    0 -0.00000000000E+00 -0.00000000000E+00 -0.74505805969E-08  0.93827000000E+00  0.93827000000E+00 0. -1.
     999902    2    1    2    0    0 -0.16771201647E-01 -0.24538329640E-03 -0.17344986493E-01  0.10198015526E+01  0.10195160738E+01 0.  0.
     999903    2    3    3    0    0  0.12492417931E+00 -0.66660615963E-02  0.14303371412E-01  0.12788203568E+00  0.22332524773E-01 0.  0.
         14    1    1    2    0    0  0.16771201647E-01  0.24538329640E-03  0.17344986493E-01  0.24128447403E-01  0.00000000000E+00 0. -1.
     999901    1    3    3    0    0 -0.14169538096E+00  0.64206782999E-02 -0.31648357905E-01  0.89191951691E+00  0.88000000000E+00 0. -1.
        -11    1    4    4    0    0  0.98492671600E-01 -0.13415304930E-01  0.70668339389E-02  0.99654292573E-01  0.51100000000E-03 0. -1.
         11    1    4    4    0    0  0.26431507711E-01  0.67492433333E-02  0.72365374728E-02  0.28227743109E-01  0.51100000000E-03 0.  1.
</event>
<event>
 8    1  0.1143957E+005  0.1043930E+01  0.7957747E-01            NaN
         13   -1    0    0    0    0  0.00000000000E+00  0.00000000000E+00  0.74505805969E-08  0.10566000000E+00  0.10566000000E+00 0.  1.
     999900   -1    0    0    0    0 -0.00000000000E+00 -0.00000000000E+00 -0.74505805969E-08  0.93827000000E+00  0.93827000000E+00 0. -1.
     999902    2    1    2    0    0 -0.12511218857E-01 -0.13281964393E-01  0.15701596134E-01  0.10198575822E+01  0.10195734435E+01 0.  0.
     999903    2    3    3    0    0  0.92441020540E-02  0.74183108633E-01 -0.10148486435E+00  0.12752574962E+00  0.19366261796E-01 0.  0.
         14    1    1    2    0    0  0.12511218857E-01  0.13281964393E-01 -0.15701596134E-01  0.24072417755E-01  0.00000000000E+00 0. -1.
     999901    1    3    3    0    0 -0.21755320911E-01 -0.87465073026E-01  0.11718646048E+00  0.89233183262E+00  0.88000000000E+00 0.  1.
        -11    1    4    4    0    0  0.29520660027E-02  0.57579852313E-01 -0.64612384656E-01  0.86597779752E-01  0.51100000000E-03 0. -1.
         11    1    4    4    0    0  0.62920360513E-02  0.16603256320E-01 -0.36872479694E-01  0.40927969873E-01  0.51100000000E-03 0.  1.
</event>
<event>
 8    1  0.1143957E+005  0.1043930E+01  0.7957747E-01            NaN
         13   -1    0    0    0    0  0.00000000000E+00  0.00000000000E+00  0.74505805969E-08  0.10566000000E+00  0.10566000000E+00 0. -1.
     999900   -1    0    0    0    0 -0.00000000000E+00 -0.00000000000E+00 -0.74505805969E-08  0.93827000000E+00  0.93827000000E+00 0. -1.
     999902    2    1    2    0    0 -0.12478156237E-01 -0.97924832406E-02 -0.17735056641E-01  0.10201365273E+01  0.10198590123E+01 0.  0.
     999903    2    3    3    0    0 -0.45940162111E-01 -0.11653783926E+00  0.34916715208E-01  0.13149346846E+00  0.19488170064E-01 0.  0.
         14    1    1    2    0    0  0.12478156237E-01  0.97924832406E-02  0.17735056641E-01  0.23793472743E-01  0.00000000000E+00 0. -1.
     999901    1    3    3    0    0  0.33462005874E-01  0.10674535602E+00 -0.52651771849E-01  0.88864305880E+00  0.88000000000E+00 0. -1.
        -11    1    4    4    0    0 -0.24640252135E-01 -0.85514653032E-01  0.21672405222E-01  0.91596136259E-01  0.51100000000E-03 0.  1.
         11    1    4    4    0    0 -0.21299909976E-01 -0.31023186229E-01  0.13244309986E-01  0.39897332202E-01  0.51100000000E-03 0. -1.
</event>
<event>
 8    1  0.1143957E+005  0.1043930E+01  0.7957747E-01            NaN
         13   -1    0    0    0    0  0.00000000000E+00  0.00000000000E+00  0.74505805969E-08  0.10566000000E+00  0.10566000000E+00 0. -1.
     999900   -1    0    0    0    0 -0.00000000000E+00 -0.00000000000E+00 -0.74505805969E-08  0.93827000000E+00  0.93827000000E+00 0.  1.
     999902    2    1    2    0    0 -0.61017764974E-02  0.12718530700E-01 -0.19004083297E-01  0.10202625565E+01  0.10199880079E+01 0.  0.
     999903    2    3    3    0    0 -0.90146036664E-01 -0.67622129103E-01 -0.64951144668E-01  0.13142669329E+00  0.18848454724E-01 0.  0.
         14    1    1    2    0    0  0.61017764974E-02 -0.12718530700E-01  0.19004083297E-01  0.23667443494E-01  0.00000000000E+00 0. -1.
     999901    1    3    3    0    0  0.84044260167E-01  0.80340659803E-01  0.45947061371E-01  0.88883586321E+00  0.88000000000E+00 0. -1.
        -11    1    4    4    0    0 -0.15422709897E-01 -0.21139814045E-01 -0.16984555107E-01  0.31200768446E-01  0.51100000000E-03 0.  1.
         11    1    4    4    0    0 -0.74723326767E-01 -0.46482315057E-01 -0.47966589561E-01  0.10022592485E+00  0.51100000000E-03 0. -1.
</event>
<event>
 8    1  0.1143957E+005  0.1043930E+01  0.7957747E-01            NaN
         13   -1    0    0    0    0  0.00000000000E+00  0.00000000000E+00  0.74505805969E-08  0.10566000000E+00  0.10566000000E+00 0.  1.
     999900   -1    0    0    0    0 -0.00000000000E+00 -0.00000000000E+00 -0.74505805969E-08  0.93827000000E+00  0.93827000000E+00 0. -1.
     999902    2    1    2    0    0 -0.62398393658E-02 -0.18912607629E-01 -0.12121562584E-01  0.10206157425E+01  0.10203494202E+01 0.  0.
     999903    2    3    3    0    0  0.89322338035E-01  0.59870162553E-01  0.67226335084E-01  0.12840783878E+00  0.20156301604E-01 0.  0.
         14    1    1    2    0    0  0.62398393658E-02  0.18912607629E-01  0.12121562584E-01  0.23314257486E-01  0.00000000000E+00 0. -1.
     999901    1    3    3    0    0 -0.95562177401E-01 -0.78782770182E-01 -0.79347897668E-01  0.89220790374E+00  0.88000000000E+00 0. -1.
        -11    1    4    4    0    0  0.58601697494E-01  0.42989342677E-01  0.34515148876E-01  0.80459922669E-01  0.51100000000E-03 0.  1.
         11    1    4    4    0    0  0.30720640541E-01  0.16880819876E-01  0.32711186208E-01  0.47947916108E-01  0.51100000000E-03 0. -1.
</event>
<event>
 8    1  0.1143957E+005  0.1043930E+01  0.7957747E-01            NaN
         13   -1    0    0    0    0  0.00000000000E+00  0.00000000000E+00  0.74505805969E-08  0.10566000000E+00  0.10566000000E+00 0. -1.
     999900   -1    0    0    0    0 -0.00000000000E+00 -0.00000000000E+00 -0.74505805969E-08  0.93827000000E+00  0.93827000000E+00 0. -1.
     999902    2    1    2    0    0  0.23879755630E-01  0.88371574445E-04  0.42825851412E-02  0.10196691040E+01  0.10193804445E+01 0.  0.
     999903    2    3    3    0    0 -0.49016286580E-01  0.11718521752E+00  0.11688198304E-01  0.12889396550E+00  0.18495102237E-01 0.  0.
         14    1    1    2    0    0 -0.23879755630E-01 -0.88371574445E-04 -0.42825851412E-02  0.24260895984E-01  0.00000000000E+00 0. -1.
     999901    1    3    3    0    0  0.72896042210E-01 -0.11709684594E+00 -0.74056131627E-02  0.89077513852E+00  0.88000000000E+00 0. -1.
        -11    1    4    4    0    0 -0.16627162255E-01  0.56767710852E-01 -0.10639706381E-02  0.59164420681E-01  0.51100000000E-03 0.  1.
         11    1    4    4    0    0 -0.32389124325E-01  0.60417506666E-01  0.12752168942E-01  0.69729544814E-01  0.51100000000E-03 0. -1.
</event>
<event>
 8    1  0.1143957E+005  0.1043930E+01  0.7957747E-01            NaN
         13   -1    0    0    0    0  0.00000000000E+00  0.00000000000E+00  0.74505805969E-08  0.10566000000E+00  0.10566000000E+00 0. -1.
     999900   -1    0    0    0    0 -0.00000000000E+00 -0.00000000000E+00 -0.74505805969E-08  0.93827000000E+00  0.93827000000E+00 0. -1.
     999902    2    1    2    0    0 -0.12769927519E-01 -0.88949326131E-02  0.20033318170E-01  0.10185622111E+01  0.10182462636E+01 0.  0.
     999903    2    3    3    0    0 -0.43599326629E-01 -0.12137244742E+00  0.79877365518E-02  0.13078592218E+00  0.20223284388E-01 0.  0.
         14    1    1    2    0    0  0.12769927519E-01  0.88949326131E-02 -0.20033318170E-01  0.25367788866E-01  0.00000000000E+00 0.  1.
     999901    1    3    3    0    0  0.30829399110E-01  0.11247751480E+00  0.12045581619E-01  0.88777628895E+00  0.88000000000E+00 0.  1.
        -11    1    4    4    0    0 -0.19350565767E-01 -0.47675042092E-01 -0.64839572191E-02  0.51861901780E-01  0.51100000000E-03 0.  1.
         11    1    4    4    0    0 -0.24248760862E-01 -0.73697405325E-01  0.14471693771E-01  0.78924020404E-01  0.51100000000E-03 0. -1.
</event>
<event>
 7    1  0.1143957E+005  0.1043930E+01  0.7957747E-01            NaN
         13   -1    0    0    0    0  0.00000000000E+00  0.00000000000E+00  0.74505805969E-08  0.10566000000E+00  0.10566000000E+00 0.  1.
     999900   -1    0    0    0    0 -0.00000000000E+00 -0.00000000000E+00 -0.74505805969E-08  0.93827000000E+00  0.93827000000E+00 0. -1.
     999903    2    1    2    0    0  0.18013169800E-01 -0.44257965821E-01 -0.47049697055E-02  0.52131798471E-01  0.20306300673E-01 0.  0.
         14    1    1    2    0    0  0.52053232807E-01  0.51781248411E-01 -0.75538485239E-01  0.10534182211E+00  0.00000000000E+00 0. -1.
     999901    1    1    2    0    0 -0.70066402608E-01 -0.75232825895E-02  0.80243454945E-01  0.88645637942E+00  0.88000000000E+00 0. -1.
        -11    1    3    3    0    0  0.88553967747E-02 -0.37062739858E-01 -0.98921471796E-02  0.39372330826E-01  0.51100000000E-03 0. -1.
         11    1    3    3    0    0  0.91577730257E-02 -0.71952259633E-02  0.51871774741E-02  0.12759467646E-01  0.51100000000E-03 0.  1.
</event>
<event>
 8    1  0.1143957E+005  0.1043930E+01  0.7957747E-01            NaN
         13   -1    0    0    0    0  0.00000000000E+00  0.00000000000E+00  0.74505805969E-08  0.10566000000E+00  0.10566000000E+00 0. -1.
     999900   -1    0    0    0    0 -0.00000000000E+00 -0.00000000000E+00 -0.74505805969E-08  0.93827000000E+00  0.93827000000E+00 0. -1.
     999902    2    1    2    0    0  0.18596342890E-01  0.93963736659E-02 -0.16706643967E-01  0.10172236757E+01  0.10168730396E+01 0.  0.
     999903    2    3    3    0    0  0.29151883165E-01 -0.89129400343E-01  0.82512144126E-01  0.12612148428E+00  0.17449715515E-01 0.  0.
         14    1    1    2    0    0 -0.18596342890E-01 -0.93963736659E-02  0.16706643967E-01  0.26706324337E-01  0.00000000000E+00 0.  1.
     999901    1    3    3    0    0 -0.10555540275E-01  0.98525774009E-01 -0.99218788093E-01  0.89110219138E+00  0.88000000000E+00 0. -1.
        -11    1    4    4    0    0  0.28248872191E-03 -0.22519820347E-01  0.23614995963E-01  0.32636655216E-01  0.51100000000E-03 0. -1.
         11    1    4    4    0    0  0.28869394443E-01 -0.66609579995E-01  0.58897148163E-01  0.93484829066E-01  0.51100000000E-03 0.  1.
</event>
<event>
 8    1  0.1143957E+005  0.1043930E+01  0.7957747E-01            NaN
         13   -1    0    0    0    0  0.00000000000E+00  0.00000000000E+00  0.74505805969E-08  0.10566000000E+00  0.10566000000E+00 0.  1.
     999900   -1    0    0    0    0 -0.00000000000E+00 -0.00000000000E+00 -0.74505805969E-08  0.93827000000E+00  0.93827000000E+00 0.  1.
     999902    2    1    2    0    0 -0.77540504683E-02  0.68881879591E-02  0.43640634303E-02  0.10326775566E+01  0.10326162494E+01 0.  0.
     999903    2    3    3    0    0  0.13328951740E+00  0.15074052020E-01  0.37311790012E-01  0.14079984692E+00  0.20954825818E-01 0.  0.
         14    1    1    2    0    0  0.77540504683E-02 -0.68881879591E-02 -0.43640634303E-02  0.11252443363E-01  0.00000000000E+00 0. -1.
     999901    1    3    3    0    0 -0.14104356787E+00 -0.81858640606E-02 -0.32947726581E-01  0.89187770972E+00  0.88000000000E+00 0.  1.
        -11    1    4    4    0    0  0.11827271562E+00  0.72430508277E-02  0.29335932184E-01  0.12207274504E+00  0.51100000000E-03 0. -1.
         11    1    4    4    0    0  0.15016801785E-01  0.78310011919E-02  0.79758578282E-02  0.18727101874E-01  0.51100000000E-03 0.  1.
</event>
<event>
 8    1  0.1143957E+005  0.1043930E+01  0.7957747E-01            NaN
         13   -1    0    0    0    0  0.00000000000E+00  0.00000000000E+00  0.74505805969E-08  0.10566000000E+00  0.10566000000E+00 0.  1.
     999900   -1    0    0    0    0 -0.00000000000E+00 -0.00000000000E+00 -0.74505805969E-08  0.93827000000E+00  0.93827000000E+00 0. -1.
     999902    2    1    2    0    0 -0.45435762838E-02 -0.65754548881E-03  0.23185595071E-01  0.10202942586E+01  0.10200204537E+01 0.  0.
     999903    2    3    3    0    0 -0.74996869708E-01 -0.19287522752E-01 -0.10073137898E+00  0.12862943423E+00  0.20054466835E-01 0.  0.
         14    1    1    2    0    0  0.45435762838E-02  0.65754548881E-03 -0.23185595071E-01  0.23635741374E-01  0.00000000000E+00 0. -1.
     999901    1    3    3    0    0  0.70453293424E-01  0.18629977263E-01  0.12391697405E+00  0.89166482440E+00  0.88000000000E+00 0.  1.
        -11    1    4    4    0    0 -0.43175519845E-01 -0.18200128784E-01 -0.70967335908E-01  0.85041131745E-01  0.51100000000E-03 0.  1.
         11    1    4    4    0    0 -0.31821349864E-01 -0.10873939681E-02 -0.29764043068E-01  0.43588302485E-01  0.51100000000E-03 0. -1.
</event>
<event>
 8    1  0.1143957E+005  0.1043930E+01  0.7957747E-01            NaN
         13   -1    0    0    0    0  0.00000000000E+00  0.00000000000E+00  0.74505805969E-08  0.10566000000E+00  0.10566000000E+00 0.  1.
     999900   -1    0    0    0    0 -0.00000000000E+00 -0.00000000000E+00 -0.74505805969E-08  0.93827000000E+00  0.93827000000E+00 0.  1.
     999902    2    1    2    0    0 -0.10273764125E-01 -0.21590505995E-01 -0.26224195174E-02  0.10198763670E+01  0.10195926768E+01 0.  0.
     999903    2    3    3    0    0 -0.32875388118E-01  0.18237770755E-01 -0.12382390696E+00  0.13038947802E+00  0.15989015482E-01 0.  0.
         14    1    1    2    0    0  0.10273764125E-01  0.21590505995E-01  0.26224195174E-02  0.24053633042E-01  0.00000000000E+00 0.  1.
     999901    1    3    3    0    0  0.22601623992E-01 -0.39828276749E-01  0.12120148745E+00  0.88948688894E+00  0.88000000000E+00 0. -1.
        -11    1    4    4    0    0 -0.21772129852E-01  0.12479573220E-01 -0.10366213264E+00  0.10665769663E+00  0.51100000000E-03 0. -1.
         11    1    4    4    0    0 -0.11103258265E-01  0.57581975350E-02 -0.20161774326E-01  0.23731781389E-01  0.51100000000E-03 0.  1.
</event>
<event>
 8    1  0.1143957E+005  0.1043930E+01  0.7957747E-01            NaN
         13   -1    0    0    0    0  0.00000000000E+00  0.00000000000E+00  0.74505805969E-08  0.10566000000E+00  0.10566000000E+00 0.  1.
     999900   -1    0    0    0    0 -0.00000000000E+00 -0.00000000000E+00 -0.74505805969E-08  0.93827000000E+00  0.93827000000E+00 0.  1.
     999902    2    1    2    0    0 -0.23908051439E-01  0.33939024708E-02  0.17763700640E-01  0.10139522990E+01  0.10135090538E+01 0.  0.
     999903    2    3    3    0    0  0.75390138078E-01  0.94702585280E-01  0.15216018806E-01  0.12366925597E+00  0.20255988403E-01 0.  0.
         14    1    1    2    0    0  0.23908051439E-01 -0.33939024708E-02 -0.17763700640E-01  0.29977701013E-01  0.00000000000E+00 0. -1.
     999901    1    3    3    0    0 -0.99298189517E-01 -0.91308682809E-01  0.25476818342E-02  0.89028304302E+00  0.88000000000E+00 0.  1.
        -11    1    4    4    0    0  0.50246355667E-01  0.61368543896E-01  0.19544585022E-01  0.81688716250E-01  0.51100000000E-03 0.  1.
         11    1    4    4    0    0  0.25143782411E-01  0.33334041384E-01 -0.43285662161E-02  0.41980539722E-01  0.51100000000E-03 0. -1.
</event>
<event>
 8    1  0.1143957E+005  0.1043930E+01  0.7957747E-01            NaN
         13   -1    0    0    0    0  0.00000000000E+00  0.00000000000E+00  0.74505805969E-08  0.10566000000E+00  0.10566000000E+00 0.  1.
     999900   -1    0    0    0    0 -0.00000000000E+00 -0.00000000000E+00 -0.74505805969E-08  0.93827000000E+00  0.93827000000E+00 0.  1.
     999902    2    1    2    0    0 -0.17519122601E-01 -0.16715015896E-01 -0.60461845563E-03  0.10197085843E+01  0.10194208748E+01 0.  0.
     999903    2    3    3    0    0  0.93327461178E-01  0.64126247081E-01  0.54477340762E-01  0.12737664097E+00  0.20852755994E-01 0.  0.
         14    1    1    2    0    0  0.17519122601E-01  0.16715015896E-01  0.60461845563E-03  0.24221415660E-01  0.00000000000E+00 0.  1.
     999901    1    3    3    0    0 -0.11084658378E+00 -0.80841262977E-01 -0.55081959217E-01  0.89233194337E+00  0.88000000000E+00 0.  1.
        -11    1    4    4    0    0  0.59710404189E-02  0.11980236645E-01  0.67457592624E-02  0.14998192651E-01  0.51100000000E-03 0.  1.
         11    1    4    4    0    0  0.87356420759E-01  0.52146010435E-01  0.47731581499E-01  0.11237844831E+00  0.51100000000E-03 0. -1.
</event>
<event>
 8    1  0.1143957E+005  0.1043930E+01  0.7957747E-01            NaN
         13   -1    0    0    0    0  0.00000000000E+00  0.00000000000E+00  0.74505805969E-08  0.10566000000E+00  0.10566000000E+00 0.  1.
     999900   -1    0    0    0    0 -0.00000000000E+00 -0.00000000000E+00 -0.74505805969E-08  0.93827000000E+00  0.93827000000E+00 0.  1.
     999902    2    1    2    0    0 -0.16637845553E-01  0.18029738521E-01 -0.43982628393E-02  0.10190054320E+01  0.10187005626E+01 0.  0.
     999903    2    3    3    0    0  0.47873399168E-01  0.11949352556E+00  0.10773158269E-01  0.13069986922E+00  0.19895473797E-01 0.  0.
         14    1    1    2    0    0  0.16637845553E-01 -0.18029738521E-01  0.43982628393E-02  0.24924568036E-01  0.00000000000E+00 0.  1.
     999901    1    3    3    0    0 -0.64511244721E-01 -0.10146378704E+00 -0.15171421109E-01  0.88830556274E+00  0.88000000000E+00 0. -1.
        -11    1    4    4    0    0  0.29964937681E-01  0.81740980917E-01 -0.17385570121E-02  0.87079097107E-01  0.51100000000E-03 0.  1.
         11    1    4    4    0    0  0.17908461487E-01  0.37752544643E-01  0.12511715281E-01  0.43620772117E-01  0.51100000000E-03 0. -1.
</event>
<event>
 8    1  0.1143957E+005  0.1043930E+01  0.7957747E-01            NaN
         13   -1    0    0    0    0  0.00000000000E+00  0.00000000000E+00  0.74505805969E-08  0.10566000000E+00  0.10566000000E+00 0. -1.
     999900   -1    0    0    0    0 -0.00000000000E+00 -0.00000000000E+00 -0.74505805969E-08  0.93827000000E+00  0.93827000000E+00 0.  1.
     999902    2    1    2    0    0 -0.16837085091E-01  0.15817006400E-01  0.64514249797E-02  0.10199448794E+01  0.10196628222E+01 0.  0.
     999903    2    3    3    0    0 -0.60347057368E-01 -0.49885490311E-01  0.10336177058E+00  0.13112456525E+00  0.19485033190E-01 0.  0.
         14    1    1    2    0    0  0.16837085091E-01 -0.15817006400E-01 -0.64514249797E-02  0.23985120597E-01  0.00000000000E+00 0.  1.
     999901    1    3    3    0    0  0.43509972277E-01  0.65702496711E-01 -0.96910345602E-01  0.88882031415E+00  0.88000000000E+00 0.  1.
        -11    1    4    4    0    0 -0.44187338176E-01 -0.37165546934E-01  0.88794093827E-01  0.10591718913E+00  0.51100000000E-03 0.  1.
         11    1    4    4    0    0 -0.16159719192E-01 -0.12719943377E-01  0.14567676754E-01  0.25207376121E-01  0.51100000000E-03 0. -1.
</event>
<event>
 8    1  0.1143957E+005  0.1043930E+01  0.7957747E-01            NaN
         13   -1    0    0    0    0  0.00000000000E+00  0.00000000000E+00  0.74505805969E-08  0.10566000000E+00  0.10566000000E+00 0. -1.
     999900   -1    0    0    0    0 -0.00000000000E+00 -0.00000000000E+00 -0.74505805969E-08  0.93827000000E+00  0.93827000000E+00 0. -1.
     999902    2    1    2    0    0  0.43719128622E-02 -0.11804814821E-01 -0.19584361812E-01  0.10206487951E+01  0.10203832360E+01 0.  0.
     999903    2    3    3    0    0  0.12553527643E+00  0.16863541596E-01 -0.30639205962E-01  0.13181548961E+00  0.19826187089E-01 0.  0.
         14    1    1    2    0    0 -0.43719128622E-02  0.11804814821E-01  0.19584361812E-01  0.23281204921E-01  0.00000000000E+00 0. -1.
     999901    1    3    3    0    0 -0.12116336357E+00 -0.28668356417E-01  0.11054844150E-01  0.88883330547E+00  0.88000000000E+00 0. -1.
        -11    1    4    4    0    0  0.69034825666E-01  0.52227519615E-03 -0.21375664504E-01  0.72272125194E-01  0.51100000000E-03 0. -1.
         11    1    4    4    0    0  0.56500450768E-01  0.16341266400E-01 -0.92635414576E-02  0.59543364415E-01  0.51100000000E-03 0.  1.
</event>
<event>
 8    1  0.1143957E+005  0.1043930E+01  0.7957747E-01            NaN
         13   -1    0    0    0    0  0.00000000000E+00  0.00000000000E+00  0.74505805969E-08  0.10566000000E+00  0.10566000000E+00 0. -1.
     999900   -1    0    0    0    0 -0.00000000000E+00 -0.00000000000E+00 -0.74505805969E-08  0.93827000000E+00  0.93827000000E+00 0. -1.
     999902    2    1    2    0    0 -0.17888976976E-01 -0.35935767999E-02  0.16150132847E-01  0.10195628893E+01  0.10192716661E+01 0.  0.
     999903    2    3    3    0    0 -0.12645956533E+00 -0.15435102355E-01 -0.27175243194E-01  0.13175385435E+00  0.19756524122E-01 0.  0.
         14    1    1    2    0    0  0.17888976976E-01  0.35935767999E-02 -0.16150132847E-01  0.24367110671E-01  0.00000000000E+00 0. -1.
     999901    1    3    3    0    0  0.10857058835E+00  0.11841525555E-01  0.43325376041E-01  0.88780903498E+00  0.88000000000E+00 0. -1.
        -11    1    4    4    0    0 -0.59323202123E-01 -0.75208583043E-02 -0.27156393141E-02  0.59861852942E-01  0.51100000000E-03 0. -1.
         11    1    4    4    0    0 -0.67136363206E-01 -0.79142440502E-02 -0.24459603880E-01  0.71892001408E-01  0.51100000000E-03 0.  1.
</event>
<event>
 8    1  0.1143957E+005  0.1043930E+01  0.7957747E-01            NaN
         13   -1    0    0    0    0  0.00000000000E+00  0.00000000000E+00  0.74505805969E-08  0.10566000000E+00  0.10566000000E+00 0. -1.
     999900   -1    0    0    0    0 -0.00000000000E+00 -0.00000000000E+00 -0.74505805969E-08  0.93827000000E+00  0.93827000000E+00 0.  1.
     999902    2    1    2    0    0  0.16285705181E-01 -0.11210818897E-02 -0.22642723426E-02  0.10274494676E+01  0.10273172833E+01 0.  0.
     999903    2    3    3    0    0  0.11727503250E+00 -0.64120371873E-01 -0.32005175159E-01  0.13893819811E+00  0.20362620640E-01 0.  0.
         14    1    1    2    0    0 -0.16285705181E-01  0.11210818897E-02  0.22642723426E-02  0.16480532367E-01  0.00000000000E+00 0. -1.
     999901    1    3    3    0    0 -0.10098932732E+00  0.62999289983E-01  0.29740902816E-01  0.88851126952E+00  0.88000000000E+00 0.  1.
        -11    1    4    4    0    0  0.69964997749E-01 -0.32036453866E-01 -0.96421052130E-02  0.77554281638E-01  0.51100000000E-03 0. -1.
         11    1    4    4    0    0  0.47310034753E-01 -0.32083918006E-01 -0.22363069946E-01  0.61383916471E-01  0.51100000000E-03 0.  1.
</event>
<event>
 8    1  0.1143957E+005  0.1043930E+01  0.7957747E-01            NaN
         13   -1    0    0    0    0  0.00000000000E+00  0.00000000000E+00  0.74505805969E-08  0.10566000000E+00  0.10566000000E+00 0. -1.
     999900   -1    0    0    0    0 -0.00000000000E+00 -0.00000000000E+00 -0.74505805969E-08  0.93827000000E+00  0.93827000000E+00 0. -1.
     999902    2    1    2    0    0  0.21935187112E-01 -0.23133702193E-03  0.98311598781E-02  0.10198913300E+01  0.10196079969E+01 0.  0.
     999903    2    3    3    0    0  0.94266470513E-01  0.41373773429E-01 -0.80842764642E-01  0.13130562206E+00  0.10375798760E-01 0.  0.
         14    1    1    2    0    0 -0.21935187112E-01  0.23133702193E-03 -0.98311598781E-02  0.24038669992E-01  0.00000000000E+00 0.  1.
     999901    1    3    3    0    0 -0.72331283401E-01 -0.41605110451E-01  0.90673924520E-01  0.88858570794E+00  0.88000000000E+00 0. -1.
        -11    1    4    4    0    0  0.76701348882E-01  0.37898547454E-01 -0.66891239598E-01  0.10860062558E+00  0.51100000000E-03 0.  1.
         11    1    4    4    0    0  0.17565121631E-01  0.34752259754E-02 -0.13951525044E-01  0.22704996489E-01  0.51100000000E-03 0. -1.
</event>
<event>
 8    1  0.1143957E+005  0.1043930E+01  0.7957747E-01            NaN
         13   -1    0    0    0    0  0.00000000000E+00  0.00000000000E+00  0.74505805969E-08  0.10566000000E+00  0.10566000000E+00 0.  1.
     999900   -1    0    0    0    0 -0.00000000000E+00 -0.00000000000E+00 -0.74505805969E-08  0.93827000000E+00  0.93827000000E+00 0. -1.
     999902    2    1    2    0    0 -0.23525478794E-01 -0.32675064484E-02 -0.20385843284E-03  0.10201778146E+01  0.10199012733E+01 0.  0.
     999903    2    3    3    0    0 -0.76128524059E-01 -0.66036395340E-01 -0.83511917341E-01  0.13245756228E+00  0.20357008174E-01 0.  0.
         14    1    1    2    0    0  0.23525478794E-01  0.32675064484E-02  0.20385843284E-03  0.23752185355E-01  0.00000000000E+00 0.  1.
     999901    1    3    3    0    0  0.52603045265E-01  0.62768888892E-01  0.83308058908E-01  0.88772025237E+00  0.88000000000E+00 0.  1.
        -11    1    4    4    0    0 -0.68559441870E-01 -0.49323416372E-01 -0.68715872397E-01  0.10888217812E+00  0.51100000000E-03 0.  1.
         11    1    4    4    0    0 -0.75690821893E-02 -0.16712978968E-01 -0.14796044944E-01  0.23575384157E-01  0.51100000000E-03 0. -1.
</event>
<event>
 8    1  0.1143957E+005  0.1043930E+01  0.7957747E-01            NaN
         13   -1    0    0    0    0  0.00000000000E+00  0.00000000000E+00  0.74505805969E-08  0.10566000000E+00  0.10566000000E+00 0.  1.
     999900   -1    0    0    0    0 -0.00000000000E+00 -0.00000000000E+00 -0.74505805969E-08  0.93827000000E+00  0.93827000000E+00 0.  1.
     999902    2    1    2    0    0 -0.34079025676E-03 -0.23296694457E-01 -0.46120338335E-03  0.10206262488E+01  0.10203601692E+01 0.  0.
     999903    2    3    3    0    0  0.18863202063E-01 -0.82819101568E-01 -0.10000157932E+00  0.13280870185E+00  0.20567241999E-01 0.  0.
         14    1    1    2    0    0  0.34079025676E-03  0.23296694457E-01  0.46120338335E-03  0.23303751182E-01  0.00000000000E+00 0. -1.
     999901    1    3    3    0    0 -0.19203992320E-01  0.59522407112E-01  0.99540375934E-01  0.88781754697E+00  0.88000000000E+00 0. -1.
        -11    1    4    4    0    0  0.48723712886E-02 -0.14260438229E-01 -0.31319084439E-01  0.34759837047E-01  0.51100000000E-03 0.  1.
         11    1    4    4    0    0  0.13990830775E-01 -0.68558663340E-01 -0.68682494878E-01  0.98048864799E-01  0.51100000000E-03 0. -1.
</event>
<event>
 8    1  0.1143957E+005  0.1043930E+01  0.7957747E-01            NaN
         13   -1    0    0    0    0  0.00000000000E+00  0.00000000000E+00  0.74505805969E-08  0.10566000000E+00  0.10566000000E+00 0.  1.
     999900   -1    0    0    0    0 -0.00000000000E+00 -0.00000000000E+00 -0.74505805969E-08  0.93827000000E+00  0.93827000000E+00 0. -1.
     999902    2    1    2    0    0 -0.16523749992E-01 -0.97233178593E-02 -0.14439499197E-01  0.10199284092E+01  0.10196459599E+01 0.  0.
     999903    2    3    3    0    0  0.53151953506E-01  0.10688372023E+00  0.40840294114E-01  0.12779178259E+00  0.20335935244E-01 0.  0.
         14    1    1    2    0    0  0.16523749992E-01  0.97233178593E-02  0.14439499197E-01  0.24001590802E-01  0.00000000000E+00 0. -1.
     999901    1    3    3    0    0 -0.69675703498E-01 -0.11660703809E+00 -0.55279793312E-01  0.89213662661E+00  0.88000000000E+00 0. -1.
        -11    1    4    4    0    0  0.20479930958E-01  0.37859930117E-01  0.25061858929E-01  0.49811241447E-01  0.51100000000E-03 0. -1.
         11    1    4    4    0    0  0.32672022549E-01  0.69023790112E-01  0.15778435185E-01  0.77980541141E-01  0.51100000000E-03 0.  1.
</event>
<event>
 8    1  0.1143957E+005  0.1043930E+01  0.7957747E-01            NaN
         13   -1    0    0    0    0  0.00000000000E+00  0.00000000000E+00  0.74505805969E-08  0.10566000000E+00  0.10566000000E+00 0. -1.
     999900   -1    0    0    0    0 -0.00000000000E+00 -0.00000000000E+00 -0.74505805969E-08  0.93827000000E+00  0.93827000000E+00 0.  1.
     999902    2    1    2    0    0  0.79503048139E-02 -0.31386594843E-03 -0.21661367757E-01  0.10208535897E+01  0.10205927351E+01 0.  0.
     999903    2    3    3    0    0 -0.35672361181E-01 -0.15045524259E-01  0.12081964788E+00  0.12820539554E+00  0.18448603706E-01 0.  0.
         14    1    1    2    0    0 -0.79503048139E-02  0.31386594843E-03  0.21661367757E-01  0.23076410283E-01  0.00000000000E+00 0. -1.
     999901    1    3    3    0    0  0.43622665995E-01  0.14731658310E-01 -0.14248101564E+00  0.89264819417E+00  0.88000000000E+00 0.  1.
        -11    1    4    4    0    0 -0.17429814443E-01 -0.93072603637E-02  0.34223606605E-01  0.39521385313E-01  0.51100000000E-03 0.  1.
         11    1    4    4    0    0 -0.18242546737E-01 -0.57382638951E-02  0.86596041280E-01  0.88684010229E-01  0.51100000000E-03 0. -1.
</event>
<event>
 8    1  0.1143957E+005  0.1043930E+01  0.7957747E-01            NaN
         13   -1    0    0    0    0  0.00000000000E+00  0.00000000000E+00  0.74505805969E-08  0.10566000000E+00  0.10566000000E+00 0.  1.
     999900   -1    0    0    0    0 -0.00000000000E+00 -0.00000000000E+00 -0.74505805969E-08  0.93827000000E+00  0.93827000000E+00 0.  1.
     999902    2    1    2    0    0 -0.57339380964E-02 -0.21139749227E-01  0.10166613670E-01  0.10197819757E+01  0.10194960279E+01 0.  0.
     999903    2    3    3    0    0 -0.10285746514E+00 -0.79703226818E-01  0.14182053590E-01  0.13249465800E+00  0.20529034450E-01 0.  0.
         14    1    1    2    0    0  0.57339380964E-02  0.21139749227E-01 -0.10166613670E-01  0.24148024288E-01  0.00000000000E+00 0.  1.
     999901    1    3    3    0    0  0.97123527041E-01  0.58563477591E-01 -0.40154399202E-02  0.88728731771E+00  0.88000000000E+00 0.  1.
        -11    1    4    4    0    0 -0.50957260873E-01 -0.49563733392E-01  0.14115494649E-01  0.72475612544E-01  0.51100000000E-03 0. -1.
         11    1    4    4    0    0 -0.51900204264E-01 -0.30139493426E-01  0.66558941025E-04  0.60019045458E-01  0.51100000000E-03 0.  1.
</event>
<event>
 8    1  0.1143957E+005  0.1043930E+01  0.7957747E-01            NaN
         13   -1    0    0    0    0  0.00000000000E+00  0.00000000000E+00  0.74505805969E-08  0.10566000000E+00  0.10566000000E+00 0.  1.
     999900   -1    0    0    0    0 -0.00000000000E+00 -0.00000000000E+00 -0.74505805969E-08  0.93827000000E+00  0.93827000000E+00 0. -1.
     999902    2    1    2    0    0  0.12679705833E-01 -0.17607467477E-01  0.83893411223E-02  0.10206667480E+01  0.10204016030E+01 0.  0.
     999903    2    3    3    0    0 -0.39741705068E-01 -0.32449973535E-01 -0.11779947724E+00  0.12999738047E+00  0.19753434841E-01 0.  0.
         14    1    1    2    0    0 -0.12679705833E-01  0.17607467477E-01 -0.83893411223E-02  0.23263252039E-01  0.00000000000E+00 0. -1.
     999901    1    3    3    0    0  0.52421410900E-01  0.14842506058E-01  0.12618881836E+00  0.89066936749E+00  0.88000000000E+00 0.  1.
        -11    1    4    4    0    0 -0.19888047388E-01 -0.15851160602E-01 -0.81764490911E-01  0.85629941121E-01  0.51100000000E-03 0.  1.
         11    1    4    4    0    0 -0.19853657680E-01 -0.16598812933E-01 -0.36034986325E-01  0.44367439350E-01  0.51100000000E-03 0. -1.
</event>
<event>
 8    1  0.1143957E+005  0.1043930E+01  0.7957747E-01            NaN
         13   -1    0    0    0    0  0.00000000000E+00  0.00000000000E+00  0.74505805969E-08  0.10566000000E+00  0.10566000000E+00 0.  1.
     999900   -1    0    0    0    0 -0.00000000000E+00 -0.00000000000E+00 -0.74505805969E-08  0.93827000000E+00  0.93827000000E+00 0.  1.
     999902    2    1    2    0    0  0.58678291173E-03 -0.16883451363E-01 -0.17764479522E-01  0.10194152702E+01  0.10191204645E+01 0.  0.
     999903    2    3    3    0    0 -0.10128685839E+00  0.72440401992E-01 -0.26920563110E-01  0.12899917453E+00  0.20234396159E-01 0.  0.
         14    1    1    2    0    0 -0.58678291173E-03  0.16883451363E-01  0.17764479522E-01  0.24514729792E-01  0.00000000000E+00 0.  1.
     999901    1    3    3    0    0  0.10187364131E+00 -0.89323853355E-01  0.91560835876E-02  0.89041609568E+00  0.88000000000E+00 0. -1.
        -11    1    4    4    0    0 -0.14393536737E-01  0.20048965664E-01 -0.47754862342E-02  0.25143613777E-01  0.51100000000E-03 0.  1.
         11    1    4    4    0    0 -0.86893321657E-01  0.52391436329E-01 -0.22145076875E-01  0.10385556076E+00  0.51100000000E-03 0. -1.
</event>
<event>
 8    1  0.1143957E+005  0.1043930E+01  0.7957747E-01            NaN
         13   -1    0    0    0    0  0.00000000000E+00  0.00000000000E+00  0.74505805969E-08  0.10566000000E+00  0.10566000000E+00 0.  1.
     999900   -1    0    0    0    0 -0.00000000000E+00 -0.00000000000E+00 -0.74505805969E-08  0.93827000000E+00  0.93827000000E+00 0. -1.
     999902    2    1    2    0    0  0.65040296904E-02  0.17209925237E-01 -0.14766764423E-01  0.10203388733E+01  0.10200661131E+01 0.  0.
     999903    2    3    3    0    0  0.11080434712E-01  0.83462614523E-01 -0.10180658824E+00  0.13355463049E+00  0.19582488573E-01 0.  0.
         14    1    1    2    0    0 -0.65040296904E-02 -0.17209925237E-01  0.14766764423E-01  0.23591126730E-01  0.00000000000E+00 0.  1.
     999901    1    3    3    0    0 -0.45764050219E-02 -0.66252689286E-01  0.87039823817E-01  0.88678424278E+00  0.88000000000E+00 0.  1.
        -11    1    4    4    0    0  0.93602512781E-02  0.50693655246E-01 -0.75855962796E-01  0.91716133798E-01  0.51100000000E-03 0. -1.
         11    1    4    4    0    0  0.17201834343E-02  0.32768959277E-01 -0.25950625444E-01  0.41838496687E-01  0.51100000000E-03 0.  1.
</event>
<event>
 8    1  0.1143957E+005  0.1043930E+01  0.7957747E-01            NaN
         13   -1    0    0    0    0  0.00000000000E+00  0.00000000000E+00  0.74505805969E-08  0.10566000000E+00  0.10566000000E+00 0.  1.
     999900   -1    0    0    0    0 -0.00000000000E+00 -0.00000000000E+00 -0.74505805969E-08  0.93827000000E+00  0.93827000000E+00 0.  1.
     999902    2    1    2    0    0  0.24740161640E-01  0.40625075947E-02  0.14488289385E-02  0.10188166834E+01  0.10185071211E+01 0.  0.
     999903    2    3    3    0    0  0.12816170675E+00 -0.25402403123E-01 -0.44424986599E-02  0.13225089074E+00  0.19996428283E-01 0.  0.
         14    1    1    2    0    0 -0.24740161640E-01 -0.40625075947E-02 -0.14488289385E-02  0.25113316611E-01  0.00000000000E+00 0. -1.
     999901    1    3    3    0    0 -0.10342154511E+00  0.29464910717E-01  0.58913275984E-02  0.88656579265E+00  0.88000000000E+00 0. -1.
        -11    1    4    4    0    0  0.94240929528E-01 -0.26496508827E-01 -0.74274711638E-02  0.98177625899E-01  0.51100000000E-03 0.  1.
         11    1    4    4    0    0  0.33920777227E-01  0.10941057041E-02  0.29849725039E-02  0.34073264839E-01  0.51100000000E-03 0. -1.
</event>
<event>
 8    1  0.1143957E+005  0.1043930E+01  0.7957747E-01            NaN
         13   -1    0    0    0    0  0.00000000000E+00  0.00000000000E+00  0.74505805969E-08  0.10566000000E+00  0.10566000000E+00 0. -1.
     999900   -1    0    0    0    0 -0.00000000000E+00 -0.00000000000E+00 -0.74505805969E-08  0.93827000000E+00  0.93827000000E+00 0.  1.
     999902    2    1    2    0    0  0.15194941841E-01  0.16690041791E-01 -0.27209582985E-02  0.10211957227E+01  0.10209426314E+01 0.  0.
     999903    2    3    3    0    0 -0.10165029329E+00  0.57978799756E-01  0.54489436606E-01  0.13067306724E+00  0.20298484017E-01 0.  0.
         14    1    1    2    0    0 -0.15194941841E-01 -0.16690041791E-01  0.27209582985E-02  0.22734277349E-01  0.00000000000E+00 0.  1.
     999901    1    3    3    0    0  0.11684523513E+00 -0.41288757965E-01 -0.57210394905E-01  0.89052265541E+00  0.88000000000E+00 0.  1.
        -11    1    4    4    0    0 -0.53548889382E-01  0.39486036367E-01  0.23643632459E-01  0.70610998427E-01  0.51100000000E-03 0. -1.
         11    1    4    4    0    0 -0.48101403911E-01  0.18492763389E-01  0.30845804147E-01  0.60062068816E-01  0.51100000000E-03 0.  1.
</event>
<event>
 8    1  0.1143957E+005  0.1043930E+01  0.7957747E-01            NaN
         13   -1    0    0    0    0  0.00000000000E+00  0.00000000000E+00  0.74505805969E-08  0.10566000000E+00  0.10566000000E+00 0. -1.
     999900   -1    0    0    0    0 -0.00000000000E+00 -0.00000000000E+00 -0.74505805969E-08  0.93827000000E+00  0.93827000000E+00 0. -1.
     999902    2    1    2    0    0  0.19869560396E-01 -0.13519277813E-02  0.12680081321E-01  0.10203204341E+01  0.10200472424E+01 0.  0.
     999903    2    3    3    0    0 -0.11619209455E+00 -0.36644490783E-01  0.36830349096E-01  0.12883763878E+00  0.19981016264E-01 0.  0.
         14    1    1    2    0    0 -0.19869560396E-01  0.13519277813E-02 -0.12680081321E-01  0.23609565886E-01  0.00000000000E+00 0. -1.
     999901    1    3    3    0    0  0.13606165494E+00  0.35292563001E-01 -0.24150267776E-01  0.89148279534E+00  0.88000000000E+00 0.  1.
        -11    1    4    4    0    0 -0.10747024701E-01 -0.90333129529E-02  0.94147025821E-03  0.14080013142E-01  0.51100000000E-03 0. -1.
         11    1    4    4    0    0 -0.10544506985E+00 -0.27611177830E-01  0.35888878838E-01  0.11475762563E+00  0.51100000000E-03 0.  1.
</event>
<event>
 8    1  0.1143957E+005  0.1043930E+01  0.7957747E-01            NaN
         13   -1    0    0    0    0  0.00000000000E+00  0.00000000000E+00  0.74505805969E-08  0.10566000000E+00  0.10566000000E+00 0.  1.
     999900   -1    0    0    0    0 -0.00000000000E+00 -0.00000000000E+00 -0.74505805969E-08  0.93827000000E+00  0.93827000000E+00 0.  1.
     999902    2    1    2    0    0 -0.15437306988E-01 -0.76779945157E-02 -0.17138423348E-01  0.10196197634E+01  0.10193299144E+01 0.  0.
     999903    2    3    3    0    0  0.12378819311E+00  0.49691866999E-02 -0.27373154609E-01  0.12852580611E+00  0.20527631950E-01 0.  0.
         14    1    1    2    0    0  0.15437306988E-01  0.76779945157E-02  0.17138423348E-01  0.24310236562E-01  0.00000000000E+00 0.  1.
     999901    1    3    3    0    0 -0.13922550009E+00 -0.12647181216E-01  0.10234731262E-01  0.89109395733E+00  0.88000000000E+00 0. -1.
        -11    1    4    4    0    0  0.55492260739E-01  0.39841313267E-02 -0.22606298804E-01  0.60054726467E-01  0.51100000000E-03 0. -1.
         11    1    4    4    0    0  0.68295932366E-01  0.98505537319E-03 -0.47668558054E-02  0.68471079640E-01  0.51100000000E-03 0.  1.
</event>
<event>
 8    1  0.1143957E+005  0.1043930E+01  0.7957747E-01            NaN
         13   -1    0    0    0    0  0.00000000000E+00  0.00000000000E+00  0.74505805969E-08  0.10566000000E+00  0.10566000000E+00 0.  1.
     999900   -1    0    0    0    0 -0.00000000000E+00 -0.00000000000E+00 -0.74505805969E-08  0.93827000000E+00  0.93827000000E+00 0. -1.
     999902    2    1    2    0    0 -0.20468217638E-01  0.11767826109E-01 -0.22290757625E-03  0.10203189993E+01  0.10200457740E+01 0.  0.
     999903    2    3    3    0    0  0.58571969141E-01 -0.10532420182E+00 -0.38808002100E-01  0.12821659285E+00  0.20237850651E-01 0.  0.
         14    1    1    2    0    0  0.20468217638E-01 -0.11767826109E-01  0.22290757625E-03  0.23611000665E-01  0.00000000000E+00 0.  1.
     999901    1    3    3    0    0 -0.79040186779E-01  0.11709202793E+00  0.38585094523E-01  0.89210240648E+00  0.88000000000E+00 0.  1.
        -11    1    4    4    0    0  0.21657893837E-01 -0.21815516223E-01 -0.70180976245E-02  0.31535629513E-01  0.51100000000E-03 0.  1.
         11    1    4    4    0    0  0.36914075304E-01 -0.83508685593E-01 -0.31789904475E-01  0.96680963341E-01  0.51100000000E-03 0. -1.
</event>
<event>
 8    1  0.1143957E+005  0.1043930E+01  0.7957747E-01            NaN
         13   -1    0    0    0    0  0.00000000000E+00  0.00000000000E+00  0.74505805969E-08  0.10566000000E+00  0.10566000000E+00 0. -1.
     999900   -1    0    0    0    0 -0.00000000000E+00 -0.00000000000E+00 -0.74505805969E-08  0.93827000000E+00  0.93827000000E+00 0.  1.
     999902    2    1    2    0    0  0.17726907822E-02  0.78174715278E-02  0.21591392274E-01  0.10208986406E+01  0.10206388151E+01 0.  0.
     999903    2    3    3    0    0  0.11796070579E-01 -0.91240125867E-01  0.93452897359E-01  0.13237348531E+00  0.18038507095E-01 0.  0.
         14    1    1    2    0    0 -0.17726907822E-02 -0.78174715278E-02 -0.21591392274E-01  0.23031359361E-01  0.00000000000E+00 0.  1.
     999901    1    3    3    0    0 -0.10023379797E-01  0.99057597395E-01 -0.71861505085E-01  0.88852515533E+00  0.88000000000E+00 0.  1.
        -11    1    4    4    0    0 -0.25423572751E-02 -0.40423159473E-01  0.34266338342E-01  0.53055993692E-01  0.51100000000E-03 0.  1.
         11    1    4    4    0    0  0.14338427854E-01 -0.50816966394E-01  0.59186559017E-01  0.79317491616E-01  0.51100000000E-03 0. -1.
</event>
<event>
 8    1  0.1143957E+005  0.1043930E+01  0.7957747E-01            NaN
         13   -1    0    0    0    0  0.00000000000E+00  0.00000000000E+00  0.74505805969E-08  0.10566000000E+00  0.10566000000E+00 0.  1.
     999900   -1    0    0    0    0 -0.00000000000E+00 -0.00000000000E+00 -0.74505805969E-08  0.93827000000E+00  0.93827000000E+00 0.  1.
     999902    2    1    2    0    0 -0.14576894969E-01  0.13419832129E-01 -0.11829814997E-01  0.10208535556E+01  0.10205927002E+01 0.  0.
     999903    2    3    3    0    0  0.98302651431E-01  0.14146067966E-01 -0.82679244093E-01  0.13081874676E+00  0.20351033970E-01 0.  0.
         14    1    1    2    0    0  0.14576894969E-01 -0.13419832129E-01  0.11829814997E-01  0.23076444357E-01  0.00000000000E+00 0.  1.
     999901    1    3    3    0    0 -0.11287954640E+00 -0.72623583623E-03  0.70849429096E-01  0.89003480888E+00  0.88000000000E+00 0. -1.
        -11    1    4    4    0    0  0.75336616975E-01  0.52090846663E-02 -0.70556645614E-01  0.10335009328E+00  0.51100000000E-03 0. -1.
         11    1    4    4    0    0  0.22966034456E-01  0.89369832994E-02 -0.12122598479E-01  0.27468653480E-01  0.51100000000E-03 0.  1.
</event>
<event>
 8    1  0.1143957E+005  0.1043930E+01  0.7957747E-01            NaN
         13   -1    0    0    0    0  0.00000000000E+00  0.00000000000E+00  0.74505805969E-08  0.10566000000E+00  0.10566000000E+00 0. -1.
     999900   -1    0    0    0    0 -0.00000000000E+00 -0.00000000000E+00 -0.74505805969E-08  0.93827000000E+00  0.93827000000E+00 0. -1.
     999902    2    1    2    0    0 -0.20610403057E-01  0.12995317785E-01 -0.10083015029E-02  0.10195438632E+01  0.10192521794E+01 0.  0.
     999903    2    3    3    0    0 -0.19770466044E-01 -0.14837368044E-01 -0.12654445041E+00  0.13019877345E+00  0.18088777211E-01 0.  0.
         14    1    1    2    0    0  0.20610403057E-01 -0.12995317785E-01  0.10083015029E-02  0.24386136849E-01  0.00000000000E+00 0.  1.
     999901    1    3    3    0    0 -0.83993701336E-03  0.27832685828E-01  0.12553614890E+00  0.88934508970E+00  0.88000000000E+00 0.  1.
        -11    1    4    4    0    0 -0.97886471984E-02 -0.15834457617E-02 -0.83096610138E-01  0.83687709085E-01  0.51100000000E-03 0. -1.
         11    1    4    4    0    0 -0.99818188452E-02 -0.13253922282E-01 -0.43447840269E-01  0.46511064365E-01  0.51100000000E-03 0.  1.
</event>
<event>
 8    1  0.1143957E+005  0.1043930E+01  0.7957747E-01            NaN
         13   -1    0    0    0    0  0.00000000000E+00  0.00000000000E+00  0.74505805969E-08  0.10566000000E+00  0.10566000000E+00 0.  1.
     999900   -1    0    0    0    0 -0.00000000000E+00 -0.00000000000E+00 -0.74505805969E-08  0.93827000000E+00  0.93827000000E+00 0. -1.
     999902    2    1    2    0    0 -0.21663838824E-02 -0.14094930461E-01 -0.20452216175E-01  0.10189970212E+01  0.10186919435E+01 0.  0.
     999903    2    3    3    0    0  0.51733641817E-01 -0.57875649446E-01  0.99884673776E-01  0.12809695321E+00  0.20147478019E-01 0.  0.
         14    1    1    2    0    0  0.21663838824E-02  0.14094930461E-01  0.20452216175E-01  0.24932978769E-01  0.00000000000E+00 0.  1.
     999901    1    3    3    0    0 -0.53900025700E-01  0.43780718985E-01 -0.12033688995E+00  0.89090006803E+00  0.88000000000E+00 0. -1.
        -11    1    4    4    0    0  0.38651098634E-01 -0.34649028917E-01  0.53168001207E-01  0.74307200889E-01  0.51100000000E-03 0.  1.
         11    1    4    4    0    0  0.13082543183E-01 -0.23226620529E-01  0.46716672569E-01  0.53789752317E-01  0.51100000000E-03 0. -1.
</event>
<event>
 8    1  0.1143957E+005  0.1043930E+01  0.7957747E-01            NaN
         13   -1    0    0    0    0  0.00000000000E+00  0.00000000000E+00  0.74505805969E-08  0.10566000000E+00  0.10566000000E+00 0.  1.
     999900   -1    0    0    0    0 -0.00000000000E+00 -0.00000000000E+00 -0.74505805969E-08  0.93827000000E+00  0.93827000000E+00 0.  1.
     999902    2    1    2    0    0 -0.18780550062E-01  0.72174640008E-02 -0.12924799825E-01  0.10200165875E+01  0.10197362343E+01 0.  0.
     999903    2    3    3    0    0  0.52092422018E-01 -0.11408390213E+00 -0.21774325540E-01  0.12882900135E+00  0.19850268975E-01 0.  0.
         14    1    1    2    0    0  0.18780550062E-01 -0.72174640008E-02  0.12924799825E-01  0.23913412507E-01  0.00000000000E+00 0.  1.
     999901    1    3    3    0    0 -0.70872972080E-01  0.12130136613E+00  0.88495257151E-02  0.89118758615E+00  0.88000000000E+00 0. -1.
        -11    1    4    4    0    0  0.35328365278E-01 -0.53508122716E-01 -0.11035612044E-01  0.65063495479E-01  0.51100000000E-03 0. -1.
         11    1    4    4    0    0  0.16764056740E-01 -0.60575779413E-01 -0.10738713496E-01  0.63765505867E-01  0.51100000000E-03 0.  1.
</event>
<event>
 8    1  0.1143957E+005  0.1043930E+01  0.7957747E-01            NaN
         13   -1    0    0    0    0  0.00000000000E+00  0.00000000000E+00  0.74505805969E-08  0.10566000000E+00  0.10566000000E+00 0. -1.
     999900   -1    0    0    0    0 -0.00000000000E+00 -0.00000000000E+00 -0.74505805969E-08  0.93827000000E+00  0.93827000000E+00 0.  1.
     999902    2    1    2    0    0 -0.97278162012E-02 -0.67074428805E-02  0.20816088799E-01  0.10199940490E+01  0.10197131608E+01 0.  0.
     999903    2    3    3    0    0 -0.67880401238E-01 -0.99858202800E-01  0.51315925283E-01  0.13264460979E+00  0.19541207219E-01 0.  0.
         14    1    1    2    0    0  0.97278162012E-02  0.67074428805E-02 -0.20816088799E-01  0.23935951013E-01  0.00000000000E+00 0.  1.
     999901    1    3    3    0    0  0.58152585037E-01  0.93150759919E-01 -0.30499836485E-01  0.88734943920E+00  0.88000000000E+00 0. -1.
        -11    1    4    4    0    0 -0.32993743546E-01 -0.49373386272E-01  0.35814702247E-01  0.69348917823E-01  0.51100000000E-03 0. -1.
         11    1    4    4    0    0 -0.34886657692E-01 -0.50484816528E-01  0.15501223036E-01  0.63295691966E-01  0.51100000000E-03 0.  1.
</event>
<event>
 8    1  0.1143957E+005  0.1043930E+01  0.7957747E-01            NaN
         13   -1    0    0    0    0  0.00000000000E+00  0.00000000000E+00  0.74505805969E-08  0.10566000000E+00  0.10566000000E+00 0. -1.
     999900   -1    0    0    0    0 -0.00000000000E+00 -0.00000000000E+00 -0.74505805969E-08  0.93827000000E+00  0.93827000000E+00 0. -1.
     999902    2    1    2    0    0 -0.14453422868E-01 -0.20743061361E-02  0.20087449244E-01  0.10190963576E+01  0.10187937359E+01 0.  0.
     999903    2    3    3    0    0  0.88142039359E-01 -0.68939245022E-02  0.94258685802E-01  0.13002356533E+00  0.14313713525E-01 0.  0.
         14    1    1    2    0    0  0.14453422868E-01  0.20743061361E-02 -0.20087449244E-01  0.24833642417E-01  0.00000000000E+00 0. -1.
     999901    1    3    3    0    0 -0.10259546223E+00  0.48196183661E-02 -0.74171236557E-01  0.88907279225E+00  0.88000000000E+00 0. -1.
        -11    1    4    4    0    0  0.60458124864E-01 -0.49113130645E-02  0.54589440692E-01  0.81606213085E-01  0.51100000000E-03 0. -1.
         11    1    4    4    0    0  0.27683914495E-01 -0.19826114377E-02  0.39669245110E-01  0.48417352245E-01  0.51100000000E-03 0.  1.
</event>
<event>
 8    1  0.1143957E+005  0.1043930E+01  0.7957747E-01            NaN
         13   -1    0    0    0    0  0.00000000000E+00  0.00000000000E+00  0.74505805969E-08  0.10566000000E+00  0.10566000000E+00 0. -1.
     999900   -1    0    0    0    0 -0.00000000000E+00 -0.00000000000E+00 -0.74505805969E-08  0.93827000000E+00  0.93827000000E+00 0.  1.
     999902    2    1    2    0    0  0.50841480354E-02  0.20723394568E-01 -0.10476338744E-01  0.10201589816E+01  0.10198819963E+01 0.  0.
     999903    2    3    3    0    0 -0.42755898700E-01 -0.85829528100E-01 -0.84406857133E-01  0.12936836816E+00  0.20417697731E-01 0.  0.
         14    1    1    2    0    0 -0.50841480354E-02 -0.20723394568E-01  0.10476338744E-01  0.23771018428E-01  0.00000000000E+00 0. -1.
     999901    1    3    3    0    0  0.47840046735E-01  0.10655292267E+00  0.73930518390E-01  0.89079061342E+00  0.88000000000E+00 0. -1.
        -11    1    4    4    0    0 -0.27080305588E-01 -0.31760713475E-01 -0.35910242242E-01  0.55062623349E-01  0.51100000000E-03 0. -1.
         11    1    4    4    0    0 -0.15675593111E-01 -0.54068814625E-01 -0.48496614891E-01  0.74305744806E-01  0.51100000000E-03 0.  1.
</event>
<event>
 7    1  0.1143957E+005  0.1043930E+01  0.7957747E-01            NaN
         13   -1    0    0    0    0  0.00000000000E+00  0.00000000000E+00  0.74505805969E-08  0.10566000000E+00  0.10566000000E+00 0.  1.
     999900   -1    0    0    0    0 -0.00000000000E+00 -0.00000000000E+00 -0.74505805969E-08  0.93827000000E+00  0.93827000000E+00 0. -1.
     999903    2    1    2    0    0 -0.51514741579E-01 -0.30338618203E-01 -0.89514571699E-01  0.10927486759E+00  0.18813234315E-01 0.  0.
         14    1    1    2    0    0  0.29013988605E-01  0.72958742505E-02 -0.34176794914E-01  0.45421301461E-01  0.00000000000E+00 0. -1.
     999901    1    1    2    0    0  0.22500752974E-01  0.23042743952E-01  0.12369136661E+00  0.88923383095E+00  0.88000000000E+00 0.  1.
        -11    1    3    3    0    0 -0.75838509545E-02  0.12603593384E-04 -0.21493862390E-01  0.22798293699E-01  0.51100000000E-03 0.  1.
         11    1    3    3    0    0 -0.43930890625E-01 -0.30351221796E-01 -0.68020709309E-01  0.86476573889E-01  0.51100000000E-03 0. -1.
</event>
<event>
 8    1  0.1143957E+005  0.1043930E+01  0.7957747E-01            NaN
         13   -1    0    0    0    0  0.00000000000E+00  0.00000000000E+00  0.74505805969E-08  0.10566000000E+00  0.10566000000E+00 0. -1.
     999900   -1    0    0    0    0 -0.00000000000E+00 -0.00000000000E+00 -0.74505805969E-08  0.93827000000E+00  0.93827000000E+00 0.  1.
     999902    2    1    2    0    0  0.21999542090E-02 -0.57826219509E-02 -0.23974487813E-01  0.10191700610E+01  0.10188692549E+01 0.  0.
     999903    2    3    3    0    0  0.87752451418E-01  0.50182420549E-01  0.74857589621E-01  0.12775596230E+00  0.22341869178E-01 0.  0.
         14    1    1    2    0    0 -0.21999542090E-02  0.57826219509E-02  0.23974487813E-01  0.24759939035E-01  0.00000000000E+00 0. -1.
     999901    1    3    3    0    0 -0.85552497209E-01 -0.55965042500E-01 -0.98832077434E-01  0.89141409866E+00  0.88000000000E+00 0. -1.
        -11    1    4    4    0    0  0.81429568134E-01  0.49588228308E-01  0.62942554926E-01  0.11424444536E+00  0.51100000000E-03 0.  1.
         11    1    4    4    0    0  0.63228832844E-02  0.59419224021E-03  0.11915034695E-01  0.13511516947E-01  0.51100000000E-03 0. -1.
</event>
<event>
 8    1  0.1143957E+005  0.1043930E+01  0.7957747E-01            NaN
         13   -1    0    0    0    0  0.00000000000E+00  0.00000000000E+00  0.74505805969E-08  0.10566000000E+00  0.10566000000E+00 0.  1.
     999900   -1    0    0    0    0 -0.00000000000E+00 -0.00000000000E+00 -0.74505805969E-08  0.93827000000E+00  0.93827000000E+00 0. -1.
     999902    2    1    2    0    0 -0.18160746476E-03 -0.22584151940E-01 -0.35505368385E-03  0.10213423272E+01  0.10210925258E+01 0.  0.
     999903    2    3    3    0    0 -0.10976326051E+00  0.90499309140E-02  0.68567282352E-01  0.13130910180E+00  0.20266558648E-01 0.  0.
         14    1    1    2    0    0  0.18160746476E-03  0.22584151940E-01  0.35505368385E-03  0.22587672816E-01  0.00000000000E+00 0. -1.
     999901    1    3    3    0    0  0.10958165304E+00 -0.31634082854E-01 -0.68922336036E-01  0.89003322538E+00  0.88000000000E+00 0. -1.
        -11    1    4    4    0    0 -0.81988221424E-01  0.63338864153E-02  0.61001787896E-01  0.10238977399E+00  0.51100000000E-03 0.  1.
         11    1    4    4    0    0 -0.27775039085E-01  0.27160444988E-02  0.75654944560E-02  0.28919327814E-01  0.51100000000E-03 0. -1.
</event>
<event>
 8    1  0.1143957E+005  0.1043930E+01  0.7957747E-01            NaN
         13   -1    0    0    0    0  0.00000000000E+00  0.00000000000E+00  0.74505805969E-08  0.10566000000E+00  0.10566000000E+00 0.  1.
     999900   -1    0    0    0    0 -0.00000000000E+00 -0.00000000000E+00 -0.74505805969E-08  0.93827000000E+00  0.93827000000E+00 0. -1.
     999902    2    1    2    0    0  0.68852444424E-02  0.30973443770E-02 -0.22212563365E-01  0.10204694351E+01  0.10201997206E+01 0.  0.
     999903    2    3    3    0    0  0.99558036443E-01  0.70970844505E-01  0.41492250886E-01  0.13072039086E+00  0.20434047909E-01 0.  0.
         14    1    1    2    0    0 -0.68852444424E-02 -0.30973443770E-02  0.22212563365E-01  0.23460564880E-01  0.00000000000E+00 0.  1.
     999901    1    3    3    0    0 -0.92672792000E-01 -0.67873500128E-01 -0.63704814251E-01  0.88974904426E+00  0.88000000000E+00 0. -1.
        -11    1    4    4    0    0  0.41169172194E-01  0.30490416672E-01  0.68978252734E-02  0.51695332115E-01  0.51100000000E-03 0. -1.
         11    1    4    4    0    0  0.58388864249E-01  0.40480427832E-01  0.34594425612E-01  0.79025058748E-01  0.51100000000E-03 0.  1.
</event>
<event>
 8    1  0.1143957E+005  0.1043930E+01  0.7957747E-01            NaN
         13   -1    0    0    0    0  0.00000000000E+00  0.00000000000E+00  0.74505805969E-08  0.10566000000E+00  0.10566000000E+00 0. -1.
     999900   -1    0    0    0    0 -0.00000000000E+00 -0.00000000000E+00 -0.74505805969E-08  0.93827000000E+00  0.93827000000E+00 0. -1.
     999902    2    1    2    0    0  0.10601866705E-01 -0.13123467414E-01 -0.16207729985E-01  0.10205352252E+01  0.10202670388E+01 0.  0.
     999903    2    3    3    0    0  0.43061096889E-02 -0.40923641722E-01  0.12110786739E+00  0.12943025975E+00  0.19793674845E-01 0.  0.
         14    1    1    2    0    0 -0.10601866705E-01  0.13123467414E-01  0.16207729985E-01  0.23394774755E-01  0.00000000000E+00 0. -1.
     999901    1    3    3    0    0  0.62957570159E-02  0.27800174308E-01 -0.13731559737E+00  0.89110496549E+00  0.88000000000E+00 0. -1.
        -11    1    4    4    0    0  0.25365798462E-02 -0.13165342727E-02  0.29075976341E-01  0.29220558191E-01  0.51100000000E-03 0.  1.
         11    1    4    4    0    0  0.17695298427E-02 -0.39607107449E-01  0.92031891045E-01  0.10020970156E+00  0.51100000000E-03 0. -1.
</event>
<event>
 8    1  0.1143957E+005  0.1043930E+01  0.7957747E-01            NaN
         13   -1    0    0    0    0  0.00000000000E+00  0.00000000000E+00  0.74505805969E-08  0.10566000000E+00  0.10566000000E+00 0. -1.
     999900   -1    0    0    0    0 -0.00000000000E+00 -0.00000000000E+00 -0.74505805969E-08  0.93827000000E+00  0.93827000000E+00 0.  1.
     999902    2    1    2    0    0 -0.50856660696E-02 -0.23459971174E-01  0.95629651239E-02  0.10180904073E+01  0.10177624443E+01 0.  0.
     999903    2    3    3    0    0  0.15570427518E-01 -0.47076463144E-01 -0.11689758748E+00  0.12849685731E+00  0.19691744077E-01 0.  0.
         14    1    1    2    0    0  0.50856660696E-02  0.23459971174E-01 -0.95629651239E-02  0.25839592660E-01  0.00000000000E+00 0.  1.
     999901    1    3    3    0    0 -0.20656093588E-01  0.23616491970E-01  0.12646055260E+00  0.88959355003E+00  0.88000000000E+00 0. -1.
        -11    1    4    4    0    0  0.39672544087E-02 -0.41921775091E-03 -0.35173605725E-02  0.53430138933E-02  0.51100000000E-03 0. -1.
         11    1    4    4    0    0  0.11603173109E-01 -0.46657245393E-01 -0.11338022690E+00  0.12315384341E+00  0.51100000000E-03 0.  1.
</event>
<event>
 8    1  0.1143957E+005  0.1043930E+01  0.7957747E-01            NaN
         13   -1    0    0    0    0  0.00000000000E+00  0.00000000000E+00  0.74505805969E-08  0.10566000000E+00  0.10566000000E+00 0.  1.
     999900   -1    0    0    0    0 -0.00000000000E+00 -0.00000000000E+00 -0.74505805969E-08  0.93827000000E+00  0.93827000000E+00 0.  1.
     999902    2    1    2    0    0 -0.50457552552E-02  0.21665814602E-01  0.90475209308E-02  0.10199149047E+01  0.10196321337E+01 0.  0.
     999903    2    3    3    0    0  0.34949005538E-02  0.12685133227E+00  0.35354175723E-01  0.13321936729E+00  0.19849615915E-01 0.  0.
         14    1    1    2    0    0  0.50457552552E-02 -0.21665814602E-01 -0.90475209308E-02  0.24015095325E-01  0.00000000000E+00 0. -1.
     999901    1    3    3    0    0 -0.85406558090E-02 -0.10518551767E+00 -0.26306654793E-01  0.88669553738E+00  0.88000000000E+00 0.  1.
        -11    1    4    4    0    0  0.92309427415E-02  0.92022363501E-01  0.19490792645E-01  0.94517076801E-01  0.51100000000E-03 0.  1.
         11    1    4    4    0    0 -0.57360421877E-02  0.34828968770E-01  0.15863383078E-01  0.38702290491E-01  0.51100000000E-03 0. -1.
</event>
<event>
 7    1  0.1361220E+005  0.1043930E+01  0.7957747E-01            NaN
         13   -1    0    0    0    0  0.00000000000E+00  0.00000000000E+00  0.74505805969E-08  0.10566000000E+00  0.10566000000E+00 0.  1.
     999900   -1    0    0    0    0 -0.00000000000E+00 -0.00000000000E+00 -0.74505805969E-08  0.93827000000E+00  0.93827000000E+00 0. -1.
     999903    2    1    2    0    0  0.83884723711E-01 -0.32232752300E-01  0.66913663841E-01  0.11388889370E+00  0.20436352583E-01 0.  0.
         14    1    1    2    0    0 -0.46177268323E-01 -0.10725853642E-02 -0.27240321641E-02  0.46269978392E-01  0.00000000000E+00 0. -1.
     999901    1    1    2    0    0 -0.37707455388E-01  0.33305337665E-01 -0.64189631676E-01  0.88377112791E+00  0.88000000000E+00 0. -1.
        -11    1    3    3    0    0  0.69884681559E-01 -0.29016292124E-01  0.46143619599E-01  0.88630179262E-01  0.51100000000E-03 0. -1.
         11    1    3    3    0    0  0.14000042151E-01 -0.32164601766E-02  0.20770044241E-01  0.25258714439E-01  0.51100000000E-03 0.  1.
</event>
<event>
 8    1  0.1143957E+005  0.1043930E+01  0.7957747E-01            NaN
         13   -1    0    0    0    0  0.00000000000E+00  0.00000000000E+00  0.74505805969E-08  0.10566000000E+00  0.10566000000E+00 0. -1.
     999900   -1    0    0    0    0 -0.00000000000E+00 -0.00000000000E+00 -0.74505805969E-08  0.93827000000E+00  0.93827000000E+00 0. -1.
     999902    2    1    2    0    0  0.18879388049E-01 -0.13262337135E-01  0.64334791619E-02  0.10199777447E+01  0.10196964691E+01 0.  0.
     999903    2    3    3    0    0 -0.62444123293E-01  0.27653403679E-01 -0.10654885243E+00  0.12809623991E+00  0.19799228706E-01 0.  0.
         14    1    1    2    0    0 -0.18879388049E-01  0.13262337135E-01 -0.64334791619E-02  0.23952255290E-01  0.00000000000E+00 0.  1.
     999901    1    3    3    0    0  0.81323511342E-01 -0.40915740814E-01  0.11298233159E+00  0.89188150479E+00  0.88000000000E+00 0. -1.
        -11    1    4    4    0    0 -0.42920725754E-01  0.14387015820E-01 -0.53854337913E-01  0.70354287407E-01  0.51100000000E-03 0.  1.
         11    1    4    4    0    0 -0.19523397539E-01  0.13266387859E-01 -0.52694514516E-01  0.57741952508E-01  0.51100000000E-03 0. -1.
</event>
<event>
 8    1  0.1143957E+005  0.1043930E+01  0.7957747E-01            NaN
         13   -1    0    0    0    0  0.00000000000E+00  0.00000000000E+00  0.74505805969E-08  0.10566000000E+00  0.10566000000E+00 0.  1.
     999900   -1    0    0    0    0 -0.00000000000E+00 -0.00000000000E+00 -0.74505805969E-08  0.93827000000E+00  0.93827000000E+00 0.  1.
     999902    2    1    2    0    0 -0.65570044761E-02 -0.12959103281E-01 -0.18936504190E-01  0.10200653010E+01  0.10197861023E+01 0.  0.
     999903    2    3    3    0    0  0.28754227193E-01 -0.12360939898E+00 -0.32264056400E-01  0.13233336252E+00  0.19106553904E-01 0.  0.
         14    1    1    2    0    0  0.65570044761E-02  0.12959103281E-01  0.18936504190E-01  0.23864698961E-01  0.00000000000E+00 0.  1.
     999901    1    3    3    0    0 -0.35311231669E-01  0.11065029570E+00  0.13327552210E-01  0.88773193852E+00  0.88000000000E+00 0.  1.
        -11    1    4    4    0    0  0.11561292452E-01 -0.20790002039E-01 -0.95529759074E-02  0.25639971483E-01  0.51100000000E-03 0. -1.
         11    1    4    4    0    0  0.17192934741E-01 -0.10281939694E+00 -0.22711080493E-01  0.10669339104E+00  0.51100000000E-03 0.  1.
</event>
<event>
 8    1  0.1143957E+005  0.1043930E+01  0.7957747E-01            NaN
         13   -1    0    0    0    0  0.00000000000E+00  0.00000000000E+00  0.74505805969E-08  0.10566000000E+00  0.10566000000E+00 0.  1.
     999900   -1    0    0    0    0 -0.00000000000E+00 -0.00000000000E+00 -0.74505805969E-08  0.93827000000E+00  0.93827000000E+00 0.  1.
     999902    2    1    2    0    0  0.45726731618E-02  0.16916721795E-01 -0.17061344922E-01  0.10194723978E+01  0.10191789811E+01 0.  0.
     999903    2    3    3    0    0 -0.66223692650E-01 -0.10682369830E+00  0.92728631765E-02  0.12761068905E+00  0.20040508462E-01 0.  0.
         14    1    1    2    0    0 -0.45726731618E-02 -0.16916721795E-01  0.17061344922E-01  0.24457602227E-01  0.00000000000E+00 0.  1.
     999901    1    3    3    0    0  0.70796365812E-01  0.12374042010E+00 -0.26334208098E-01  0.89186170873E+00  0.88000000000E+00 0. -1.
        -11    1    4    4    0    0 -0.57096026349E-01 -0.77382661082E-01  0.10625577293E-01  0.96753276300E-01  0.51100000000E-03 0.  1.
         11    1    4    4    0    0 -0.91276663011E-02 -0.29441037223E-01 -0.13527141163E-02  0.30857412746E-01  0.51100000000E-03 0. -1.
</event>
<event>
 8    1  0.1143957E+005  0.1043930E+01  0.7957747E-01            NaN
         13   -1    0    0    0    0  0.00000000000E+00  0.00000000000E+00  0.74505805969E-08  0.10566000000E+00  0.10566000000E+00 0. -1.
     999900   -1    0    0    0    0 -0.00000000000E+00 -0.00000000000E+00 -0.74505805969E-08  0.93827000000E+00  0.93827000000E+00 0.  1.
     999902    2    1    2    0    0  0.11110494407E-01 -0.31907387274E-02  0.18807908630E-01  0.10218537384E+01  0.10216152413E+01 0.  0.
     999903    2    3    3    0    0 -0.61490432330E-01 -0.78059737945E-01  0.86352443235E-01  0.13312513766E+00  0.19777812502E-01 0.  0.
         14    1    1    2    0    0 -0.11110494407E-01  0.31907387274E-02 -0.18807908630E-01  0.22076261609E-01  0.00000000000E+00 0.  1.
     999901    1    3    3    0    0  0.72600926737E-01  0.74868999218E-01 -0.67544534605E-01  0.88872860073E+00  0.88000000000E+00 0.  1.
        -11    1    4    4    0    0 -0.22977790214E-01 -0.30133612864E-01  0.20723077758E-01  0.43193987315E-01  0.51100000000E-03 0.  1.
         11    1    4    4    0    0 -0.38512642115E-01 -0.47926125081E-01  0.65629365477E-01  0.89931150342E-01  0.51100000000E-03 0. -1.
</event>
<event>
 8    1  0.1143957E+005  0.1043930E+01  0.7957747E-01            NaN
         13   -1    0    0    0    0  0.00000000000E+00  0.00000000000E+00  0.74505805969E-08  0.10566000000E+00  0.10566000000E+00 0.  1.
     999900   -1    0    0    0    0 -0.00000000000E+00 -0.00000000000E+00 -0.74505805969E-08  0.93827000000E+00  0.93827000000E+00 0. -1.
     999902    2    1    2    0    0  0.88377416098E-02  0.19553824175E-01  0.86043723739E-02  0.10208108966E+01  0.10205490648E+01 0.  0.
     999903    2    3    3    0    0 -0.84357625703E-01  0.96627350684E-01  0.26445805678E-01  0.13236054815E+00  0.19154115841E-01 0.  0.
         14    1    1    2    0    0 -0.88377416098E-02 -0.19553824175E-01 -0.86043723739E-02  0.23119103369E-01  0.00000000000E+00 0. -1.
     999901    1    3    3    0    0  0.93195367313E-01 -0.77073526509E-01 -0.17841433304E-01  0.88845034848E+00  0.88000000000E+00 0. -1.
        -11    1    4    4    0    0 -0.10717540869E-01  0.20326103885E-01 -0.34236289461E-03  0.22986833509E-01  0.51100000000E-03 0. -1.
         11    1    4    4    0    0 -0.73640084835E-01  0.76301246799E-01  0.26788168573E-01  0.10937371464E+00  0.51100000000E-03 0.  1.
</event>
<event>
 8    1  0.1143957E+005  0.1043930E+01  0.7957747E-01            NaN
         13   -1    0    0    0    0  0.00000000000E+00  0.00000000000E+00  0.74505805969E-08  0.10566000000E+00  0.10566000000E+00 0. -1.
     999900   -1    0    0    0    0 -0.00000000000E+00 -0.00000000000E+00 -0.74505805969E-08  0.93827000000E+00  0.93827000000E+00 0. -1.
     999902    2    1    2    0    0 -0.18443549357E-01  0.84539147213E-02  0.31591076103E-02  0.10233967794E+01  0.10231907715E+01 0.  0.
     999903    2    3    3    0    0  0.22337405323E-01  0.12095276002E+00  0.49543438228E-01  0.13408773156E+00  0.19910742095E-01 0.  0.
         14    1    1    2    0    0  0.18443549357E-01 -0.84539147213E-02 -0.31591076103E-02  0.20533220592E-01  0.00000000000E+00 0. -1.
     999901    1    3    3    0    0 -0.40780954680E-01 -0.11249884530E+00 -0.46384330618E-01  0.88930904785E+00  0.88000000000E+00 0. -1.
        -11    1    4    4    0    0  0.95599568003E-02  0.25754641499E-01  0.18573786342E-01  0.33165358325E-01  0.51100000000E-03 0. -1.
         11    1    4    4    0    0  0.12777448523E-01  0.95198118519E-01  0.30969651886E-01  0.10092237323E+00  0.51100000000E-03 0.  1.
</event>
<event>
 8    1  0.1143957E+005  0.1043930E+01  0.7957747E-01            NaN
         13   -1    0    0    0    0  0.00000000000E+00  0.00000000000E+00  0.74505805969E-08  0.10566000000E+00  0.10566000000E+00 0. -1.
     999900   -1    0    0    0    0 -0.00000000000E+00 -0.00000000000E+00 -0.74505805969E-08  0.93827000000E+00  0.93827000000E+00 0.  1.
     999902    2    1    2    0    0  0.22088213978E-01  0.12610608482E-01  0.59396833523E-02  0.10178111087E+01  0.10174759243E+01 0.  0.
     999903    2    3    3    0    0 -0.65815958635E-01  0.68460211732E-01  0.83752123767E-01  0.12826004351E+00  0.20437209301E-01 0.  0.
         14    1    1    2    0    0 -0.22088213978E-01 -0.12610608482E-01 -0.59396833523E-02  0.26118891274E-01  0.00000000000E+00 0.  1.
     999901    1    3    3    0    0  0.87904172614E-01 -0.55849603250E-01 -0.77812440414E-01  0.88955106522E+00  0.88000000000E+00 0. -1.
        -11    1    4    4    0    0 -0.45244036157E-01  0.36606584508E-01  0.41474991597E-01  0.71466781697E-01  0.51100000000E-03 0.  1.
         11    1    4    4    0    0 -0.20571922478E-01  0.31853627224E-01  0.42277132170E-01  0.56793261813E-01  0.51100000000E-03 0. -1.
</event>
<event>
 8    1  0.1143957E+005  0.1043930E+01  0.7957747E-01            NaN
         13   -1    0    0    0    0  0.00000000000E+00  0.00000000000E+00  0.74505805969E-08  0.10566000000E+00  0.10566000000E+00 0. -1.
     999900   -1    0    0    0    0 -0.00000000000E+00 -0.00000000000E+00 -0.74505805969E-08  0.93827000000E+00  0.93827000000E+00 0.  1.
     999902    2    1    2    0    0 -0.22787934639E-01  0.28454978493E-03 -0.98991080797E-02  0.10190832039E+01  0.10187802576E+01 0.  0.
     999903    2    3    3    0    0 -0.17087292183E-02  0.68836050551E-01 -0.10903006683E+00  0.13061790459E+00  0.20788456312E-01 0.  0.
         14    1    1    2    0    0  0.22787934639E-01 -0.28454978493E-03  0.98991080797E-02  0.24846796060E-01  0.00000000000E+00 0. -1.
     999901    1    3    3    0    0 -0.21079205421E-01 -0.68551500766E-01  0.99130958753E-01  0.88846529935E+00  0.88000000000E+00 0. -1.
        -11    1    4    4    0    0  0.39973490045E-02  0.39065563788E-01 -0.44697265918E-01  0.59499611551E-01  0.51100000000E-03 0. -1.
         11    1    4    4    0    0 -0.57060782227E-02  0.29770486763E-01 -0.64332800915E-01  0.71118293043E-01  0.51100000000E-03 0.  1.
</event>
<event>
 8    1  0.1143957E+005  0.1043930E+01  0.7957747E-01            NaN
         13   -1    0    0    0    0  0.00000000000E+00  0.00000000000E+00  0.74505805969E-08  0.10566000000E+00  0.10566000000E+00 0.  1.
     999900   -1    0    0    0    0 -0.00000000000E+00 -0.00000000000E+00 -0.74505805969E-08  0.93827000000E+00  0.93827000000E+00 0. -1.
     999902    2    1    2    0    0 -0.87229409733E-02  0.94823247762E-02  0.21530463528E-01  0.10188388653E+01  0.10185298564E+01 0.  0.
     999903    2    3    3    0    0  0.33670716367E-01 -0.12163316031E+00 -0.20665535020E-02  0.12780277631E+00  0.20023390374E-01 0.  0.
         14    1    1    2    0    0  0.87229409733E-02 -0.94823247762E-02 -0.21530463528E-01  0.25091134732E-01  0.00000000000E+00 0.  1.
     999901    1    3    3    0    0 -0.42393657340E-01  0.13111548508E+00  0.23597017030E-01  0.89103608896E+00  0.88000000000E+00 0. -1.
        -11    1    4    4    0    0  0.22912572714E-02 -0.34654266859E-01  0.48789475164E-02  0.35074682056E-01  0.51100000000E-03 0. -1.
         11    1    4    4    0    0  0.31379459095E-01 -0.86978893450E-01 -0.69455010185E-02  0.92728094255E-01  0.51100000000E-03 0.  1.
</event>
<event>
 8    1  0.1143957E+005  0.1043930E+01  0.7957747E-01            NaN
         13   -1    0    0    0    0  0.00000000000E+00  0.00000000000E+00  0.74505805969E-08  0.10566000000E+00  0.10566000000E+00 0.  1.
     999900   -1    0    0    0    0 -0.00000000000E+00 -0.00000000000E+00 -0.74505805969E-08  0.93827000000E+00  0.93827000000E+00 0. -1.
     999902    2    1    2    0    0 -0.11824865962E-01 -0.91279815039E-02 -0.21866053304E-01  0.10174484633E+01  0.10171037821E+01 0.  0.
     999903    2    3    3    0    0 -0.84100893200E-01  0.94511234178E-01 -0.55420449371E-02  0.12827391099E+00  0.20448676148E-01 0.  0.
         14    1    1    2    0    0  0.11824865962E-01  0.91279815039E-02  0.21866053304E-01  0.26481536747E-01  0.00000000000E+00 0.  1.
     999901    1    3    3    0    0  0.72276027238E-01 -0.10363921568E+00 -0.16324008367E-01  0.88917455226E+00  0.88000000000E+00 0. -1.
        -11    1    4    4    0    0 -0.22571731784E-01  0.40006938670E-01 -0.10065807245E-02  0.45949021135E-01  0.51100000000E-03 0. -1.
         11    1    4    4    0    0 -0.61529161416E-01  0.54504295508E-01 -0.45354642126E-02  0.82324889857E-01  0.51100000000E-03 0.  1.
</event>
<event>
 8    1  0.1143957E+005  0.1043930E+01  0.7957747E-01            NaN
         13   -1    0    0    0    0  0.00000000000E+00  0.00000000000E+00  0.74505805969E-08  0.10566000000E+00  0.10566000000E+00 0.  1.
     999900   -1    0    0    0    0 -0.00000000000E+00 -0.00000000000E+00 -0.74505805969E-08  0.93827000000E+00  0.93827000000E+00 0.  1.
     999902    2    1    2    0    0  0.84287099616E-03 -0.42045524987E-02 -0.22828720370E-01  0.10207020176E+01  0.10204376853E+01 0.  0.
     999903    2    3    3    0    0 -0.18353905400E-01  0.10217703028E-01  0.12496481892E+00  0.12805457994E+00  0.18452701128E-01 0.  0.
         14    1    1    2    0    0 -0.84287099616E-03  0.42045524987E-02  0.22828720370E-01  0.23227982413E-01  0.00000000000E+00 0.  1.
     999901    1    3    3    0    0  0.19196776396E-01 -0.14422255527E-01 -0.14779353929E+00  0.89264743764E+00  0.88000000000E+00 0.  1.
        -11    1    4    4    0    0 -0.21923823306E-01  0.85252651795E-02  0.11362167951E+00  0.11603224272E+00  0.51100000000E-03 0. -1.
         11    1    4    4    0    0  0.35699179064E-02  0.16924378489E-02  0.11343139407E-01  0.12022337225E-01  0.51100000000E-03 0.  1.
</event>
<event>
 8    1  0.1143957E+005  0.1043930E+01  0.7957747E-01            NaN
         13   -1    0    0    0    0  0.00000000000E+00  0.00000000000E+00  0.74505805969E-08  0.10566000000E+00  0.10566000000E+00 0. -1.
     999900   -1    0    0    0    0 -0.00000000000E+00 -0.00000000000E+00 -0.74505805969E-08  0.93827000000E+00  0.93827000000E+00 0.  1.
     999902    2    1    2    0    0  0.20736657665E-01 -0.69721944838E-03  0.99693496379E-02  0.10209108120E+01  0.10206512641E+01 0.  0.
     999903    2    3    3    0    0 -0.76223434046E-01 -0.52215251803E-01 -0.87545906051E-01  0.12874233452E+00  0.19335423761E-01 0.  0.
         14    1    1    2    0    0 -0.20736657665E-01  0.69721944838E-03 -0.99693496379E-02  0.23019188045E-01  0.00000000000E+00 0. -1.
     999901    1    3    3    0    0  0.96960091710E-01  0.51518032354E-01  0.97515255689E-01  0.89216847744E+00  0.88000000000E+00 0. -1.
        -11    1    4    4    0    0 -0.32535411788E-01 -0.20110824654E-01 -0.23776943918E-01  0.45040009676E-01  0.51100000000E-03 0.  1.
         11    1    4    4    0    0 -0.43688022257E-01 -0.32104427148E-01 -0.63768962133E-01  0.83702324841E-01  0.51100000000E-03 0. -1.
</event>
<event>
 8    1  0.1143957E+005  0.1043930E+01  0.7957747E-01            NaN
         13   -1    0    0    0    0  0.00000000000E+00  0.00000000000E+00  0.74505805969E-08  0.10566000000E+00  0.10566000000E+00 0. -1.
     999900   -1    0    0    0    0 -0.00000000000E+00 -0.00000000000E+00 -0.74505805969E-08  0.93827000000E+00  0.93827000000E+00 0. -1.
     999902    2    1    2    0    0  0.72669460521E-02 -0.10726016133E-01 -0.19876087243E-01  0.10202041750E+01  0.10199282543E+01 0.  0.
     999903    2    3    3    0    0  0.58734796806E-01  0.75866323892E-01  0.83102770352E-01  0.12849131870E+00  0.19961790604E-01 0.  0.
         14    1    1    2    0    0 -0.72669460521E-02  0.10726016133E-01  0.19876087243E-01  0.23725824983E-01  0.00000000000E+00 0. -1.
     999901    1    3    3    0    0 -0.51467850754E-01 -0.86592340025E-01 -0.10297885760E+00  0.89171285632E+00  0.88000000000E+00 0. -1.
        -11    1    4    4    0    0  0.12729468283E-01  0.28206758095E-01  0.34381643562E-01  0.46260340466E-01  0.51100000000E-03 0.  1.
         11    1    4    4    0    0  0.46005328523E-01  0.47659565796E-01  0.48721126790E-01  0.82230978233E-01  0.51100000000E-03 0. -1.
</event>
<event>
 8    1  0.1143957E+005  0.1043930E+01  0.7957747E-01            NaN
         13   -1    0    0    0    0  0.00000000000E+00  0.00000000000E+00  0.74505805969E-08  0.10566000000E+00  0.10566000000E+00 0. -1.
     999900   -1    0    0    0    0 -0.00000000000E+00 -0.00000000000E+00 -0.74505805969E-08  0.93827000000E+00  0.93827000000E+00 0.  1.
     999902    2    1    2    0    0 -0.12145639879E-01  0.21182093247E-01 -0.11451115067E-02  0.10194860044E+01  0.10191929180E+01 0.  0.
     999903    2    3    3    0    0  0.36530744734E-01  0.56732456414E-01 -0.11005122031E+00  0.13072632972E+00  0.20616383467E-01 0.  0.
         14    1    1    2    0    0  0.12145639879E-01 -0.21182093247E-01  0.11451115067E-02  0.24443995638E-01  0.00000000000E+00 0.  1.
     999901    1    3    3    0    0 -0.48676384614E-01 -0.35550363167E-01  0.10890610881E+00  0.88875967465E+00  0.88000000000E+00 0. -1.
        -11    1    4    4    0    0  0.27259500611E-01  0.37183360607E-01 -0.90463803187E-01  0.10153641459E+00  0.51100000000E-03 0. -1.
         11    1    4    4    0    0  0.92712441235E-02  0.19549095808E-01 -0.19587417125E-01  0.29189915127E-01  0.51100000000E-03 0.  1.
</event>
<event>
 8    1  0.1143957E+005  0.1043930E+01  0.7957747E-01            NaN
         13   -1    0    0    0    0  0.00000000000E+00  0.00000000000E+00  0.74505805969E-08  0.10566000000E+00  0.10566000000E+00 0. -1.
     999900   -1    0    0    0    0 -0.00000000000E+00 -0.00000000000E+00 -0.74505805969E-08  0.93827000000E+00  0.93827000000E+00 0.  1.
     999902    2    1    2    0    0 -0.18254936955E-01  0.25629209924E-02  0.15656782612E-01  0.10197443404E+01  0.10194574899E+01 0.  0.
     999903    2    3    3    0    0  0.80110352877E-01 -0.48854800858E-01 -0.83426158786E-01  0.12725515750E+00  0.20724163091E-01 0.  0.
         14    1    1    2    0    0  0.18254936955E-01 -0.25629209924E-02 -0.15656782612E-01  0.24185659573E-01  0.00000000000E+00 0.  1.
     999901    1    3    3    0    0 -0.98365289831E-01  0.51417721851E-01  0.99082941398E-01  0.89248918293E+00  0.88000000000E+00 0. -1.
        -11    1    4    4    0    0  0.51111580662E-01 -0.38195201064E-01 -0.65904675612E-01  0.91733060838E-01  0.51100000000E-03 0. -1.
         11    1    4    4    0    0  0.28998772215E-01 -0.10659599794E-01 -0.17521483174E-01  0.35522096663E-01  0.51100000000E-03 0.  1.
</event>
<event>
 8    1  0.1143957E+005  0.1043930E+01  0.7957747E-01            NaN
         13   -1    0    0    0    0  0.00000000000E+00  0.00000000000E+00  0.74505805969E-08  0.10566000000E+00  0.10566000000E+00 0. -1.
     999900   -1    0    0    0    0 -0.00000000000E+00 -0.00000000000E+00 -0.74505805969E-08  0.93827000000E+00  0.93827000000E+00 0. -1.
     999902    2    1    2    0    0 -0.65416300855E-02  0.21118054232E-01  0.11754717921E-01  0.10188912594E+01  0.10185835557E+01 0.  0.
     999903    2    3    3    0    0 -0.19680024004E-01  0.94356720919E-01 -0.85562841981E-01  0.13040534100E+00  0.19850916978E-01 0.  0.
         14    1    1    2    0    0  0.65416300855E-02 -0.21118054232E-01 -0.11754717921E-01  0.25038740626E-01  0.00000000000E+00 0.  1.
     999901    1    3    3    0    0  0.13138393918E-01 -0.73238666687E-01  0.97317559902E-01  0.88848591838E+00  0.88000000000E+00 0.  1.
        -11    1    4    4    0    0 -0.23441309686E-01  0.86440087485E-01 -0.76503828537E-01  0.11778998525E+00  0.51100000000E-03 0.  1.
         11    1    4    4    0    0  0.37612856821E-02  0.79166334333E-02 -0.90590134438E-02  0.12615355741E-01  0.51100000000E-03 0. -1.
</event>
<event>
 8    1  0.1143957E+005  0.1043930E+01  0.7957747E-01            NaN
         13   -1    0    0    0    0  0.00000000000E+00  0.00000000000E+00  0.74505805969E-08  0.10566000000E+00  0.10566000000E+00 0. -1.
     999900   -1    0    0    0    0 -0.00000000000E+00 -0.00000000000E+00 -0.74505805969E-08  0.93827000000E+00  0.93827000000E+00 0. -1.
     999902    2    1    2    0    0  0.38474906852E-02 -0.11491231268E-01  0.19323567396E-01  0.10211209703E+01  0.10208661930E+01 0.  0.
     999903    2    3    3    0    0 -0.15819984754E-01 -0.12164627297E+00  0.48324997017E-01  0.13356138031E+00  0.21336572527E-01 0.  0.
         14    1    1    2    0    0 -0.38474906852E-02  0.11491231268E-01 -0.19323567396E-01  0.22809029737E-01  0.00000000000E+00 0.  1.
     999901    1    3    3    0    0  0.19667475440E-01  0.11015504170E+00 -0.29001429621E-01  0.88755958996E+00  0.88000000000E+00 0. -1.
        -11    1    4    4    0    0  0.31696109995E-02 -0.82846704776E-02  0.73598376928E-02  0.11537353712E-01  0.51100000000E-03 0.  1.
         11    1    4    4    0    0 -0.18989595754E-01 -0.11336160249E+00  0.40965159324E-01  0.12202402659E+00  0.51100000000E-03 0. -1.
</event>
<event>
 8    1  0.1143957E+005  0.1043930E+01  0.7957747E-01            NaN
         13   -1    0    0    0    0  0.00000000000E+00  0.00000000000E+00  0.74505805969E-08  0.10566000000E+00  0.10566000000E+00 0. -1.
     999900   -1    0    0    0    0 -0.00000000000E+00 -0.00000000000E+00 -0.74505805969E-08  0.93827000000E+00  0.93827000000E+00 0. -1.
     999902    2    1    2    0    0 -0.24914892230E-01  0.71753672367E-02 -0.49924419154E-02  0.10175261702E+01  0.10171835355E+01 0.  0.
     999903    2    3    3    0    0  0.93372309007E-01  0.74690543503E-01 -0.36419133474E-01  0.12649429766E+00  0.19426494285E-01 0.  0.
         14    1    1    2    0    0  0.24914892230E-01 -0.71753672367E-02  0.49924419154E-02  0.26403829762E-01  0.00000000000E+00 0. -1.
     999901    1    3    3    0    0 -0.11828720124E+00 -0.67515176266E-01  0.31426691559E-01  0.89103187258E+00  0.88000000000E+00 0.  1.
        -11    1    4    4    0    0  0.56700064777E-01  0.42106884368E-01 -0.31020305008E-01  0.77138884492E-01  0.51100000000E-03 0.  1.
         11    1    4    4    0    0  0.36672244230E-01  0.32583659135E-01 -0.53988284667E-02  0.49355413171E-01  0.51100000000E-03 0. -1.
</event>
<event>
 8    1  0.1143957E+005  0.1043930E+01  0.7957747E-01            NaN
         13   -1    0    0    0    0  0.00000000000E+00  0.00000000000E+00  0.74505805969E-08  0.10566000000E+00  0.10566000000E+00 0.  1.
     999900   -1    0    0    0    0 -0.00000000000E+00 -0.00000000000E+00 -0.74505805969E-08  0.93827000000E+00  0.93827000000E+00 0.  1.
     999902    2    1    2    0    0  0.30525099518E-02  0.27327235302E-01  0.63259558965E-02  0.10157145198E+01  0.10153225460E+01 0.  0.
     999903    2    3    3    0    0  0.66934717958E-01 -0.61541497687E-01 -0.82526134135E-01  0.12449441110E+00  0.20510562515E-01 0.  0.
         14    1    1    2    0    0 -0.30525099518E-02 -0.27327235302E-01 -0.63259558965E-02  0.28215480224E-01  0.00000000000E+00 0.  1.
     999901    1    3    3    0    0 -0.63882208006E-01  0.88868732989E-01  0.88852090031E-01  0.89122010867E+00  0.88000000000E+00 0.  1.
        -11    1    4    4    0    0  0.46546657243E-01 -0.54388556850E-01 -0.64141862644E-01  0.96120476909E-01  0.51100000000E-03 0. -1.
         11    1    4    4    0    0  0.20388060715E-01 -0.71529408368E-02 -0.18384271490E-01  0.28373934193E-01  0.51100000000E-03 0.  1.
</event>
<event>
 8    1  0.1143957E+005  0.1043930E+01  0.7957747E-01            NaN
         13   -1    0    0    0    0  0.00000000000E+00  0.00000000000E+00  0.74505805969E-08  0.10566000000E+00  0.10566000000E+00 0.  1.
     999900   -1    0    0    0    0 -0.00000000000E+00 -0.00000000000E+00 -0.74505805969E-08  0.93827000000E+00  0.93827000000E+00 0. -1.
     999902    2    1    2    0    0  0.10399384848E-02 -0.20566907860E-01 -0.11700851940E-01  0.10202447914E+01  0.10199698257E+01 0.  0.
     999903    2    3    3    0    0 -0.10500939980E+00  0.71721479295E-01  0.82745536788E-02  0.12886236763E+00  0.19133659183E-01 0.  0.
         14    1    1    2    0    0 -0.10399384848E-02  0.20566907860E-01  0.11700851940E-01  0.23685208614E-01  0.00000000000E+00 0.  1.
     999901    1    3    3    0    0  0.10604933828E+00 -0.92288387156E-01 -0.19975405619E-01  0.89138242376E+00  0.88000000000E+00 0.  1.
        -11    1    4    4    0    0 -0.35795386340E-01  0.33487921339E-01  0.87054881449E-02  0.49787520562E-01  0.51100000000E-03 0.  1.
         11    1    4    4    0    0 -0.69214013459E-01  0.38233557956E-01 -0.43093446616E-03  0.79074847066E-01  0.51100000000E-03 0. -1.
</event>
<event>
 8    1  0.1143957E+005  0.1043930E+01  0.7957747E-01            NaN
         13   -1    0    0    0    0  0.00000000000E+00  0.00000000000E+00  0.74505805969E-08  0.10566000000E+00  0.10566000000E+00 0. -1.
     999900   -1    0    0    0    0 -0.00000000000E+00 -0.00000000000E+00 -0.74505805969E-08  0.93827000000E+00  0.93827000000E+00 0.  1.
     999902    2    1    2    0    0 -0.24406502047E-01  0.43086157093E-02 -0.51089833183E-02  0.10186249961E+01  0.10183106301E+01 0.  0.
     999903    2    3    3    0    0  0.46307084546E-03  0.10876132045E+00 -0.68309527932E-01  0.12984877454E+00  0.19112126598E-01 0.  0.
         14    1    1    2    0    0  0.24406502047E-01 -0.43086157093E-02  0.51089833183E-02  0.25305003893E-01  0.00000000000E+00 0. -1.
     999901    1    3    3    0    0 -0.24869572892E-01 -0.10445270474E+00  0.63200544614E-01  0.88877622157E+00  0.88000000000E+00 0. -1.
        -11    1    4    4    0    0  0.71411446861E-02  0.88890249545E-01 -0.51555781313E-01  0.10300840800E+00  0.51100000000E-03 0.  1.
         11    1    4    4    0    0 -0.66780738406E-02  0.19871070903E-01 -0.16753746619E-01  0.26840366537E-01  0.51100000000E-03 0. -1.
</event>
<event>
 8    1  0.1326160E+005  0.1043930E+01  0.7957747E-01            NaN
         13   -1    0    0    0    0  0.00000000000E+00  0.00000000000E+00  0.74505805969E-08  0.10566000000E+00  0.10566000000E+00 0.  1.
     999900   -1    0    0    0    0 -0.00000000000E+00 -0.00000000000E+00 -0.74505805969E-08  0.93827000000E+00  0.93827000000E+00 0.  1.
     999902    2    1    2    0    0  0.22122396520E-01  0.36021603211E-03  0.80859178929E-02  0.10203734245E+01  0.10201014720E+01 0.  0.
     999903    2    3    3    0    0 -0.10029579202E+00 -0.72908391608E-01 -0.25946098523E-01  0.12823404078E+00  0.19896977747E-01 0.  0.
         14    1    1    2    0    0 -0.22122396520E-01 -0.36021603211E-03 -0.80859178929E-02  0.23556575548E-01  0.00000000000E+00 0.  1.
     999901    1    3    3    0    0  0.12241818854E+00  0.73268607640E-01  0.34032016415E-01  0.89213938367E+00  0.88000000000E+00 0.  1.
        -11    1    4    4    0    0 -0.36946001710E-01 -0.22477587490E-01 -0.14638960317E-03  0.43249641994E-01  0.51100000000E-03 0.  1.
         11    1    4    4    0    0 -0.63349790310E-01 -0.50430804118E-01 -0.25799708919E-01  0.84984398789E-01  0.51100000000E-03 0. -1.
</event>
<event>
 8    1  0.1143957E+005  0.1043930E+01  0.7957747E-01            NaN
         13   -1    0    0    0    0  0.00000000000E+00  0.00000000000E+00  0.74505805969E-08  0.10566000000E+00  0.10566000000E+00 0. -1.
     999900   -1    0    0    0    0 -0.00000000000E+00 -0.00000000000E+00 -0.74505805969E-08  0.93827000000E+00  0.93827000000E+00 0. -1.
     999902    2    1    2    0    0  0.17329607337E-01  0.16218059867E-01  0.15961368760E-02  0.10201415909E+01  0.10198641954E+01 0.  0.
     999903    2    3    3    0    0 -0.12532829713E+00  0.20485073444E-01  0.38474597964E-02  0.12864029890E+00  0.20166885222E-01 0.  0.
         14    1    1    2    0    0 -0.17329607337E-01 -0.16218059867E-01 -0.15961368760E-02  0.23788409136E-01  0.00000000000E+00 0.  1.
     999901    1    3    3    0    0  0.14265790447E+00 -0.42670135765E-02 -0.22513229205E-02  0.89150129196E+00  0.88000000000E+00 0.  1.
        -11    1    4    4    0    0 -0.96698015439E-01  0.73187718575E-02  0.83065811204E-03  0.96979491261E-01  0.51100000000E-03 0.  1.
         11    1    4    4    0    0 -0.28630281691E-01  0.13166301586E-01  0.30168016844E-02  0.31660807642E-01  0.51100000000E-03 0. -1.
</event>
<event>
 8    1  0.1143957E+005  0.1043930E+01  0.7957747E-01            NaN
         13   -1    0    0    0    0  0.00000000000E+00  0.00000000000E+00  0.74505805969E-08  0.10566000000E+00  0.10566000000E+00 0. -1.
     999900   -1    0    0    0    0 -0.00000000000E+00 -0.00000000000E+00 -0.74505805969E-08  0.93827000000E+00  0.93827000000E+00 0. -1.
     999902    2    1    2    0    0  0.16577969924E-01 -0.72975666605E-02 -0.14595586869E-01  0.10206681273E+01  0.10204030142E+01 0.  0.
     999903    2    3    3    0    0 -0.19617605793E-01 -0.12428880788E+00 -0.34692849398E-01  0.13196065563E+00  0.19428397090E-01 0.  0.
         14    1    1    2    0    0 -0.16577969924E-01  0.72975666605E-02  0.14595586869E-01  0.23261872711E-01  0.00000000000E+00 0. -1.
     999901    1    3    3    0    0  0.36195575716E-01  0.11699124122E+00  0.20097262528E-01  0.88870747166E+00  0.88000000000E+00 0. -1.
        -11    1    4    4    0    0 -0.69811694122E-02 -0.72556585612E-01 -0.11181782560E-01  0.73746106503E-01  0.51100000000E-03 0.  1.
         11    1    4    4    0    0 -0.12636436381E-01 -0.51732222268E-01 -0.23511066838E-01  0.58214549126E-01  0.51100000000E-03 0. -1.
</event>
<event>
 8    1  0.1143957E+005  0.1043930E+01  0.7957747E-01            NaN
         13   -1    0    0    0    0  0.00000000000E+00  0.00000000000E+00  0.74505805969E-08  0.10566000000E+00  0.10566000000E+00 0. -1.
     999900   -1    0    0    0    0 -0.00000000000E+00 -0.00000000000E+00 -0.74505805969E-08  0.93827000000E+00  0.93827000000E+00 0. -1.
     999902    2    1    2    0    0 -0.23770180173E-01 -0.11932867832E-02 -0.44933319513E-02  0.10197094420E+01  0.10194217531E+01 0.  0.
     999903    2    3    3    0    0  0.60340911334E-01  0.65400055582E-01 -0.91126552572E-01  0.12897117297E+00  0.20281075492E-01 0.  0.
         14    1    1    2    0    0  0.23770180173E-01  0.11932867832E-02  0.44933319513E-02  0.24220558021E-01  0.00000000000E+00 0. -1.
     999901    1    3    3    0    0 -0.84111091507E-01 -0.66593342365E-01  0.86633220621E-01  0.89073826901E+00  0.88000000000E+00 0.  1.
        -11    1    4    4    0    0  0.52348507729E-01  0.46633706662E-01 -0.63240584715E-01  0.94417697147E-01  0.51100000000E-03 0.  1.
         11    1    4    4    0    0  0.79924036043E-02  0.18766348920E-01 -0.27885967857E-01  0.34553475823E-01  0.51100000000E-03 0. -1.
</event>
<event>
 8    1  0.1143957E+005  0.1043930E+01  0.7957747E-01            NaN
         13   -1    0    0    0    0  0.00000000000E+00  0.00000000000E+00  0.74505805969E-08  0.10566000000E+00  0.10566000000E+00 0.  1.
     999900   -1    0    0    0    0 -0.00000000000E+00 -0.00000000000E+00 -0.74505805969E-08  0.93827000000E+00  0.93827000000E+00 0.  1.
     999902    2    1    2    0    0 -0.78174542721E-02  0.18213208071E-01 -0.10622483736E-01  0.10214428770E+01  0.10211953194E+01 0.  0.
     999903    2    3    3    0    0  0.83555333363E-01 -0.55524626678E-01 -0.81359979795E-01  0.13083070107E+00  0.20802599083E-01 0.  0.
         14    1    1    2    0    0  0.78174542721E-02 -0.18213208071E-01  0.10622483736E-01  0.22487122987E-01  0.00000000000E+00 0. -1.
     999901    1    3    3    0    0 -0.91372787635E-01  0.73737834748E-01  0.70737496059E-01  0.89061217595E+00  0.88000000000E+00 0.  1.
        -11    1    4    4    0    0  0.52608853432E-01 -0.44122451046E-01 -0.47049790626E-01  0.83237167568E-01  0.51100000000E-03 0. -1.
         11    1    4    4    0    0  0.30946479931E-01 -0.11402175632E-01 -0.34310189168E-01  0.47593533500E-01  0.51100000000E-03 0.  1.
</event>
<event>
 8    1  0.1143957E+005  0.1043930E+01  0.7957747E-01            NaN
         13   -1    0    0    0    0  0.00000000000E+00  0.00000000000E+00  0.74505805969E-08  0.10566000000E+00  0.10566000000E+00 0.  1.
     999900   -1    0    0    0    0 -0.00000000000E+00 -0.00000000000E+00 -0.74505805969E-08  0.93827000000E+00  0.93827000000E+00 0.  1.
     999902    2    1    2    0    0 -0.71000719822E-02  0.22865263000E-02  0.19499253453E-01  0.10230527370E+01  0.10228396955E+01 0.  0.
     999903    2    3    3    0    0  0.66129324101E-01  0.97311743190E-01 -0.55849990842E-01  0.13172235780E+00  0.19720425900E-01 0.  0.
         14    1    1    2    0    0  0.71000719822E-02 -0.22865263000E-02 -0.19499253453E-01  0.20877262989E-01  0.00000000000E+00 0. -1.
     999901    1    3    3    0    0 -0.73229396083E-01 -0.95025216890E-01  0.75349244295E-01  0.89133037921E+00  0.88000000000E+00 0. -1.
        -11    1    4    4    0    0  0.34462650239E-01  0.50644711361E-01 -0.39910825532E-01  0.73114267869E-01  0.51100000000E-03 0.  1.
         11    1    4    4    0    0  0.31666673862E-01  0.46667031829E-01 -0.15939165310E-01  0.58608089928E-01  0.51100000000E-03 0. -1.
</event>
<event>
 8    1  0.1143957E+005  0.1043930E+01  0.7957747E-01            NaN
         13   -1    0    0    0    0  0.00000000000E+00  0.00000000000E+00  0.74505805969E-08  0.10566000000E+00  0.10566000000E+00 0.  1.
     999900   -1    0    0    0    0 -0.00000000000E+00 -0.00000000000E+00 -0.74505805969E-08  0.93827000000E+00  0.93827000000E+00 0.  1.
     999902    2    1    2    0    0 -0.15414271659E-01  0.49952899545E-02  0.18617672994E-01  0.10192486216E+01  0.10189497447E+01 0.  0.
     999903    2    3    3    0    0  0.91348414073E-01 -0.29973848451E-01  0.84800120920E-01  0.12964127668E+00  0.19308955607E-01 0.  0.
         14    1    1    2    0    0  0.15414271659E-01 -0.49952899545E-02 -0.18617672994E-01  0.24681378410E-01  0.00000000000E+00 0. -1.
     999901    1    3    3    0    0 -0.10676268573E+00  0.34969138405E-01 -0.66182447925E-01  0.88960734491E+00  0.88000000000E+00 0. -1.
        -11    1    4    4    0    0  0.57871570527E-01 -0.28226405648E-01  0.52397486696E-01  0.83015699625E-01  0.51100000000E-03 0.  1.
         11    1    4    4    0    0  0.33476843545E-01 -0.17474428028E-02  0.32402634223E-01  0.46625577055E-01  0.51100000000E-03 0. -1.
</event>
<event>
 8    1  0.1143957E+005  0.1043930E+01  0.7957747E-01            NaN
         13   -1    0    0    0    0  0.00000000000E+00  0.00000000000E+00  0.74505805969E-08  0.10566000000E+00  0.10566000000E+00 0.  1.
     999900   -1    0    0    0    0 -0.00000000000E+00 -0.00000000000E+00 -0.74505805969E-08  0.93827000000E+00  0.93827000000E+00 0.  1.
     999902    2    1    2    0    0  0.90726351409E-02 -0.89744715888E-02 -0.19601756347E-01  0.10205402009E+01  0.10202721299E+01 0.  0.
     999903    2    3    3    0    0  0.65225793966E-02  0.98246521833E-01 -0.84815615224E-01  0.13163318014E+00  0.20944747179E-01 0.  0.
         14    1    1    2    0    0 -0.90726351409E-02  0.89744715888E-02  0.19601756347E-01  0.23389799071E-01  0.00000000000E+00 0.  1.
     999901    1    3    3    0    0  0.25500557442E-02 -0.10722099342E+00  0.65213858877E-01  0.88890702079E+00  0.88000000000E+00 0. -1.
        -11    1    4    4    0    0  0.12533029924E-01  0.82661494576E-01 -0.74568754552E-01  0.11203017362E+00  0.51100000000E-03 0.  1.
         11    1    4    4    0    0 -0.60104505274E-02  0.15585027257E-01 -0.10246860672E-01  0.19603006524E-01  0.51100000000E-03 0. -1.
</event>
<event>
 8    1  0.1143957E+005  0.1043930E+01  0.7957747E-01            NaN
         13   -1    0    0    0    0  0.00000000000E+00  0.00000000000E+00  0.74505805969E-08  0.10566000000E+00  0.10566000000E+00 0.  1.
     999900   -1    0    0    0    0 -0.00000000000E+00 -0.00000000000E+00 -0.74505805969E-08  0.93827000000E+00  0.93827000000E+00 0.  1.
     999902    2    1    2    0    0 -0.11867657033E-01  0.20175533785E-01 -0.68796391578E-02  0.10195328100E+01  0.10192408585E+01 0.  0.
     999903    2    3    3    0    0  0.29001119345E-01  0.54720202695E-01  0.11250062399E+00  0.12986138844E+00  0.19293115472E-01 0.  0.
         14    1    1    2    0    0  0.11867657033E-01 -0.20175533785E-01  0.68796391578E-02  0.24397190041E-01  0.00000000000E+00 0. -1.
     999901    1    3    3    0    0 -0.40868776378E-01 -0.34544668910E-01 -0.11938026315E+00  0.88967142152E+00  0.88000000000E+00 0.  1.
        -11    1    4    4    0    0  0.58514692564E-02  0.26174905087E-01  0.60513835257E-01  0.66193283098E-01  0.51100000000E-03 0.  1.
         11    1    4    4    0    0  0.23149650089E-01  0.28545297608E-01  0.51986788731E-01  0.63668105346E-01  0.51100000000E-03 0. -1.
</event>
<event>
 8    1  0.1143957E+005  0.1043930E+01  0.7957747E-01            NaN
         13   -1    0    0    0    0  0.00000000000E+00  0.00000000000E+00  0.74505805969E-08  0.10566000000E+00  0.10566000000E+00 0.  1.
     999900   -1    0    0    0    0 -0.00000000000E+00 -0.00000000000E+00 -0.74505805969E-08  0.93827000000E+00  0.93827000000E+00 0.  1.
     999902    2    1    2    0    0 -0.19852959942E-01 -0.57363113219E-02  0.11015259620E-01  0.10205124589E+01  0.10202437442E+01 0.  0.
     999903    2    3    3    0    0 -0.38801255688E-01 -0.11364511158E+00  0.52973256923E-01  0.13272654969E+00  0.19733783581E-01 0.  0.
         14    1    1    2    0    0  0.19852959942E-01  0.57363113219E-02 -0.11015259620E-01  0.23417541086E-01  0.00000000000E+00 0. -1.
     999901    1    3    3    0    0  0.18948295746E-01  0.10790880026E+00 -0.41957997303E-01  0.88778590923E+00  0.88000000000E+00 0. -1.
        -11    1    4    4    0    0 -0.16413073980E-01 -0.35556788009E-01  0.83652835516E-02  0.40048885888E-01  0.51100000000E-03 0.  1.
         11    1    4    4    0    0 -0.22388181708E-01 -0.78088323568E-01  0.44607973371E-01  0.92677663799E-01  0.51100000000E-03 0. -1.
</event>
<event>
 8    1  0.1143957E+005  0.1043930E+01  0.7957747E-01            NaN
         13   -1    0    0    0    0  0.00000000000E+00  0.00000000000E+00  0.74505805969E-08  0.10566000000E+00  0.10566000000E+00 0.  1.
     999900   -1    0    0    0    0 -0.00000000000E+00 -0.00000000000E+00 -0.74505805969E-08  0.93827000000E+00  0.93827000000E+00 0. -1.
     999902    2    1    2    0    0 -0.16238769965E-01  0.47086380565E-02 -0.16025977685E-01  0.10206340587E+01  0.10203681594E+01 0.  0.
     999903    2    3    3    0    0  0.74984916040E-01  0.85267335949E-01  0.57736103214E-01  0.12920133025E+00  0.21593283933E-01 0.  0.
         14    1    1    2    0    0  0.16238769965E-01 -0.47086380565E-02  0.16025977685E-01  0.23295941343E-01  0.00000000000E+00 0. -1.
     999901    1    3    3    0    0 -0.91223686005E-01 -0.80558697892E-01 -0.73762080899E-01  0.89143272841E+00  0.88000000000E+00 0. -1.
        -11    1    4    4    0    0  0.60855761949E-01  0.54380642519E-01  0.40777530212E-01  0.91234566554E-01  0.51100000000E-03 0. -1.
         11    1    4    4    0    0  0.14129154091E-01  0.30886693430E-01  0.16958573001E-01  0.37966763697E-01  0.51100000000E-03 0.  1.
</event>
<event>
 8    1  0.1143957E+005  0.1043930E+01  0.7957747E-01            NaN
         13   -1    0    0    0    0  0.00000000000E+00  0.00000000000E+00  0.74505805969E-08  0.10566000000E+00  0.10566000000E+00 0.  1.
     999900   -1    0    0    0    0 -0.00000000000E+00 -0.00000000000E+00 -0.74505805969E-08  0.93827000000E+00  0.93827000000E+00 0. -1.
     999902    2    1    2    0    0  0.17733640613E-02 -0.21589557134E-01 -0.99396304611E-02  0.10200961994E+01  0.10198177317E+01 0.  0.
     999903    2    3    3    0    0  0.91591370922E-02  0.52526742626E-01  0.11481882775E+00  0.12818115388E+00  0.20102152140E-01 0.  0.
         14    1    1    2    0    0 -0.17733640613E-02  0.21589557134E-01  0.99396304611E-02  0.23833800600E-01  0.00000000000E+00 0. -1.
     999901    1    3    3    0    0 -0.73857730309E-02 -0.74116299760E-01 -0.12475845821E+00  0.89191504552E+00  0.88000000000E+00 0. -1.
        -11    1    4    4    0    0 -0.19957163150E-02  0.35378879409E-01  0.60223861006E-01  0.69877196190E-01  0.51100000000E-03 0. -1.
         11    1    4    4    0    0  0.11154853407E-01  0.17147863217E-01  0.54594966743E-01  0.58303957689E-01  0.51100000000E-03 0.  1.
</event>
<event>
 8    1  0.1143957E+005  0.1043930E+01  0.7957747E-01            NaN
         13   -1    0    0    0    0  0.00000000000E+00  0.00000000000E+00  0.74505805969E-08  0.10566000000E+00  0.10566000000E+00 0. -1.
     999900   -1    0    0    0    0 -0.00000000000E+00 -0.00000000000E+00 -0.74505805969E-08  0.93827000000E+00  0.93827000000E+00 0.  1.
     999902    2    1    2    0    0 -0.16556708408E-01 -0.11446858577E-01 -0.11114387527E-01  0.10209368537E+01  0.10206778995E+01 0.  0.
     999903    2    3    3    0    0 -0.99375553039E-01 -0.18997424024E-01  0.82573389037E-01  0.13206488797E+00  0.19656230465E-01 0.  0.
         14    1    1    2    0    0  0.16556708408E-01  0.11446858577E-01  0.11114387527E-01  0.22993146254E-01  0.00000000000E+00 0.  1.
     999901    1    3    3    0    0  0.82818844631E-01  0.75505654473E-02 -0.93687776564E-01  0.88887196578E+00  0.88000000000E+00 0.  1.
        -11    1    4    4    0    0 -0.63944304415E-01 -0.25635394152E-02  0.50437481486E-01  0.81484025803E-01  0.51100000000E-03 0.  1.
         11    1    4    4    0    0 -0.35431248624E-01 -0.16433884609E-01  0.32135907552E-01  0.50580862167E-01  0.51100000000E-03 0. -1.
</event>
<event>
 8    1  0.1143957E+005  0.1043930E+01  0.7957747E-01            NaN
         13   -1    0    0    0    0  0.00000000000E+00  0.00000000000E+00  0.74505805969E-08  0.10566000000E+00  0.10566000000E+00 0.  1.
     999900   -1    0    0    0    0 -0.00000000000E+00 -0.00000000000E+00 -0.74505805969E-08  0.93827000000E+00  0.93827000000E+00 0. -1.
     999902    2    1    2    0    0  0.20614432904E-01 -0.72451343212E-02 -0.95384269903E-02  0.10200882634E+01  0.10198096081E+01 0.  0.
     999903    2    3    3    0    0 -0.10784127632E+00  0.50352496877E-01  0.40603145483E-01  0.12748951051E+00  0.20972483082E-01 0.  0.
         14    1    1    2    0    0 -0.20614432904E-01  0.72451343212E-02  0.95384269903E-02  0.23841736613E-01  0.00000000000E+00 0.  1.
     999901    1    3    3    0    0  0.12845570922E+00 -0.57597631198E-01 -0.50141572473E-01  0.89259875288E+00  0.88000000000E+00 0. -1.
        -11    1    4    4    0    0 -0.66815336035E-01  0.39787312682E-01  0.32843140211E-01  0.84417133094E-01  0.51100000000E-03 0.  1.
         11    1    4    4    0    0 -0.41025940283E-01  0.10565184195E-01  0.77600052717E-02  0.43072377413E-01  0.51100000000E-03 0. -1.
</event>
<event>
 8    1  0.1143957E+005  0.1043930E+01  0.7957747E-01            NaN
         13   -1    0    0    0    0  0.00000000000E+00  0.00000000000E+00  0.74505805969E-08  0.10566000000E+00  0.10566000000E+00 0.  1.
     999900   -1    0    0    0    0 -0.00000000000E+00 -0.00000000000E+00 -0.74505805969E-08  0.93827000000E+00  0.93827000000E+00 0. -1.
     999902    2    1    2    0    0 -0.15198919023E-01  0.60397033880E-02  0.17414642696E-01  0.10200395220E+01  0.10197597127E+01 0.  0.
     999903    2    3    3    0    0 -0.33070969256E-01 -0.27599286249E-01  0.12436778585E+00  0.13274590287E+00  0.17283488124E-01 0.  0.
         14    1    1    2    0    0  0.15198919023E-01 -0.60397033880E-02 -0.17414642696E-01  0.23890477951E-01  0.00000000000E+00 0. -1.
     999901    1    3    3    0    0  0.17872050233E-01  0.33638989637E-01 -0.10695314316E+00  0.88729361918E+00  0.88000000000E+00 0. -1.
        -11    1    4    4    0    0 -0.87078174655E-02 -0.13024296655E-01  0.66025664641E-01  0.67860945327E-01  0.51100000000E-03 0. -1.
         11    1    4    4    0    0 -0.24363151790E-01 -0.14574989593E-01  0.58342121213E-01  0.64884957544E-01  0.51100000000E-03 0.  1.
</event>
<event>
 8    1  0.1143957E+005  0.1043930E+01  0.7957747E-01            NaN
         13   -1    0    0    0    0  0.00000000000E+00  0.00000000000E+00  0.74505805969E-08  0.10566000000E+00  0.10566000000E+00 0.  1.
     999900   -1    0    0    0    0 -0.00000000000E+00 -0.00000000000E+00 -0.74505805969E-08  0.93827000000E+00  0.93827000000E+00 0. -1.
     999902    2    1    2    0    0 -0.30015090213E-01 -0.11470614160E-01 -0.11173294615E-01  0.10099105476E+01  0.10093374020E+01 0.  0.
     999903    2    3    3    0    0 -0.11145421277E-01  0.73654627045E-01  0.91483887700E-01  0.11966290329E+00  0.20017098073E-01 0.  0.
         14    1    1    2    0    0  0.30015090213E-01  0.11470614160E-01  0.11173294615E-01  0.34019452410E-01  0.00000000000E+00 0.  1.
     999901    1    3    3    0    0 -0.18869668936E-01 -0.85125241205E-01 -0.10265718231E+00  0.89024764430E+00  0.88000000000E+00 0. -1.
        -11    1    4    4    0    0 -0.10458112229E-01  0.52615658936E-01  0.50949866436E-01  0.73986010079E-01  0.51100000000E-03 0. -1.
         11    1    4    4    0    0 -0.68730904849E-03  0.21038968109E-01  0.40534021264E-01  0.45676893214E-01  0.51100000000E-03 0.  1.
</event>
<event>
 8    1  0.1143957E+005  0.1043930E+01  0.7957747E-01            NaN
         13   -1    0    0    0    0  0.00000000000E+00  0.00000000000E+00  0.74505805969E-08  0.10566000000E+00  0.10566000000E+00 0.  1.
     999900   -1    0    0    0    0 -0.00000000000E+00 -0.00000000000E+00 -0.74505805969E-08  0.93827000000E+00  0.93827000000E+00 0. -1.
     999902    2    1    2    0    0  0.23977541243E-04  0.16284519846E-01 -0.17497420326E-01  0.10200271575E+01  0.10197470550E+01 0.  0.
     999903    2    3    3    0    0 -0.64769489497E-01  0.32556188379E-01 -0.10928526822E+00  0.13273466368E+00  0.20499485844E-01 0.  0.
         14    1    1    2    0    0 -0.23977541243E-04 -0.16284519846E-01  0.17497420326E-01  0.23902842501E-01  0.00000000000E+00 0.  1.
     999901    1    3    3    0    0  0.64793467038E-01 -0.16271668533E-01  0.91787847898E-01  0.88729249382E+00  0.88000000000E+00 0. -1.
        -11    1    4    4    0    0 -0.32646090778E-01  0.63316724384E-02 -0.57070501073E-01  0.66054224184E-01  0.51100000000E-03 0.  1.
         11    1    4    4    0    0 -0.32123398719E-01  0.26224515940E-01 -0.52214767152E-01  0.66680439495E-01  0.51100000000E-03 0. -1.
</event>
<event>
 8    1  0.1143957E+005  0.1043930E+01  0.7957747E-01            NaN
         13   -1    0    0    0    0  0.00000000000E+00  0.00000000000E+00  0.74505805969E-08  0.10566000000E+00  0.10566000000E+00 0.  1.
     999900   -1    0    0    0    0 -0.00000000000E+00 -0.00000000000E+00 -0.74505805969E-08  0.93827000000E+00  0.93827000000E+00 0. -1.
     999902    2    1    2    0    0  0.18763239756E-01 -0.13142232359E-01 -0.59806050651E-02  0.10202541669E+01  0.10199794213E+01 0.  0.
     999903    2    3    3    0    0 -0.13228013743E-01 -0.97257705361E-01  0.84428767269E-01  0.13105637801E+00  0.20335089769E-01 0.  0.
         14    1    1    2    0    0 -0.18763239756E-01  0.13142232359E-01  0.59806050651E-02  0.23675833131E-01  0.00000000000E+00 0.  1.
     999901    1    3    3    0    0  0.31991253499E-01  0.84115473002E-01 -0.90409372334E-01  0.88919778885E+00  0.88000000000E+00 0. -1.
        -11    1    4    4    0    0 -0.43795398940E-02 -0.54805943414E-01  0.34443409740E-01  0.64880516326E-01  0.51100000000E-03 0.  1.
         11    1    4    4    0    0 -0.88484738493E-02 -0.42451761946E-01  0.49985357529E-01  0.66175861688E-01  0.51100000000E-03 0. -1.
</event>
<event>
 8    1  0.1143957E+005  0.1043930E+01  0.7957747E-01            NaN
         13   -1    0    0    0    0  0.00000000000E+00  0.00000000000E+00  0.74505805969E-08  0.10566000000E+00  0.10566000000E+00 0.  1.
     999900   -1    0    0    0    0 -0.00000000000E+00 -0.00000000000E+00 -0.74505805969E-08  0.93827000000E+00  0.93827000000E+00 0. -1.
     999902    2    1    2    0    0 -0.52604000356E-02 -0.17002345496E-01 -0.14571896831E-01  0.10209280058E+01  0.10206688499E+01 0.  0.
     999903    2    3    3    0    0 -0.56995199667E-02 -0.13128357473E+00  0.45429930751E-02  0.13333250602E+00  0.22114629861E-01 0.  0.
         14    1    1    2    0    0  0.52604000356E-02  0.17002345496E-01  0.14571896831E-01  0.23001994221E-01  0.00000000000E+00 0.  1.
     999901    1    3    3    0    0  0.43911993113E-03  0.11428122923E+00 -0.19114889906E-01  0.88759549976E+00  0.88000000000E+00 0. -1.
        -11    1    4    4    0    0  0.80564156067E-02 -0.43826901516E-01 -0.15366182232E-02  0.44590643026E-01  0.51100000000E-03 0.  1.
         11    1    4    4    0    0 -0.13755935573E-01 -0.87456673211E-01  0.60796112983E-02  0.88741862991E-01  0.51100000000E-03 0. -1.
</event>
<event>
 8    1  0.1143957E+005  0.1043930E+01  0.7957747E-01            NaN
         13   -1    0    0    0    0  0.00000000000E+00  0.00000000000E+00  0.74505805969E-08  0.10566000000E+00  0.10566000000E+00 0.  1.
     999900   -1    0    0    0    0 -0.00000000000E+00 -0.00000000000E+00 -0.74505805969E-08  0.93827000000E+00  0.93827000000E+00 0.  1.
     999902    2    1    2    0    0  0.23192174001E-02 -0.15596764818E-01  0.17510331882E-01  0.10203662659E+01  0.10200941462E+01 0.  0.
     999903    2    3    3    0    0  0.11159326213E+00  0.16811685319E-01 -0.60446520364E-01  0.12959783623E+00  0.20152627973E-01 0.  0.
         14    1    1    2    0    0 -0.23192174001E-02  0.15596764818E-01 -0.17510331882E-01  0.23563734100E-01  0.00000000000E+00 0. -1.
     999901    1    3    3    0    0 -0.10927404473E+00 -0.32408450136E-01  0.77956852245E-01  0.89076842967E+00  0.88000000000E+00 0. -1.
        -11    1    4    4    0    0  0.21286216740E-01  0.61193360115E-02 -0.20812913527E-01  0.30397167414E-01  0.51100000000E-03 0. -1.
         11    1    4    4    0    0  0.90307045390E-01  0.10692349307E-01 -0.39633606837E-01  0.99200668812E-01  0.51100000000E-03 0.  1.
</event>
<event>
 8    1  0.1143957E+005  0.1043930E+01  0.7957747E-01            NaN
         13   -1    0    0    0    0  0.00000000000E+00  0.00000000000E+00  0.74505805969E-08  0.10566000000E+00  0.10566000000E+00 0. -1.
     999900   -1    0    0    0    0 -0.00000000000E+00 -0.00000000000E+00 -0.74505805969E-08  0.93827000000E+00  0.93827000000E+00 0.  1.
     999902    2    1    2    0    0 -0.41823003135E-03  0.23310397300E-01 -0.98252233707E-03  0.10205951572E+01  0.10203283589E+01 0.  0.
     999903    2    3    3    0    0  0.12105467072E+00  0.42359470988E-01  0.21331712492E-01  0.13176645722E+00  0.21419598593E-01 0.  0.
         14    1    1    2    0    0  0.41823003135E-03 -0.23310397300E-01  0.98252233707E-03  0.23334842806E-01  0.00000000000E+00 0. -1.
     999901    1    3    3    0    0 -0.12147290075E+00 -0.19049073688E-01 -0.22314234829E-01  0.88882869998E+00  0.88000000000E+00 0. -1.
        -11    1    4    4    0    0  0.44748351716E-01  0.20532875634E-01  0.17677542460E-01  0.52314152880E-01  0.51100000000E-03 0. -1.
         11    1    4    4    0    0  0.76306319006E-01  0.21826595354E-01  0.36541700322E-02  0.79452304338E-01  0.51100000000E-03 0.  1.
</event>
<event>
 8    1  0.1143957E+005  0.1043930E+01  0.7957747E-01            NaN
         13   -1    0    0    0    0  0.00000000000E+00  0.00000000000E+00  0.74505805969E-08  0.10566000000E+00  0.10566000000E+00 0. -1.
     999900   -1    0    0    0    0 -0.00000000000E+00 -0.00000000000E+00 -0.74505805969E-08  0.93827000000E+00  0.93827000000E+00 0. -1.
     999902    2    1    2    0    0  0.70994854343E-02  0.12923295927E-01  0.18753611562E-01  0.10200739270E+01  0.10197949325E+01 0.  0.
     999903    2    3    3    0    0 -0.22055226666E-03  0.12384916781E+00  0.43333352436E-01  0.13273955056E+00  0.20083421956E-01 0.  0.
         14    1    1    2    0    0 -0.70994854343E-02 -0.12923295927E-01 -0.18753611562E-01  0.23856072973E-01  0.00000000000E+00 0. -1.
     999901    1    3    3    0    0  0.73200377010E-02 -0.11092587189E+00 -0.24579740874E-01  0.88733437647E+00  0.88000000000E+00 0.  1.
        -11    1    4    4    0    0 -0.37808934357E-02  0.91242533995E-01  0.23105071419E-01  0.94199790930E-01  0.51100000000E-03 0. -1.
         11    1    4    4    0    0  0.35603411691E-02  0.32606633817E-01  0.20228281017E-01  0.38539759626E-01  0.51100000000E-03 0.  1.
</event>
<event>
 8    1  0.1143957E+005  0.1043930E+01  0.7957747E-01            NaN
         13   -1    0    0    0    0  0.00000000000E+00  0.00000000000E+00  0.74505805969E-08  0.10566000000E+00  0.10566000000E+00 0. -1.
     999900   -1    0    0    0    0 -0.00000000000E+00 -0.00000000000E+00 -0.74505805969E-08  0.93827000000E+00  0.93827000000E+00 0.  1.
     999902    2    1    2    0    0  0.16615445526E-01  0.18362204930E-02  0.11169913647E-01  0.10238249830E+01  0.10236275613E+01 0.  0.
     999903    2    3    3    0    0  0.72815712567E-01 -0.52453184032E-01 -0.97192241693E-01  0.13374174752E+00  0.19673806772E-01 0.  0.
         14    1    1    2    0    0 -0.16615445526E-01 -0.18362204930E-02 -0.11169913647E-01  0.20105016951E-01  0.00000000000E+00 0. -1.
     999901    1    3    3    0    0 -0.56200267041E-01  0.54289404525E-01  0.10836215534E+00  0.89008323553E+00  0.88000000000E+00 0.  1.
        -11    1    4    4    0    0  0.60051947541E-01 -0.46299619969E-01 -0.90480499386E-01  0.11805453444E+00  0.51100000000E-03 0. -1.
         11    1    4    4    0    0  0.12763765026E-01 -0.61535640622E-02 -0.67117423075E-02  0.15687213076E-01  0.51100000000E-03 0.  1.
</event>
<event>
 8    1  0.1143957E+005  0.1043930E+01  0.7957747E-01            NaN
         13   -1    0    0    0    0  0.00000000000E+00  0.00000000000E+00  0.74505805969E-08  0.10566000000E+00  0.10566000000E+00 0. -1.
     999900   -1    0    0    0    0 -0.00000000000E+00 -0.00000000000E+00 -0.74505805969E-08  0.93827000000E+00  0.93827000000E+00 0. -1.
     999902    2    1    2    0    0  0.21529071055E-01  0.19603291212E-01  0.13872758998E-01  0.10116771960E+01  0.10111629470E+01 0.  0.
     999903    2    3    3    0    0  0.66520639695E-02 -0.92825616319E-01 -0.73351715313E-01  0.12012254619E+00  0.19700430559E-01 0.  0.
         14    1    1    2    0    0 -0.21529071055E-01 -0.19603291212E-01 -0.13872758998E-01  0.32252804049E-01  0.00000000000E+00 0. -1.
     999901    1    3    3    0    0  0.14877007085E-01  0.11242890753E+00  0.87224474311E-01  0.89155464976E+00  0.88000000000E+00 0.  1.
        -11    1    4    4    0    0  0.12910361071E-01 -0.44220848199E-01 -0.37441152550E-01  0.59365493881E-01  0.51100000000E-03 0.  1.
         11    1    4    4    0    0 -0.62582971012E-02 -0.48604768120E-01 -0.35910562763E-01  0.60757052311E-01  0.51100000000E-03 0. -1.
</event>
<event>
 8    1  0.1143957E+005  0.1043930E+01  0.7957747E-01            NaN
         13   -1    0    0    0    0  0.00000000000E+00  0.00000000000E+00  0.74505805969E-08  0.10566000000E+00  0.10566000000E+00 0.  1.
     999900   -1    0    0    0    0 -0.00000000000E+00 -0.00000000000E+00 -0.74505805969E-08  0.93827000000E+00  0.93827000000E+00 0.  1.
     999902    2    1    2    0    0  0.15393557064E-01  0.71280784712E-02 -0.16318157292E-01  0.10203916619E+01  0.10201201353E+01 0.  0.
     999903    2    3    3    0    0  0.63730621132E-01  0.14097569643E-01  0.11077393796E+00  0.12992131080E+00  0.18664086618E-01 0.  0.
         14    1    1    2    0    0 -0.15393557064E-01 -0.71280784712E-02  0.16318157292E-01  0.23538338072E-01  0.00000000000E+00 0.  1.
     999901    1    3    3    0    0 -0.48337064068E-01 -0.69694911714E-02 -0.12709209525E+00  0.89047035113E+00  0.88000000000E+00 0.  1.
        -11    1    4    4    0    0  0.50211162363E-02  0.60708099804E-02  0.20166966889E-01  0.21657193183E-01  0.51100000000E-03 0.  1.
         11    1    4    4    0    0  0.58709504896E-01  0.80267596622E-02  0.90606971067E-01  0.10826411761E+00  0.51100000000E-03 0. -1.
</event>
<event>
 8    1  0.1143957E+005  0.1043930E+01  0.7957747E-01            NaN
         13   -1    0    0    0    0  0.00000000000E+00  0.00000000000E+00  0.74505805969E-08  0.10566000000E+00  0.10566000000E+00 0. -1.
     999900   -1    0    0    0    0 -0.00000000000E+00 -0.00000000000E+00 -0.74505805969E-08  0.93827000000E+00  0.93827000000E+00 0. -1.
     999902    2    1    2    0    0  0.14428815798E-01  0.19142443773E-01 -0.14784174831E-02  0.10199131393E+01  0.10196303262E+01 0.  0.
     999903    2    3    3    0    0 -0.31777393955E-01 -0.81209147411E-01  0.91874567052E-01  0.12810585330E+00  0.19116620731E-01 0.  0.
         14    1    1    2    0    0 -0.14428815798E-01 -0.19142443773E-01  0.14784174831E-02  0.24016860685E-01  0.00000000000E+00 0. -1.
     999901    1    3    3    0    0  0.46206209754E-01  0.10035159118E+00 -0.93352984535E-01  0.89180728602E+00  0.88000000000E+00 0. -1.
        -11    1    4    4    0    0 -0.28579254457E-01 -0.76057633747E-01  0.76610039956E-01  0.11167316947E+00  0.51100000000E-03 0.  1.
         11    1    4    4    0    0 -0.31981394986E-02 -0.51515136637E-02  0.15264527096E-01  0.16432683826E-01  0.51100000000E-03 0. -1.
</event>
<event>
 8    1  0.1143957E+005  0.1043930E+01  0.7957747E-01            NaN
         13   -1    0    0    0    0  0.00000000000E+00  0.00000000000E+00  0.74505805969E-08  0.10566000000E+00  0.10566000000E+00 0.  1.
     999900   -1    0    0    0    0 -0.00000000000E+00 -0.00000000000E+00 -0.74505805969E-08  0.93827000000E+00  0.93827000000E+00 0.  1.
     999902    2    1    2    0    0  0.79818688282E-02  0.23264605009E-01 -0.49104117220E-02  0.10188488473E+01  0.10185400873E+01 0.  0.
     999903    2    3    3    0    0  0.56577405838E-01 -0.69506180777E-01  0.88778285511E-01  0.12770042147E+00  0.19841916443E-01 0.  0.
         14    1    1    2    0    0 -0.79818688282E-02 -0.23264605009E-01  0.49104117220E-02  0.25081152675E-01  0.00000000000E+00 0.  1.
     999901    1    3    3    0    0 -0.48595537009E-01  0.92770785786E-01 -0.93688697233E-01  0.89114842585E+00  0.88000000000E+00 0.  1.
        -11    1    4    4    0    0  0.28099254632E-01 -0.26504597610E-01  0.49922565693E-01  0.63123573185E-01  0.51100000000E-03 0.  1.
         11    1    4    4    0    0  0.28478151206E-01 -0.43001583167E-01  0.38855719818E-01  0.64576848286E-01  0.51100000000E-03 0. -1.
</event>
<event>
 8    1  0.1143957E+005  0.1043930E+01  0.7957747E-01            NaN
         13   -1    0    0    0    0  0.00000000000E+00  0.00000000000E+00  0.74505805969E-08  0.10566000000E+00  0.10566000000E+00 0. -1.
     999900   -1    0    0    0    0 -0.00000000000E+00 -0.00000000000E+00 -0.74505805969E-08  0.93827000000E+00  0.93827000000E+00 0. -1.
     999902    2    1    2    0    0 -0.82551479824E-02 -0.17287958879E-01 -0.14135072132E-01  0.10201219918E+01  0.10198441336E+01 0.  0.
     999903    2    3    3    0    0 -0.23983259601E-02 -0.10290068100E+00  0.78720055849E-01  0.13108548223E+00  0.19805411885E-01 0.  0.
         14    1    1    2    0    0  0.82551479824E-02  0.17287958879E-01  0.14135072132E-01  0.23808008203E-01  0.00000000000E+00 0.  1.
     999901    1    3    3    0    0 -0.58568220223E-02  0.85612722123E-01 -0.92855127981E-01  0.88903650957E+00  0.88000000000E+00 0. -1.
        -11    1    4    4    0    0 -0.96972103323E-02 -0.81726644445E-01  0.59335254461E-01  0.10146040530E+00  0.51100000000E-03 0.  1.
         11    1    4    4    0    0  0.72988843722E-02 -0.21174036557E-01  0.19384801387E-01  0.29625076929E-01  0.51100000000E-03 0. -1.
</event>
<event>
 8    1  0.1143957E+005  0.1043930E+01  0.7957747E-01            NaN
         13   -1    0    0    0    0  0.00000000000E+00  0.00000000000E+00  0.74505805969E-08  0.10566000000E+00  0.10566000000E+00 0. -1.
     999900   -1    0    0    0    0 -0.00000000000E+00 -0.00000000000E+00 -0.74505805969E-08  0.93827000000E+00  0.93827000000E+00 0. -1.
     999902    2    1    2    0    0  0.17937674003E-01  0.54230126707E-02  0.17431153863E-01  0.10183367521E+01  0.10180150914E+01 0.  0.
     999903    2    3    3    0    0  0.11304625851E+00  0.62226432719E-01 -0.99974560792E-02  0.13096726869E+00  0.20022258825E-01 0.  0.
         14    1    1    2    0    0 -0.17937674003E-01 -0.54230126707E-02 -0.17431153863E-01  0.25593247939E-01  0.00000000000E+00 0.  1.
     999901    1    3    3    0    0 -0.95108584505E-01 -0.56803420049E-01  0.27428609942E-01  0.88736948337E+00  0.88000000000E+00 0. -1.
        -11    1    4    4    0    0  0.58085368664E-01  0.22420606164E-01 -0.10254767517E-01  0.63103209201E-01  0.51100000000E-03 0. -1.
         11    1    4    4    0    0  0.54960889843E-01  0.39805826555E-01  0.25731143821E-03  0.67864059489E-01  0.51100000000E-03 0.  1.
</event>
<event>
 8    1  0.1143957E+005  0.1043930E+01  0.7957747E-01            NaN
         13   -1    0    0    0    0  0.00000000000E+00  0.00000000000E+00  0.74505805969E-08  0.10566000000E+00  0.10566000000E+00 0. -1.
     999900   -1    0    0    0    0 -0.00000000000E+00 -0.00000000000E+00 -0.74505805969E-08  0.93827000000E+00  0.93827000000E+00 0.  1.
     999902    2    1    2    0    0  0.17200622709E-01 -0.42503824317E-02  0.15837322943E-01  0.10201655734E+01  0.10198887436E+01 0.  0.
     999903    2    3    3    0    0  0.11386875239E+00  0.12191135227E-01 -0.61538925979E-01  0.13134493083E+00  0.18701200375E-01 0.  0.
         14    1    1    2    0    0 -0.17200622709E-01  0.42503824317E-02 -0.15837322943E-01  0.23764426574E-01  0.00000000000E+00 0.  1.
     999901    1    3    3    0    0 -0.96668129685E-01 -0.16441517658E-01  0.77376248922E-01  0.88882064259E+00  0.88000000000E+00 0. -1.
        -11    1    4    4    0    0  0.72619581253E-01 -0.12795052942E-02 -0.39256935905E-01  0.82562757057E-01  0.51100000000E-03 0.  1.
         11    1    4    4    0    0  0.41249171140E-01  0.13470640521E-01 -0.22281990074E-01  0.48782173777E-01  0.51100000000E-03 0. -1.
</event>
<event>
 8    1  0.1143957E+005  0.1043930E+01  0.7957747E-01            NaN
         13   -1    0    0    0    0  0.00000000000E+00  0.00000000000E+00  0.74505805969E-08  0.10566000000E+00  0.10566000000E+00 0. -1.
     999900   -1    0    0    0    0 -0.00000000000E+00 -0.00000000000E+00 -0.74505805969E-08  0.93827000000E+00  0.93827000000E+00 0.  1.
     999902    2    1    2    0    0  0.23674201932E-01  0.40468013078E-02  0.25784268454E-02  0.10197744060E+01  0.10194882767E+01 0.  0.
     999903    2    3    3    0    0  0.55178252823E-02 -0.95230321736E-01  0.85953568141E-01  0.13009074570E+00  0.20888409846E-01 0.  0.
         14    1    1    2    0    0 -0.23674201932E-01 -0.40468013078E-02 -0.25784268454E-02  0.24155594030E-01  0.00000000000E+00 0.  1.
     999901    1    3    3    0    0  0.18156376649E-01  0.99277123044E-01 -0.83375141295E-01  0.88968366027E+00  0.88000000000E+00 0. -1.
        -11    1    4    4    0    0  0.27368411890E-02 -0.81028806036E-02  0.16652173614E-01  0.18727065463E-01  0.51100000000E-03 0.  1.
         11    1    4    4    0    0  0.27809840933E-02 -0.87127441132E-01  0.69301394526E-01  0.11136368023E+00  0.51100000000E-03 0. -1.
</event>
<event>
 8    1  0.1143957E+005  0.1043930E+01  0.7957747E-01            NaN
         13   -1    0    0    0    0  0.00000000000E+00  0.00000000000E+00  0.74505805969E-08  0.10566000000E+00  0.10566000000E+00 0. -1.
     999900   -1    0    0    0    0 -0.00000000000E+00 -0.00000000000E+00 -0.74505805969E-08  0.93827000000E+00  0.93827000000E+00 0.  1.
     999902    2    1    2    0    0  0.57105320930E-02  0.22771708222E-01 -0.11818812220E-02  0.10204234538E+01  0.10201526686E+01 0.  0.
     999903    2    3    3    0    0  0.46570689244E-01  0.11435912837E+00 -0.45074503912E-01  0.13364029522E+00  0.24107639154E-01 0.  0.
         14    1    1    2    0    0 -0.57105320930E-02 -0.22771708222E-01  0.11818812220E-02  0.23506546223E-01  0.00000000000E+00 0.  1.
     999901    1    3    3    0    0 -0.40860157151E-01 -0.91587420149E-01  0.43892622690E-01  0.88678315856E+00  0.88000000000E+00 0. -1.
        -11    1    4    4    0    0  0.35659562822E-01  0.93135898821E-01 -0.25941130433E-01  0.10304903415E+00  0.51100000000E-03 0.  1.
         11    1    4    4    0    0  0.10911126421E-01  0.21223229549E-01 -0.19133373479E-01  0.30591261072E-01  0.51100000000E-03 0. -1.
</event>
<event>
 8    1  0.1143957E+005  0.1043930E+01  0.7957747E-01            NaN
         13   -1    0    0    0    0  0.00000000000E+00  0.00000000000E+00  0.74505805969E-08  0.10566000000E+00  0.10566000000E+00 0.  1.
     999900   -1    0    0    0    0 -0.00000000000E+00 -0.00000000000E+00 -0.74505805969E-08  0.93827000000E+00  0.93827000000E+00 0. -1.
     999902    2    1    2    0    0 -0.81299404334E-02  0.17286909364E-01 -0.13408984693E-01  0.10205904619E+01  0.10203235550E+01 0.  0.
     999903    2    3    3    0    0  0.82670340771E-01  0.23154020807E-01  0.94704990184E-01  0.12931735809E+00  0.19581879764E-01 0.  0.
         14    1    1    2    0    0  0.81299404334E-02 -0.17286909364E-01  0.13408984693E-01  0.23339538070E-01  0.00000000000E+00 0.  1.
     999901    1    3    3    0    0 -0.90800281204E-01 -0.58671114433E-02 -0.10811397488E+00  0.89127310384E+00  0.88000000000E+00 0. -1.
        -11    1    4    4    0    0  0.58109886765E-01  0.25316260334E-01  0.67365547085E-01  0.92498919087E-01  0.51100000000E-03 0. -1.
         11    1    4    4    0    0  0.24560454006E-01 -0.21622395264E-02  0.27339443099E-01  0.36818439004E-01  0.51100000000E-03 0.  1.
</event>
<event>
 8    1  0.1143957E+005  0.1043930E+01  0.7957747E-01            NaN
         13   -1    0    0    0    0  0.00000000000E+00  0.00000000000E+00  0.74505805969E-08  0.10566000000E+00  0.10566000000E+00 0. -1.
     999900   -1    0    0    0    0 -0.00000000000E+00 -0.00000000000E+00 -0.74505805969E-08  0.93827000000E+00  0.93827000000E+00 0.  1.
     999902    2    1    2    0    0  0.23170792306E-01  0.52070707704E-02  0.64469619863E-02  0.10193218200E+01  0.10190247349E+01 0.  0.
     999903    2    3    3    0    0 -0.74433101992E-01  0.99836129354E-01 -0.23446768276E-01  0.12838141012E+00  0.20603303776E-01 0.  0.
         14    1    1    2    0    0 -0.23170792306E-01 -0.52070707704E-02 -0.64469619863E-02  0.24608179960E-01  0.00000000000E+00 0.  1.
     999901    1    3    3    0    0  0.97603894298E-01 -0.94629058583E-01  0.29893730262E-01  0.89094040992E+00  0.88000000000E+00 0. -1.
        -11    1    4    4    0    0 -0.51747049175E-01  0.57905600109E-01 -0.71167720566E-02  0.77985416507E-01  0.51100000000E-03 0. -1.
         11    1    4    4    0    0 -0.22686052817E-01  0.41930529244E-01 -0.16329996219E-01  0.50395993617E-01  0.51100000000E-03 0.  1.
</event>
<event>
 8    1  0.1143957E+005  0.1043930E+01  0.7957747E-01            NaN
         13   -1    0    0    0    0  0.00000000000E+00  0.00000000000E+00  0.74505805969E-08  0.10566000000E+00  0.10566000000E+00 0.  1.
     999900   -1    0    0    0    0 -0.00000000000E+00 -0.00000000000E+00 -0.74505805969E-08  0.93827000000E+00  0.93827000000E+00 0. -1.
     999902    2    1    2    0    0 -0.10201382862E-01  0.16702941727E-01  0.13377039877E-01  0.10202234256E+01  0.10199479577E+01 0.  0.
     999903    2    3    3    0    0  0.70104821967E-01 -0.10284748512E+00 -0.20606537373E-01  0.12786908194E+00  0.20822619317E-01 0.  0.
         14    1    1    2    0    0  0.10201382862E-01 -0.16702941727E-01 -0.13377039877E-01  0.23706574415E-01  0.00000000000E+00 0. -1.
     999901    1    3    3    0    0 -0.80306204828E-01  0.11955042685E+00  0.33983577250E-01  0.89235434364E+00  0.88000000000E+00 0. -1.
        -11    1    4    4    0    0  0.35013730846E-01 -0.40956189091E-01 -0.17486751731E-01  0.56651728832E-01  0.51100000000E-03 0.  1.
         11    1    4    4    0    0  0.35091091121E-01 -0.61891296032E-01 -0.31197856421E-02  0.71217353110E-01  0.51100000000E-03 0. -1.
</event>
<event>
 8    1  0.1143957E+005  0.1043930E+01  0.7957747E-01            NaN
         13   -1    0    0    0    0  0.00000000000E+00  0.00000000000E+00  0.74505805969E-08  0.10566000000E+00  0.10566000000E+00 0. -1.
     999900   -1    0    0    0    0 -0.00000000000E+00 -0.00000000000E+00 -0.74505805969E-08  0.93827000000E+00  0.93827000000E+00 0. -1.
     999902    2    1    2    0    0 -0.69259311145E-02 -0.90294905813E-02 -0.20734668615E-01  0.10202777970E+01  0.10200036061E+01 0.  0.
     999903    2    3    3    0    0  0.35159841551E-01  0.11194020609E+00 -0.53497573605E-01  0.13040236323E+00  0.19389733291E-01 0.  0.
         14    1    1    2    0    0  0.69259311145E-02  0.90294905813E-02  0.20734668615E-01  0.23652202953E-01  0.00000000000E+00 0. -1.
     999901    1    3    3    0    0 -0.42085772666E-01 -0.12096969667E+00  0.32762904990E-01  0.88987543382E+00  0.88000000000E+00 0.  1.
        -11    1    4    4    0    0  0.15361962017E-01  0.24914521869E-01 -0.17908830338E-01  0.34317788420E-01  0.51100000000E-03 0. -1.
         11    1    4    4    0    0  0.19797879534E-01  0.87025684217E-01 -0.35588743267E-01  0.96084574807E-01  0.51100000000E-03 0.  1.
</event>
<event>
 8    1  0.1143957E+005  0.1043930E+01  0.7957747E-01            NaN
         13   -1    0    0    0    0  0.00000000000E+00  0.00000000000E+00  0.74505805969E-08  0.10566000000E+00  0.10566000000E+00 0.  1.
     999900   -1    0    0    0    0 -0.00000000000E+00 -0.00000000000E+00 -0.74505805969E-08  0.93827000000E+00  0.93827000000E+00 0.  1.
     999902    2    1    2    0    0  0.10538806706E-02 -0.22235064626E-01 -0.52653304485E-02  0.10210557248E+01  0.10207994713E+01 0.  0.
     999903    2    3    3    0    0 -0.10127563812E+00  0.49986694782E-02 -0.81670132149E-01  0.13142057459E+00  0.17877789742E-01 0.  0.
         14    1    1    2    0    0 -0.10538806706E-02  0.22235064626E-01  0.52653304485E-02  0.22874275248E-01  0.00000000000E+00 0. -1.
     999901    1    3    3    0    0  0.10232951879E+00 -0.27233734104E-01  0.76404801700E-01  0.88963515017E+00  0.88000000000E+00 0. -1.
        -11    1    4    4    0    0 -0.57148252648E-01 -0.57092558228E-02 -0.42487888864E-01  0.71442285824E-01  0.51100000000E-03 0.  1.
         11    1    4    4    0    0 -0.44127385473E-01  0.10707925301E-01 -0.39182243285E-01  0.59978288761E-01  0.51100000000E-03 0. -1.
</event>
<event>
 8    1  0.1143957E+005  0.1043930E+01  0.7957747E-01            NaN
         13   -1    0    0    0    0  0.00000000000E+00  0.00000000000E+00  0.74505805969E-08  0.10566000000E+00  0.10566000000E+00 0. -1.
     999900   -1    0    0    0    0 -0.00000000000E+00 -0.00000000000E+00 -0.74505805969E-08  0.93827000000E+00  0.93827000000E+00 0. -1.
     999902    2    1    2    0    0  0.10316979928E-01 -0.19646993355E-01  0.42702271115E-02  0.10213317863E+01  0.10210817492E+01 0.  0.
     999903    2    3    3    0    0  0.80041116300E-01 -0.53294345550E-01  0.90774868134E-01  0.13370762461E+00  0.19768273265E-01 0.  0.
         14    1    1    2    0    0 -0.10316979928E-01  0.19646993355E-01 -0.42702271115E-02  0.22598213698E-01  0.00000000000E+00 0. -1.
     999901    1    3    3    0    0 -0.69724136371E-01  0.33647352195E-01 -0.86504641022E-01  0.88762416169E+00  0.88000000000E+00 0. -1.
        -11    1    4    4    0    0  0.64860326732E-01 -0.45221985779E-01  0.63275570023E-01  0.10127165874E+00  0.51100000000E-03 0.  1.
         11    1    4    4    0    0  0.15180789568E-01 -0.80723597705E-02  0.27499298111E-01  0.32435965868E-01  0.51100000000E-03 0. -1.
</event>
<event>
 8    1  0.1143957E+005  0.1043930E+01  0.7957747E-01            NaN
         13   -1    0    0    0    0  0.00000000000E+00  0.00000000000E+00  0.74505805969E-08  0.10566000000E+00  0.10566000000E+00 0. -1.
     999900   -1    0    0    0    0 -0.00000000000E+00 -0.00000000000E+00 -0.74505805969E-08  0.93827000000E+00  0.93827000000E+00 0.  1.
     999902    2    1    2    0    0 -0.10219169489E-01 -0.19827212013E-01 -0.41442155181E-03  0.10216203271E+01  0.10213767038E+01 0.  0.
     999903    2    3    3    0    0 -0.70915211591E-01  0.10534912195E+00 -0.22047047423E-01  0.13042949755E+00  0.19959378773E-01 0.  0.
         14    1    1    2    0    0  0.10219169489E-01  0.19827212013E-01  0.41442155181E-03  0.22309672935E-01  0.00000000000E+00 0.  1.
     999901    1    3    3    0    0  0.60696042102E-01 -0.12517633396E+00  0.21632625871E-01  0.89119082952E+00  0.88000000000E+00 0.  1.
        -11    1    4    4    0    0 -0.60050304831E-01  0.74222982645E-01 -0.14060323433E-01  0.96504114311E-01  0.51100000000E-03 0.  1.
         11    1    4    4    0    0 -0.10864906759E-01  0.31126139302E-01 -0.79867239903E-02  0.33925383238E-01  0.51100000000E-03 0. -1.
</event>
<event>
 8    1  0.1143957E+005  0.1043930E+01  0.7957747E-01            NaN
         13   -1    0    0    0    0  0.00000000000E+00  0.00000000000E+00  0.74505805969E-08  0.10566000000E+00  0.10566000000E+00 0. -1.
     999900   -1    0    0    0    0 -0.00000000000E+00 -0.00000000000E+00 -0.74505805969E-08  0.93827000000E+00  0.93827000000E+00 0.  1.
     999902    2    1    2    0    0 -0.16496646116E-01 -0.10431212544E-01 -0.13613202262E-01  0.10201335968E+01  0.10198560127E+01 0.  0.
     999903    2    3    3    0    0 -0.10979509508E+00 -0.54084857426E-01 -0.49248346289E-01  0.13340922884E+00  0.19811310422E-01 0.  0.
         14    1    1    2    0    0  0.16496646116E-01  0.10431212544E-01  0.13613202262E-01  0.23796403174E-01  0.00000000000E+00 0. -1.
     999901    1    3    3    0    0  0.93298448965E-01  0.43653644882E-01  0.35635144028E-01  0.88672436799E+00  0.88000000000E+00 0. -1.
        -11    1    4    4    0    0 -0.37076454606E-04 -0.24807299456E-02 -0.20701975793E-02  0.32714270195E-02  0.51100000000E-03 0.  1.
         11    1    4    4    0    0 -0.10975801863E+00 -0.51604127480E-01 -0.47178148710E-01  0.13013780182E+00  0.51100000000E-03 0. -1.
</event>
<event>
 8    1  0.1143957E+005  0.1043930E+01  0.7957747E-01            NaN
         13   -1    0    0    0    0  0.00000000000E+00  0.00000000000E+00  0.74505805969E-08  0.10566000000E+00  0.10566000000E+00 0.  1.
     999900   -1    0    0    0    0 -0.00000000000E+00 -0.00000000000E+00 -0.74505805969E-08  0.93827000000E+00  0.93827000000E+00 0.  1.
     999902    2    1    2    0    0 -0.17405448927E-01  0.15455031272E-01  0.38338343769E-02  0.10203396221E+01  0.10200668794E+01 0.  0.
     999903    2    3    3    0    0 -0.40526012581E-01  0.74549040442E-01  0.10021535472E+00  0.13280592704E+00  0.19858998201E-01 0.  0.
         14    1    1    2    0    0  0.17405448927E-01 -0.15455031272E-01 -0.38338343769E-02  0.23590377911E-01  0.00000000000E+00 0. -1.
     999901    1    3    3    0    0  0.23120563654E-01 -0.59094009171E-01 -0.96381520339E-01  0.88753369505E+00  0.88000000000E+00 0.  1.
        -11    1    4    4    0    0 -0.12776730426E-01  0.17971468977E-01  0.39815266693E-01  0.45516317079E-01  0.51100000000E-03 0.  1.
         11    1    4    4    0    0 -0.27749282155E-01  0.56577571466E-01  0.60400088023E-01  0.87289609962E-01  0.51100000000E-03 0. -1.
</event>
<event>
 8    1  0.1143957E+005  0.1043930E+01  0.7957747E-01            NaN
         13   -1    0    0    0    0  0.00000000000E+00  0.00000000000E+00  0.74505805969E-08  0.10566000000E+00  0.10566000000E+00 0.  1.
     999900   -1    0    0    0    0 -0.00000000000E+00 -0.00000000000E+00 -0.74505805969E-08  0.93827000000E+00  0.93827000000E+00 0. -1.
     999902    2    1    2    0    0 -0.18191819553E-01  0.34028547926E-02  0.14408500955E-01  0.10204752218E+01  0.10202056419E+01 0.  0.
     999903    2    3    3    0    0  0.74944616315E-01  0.63450172438E-01  0.84131354918E-01  0.13078912415E+00  0.19623715688E-01 0.  0.
         14    1    1    2    0    0  0.18191819553E-01 -0.34028547926E-02 -0.14408500955E-01  0.23454778173E-01  0.00000000000E+00 0. -1.
     999901    1    3    3    0    0 -0.93136435868E-01 -0.60047317645E-01 -0.69722853963E-01  0.88968609768E+00  0.88000000000E+00 0. -1.
        -11    1    4    4    0    0  0.94808298132E-02  0.15114350732E-01  0.22433053427E-01  0.28667625278E-01  0.51100000000E-03 0. -1.
         11    1    4    4    0    0  0.65463786502E-01  0.48335821705E-01  0.61698301491E-01  0.10212149887E+00  0.51100000000E-03 0.  1.
</event>
<event>
 8    1  0.1143957E+005  0.1043930E+01  0.7957747E-01            NaN
         13   -1    0    0    0    0  0.00000000000E+00  0.00000000000E+00  0.74505805969E-08  0.10566000000E+00  0.10566000000E+00 0.  1.
     999900   -1    0    0    0    0 -0.00000000000E+00 -0.00000000000E+00 -0.74505805969E-08  0.93827000000E+00  0.93827000000E+00 0. -1.
     999902    2    1    2    0    0  0.45739246555E-02  0.29643198453E-01 -0.57307966762E-02  0.10133934312E+01  0.10129332478E+01 0.  0.
     999903    2    3    3    0    0 -0.11203093227E+00 -0.33279483944E-01 -0.32872747644E-01  0.12306054848E+00  0.20120318494E-01 0.  0.
         14    1    1    2    0    0 -0.45739246555E-02 -0.29643198453E-01  0.57307966762E-02  0.30536568763E-01  0.00000000000E+00 0. -1.
     999901    1    3    3    0    0  0.11660485693E+00  0.62922682397E-01  0.27141950968E-01  0.89033288276E+00  0.88000000000E+00 0.  1.
        -11    1    4    4    0    0 -0.62536374468E-01 -0.28194813311E-01 -0.15255562449E-01  0.70276161932E-01  0.51100000000E-03 0.  1.
         11    1    4    4    0    0 -0.49494557806E-01 -0.50846706331E-02 -0.17617185196E-01  0.52784386547E-01  0.51100000000E-03 0. -1.
</event>
<event>
 8    1  0.1143957E+005  0.1043930E+01  0.7957747E-01            NaN
         13   -1    0    0    0    0  0.00000000000E+00  0.00000000000E+00  0.74505805969E-08  0.10566000000E+00  0.10566000000E+00 0.  1.
     999900   -1    0    0    0    0 -0.00000000000E+00 -0.00000000000E+00 -0.74505805969E-08  0.93827000000E+00  0.93827000000E+00 0. -1.
     999902    2    1    2    0    0 -0.17170223269E-02 -0.30073015387E-02 -0.23336103041E-01  0.10203383546E+01  0.10200655823E+01 0.  0.
     999903    2    3    3    0    0 -0.45072127590E-01  0.42060726951E-01 -0.11637710513E+00  0.13322651247E+00  0.20126390398E-01 0.  0.
         14    1    1    2    0    0  0.17170223269E-02  0.30073015387E-02  0.23336103041E-01  0.23591645414E-01  0.00000000000E+00 0.  1.
     999901    1    3    3    0    0  0.43355105263E-01 -0.45068028490E-01  0.93041002089E-01  0.88711184211E+00  0.88000000000E+00 0.  1.
        -11    1    4    4    0    0 -0.29583911161E-01  0.24006470695E-01 -0.89834753364E-01  0.97581055886E-01  0.51100000000E-03 0. -1.
         11    1    4    4    0    0 -0.15488216430E-01  0.18054256257E-01 -0.26542351766E-01  0.35645456588E-01  0.51100000000E-03 0.  1.
</event>
<event>
 8    1  0.1143957E+005  0.1043930E+01  0.7957747E-01            NaN
         13   -1    0    0    0    0  0.00000000000E+00  0.00000000000E+00  0.74505805969E-08  0.10566000000E+00  0.10566000000E+00 0. -1.
     999900   -1    0    0    0    0 -0.00000000000E+00 -0.00000000000E+00 -0.74505805969E-08  0.93827000000E+00  0.93827000000E+00 0.  1.
     999902    2    1    2    0    0  0.57742568085E-02 -0.36514199759E-02 -0.23121782503E-01  0.10198200076E+01  0.10195349705E+01 0.  0.
     999903    2    3    3    0    0  0.19277831729E-01  0.11998475199E+00  0.38458834918E-01  0.12894379730E+00  0.19479357639E-01 0.  0.
         14    1    1    2    0    0 -0.57742568085E-02  0.36514199759E-02  0.23121782503E-01  0.24109992444E-01  0.00000000000E+00 0. -1.
     999901    1    3    3    0    0 -0.13503574920E-01 -0.12363617196E+00 -0.61580617421E-01  0.89087621025E+00  0.88000000000E+00 0.  1.
        -11    1    4    4    0    0  0.18865397374E-02  0.69002265862E-01  0.25008681622E-01  0.73420480819E-01  0.51100000000E-03 0. -1.
         11    1    4    4    0    0  0.17391291991E-01  0.50982486125E-01  0.13450153296E-01  0.55523316483E-01  0.51100000000E-03 0.  1.
</event>
<event>
 8    1  0.1143957E+005  0.1043930E+01  0.7957747E-01            NaN
         13   -1    0    0    0    0  0.00000000000E+00  0.00000000000E+00  0.74505805969E-08  0.10566000000E+00  0.10566000000E+00 0.  1.
     999900   -1    0    0    0    0 -0.00000000000E+00 -0.00000000000E+00 -0.74505805969E-08  0.93827000000E+00  0.93827000000E+00 0. -1.
     999902    2    1    2    0    0 -0.55233911897E-02  0.22450028696E-01 -0.47105063333E-02  0.10203354983E+01  0.10200626592E+01 0.  0.
     999903    2    3    3    0    0  0.93812131626E-01  0.18951844875E-01  0.85855539177E-01  0.13012092197E+00  0.20009804157E-01 0.  0.
         14    1    1    2    0    0  0.55233911897E-02 -0.22450028696E-01  0.47105063333E-02  0.23594501660E-01  0.00000000000E+00 0.  1.
     999901    1    3    3    0    0 -0.99335522816E-01  0.34981838203E-02 -0.90566045510E-01  0.89021457637E+00  0.88000000000E+00 0. -1.
        -11    1    4    4    0    0  0.88469038390E-02 -0.39532912625E-02  0.70702731045E-02  0.12006086045E-01  0.51100000000E-03 0. -1.
         11    1    4    4    0    0  0.84965227787E-01  0.22905136138E-01  0.78785266073E-01  0.11811483592E+00  0.51100000000E-03 0.  1.
</event>
<event>
 8    1  0.1143957E+005  0.1043930E+01  0.7957747E-01            NaN
         13   -1    0    0    0    0  0.00000000000E+00  0.00000000000E+00  0.74505805969E-08  0.10566000000E+00  0.10566000000E+00 0. -1.
     999900   -1    0    0    0    0 -0.00000000000E+00 -0.00000000000E+00 -0.74505805969E-08  0.93827000000E+00  0.93827000000E+00 0. -1.
     999902    2    1    2    0    0  0.10534053653E-01  0.15409490128E-01  0.14062511248E-01  0.10205596578E+01  0.10202920377E+01 0.  0.
     999903    2    3    3    0    0  0.76176420225E-01  0.76292877717E-01  0.76920333516E-01  0.13378639873E+00  0.18937069125E-01 0.  0.
         14    1    1    2    0    0 -0.10534053653E-01 -0.15409490128E-01 -0.14062511248E-01  0.23370342209E-01  0.00000000000E+00 0.  1.
     999901    1    3    3    0    0 -0.65642366572E-01 -0.60883387589E-01 -0.62857822268E-01  0.88677325907E+00  0.88000000000E+00 0. -1.
        -11    1    4    4    0    0  0.46398044670E-01  0.55608796435E-01  0.43567772428E-01  0.84519398398E-01  0.51100000000E-03 0.  1.
         11    1    4    4    0    0  0.29778375555E-01  0.20684081282E-01  0.33352561087E-01  0.49267000327E-01  0.51100000000E-03 0. -1.
</event>
<event>
 8    1  0.1143957E+005  0.1043930E+01  0.7957747E-01            NaN
         13   -1    0    0    0    0  0.00000000000E+00  0.00000000000E+00  0.74505805969E-08  0.10566000000E+00  0.10566000000E+00 0.  1.
     999900   -1    0    0    0    0 -0.00000000000E+00 -0.00000000000E+00 -0.74505805969E-08  0.93827000000E+00  0.93827000000E+00 0. -1.
     999902    2    1    2    0    0  0.54192804525E-02 -0.21428922651E-01  0.97530275727E-02  0.10197703462E+01  0.10194841196E+01 0.  0.
     999903    2    3    3    0    0  0.79049281831E-01 -0.31082730807E-01 -0.96784995691E-01  0.13023961397E+00  0.19496064833E-01 0.  0.
         14    1    1    2    0    0 -0.54192804525E-02  0.21428922651E-01 -0.97530275727E-02  0.24159653836E-01  0.00000000000E+00 0. -1.
     999901    1    3    3    0    0 -0.73630001379E-01  0.96538081561E-02  0.10653802326E+00  0.88953073219E+00  0.88000000000E+00 0.  1.
        -11    1    4    4    0    0  0.68918268919E-01 -0.27257288563E-01 -0.72658326774E-01  0.10378911861E+00  0.51100000000E-03 0. -1.
         11    1    4    4    0    0  0.10131012913E-01 -0.38254422443E-02 -0.24126668917E-01  0.26450495364E-01  0.51100000000E-03 0.  1.
</event>
<event>
 8    1  0.1143957E+005  0.1043930E+01  0.7957747E-01            NaN
         13   -1    0    0    0    0  0.00000000000E+00  0.00000000000E+00  0.74505805969E-08  0.10566000000E+00  0.10566000000E+00 0.  1.
     999900   -1    0    0    0    0 -0.00000000000E+00 -0.00000000000E+00 -0.74505805969E-08  0.93827000000E+00  0.93827000000E+00 0. -1.
     999902    2    1    2    0    0 -0.15854324330E-01 -0.16946629559E-01  0.81173473084E-02  0.10193446552E+01  0.10190481278E+01 0.  0.
     999903    2    3    3    0    0  0.26727402618E-01  0.10579462074E+00 -0.61979939011E-01  0.12704860141E+00  0.19823684153E-01 0.  0.
         14    1    1    2    0    0  0.15854324330E-01  0.16946629559E-01 -0.81173473084E-02  0.24585344836E-01  0.00000000000E+00 0.  1.
     999901    1    3    3    0    0 -0.42581726948E-01 -0.12274125029E+00  0.70097286320E-01  0.89229605375E+00  0.88000000000E+00 0.  1.
        -11    1    4    4    0    0  0.18699438896E-01  0.58578973754E-01 -0.45123682934E-01  0.76273016616E-01  0.51100000000E-03 0. -1.
         11    1    4    4    0    0  0.80279637222E-02  0.47215646981E-01 -0.16856256077E-01  0.50775584795E-01  0.51100000000E-03 0.  1.
</event>
<event>
 8    1  0.1143957E+005  0.1043930E+01  0.7957747E-01            NaN
         13   -1    0    0    0    0  0.00000000000E+00  0.00000000000E+00  0.74505805969E-08  0.10566000000E+00  0.10566000000E+00 0.  1.
     999900   -1    0    0    0    0 -0.00000000000E+00 -0.00000000000E+00 -0.74505805969E-08  0.93827000000E+00  0.93827000000E+00 0.  1.
     999902    2    1    2    0    0  0.20824997053E-01 -0.27787511178E-01 -0.17334011324E-02  0.10091617536E+01  0.10085626475E+01 0.  0.
     999903    2    3    3    0    0  0.72749039342E-02 -0.48612047546E-01 -0.11023366212E+00  0.12215015671E+00  0.18792156010E-01 0.  0.
         14    1    1    2    0    0 -0.20824997053E-01  0.27787511178E-01  0.17334011324E-02  0.34768246421E-01  0.00000000000E+00 0. -1.
     999901    1    3    3    0    0  0.13550093119E-01  0.20824536369E-01  0.10850026099E+00  0.88701159686E+00  0.88000000000E+00 0. -1.
        -11    1    4    4    0    0  0.10941465285E-01 -0.13946370515E-01 -0.39030521210E-01  0.42870264987E-01  0.51100000000E-03 0. -1.
         11    1    4    4    0    0 -0.36665613503E-02 -0.34665677031E-01 -0.71203140908E-01  0.79279891727E-01  0.51100000000E-03 0.  1.
</event>
<event>
 8    1  0.1143957E+005  0.1043930E+01  0.7957747E-01            NaN
         13   -1    0    0    0    0  0.00000000000E+00  0.00000000000E+00  0.74505805969E-08  0.10566000000E+00  0.10566000000E+00 0.  1.
     999900   -1    0    0    0    0 -0.00000000000E+00 -0.00000000000E+00 -0.74505805969E-08  0.93827000000E+00  0.93827000000E+00 0.  1.
     999902    2    1    2    0    0  0.18744253200E-01 -0.45865864525E-02 -0.13439993537E-01  0.10204136816E+01  0.10201426687E+01 0.  0.
     999903    2    3    3    0    0  0.28171581238E-01  0.11358388424E+00 -0.56413998863E-01  0.13142554910E+00  0.19879611162E-01 0.  0.
         14    1    1    2    0    0 -0.18744253200E-01  0.45865864525E-02  0.13439993537E-01  0.23516318368E-01  0.00000000000E+00 0. -1.
     999901    1    3    3    0    0 -0.94273280378E-02 -0.11817047069E+00  0.42974005326E-01  0.88898813254E+00  0.88000000000E+00 0. -1.
        -11    1    4    4    0    0  0.22394156015E-01  0.10502973559E+00 -0.46242105960E-01  0.11692449302E+00  0.51100000000E-03 0. -1.
         11    1    4    4    0    0  0.57774252225E-02  0.85541486420E-02 -0.10171892903E-01  0.14501056080E-01  0.51100000000E-03 0.  1.
</event>
<event>
 8    1  0.1143957E+005  0.1043930E+01  0.7957747E-01            NaN
         13   -1    0    0    0    0  0.00000000000E+00  0.00000000000E+00  0.74505805969E-08  0.10566000000E+00  0.10566000000E+00 0.  1.
     999900   -1    0    0    0    0 -0.00000000000E+00 -0.00000000000E+00 -0.74505805969E-08  0.93827000000E+00  0.93827000000E+00 0. -1.
     999902    2    1    2    0    0 -0.17648116405E-01 -0.12895944170E-01 -0.85891186297E-02  0.10204452316E+01  0.10201749538E+01 0.  0.
     999903    2    3    3    0    0  0.54092407165E-01 -0.27682878880E-03  0.11501185537E+00  0.12882695812E+00  0.21037897137E-01 0.  0.
         14    1    1    2    0    0  0.17648116405E-01  0.12895944170E-01  0.85891186297E-02  0.23484768415E-01  0.00000000000E+00 0.  1.
     999901    1    3    3    0    0 -0.71740523570E-01 -0.12619115381E-01 -0.12360097400E+00  0.89161827346E+00  0.88000000000E+00 0. -1.
        -11    1    4    4    0    0  0.40353635472E-01  0.73834915133E-02  0.94097071180E-01  0.10265209091E+00  0.51100000000E-03 0. -1.
         11    1    4    4    0    0  0.13738771693E-01 -0.76603203021E-02  0.20914784194E-01  0.26174867213E-01  0.51100000000E-03 0.  1.
</event>
<event>
 8    1  0.1143957E+005  0.1043930E+01  0.7957747E-01            NaN
         13   -1    0    0    0    0  0.00000000000E+00  0.00000000000E+00  0.74505805969E-08  0.10566000000E+00  0.10566000000E+00 0.  1.
     999900   -1    0    0    0    0 -0.00000000000E+00 -0.00000000000E+00 -0.74505805969E-08  0.93827000000E+00  0.93827000000E+00 0.  1.
     999902    2    1    2    0    0  0.18541292962E-01 -0.39928880997E-02  0.13438701143E-01  0.10206851858E+01  0.10204204658E+01 0.  0.
     999903    2    3    3    0    0  0.67238289323E-01  0.28369806627E-02  0.11375412449E+00  0.13362192494E+00  0.19641333332E-01 0.  0.
         14    1    1    2    0    0 -0.18541292962E-01  0.39928880997E-02 -0.13438701143E-01  0.23244814228E-01  0.00000000000E+00 0. -1.
     999901    1    3    3    0    0 -0.48696996361E-01 -0.68298687624E-02 -0.10031542335E+00  0.88706326083E+00  0.88000000000E+00 0.  1.
        -11    1    4    4    0    0  0.51364579361E-01 -0.38474393870E-02  0.72709378335E-01  0.89106888744E-01  0.51100000000E-03 0.  1.
         11    1    4    4    0    0  0.15873709963E-01  0.66844200498E-02  0.41044746155E-01  0.44515036193E-01  0.51100000000E-03 0. -1.
</event>
<event>
 8    1  0.1143957E+005  0.1043930E+01  0.7957747E-01            NaN
         13   -1    0    0    0    0  0.00000000000E+00  0.00000000000E+00  0.74505805969E-08  0.10566000000E+00  0.10566000000E+00 0.  1.
     999900   -1    0    0    0    0 -0.00000000000E+00 -0.00000000000E+00 -0.74505805969E-08  0.93827000000E+00  0.93827000000E+00 0. -1.
     999902    2    1    2    0    0  0.17172900591E-01 -0.12814636638E-01  0.97938520654E-02  0.10203706502E+01  0.10200986328E+01 0.  0.
     999903    2    3    3    0    0 -0.36780516230E-01  0.63720139634E-01 -0.10301387501E+00  0.12824166483E+00  0.20518371917E-01 0.  0.
         14    1    1    2    0    0 -0.17172900591E-01  0.12814636638E-01 -0.97938520654E-02  0.23559349845E-01  0.00000000000E+00 0.  1.
     999901    1    3    3    0    0  0.53953416820E-01 -0.76534776272E-01  0.11280772707E+00  0.89212898532E+00  0.88000000000E+00 0.  1.
        -11    1    4    4    0    0 -0.44654585277E-03  0.17118437783E-01 -0.26677383433E-01  0.31704640404E-01  0.51100000000E-03 0.  1.
         11    1    4    4    0    0 -0.36333970377E-01  0.46601701851E-01 -0.76336491572E-01  0.96537024428E-01  0.51100000000E-03 0. -1.
</event>
<event>
 8    1  0.1245236E+005  0.1043930E+01  0.7957747E-01            NaN
         13   -1    0    0    0    0  0.00000000000E+00  0.00000000000E+00  0.74505805969E-08  0.10566000000E+00  0.10566000000E+00 0.  1.
     999900   -1    0    0    0    0 -0.00000000000E+00 -0.00000000000E+00 -0.74505805969E-08  0.93827000000E+00  0.93827000000E+00 0. -1.
     999902    2    1    2    0    0  0.23076427424E-01  0.67819917652E-03 -0.32331898890E-02  0.10206183082E+01  0.10203520452E+01 0.  0.
     999903    2    3    3    0    0 -0.71846635387E-01  0.68027135619E-01  0.80608629659E-01  0.12900420010E+00  0.18833541120E-01 0.  0.
         14    1    1    2    0    0 -0.23076427424E-01 -0.67819917652E-03  0.32331898890E-02  0.23311691780E-01  0.00000000000E+00 0. -1.
     999901    1    3    3    0    0  0.94923062811E-01 -0.67348936443E-01 -0.83841819548E-01  0.89161410812E+00  0.88000000000E+00 0. -1.
        -11    1    4    4    0    0 -0.36910832990E-01  0.34202350607E-01  0.52991942687E-01  0.73079528528E-01  0.51100000000E-03 0.  1.
         11    1    4    4    0    0 -0.34935802397E-01  0.33824785012E-01  0.27616686971E-01  0.55924671573E-01  0.51100000000E-03 0. -1.
</event>
<event>
 8    1  0.1143957E+005  0.1043930E+01  0.7957747E-01            NaN
         13   -1    0    0    0    0  0.00000000000E+00  0.00000000000E+00  0.74505805969E-08  0.10566000000E+00  0.10566000000E+00 0. -1.
     999900   -1    0    0    0    0 -0.00000000000E+00 -0.00000000000E+00 -0.74505805969E-08  0.93827000000E+00  0.93827000000E+00 0.  1.
     999902    2    1    2    0    0 -0.27272259472E-02 -0.22947336759E-01 -0.70862252774E-02  0.10197590957E+01  0.10194725993E+01 0.  0.
     999903    2    3    3    0    0 -0.64134491646E-01  0.76885799169E-01 -0.79023368875E-01  0.12907819890E+00  0.19794682869E-01 0.  0.
         14    1    1    2    0    0  0.27272259472E-02  0.22947336759E-01  0.70862252774E-02  0.24170904294E-01  0.00000000000E+00 0. -1.
     999901    1    3    3    0    0  0.61407265698E-01 -0.99833135928E-01  0.71937143598E-01  0.89068089681E+00  0.88000000000E+00 0. -1.
        -11    1    4    4    0    0 -0.29315562798E-01  0.20489592538E-01 -0.26820239902E-01  0.44708075489E-01  0.51100000000E-03 0. -1.
         11    1    4    4    0    0 -0.34818928848E-01  0.56396206631E-01 -0.52203128974E-01  0.84370123409E-01  0.51100000000E-03 0.  1.
</event>
<event>
 8    1  0.1143957E+005  0.1043930E+01  0.7957747E-01            NaN
         13   -1    0    0    0    0  0.00000000000E+00  0.00000000000E+00  0.74505805969E-08  0.10566000000E+00  0.10566000000E+00 0.  1.
     999900   -1    0    0    0    0 -0.00000000000E+00 -0.00000000000E+00 -0.74505805969E-08  0.93827000000E+00  0.93827000000E+00 0.  1.
     999902    2    1    2    0    0  0.92078499136E-02 -0.22754281153E-01  0.77173240462E-02  0.10181987175E+01  0.10178735331E+01 0.  0.
     999903    2    3    3    0    0 -0.95969395484E-02 -0.12441926138E+00 -0.35197651435E-01  0.13110735608E+00  0.19442487022E-01 0.  0.
         14    1    1    2    0    0 -0.92078499136E-02  0.22754281153E-01 -0.77173240462E-02  0.25731282542E-01  0.00000000000E+00 0. -1.
     999901    1    3    3    0    0  0.18804789462E-01  0.10166498022E+00  0.42914975482E-01  0.88709136138E+00  0.88000000000E+00 0. -1.
        -11    1    4    4    0    0 -0.13241649408E-01 -0.49073325013E-01 -0.15514055979E-01  0.53145832958E-01  0.51100000000E-03 0. -1.
         11    1    4    4    0    0  0.36447098592E-02 -0.75345936364E-01 -0.19683595456E-01  0.77961523123E-01  0.51100000000E-03 0.  1.
</event>
<event>
 8    1  0.1143957E+005  0.1043930E+01  0.7957747E-01            NaN
         13   -1    0    0    0    0  0.00000000000E+00  0.00000000000E+00  0.74505805969E-08  0.10566000000E+00  0.10566000000E+00 0.  1.
     999900   -1    0    0    0    0 -0.00000000000E+00 -0.00000000000E+00 -0.74505805969E-08  0.93827000000E+00  0.93827000000E+00 0. -1.
     999902    2    1    2    0    0  0.19818289753E-01  0.11148527850E-01 -0.73793008707E-02  0.10200237589E+01  0.10197435758E+01 0.  0.
     999903    2    3    3    0    0 -0.50504412016E-01  0.67639643448E-01 -0.97923206586E-01  0.13079109678E+00  0.19787359862E-01 0.  0.
         14    1    1    2    0    0 -0.19818289753E-01 -0.11148527850E-01  0.73793008707E-02  0.23906241095E-01  0.00000000000E+00 0.  1.
     999901    1    3    3    0    0  0.70322701769E-01 -0.56491115598E-01  0.90543905715E-01  0.88923266212E+00  0.88000000000E+00 0.  1.
        -11    1    4    4    0    0 -0.34856144585E-01  0.32705678209E-01 -0.46536603897E-01  0.66712283919E-01  0.51100000000E-03 0. -1.
         11    1    4    4    0    0 -0.15648267431E-01  0.34933965238E-01 -0.51386602689E-01  0.64078812862E-01  0.51100000000E-03 0.  1.
</event>
<event>
 8    1  0.1143957E+005  0.1043930E+01  0.7957747E-01            NaN
         13   -1    0    0    0    0  0.00000000000E+00  0.00000000000E+00  0.74505805969E-08  0.10566000000E+00  0.10566000000E+00 0. -1.
     999900   -1    0    0    0    0 -0.00000000000E+00 -0.00000000000E+00 -0.74505805969E-08  0.93827000000E+00  0.93827000000E+00 0.  1.
     999902    2    1    2    0    0 -0.91413550878E-02  0.13786027045E-01  0.16828755693E-01  0.10203328406E+01  0.10200599392E+01 0.  0.
     999903    2    3    3    0    0  0.69800832907E-01 -0.60402606202E-01 -0.86072133005E-01  0.12773863533E+00  0.19700653946E-01 0.  0.
         14    1    1    2    0    0  0.91413550878E-02 -0.13786027045E-01 -0.16828755693E-01  0.23597159420E-01  0.00000000000E+00 0.  1.
     999901    1    3    3    0    0 -0.78942187995E-01  0.74188633247E-01  0.10290088870E+00  0.89259420525E+00  0.88000000000E+00 0.  1.
        -11    1    4    4    0    0  0.64166813933E-01 -0.48416796717E-01 -0.79039917270E-01  0.11273480322E+00  0.51100000000E-03 0. -1.
         11    1    4    4    0    0  0.56340189742E-02 -0.11985809485E-01 -0.70322157351E-02  0.15003832109E-01  0.51100000000E-03 0.  1.
</event>
<event>
 8    1  0.1143957E+005  0.1043930E+01  0.7957747E-01            NaN
         13   -1    0    0    0    0  0.00000000000E+00  0.00000000000E+00  0.74505805969E-08  0.10566000000E+00  0.10566000000E+00 0. -1.
     999900   -1    0    0    0    0 -0.00000000000E+00 -0.00000000000E+00 -0.74505805969E-08  0.93827000000E+00  0.93827000000E+00 0.  1.
     999902    2    1    2    0    0 -0.23794615591E-01  0.70743357163E-03  0.64669104662E-03  0.10201160880E+01  0.10198380904E+01 0.  0.
     999903    2    3    3    0    0  0.59628310667E-01 -0.28041396757E-02 -0.11248239661E+00  0.12895397807E+00  0.20333230943E-01 0.  0.
         14    1    1    2    0    0  0.23794615591E-01 -0.70743357163E-03 -0.64669104662E-03  0.23813911956E-01  0.00000000000E+00 0. -1.
     999901    1    3    3    0    0 -0.83422926257E-01  0.35115732473E-02  0.11312908766E+00  0.89116210997E+00  0.88000000000E+00 0. -1.
        -11    1    4    4    0    0  0.10282723011E-01 -0.36587760358E-02 -0.38491718217E-01  0.40012429655E-01  0.51100000000E-03 0.  1.
         11    1    4    4    0    0  0.49345587656E-01  0.85463636008E-03 -0.73990678397E-01  0.88941548418E-01  0.51100000000E-03 0. -1.
</event>
<event>
 8    1  0.1143957E+005  0.1043930E+01  0.7957747E-01            NaN
         13   -1    0    0    0    0  0.00000000000E+00  0.00000000000E+00  0.74505805969E-08  0.10566000000E+00  0.10566000000E+00 0.  1.
     999900   -1    0    0    0    0 -0.00000000000E+00 -0.00000000000E+00 -0.74505805969E-08  0.93827000000E+00  0.93827000000E+00 0.  1.
     999902    2    1    2    0    0 -0.17875137574E-01 -0.15326868869E-01  0.39577694698E-02  0.10200532877E+01  0.10197738045E+01 0.  0.
     999903    2    3    3    0    0  0.14941923959E-01  0.99209909918E-01 -0.77042168083E-01  0.12833773711E+00  0.21661296963E-01 0.  0.
         14    1    1    2    0    0  0.17875137574E-01  0.15326868869E-01 -0.39577694698E-02  0.23876712332E-01  0.00000000000E+00 0. -1.
     999901    1    3    3    0    0 -0.32817061534E-01 -0.11453677879E+00  0.80999937552E-01  0.89171555056E+00  0.88000000000E+00 0. -1.
        -11    1    4    4    0    0  0.39504115507E-02  0.26092420508E-01 -0.90933526658E-02  0.27917205145E-01  0.51100000000E-03 0. -1.
         11    1    4    4    0    0  0.10991512409E-01  0.73117489409E-01 -0.67948815417E-01  0.10042053196E+00  0.51100000000E-03 0.  1.
</event>
<event>
 8    1  0.1143957E+005  0.1043930E+01  0.7957747E-01            NaN
         13   -1    0    0    0    0  0.00000000000E+00  0.00000000000E+00  0.74505805969E-08  0.10566000000E+00  0.10566000000E+00 0. -1.
     999900   -1    0    0    0    0 -0.00000000000E+00 -0.00000000000E+00 -0.74505805969E-08  0.93827000000E+00  0.93827000000E+00 0.  1.
     999902    2    1    2    0    0  0.24012031289E-01  0.19065643136E-02  0.24607662686E-03  0.10198411398E+01  0.10195566081E+01 0.  0.
     999903    2    3    3    0    0  0.82729105190E-01  0.94579109557E-02 -0.10057108968E+00  0.13210873716E+00  0.20115104518E-01 0.  0.
         14    1    1    2    0    0 -0.24012031289E-01 -0.19065643136E-02 -0.24607662686E-03  0.24088860243E-01  0.00000000000E+00 0.  1.
     999901    1    3    3    0    0 -0.58717073902E-01 -0.75513466422E-02  0.10081716630E+00  0.88773240260E+00  0.88000000000E+00 0. -1.
        -11    1    4    4    0    0  0.27885613586E-01 -0.50406220729E-02 -0.41045518553E-01  0.49879966221E-01  0.51100000000E-03 0. -1.
         11    1    4    4    0    0  0.54843491605E-01  0.14498533029E-01 -0.59525571122E-01  0.82228770937E-01  0.51100000000E-03 0.  1.
</event>
<event>
 8    1  0.1143957E+005  0.1043930E+01  0.7957747E-01            NaN
         13   -1    0    0    0    0  0.00000000000E+00  0.00000000000E+00  0.74505805969E-08  0.10566000000E+00  0.10566000000E+00 0. -1.
     999900   -1    0    0    0    0 -0.00000000000E+00 -0.00000000000E+00 -0.74505805969E-08  0.93827000000E+00  0.93827000000E+00 0.  1.
     999902    2    1    2    0    0  0.15245553775E-02  0.43560070784E-02 -0.22764075760E-01  0.10207028131E+01  0.10204384991E+01 0.  0.
     999903    2    3    3    0    0  0.12355561500E+00  0.18302092801E-01  0.31986114825E-01  0.13048730199E+00  0.20071567946E-01 0.  0.
         14    1    1    2    0    0 -0.15245553775E-02 -0.43560070784E-02  0.22764075760E-01  0.23227186915E-01  0.00000000000E+00 0. -1.
     999901    1    3    3    0    0 -0.12203105963E+00 -0.13946085722E-01 -0.54750190585E-01  0.89021551109E+00  0.88000000000E+00 0. -1.
        -11    1    4    4    0    0  0.96496648975E-01  0.62168946631E-02  0.21603638080E-01  0.99081942563E-01  0.51100000000E-03 0.  1.
         11    1    4    4    0    0  0.27058966029E-01  0.12085198137E-01  0.10382476745E-01  0.31405359430E-01  0.51100000000E-03 0. -1.
</event>
<event>
 7    1  0.1143957E+005  0.1043930E+01  0.7957747E-01            NaN
         13   -1    0    0    0    0  0.00000000000E+00  0.00000000000E+00  0.74505805969E-08  0.10566000000E+00  0.10566000000E+00 0.  1.
     999900   -1    0    0    0    0 -0.00000000000E+00 -0.00000000000E+00 -0.74505805969E-08  0.93827000000E+00  0.93827000000E+00 0. -1.
     999903    2    1    2    0    0 -0.79178200303E-01 -0.20412268203E-01 -0.70268259409E-01  0.11043941648E+00  0.23945528505E-01 0.  0.
         14    1    1    2    0    0  0.11717177197E-02 -0.64143450309E-03 -0.42590636655E-01  0.42611579311E-01  0.00000000000E+00 0. -1.
     999901    1    1    2    0    0  0.78006482583E-01  0.21053702706E-01  0.11285889606E+00  0.89087900421E+00  0.88000000000E+00 0.  1.
        -11    1    3    3    0    0 -0.28681721227E-01 -0.44580011541E-02 -0.11225855494E-01  0.31125485690E-01  0.51100000000E-03 0.  1.
         11    1    3    3    0    0 -0.50496479075E-01 -0.15954267049E-01 -0.59042403915E-01  0.79313930789E-01  0.51100000000E-03 0. -1.
</event>
<event>
 8    1  0.1143957E+005  0.1043930E+01  0.7957747E-01            NaN
         13   -1    0    0    0    0  0.00000000000E+00  0.00000000000E+00  0.74505805969E-08  0.10566000000E+00  0.10566000000E+00 0.  1.
     999900   -1    0    0    0    0 -0.00000000000E+00 -0.00000000000E+00 -0.74505805969E-08  0.93827000000E+00  0.93827000000E+00 0. -1.
     999902    2    1    2    0    0  0.28816551465E-02 -0.10781320340E-01 -0.19828972877E-01  0.10211763416E+01  0.10209228138E+01 0.  0.
     999903    2    3    3    0    0 -0.63216635621E-01  0.89359412086E-01  0.65451169721E-01  0.12894887451E+00  0.19039670995E-01 0.  0.
         14    1    1    2    0    0 -0.28816551465E-02  0.10781320340E-01  0.19828972877E-01  0.22753658388E-01  0.00000000000E+00 0.  1.
     999901    1    3    3    0    0  0.66098290768E-01 -0.10014073243E+00 -0.85280142598E-01  0.89222746710E+00  0.88000000000E+00 0. -1.
        -11    1    4    4    0    0 -0.37963692827E-01  0.68561193381E-01  0.47051863477E-01  0.91411258543E-01  0.51100000000E-03 0. -1.
         11    1    4    4    0    0 -0.25252942795E-01  0.20798218705E-01  0.18399306244E-01  0.37537615965E-01  0.51100000000E-03 0.  1.
</event>
<event>
 8    1  0.1143957E+005  0.1043930E+01  0.7957747E-01            NaN
         13   -1    0    0    0    0  0.00000000000E+00  0.00000000000E+00  0.74505805969E-08  0.10566000000E+00  0.10566000000E+00 0. -1.
     999900   -1    0    0    0    0 -0.00000000000E+00 -0.00000000000E+00 -0.74505805969E-08  0.93827000000E+00  0.93827000000E+00 0. -1.
     999902    2    1    2    0    0 -0.20057522608E-01 -0.41379818304E-02 -0.57804208673E-02  0.10226499537E+01  0.10224285243E+01 0.  0.
     999903    2    3    3    0    0 -0.37357217481E-01 -0.87403491035E-01 -0.92884911764E-01  0.13426962024E+00  0.19125693298E-01 0.  0.
         14    1    1    2    0    0  0.20057522608E-01  0.41379818304E-02  0.57804208673E-02  0.21280046339E-01  0.00000000000E+00 0. -1.
     999901    1    3    3    0    0  0.17299694873E-01  0.83265509205E-01  0.87104490897E-01  0.88838033342E+00  0.88000000000E+00 0.  1.
        -11    1    4    4    0    0 -0.39858712990E-03 -0.16231407328E-01 -0.10776197746E-01  0.19493717307E-01  0.51100000000E-03 0. -1.
         11    1    4    4    0    0 -0.36958630351E-01 -0.71172083707E-01 -0.82108714018E-01  0.11477590294E+00  0.51100000000E-03 0.  1.
</event>
<event>
 8    1  0.1143957E+005  0.1043930E+01  0.7957747E-01            NaN
         13   -1    0    0    0    0  0.00000000000E+00  0.00000000000E+00  0.74505805969E-08  0.10566000000E+00  0.10566000000E+00 0. -1.
     999900   -1    0    0    0    0 -0.00000000000E+00 -0.00000000000E+00 -0.74505805969E-08  0.93827000000E+00  0.93827000000E+00 0. -1.
     999902    2    1    2    0    0  0.90332347834E-02 -0.19372863127E-01 -0.10946840220E-01  0.10199145786E+01  0.10196317998E+01 0.  0.
     999903    2    3    3    0    0  0.18620254085E-01 -0.12973641325E+00  0.76373898256E-02  0.13277456833E+00  0.19811751257E-01 0.  0.
         14    1    1    2    0    0 -0.90332347834E-02  0.19372863127E-01  0.10946840220E-01  0.24015421446E-01  0.00000000000E+00 0. -1.
     999901    1    3    3    0    0 -0.95870193017E-02  0.11036355012E+00 -0.18584230046E-01  0.88714001022E+00  0.88000000000E+00 0. -1.
        -11    1    4    4    0    0  0.10087822031E-01 -0.10583820975E+00  0.17438996022E-03  0.10631924722E+00  0.51100000000E-03 0. -1.
         11    1    4    4    0    0  0.85324320540E-02 -0.23898203493E-01  0.74629998654E-02  0.26455321108E-01  0.51100000000E-03 0.  1.
</event>
<event>
 8    1  0.1143957E+005  0.1043930E+01  0.7957747E-01            NaN
         13   -1    0    0    0    0  0.00000000000E+00  0.00000000000E+00  0.74505805969E-08  0.10566000000E+00  0.10566000000E+00 0. -1.
     999900   -1    0    0    0    0 -0.00000000000E+00 -0.00000000000E+00 -0.74505805969E-08  0.93827000000E+00  0.93827000000E+00 0.  1.
     999902    2    1    2    0    0 -0.13576457891E-01  0.68906781424E-02  0.18141197160E-01  0.10202465735E+01  0.10199716497E+01 0.  0.
     999903    2    3    3    0    0  0.10026302587E+00 -0.75024949885E-01 -0.15089634574E-01  0.12852134325E+00  0.24670248015E-01 0.  0.
         14    1    1    2    0    0  0.13576457891E-01 -0.68906781424E-02 -0.18141197160E-01  0.23683426453E-01  0.00000000000E+00 0. -1.
     999901    1    3    3    0    0 -0.11383948376E+00  0.81915628028E-01  0.33230831735E-01  0.89172523030E+00  0.88000000000E+00 0.  1.
        -11    1    4    4    0    0  0.89649320301E-01 -0.58736051034E-01 -0.18537776733E-01  0.10876964011E+00  0.51100000000E-03 0.  1.
         11    1    4    4    0    0  0.10613705565E-01 -0.16288898851E-01  0.34481421588E-02  0.19751703141E-01  0.51100000000E-03 0. -1.
</event>
<event>
 8    1  0.1143957E+005  0.1043930E+01  0.7957747E-01            NaN
         13   -1    0    0    0    0  0.00000000000E+00  0.00000000000E+00  0.74505805969E-08  0.10566000000E+00  0.10566000000E+00 0.  1.
     999900   -1    0    0    0    0 -0.00000000000E+00 -0.00000000000E+00 -0.74505805969E-08  0.93827000000E+00  0.93827000000E+00 0. -1.
     999902    2    1    2    0    0  0.78785923924E-02  0.12992162155E-01 -0.18188717004E-01  0.10202298329E+01  0.10199545156E+01 0.  0.
     999903    2    3    3    0    0 -0.11691588885E+00  0.43666107033E-01 -0.33394219342E-01  0.13076608390E+00  0.20212393318E-01 0.  0.
         14    1    1    2    0    0 -0.78785923924E-02 -0.12992162155E-01  0.18188717004E-01  0.23700167126E-01  0.00000000000E+00 0.  1.
     999901    1    3    3    0    0  0.12479448124E+00 -0.30673944878E-01  0.15205502338E-01  0.88946374898E+00  0.88000000000E+00 0. -1.
        -11    1    4    4    0    0 -0.35532427323E-01  0.36388316018E-02 -0.10267828451E-01  0.37168318619E-01  0.51100000000E-03 0. -1.
         11    1    4    4    0    0 -0.81383461526E-01  0.40027275431E-01 -0.23126390891E-01  0.93597765278E-01  0.51100000000E-03 0.  1.
</event>
<event>
 8    1  0.1143957E+005  0.1043930E+01  0.7957747E-01            NaN
         13   -1    0    0    0    0  0.00000000000E+00  0.00000000000E+00  0.74505805969E-08  0.10566000000E+00  0.10566000000E+00 0.  1.
     999900   -1    0    0    0    0 -0.00000000000E+00 -0.00000000000E+00 -0.74505805969E-08  0.93827000000E+00  0.93827000000E+00 0. -1.
     999902    2    1    2    0    0  0.97220589732E-02 -0.21778011465E-01  0.21403382027E-02  0.10199846192E+01  0.10197035070E+01 0.  0.
     999903    2    3    3    0    0  0.23658496851E-01  0.34019784821E-01 -0.12214810225E+00  0.12939198797E+00  0.10249752921E-01 0.  0.
         14    1    1    2    0    0 -0.97220589732E-02  0.21778011465E-01 -0.21403382027E-02  0.23945380800E-01  0.00000000000E+00 0.  1.
     999901    1    3    3    0    0 -0.13936437878E-01 -0.55797796286E-01  0.12428844045E+00  0.89059263123E+00  0.88000000000E+00 0.  1.
        -11    1    4    4    0    0  0.36296531808E-02  0.61940693791E-02 -0.35178815340E-01  0.35907534689E-01  0.51100000000E-03 0. -1.
         11    1    4    4    0    0  0.20028843670E-01  0.27825715442E-01 -0.86969286910E-01  0.93484453281E-01  0.51100000000E-03 0.  1.
</event>
<event>
 8    1  0.1143957E+005  0.1043930E+01  0.7957747E-01            NaN
         13   -1    0    0    0    0  0.00000000000E+00  0.00000000000E+00  0.74505805969E-08  0.10566000000E+00  0.10566000000E+00 0.  1.
     999900   -1    0    0    0    0 -0.00000000000E+00 -0.00000000000E+00 -0.74505805969E-08  0.93827000000E+00  0.93827000000E+00 0.  1.
     999902    2    1    2    0    0 -0.57750806458E-02  0.67515781374E-02  0.21881885764E-01  0.10203132202E+01  0.10200398595E+01 0.  0.
     999903    2    3    3    0    0 -0.12429719288E+00  0.28593485588E-01  0.27694291248E-01  0.13207994899E+00  0.20267204616E-01 0.  0.
         14    1    1    2    0    0  0.57750806458E-02 -0.67515781374E-02 -0.21881885764E-01  0.23616779806E-01  0.00000000000E+00 0. -1.
     999901    1    3    3    0    0  0.11852211223E+00 -0.21841907451E-01 -0.58124054836E-02  0.88823327120E+00  0.88000000000E+00 0. -1.
        -11    1    4    4    0    0 -0.55202706553E-01  0.24288790007E-02  0.11586356704E-01  0.56460101369E-01  0.51100000000E-03 0.  1.
         11    1    4    4    0    0 -0.69094486326E-01  0.26164606588E-01  0.16107934544E-01  0.75619847624E-01  0.51100000000E-03 0. -1.
</event>
<event>
 8    1  0.1143957E+005  0.1043930E+01  0.7957747E-01            NaN
         13   -1    0    0    0    0  0.00000000000E+00  0.00000000000E+00  0.74505805969E-08  0.10566000000E+00  0.10566000000E+00 0.  1.
     999900   -1    0    0    0    0 -0.00000000000E+00 -0.00000000000E+00 -0.74505805969E-08  0.93827000000E+00  0.93827000000E+00 0. -1.
     999902    2    1    2    0    0  0.19952144990E-01 -0.10609814505E-01 -0.75045919557E-02  0.10201187599E+01  0.10198408254E+01 0.  0.
     999903    2    3    3    0    0 -0.10958581892E+00 -0.65020018646E-01 -0.34880454479E-02  0.12896406681E+00  0.19568074393E-01 0.  0.
         14    1    1    2    0    0 -0.19952144990E-01  0.10609814505E-01  0.75045919557E-02  0.23811240076E-01  0.00000000000E+00 0.  1.
     999901    1    3    3    0    0  0.12953796391E+00  0.54410204141E-01 -0.40165465078E-02  0.89115469311E+00  0.88000000000E+00 0. -1.
        -11    1    4    4    0    0 -0.70943771693E-01 -0.50889150899E-01  0.27112090616E-02  0.87351795613E-01  0.51100000000E-03 0. -1.
         11    1    4    4    0    0 -0.38642047224E-01 -0.14130867747E-01 -0.61992545095E-02  0.41612271200E-01  0.51100000000E-03 0.  1.
</event>
<event>
 8    1  0.1143957E+005  0.1043930E+01  0.7957747E-01            NaN
         13   -1    0    0    0    0  0.00000000000E+00  0.00000000000E+00  0.74505805969E-08  0.10566000000E+00  0.10566000000E+00 0.  1.
     999900   -1    0    0    0    0 -0.00000000000E+00 -0.00000000000E+00 -0.74505805969E-08  0.93827000000E+00  0.93827000000E+00 0.  1.
     999902    2    1    2    0    0 -0.22891199085E-01 -0.14483091951E-01 -0.38637246779E-02  0.10165677026E+01  0.10161993893E+01 0.  0.
     999903    2    3    3    0    0 -0.38872412732E-01  0.91722234325E-01 -0.76041861128E-01  0.12710457587E+00  0.21193768465E-01 0.  0.
         14    1    1    2    0    0  0.22891199085E-01  0.14483091951E-01  0.38637246779E-02  0.27362297352E-01  0.00000000000E+00 0.  1.
     999901    1    3    3    0    0  0.15981213647E-01 -0.10620532628E+00  0.72178136450E-01  0.88946312678E+00  0.88000000000E+00 0. -1.
        -11    1    4    4    0    0 -0.21144722620E-01  0.29804847565E-01 -0.35796140594E-01  0.51157140611E-01  0.51100000000E-03 0. -1.
         11    1    4    4    0    0 -0.17727690112E-01  0.61917386760E-01 -0.40245720534E-01  0.75947435257E-01  0.51100000000E-03 0.  1.
</event>
<event>
 8    1  0.1143957E+005  0.1043930E+01  0.7957747E-01            NaN
         13   -1    0    0    0    0  0.00000000000E+00  0.00000000000E+00  0.74505805969E-08  0.10566000000E+00  0.10566000000E+00 0.  1.
     999900   -1    0    0    0    0 -0.00000000000E+00 -0.00000000000E+00 -0.74505805969E-08  0.93827000000E+00  0.93827000000E+00 0. -1.
     999902    2    1    2    0    0 -0.12393969957E-01  0.20092345827E-01  0.81654941530E-02  0.10189502453E+01  0.10186440076E+01 0.  0.
     999903    2    3    3    0    0  0.56814053607E-02  0.11010816393E+00 -0.67668401007E-01  0.13092978021E+00  0.20186845214E-01 0.  0.
         14    1    1    2    0    0  0.12393969957E-01 -0.20092345827E-01 -0.81654941530E-02  0.24979754740E-01  0.00000000000E+00 0.  1.
     999901    1    3    3    0    0 -0.18075375317E-01 -0.90015818100E-01  0.75833895160E-01  0.88802046505E+00  0.88000000000E+00 0.  1.
        -11    1    4    4    0    0  0.12656334360E-01  0.57243903271E-01 -0.32236466899E-01  0.66906637789E-01  0.51100000000E-03 0. -1.
         11    1    4    4    0    0 -0.69749289998E-02  0.52864260656E-01 -0.35431934108E-01  0.64023142416E-01  0.51100000000E-03 0.  1.
</event>
<event>
 8    1  0.1143957E+005  0.1043930E+01  0.7957747E-01            NaN
         13   -1    0    0    0    0  0.00000000000E+00  0.00000000000E+00  0.74505805969E-08  0.10566000000E+00  0.10566000000E+00 0. -1.
     999900   -1    0    0    0    0 -0.00000000000E+00 -0.00000000000E+00 -0.74505805969E-08  0.93827000000E+00  0.93827000000E+00 0.  1.
     999902    2    1    2    0    0 -0.17007013638E-01 -0.16837856359E-01  0.87990791658E-04  0.10199976023E+01  0.10197167984E+01 0.  0.
     999903    2    3    3    0    0 -0.93737192320E-01 -0.87232296151E-01 -0.30887953318E-01  0.13331704727E+00  0.20572669143E-01 0.  0.
         14    1    1    2    0    0  0.17007013638E-01  0.16837856359E-01 -0.87990791658E-04  0.23932397750E-01  0.00000000000E+00 0.  1.
     999901    1    3    3    0    0  0.76730178682E-01  0.70394439792E-01  0.30975944110E-01  0.88668055498E+00  0.88000000000E+00 0.  1.
        -11    1    4    4    0    0 -0.12443164317E-01 -0.87400144106E-02  0.26438987714E-02  0.15442522845E-01  0.51100000000E-03 0. -1.
         11    1    4    4    0    0 -0.81294028003E-01 -0.78492281740E-01 -0.33531852090E-01  0.11787452442E+00  0.51100000000E-03 0.  1.
</event>
<event>
 8    1  0.1143957E+005  0.1043930E+01  0.7957747E-01            NaN
         13   -1    0    0    0    0  0.00000000000E+00  0.00000000000E+00  0.74505805969E-08  0.10566000000E+00  0.10566000000E+00 0.  1.
     999900   -1    0    0    0    0 -0.00000000000E+00 -0.00000000000E+00 -0.74505805969E-08  0.93827000000E+00  0.93827000000E+00 0.  1.
     999902    2    1    2    0    0 -0.19578237096E-01  0.73159972777E-02 -0.11358171527E-01  0.10201426243E+01  0.10198652532E+01 0.  0.
     999903    2    3    3    0    0 -0.22087686690E-01 -0.85345522540E-01 -0.96604471797E-01  0.13117727831E+00  0.10165148973E-01 0.  0.
         14    1    1    2    0    0  0.19578237096E-01 -0.73159972777E-02  0.11358171527E-01  0.23787375735E-01  0.00000000000E+00 0.  1.
     999901    1    3    3    0    0  0.25094495946E-02  0.92661519817E-01  0.85246300270E-01  0.88896534595E+00  0.88000000000E+00 0. -1.
        -11    1    4    4    0    0 -0.19527536586E-01 -0.66788892574E-01 -0.70655460892E-01  0.99169229760E-01  0.51100000000E-03 0.  1.
         11    1    4    4    0    0 -0.25601501045E-02 -0.18556629966E-01 -0.25949010905E-01  0.32008048554E-01  0.51100000000E-03 0. -1.
</event>
<event>
 8    1  0.1143957E+005  0.1043930E+01  0.7957747E-01            NaN
         13   -1    0    0    0    0  0.00000000000E+00  0.00000000000E+00  0.74505805969E-08  0.10566000000E+00  0.10566000000E+00 0.  1.
     999900   -1    0    0    0    0 -0.00000000000E+00 -0.00000000000E+00 -0.74505805969E-08  0.93827000000E+00  0.93827000000E+00 0. -1.
     999902    2    1    2    0    0  0.54470944794E-02  0.67015216959E-02  0.21699409097E-01  0.10205752235E+01  0.10203079639E+01 0.  0.
     999903    2    3    3    0    0  0.64310512584E-02 -0.57067884775E-01  0.11841482082E+00  0.13298219949E+00  0.19081239427E-01 0.  0.
         14    1    1    2    0    0 -0.54470944794E-02 -0.67015216959E-02 -0.21699409097E-01  0.23354776524E-01  0.00000000000E+00 0. -1.
     999901    1    3    3    0    0 -0.98395677898E-03  0.63769406471E-01 -0.96715411719E-01  0.88759302399E+00  0.88000000000E+00 0. -1.
        -11    1    4    4    0    0  0.87470604176E-02 -0.47925733234E-01  0.82177146042E-01  0.95533928134E-01  0.51100000000E-03 0.  1.
         11    1    4    4    0    0 -0.23160091593E-02 -0.91421515413E-02  0.36237674774E-01  0.37448271352E-01  0.51100000000E-03 0. -1.
</event>
<event>
 8    1  0.1143957E+005  0.1043930E+01  0.7957747E-01            NaN
         13   -1    0    0    0    0  0.00000000000E+00  0.00000000000E+00  0.74505805969E-08  0.10566000000E+00  0.10566000000E+00 0.  1.
     999900   -1    0    0    0    0 -0.00000000000E+00 -0.00000000000E+00 -0.74505805969E-08  0.93827000000E+00  0.93827000000E+00 0.  1.
     999902    2    1    2    0    0  0.13357837092E-01  0.83869264463E-02  0.23974419165E-01  0.10152325241E+01  0.10148268487E+01 0.  0.
     999903    2    3    3    0    0 -0.20675905630E-01 -0.12044316594E+00  0.18419392822E-01  0.12518401609E+00  0.19942782064E-01 0.  0.
         14    1    1    2    0    0 -0.13357837092E-01 -0.83869264463E-02 -0.23974419165E-01  0.28697475870E-01  0.00000000000E+00 0. -1.
     999901    1    3    3    0    0  0.34033742722E-01  0.12883009239E+00  0.55550263435E-02  0.89004850804E+00  0.88000000000E+00 0.  1.
        -11    1    4    4    0    0 -0.63224462915E-02 -0.30333791638E-01  0.13505698766E-01  0.33804988720E-01  0.51100000000E-03 0. -1.
         11    1    4    4    0    0 -0.14353459338E-01 -0.90109374305E-01  0.49136940553E-02  0.91379027368E-01  0.51100000000E-03 0.  1.
</event>
<event>
 8    1  0.1143957E+005  0.1043930E+01  0.7957747E-01            NaN
         13   -1    0    0    0    0  0.00000000000E+00  0.00000000000E+00  0.74505805969E-08  0.10566000000E+00  0.10566000000E+00 0.  1.
     999900   -1    0    0    0    0 -0.00000000000E+00 -0.00000000000E+00 -0.74505805969E-08  0.93827000000E+00  0.93827000000E+00 0. -1.
     999902    2    1    2    0    0 -0.22389010578E-01 -0.22831741560E-02  0.21997622119E-02  0.10213176221E+01  0.10210672679E+01 0.  0.
     999903    2    3    3    0    0 -0.15546810028E-01  0.12868607887E+00 -0.15119533148E-01  0.13143014670E+00  0.15603620754E-01 0.  0.
         14    1    1    2    0    0  0.22389010578E-01  0.22831741560E-02 -0.21997622119E-02  0.22612377864E-01  0.00000000000E+00 0.  1.
     999901    1    3    3    0    0 -0.68422005492E-02 -0.13096925303E+00  0.17319295359E-01  0.88988747544E+00  0.88000000000E+00 0.  1.
        -11    1    4    4    0    0 -0.18363147468E-02  0.50943585652E-01  0.37229999002E-03  0.50980591397E-01  0.51100000000E-03 0.  1.
         11    1    4    4    0    0 -0.13710495282E-01  0.77742493223E-01 -0.15491833138E-01  0.80449555302E-01  0.51100000000E-03 0. -1.
</event>
<event>
 8    1  0.1143957E+005  0.1043930E+01  0.7957747E-01            NaN
         13   -1    0    0    0    0  0.00000000000E+00  0.00000000000E+00  0.74505805969E-08  0.10566000000E+00  0.10566000000E+00 0.  1.
     999900   -1    0    0    0    0 -0.00000000000E+00 -0.00000000000E+00 -0.74505805969E-08  0.93827000000E+00  0.93827000000E+00 0.  1.
     999902    2    1    2    0    0 -0.16558012116E-01  0.90143885895E-02 -0.46211372106E-02  0.10245191300E+01  0.10243352311E+01 0.  0.
     999903    2    3    3    0    0  0.12321354767E+00 -0.39850551790E-01  0.13722897861E-01  0.13196079856E+00  0.21346887894E-01 0.  0.
         14    1    1    2    0    0  0.16558012116E-01 -0.90143885895E-02  0.46211372106E-02  0.19410870048E-01  0.00000000000E+00 0. -1.
     999901    1    3    3    0    0 -0.13977155978E+00  0.48864940380E-01 -0.18344035072E-01  0.89255833140E+00  0.88000000000E+00 0.  1.
        -11    1    4    4    0    0  0.39262510751E-01 -0.29166331904E-02  0.70538820218E-02  0.40000873393E-01  0.51100000000E-03 0.  1.
         11    1    4    4    0    0  0.83951036917E-01 -0.36933918600E-01  0.66690158396E-02  0.91959925163E-01  0.51100000000E-03 0. -1.
</event>
<event>
 8    1  0.1143957E+005  0.1043930E+01  0.7957747E-01            NaN
         13   -1    0    0    0    0  0.00000000000E+00  0.00000000000E+00  0.74505805969E-08  0.10566000000E+00  0.10566000000E+00 0.  1.
     999900   -1    0    0    0    0 -0.00000000000E+00 -0.00000000000E+00 -0.74505805969E-08  0.93827000000E+00  0.93827000000E+00 0.  1.
     999902    2    1    2    0    0  0.21361346909E-01 -0.26395721485E-02  0.89080697054E-02  0.10206356189E+01  0.10203697558E+01 0.  0.
     999903    2    3    3    0    0 -0.14398061576E-01 -0.90210166658E-02  0.12911745375E+00  0.13172068818E+00  0.19757021818E-01 0.  0.
         14    1    1    2    0    0 -0.21361346909E-01  0.26395721485E-02 -0.89080697054E-02  0.23294381056E-01  0.00000000000E+00 0. -1.
     999901    1    3    3    0    0  0.35759408485E-01  0.63814445172E-02 -0.12020938405E+00  0.88891493077E+00  0.88000000000E+00 0.  1.
        -11    1    4    4    0    0 -0.70067345060E-02 -0.38191736670E-02  0.13079848171E-01  0.15330491353E-01  0.51100000000E-03 0. -1.
         11    1    4    4    0    0 -0.73913270701E-02 -0.52018429987E-02  0.11603760558E+00  0.11639019682E+00  0.51100000000E-03 0.  1.
</event>
<event>
 8    1  0.1143957E+005  0.1043930E+01  0.7957747E-01            NaN
         13   -1    0    0    0    0  0.00000000000E+00  0.00000000000E+00  0.74505805969E-08  0.10566000000E+00  0.10566000000E+00 0.  1.
     999900   -1    0    0    0    0 -0.00000000000E+00 -0.00000000000E+00 -0.74505805969E-08  0.93827000000E+00  0.93827000000E+00 0.  1.
     999902    2    1    2    0    0  0.21271149130E-01  0.98248282837E-03 -0.23009644321E-01  0.10125792298E+01  0.10120937832E+01 0.  0.
     999903    2    3    3    0    0  0.85995979526E-01  0.65848734693E-01 -0.63121954410E-01  0.12691228808E+00  0.19773299741E-01 0.  0.
         14    1    1    2    0    0 -0.21271149130E-01 -0.98248282837E-03  0.23009644321E-01  0.31350770159E-01  0.00000000000E+00 0.  1.
     999901    1    3    3    0    0 -0.64724830396E-01 -0.64866251865E-01  0.40112310090E-01  0.88566694176E+00  0.88000000000E+00 0. -1.
        -11    1    4    4    0    0  0.16458423927E-01  0.20807357317E-01 -0.21725689715E-01  0.34294205797E-01  0.51100000000E-03 0. -1.
         11    1    4    4    0    0  0.69537555599E-01  0.45041377377E-01 -0.41396264696E-01  0.92618082287E-01  0.51100000000E-03 0.  1.
</event>
<event>
 8    1  0.1143957E+005  0.1043930E+01  0.7957747E-01            NaN
         13   -1    0    0    0    0  0.00000000000E+00  0.00000000000E+00  0.74505805969E-08  0.10566000000E+00  0.10566000000E+00 0.  1.
     999900   -1    0    0    0    0 -0.00000000000E+00 -0.00000000000E+00 -0.74505805969E-08  0.93827000000E+00  0.93827000000E+00 0.  1.
     999902    2    1    2    0    0  0.11300636627E-01 -0.19833617305E-01  0.66547892455E-02  0.10201526372E+01  0.10198755023E+01 0.  0.
     999903    2    3    3    0    0  0.12683248094E+00  0.24325086195E-01  0.13460113650E-01  0.13147726866E+00  0.20661787795E-01 0.  0.
         14    1    1    2    0    0 -0.11300636627E-01  0.19833617305E-01 -0.66547892455E-02  0.23777362837E-01  0.00000000000E+00 0.  1.
     999901    1    3    3    0    0 -0.11553184431E+00 -0.44158703500E-01 -0.68053244047E-02  0.88867536850E+00  0.88000000000E+00 0.  1.
        -11    1    4    4    0    0  0.74866885895E-01  0.73385304729E-02  0.15321219370E-01  0.76771775524E-01  0.51100000000E-03 0.  1.
         11    1    4    4    0    0  0.51965595045E-01  0.16986555722E-01 -0.18611057200E-02  0.54705493135E-01  0.51100000000E-03 0. -1.
</event>
<event>
 8    1  0.1143957E+005  0.1043930E+01  0.7957747E-01            NaN
         13   -1    0    0    0    0  0.00000000000E+00  0.00000000000E+00  0.74505805969E-08  0.10566000000E+00  0.10566000000E+00 0. -1.
     999900   -1    0    0    0    0 -0.00000000000E+00 -0.00000000000E+00 -0.74505805969E-08  0.93827000000E+00  0.93827000000E+00 0. -1.
     999902    2    1    2    0    0 -0.39270386368E-02 -0.17941731255E-01 -0.15329841293E-01  0.10200065515E+01  0.10197259601E+01 0.  0.
     999903    2    3    3    0    0 -0.11849756725E+00  0.25122351744E-01 -0.45765951482E-01  0.13101426918E+00  0.19935155131E-01 0.  0.
         14    1    1    2    0    0  0.39270386368E-02  0.17941731255E-01  0.15329841293E-01  0.23923448475E-01  0.00000000000E+00 0. -1.
     999901    1    3    3    0    0  0.11457052862E+00 -0.43064082999E-01  0.30436110189E-01  0.88899228235E+00  0.88000000000E+00 0.  1.
        -11    1    4    4    0    0 -0.60064273404E-01  0.21355877002E-01 -0.29471635338E-01  0.70232676387E-01  0.51100000000E-03 0.  1.
         11    1    4    4    0    0 -0.58433293851E-01  0.37664747417E-02 -0.16294316144E-01  0.60781592788E-01  0.51100000000E-03 0. -1.
</event>
<event>
 8    1  0.1143957E+005  0.1043930E+01  0.7957747E-01            NaN
         13   -1    0    0    0    0  0.00000000000E+00  0.00000000000E+00  0.74505805969E-08  0.10566000000E+00  0.10566000000E+00 0.  1.
     999900   -1    0    0    0    0 -0.00000000000E+00 -0.00000000000E+00 -0.74505805969E-08  0.93827000000E+00  0.93827000000E+00 0.  1.
     999902    2    1    2    0    0 -0.95750730579E-02 -0.20374875209E-01 -0.75702191608E-02  0.10201786678E+01  0.10199021465E+01 0.  0.
     999903    2    3    3    0    0 -0.16335036603E-01  0.10606498434E+00  0.66753366566E-01  0.12801459622E+00  0.20374262527E-01 0.  0.
         14    1    1    2    0    0  0.95750730579E-02  0.20374875209E-01  0.75702191608E-02  0.23751332215E-01  0.00000000000E+00 0. -1.
     999901    1    3    3    0    0  0.67599635449E-02 -0.12643985955E+00 -0.74323585727E-01  0.89216407156E+00  0.88000000000E+00 0.  1.
        -11    1    4    4    0    0 -0.48515372237E-02  0.52739079434E-01  0.21594994411E-01  0.57197489609E-01  0.51100000000E-03 0.  1.
         11    1    4    4    0    0 -0.11483499379E-01  0.53325904910E-01  0.45158372155E-01  0.70817106613E-01  0.51100000000E-03 0. -1.
</event>
<event>
 8    1  0.1143957E+005  0.1043930E+01  0.7957747E-01            NaN
         13   -1    0    0    0    0  0.00000000000E+00  0.00000000000E+00  0.74505805969E-08  0.10566000000E+00  0.10566000000E+00 0.  1.
     999900   -1    0    0    0    0 -0.00000000000E+00 -0.00000000000E+00 -0.74505805969E-08  0.93827000000E+00  0.93827000000E+00 0. -1.
     999902    2    1    2    0    0  0.60233214177E-02 -0.20979336754E-01  0.96272939630E-02  0.10200742300E+01  0.10197952427E+01 0.  0.
     999903    2    3    3    0    0  0.49564536054E-01 -0.72771602642E-01  0.97881521758E-01  0.13307530957E+00  0.19388046087E-01 0.  0.
         14    1    1    2    0    0 -0.60233214177E-02  0.20979336754E-01 -0.96272939630E-02  0.23855769964E-01  0.00000000000E+00 0. -1.
     999901    1    3    3    0    0 -0.43541214636E-01  0.51792265889E-01 -0.88254227795E-01  0.88699892046E+00  0.88000000000E+00 0. -1.
        -11    1    4    4    0    0  0.13779677954E-01 -0.13061277858E-01  0.32097802348E-01  0.37296200080E-01  0.51100000000E-03 0. -1.
         11    1    4    4    0    0  0.35784858100E-01 -0.59710324784E-01  0.65783719410E-01  0.95779109494E-01  0.51100000000E-03 0.  1.
</event>
<event>
 8    1  0.1143957E+005  0.1043930E+01  0.7957747E-01            NaN
         13   -1    0    0    0    0  0.00000000000E+00  0.00000000000E+00  0.74505805969E-08  0.10566000000E+00  0.10566000000E+00 0.  1.
     999900   -1    0    0    0    0 -0.00000000000E+00 -0.00000000000E+00 -0.74505805969E-08  0.93827000000E+00  0.93827000000E+00 0.  1.
     999902    2    1    2    0    0 -0.58407521075E-02  0.40549953801E-02 -0.22456863728E-01  0.10203743616E+01  0.10201024310E+01 0.  0.
     999903    2    3    3    0    0 -0.10834201291E+00 -0.70074541451E-01  0.69156161103E-02  0.13084390158E+00  0.20588047837E-01 0.  0.
         14    1    1    2    0    0  0.58407521075E-02 -0.40549953801E-02  0.22456863728E-01  0.23555638416E-01  0.00000000000E+00 0.  1.
     999901    1    3    3    0    0  0.10250126080E+00  0.74129536832E-01 -0.29372479838E-01  0.88953046000E+00  0.88000000000E+00 0.  1.
        -11    1    4    4    0    0 -0.29752921876E-01 -0.15064638912E-01  0.10136861897E-01  0.34859672916E-01  0.51100000000E-03 0.  1.
         11    1    4    4    0    0 -0.78589091036E-01 -0.55009902539E-01 -0.32212457867E-02  0.95984228667E-01  0.51100000000E-03 0. -1.
</event>
<event>
 8    1  0.1143957E+005  0.1043930E+01  0.7957747E-01            NaN
         13   -1    0    0    0    0  0.00000000000E+00  0.00000000000E+00  0.74505805969E-08  0.10566000000E+00  0.10566000000E+00 0. -1.
     999900   -1    0    0    0    0 -0.00000000000E+00 -0.00000000000E+00 -0.74505805969E-08  0.93827000000E+00  0.93827000000E+00 0.  1.
     999902    2    1    2    0    0 -0.25841531570E-01 -0.25899809732E-02  0.42248731084E-02  0.10176176016E+01  0.10172773667E+01 0.  0.
     999903    2    3    3    0    0  0.62165378571E-01 -0.43269426790E-01 -0.98373811893E-01  0.12636762339E+00  0.23549772551E-01 0.  0.
         14    1    1    2    0    0  0.25841531570E-01  0.25899809732E-02 -0.42248731084E-02  0.26312398373E-01  0.00000000000E+00 0. -1.
     999901    1    3    3    0    0 -0.88006910141E-01  0.40679445817E-01  0.10259868500E+00  0.89124997824E+00  0.88000000000E+00 0. -1.
        -11    1    4    4    0    0  0.28549852482E-01 -0.11663116689E-01 -0.25061441952E-01  0.39742412626E-01  0.51100000000E-03 0. -1.
         11    1    4    4    0    0  0.33615526089E-01 -0.31606310101E-01 -0.73312369941E-01  0.86625210763E-01  0.51100000000E-03 0.  1.
</event>
<event>
 8    1  0.1143957E+005  0.1043930E+01  0.7957747E-01            NaN
         13   -1    0    0    0    0  0.00000000000E+00  0.00000000000E+00  0.74505805969E-08  0.10566000000E+00  0.10566000000E+00 0.  1.
     999900   -1    0    0    0    0 -0.00000000000E+00 -0.00000000000E+00 -0.74505805969E-08  0.93827000000E+00  0.93827000000E+00 0. -1.
     999902    2    1    2    0    0  0.14161427492E-01  0.14421570985E-01  0.12461874492E-01  0.10201849783E+01  0.10199086057E+01 0.  0.
     999903    2    3    3    0    0  0.17175616290E-01 -0.65408858983E-01  0.11079190441E+00  0.13111199051E+00  0.18498306565E-01 0.  0.
         14    1    1    2    0    0 -0.14161427492E-01 -0.14421570985E-01 -0.12461874492E-01  0.23745021670E-01  0.00000000000E+00 0. -1.
     999901    1    3    3    0    0 -0.30141887979E-02  0.79830429967E-01 -0.98330029915E-01  0.88907298782E+00  0.88000000000E+00 0. -1.
        -11    1    4    4    0    0  0.13111557970E-01 -0.57379552034E-01  0.10507512274E+00  0.12043823514E+00  0.51100000000E-03 0. -1.
         11    1    4    4    0    0  0.40640583204E-02 -0.80293069485E-02  0.57167816658E-02  0.10673755371E-01  0.51100000000E-03 0.  1.
</event>
<event>
 8    1  0.1143957E+005  0.1043930E+01  0.7957747E-01            NaN
         13   -1    0    0    0    0  0.00000000000E+00  0.00000000000E+00  0.74505805969E-08  0.10566000000E+00  0.10566000000E+00 0.  1.
     999900   -1    0    0    0    0 -0.00000000000E+00 -0.00000000000E+00 -0.74505805969E-08  0.93827000000E+00  0.93827000000E+00 0. -1.
     999902    2    1    2    0    0  0.85704438171E-02  0.16920112953E-01  0.14707378940E-01  0.10199289641E+01  0.10196465280E+01 0.  0.
     999903    2    3    3    0    0 -0.70317884697E-01  0.72929893524E-01 -0.78848971619E-01  0.12969682884E+00  0.18458949283E-01 0.  0.
         14    1    1    2    0    0 -0.85704438171E-02 -0.16920112953E-01 -0.14707378940E-01  0.24001035912E-01  0.00000000000E+00 0. -1.
     999901    1    3    3    0    0  0.78888328514E-01 -0.56009780571E-01  0.93556350559E-01  0.89023213525E+00  0.88000000000E+00 0.  1.
        -11    1    4    4    0    0 -0.26921458294E-01  0.38151530731E-01 -0.28704142683E-01  0.54813256991E-01  0.51100000000E-03 0.  1.
         11    1    4    4    0    0 -0.43396426403E-01  0.34778362792E-01 -0.50144828936E-01  0.74883571851E-01  0.51100000000E-03 0. -1.
</event>
<event>
 8    1  0.1143957E+005  0.1043930E+01  0.7957747E-01            NaN
         13   -1    0    0    0    0  0.00000000000E+00  0.00000000000E+00  0.74505805969E-08  0.10566000000E+00  0.10566000000E+00 0. -1.
     999900   -1    0    0    0    0 -0.00000000000E+00 -0.00000000000E+00 -0.74505805969E-08  0.93827000000E+00  0.93827000000E+00 0. -1.
     999902    2    1    2    0    0 -0.14990342209E-01 -0.17061042640E-01 -0.20553650182E-02  0.10211261832E+01  0.10208715237E+01 0.  0.
     999903    2    3    3    0    0 -0.10605119932E+00 -0.40587156196E-01  0.66790701773E-01  0.13344080051E+00  0.21243240641E-01 0.  0.
         14    1    1    2    0    0  0.14990342209E-01  0.17061042640E-01  0.20553650182E-02  0.22803816804E-01  0.00000000000E+00 0.  1.
     999901    1    3    3    0    0  0.91060857110E-01  0.23526113556E-01 -0.68846066792E-01  0.88768538268E+00  0.88000000000E+00 0. -1.
        -11    1    4    4    0    0 -0.52885340035E-01 -0.16929058672E-01  0.20918049422E-01  0.59340358364E-01  0.51100000000E-03 0. -1.
         11    1    4    4    0    0 -0.53165859284E-01 -0.23658097524E-01  0.45872652351E-01  0.74100442148E-01  0.51100000000E-03 0.  1.
</event>
<event>
 8    1  0.1143957E+005  0.1043930E+01  0.7957747E-01            NaN
         13   -1    0    0    0    0  0.00000000000E+00  0.00000000000E+00  0.74505805969E-08  0.10566000000E+00  0.10566000000E+00 0.  1.
     999900   -1    0    0    0    0 -0.00000000000E+00 -0.00000000000E+00 -0.74505805969E-08  0.93827000000E+00  0.93827000000E+00 0. -1.
     999902    2    1    2    0    0 -0.11493458779E-01 -0.19669140694E-02  0.21311293626E-01  0.10196372113E+01  0.10193477832E+01 0.  0.
     999903    2    3    3    0    0  0.78456819586E-01 -0.89605225075E-01 -0.43482044316E-01  0.12836300953E+00  0.20045077662E-01 0.  0.
         14    1    1    2    0    0  0.11493458779E-01  0.19669140694E-02 -0.21311293626E-01  0.24292788676E-01  0.00000000000E+00 0. -1.
     999901    1    3    3    0    0 -0.89950278365E-01  0.87638311006E-01  0.64793337942E-01  0.89127420179E+00  0.88000000000E+00 0.  1.
        -11    1    4    4    0    0  0.36338784918E-01 -0.35490926850E-01 -0.28221157687E-01  0.58110309241E-01  0.51100000000E-03 0. -1.
         11    1    4    4    0    0  0.42118034669E-01 -0.54114298225E-01 -0.15260886630E-01  0.70252700293E-01  0.51100000000E-03 0.  1.
</event>
<event>
 8    1  0.1143957E+005  0.1043930E+01  0.7957747E-01            NaN
         13   -1    0    0    0    0  0.00000000000E+00  0.00000000000E+00  0.74505805969E-08  0.10566000000E+00  0.10566000000E+00 0. -1.
     999900   -1    0    0    0    0 -0.00000000000E+00 -0.00000000000E+00 -0.74505805969E-08  0.93827000000E+00  0.93827000000E+00 0.  1.
     999902    2    1    2    0    0 -0.19363305922E-01  0.14776234042E-01  0.68333226883E-02  0.10186323913E+01  0.10183182113E+01 0.  0.
     999903    2    3    3    0    0  0.57842858956E-01  0.11116582275E+00  0.26417294891E-01  0.12979310508E+00  0.21088863802E-01 0.  0.
         14    1    1    2    0    0  0.19363305922E-01 -0.14776234042E-01 -0.68333226883E-02  0.25297608734E-01  0.00000000000E+00 0. -1.
     999901    1    3    3    0    0 -0.77206164878E-01 -0.96389588707E-01 -0.19583972203E-01  0.88883928619E+00  0.88000000000E+00 0. -1.
        -11    1    4    4    0    0  0.32779926979E-01  0.44803751599E-01  0.52575582204E-02  0.55765605973E-01  0.51100000000E-03 0. -1.
         11    1    4    4    0    0  0.25062931977E-01  0.66362071149E-01  0.21159736670E-01  0.74027499103E-01  0.51100000000E-03 0.  1.
</event>
<event>
 8    1  0.1143957E+005  0.1043930E+01  0.7957747E-01            NaN
         13   -1    0    0    0    0  0.00000000000E+00  0.00000000000E+00  0.74505805969E-08  0.10566000000E+00  0.10566000000E+00 0. -1.
     999900   -1    0    0    0    0 -0.00000000000E+00 -0.00000000000E+00 -0.74505805969E-08  0.93827000000E+00  0.93827000000E+00 0. -1.
     999902    2    1    2    0    0 -0.12719104302E-01 -0.19163738042E-01  0.23598291435E-02  0.10208087270E+01  0.10205468455E+01 0.  0.
     999903    2    3    3    0    0 -0.21332586228E-01 -0.11844629198E+00 -0.53630536357E-01  0.13341583850E+00  0.20951090992E-01 0.  0.
         14    1    1    2    0    0  0.12719104302E-01  0.19163738042E-01 -0.23598291435E-02  0.23121272967E-01  0.00000000000E+00 0.  1.
     999901    1    3    3    0    0  0.86134819253E-02  0.99282553939E-01  0.55990365501E-01  0.88739288853E+00  0.88000000000E+00 0.  1.
        -11    1    4    4    0    0 -0.55606274103E-02 -0.20818920956E-01 -0.14604277821E-02  0.21604212952E-01  0.51100000000E-03 0. -1.
         11    1    4    4    0    0 -0.15771958817E-01 -0.97627371026E-01 -0.52170108575E-01  0.11181162555E+00  0.51100000000E-03 0.  1.
</event>
<event>
 8    1  0.1143957E+005  0.1043930E+01  0.7957747E-01            NaN
         13   -1    0    0    0    0  0.00000000000E+00  0.00000000000E+00  0.74505805969E-08  0.10566000000E+00  0.10566000000E+00 0. -1.
     999900   -1    0    0    0    0 -0.00000000000E+00 -0.00000000000E+00 -0.74505805969E-08  0.93827000000E+00  0.93827000000E+00 0. -1.
     999902    2    1    2    0    0  0.14732779246E-01 -0.28685066321E-02  0.18316244444E-01  0.10202494610E+01  0.10199746050E+01 0.  0.
     999903    2    3    3    0    0 -0.12010811854E+00  0.28587738071E-01 -0.27946702561E-01  0.12822265466E+00  0.20415975998E-01 0.  0.
         14    1    1    2    0    0 -0.14732779246E-01  0.28685066321E-02 -0.18316244444E-01  0.23680538954E-01  0.00000000000E+00 0.  1.
     999901    1    3    3    0    0  0.13484089779E+00 -0.31456244703E-01  0.46262947005E-01  0.89202680639E+00  0.88000000000E+00 0.  1.
        -11    1    4    4    0    0 -0.10920337107E+00  0.31215087508E-01 -0.28062266074E-01  0.11699363162E+00  0.51100000000E-03 0.  1.
         11    1    4    4    0    0 -0.10904747477E-01 -0.26273494373E-02  0.11556351299E-03  0.11229023044E-01  0.51100000000E-03 0. -1.
</event>
<event>
 8    1  0.1143957E+005  0.1043930E+01  0.7957747E-01            NaN
         13   -1    0    0    0    0  0.00000000000E+00  0.00000000000E+00  0.74505805969E-08  0.10566000000E+00  0.10566000000E+00 0.  1.
     999900   -1    0    0    0    0 -0.00000000000E+00 -0.00000000000E+00 -0.74505805969E-08  0.93827000000E+00  0.93827000000E+00 0.  1.
     999902    2    1    2    0    0 -0.18657400050E-01  0.32567774010E-02 -0.13824183741E-01  0.10204819035E+01  0.10202124789E+01 0.  0.
     999903    2    3    3    0    0  0.39806147756E-01 -0.27614819099E-01 -0.12085588459E+00  0.13153487079E+00  0.18659307574E-01 0.  0.
         14    1    1    2    0    0  0.18657400050E-01 -0.32567774010E-02  0.13824183741E-01  0.23448096549E-01  0.00000000000E+00 0.  1.
     999901    1    3    3    0    0 -0.58463547806E-01  0.30871596500E-01  0.10703170085E+00  0.88894703266E+00  0.88000000000E+00 0.  1.
        -11    1    4    4    0    0  0.19258122489E-01 -0.22691843888E-01 -0.83030630666E-01  0.88205112157E-01  0.51100000000E-03 0.  1.
         11    1    4    4    0    0  0.20548025267E-01 -0.49229752119E-02 -0.37825253928E-01  0.43329758631E-01  0.51100000000E-03 0. -1.
</event>
<event>
 8    1  0.1143957E+005  0.1043930E+01  0.7957747E-01            NaN
         13   -1    0    0    0    0  0.00000000000E+00  0.00000000000E+00  0.74505805969E-08  0.10566000000E+00  0.10566000000E+00 0. -1.
     999900   -1    0    0    0    0 -0.00000000000E+00 -0.00000000000E+00 -0.74505805969E-08  0.93827000000E+00  0.93827000000E+00 0. -1.
     999902    2    1    2    0    0  0.22338967703E-01  0.33463186813E-02  0.78511260405E-02  0.10200162486E+01  0.10197358873E+01 0.  0.
     999903    2    3    3    0    0  0.12940946948E+00 -0.14006238723E-01 -0.21507369909E-01  0.13287075607E+00  0.15782437812E-01 0.  0.
         14    1    1    2    0    0 -0.22338967703E-01 -0.33463186813E-02 -0.78511260405E-02  0.23913751418E-01  0.00000000000E+00 0. -1.
     999901    1    3    3    0    0 -0.10707050178E+00  0.17352557404E-01  0.29358495950E-01  0.88714549251E+00  0.88000000000E+00 0. -1.
        -11    1    4    4    0    0  0.10491181628E+00 -0.17472542631E-01 -0.18192902953E-01  0.10790283491E+00  0.51100000000E-03 0.  1.
         11    1    4    4    0    0  0.24497653199E-01  0.34663039085E-02 -0.33144669569E-02  0.24967921164E-01  0.51100000000E-03 0. -1.
</event>
<event>
 8    1  0.1143957E+005  0.1043930E+01  0.7957747E-01            NaN
         13   -1    0    0    0    0  0.00000000000E+00  0.00000000000E+00  0.74505805969E-08  0.10566000000E+00  0.10566000000E+00 0.  1.
     999900   -1    0    0    0    0 -0.00000000000E+00 -0.00000000000E+00 -0.74505805969E-08  0.93827000000E+00  0.93827000000E+00 0. -1.
     999902    2    1    2    0    0  0.21180973312E-01  0.10791979488E-01 -0.15332299787E-02  0.10201087648E+01  0.10198305942E+01 0.  0.
     999903    2    3    3    0    0 -0.82360612673E-01  0.98185116399E-01 -0.16026018317E-02  0.12973893984E+00  0.20150349277E-01 0.  0.
         14    1    1    2    0    0 -0.21180973312E-01 -0.10791979488E-01  0.15332299787E-02  0.23821235188E-01  0.00000000000E+00 0.  1.
     999901    1    3    3    0    0  0.10354158599E+00 -0.87393136911E-01  0.69371852999E-04  0.89036982497E+00  0.88000000000E+00 0.  1.
        -11    1    4    4    0    0 -0.25266141398E-01  0.16931950427E-01 -0.64997478003E-03  0.30426180086E-01  0.51100000000E-03 0.  1.
         11    1    4    4    0    0 -0.57094471275E-01  0.81253165972E-01 -0.95262705169E-03  0.99312759754E-01  0.51100000000E-03 0. -1.
</event>
<event>
 8    1  0.1143957E+005  0.1043930E+01  0.7957747E-01            NaN
         13   -1    0    0    0    0  0.00000000000E+00  0.00000000000E+00  0.74505805969E-08  0.10566000000E+00  0.10566000000E+00 0. -1.
     999900   -1    0    0    0    0 -0.00000000000E+00 -0.00000000000E+00 -0.74505805969E-08  0.93827000000E+00  0.93827000000E+00 0. -1.
     999902    2    1    2    0    0 -0.21833659183E-01  0.50342436856E-02 -0.43918862199E-02  0.10210971082E+01  0.10208417916E+01 0.  0.
     999903    2    3    3    0    0  0.11746977727E+00  0.23989926522E-01 -0.43520169491E-01  0.12907929008E+00  0.19819001691E-01 0.  0.
         14    1    1    2    0    0  0.21833659183E-01 -0.50342436856E-02  0.43918862199E-02  0.22832891787E-01  0.00000000000E+00 0.  1.
     999901    1    3    3    0    0 -0.13930343645E+00 -0.18955682836E-01  0.39128283271E-01  0.89201781814E+00  0.88000000000E+00 0.  1.
        -11    1    4    4    0    0  0.41153060391E-01  0.16896988545E-01 -0.11074245057E-01  0.45847384070E-01  0.51100000000E-03 0.  1.
         11    1    4    4    0    0  0.76316716879E-01  0.70929379767E-02 -0.32445924435E-01  0.83231906008E-01  0.51100000000E-03 0. -1.
</event>
<event>
 8    1  0.1143957E+005  0.1043930E+01  0.7957747E-01            NaN
         13   -1    0    0    0    0  0.00000000000E+00  0.00000000000E+00  0.74505805969E-08  0.10566000000E+00  0.10566000000E+00 0.  1.
     999900   -1    0    0    0    0 -0.00000000000E+00 -0.00000000000E+00 -0.74505805969E-08  0.93827000000E+00  0.93827000000E+00 0.  1.
     999902    2    1    2    0    0 -0.15959300148E-01 -0.15834271776E-01 -0.54785654382E-02  0.10207904645E+01  0.10205281644E+01 0.  0.
     999903    2    3    3    0    0 -0.11348801934E+00  0.11707151685E-01  0.63727532975E-01  0.13227492433E+00  0.20466294538E-01 0.  0.
         14    1    1    2    0    0  0.15959300148E-01  0.15834271776E-01  0.54785654382E-02  0.23139535501E-01  0.00000000000E+00 0. -1.
     999901    1    3    3    0    0  0.97528719191E-01 -0.27541423462E-01 -0.69206098413E-01  0.88851554017E+00  0.88000000000E+00 0. -1.
        -11    1    4    4    0    0 -0.24175479070E-01 -0.56261940625E-02  0.15997181110E-01  0.29534365955E-01  0.51100000000E-03 0.  1.
         11    1    4    4    0    0 -0.89312540269E-01  0.17333345748E-01  0.47730351864E-01  0.10274055837E+00  0.51100000000E-03 0. -1.
</event>
<event>
 7    1  0.1143957E+005  0.1043930E+01  0.7957747E-01            NaN
         13   -1    0    0    0    0  0.00000000000E+00  0.00000000000E+00  0.74505805969E-08  0.10566000000E+00  0.10566000000E+00 0. -1.
     999900   -1    0    0    0    0 -0.00000000000E+00 -0.00000000000E+00 -0.74505805969E-08  0.93827000000E+00  0.93827000000E+00 0.  1.
     999903    2    1    2    0    0 -0.38945088450E-01  0.86149498540E-01 -0.51790785701E-01  0.10963251689E+00  0.19963648568E-01 0.  0.
         14    1    1    2    0    0 -0.37992087122E-01  0.16561086013E-01 -0.10677626983E-01  0.42798130471E-01  0.00000000000E+00 0.  1.
     999901    1    1    2    0    0  0.76937175572E-01 -0.10271058455E+00  0.62468412684E-01  0.89149935263E+00  0.88000000000E+00 0. -1.
        -11    1    3    3    0    0 -0.16213741996E-01  0.22598466558E-01 -0.71912500056E-02  0.28732408843E-01  0.51100000000E-03 0. -1.
         11    1    3    3    0    0 -0.22731346454E-01  0.63551031981E-01 -0.44599535695E-01  0.80900108052E-01  0.51100000000E-03 0.  1.
</event>
<event>
 8    1  0.1143957E+005  0.1043930E+01  0.7957747E-01            NaN
         13   -1    0    0    0    0  0.00000000000E+00  0.00000000000E+00  0.74505805969E-08  0.10566000000E+00  0.10566000000E+00 0.  1.
     999900   -1    0    0    0    0 -0.00000000000E+00 -0.00000000000E+00 -0.74505805969E-08  0.93827000000E+00  0.93827000000E+00 0. -1.
     999902    2    1    2    0    0 -0.20937962928E-01 -0.66579513446E-02 -0.10113953820E-01  0.10197428408E+01  0.10194559543E+01 0.  0.
     999903    2    3    3    0    0 -0.49716226305E-01 -0.10513634974E+00  0.57290223102E-01  0.13122187513E+00  0.20289299002E-01 0.  0.
         14    1    1    2    0    0  0.20937962928E-01  0.66579513446E-02  0.10113953820E-01  0.24187159188E-01  0.00000000000E+00 0.  1.
     999901    1    3    3    0    0  0.28778263377E-01  0.98478398398E-01 -0.67404176922E-01  0.88852096568E+00  0.88000000000E+00 0.  1.
        -11    1    4    4    0    0 -0.49150619609E-01 -0.94956250283E-01  0.47234385195E-01  0.11689234852E+00  0.51100000000E-03 0. -1.
         11    1    4    4    0    0 -0.56560669586E-03 -0.10180099459E-01  0.10055837906E-01  0.14329526612E-01  0.51100000000E-03 0.  1.
</event>
<event>
 8    1  0.1143957E+005  0.1043930E+01  0.7957747E-01            NaN
         13   -1    0    0    0    0  0.00000000000E+00  0.00000000000E+00  0.74505805969E-08  0.10566000000E+00  0.10566000000E+00 0. -1.
     999900   -1    0    0    0    0 -0.00000000000E+00 -0.00000000000E+00 -0.74505805969E-08  0.93827000000E+00  0.93827000000E+00 0.  1.
     999902    2    1    2    0    0 -0.15163316224E-01 -0.46085829825E-02 -0.17351330859E-01  0.10204303430E+01  0.10201597184E+01 0.  0.
     999903    2    3    3    0    0  0.11215262565E+00 -0.53480658295E-01  0.27766540893E-01  0.12878385973E+00  0.19388385229E-01 0.  0.
         14    1    1    2    0    0  0.15163316224E-01  0.46085829825E-02  0.17351330859E-01  0.23499656989E-01  0.00000000000E+00 0. -1.
     999901    1    3    3    0    0 -0.12731594187E+00  0.48872075312E-01 -0.45117871753E-01  0.89164648328E+00  0.88000000000E+00 0.  1.
        -11    1    4    4    0    0  0.23325349375E-01 -0.58034506894E-02  0.11552086637E-01  0.26673278577E-01  0.51100000000E-03 0. -1.
         11    1    4    4    0    0  0.88827276273E-01 -0.47677207606E-01  0.16214454256E-01  0.10211058115E+00  0.51100000000E-03 0.  1.
</event>
<event>
 8    1  0.1143957E+005  0.1043930E+01  0.7957747E-01            NaN
         13   -1    0    0    0    0  0.00000000000E+00  0.00000000000E+00  0.74505805969E-08  0.10566000000E+00  0.10566000000E+00 0.  1.
     999900   -1    0    0    0    0 -0.00000000000E+00 -0.00000000000E+00 -0.74505805969E-08  0.93827000000E+00  0.93827000000E+00 0. -1.
     999902    2    1    2    0    0  0.14735851060E-01 -0.18679893564E-02  0.18374463963E-01  0.10203025664E+01  0.10200289562E+01 0.  0.
     999903    2    3    3    0    0 -0.23379003530E-01  0.63966406747E-01 -0.10685307944E+00  0.12818774901E+00  0.19396891829E-01 0.  0.
         14    1    1    2    0    0 -0.14735851060E-01  0.18679893564E-02 -0.18374463963E-01  0.23627433560E-01  0.00000000000E+00 0.  1.
     999901    1    3    3    0    0  0.38114854589E-01 -0.65834396103E-01  0.12522754340E+00  0.89211481743E+00  0.88000000000E+00 0.  1.
        -11    1    4    4    0    0 -0.87286133303E-02  0.31537018686E-01 -0.68202587046E-01  0.75648041872E-01  0.51100000000E-03 0. -1.
         11    1    4    4    0    0 -0.14650390199E-01  0.32429388061E-01 -0.38650492393E-01  0.52539707139E-01  0.51100000000E-03 0.  1.
</event>
<event>
 8    1  0.1143957E+005  0.1043930E+01  0.7957747E-01            NaN
         13   -1    0    0    0    0  0.00000000000E+00  0.00000000000E+00  0.74505805969E-08  0.10566000000E+00  0.10566000000E+00 0. -1.
     999900   -1    0    0    0    0 -0.00000000000E+00 -0.00000000000E+00 -0.74505805969E-08  0.93827000000E+00  0.93827000000E+00 0.  1.
     999902    2    1    2    0    0 -0.42533612823E-02  0.25075782305E-02  0.23291884996E-01  0.10201205284E+01  0.10198426357E+01 0.  0.
     999903    2    3    3    0    0  0.20436427948E-01  0.97249856258E-01  0.84800339691E-01  0.13255702367E+00  0.22474091398E-01 0.  0.
         14    1    1    2    0    0  0.42533612823E-02 -0.25075782305E-02 -0.23291884996E-01  0.23809471591E-01  0.00000000000E+00 0.  1.
     999901    1    3    3    0    0 -0.24689789230E-01 -0.94742278028E-01 -0.61508454694E-01  0.88756350473E+00  0.88000000000E+00 0.  1.
        -11    1    4    4    0    0  0.13313182849E-01  0.77804600738E-01  0.54778492790E-01  0.96081950058E-01  0.51100000000E-03 0.  1.
         11    1    4    4    0    0  0.71232450985E-02  0.19445255520E-01  0.30021846901E-01  0.36475073616E-01  0.51100000000E-03 0. -1.
</event>
<event>
 8    1  0.1143957E+005  0.1043930E+01  0.7957747E-01            NaN
         13   -1    0    0    0    0  0.00000000000E+00  0.00000000000E+00  0.74505805969E-08  0.10566000000E+00  0.10566000000E+00 0.  1.
     999900   -1    0    0    0    0 -0.00000000000E+00 -0.00000000000E+00 -0.74505805969E-08  0.93827000000E+00  0.93827000000E+00 0. -1.
     999902    2    1    2    0    0  0.60404651865E-02  0.20564101935E-01 -0.77026717304E-02  0.10211549992E+01  0.10209009902E+01 0.  0.
     999903    2    3    3    0    0 -0.66800094896E-01 -0.95142432269E-01  0.50583395095E-01  0.12869154629E+00  0.22102016470E-01 0.  0.
         14    1    1    2    0    0 -0.60404651865E-02 -0.20564101935E-01  0.77026717304E-02  0.22775000765E-01  0.00000000000E+00 0.  1.
     999901    1    3    3    0    0  0.72840560082E-01  0.11570653420E+00 -0.58286066825E-01  0.89246345294E+00  0.88000000000E+00 0. -1.
        -11    1    4    4    0    0 -0.49689241324E-01 -0.60499394326E-01  0.42967124275E-01  0.89306395665E-01  0.51100000000E-03 0. -1.
         11    1    4    4    0    0 -0.17110853572E-01 -0.34643037942E-01  0.76162708197E-02  0.39385150629E-01  0.51100000000E-03 0.  1.
</event>
<event>
 8    1  0.1143957E+005  0.1043930E+01  0.7957747E-01            NaN
         13   -1    0    0    0    0  0.00000000000E+00  0.00000000000E+00  0.74505805969E-08  0.10566000000E+00  0.10566000000E+00 0. -1.
     999900   -1    0    0    0    0 -0.00000000000E+00 -0.00000000000E+00 -0.74505805969E-08  0.93827000000E+00  0.93827000000E+00 0. -1.
     999902    2    1    2    0    0  0.10039143759E-01 -0.20858126551E-01  0.81504497841E-02  0.10193886944E+01  0.10190932413E+01 0.  0.
     999903    2    3    3    0    0  0.12333560152E+00 -0.73463279039E-02 -0.38179408340E-01  0.13081393004E+00  0.19722523570E-01 0.  0.
         14    1    1    2    0    0 -0.10039143759E-01  0.20858126551E-01 -0.81504497841E-02  0.24541305636E-01  0.00000000000E+00 0.  1.
     999901    1    3    3    0    0 -0.11329645776E+00 -0.13511798647E-01  0.46329858124E-01  0.88857476433E+00  0.88000000000E+00 0.  1.
        -11    1    4    4    0    0  0.21006624923E-01  0.61242696754E-02 -0.75316378937E-02  0.23146741889E-01  0.51100000000E-03 0.  1.
         11    1    4    4    0    0  0.10232897659E+00 -0.13470597579E-01 -0.30647770446E-01  0.10766718815E+00  0.51100000000E-03 0. -1.
</event>
<event>
 8    1  0.1143957E+005  0.1043930E+01  0.7957747E-01            NaN
         13   -1    0    0    0    0  0.00000000000E+00  0.00000000000E+00  0.74505805969E-08  0.10566000000E+00  0.10566000000E+00 0. -1.
     999900   -1    0    0    0    0 -0.00000000000E+00 -0.00000000000E+00 -0.74505805969E-08  0.93827000000E+00  0.93827000000E+00 0.  1.
     999902    2    1    2    0    0  0.20216153412E-02  0.13058769965E-02 -0.23645927298E-01  0.10201619096E+01  0.10198849934E+01 0.  0.
     999903    2    3    3    0    0  0.94567461097E-01 -0.81801744062E-01  0.28881732760E-01  0.12986377678E+00  0.19897638087E-01 0.  0.
         14    1    1    2    0    0 -0.20216153412E-02 -0.13058769965E-02  0.23645927298E-01  0.23768090396E-01  0.00000000000E+00 0. -1.
     999901    1    3    3    0    0 -0.92545845756E-01  0.83107621059E-01 -0.52527660058E-01  0.89029813283E+00  0.88000000000E+00 0.  1.
        -11    1    4    4    0    0  0.39581356735E-01 -0.33126252288E-01  0.19818562029E-02  0.51654828106E-01  0.51100000000E-03 0.  1.
         11    1    4    4    0    0  0.54986104362E-01 -0.48675491774E-01  0.26899876557E-01  0.78208948671E-01  0.51100000000E-03 0. -1.
</event>
<event>
 8    1  0.1143957E+005  0.1043930E+01  0.7957747E-01            NaN
         13   -1    0    0    0    0  0.00000000000E+00  0.00000000000E+00  0.74505805969E-08  0.10566000000E+00  0.10566000000E+00 0.  1.
     999900   -1    0    0    0    0 -0.00000000000E+00 -0.00000000000E+00 -0.74505805969E-08  0.93827000000E+00  0.93827000000E+00 0. -1.
     999902    2    1    2    0    0 -0.21687277585E-01  0.64156292185E-02 -0.64231829888E-02  0.10204192453E+01  0.10201483620E+01 0.  0.
     999903    2    3    3    0    0 -0.11585898220E+00  0.57878397675E-01 -0.26374387421E-01  0.13367532676E+00  0.20006798807E-01 0.  0.
         14    1    1    2    0    0  0.21687277585E-01 -0.64156292185E-02  0.64231829888E-02  0.23510754710E-01  0.00000000000E+00 0.  1.
     999901    1    3    3    0    0  0.94171704618E-01 -0.51462768457E-01  0.19951204432E-01  0.88674391853E+00  0.88000000000E+00 0. -1.
        -11    1    4    4    0    0 -0.10560167257E+00  0.58508267147E-01 -0.23520953115E-01  0.12299767043E+00  0.51100000000E-03 0. -1.
         11    1    4    4    0    0 -0.10257309635E-01 -0.62986947126E-03 -0.28534343063E-02  0.10677656337E-01  0.51100000000E-03 0.  1.
</event>
<event>
 8    1  0.1143957E+005  0.1043930E+01  0.7957747E-01            NaN
         13   -1    0    0    0    0  0.00000000000E+00  0.00000000000E+00  0.74505805969E-08  0.10566000000E+00  0.10566000000E+00 0.  1.
     999900   -1    0    0    0    0 -0.00000000000E+00 -0.00000000000E+00 -0.74505805969E-08  0.93827000000E+00  0.93827000000E+00 0. -1.
     999902    2    1    2    0    0  0.13740161639E-01  0.12207229412E-01 -0.17140853843E-01  0.10187980012E+01  0.10184879724E+01 0.  0.
     999903    2    3    3    0    0  0.15809095656E-01  0.14693492622E-01 -0.12843045079E+00  0.13178287375E+00  0.20162313684E-01 0.  0.
         14    1    1    2    0    0 -0.13740161639E-01 -0.12207229412E-01  0.17140853843E-01  0.25131998772E-01  0.00000000000E+00 0.  1.
     999901    1    3    3    0    0 -0.20689340167E-02 -0.24862632105E-02  0.11128959694E+00  0.88701512748E+00  0.88000000000E+00 0.  1.
        -11    1    4    4    0    0  0.64038196051E-02  0.11348309083E-01 -0.28360220680E-01  0.31214680242E-01  0.51100000000E-03 0. -1.
         11    1    4    4    0    0  0.94052760509E-02  0.33451835394E-02 -0.10007023011E+00  0.10056819351E+00  0.51100000000E-03 0.  1.
</event>
<event>
 8    1  0.1143957E+005  0.1043930E+01  0.7957747E-01            NaN
         13   -1    0    0    0    0  0.00000000000E+00  0.00000000000E+00  0.74505805969E-08  0.10566000000E+00  0.10566000000E+00 0. -1.
     999900   -1    0    0    0    0 -0.00000000000E+00 -0.00000000000E+00 -0.74505805969E-08  0.93827000000E+00  0.93827000000E+00 0.  1.
     999902    2    1    2    0    0  0.75123841435E-02 -0.18414024822E-01  0.10001237384E-01  0.10216693402E+01  0.10214267980E+01 0.  0.
     999903    2    3    3    0    0  0.93751185509E-01  0.87073968037E-01 -0.17939487041E-01  0.13074536388E+00  0.20034078124E-01 0.  0.
         14    1    1    2    0    0 -0.75123841435E-02  0.18414024822E-01 -0.10001237384E-01  0.22260659803E-01  0.00000000000E+00 0. -1.
     999901    1    3    3    0    0 -0.86238801365E-01 -0.10548799286E+00  0.27940724425E-01  0.89092397632E+00  0.88000000000E+00 0.  1.
        -11    1    4    4    0    0  0.67990958651E-01  0.73429250588E-01 -0.17460372487E-01  0.10158617538E+00  0.51100000000E-03 0.  1.
         11    1    4    4    0    0  0.25760226858E-01  0.13644717449E-01 -0.47911455391E-03  0.29159188496E-01  0.51100000000E-03 0. -1.
</event>
<event>
 8    1  0.1143957E+005  0.1043930E+01  0.7957747E-01            NaN
         13   -1    0    0    0    0  0.00000000000E+00  0.00000000000E+00  0.74505805969E-08  0.10566000000E+00  0.10566000000E+00 0.  1.
     999900   -1    0    0    0    0 -0.00000000000E+00 -0.00000000000E+00 -0.74505805969E-08  0.93827000000E+00  0.93827000000E+00 0. -1.
     999902    2    1    2    0    0 -0.43232293881E-02 -0.11333186110E-01  0.20174903300E-01  0.10203894362E+01  0.10201178576E+01 0.  0.
     999903    2    3    3    0    0  0.44437515140E-01  0.10556488926E+00  0.60874493834E-01  0.13038987055E+00  0.13310737991E-01 0.  0.
         14    1    1    2    0    0  0.43232293881E-02  0.11333186110E-01 -0.20174903300E-01  0.23540563776E-01  0.00000000000E+00 0. -1.
     999901    1    3    3    0    0 -0.48760744528E-01 -0.11689807537E+00 -0.40699590534E-01  0.88999956568E+00  0.88000000000E+00 0.  1.
        -11    1    4    4    0    0  0.27511926298E-01  0.48568577927E-01  0.30891404095E-01  0.63799316755E-01  0.51100000000E-03 0.  1.
         11    1    4    4    0    0  0.16925588842E-01  0.56996311333E-01  0.29983089739E-01  0.66590553794E-01  0.51100000000E-03 0. -1.
</event>
<event>
 8    1  0.1143957E+005  0.1043930E+01  0.7957747E-01            NaN
         13   -1    0    0    0    0  0.00000000000E+00  0.00000000000E+00  0.74505805969E-08  0.10566000000E+00  0.10566000000E+00 0.  1.
     999900   -1    0    0    0    0 -0.00000000000E+00 -0.00000000000E+00 -0.74505805969E-08  0.93827000000E+00  0.93827000000E+00 0. -1.
     999902    2    1    2    0    0  0.12939445922E-02  0.21043671365E-01 -0.99505064486E-02  0.10206164208E+01  0.10203501141E+01 0.  0.
     999903    2    3    3    0    0 -0.53394754213E-01  0.11519061869E+00 -0.33130704755E-01  0.13360355557E+00  0.25147326934E-01 0.  0.
         14    1    1    2    0    0 -0.12939445922E-02 -0.21043671365E-01  0.99505064486E-02  0.23313579213E-01  0.00000000000E+00 0.  1.
     999901    1    3    3    0    0  0.54688698805E-01 -0.94146947323E-01  0.23180198307E-01  0.88701286522E+00  0.88000000000E+00 0.  1.
        -11    1    4    4    0    0 -0.19118286728E-01  0.21214484586E-01 -0.13791818219E-01  0.31718111773E-01  0.51100000000E-03 0.  1.
         11    1    4    4    0    0 -0.34276467485E-01  0.93976134103E-01 -0.19338886536E-01  0.10188544380E+00  0.51100000000E-03 0. -1.
</event>
<event>
 8    1  0.1143957E+005  0.1043930E+01  0.7957747E-01            NaN
         13   -1    0    0    0    0  0.00000000000E+00  0.00000000000E+00  0.74505805969E-08  0.10566000000E+00  0.10566000000E+00 0.  1.
     999900   -1    0    0    0    0 -0.00000000000E+00 -0.00000000000E+00 -0.74505805969E-08  0.93827000000E+00  0.93827000000E+00 0.  1.
     999902    2    1    2    0    0  0.71647988038E-02 -0.32810606702E-02  0.20915438194E-01  0.10215792672E+01  0.10213347365E+01 0.  0.
     999903    2    3    3    0    0  0.53388948200E-01 -0.10723308776E+00 -0.50034025299E-01  0.13142393117E+00  0.20482458255E-01 0.  0.
         14    1    1    2    0    0 -0.71647988038E-02  0.32810606702E-02 -0.20915438194E-01  0.22350732781E-01  0.00000000000E+00 0. -1.
     999901    1    3    3    0    0 -0.46224149396E-01  0.10395202709E+00  0.70949463493E-01  0.89015533605E+00  0.88000000000E+00 0. -1.
        -11    1    4    4    0    0  0.31415709500E-01 -0.51005390145E-01 -0.15521545318E-01  0.61884377005E-01  0.51100000000E-03 0. -1.
         11    1    4    4    0    0  0.21973238699E-01 -0.56227697617E-01 -0.34512479981E-01  0.69539554167E-01  0.51100000000E-03 0.  1.
</event>
<event>
 8    1  0.1143957E+005  0.1043930E+01  0.7957747E-01            NaN
         13   -1    0    0    0    0  0.00000000000E+00  0.00000000000E+00  0.74505805969E-08  0.10566000000E+00  0.10566000000E+00 0. -1.
     999900   -1    0    0    0    0 -0.00000000000E+00 -0.00000000000E+00 -0.74505805969E-08  0.93827000000E+00  0.93827000000E+00 0.  1.
     999902    2    1    2    0    0  0.92625951678E-02 -0.20928882761E-01 -0.55950537929E-03  0.10210361832E+01  0.10207794867E+01 0.  0.
     999903    2    3    3    0    0  0.28666494296E-01  0.31069024529E-01 -0.12223396721E+00  0.13093227444E+00  0.20373158112E-01 0.  0.
         14    1    1    2    0    0 -0.92625951678E-02  0.20928882761E-01  0.55950537929E-03  0.22893816832E-01  0.00000000000E+00 0. -1.
     999901    1    3    3    0    0 -0.19403899128E-01 -0.51997907290E-01  0.12167446183E+00  0.89010390872E+00  0.88000000000E+00 0. -1.
        -11    1    4    4    0    0  0.87397098328E-02  0.26198103166E-02 -0.49405125463E-01  0.50243143583E-01  0.51100000000E-03 0. -1.
         11    1    4    4    0    0  0.19926784463E-01  0.28449214213E-01 -0.72828841745E-01  0.80689130862E-01  0.51100000000E-03 0.  1.
</event>
<event>
 8    1  0.1143957E+005  0.1043930E+01  0.7957747E-01            NaN
         13   -1    0    0    0    0  0.00000000000E+00  0.00000000000E+00  0.74505805969E-08  0.10566000000E+00  0.10566000000E+00 0. -1.
     999900   -1    0    0    0    0 -0.00000000000E+00 -0.00000000000E+00 -0.74505805969E-08  0.93827000000E+00  0.93827000000E+00 0. -1.
     999902    2    1    2    0    0 -0.18550477028E-01 -0.11253610697E-01 -0.88078690223E-02  0.10205132857E+01  0.10202445902E+01 0.  0.
     999903    2    3    3    0    0  0.97712941959E-01  0.45524174322E-01 -0.68080472311E-01  0.12907952991E+00  0.20157005190E-01 0.  0.
         14    1    1    2    0    0  0.18550477028E-01  0.11253610697E-01  0.88078690223E-02  0.23416714295E-01  0.00000000000E+00 0. -1.
     999901    1    3    3    0    0 -0.11626341899E+00 -0.56777785019E-01  0.59272603289E-01  0.89143375579E+00  0.88000000000E+00 0.  1.
        -11    1    4    4    0    0  0.42652711834E-01  0.10189654649E-01 -0.22071785291E-01  0.49096921651E-01  0.51100000000E-03 0. -1.
         11    1    4    4    0    0  0.55060230125E-01  0.35334519673E-01 -0.46008687020E-01  0.79982608261E-01  0.51100000000E-03 0.  1.
</event>
<event>
 8    1  0.1143957E+005  0.1043930E+01  0.7957747E-01            NaN
         13   -1    0    0    0    0  0.00000000000E+00  0.00000000000E+00  0.74505805969E-08  0.10566000000E+00  0.10566000000E+00 0.  1.
     999900   -1    0    0    0    0 -0.00000000000E+00 -0.00000000000E+00 -0.74505805969E-08  0.93827000000E+00  0.93827000000E+00 0.  1.
     999902    2    1    2    0    0  0.10952125629E-01  0.24147582079E-01  0.95516602589E-02  0.10157468669E+01  0.10153558040E+01 0.  0.
     999903    2    3    3    0    0  0.67412550673E-01  0.10401216588E+00  0.34098918642E-01  0.12998804014E+00  0.19265816549E-01 0.  0.
         14    1    1    2    0    0 -0.10952125629E-01 -0.24147582079E-01 -0.95516602589E-02  0.28183133072E-01  0.00000000000E+00 0. -1.
     999901    1    3    3    0    0 -0.56460425044E-01 -0.79864583801E-01 -0.24547258383E-01  0.88575882679E+00  0.88000000000E+00 0.  1.
        -11    1    4    4    0    0  0.11997796477E-01  0.25450486197E-01  0.50058225628E-03  0.28145800247E-01  0.51100000000E-03 0. -1.
         11    1    4    4    0    0  0.55414754196E-01  0.78561679682E-01  0.33598336386E-01  0.10184223989E+00  0.51100000000E-03 0.  1.
</event>
<event>
 8    1  0.1143957E+005  0.1043930E+01  0.7957747E-01            NaN
         13   -1    0    0    0    0  0.00000000000E+00  0.00000000000E+00  0.74505805969E-08  0.10566000000E+00  0.10566000000E+00 0. -1.
     999900   -1    0    0    0    0 -0.00000000000E+00 -0.00000000000E+00 -0.74505805969E-08  0.93827000000E+00  0.93827000000E+00 0. -1.
     999902    2    1    2    0    0  0.73497515204E-02 -0.82660366781E-02  0.20151761331E-01  0.10209421838E+01  0.10206833510E+01 0.  0.
     999903    2    3    3    0    0  0.99983258982E-01 -0.15217082921E-01 -0.79916203273E-01  0.13041263273E+00  0.19815235094E-01 0.  0.
         14    1    1    2    0    0 -0.73497515204E-02  0.82660366781E-02 -0.20151761331E-01  0.22987816219E-01  0.00000000000E+00 0.  1.
     999901    1    3    3    0    0 -0.92633507461E-01  0.69510462425E-02  0.10006796460E+00  0.89052955105E+00  0.88000000000E+00 0. -1.
        -11    1    4    4    0    0  0.62342929828E-01 -0.17554651420E-01 -0.43769768585E-01  0.78171992740E-01  0.51100000000E-03 0.  1.
         11    1    4    4    0    0  0.37640329154E-01  0.23375684993E-02 -0.36146434688E-01  0.52240639994E-01  0.51100000000E-03 0. -1.
</event>
<event>
 8    1  0.1143957E+005  0.1043930E+01  0.7957747E-01            NaN
         13   -1    0    0    0    0  0.00000000000E+00  0.00000000000E+00  0.74505805969E-08  0.10566000000E+00  0.10566000000E+00 0.  1.
     999900   -1    0    0    0    0 -0.00000000000E+00 -0.00000000000E+00 -0.74505805969E-08  0.93827000000E+00  0.93827000000E+00 0.  1.
     999902    2    1    2    0    0 -0.76054916444E-02  0.13102984847E-01  0.18150691370E-01  0.10202872567E+01  0.10200132876E+01 0.  0.
     999903    2    3    3    0    0 -0.83173889760E-01 -0.81139704167E-01 -0.52682864690E-01  0.12921505988E+00  0.20481697623E-01 0.  0.
         14    1    1    2    0    0  0.76054916444E-02 -0.13102984847E-01 -0.18150691370E-01  0.23642743332E-01  0.00000000000E+00 0. -1.
     999901    1    3    3    0    0  0.75568398116E-01  0.94242689013E-01  0.70833556060E-01  0.89107219679E+00  0.88000000000E+00 0.  1.
        -11    1    4    4    0    0 -0.79068677691E-01 -0.71258631126E-01 -0.43082126448E-01  0.11483021833E+00  0.51100000000E-03 0. -1.
         11    1    4    4    0    0 -0.41052120697E-02 -0.98810730406E-02 -0.96007382418E-02  0.14384841548E-01  0.51100000000E-03 0.  1.
</event>
<event>
 8    1  0.1143957E+005  0.1043930E+01  0.7957747E-01            NaN
         13   -1    0    0    0    0  0.00000000000E+00  0.00000000000E+00  0.74505805969E-08  0.10566000000E+00  0.10566000000E+00 0.  1.
     999900   -1    0    0    0    0 -0.00000000000E+00 -0.00000000000E+00 -0.74505805969E-08  0.93827000000E+00  0.93827000000E+00 0.  1.
     999902    2    1    2    0    0 -0.13792069870E-01 -0.17289582951E-01 -0.81500551835E-02  0.10203593770E+01  0.10200870962E+01 0.  0.
     999903    2    3    3    0    0 -0.56944684640E-01  0.50180810591E-02  0.11552082585E+00  0.13038507013E+00  0.19680626575E-01 0.  0.
         14    1    1    2    0    0  0.13792069870E-01  0.17289582951E-01  0.81500551835E-02  0.23570623017E-01  0.00000000000E+00 0. -1.
     999901    1    3    3    0    0  0.43152614770E-01 -0.22307664010E-01 -0.12367088103E+00  0.88997430685E+00  0.88000000000E+00 0.  1.
        -11    1    4    4    0    0 -0.17501398418E-01 -0.65280175472E-02  0.45574300952E-01  0.49256390326E-01  0.51100000000E-03 0. -1.
         11    1    4    4    0    0 -0.39443286221E-01  0.11546098606E-01  0.69946524900E-01  0.81128679809E-01  0.51100000000E-03 0.  1.
</event>
<event>
 8    1  0.1143957E+005  0.1043930E+01  0.7957747E-01            NaN
         13   -1    0    0    0    0  0.00000000000E+00  0.00000000000E+00  0.74505805969E-08  0.10566000000E+00  0.10566000000E+00 0. -1.
     999900   -1    0    0    0    0 -0.00000000000E+00 -0.00000000000E+00 -0.74505805969E-08  0.93827000000E+00  0.93827000000E+00 0. -1.
     999902    2    1    2    0    0  0.44168294249E-02 -0.23719458050E-01  0.22722046607E-02  0.10196960571E+01  0.10194080464E+01 0.  0.
     999903    2    3    3    0    0 -0.98962879371E-01  0.71005826759E-01  0.33501252406E-01  0.12804842652E+00  0.20942461519E-01 0.  0.
         14    1    1    2    0    0 -0.44168294249E-02  0.23719458050E-01 -0.22722046607E-02  0.24233942857E-01  0.00000000000E+00 0.  1.
     999901    1    3    3    0    0  0.10337970880E+00 -0.94725284809E-01 -0.31229047745E-01  0.89164763062E+00  0.88000000000E+00 0.  1.
        -11    1    4    4    0    0 -0.88661687259E-01  0.65878311983E-01  0.23810178164E-01  0.11299571887E+00  0.51100000000E-03 0. -1.
         11    1    4    4    0    0 -0.10301192112E-01  0.51275147760E-02  0.96910742414E-02  0.15052707652E-01  0.51100000000E-03 0.  1.
</event>
<event>
 8    1  0.1143957E+005  0.1043930E+01  0.7957747E-01            NaN
         13   -1    0    0    0    0  0.00000000000E+00  0.00000000000E+00  0.74505805969E-08  0.10566000000E+00  0.10566000000E+00 0.  1.
     999900   -1    0    0    0    0 -0.00000000000E+00 -0.00000000000E+00 -0.74505805969E-08  0.93827000000E+00  0.93827000000E+00 0. -1.
     999902    2    1    2    0    0 -0.89413078682E-02  0.22277087525E-01  0.10633423718E-01  0.10176757562E+01  0.10173370432E+01 0.  0.
     999903    2    3    3    0    0 -0.98056147810E-02 -0.10818806640E+00 -0.59478640521E-01  0.12529825487E+00  0.19003583952E-01 0.  0.
         14    1    1    2    0    0  0.89413078682E-02 -0.22277087525E-01 -0.10633423718E-01  0.26254243752E-01  0.00000000000E+00 0. -1.
     999901    1    3    3    0    0  0.86430691283E-03  0.13046515392E+00  0.70112064240E-01  0.89237750138E+00  0.88000000000E+00 0. -1.
        -11    1    4    4    0    0 -0.11237687875E-02 -0.40884355980E-01 -0.12534319465E-01  0.42780412640E-01  0.51100000000E-03 0.  1.
         11    1    4    4    0    0 -0.86818459936E-02 -0.67303710418E-01 -0.46944321056E-01  0.82517842230E-01  0.51100000000E-03 0. -1.
</event>
<event>
 8    1  0.1143957E+005  0.1043930E+01  0.7957747E-01            NaN
         13   -1    0    0    0    0  0.00000000000E+00  0.00000000000E+00  0.74505805969E-08  0.10566000000E+00  0.10566000000E+00 0.  1.
     999900   -1    0    0    0    0 -0.00000000000E+00 -0.00000000000E+00 -0.74505805969E-08  0.93827000000E+00  0.93827000000E+00 0.  1.
     999902    2    1    2    0    0 -0.61490072270E-02  0.48595566187E-02 -0.22669380705E-01  0.10199440374E+01  0.10196619602E+01 0.  0.
     999903    2    3    3    0    0  0.70625070241E-01 -0.24043137320E-01 -0.10655630178E+00  0.13215654018E+00  0.23348076265E-01 0.  0.
         14    1    1    2    0    0  0.61490072270E-02 -0.48595566187E-02  0.22669380705E-01  0.23985962603E-01  0.00000000000E+00 0.  1.
     999901    1    3    3    0    0 -0.76774077468E-01  0.28902693939E-01  0.83886921072E-01  0.88778749722E+00  0.88000000000E+00 0. -1.
        -11    1    4    4    0    0  0.45402329406E-01 -0.26185793095E-01 -0.65075436633E-01  0.83559205654E-01  0.51100000000E-03 0.  1.
         11    1    4    4    0    0  0.25222740835E-01  0.21426557747E-02 -0.41480865144E-01  0.48597334527E-01  0.51100000000E-03 0. -1.
</event>
<event>
 8    1  0.1143957E+005  0.1043930E+01  0.7957747E-01            NaN
         13   -1    0    0    0    0  0.00000000000E+00  0.00000000000E+00  0.74505805969E-08  0.10566000000E+00  0.10566000000E+00 0.  1.
     999900   -1    0    0    0    0 -0.00000000000E+00 -0.00000000000E+00 -0.74505805969E-08  0.93827000000E+00  0.93827000000E+00 0. -1.
     999902    2    1    2    0    0 -0.67218826437E-04 -0.23052206894E-01  0.14493077763E-03  0.10208772395E+01  0.10206169254E+01 0.  0.
     999903    2    3    3    0    0  0.27157349387E-01  0.15850796944E-02 -0.12653446372E+00  0.13104813121E+00  0.20557433704E-01 0.  0.
         14    1    1    2    0    0  0.67218826437E-04  0.23052206894E-01 -0.14493077763E-03  0.23052760485E-01  0.00000000000E+00 0. -1.
     999901    1    3    3    0    0 -0.27224568213E-01 -0.24637286588E-01  0.12667939450E+00  0.88982910831E+00  0.88000000000E+00 0.  1.
        -11    1    4    4    0    0  0.48032137796E-02 -0.43042120188E-02 -0.64856245718E-01  0.65178146900E-01  0.51100000000E-03 0.  1.
         11    1    4    4    0    0  0.22354135607E-01  0.58892917132E-02 -0.61678218001E-01  0.65869984306E-01  0.51100000000E-03 0. -1.
</event>
<event>
 8    1  0.1143957E+005  0.1043930E+01  0.7957747E-01            NaN
         13   -1    0    0    0    0  0.00000000000E+00  0.00000000000E+00  0.74505805969E-08  0.10566000000E+00  0.10566000000E+00 0.  1.
     999900   -1    0    0    0    0 -0.00000000000E+00 -0.00000000000E+00 -0.74505805969E-08  0.93827000000E+00  0.93827000000E+00 0.  1.
     999902    2    1    2    0    0 -0.93276267713E-02 -0.59699188967E-02  0.18923884290E-01  0.10220038068E+01  0.10217685761E+01 0.  0.
     999903    2    3    3    0    0 -0.94059201184E-01 -0.30108831330E-01 -0.84634968662E-01  0.13156202719E+00  0.19794292797E-01 0.  0.
         14    1    1    2    0    0  0.93276267713E-02  0.59699188967E-02 -0.18923884290E-01  0.21926193227E-01  0.00000000000E+00 0. -1.
     999901    1    3    3    0    0  0.84731574413E-01  0.24138912433E-01  0.10355885295E+00  0.89044177958E+00  0.88000000000E+00 0. -1.
        -11    1    4    4    0    0 -0.63044874668E-01 -0.12028980889E-01 -0.61216177097E-01  0.88696302417E-01  0.51100000000E-03 0.  1.
         11    1    4    4    0    0 -0.31014326516E-01 -0.18079850440E-01 -0.23418791565E-01  0.42865724776E-01  0.51100000000E-03 0. -1.
</event>
<event>
 8    1  0.1143957E+005  0.1043930E+01  0.7957747E-01            NaN
         13   -1    0    0    0    0  0.00000000000E+00  0.00000000000E+00  0.74505805969E-08  0.10566000000E+00  0.10566000000E+00 0. -1.
     999900   -1    0    0    0    0 -0.00000000000E+00 -0.00000000000E+00 -0.74505805969E-08  0.93827000000E+00  0.93827000000E+00 0.  1.
     999902    2    1    2    0    0  0.49242083204E-02 -0.24202784901E-01  0.15965380127E-02  0.10191798170E+01  0.10188792509E+01 0.  0.
     999903    2    3    3    0    0  0.98637393637E-01 -0.81223699033E-01 -0.26351698357E-01  0.13192864081E+00  0.19599223232E-01 0.  0.
         14    1    1    2    0    0 -0.49242083204E-02  0.24202784901E-01 -0.15965380127E-02  0.24750182992E-01  0.00000000000E+00 0.  1.
     999901    1    3    3    0    0 -0.93713185316E-01  0.57020914132E-01  0.27948236370E-01  0.88725117620E+00  0.88000000000E+00 0. -1.
        -11    1    4    4    0    0  0.86978382629E-01 -0.77818702591E-01 -0.26860636292E-01  0.11976119747E+00  0.51100000000E-03 0.  1.
         11    1    4    4    0    0  0.11659011008E-01 -0.34049964422E-02  0.50893793548E-03  0.12167443334E-01  0.51100000000E-03 0. -1.
</event>
<event>
 8    1  0.1143957E+005  0.1043930E+01  0.7957747E-01            NaN
         13   -1    0    0    0    0  0.00000000000E+00  0.00000000000E+00  0.74505805969E-08  0.10566000000E+00  0.10566000000E+00 0.  1.
     999900   -1    0    0    0    0 -0.00000000000E+00 -0.00000000000E+00 -0.74505805969E-08  0.93827000000E+00  0.93827000000E+00 0. -1.
     999902    2    1    2    0    0 -0.17504984815E-01 -0.11601965548E-01  0.31891304082E-02  0.10226885158E+01  0.10224678967E+01 0.  0.
     999903    2    3    3    0    0 -0.49554579675E-01 -0.12394076678E+00  0.88608898559E-03  0.13496531188E+00  0.19946935142E-01 0.  0.
         14    1    1    2    0    0  0.17504984815E-01  0.11601965548E-01 -0.31891304082E-02  0.21241484193E-01  0.00000000000E+00 0. -1.
     999901    1    3    3    0    0  0.32049594860E-01  0.11233880123E+00  0.23030414226E-02  0.88772320393E+00  0.88000000000E+00 0.  1.
        -11    1    4    4    0    0 -0.35359839488E-01 -0.85029093299E-01  0.97500591983E-02  0.92604480082E-01  0.51100000000E-03 0. -1.
         11    1    4    4    0    0 -0.14194740187E-01 -0.38911673476E-01 -0.88639702127E-02  0.42360831798E-01  0.51100000000E-03 0.  1.
</event>
<event>
 8    1  0.1143957E+005  0.1043930E+01  0.7957747E-01            NaN
         13   -1    0    0    0    0  0.00000000000E+00  0.00000000000E+00  0.74505805969E-08  0.10566000000E+00  0.10566000000E+00 0. -1.
     999900   -1    0    0    0    0 -0.00000000000E+00 -0.00000000000E+00 -0.74505805969E-08  0.93827000000E+00  0.93827000000E+00 0.  1.
     999902    2    1    2    0    0 -0.68023634517E-02  0.11144654658E-01 -0.19689363979E-01  0.10203048750E+01  0.10200313189E+01 0.  0.
     999903    2    3    3    0    0  0.11867782896E+00 -0.47195263052E-01 -0.20356222371E-02  0.12931639066E+00  0.20168420692E-01 0.  0.
         14    1    1    2    0    0  0.68023634517E-02 -0.11144654658E-01  0.19689363979E-01  0.23625124970E-01  0.00000000000E+00 0. -1.
     999901    1    3    3    0    0 -0.12548019241E+00  0.58339917710E-01 -0.17653741741E-01  0.89098848437E+00  0.88000000000E+00 0.  1.
        -11    1    4    4    0    0  0.74345215955E-02  0.90796654098E-03 -0.30754099645E-02  0.81126926506E-02  0.51100000000E-03 0.  1.
         11    1    4    4    0    0  0.11124330737E+00 -0.48103229593E-01  0.10397877274E-02  0.12120369801E+00  0.51100000000E-03 0. -1.
</event>
<event>
 8    1  0.1143957E+005  0.1043930E+01  0.7957747E-01            NaN
         13   -1    0    0    0    0  0.00000000000E+00  0.00000000000E+00  0.74505805969E-08  0.10566000000E+00  0.10566000000E+00 0. -1.
     999900   -1    0    0    0    0 -0.00000000000E+00 -0.00000000000E+00 -0.74505805969E-08  0.93827000000E+00  0.93827000000E+00 0. -1.
     999902    2    1    2    0    0  0.15059798006E-01  0.15732062364E-01 -0.67320720596E-02  0.10211349107E+01  0.10208804483E+01 0.  0.
     999903    2    3    3    0    0  0.38056973952E-01 -0.10111698630E+00  0.69557588234E-01  0.12984220763E+00  0.18648394448E-01 0.  0.
         14    1    1    2    0    0 -0.15059798006E-01 -0.15732062364E-01  0.67320720596E-02  0.22795089305E-01  0.00000000000E+00 0.  1.
     999901    1    3    3    0    0 -0.22997175946E-01  0.11684904866E+00 -0.76289660294E-01  0.89129270307E+00  0.88000000000E+00 0. -1.
        -11    1    4    4    0    0  0.10584655396E-01 -0.49130754831E-01  0.25449311932E-01  0.56336441128E-01  0.51100000000E-03 0. -1.
         11    1    4    4    0    0  0.27472318555E-01 -0.51986231470E-01  0.44108276302E-01  0.73505766499E-01  0.51100000000E-03 0.  1.
</event>
<event>
 8    1  0.1143957E+005  0.1043930E+01  0.7957747E-01            NaN
         13   -1    0    0    0    0  0.00000000000E+00  0.00000000000E+00  0.74505805969E-08  0.10566000000E+00  0.10566000000E+00 0.  1.
     999900   -1    0    0    0    0 -0.00000000000E+00 -0.00000000000E+00 -0.74505805969E-08  0.93827000000E+00  0.93827000000E+00 0. -1.
     999902    2    1    2    0    0 -0.10486216435E-01 -0.16518939875E-01  0.85154903468E-03  0.10243452803E+01  0.10241580406E+01 0.  0.
     999903    2    3    3    0    0  0.35967341174E-01  0.65136951148E-01  0.10748611391E+00  0.13294382867E+00  0.24172812469E-01 0.  0.
         14    1    1    2    0    0  0.10486216435E-01  0.16518939875E-01 -0.85154903468E-03  0.19584719693E-01  0.00000000000E+00 0.  1.
     999901    1    3    3    0    0 -0.46453557609E-01 -0.81655891022E-01 -0.10663456487E+00  0.89140145164E+00  0.88000000000E+00 0. -1.
        -11    1    4    4    0    0  0.31619173139E-01  0.41075139537E-01  0.85868026148E-01  0.10030213474E+00  0.51100000000E-03 0.  1.
         11    1    4    4    0    0  0.43481680356E-02  0.24061811611E-01  0.21618087761E-01  0.32641693931E-01  0.51100000000E-03 0. -1.
</event>
<event>
 8    1  0.1143957E+005  0.1043930E+01  0.7957747E-01            NaN
         13   -1    0    0    0    0  0.00000000000E+00  0.00000000000E+00  0.74505805969E-08  0.10566000000E+00  0.10566000000E+00 0.  1.
     999900   -1    0    0    0    0 -0.00000000000E+00 -0.00000000000E+00 -0.74505805969E-08  0.93827000000E+00  0.93827000000E+00 0. -1.
     999902    2    1    2    0    0 -0.20150239916E-01 -0.12558342645E-01  0.21151308481E-02  0.10200926781E+01  0.10198141271E+01 0.  0.
     999903    2    3    3    0    0  0.41330497842E-01 -0.10613651995E+00  0.61436891096E-01  0.13101685024E+00  0.20438995574E-01 0.  0.
         14    1    1    2    0    0  0.20150239916E-01  0.12558342645E-01 -0.21151308481E-02  0.23837321938E-01  0.00000000000E+00 0.  1.
     999901    1    3    3    0    0 -0.61480737758E-01  0.93578177304E-01 -0.59321760248E-01  0.88907582782E+00  0.88000000000E+00 0.  1.
        -11    1    4    4    0    0 -0.45857568696E-03 -0.66986741176E-02  0.85569200473E-02  0.10888734008E-01  0.51100000000E-03 0.  1.
         11    1    4    4    0    0  0.41789073529E-01 -0.99437845831E-01  0.52879971048E-01  0.12012811623E+00  0.51100000000E-03 0. -1.
</event>
<event>
 8    1  0.1143957E+005  0.1043930E+01  0.7957747E-01            NaN
         13   -1    0    0    0    0  0.00000000000E+00  0.00000000000E+00  0.74505805969E-08  0.10566000000E+00  0.10566000000E+00 0. -1.
     999900   -1    0    0    0    0 -0.00000000000E+00 -0.00000000000E+00 -0.74505805969E-08  0.93827000000E+00  0.93827000000E+00 0. -1.
     999902    2    1    2    0    0  0.38103368146E-02  0.17976001981E-01 -0.12343681040E-01  0.10217935645E+01  0.10215537513E+01 0.  0.
     999903    2    3    3    0    0  0.37407699370E-01  0.10377374650E+00  0.72203177399E-01  0.13295262993E+00  0.17169057749E-01 0.  0.
         14    1    1    2    0    0 -0.38103368146E-02 -0.17976001981E-01  0.12343681040E-01  0.22136435474E-01  0.00000000000E+00 0.  1.
     999901    1    3    3    0    0 -0.33597362555E-01 -0.85797744523E-01 -0.84546858439E-01  0.88884093459E+00  0.88000000000E+00 0. -1.
        -11    1    4    4    0    0  0.15663500564E-01  0.22777941226E-01  0.15231653933E-01  0.31566505333E-01  0.51100000000E-03 0.  1.
         11    1    4    4    0    0  0.21744198806E-01  0.80995805278E-01  0.56971523466E-01  0.10138612460E+00  0.51100000000E-03 0. -1.
</event>
<event>
 8    1  0.1143957E+005  0.1043930E+01  0.7957747E-01            NaN
         13   -1    0    0    0    0  0.00000000000E+00  0.00000000000E+00  0.74505805969E-08  0.10566000000E+00  0.10566000000E+00 0.  1.
     999900   -1    0    0    0    0 -0.00000000000E+00 -0.00000000000E+00 -0.74505805969E-08  0.93827000000E+00  0.93827000000E+00 0.  1.
     999902    2    1    2    0    0 -0.16901657034E-01 -0.14995937336E-01  0.24299625509E-02  0.10212044887E+01  0.10209515947E+01 0.  0.
     999903    2    3    3    0    0  0.92648183452E-01 -0.40960081495E-01  0.79821922023E-01  0.13066262008E+00  0.20970619368E-01 0.  0.
         14    1    1    2    0    0  0.16901657034E-01  0.14995937336E-01 -0.24299625509E-02  0.22725511328E-01  0.00000000000E+00 0. -1.
     999901    1    3    3    0    0 -0.10954984049E+00  0.25964144158E-01 -0.77391959472E-01  0.89054186860E+00  0.88000000000E+00 0.  1.
        -11    1    4    4    0    0  0.48594807725E-01 -0.15047725520E-01  0.28879715297E-01  0.58499473996E-01  0.51100000000E-03 0. -1.
         11    1    4    4    0    0  0.44053375727E-01 -0.25912355974E-01  0.50942206726E-01  0.72163146080E-01  0.51100000000E-03 0.  1.
</event>
<event>
 8    1  0.1143957E+005  0.1043930E+01  0.7957747E-01            NaN
         13   -1    0    0    0    0  0.00000000000E+00  0.00000000000E+00  0.74505805969E-08  0.10566000000E+00  0.10566000000E+00 0. -1.
     999900   -1    0    0    0    0 -0.00000000000E+00 -0.00000000000E+00 -0.74505805969E-08  0.93827000000E+00  0.93827000000E+00 0.  1.
     999902    2    1    2    0    0 -0.27361828964E-02  0.20436954489E-01  0.10886759219E-01  0.10206131106E+01  0.10203467274E+01 0.  0.
     999903    2    3    3    0    0 -0.61456475559E-01 -0.78579567194E-01 -0.78843720008E-01  0.12859074358E+00  0.19172907488E-01 0.  0.
         14    1    1    2    0    0  0.27361828964E-02 -0.20436954489E-01 -0.10886759219E-01  0.23316889413E-01  0.00000000000E+00 0.  1.
     999901    1    3    3    0    0  0.58720292662E-01  0.99016521683E-01  0.89730479226E-01  0.89202236701E+00  0.88000000000E+00 0. -1.
        -11    1    4    4    0    0 -0.40160989595E-01 -0.62192430576E-01 -0.51052792733E-01  0.89930263388E-01  0.51100000000E-03 0. -1.
         11    1    4    4    0    0 -0.21295485964E-01 -0.16387136618E-01 -0.27790927275E-01  0.38660480193E-01  0.51100000000E-03 0.  1.
</event>
<event>
 8    1  0.1143957E+005  0.1043930E+01  0.7957747E-01            NaN
         13   -1    0    0    0    0  0.00000000000E+00  0.00000000000E+00  0.74505805969E-08  0.10566000000E+00  0.10566000000E+00 0.  1.
     999900   -1    0    0    0    0 -0.00000000000E+00 -0.00000000000E+00 -0.74505805969E-08  0.93827000000E+00  0.93827000000E+00 0.  1.
     999902    2    1    2    0    0  0.17901640514E-01 -0.13877319010E-01 -0.93815632936E-02  0.10194134251E+01  0.10191185744E+01 0.  0.
     999903    2    3    3    0    0 -0.11096865246E+00  0.35689247595E-01 -0.48925961533E-01  0.12776991091E+00  0.18537426938E-01 0.  0.
         14    1    1    2    0    0 -0.17901640514E-01  0.13877319010E-01  0.93815632936E-02  0.24516574920E-01  0.00000000000E+00 0.  1.
     999901    1    3    3    0    0  0.12887029298E+00 -0.49566566605E-01  0.39544398240E-01  0.89164351417E+00  0.88000000000E+00 0. -1.
        -11    1    4    4    0    0 -0.40190622238E-01  0.11906366902E-01 -0.81925750750E-02  0.42713312866E-01  0.51100000000E-03 0. -1.
         11    1    4    4    0    0 -0.70778030225E-01  0.23782880693E-01 -0.40733386458E-01  0.85056598039E-01  0.51100000000E-03 0.  1.
</event>
<event>
 8    1  0.1143957E+005  0.1043930E+01  0.7957747E-01            NaN
         13   -1    0    0    0    0  0.00000000000E+00  0.00000000000E+00  0.74505805969E-08  0.10566000000E+00  0.10566000000E+00 0.  1.
     999900   -1    0    0    0    0 -0.00000000000E+00 -0.00000000000E+00 -0.74505805969E-08  0.93827000000E+00  0.93827000000E+00 0.  1.
     999902    2    1    2    0    0  0.16574828159E-01 -0.14142486147E-01 -0.93976552770E-02  0.10202013092E+01  0.10199253210E+01 0.  0.
     999903    2    3    3    0    0 -0.92152617539E-01  0.86087517078E-01 -0.71013021329E-02  0.12786001561E+00  0.19864279072E-01 0.  0.
         14    1    1    2    0    0 -0.16574828159E-01  0.14142486147E-01  0.93976552770E-02  0.23728690811E-01  0.00000000000E+00 0.  1.
     999901    1    3    3    0    0  0.10872744570E+00 -0.10023000322E+00 -0.22963531441E-02  0.89234129358E+00  0.88000000000E+00 0.  1.
        -11    1    4    4    0    0 -0.74390469279E-01  0.62760835970E-01  0.13611320308E-02  0.97339499961E-01  0.51100000000E-03 0.  1.
         11    1    4    4    0    0 -0.17762148260E-01  0.23326681108E-01 -0.84624341637E-02  0.30520515646E-01  0.51100000000E-03 0. -1.
</event>
<event>
 8    1  0.1143957E+005  0.1043930E+01  0.7957747E-01            NaN
         13   -1    0    0    0    0  0.00000000000E+00  0.00000000000E+00  0.74505805969E-08  0.10566000000E+00  0.10566000000E+00 0.  1.
     999900   -1    0    0    0    0 -0.00000000000E+00 -0.00000000000E+00 -0.74505805969E-08  0.93827000000E+00  0.93827000000E+00 0.  1.
     999902    2    1    2    0    0 -0.11155497264E-01  0.85215882276E-02 -0.21155557017E-01  0.10185406286E+01  0.10182241364E+01 0.  0.
     999903    2    3    3    0    0  0.19808753605E-01 -0.12260982620E+00  0.19250413977E-01  0.12736899805E+00  0.20657372217E-01 0.  0.
         14    1    1    2    0    0  0.11155497264E-01 -0.85215882276E-02  0.21155557017E-01  0.25389371355E-01  0.00000000000E+00 0.  1.
     999901    1    3    3    0    0 -0.30964250868E-01  0.13113141443E+00 -0.40405970994E-01  0.89117163059E+00  0.88000000000E+00 0.  1.
        -11    1    4    4    0    0  0.33292088709E-02 -0.76221104171E-01  0.68672290510E-02  0.76603918363E-01  0.51100000000E-03 0. -1.
         11    1    4    4    0    0  0.16479544734E-01 -0.46388722027E-01  0.12383184926E-01  0.50765079689E-01  0.51100000000E-03 0.  1.
</event>
<event>
 8    1  0.1143957E+005  0.1043930E+01  0.7957747E-01            NaN
         13   -1    0    0    0    0  0.00000000000E+00  0.00000000000E+00  0.74505805969E-08  0.10566000000E+00  0.10566000000E+00 0. -1.
     999900   -1    0    0    0    0 -0.00000000000E+00 -0.00000000000E+00 -0.74505805969E-08  0.93827000000E+00  0.93827000000E+00 0.  1.
     999902    2    1    2    0    0  0.13675536279E-01 -0.14229522111E-01  0.13813072430E-01  0.10198405716E+01  0.10195560263E+01 0.  0.
     999903    2    3    3    0    0  0.61269285004E-01 -0.34416004885E-01 -0.10766973411E+00  0.12999185899E+00  0.19150067426E-01 0.  0.
         14    1    1    2    0    0 -0.13675536279E-01  0.14229522111E-01 -0.13813072430E-01  0.24089428428E-01  0.00000000000E+00 0.  1.
     999901    1    3    3    0    0 -0.47593748724E-01  0.20186482774E-01  0.12148280654E+00  0.88984871259E+00  0.88000000000E+00 0. -1.
        -11    1    4    4    0    0  0.17104479859E-01 -0.13153908625E-01 -0.48974618995E-01  0.53519743741E-01  0.51100000000E-03 0. -1.
         11    1    4    4    0    0  0.44164805145E-01 -0.21262096260E-01 -0.58695115115E-01  0.76472115246E-01  0.51100000000E-03 0.  1.
</event>
<event>
 7    1  0.1143957E+005  0.1043930E+01  0.7957747E-01            NaN
         13   -1    0    0    0    0  0.00000000000E+00  0.00000000000E+00  0.74505805969E-08  0.10566000000E+00  0.10566000000E+00 0.  1.
     999900   -1    0    0    0    0 -0.00000000000E+00 -0.00000000000E+00 -0.74505805969E-08  0.93827000000E+00  0.93827000000E+00 0. -1.
     999903    2    1    2    0    0 -0.10017205268E+00  0.26950384305E-01 -0.21419124054E-01  0.10820233597E+00  0.22095322601E-01 0.  0.
         14    1    1    2    0    0 -0.41481619957E-01 -0.40418489297E-02 -0.12339540099E-01  0.43466373058E-01  0.00000000000E+00 0. -1.
     999901    1    1    2    0    0  0.14165367264E+00 -0.22908535376E-01  0.33758664153E-01  0.89226129097E+00  0.88000000000E+00 0. -1.
        -11    1    3    3    0    0 -0.87257754820E-01  0.28924462605E-01 -0.23691533321E-01  0.94932029291E-01  0.51100000000E-03 0.  1.
         11    1    3    3    0    0 -0.12914297862E-01 -0.19740782999E-02  0.22724092673E-02  0.13270306676E-01  0.51100000000E-03 0. -1.
</event>
<event>
 8    1  0.1143957E+005  0.1043930E+01  0.7957747E-01            NaN
         13   -1    0    0    0    0  0.00000000000E+00  0.00000000000E+00  0.74505805969E-08  0.10566000000E+00  0.10566000000E+00 0.  1.
     999900   -1    0    0    0    0 -0.00000000000E+00 -0.00000000000E+00 -0.74505805969E-08  0.93827000000E+00  0.93827000000E+00 0.  1.
     999902    2    1    2    0    0  0.11226965032E-01 -0.27626044061E-01  0.10410639187E-01  0.10123448063E+01  0.10118519567E+01 0.  0.
     999903    2    3    3    0    0  0.78052704958E-01  0.81204673200E-01 -0.41736691453E-01  0.12159840655E+00  0.18915532265E-01 0.  0.
         14    1    1    2    0    0 -0.11226965032E-01  0.27626044061E-01 -0.10410639187E-01  0.31585193724E-01  0.00000000000E+00 0.  1.
     999901    1    3    3    0    0 -0.66825739926E-01 -0.10883071726E+00  0.52147330639E-01  0.89074639973E+00  0.88000000000E+00 0. -1.
        -11    1    4    4    0    0  0.44277152391E-01  0.50076300377E-01 -0.34071670888E-01  0.75028274413E-01  0.51100000000E-03 0. -1.
         11    1    4    4    0    0  0.33775552567E-01  0.31128372823E-01 -0.76650205643E-02  0.46570132135E-01  0.51100000000E-03 0.  1.
</event>
<event>
 8    1  0.1143957E+005  0.1043930E+01  0.7957747E-01            NaN
         13   -1    0    0    0    0  0.00000000000E+00  0.00000000000E+00  0.74505805969E-08  0.10566000000E+00  0.10566000000E+00 0.  1.
     999900   -1    0    0    0    0 -0.00000000000E+00 -0.00000000000E+00 -0.74505805969E-08  0.93827000000E+00  0.93827000000E+00 0.  1.
     999902    2    1    2    0    0  0.23648692420E-01 -0.62114892557E-02 -0.71003260187E-03  0.10194688594E+01  0.10191753568E+01 0.  0.
     999903    2    3    3    0    0  0.34108524570E-01  0.10970719620E+00  0.57553908928E-01  0.12989523312E+00  0.19006809566E-01 0.  0.
         14    1    1    2    0    0 -0.23648692420E-01  0.62114892557E-02  0.71003260187E-03  0.24461140575E-01  0.00000000000E+00 0. -1.
     999901    1    3    3    0    0 -0.10459832150E-01 -0.11591868545E+00 -0.58263941530E-01  0.88957362630E+00  0.88000000000E+00 0.  1.
        -11    1    4    4    0    0  0.12769150425E-01  0.55070319741E-01  0.37771711362E-01  0.67990842172E-01  0.51100000000E-03 0.  1.
         11    1    4    4    0    0  0.21339374145E-01  0.54636876456E-01  0.19782197566E-01  0.61904390953E-01  0.51100000000E-03 0. -1.
</event>
<event>
 8    1  0.1143957E+005  0.1043930E+01  0.7957747E-01            NaN
         13   -1    0    0    0    0  0.00000000000E+00  0.00000000000E+00  0.74505805969E-08  0.10566000000E+00  0.10566000000E+00 0. -1.
     999900   -1    0    0    0    0 -0.00000000000E+00 -0.00000000000E+00 -0.74505805969E-08  0.93827000000E+00  0.93827000000E+00 0. -1.
     999902    2    1    2    0    0 -0.77938966981E-02  0.92886530155E-03 -0.24543549704E-01  0.10181619297E+01  0.10178358029E+01 0.  0.
     999903    2    3    3    0    0  0.69616248232E-01  0.27448715803E-01 -0.10535049850E+00  0.13067931238E+00  0.19455105616E-01 0.  0.
         14    1    1    2    0    0  0.77938966981E-02 -0.92886530155E-03  0.24543549704E-01  0.25768070331E-01  0.00000000000E+00 0. -1.
     999901    1    3    3    0    0 -0.77410144930E-01 -0.26519850502E-01  0.80806948793E-01  0.88748261728E+00  0.88000000000E+00 0.  1.
        -11    1    4    4    0    0  0.57231027352E-01  0.15485906117E-01 -0.73161081942E-01  0.94170105723E-01  0.51100000000E-03 0.  1.
         11    1    4    4    0    0  0.12385220879E-01  0.11962809687E-01 -0.32189416556E-01  0.36509206661E-01  0.51100000000E-03 0. -1.
</event>
<event>
 7    1  0.1508292E+005  0.1043930E+01  0.7957747E-01            NaN
         13   -1    0    0    0    0  0.00000000000E+00  0.00000000000E+00  0.74505805969E-08  0.10566000000E+00  0.10566000000E+00 0. -1.
     999900   -1    0    0    0    0 -0.00000000000E+00 -0.00000000000E+00 -0.74505805969E-08  0.93827000000E+00  0.93827000000E+00 0.  1.
     999903    2    1    2    0    0 -0.79395046851E-02  0.80921081597E-02 -0.94982454656E-01  0.97685420593E-01  0.19805472852E-01 0.  0.
         14    1    1    2    0    0  0.13883368268E-01  0.53658912783E-01 -0.14504870836E-01  0.57292391410E-01  0.00000000000E+00 0.  1.
     999901    1    1    2    0    0 -0.59438635825E-02 -0.61751020943E-01  0.10948732549E+00  0.88895218800E+00  0.88000000000E+00 0. -1.
        -11    1    3    3    0    0  0.17642683004E-02 -0.37623177267E-02 -0.49760411279E-01  0.49936232627E-01  0.51100000000E-03 0.  1.
         11    1    3    3    0    0 -0.97037729854E-02  0.11854425886E-01 -0.45222043377E-01  0.47749187966E-01  0.51100000000E-03 0. -1.
</event>
<event>
 7    1  0.1143957E+005  0.1043930E+01  0.7957747E-01            NaN
         13   -1    0    0    0    0  0.00000000000E+00  0.00000000000E+00  0.74505805969E-08  0.10566000000E+00  0.10566000000E+00 0. -1.
     999900   -1    0    0    0    0 -0.00000000000E+00 -0.00000000000E+00 -0.74505805969E-08  0.93827000000E+00  0.93827000000E+00 0.  1.
     999903    2    1    2    0    0  0.95911127015E-01 -0.56901903189E-01 -0.18323044355E-01  0.11474896685E+00  0.19870092257E-01 0.  0.
         14    1    1    2    0    0 -0.30103307929E-01 -0.25831142727E-02  0.32810208785E-01  0.44602594410E-01  0.00000000000E+00 0.  1.
     999901    1    1    2    0    0 -0.65807819087E-01  0.59485017461E-01 -0.14487164430E-01  0.88457843874E+00  0.88000000000E+00 0. -1.
        -11    1    3    3    0    0  0.35768812997E-01 -0.16530327790E-01 -0.15222055744E-01  0.42244902913E-01  0.51100000000E-03 0.  1.
         11    1    3    3    0    0  0.60142314018E-01 -0.40371575398E-01 -0.31009886103E-02  0.72504063934E-01  0.51100000000E-03 0. -1.
</event>
<event>
 8    1  0.1143957E+005  0.1043930E+01  0.7957747E-01            NaN
         13   -1    0    0    0    0  0.00000000000E+00  0.00000000000E+00  0.74505805969E-08  0.10566000000E+00  0.10566000000E+00 0.  1.
     999900   -1    0    0    0    0 -0.00000000000E+00 -0.00000000000E+00 -0.74505805969E-08  0.93827000000E+00  0.93827000000E+00 0. -1.
     999902    2    1    2    0    0 -0.28192990907E-03 -0.52900674618E-02  0.16190792163E-01  0.10268945649E+01  0.10267532524E+01 0.  0.
     999903    2    3    3    0    0  0.64691419318E-01  0.78789142551E-01 -0.85727249594E-01  0.13466245558E+00  0.19801689378E-01 0.  0.
         14    1    1    2    0    0  0.28192990907E-03  0.52900674618E-02 -0.16190792163E-01  0.17035435102E-01  0.00000000000E+00 0. -1.
     999901    1    3    3    0    0 -0.64973349227E-01 -0.84079210013E-01  0.10191804176E+00  0.89223210932E+00  0.88000000000E+00 0.  1.
        -11    1    4    4    0    0  0.55203440549E-01  0.57910358724E-01 -0.58812831347E-01  0.99298739911E-01  0.51100000000E-03 0.  1.
         11    1    4    4    0    0  0.94879787693E-02  0.20878783827E-01 -0.26914418246E-01  0.35363715667E-01  0.51100000000E-03 0. -1.
</event>
<event>
 8    1  0.1143957E+005  0.1043930E+01  0.7957747E-01            NaN
         13   -1    0    0    0    0  0.00000000000E+00  0.00000000000E+00  0.74505805969E-08  0.10566000000E+00  0.10566000000E+00 0. -1.
     999900   -1    0    0    0    0 -0.00000000000E+00 -0.00000000000E+00 -0.74505805969E-08  0.93827000000E+00  0.93827000000E+00 0.  1.
     999902    2    1    2    0    0  0.17528855501E-02  0.23953843090E-01  0.22845507683E-02  0.10198036994E+01  0.10195182720E+01 0.  0.
     999903    2    3    3    0    0  0.62136363333E-01 -0.77951838239E-01  0.78617610855E-01  0.12859235058E+00  0.20441310077E-01 0.  0.
         14    1    1    2    0    0 -0.17528855501E-02 -0.23953843090E-01 -0.22845507683E-02  0.24126300561E-01  0.00000000000E+00 0.  1.
     999901    1    3    3    0    0 -0.60383477783E-01  0.10190568133E+00 -0.76333060086E-01  0.89121134886E+00  0.88000000000E+00 0.  1.
        -11    1    4    4    0    0  0.34136583490E-01 -0.50563137422E-01  0.58635960199E-01  0.84618994013E-01  0.51100000000E-03 0.  1.
         11    1    4    4    0    0  0.27999779843E-01 -0.27388700817E-01  0.19981650656E-01  0.43973356565E-01  0.51100000000E-03 0. -1.
</event>
<event>
 8    1  0.1143957E+005  0.1043930E+01  0.7957747E-01            NaN
         13   -1    0    0    0    0  0.00000000000E+00  0.00000000000E+00  0.74505805969E-08  0.10566000000E+00  0.10566000000E+00 0.  1.
     999900   -1    0    0    0    0 -0.00000000000E+00 -0.00000000000E+00 -0.74505805969E-08  0.93827000000E+00  0.93827000000E+00 0. -1.
     999902    2    1    2    0    0  0.10511958542E-02 -0.22009397767E-01 -0.46173895159E-02  0.10214169174E+01  0.10211687815E+01 0.  0.
     999903    2    3    3    0    0  0.13252133469E-01  0.76407540003E-01 -0.10292754522E+00  0.13040645548E+00  0.19950760764E-01 0.  0.
         14    1    1    2    0    0 -0.10511958542E-02  0.22009397767E-01  0.46173895159E-02  0.22513082613E-01  0.00000000000E+00 0.  1.
     999901    1    3    3    0    0 -0.12200937615E-01 -0.98416937770E-01  0.98310155701E-01  0.89101046191E+00  0.88000000000E+00 0. -1.
        -11    1    4    4    0    0 -0.23635787462E-02  0.12415241833E-01 -0.27467554376E-01  0.30239913999E-01  0.51100000000E-03 0. -1.
         11    1    4    4    0    0  0.15615712215E-01  0.63992298170E-01 -0.75459990841E-01  0.10016654148E+00  0.51100000000E-03 0.  1.
</event>
<event>
 8    1  0.1143957E+005  0.1043930E+01  0.7957747E-01            NaN
         13   -1    0    0    0    0  0.00000000000E+00  0.00000000000E+00  0.74505805969E-08  0.10566000000E+00  0.10566000000E+00 0. -1.
     999900   -1    0    0    0    0 -0.00000000000E+00 -0.00000000000E+00 -0.74505805969E-08  0.93827000000E+00  0.93827000000E+00 0.  1.
     999902    2    1    2    0    0  0.84285975583E-02  0.54542291397E-02  0.22326573701E-01  0.10194500947E+01  0.10191561361E+01 0.  0.
     999903    2    3    3    0    0 -0.88034228345E-01  0.81075381533E-01  0.48662573186E-01  0.13056471378E+00  0.18864135397E-01 0.  0.
         14    1    1    2    0    0 -0.84285975583E-02 -0.54542291397E-02 -0.22326573701E-01  0.24479905342E-01  0.00000000000E+00 0.  1.
     999901    1    3    3    0    0  0.96462825904E-01 -0.75621152393E-01 -0.26335999486E-01  0.88888538088E+00  0.88000000000E+00 0.  1.
        -11    1    4    4    0    0 -0.66789527486E-01  0.64129360217E-01  0.45596713848E-01  0.10321209841E+00  0.51100000000E-03 0. -1.
         11    1    4    4    0    0 -0.21244700860E-01  0.16946021316E-01  0.30658593384E-02  0.27352615369E-01  0.51100000000E-03 0.  1.
</event>
<event>
 8    1  0.1143957E+005  0.1043930E+01  0.7957747E-01            NaN
         13   -1    0    0    0    0  0.00000000000E+00  0.00000000000E+00  0.74505805969E-08  0.10566000000E+00  0.10566000000E+00 0. -1.
     999900   -1    0    0    0    0 -0.00000000000E+00 -0.00000000000E+00 -0.74505805969E-08  0.93827000000E+00  0.93827000000E+00 0.  1.
     999902    2    1    2    0    0  0.18485059679E-02  0.24150371311E-01  0.60807406987E-02  0.10189573586E+01  0.10186512975E+01 0.  0.
     999903    2    3    3    0    0  0.61282674186E-02  0.86331831531E-01  0.97867610722E-01  0.13199079791E+00  0.18781925027E-01 0.  0.
         14    1    1    2    0    0 -0.18485059679E-02 -0.24150371311E-01 -0.60807406987E-02  0.24972641354E-01  0.00000000000E+00 0.  1.
     999901    1    3    3    0    0 -0.42797614508E-02 -0.62181460220E-01 -0.91786870023E-01  0.88696656073E+00  0.88000000000E+00 0. -1.
        -11    1    4    4    0    0 -0.33774264007E-03  0.72231052407E-01  0.73147745621E-01  0.10280220237E+00  0.51100000000E-03 0.  1.
         11    1    4    4    0    0  0.64660100587E-02  0.14100779124E-01  0.24719865101E-01  0.29188595540E-01  0.51100000000E-03 0. -1.
</event>
<event>
 8    1  0.1143957E+005  0.1043930E+01  0.7957747E-01            NaN
         13   -1    0    0    0    0  0.00000000000E+00  0.00000000000E+00  0.74505805969E-08  0.10566000000E+00  0.10566000000E+00 0.  1.
     999900   -1    0    0    0    0 -0.00000000000E+00 -0.00000000000E+00 -0.74505805969E-08  0.93827000000E+00  0.93827000000E+00 0.  1.
     999902    2    1    2    0    0 -0.17168888870E-01  0.15372852606E-01 -0.25556801093E-02  0.10207432184E+01  0.10204798337E+01 0.  0.
     999903    2    3    3    0    0 -0.99007916062E-01 -0.72932569783E-01 -0.42566484842E-01  0.13164460825E+00  0.19916577800E-01 0.  0.
         14    1    1    2    0    0  0.17168888870E-01 -0.15372852606E-01  0.25556801093E-02  0.23186781645E-01  0.00000000000E+00 0.  1.
     999901    1    3    3    0    0  0.81839027193E-01  0.88305422389E-01  0.40010804733E-01  0.88909861010E+00  0.88000000000E+00 0. -1.
        -11    1    4    4    0    0 -0.81067534527E-01 -0.50485888201E-01 -0.36696123372E-01  0.10231146883E+00  0.51100000000E-03 0. -1.
         11    1    4    4    0    0 -0.17940381535E-01 -0.22446681582E-01 -0.58703614695E-02  0.29333139424E-01  0.51100000000E-03 0.  1.
</event>
<event>
 8    1  0.1143957E+005  0.1043930E+01  0.7957747E-01            NaN
         13   -1    0    0    0    0  0.00000000000E+00  0.00000000000E+00  0.74505805969E-08  0.10566000000E+00  0.10566000000E+00 0.  1.
     999900   -1    0    0    0    0 -0.00000000000E+00 -0.00000000000E+00 -0.74505805969E-08  0.93827000000E+00  0.93827000000E+00 0. -1.
     999902    2    1    2    0    0 -0.42855961266E-03  0.17539192526E-01 -0.14942684513E-01  0.10208845936E+01  0.10206244474E+01 0.  0.
     999903    2    3    3    0    0  0.73667353798E-01  0.91124248704E-01 -0.60912692009E-01  0.13351871272E+00  0.19656624364E-01 0.  0.
         14    1    1    2    0    0  0.42855961266E-03 -0.17539192526E-01  0.14942684513E-01  0.23045406446E-01  0.00000000000E+00 0.  1.
     999901    1    3    3    0    0 -0.74095913411E-01 -0.73585056179E-01  0.45970007496E-01  0.88736588083E+00  0.88000000000E+00 0.  1.
        -11    1    4    4    0    0  0.52107905964E-01  0.50730179320E-01 -0.41948808094E-01  0.83956825686E-01  0.51100000000E-03 0.  1.
         11    1    4    4    0    0  0.21559447834E-01  0.40394069384E-01 -0.18963883916E-01  0.49561887035E-01  0.51100000000E-03 0. -1.
</event>
<event>
 8    1  0.1262346E+005  0.1043930E+01  0.7957747E-01            NaN
         13   -1    0    0    0    0  0.00000000000E+00  0.00000000000E+00  0.74505805969E-08  0.10566000000E+00  0.10566000000E+00 0.  1.
     999900   -1    0    0    0    0 -0.00000000000E+00 -0.00000000000E+00 -0.74505805969E-08  0.93827000000E+00  0.93827000000E+00 0.  1.
     999902    2    1    2    0    0 -0.87493628804E-02 -0.20122164208E-01  0.78752031737E-02  0.10206175212E+01  0.10203512400E+01 0.  0.
     999903    2    3    3    0    0 -0.39894555534E-01  0.32421236194E-01  0.11933038421E+00  0.13148699684E+00  0.20158810121E-01 0.  0.
         14    1    1    2    0    0  0.87493628804E-02  0.20122164208E-01 -0.78752031737E-02  0.23312478810E-01  0.00000000000E+00 0.  1.
     999901    1    3    3    0    0  0.31145192654E-01 -0.52543400402E-01 -0.11145518103E+00  0.88913052435E+00  0.88000000000E+00 0.  1.
        -11    1    4    4    0    0 -0.34854623000E-01  0.16728041587E-01  0.80707067395E-01  0.89490580333E-01  0.51100000000E-03 0.  1.
         11    1    4    4    0    0 -0.50399325340E-02  0.15693194606E-01  0.38623316812E-01  0.41996416507E-01  0.51100000000E-03 0. -1.
</event>
<event>
 8    1  0.1143957E+005  0.1043930E+01  0.7957747E-01            NaN
         13   -1    0    0    0    0  0.00000000000E+00  0.00000000000E+00  0.74505805969E-08  0.10566000000E+00  0.10566000000E+00 0. -1.
     999900   -1    0    0    0    0 -0.00000000000E+00 -0.00000000000E+00 -0.74505805969E-08  0.93827000000E+00  0.93827000000E+00 0.  1.
     999902    2    1    2    0    0  0.33005800676E-02 -0.19489260103E-01  0.13812608477E-01  0.10198154143E+01  0.10195302674E+01 0.  0.
     999903    2    3    3    0    0  0.62762370490E-02  0.81109313629E-01 -0.95667824376E-01  0.12733858398E+00  0.21087210338E-01 0.  0.
         14    1    1    2    0    0 -0.33005800676E-02  0.19489260103E-01 -0.13812608477E-01  0.24114585651E-01  0.00000000000E+00 0.  1.
     999901    1    3    3    0    0 -0.29756569814E-02 -0.10059857373E+00  0.10948043285E+00  0.89247683037E+00  0.88000000000E+00 0.  1.
        -11    1    4    4    0    0  0.13854396193E-01  0.50127194941E-01 -0.55801461315E-01  0.76280693313E-01  0.51100000000E-03 0. -1.
         11    1    4    4    0    0 -0.75781591435E-02  0.30982118688E-01 -0.39866363061E-01  0.51057890665E-01  0.51100000000E-03 0.  1.
</event>
<event>
 8    1  0.1143957E+005  0.1043930E+01  0.7957747E-01            NaN
         13   -1    0    0    0    0  0.00000000000E+00  0.00000000000E+00  0.74505805969E-08  0.10566000000E+00  0.10566000000E+00 0. -1.
     999900   -1    0    0    0    0 -0.00000000000E+00 -0.00000000000E+00 -0.74505805969E-08  0.93827000000E+00  0.93827000000E+00 0.  1.
     999902    2    1    2    0    0  0.19747919811E-01  0.12102852141E-01 -0.56301999989E-02  0.10200939240E+01  0.10198154025E+01 0.  0.
     999903    2    3    3    0    0 -0.50542727626E-01 -0.28606258383E-01 -0.11464555173E+00  0.12965450792E+00  0.17140698898E-01 0.  0.
         14    1    1    2    0    0 -0.19747919811E-01 -0.12102852141E-01  0.56301999989E-02  0.23836075995E-01  0.00000000000E+00 0. -1.
     999901    1    3    3    0    0  0.70290647437E-01  0.40709110524E-01  0.10901535173E+00  0.89043941608E+00  0.88000000000E+00 0. -1.
        -11    1    4    4    0    0 -0.43115547887E-01 -0.25742131148E-01 -0.82916947524E-01  0.96938584131E-01  0.51100000000E-03 0. -1.
         11    1    4    4    0    0 -0.74271797391E-02 -0.28641272351E-02 -0.31728604207E-01  0.32715923793E-01  0.51100000000E-03 0.  1.
</event>
<event>
 8    1  0.1143957E+005  0.1043930E+01  0.7957747E-01            NaN
         13   -1    0    0    0    0  0.00000000000E+00  0.00000000000E+00  0.74505805969E-08  0.10566000000E+00  0.10566000000E+00 0.  1.
     999900   -1    0    0    0    0 -0.00000000000E+00 -0.00000000000E+00 -0.74505805969E-08  0.93827000000E+00  0.93827000000E+00 0. -1.
     999902    2    1    2    0    0 -0.11510906859E-01  0.17979495756E-01  0.96732478530E-02  0.10204921040E+01  0.10202229165E+01 0.  0.
     999903    2    3    3    0    0 -0.11156595138E+00  0.38747045246E-01 -0.55889428705E-01  0.13215614977E+00  0.19832414345E-01 0.  0.
         14    1    1    2    0    0  0.11510906859E-01 -0.17979495756E-01 -0.96732478530E-02  0.23437895989E-01  0.00000000000E+00 0. -1.
     999901    1    3    3    0    0  0.10005504452E+00 -0.20767549490E-01  0.65562676558E-01  0.88833595424E+00  0.88000000000E+00 0.  1.
        -11    1    4    4    0    0 -0.20139176730E-01  0.15408962914E-01 -0.10569647589E-01  0.27477284229E-01  0.51100000000E-03 0.  1.
         11    1    4    4    0    0 -0.91426774646E-01  0.23338082333E-01 -0.45319781115E-01  0.10467886554E+00  0.51100000000E-03 0. -1.
</event>
<event>
 8    1  0.1143957E+005  0.1043930E+01  0.7957747E-01            NaN
         13   -1    0    0    0    0  0.00000000000E+00  0.00000000000E+00  0.74505805969E-08  0.10566000000E+00  0.10566000000E+00 0. -1.
     999900   -1    0    0    0    0 -0.00000000000E+00 -0.00000000000E+00 -0.74505805969E-08  0.93827000000E+00  0.93827000000E+00 0.  1.
     999902    2    1    2    0    0  0.16985294039E-01 -0.98818646216E-02 -0.11425852508E-01  0.10211989295E+01  0.10209459104E+01 0.  0.
     999903    2    3    3    0    0  0.32238898134E-01  0.89359701906E-01 -0.89138007805E-01  0.13208659683E+00  0.21835332595E-01 0.  0.
         14    1    1    2    0    0 -0.16985294039E-01  0.98818646216E-02  0.11425852508E-01  0.22731070532E-01  0.00000000000E+00 0.  1.
     999901    1    3    3    0    0 -0.15253604095E-01 -0.99241566528E-01  0.77712155297E-01  0.88911233264E+00  0.88000000000E+00 0. -1.
        -11    1    4    4    0    0  0.78081738435E-02  0.51857335256E-01 -0.43183231431E-01  0.67935288301E-01  0.51100000000E-03 0. -1.
         11    1    4    4    0    0  0.24430724291E-01  0.37502366650E-01 -0.45954776374E-01  0.64151308531E-01  0.51100000000E-03 0.  1.
</event>
<event>
 8    1  0.1143957E+005  0.1043930E+01  0.7957747E-01            NaN
         13   -1    0    0    0    0  0.00000000000E+00  0.00000000000E+00  0.74505805969E-08  0.10566000000E+00  0.10566000000E+00 0. -1.
     999900   -1    0    0    0    0 -0.00000000000E+00 -0.00000000000E+00 -0.74505805969E-08  0.93827000000E+00  0.93827000000E+00 0.  1.
     999902    2    1    2    0    0 -0.87449770708E-02 -0.24421596198E-02  0.22279965811E-01  0.10198709966E+01  0.10195871783E+01 0.  0.
     999903    2    3    3    0    0  0.26429202757E-01  0.10847482764E+00 -0.59435146972E-01  0.12845798311E+00  0.22441607302E-01 0.  0.
         14    1    1    2    0    0  0.87449770708E-02  0.24421596198E-02 -0.22279965811E-01  0.24059003390E-01  0.00000000000E+00 0.  1.
     999901    1    3    3    0    0 -0.35174179827E-01 -0.11091698726E+00  0.81715112783E-01  0.89141301351E+00  0.88000000000E+00 0. -1.
        -11    1    4    4    0    0  0.11923058780E-01  0.67337424527E-01 -0.24755253939E-01  0.72729442395E-01  0.51100000000E-03 0.  1.
         11    1    4    4    0    0  0.14506143976E-01  0.41137403112E-01 -0.34679893033E-01  0.55728540710E-01  0.51100000000E-03 0. -1.
</event>
<event>
 8    1  0.1143957E+005  0.1043930E+01  0.7957747E-01            NaN
         13   -1    0    0    0    0  0.00000000000E+00  0.00000000000E+00  0.74505805969E-08  0.10566000000E+00  0.10566000000E+00 0. -1.
     999900   -1    0    0    0    0 -0.00000000000E+00 -0.00000000000E+00 -0.74505805969E-08  0.93827000000E+00  0.93827000000E+00 0.  1.
     999902    2    1    2    0    0  0.44794099930E-02 -0.22736463417E-01  0.24724461126E-02  0.10206249604E+01  0.10203588510E+01 0.  0.
     999903    2    3    3    0    0  0.43983044853E-01 -0.60982694942E-01  0.10742055003E+00  0.13268497596E+00  0.20315781045E-01 0.  0.
         14    1    1    2    0    0 -0.44794099930E-02  0.22736463417E-01 -0.24724461126E-02  0.23305039634E-01  0.00000000000E+00 0.  1.
     999901    1    3    3    0    0 -0.39503634860E-01  0.38246231526E-01 -0.10494810392E+00  0.88793998441E+00  0.88000000000E+00 0.  1.
        -11    1    4    4    0    0  0.43058188001E-01 -0.52015117370E-01  0.10141923588E+00  0.12184294201E+00  0.51100000000E-03 0. -1.
         11    1    4    4    0    0  0.92485685248E-03 -0.89675775726E-02  0.60013141474E-02  0.10842033952E-01  0.51100000000E-03 0.  1.
</event>
<event>
 8    1  0.1143957E+005  0.1043930E+01  0.7957747E-01            NaN
         13   -1    0    0    0    0  0.00000000000E+00  0.00000000000E+00  0.74505805969E-08  0.10566000000E+00  0.10566000000E+00 0. -1.
     999900   -1    0    0    0    0 -0.00000000000E+00 -0.00000000000E+00 -0.74505805969E-08  0.93827000000E+00  0.93827000000E+00 0.  1.
     999902    2    1    2    0    0 -0.21462227684E-01  0.49334688269E-02  0.79892664859E-02  0.10205036321E+01  0.10202347125E+01 0.  0.
     999903    2    3    3    0    0 -0.60586894949E-01 -0.35348454676E-01 -0.10853637436E+00  0.13104784464E+00  0.21751044526E-01 0.  0.
         14    1    1    2    0    0  0.21462227684E-01 -0.49334688269E-02 -0.79892664859E-02  0.23426367854E-01  0.00000000000E+00 0.  1.
     999901    1    3    3    0    0  0.39124667265E-01  0.40281923503E-01  0.11652564085E+00  0.88945578750E+00  0.88000000000E+00 0. -1.
        -11    1    4    4    0    0 -0.16719588056E-01 -0.80223464166E-03 -0.17283458082E-01  0.24065893905E-01  0.51100000000E-03 0.  1.
         11    1    4    4    0    0 -0.43867306893E-01 -0.34546220034E-01 -0.91252916280E-01  0.10698195074E+00  0.51100000000E-03 0. -1.
</event>
<event>
 8    1  0.1143957E+005  0.1043930E+01  0.7957747E-01            NaN
         13   -1    0    0    0    0  0.00000000000E+00  0.00000000000E+00  0.74505805969E-08  0.10566000000E+00  0.10566000000E+00 0.  1.
     999900   -1    0    0    0    0 -0.00000000000E+00 -0.00000000000E+00 -0.74505805969E-08  0.93827000000E+00  0.93827000000E+00 0.  1.
     999902    2    1    2    0    0  0.14748025704E-01  0.59109513338E-02  0.16787664237E-01  0.10208157343E+01  0.10205540133E+01 0.  0.
     999903    2    3    3    0    0  0.50180152573E-01  0.41299019277E-01 -0.11112675225E+00  0.13015875830E+00  0.19196108752E-01 0.  0.
         14    1    1    2    0    0 -0.14748025704E-01 -0.59109513338E-02 -0.16787664237E-01  0.23114265690E-01  0.00000000000E+00 0. -1.
     999901    1    3    3    0    0 -0.35432126868E-01 -0.35388067943E-01  0.12791441649E+00  0.89065697601E+00  0.88000000000E+00 0. -1.
        -11    1    4    4    0    0  0.70142849238E-02  0.48691566352E-02 -0.30757597572E-01  0.31924908907E-01  0.51100000000E-03 0. -1.
         11    1    4    4    0    0  0.43165867649E-01  0.36429862642E-01 -0.80369154680E-01  0.98233849395E-01  0.51100000000E-03 0.  1.
</event>
<event>
 8    1  0.1143957E+005  0.1043930E+01  0.7957747E-01            NaN
         13   -1    0    0    0    0  0.00000000000E+00  0.00000000000E+00  0.74505805969E-08  0.10566000000E+00  0.10566000000E+00 0.  1.
     999900   -1    0    0    0    0 -0.00000000000E+00 -0.00000000000E+00 -0.74505805969E-08  0.93827000000E+00  0.93827000000E+00 0. -1.
     999902    2    1    2    0    0 -0.17667259816E-01 -0.14839717560E-01  0.16544736650E-02  0.10207980617E+01  0.10205359358E+01 0.  0.
     999903    2    3    3    0    0 -0.11740371990E+00 -0.11039315188E-01  0.58868785877E-01  0.13330987470E+00  0.20012216699E-01 0.  0.
         14    1    1    2    0    0  0.17667259816E-01  0.14839717560E-01 -0.16544736650E-02  0.23131938306E-01  0.00000000000E+00 0.  1.
     999901    1    3    3    0    0  0.99736460080E-01 -0.38004023712E-02 -0.57214312212E-01  0.88748818699E+00  0.88000000000E+00 0. -1.
        -11    1    4    4    0    0 -0.46604208251E-01 -0.14195187874E-01  0.25027714733E-01  0.54773197928E-01  0.51100000000E-03 0. -1.
         11    1    4    4    0    0 -0.70799511646E-01  0.31558726855E-02  0.33841071144E-01  0.78536676775E-01  0.51100000000E-03 0.  1.
</event>
<event>
 8    1  0.1143957E+005  0.1043930E+01  0.7957747E-01            NaN
         13   -1    0    0    0    0  0.00000000000E+00  0.00000000000E+00  0.74505805969E-08  0.10566000000E+00  0.10566000000E+00 0. -1.
     999900   -1    0    0    0    0 -0.00000000000E+00 -0.00000000000E+00 -0.74505805969E-08  0.93827000000E+00  0.93827000000E+00 0. -1.
     999902    2    1    2    0    0  0.20594141434E-02  0.95902164131E-02 -0.21544766926E-01  0.10202574332E+01  0.10199827643E+01 0.  0.
     999903    2    3    3    0    0 -0.90140270935E-01  0.64057327811E-01  0.64512268526E-01  0.12959854141E+00  0.20133043870E-01 0.  0.
         14    1    1    2    0    0 -0.20594141434E-02 -0.95902164131E-02  0.21544766926E-01  0.23672566810E-01  0.00000000000E+00 0. -1.
     999901    1    3    3    0    0  0.92199685078E-01 -0.54467111398E-01 -0.86057035451E-01  0.89065889178E+00  0.88000000000E+00 0. -1.
        -11    1    4    4    0    0 -0.28464257258E-01  0.17271445614E-01  0.30073942899E-01  0.44868919503E-01  0.51100000000E-03 0. -1.
         11    1    4    4    0    0 -0.61676013677E-01  0.46785882197E-01  0.34438325626E-01  0.84729621910E-01  0.51100000000E-03 0.  1.
</event>
<event>
 8    1  0.1143957E+005  0.1043930E+01  0.7957747E-01            NaN
         13   -1    0    0    0    0  0.00000000000E+00  0.00000000000E+00  0.74505805969E-08  0.10566000000E+00  0.10566000000E+00 0.  1.
     999900   -1    0    0    0    0 -0.00000000000E+00 -0.00000000000E+00 -0.74505805969E-08  0.93827000000E+00  0.93827000000E+00 0. -1.
     999902    2    1    2    0    0 -0.33641245328E-02 -0.21051463359E-01 -0.10099018488E-01  0.10203403493E+01  0.10200676237E+01 0.  0.
     999903    2    3    3    0    0  0.70095449962E-01  0.10528366599E+00 -0.32801489875E-02  0.12826223003E+00  0.21033731092E-01 0.  0.
         14    1    1    2    0    0  0.33641245328E-02  0.21051463359E-01  0.10099018488E-01  0.23589650651E-01  0.00000000000E+00 0.  1.
     999901    1    3    3    0    0 -0.73459574495E-01 -0.12633512935E+00 -0.68188695004E-02  0.89207811932E+00  0.88000000000E+00 0. -1.
        -11    1    4    4    0    0  0.54256475010E-01  0.63545646257E-01 -0.11653271411E-02  0.83566939319E-01  0.51100000000E-03 0.  1.
         11    1    4    4    0    0  0.15838974952E-01  0.41738019735E-01 -0.21148218463E-02  0.44695290707E-01  0.51100000000E-03 0. -1.
</event>
<event>
 8    1  0.1143957E+005  0.1043930E+01  0.7957747E-01            NaN
         13   -1    0    0    0    0  0.00000000000E+00  0.00000000000E+00  0.74505805969E-08  0.10566000000E+00  0.10566000000E+00 0. -1.
     999900   -1    0    0    0    0 -0.00000000000E+00 -0.00000000000E+00 -0.74505805969E-08  0.93827000000E+00  0.93827000000E+00 0.  1.
     999902    2    1    2    0    0 -0.10971288577E-01  0.13395849852E-01  0.14334580303E-01  0.10214511620E+01  0.10212037887E+01 0.  0.
     999903    2    3    3    0    0  0.32818987347E-01  0.51807325577E-02  0.12734269688E+00  0.13310668441E+00  0.19932412418E-01 0.  0.
         14    1    1    2    0    0  0.10971288577E-01 -0.13395849852E-01 -0.14334580303E-01  0.22478838021E-01  0.00000000000E+00 0. -1.
     999901    1    3    3    0    0 -0.43790275924E-01  0.82151172943E-02 -0.11300811658E+00  0.88834447757E+00  0.88000000000E+00 0.  1.
        -11    1    4    4    0    0  0.23499950262E-01  0.12516241940E-01  0.94677987275E-01  0.98351849856E-01  0.51100000000E-03 0.  1.
         11    1    4    4    0    0  0.93190370846E-02 -0.73355093823E-02  0.32664709606E-01  0.34754834552E-01  0.51100000000E-03 0. -1.
</event>
<event>
 8    1  0.1143957E+005  0.1043930E+01  0.7957747E-01            NaN
         13   -1    0    0    0    0  0.00000000000E+00  0.00000000000E+00  0.74505805969E-08  0.10566000000E+00  0.10566000000E+00 0.  1.
     999900   -1    0    0    0    0 -0.00000000000E+00 -0.00000000000E+00 -0.74505805969E-08  0.93827000000E+00  0.93827000000E+00 0.  1.
     999902    2    1    2    0    0  0.14779186991E-01 -0.14739569909E-01  0.11822690264E-01  0.10199413507E+01  0.10196592095E+01 0.  0.
     999903    2    3    3    0    0 -0.46455033604E-01  0.44815464218E-01 -0.10802933856E+00  0.12771887808E+00  0.21800868057E-01 0.  0.
         14    1    1    2    0    0 -0.14779186991E-01  0.14739569909E-01 -0.11822690264E-01  0.23988649280E-01  0.00000000000E+00 0.  1.
     999901    1    3    3    0    0  0.61234220595E-01 -0.59555034127E-01  0.11985202883E+00  0.89222247264E+00  0.88000000000E+00 0.  1.
        -11    1    4    4    0    0 -0.44185851608E-01  0.33969944363E-01 -0.79349827414E-01  0.96969081846E-01  0.51100000000E-03 0.  1.
         11    1    4    4    0    0 -0.22691819965E-02  0.10845519855E-01 -0.28679511151E-01  0.30749796238E-01  0.51100000000E-03 0. -1.
</event>
<event>
 8    1  0.1143957E+005  0.1043930E+01  0.7957747E-01            NaN
         13   -1    0    0    0    0  0.00000000000E+00  0.00000000000E+00  0.74505805969E-08  0.10566000000E+00  0.10566000000E+00 0. -1.
     999900   -1    0    0    0    0 -0.00000000000E+00 -0.00000000000E+00 -0.74505805969E-08  0.93827000000E+00  0.93827000000E+00 0. -1.
     999902    2    1    2    0    0  0.18163005333E-02 -0.20610807322E-01 -0.11252596691E-01  0.10203773938E+01  0.10201055340E+01 0.  0.
     999903    2    3    3    0    0  0.24017573288E-01  0.11784114382E+00  0.38700419634E-01  0.12787689346E+00  0.19783791245E-01 0.  0.
         14    1    1    2    0    0 -0.18163005333E-02  0.20610807322E-01  0.11252596691E-01  0.23552606191E-01  0.00000000000E+00 0. -1.
     999901    1    3    3    0    0 -0.22201272755E-01 -0.13845195115E+00 -0.49953016325E-01  0.89250050035E+00  0.88000000000E+00 0. -1.
        -11    1    4    4    0    0  0.21999159981E-01  0.11144030091E+00  0.40998542103E-01  0.12076442060E+00  0.51100000000E-03 0. -1.
         11    1    4    4    0    0  0.20184133072E-02  0.64008429132E-02 -0.22981224693E-02  0.71124728585E-02  0.51100000000E-03 0.  1.
</event>
<event>
 8    1  0.1143957E+005  0.1043930E+01  0.7957747E-01            NaN
         13   -1    0    0    0    0  0.00000000000E+00  0.00000000000E+00  0.74505805969E-08  0.10566000000E+00  0.10566000000E+00 0.  1.
     999900   -1    0    0    0    0 -0.00000000000E+00 -0.00000000000E+00 -0.74505805969E-08  0.93827000000E+00  0.93827000000E+00 0. -1.
     999902    2    1    2    0    0  0.42377905781E-02 -0.19400587590E-01  0.11758414638E-01  0.10208518289E+01  0.10205909340E+01 0.  0.
     999903    2    3    3    0    0 -0.23694981805E-01 -0.11226284632E+00  0.66087669412E-01  0.13385954774E+00  0.19657050796E-01 0.  0.
         14    1    1    2    0    0 -0.42377905781E-02  0.19400587590E-01 -0.11758414638E-01  0.23078171128E-01  0.00000000000E+00 0. -1.
     999901    1    3    3    0    0  0.27932772383E-01  0.92862258727E-01 -0.54329254774E-01  0.88699228114E+00  0.88000000000E+00 0. -1.
        -11    1    4    4    0    0 -0.18583409595E-01 -0.75184450824E-01  0.34108530789E-01  0.84626814612E-01  0.51100000000E-03 0. -1.
         11    1    4    4    0    0 -0.51115722097E-02 -0.37078395494E-01  0.31979138623E-01  0.49232733125E-01  0.51100000000E-03 0.  1.
</event>
<event>
 8    1  0.1143957E+005  0.1043930E+01  0.7957747E-01            NaN
         13   -1    0    0    0    0  0.00000000000E+00  0.00000000000E+00  0.74505805969E-08  0.10566000000E+00  0.10566000000E+00 0.  1.
     999900   -1    0    0    0    0 -0.00000000000E+00 -0.00000000000E+00 -0.74505805969E-08  0.93827000000E+00  0.93827000000E+00 0.  1.
     999902    2    1    2    0    0 -0.20414415752E-01 -0.22769314069E-01 -0.23026432396E-02  0.10132625547E+01  0.10127983573E+01 0.  0.
     999903    2    3    3    0    0 -0.49609528231E-01 -0.96045423977E-01  0.64474592524E-01  0.12721462031E+00  0.18459625682E-01 0.  0.
         14    1    1    2    0    0  0.20414415752E-01  0.22769314069E-01  0.23026432396E-02  0.30667445273E-01  0.00000000000E+00 0. -1.
     999901    1    3    3    0    0  0.29195112478E-01  0.73276109908E-01 -0.66777235763E-01  0.88604793442E+00  0.88000000000E+00 0.  1.
        -11    1    4    4    0    0 -0.18543072712E-01 -0.52022040012E-01  0.26259131539E-01  0.61155059502E-01  0.51100000000E-03 0. -1.
         11    1    4    4    0    0 -0.31066455519E-01 -0.44023383965E-01  0.38215460985E-01  0.66059560804E-01  0.51100000000E-03 0.  1.
</event>
<event>
 8    1  0.1143957E+005  0.1043930E+01  0.7957747E-01            NaN
         13   -1    0    0    0    0  0.00000000000E+00  0.00000000000E+00  0.74505805969E-08  0.10566000000E+00  0.10566000000E+00 0. -1.
     999900   -1    0    0    0    0 -0.00000000000E+00 -0.00000000000E+00 -0.74505805969E-08  0.93827000000E+00  0.93827000000E+00 0.  1.
     999902    2    1    2    0    0 -0.21677664464E-01 -0.83064496731E-02  0.16663712717E-02  0.10206556571E+01  0.10203902564E+01 0.  0.
     999903    2    3    3    0    0 -0.20627541909E-01  0.12544212912E+00  0.20799340617E-01  0.13034343347E+00  0.19889063177E-01 0.  0.
         14    1    1    2    0    0  0.21677664464E-01  0.83064496731E-02 -0.16663712717E-02  0.23274342869E-01  0.00000000000E+00 0. -1.
     999901    1    3    3    0    0 -0.10501225544E-02 -0.13374857880E+00 -0.19132969345E-01  0.89031222366E+00  0.88000000000E+00 0. -1.
        -11    1    4    4    0    0 -0.63063694876E-02  0.49209771792E-01  0.17822258777E-01  0.52718743961E-01  0.51100000000E-03 0. -1.
         11    1    4    4    0    0 -0.14321172422E-01  0.76232357331E-01  0.29770818399E-02  0.77624689507E-01  0.51100000000E-03 0.  1.
</event>
<event>
 8    1  0.1143957E+005  0.1043930E+01  0.7957747E-01            NaN
         13   -1    0    0    0    0  0.00000000000E+00  0.00000000000E+00  0.74505805969E-08  0.10566000000E+00  0.10566000000E+00 0. -1.
     999900   -1    0    0    0    0 -0.00000000000E+00 -0.00000000000E+00 -0.74505805969E-08  0.93827000000E+00  0.93827000000E+00 0. -1.
     999902    2    1    2    0    0 -0.68145625817E-02  0.22315798082E-01  0.11691748680E-02  0.10205676355E+01  0.10203002002E+01 0.  0.
     999903    2    3    3    0    0  0.11968125802E+00  0.43978777593E-01  0.22301732059E-01  0.13100759685E+00  0.20196207066E-01 0.  0.
         14    1    1    2    0    0  0.68145625817E-02 -0.22315798082E-01 -0.11691748680E-02  0.23362364544E-01  0.00000000000E+00 0.  1.
     999901    1    3    3    0    0 -0.12649582060E+00 -0.21662979511E-01 -0.21132557191E-01  0.88956003861E+00  0.88000000000E+00 0. -1.
        -11    1    4    4    0    0  0.10217243231E+00  0.34992844252E-01  0.25735167717E-01  0.11102371392E+00  0.51100000000E-03 0.  1.
         11    1    4    4    0    0  0.17508825705E-01  0.89859333410E-02 -0.34334356584E-02  0.19983882931E-01  0.51100000000E-03 0. -1.
</event>
<event>
 8    1  0.1143957E+005  0.1043930E+01  0.7957747E-01            NaN
         13   -1    0    0    0    0  0.00000000000E+00  0.00000000000E+00  0.74505805969E-08  0.10566000000E+00  0.10566000000E+00 0.  1.
     999900   -1    0    0    0    0 -0.00000000000E+00 -0.00000000000E+00 -0.74505805969E-08  0.93827000000E+00  0.93827000000E+00 0.  1.
     999902    2    1    2    0    0 -0.15434381886E-01  0.15190113701E-01 -0.89856535682E-02  0.10204842825E+01  0.10202149132E+01 0.  0.
     999903    2    3    3    0    0 -0.52442539960E-01  0.20738370998E-01 -0.11867431914E+00  0.13288527943E+00  0.19864627784E-01 0.  0.
         14    1    1    2    0    0  0.15434381886E-01 -0.15190113701E-01  0.89856535682E-02  0.23445717488E-01  0.00000000000E+00 0. -1.
     999901    1    3    3    0    0  0.37008158074E-01 -0.55482572966E-02  0.10968866557E+00  0.88759900308E+00  0.88000000000E+00 0. -1.
        -11    1    4    4    0    0 -0.21499669958E-01  0.35800374415E-02 -0.65328685247E-01  0.68870535888E-01  0.51100000000E-03 0.  1.
         11    1    4    4    0    0 -0.30942870002E-01  0.17158333556E-01 -0.53345633889E-01  0.64014743539E-01  0.51100000000E-03 0. -1.
</event>
<event>
 8    1  0.1143957E+005  0.1043930E+01  0.7957747E-01            NaN
         13   -1    0    0    0    0  0.00000000000E+00  0.00000000000E+00  0.74505805969E-08  0.10566000000E+00  0.10566000000E+00 0.  1.
     999900   -1    0    0    0    0 -0.00000000000E+00 -0.00000000000E+00 -0.74505805969E-08  0.93827000000E+00  0.93827000000E+00 0. -1.
     999902    2    1    2    0    0 -0.19769438561E-01  0.13037923742E-01  0.39096181140E-02  0.10199278486E+01  0.10196453860E+01 0.  0.
     999903    2    3    3    0    0 -0.10910864875E+00 -0.59588681374E-01 -0.37458041588E-01  0.13146434262E+00  0.20597580431E-01 0.  0.
         14    1    1    2    0    0  0.19769438561E-01 -0.13037923742E-01 -0.39096181140E-02  0.24002151368E-01  0.00000000000E+00 0. -1.
     999901    1    3    3    0    0  0.89339210193E-01  0.72626605116E-01  0.41367659702E-01  0.88846350601E+00  0.88000000000E+00 0.  1.
        -11    1    4    4    0    0 -0.31340976035E-01 -0.10050463079E-01 -0.30938683282E-02  0.33062089001E-01  0.51100000000E-03 0. -1.
         11    1    4    4    0    0 -0.77767672720E-01 -0.49538218295E-01 -0.34364173259E-01  0.98402253617E-01  0.51100000000E-03 0.  1.
</event>
<event>
 8    1  0.1143957E+005  0.1043930E+01  0.7957747E-01            NaN
         13   -1    0    0    0    0  0.00000000000E+00  0.00000000000E+00  0.74505805969E-08  0.10566000000E+00  0.10566000000E+00 0.  1.
     999900   -1    0    0    0    0 -0.00000000000E+00 -0.00000000000E+00 -0.74505805969E-08  0.93827000000E+00  0.93827000000E+00 0. -1.
     999902    2    1    2    0    0  0.15635641248E-01  0.51451497427E-02  0.17140292205E-01  0.10201658366E+01  0.10198890130E+01 0.  0.
     999903    2    3    3    0    0 -0.94085849962E-01 -0.47586801349E-01 -0.69064463054E-01  0.12761291153E+00  0.19962572654E-01 0.  0.
         14    1    1    2    0    0 -0.15635641248E-01 -0.51451497427E-02 -0.17140292205E-01  0.23764163355E-01  0.00000000000E+00 0. -1.
     999901    1    3    3    0    0  0.10972149121E+00  0.52731951092E-01  0.86204755258E-01  0.89255292511E+00  0.88000000000E+00 0.  1.
        -11    1    4    4    0    0 -0.63281973916E-01 -0.42115195781E-01 -0.49244721568E-01  0.90573736048E-01  0.51100000000E-03 0. -1.
         11    1    4    4    0    0 -0.30803876045E-01 -0.54716055678E-02 -0.19819741486E-01  0.37039175483E-01  0.51100000000E-03 0.  1.
</event>
<event>
 8    1  0.1143957E+005  0.1043930E+01  0.7957747E-01            NaN
         13   -1    0    0    0    0  0.00000000000E+00  0.00000000000E+00  0.74505805969E-08  0.10566000000E+00  0.10566000000E+00 0. -1.
     999900   -1    0    0    0    0 -0.00000000000E+00 -0.00000000000E+00 -0.74505805969E-08  0.93827000000E+00  0.93827000000E+00 0.  1.
     999902    2    1    2    0    0  0.94283001589E-03 -0.23169349823E-01  0.20381858142E-02  0.10206520727E+01  0.10203865893E+01 0.  0.
     999903    2    3    3    0    0  0.31187345300E-01  0.10970855229E+00  0.56412049851E-01  0.12850422356E+00  0.17955476882E-01 0.  0.
         14    1    1    2    0    0 -0.94283001589E-03  0.23169349823E-01 -0.20381858142E-02  0.23277927336E-01  0.00000000000E+00 0. -1.
     999901    1    3    3    0    0 -0.30244515284E-01 -0.13287790212E+00 -0.54373864037E-01  0.89214784911E+00  0.88000000000E+00 0. -1.
        -11    1    4    4    0    0  0.11056091204E-02  0.26178959747E-01  0.81140498416E-02  0.27434635605E-01  0.51100000000E-03 0.  1.
         11    1    4    4    0    0  0.30081736180E-01  0.83529592548E-01  0.48298000009E-01  0.10106958795E+00  0.51100000000E-03 0. -1.
</event>
<event>
 8    1  0.1143957E+005  0.1043930E+01  0.7957747E-01            NaN
         13   -1    0    0    0    0  0.00000000000E+00  0.00000000000E+00  0.74505805969E-08  0.10566000000E+00  0.10566000000E+00 0.  1.
     999900   -1    0    0    0    0 -0.00000000000E+00 -0.00000000000E+00 -0.74505805969E-08  0.93827000000E+00  0.93827000000E+00 0. -1.
     999902    2    1    2    0    0 -0.22043096905E-02 -0.18808285194E-01  0.11405304162E-01  0.10218236313E+01  0.10215844762E+01 0.  0.
     999903    2    3    3    0    0  0.71951071502E-01 -0.11019026340E+00  0.86915445531E-02  0.13398521641E+00  0.23614496193E-01 0.  0.
         14    1    1    2    0    0  0.22043096905E-02  0.18808285194E-01 -0.11405304162E-01  0.22106368679E-01  0.00000000000E+00 0. -1.
     999901    1    3    3    0    0 -0.74155381193E-01  0.91381978209E-01  0.27137596087E-02  0.88783841491E+00  0.88000000000E+00 0. -1.
        -11    1    4    4    0    0  0.32663049509E-01 -0.44835719085E-01  0.15006068247E-01  0.57467901600E-01  0.51100000000E-03 0. -1.
         11    1    4    4    0    0  0.39288021993E-01 -0.65354544319E-01 -0.63145236935E-02  0.76517314810E-01  0.51100000000E-03 0.  1.
</event>
<event>
 8    1  0.1143957E+005  0.1043930E+01  0.7957747E-01            NaN
         13   -1    0    0    0    0  0.00000000000E+00  0.00000000000E+00  0.74505805969E-08  0.10566000000E+00  0.10566000000E+00 0.  1.
     999900   -1    0    0    0    0 -0.00000000000E+00 -0.00000000000E+00 -0.74505805969E-08  0.93827000000E+00  0.93827000000E+00 0. -1.
     999902    2    1    2    0    0  0.18257257666E-02 -0.22200527137E-01  0.95400177861E-02  0.10196976122E+01  0.10194096388E+01 0.  0.
     999903    2    3    3    0    0  0.11081485229E+00 -0.68163283207E-01 -0.26402844721E-02  0.13170010971E+00  0.20292440236E-01 0.  0.
         14    1    1    2    0    0 -0.18257257666E-02  0.22200527137E-01 -0.95400177861E-02  0.24232387813E-01  0.00000000000E+00 0. -1.
     999901    1    3    3    0    0 -0.10898912652E+00  0.45962756070E-01  0.12180302258E-01  0.88799750248E+00  0.88000000000E+00 0. -1.
        -11    1    4    4    0    0  0.47563575576E-01 -0.33537512777E-01  0.82132573729E-02  0.58777352803E-01  0.51100000000E-03 0.  1.
         11    1    4    4    0    0  0.63251276709E-01 -0.34625770429E-01 -0.10853541845E-01  0.72922756906E-01  0.51100000000E-03 0. -1.
</event>
<event>
 8    1  0.1143957E+005  0.1043930E+01  0.7957747E-01            NaN
         13   -1    0    0    0    0  0.00000000000E+00  0.00000000000E+00  0.74505805969E-08  0.10566000000E+00  0.10566000000E+00 0. -1.
     999900   -1    0    0    0    0 -0.00000000000E+00 -0.00000000000E+00 -0.74505805969E-08  0.93827000000E+00  0.93827000000E+00 0.  1.
     999902    2    1    2    0    0  0.15775317110E-02 -0.42536028268E-02 -0.29524763796E-01  0.10140587191E+01  0.10136186622E+01 0.  0.
     999903    2    3    3    0    0  0.70679684477E-01  0.62007965282E-01 -0.83891430665E-01  0.12719828063E+00  0.17350069140E-01 0.  0.
         14    1    1    2    0    0 -0.15775317110E-02  0.42536028268E-02  0.29524763796E-01  0.29871280865E-01  0.00000000000E+00 0. -1.
     999901    1    3    3    0    0 -0.69102152766E-01 -0.66261568109E-01  0.54366666869E-01  0.88686043851E+00  0.88000000000E+00 0. -1.
        -11    1    4    4    0    0  0.67048288406E-01  0.51921368050E-01 -0.76020875347E-01  0.11388913929E+00  0.51100000000E-03 0.  1.
         11    1    4    4    0    0  0.36313960710E-02  0.10086597232E-01 -0.78705553180E-02  0.13309141338E-01  0.51100000000E-03 0. -1.
</event>
<event>
 8    1  0.1143957E+005  0.1043930E+01  0.7957747E-01            NaN
         13   -1    0    0    0    0  0.00000000000E+00  0.00000000000E+00  0.74505805969E-08  0.10566000000E+00  0.10566000000E+00 0. -1.
     999900   -1    0    0    0    0 -0.00000000000E+00 -0.00000000000E+00 -0.74505805969E-08  0.93827000000E+00  0.93827000000E+00 0.  1.
     999902    2    1    2    0    0  0.25586175523E-03  0.18965263088E-01 -0.14619355544E-01  0.10199827199E+01  0.10197015625E+01 0.  0.
     999903    2    3    3    0    0 -0.10887168980E+00 -0.40419509306E-01  0.51720768189E-01  0.12878331136E+00  0.20574786753E-01 0.  0.
         14    1    1    2    0    0 -0.25586175523E-03 -0.18965263088E-01  0.14619355544E-01  0.23947280133E-01  0.00000000000E+00 0. -1.
     999901    1    3    3    0    0  0.10912755156E+00  0.59384772394E-01 -0.66340123733E-01  0.89119940850E+00  0.88000000000E+00 0.  1.
        -11    1    4    4    0    0 -0.36591727348E-01 -0.20007550276E-01  0.10097300837E-01  0.42912389627E-01  0.51100000000E-03 0.  1.
         11    1    4    4    0    0 -0.72279962457E-01 -0.20411959030E-01  0.41623467352E-01  0.85870921735E-01  0.51100000000E-03 0. -1.
</event>
<event>
 8    1  0.1143957E+005  0.1043930E+01  0.7957747E-01            NaN
         13   -1    0    0    0    0  0.00000000000E+00  0.00000000000E+00  0.74505805969E-08  0.10566000000E+00  0.10566000000E+00 0.  1.
     999900   -1    0    0    0    0 -0.00000000000E+00 -0.00000000000E+00 -0.74505805969E-08  0.93827000000E+00  0.93827000000E+00 0. -1.
     999902    2    1    2    0    0  0.51270032348E-02  0.10037277632E-01  0.18757252786E-01  0.10220469555E+01  0.10218126597E+01 0.  0.
     999903    2    3    3    0    0 -0.11703171269E+00  0.22541690282E-01  0.55100250975E-01  0.13277763424E+00  0.19731014222E-01 0.  0.
         14    1    1    2    0    0 -0.51270032348E-02 -0.10037277632E-01 -0.18757252786E-01  0.21883044499E-01  0.00000000000E+00 0. -1.
     999901    1    3    3    0    0  0.12215871592E+00 -0.12504412650E-01 -0.36342998188E-01  0.88926932126E+00  0.88000000000E+00 0. -1.
        -11    1    4    4    0    0 -0.82296010724E-01  0.24876023101E-01  0.40070267738E-01  0.94854295548E-01  0.51100000000E-03 0. -1.
         11    1    4    4    0    0 -0.34735701965E-01 -0.23343328187E-02  0.15029983237E-01  0.37923338696E-01  0.51100000000E-03 0.  1.
</event>
<event>
 8    1  0.1143957E+005  0.1043930E+01  0.7957747E-01            NaN
         13   -1    0    0    0    0  0.00000000000E+00  0.00000000000E+00  0.74505805969E-08  0.10566000000E+00  0.10566000000E+00 0.  1.
     999900   -1    0    0    0    0 -0.00000000000E+00 -0.00000000000E+00 -0.74505805969E-08  0.93827000000E+00  0.93827000000E+00 0. -1.
     999902    2    1    2    0    0 -0.84652507481E-02  0.21020163283E-01 -0.23870434866E-02  0.10211439141E+01  0.10208896549E+01 0.  0.
     999903    2    3    3    0    0  0.47424568591E-01  0.41219479566E-02 -0.12062593446E+00  0.13131828121E+00  0.20683199789E-01 0.  0.
         14    1    1    2    0    0  0.84652507481E-02 -0.21020163283E-01  0.23870434866E-02  0.22786085914E-01  0.00000000000E+00 0. -1.
     999901    1    3    3    0    0 -0.55889819339E-01  0.16898215327E-01  0.11823889098E+00  0.88982563288E+00  0.88000000000E+00 0.  1.
        -11    1    4    4    0    0  0.31150302213E-01  0.30551900363E-02 -0.51290515203E-01  0.60088714289E-01  0.51100000000E-03 0. -1.
         11    1    4    4    0    0  0.16274266378E-01  0.10667579203E-02 -0.69335419259E-01  0.71229566919E-01  0.51100000000E-03 0.  1.
</event>
<event>
 8    1  0.1143957E+005  0.1043930E+01  0.7957747E-01            NaN
         13   -1    0    0    0    0  0.00000000000E+00  0.00000000000E+00  0.74505805969E-08  0.10566000000E+00  0.10566000000E+00 0. -1.
     999900   -1    0    0    0    0 -0.00000000000E+00 -0.00000000000E+00 -0.74505805969E-08  0.93827000000E+00  0.93827000000E+00 0.  1.
     999902    2    1    2    0    0 -0.23216693003E-01 -0.48570961775E-02 -0.15406194744E-02  0.10201606978E+01  0.10198837530E+01 0.  0.
     999903    2    3    3    0    0 -0.22236498223E-01 -0.50665575304E-01 -0.11743408029E+00  0.13138025711E+00  0.20212530082E-01 0.  0.
         14    1    1    2    0    0  0.23216693003E-01  0.48570961775E-02  0.15406194744E-02  0.23769302170E-01  0.00000000000E+00 0. -1.
     999901    1    3    3    0    0 -0.98019478076E-03  0.45808479126E-01  0.11589346081E+00  0.88878044072E+00  0.88000000000E+00 0. -1.
        -11    1    4    4    0    0 -0.16077489666E-01 -0.35864687537E-01 -0.59844288898E-01  0.71598613958E-01  0.51100000000E-03 0. -1.
         11    1    4    4    0    0 -0.61590085566E-02 -0.14800887767E-01 -0.57589791389E-01  0.59781643155E-01  0.51100000000E-03 0.  1.
</event>
<event>
 8    1  0.1143957E+005  0.1043930E+01  0.7957747E-01            NaN
         13   -1    0    0    0    0  0.00000000000E+00  0.00000000000E+00  0.74505805969E-08  0.10566000000E+00  0.10566000000E+00 0. -1.
     999900   -1    0    0    0    0 -0.00000000000E+00 -0.00000000000E+00 -0.74505805969E-08  0.93827000000E+00  0.93827000000E+00 0.  1.
     999902    2    1    2    0    0  0.19375315416E-01  0.32580440996E-02  0.11049605674E-01  0.10213886716E+01  0.10211399057E+01 0.  0.
     999903    2    3    3    0    0  0.11795848887E+00 -0.52130848406E-01  0.30148992259E-01  0.13394776765E+00  0.20030283855E-01 0.  0.
         14    1    1    2    0    0 -0.19375315416E-01 -0.32580440996E-02 -0.11049605674E-01  0.22541328363E-01  0.00000000000E+00 0.  1.
     999901    1    3    3    0    0 -0.98583173458E-01  0.55388892505E-01 -0.19099386585E-01  0.88744090399E+00  0.88000000000E+00 0. -1.
        -11    1    4    4    0    0  0.75734228749E-01 -0.31695445603E-01  0.28834883835E-01  0.87017161083E-01  0.51100000000E-03 0. -1.
         11    1    4    4    0    0  0.42224260124E-01 -0.20435402803E-01  0.13141084239E-02  0.46930606567E-01  0.51100000000E-03 0.  1.
</event>
<event>
 8    1  0.1143957E+005  0.1043930E+01  0.7957747E-01            NaN
         13   -1    0    0    0    0  0.00000000000E+00  0.00000000000E+00  0.74505805969E-08  0.10566000000E+00  0.10566000000E+00 0. -1.
     999900   -1    0    0    0    0 -0.00000000000E+00 -0.00000000000E+00 -0.74505805969E-08  0.93827000000E+00  0.93827000000E+00 0. -1.
     999902    2    1    2    0    0 -0.20537090539E-01  0.79391190920E-04  0.12453452135E-01  0.10199119472E+01  0.10196291057E+01 0.  0.
     999903    2    3    3    0    0  0.57230763719E-01 -0.79525090838E-01 -0.80328270955E-01  0.12806377577E+00  0.18657415746E-01 0.  0.
         14    1    1    2    0    0  0.20537090539E-01 -0.79391190920E-04 -0.12453452135E-01  0.24018052811E-01  0.00000000000E+00 0.  1.
     999901    1    3    3    0    0 -0.77767854258E-01  0.79604482029E-01  0.92781723089E-01  0.89184817141E+00  0.88000000000E+00 0.  1.
        -11    1    4    4    0    0  0.30292095778E-01 -0.38392692202E-01 -0.28425650841E-01  0.56567558087E-01  0.51100000000E-03 0.  1.
         11    1    4    4    0    0  0.26938667941E-01 -0.41132398636E-01 -0.51902620114E-01  0.71496217688E-01  0.51100000000E-03 0. -1.
</event>
<event>
 8    1  0.1143957E+005  0.1043930E+01  0.7957747E-01            NaN
         13   -1    0    0    0    0  0.00000000000E+00  0.00000000000E+00  0.74505805969E-08  0.10566000000E+00  0.10566000000E+00 0. -1.
     999900   -1    0    0    0    0 -0.00000000000E+00 -0.00000000000E+00 -0.74505805969E-08  0.93827000000E+00  0.93827000000E+00 0. -1.
     999902    2    1    2    0    0  0.16398018047E-01 -0.84714298619E-03 -0.18079725500E-01  0.10195068732E+01  0.10192142932E+01 0.  0.
     999903    2    3    3    0    0 -0.11412421645E+00  0.17409804319E-01  0.48307340329E-01  0.12721958074E+00  0.22886339307E-01 0.  0.
         14    1    1    2    0    0 -0.16398018047E-01  0.84714298619E-03  0.18079725500E-01  0.24423126771E-01  0.00000000000E+00 0. -1.
     999901    1    3    3    0    0  0.13052223450E+00 -0.18256947305E-01 -0.66387065829E-01  0.89228729249E+00  0.88000000000E+00 0. -1.
        -11    1    4    4    0    0 -0.36965256726E-01 -0.50876080982E-02  0.15488701650E-01  0.40403897841E-01  0.51100000000E-03 0.  1.
         11    1    4    4    0    0 -0.77158959728E-01  0.22497412417E-01  0.32818638679E-01  0.86815682901E-01  0.51100000000E-03 0. -1.
</event>
<event>
 8    1  0.1143957E+005  0.1043930E+01  0.7957747E-01            NaN
         13   -1    0    0    0    0  0.00000000000E+00  0.00000000000E+00  0.74505805969E-08  0.10566000000E+00  0.10566000000E+00 0.  1.
     999900   -1    0    0    0    0 -0.00000000000E+00 -0.00000000000E+00 -0.74505805969E-08  0.93827000000E+00  0.93827000000E+00 0. -1.
     999902    2    1    2    0    0  0.19279753058E-01 -0.17059754235E-01  0.40994586214E-02  0.10178618268E+01  0.10175279597E+01 0.  0.
     999903    2    3    3    0    0 -0.12365234674E+00  0.32849687345E-02 -0.12938153211E-01  0.12593482692E+00  0.19786130269E-01 0.  0.
         14    1    1    2    0    0 -0.19279753058E-01  0.17059754235E-01 -0.40994586214E-02  0.26068173192E-01  0.00000000000E+00 0. -1.
     999901    1    3    3    0    0  0.14293209979E+00 -0.20344722970E-01  0.17037611832E-01  0.89192699988E+00  0.88000000000E+00 0.  1.
        -11    1    4    4    0    0 -0.70615941493E-01  0.92833604738E-02 -0.13804617877E-01  0.72550813713E-01  0.51100000000E-03 0. -1.
         11    1    4    4    0    0 -0.53036405243E-01 -0.59983917393E-02  0.86646466610E-03  0.53384013212E-01  0.51100000000E-03 0.  1.
</event>
<event>
 8    1  0.1972604E+005  0.1043930E+01  0.7957747E-01            NaN
         13   -1    0    0    0    0  0.00000000000E+00  0.00000000000E+00  0.74505805969E-08  0.10566000000E+00  0.10566000000E+00 0. -1.
     999900   -1    0    0    0    0 -0.00000000000E+00 -0.00000000000E+00 -0.74505805969E-08  0.93827000000E+00  0.93827000000E+00 0. -1.
     999902    2    1    2    0    0  0.39545645323E-02  0.21808052519E-01  0.79041345204E-02  0.10203990613E+01  0.10201277073E+01 0.  0.
     999903    2    3    3    0    0  0.15112656621E-01 -0.36357093759E-01  0.12320749667E+00  0.13090338810E+00  0.20134028968E-01 0.  0.
         14    1    1    2    0    0 -0.39545645323E-02 -0.21808052519E-01 -0.79041345204E-02  0.23530938737E-01  0.00000000000E+00 0.  1.
     999901    1    3    3    0    0 -0.11158092089E-01  0.58165146279E-01 -0.11530336215E+00  0.88949567317E+00  0.88000000000E+00 0. -1.
        -11    1    4    4    0    0  0.17036224749E-01 -0.21128668463E-01  0.59973941652E-01  0.65831515120E-01  0.51100000000E-03 0. -1.
         11    1    4    4    0    0 -0.19235681281E-02 -0.15228425296E-01  0.63233555018E-01  0.65071872976E-01  0.51100000000E-03 0.  1.
</event>
<event>
 8    1  0.1143957E+005  0.1043930E+01  0.7957747E-01            NaN
         13   -1    0    0    0    0  0.00000000000E+00  0.00000000000E+00  0.74505805969E-08  0.10566000000E+00  0.10566000000E+00 0.  1.
     999900   -1    0    0    0    0 -0.00000000000E+00 -0.00000000000E+00 -0.74505805969E-08  0.93827000000E+00  0.93827000000E+00 0. -1.
     999902    2    1    2    0    0 -0.16865030184E-01 -0.92090367068E-03  0.71141270311E-03  0.10270248702E+01  0.10268857290E+01 0.  0.
     999903    2    3    3    0    0 -0.39301033514E-01 -0.11137355452E+00 -0.66894723484E-01  0.13726436757E+00  0.20444135941E-01 0.  0.
         14    1    1    2    0    0  0.16865030184E-01  0.92090367068E-03 -0.71141270311E-03  0.16905129834E-01  0.00000000000E+00 0. -1.
     999901    1    3    3    0    0  0.22436003330E-01  0.11045265085E+00  0.67606136187E-01  0.88976050259E+00  0.88000000000E+00 0.  1.
        -11    1    4    4    0    0 -0.23832006892E-01 -0.74024273828E-01 -0.54550915410E-01  0.94992742678E-01  0.51100000000E-03 0.  1.
         11    1    4    4    0    0 -0.15469026622E-01 -0.37349280688E-01 -0.12343808074E-01  0.42271624895E-01  0.51100000000E-03 0. -1.
</event>
<event>
 8    1  0.1143957E+005  0.1043930E+01  0.7957747E-01            NaN
         13   -1    0    0    0    0  0.00000000000E+00  0.00000000000E+00  0.74505805969E-08  0.10566000000E+00  0.10566000000E+00 0. -1.
     999900   -1    0    0    0    0 -0.00000000000E+00 -0.00000000000E+00 -0.74505805969E-08  0.93827000000E+00  0.93827000000E+00 0. -1.
     999902    2    1    2    0    0 -0.49117601072E-02  0.24430579601E-01 -0.32942856778E-02  0.10187937528E+01  0.10184836178E+01 0.  0.
     999903    2    3    3    0    0 -0.12078310155E+00 -0.25996196944E-02  0.42575990338E-01  0.12960261377E+00  0.19718187062E-01 0.  0.
         14    1    1    2    0    0  0.49117601072E-02 -0.24430579601E-01  0.32942856778E-02  0.25136247236E-01  0.00000000000E+00 0. -1.
     999901    1    3    3    0    0  0.11587134144E+00  0.27030199295E-01 -0.45870276016E-01  0.88919113899E+00  0.88000000000E+00 0. -1.
        -11    1    4    4    0    0 -0.46508873961E-01  0.28450959895E-02  0.71967940901E-02  0.47151085825E-01  0.51100000000E-03 0. -1.
         11    1    4    4    0    0 -0.74274227587E-01 -0.54447156838E-02  0.35379196248E-01  0.82451527946E-01  0.51100000000E-03 0.  1.
</event>
<event>
 8    1  0.1143957E+005  0.1043930E+01  0.7957747E-01            NaN
         13   -1    0    0    0    0  0.00000000000E+00  0.00000000000E+00  0.74505805969E-08  0.10566000000E+00  0.10566000000E+00 0.  1.
     999900   -1    0    0    0    0 -0.00000000000E+00 -0.00000000000E+00 -0.74505805969E-08  0.93827000000E+00  0.93827000000E+00 0.  1.
     999902    2    1    2    0    0  0.17583908045E-01  0.58423610570E-02  0.15599312062E-01  0.10197088204E+01  0.10194211165E+01 0.  0.
     999903    2    3    3    0    0  0.76848433810E-01 -0.15007473698E-01 -0.10180470580E+00  0.12969157166E+00  0.18022197159E-01 0.  0.
         14    1    1    2    0    0 -0.17583908045E-01 -0.58423610570E-02 -0.15599312062E-01  0.24221179609E-01  0.00000000000E+00 0. -1.
     999901    1    3    3    0    0 -0.59264525765E-01  0.20849834755E-01  0.11740401787E+00  0.89001724873E+00  0.88000000000E+00 0. -1.
        -11    1    4    4    0    0  0.31253610984E-01  0.70841622878E-03 -0.49472496585E-01  0.58524175282E-01  0.51100000000E-03 0. -1.
         11    1    4    4    0    0  0.45594822826E-01 -0.15715889927E-01 -0.52332209219E-01  0.71167396380E-01  0.51100000000E-03 0.  1.
</event>
<event>
 8    1  0.1143957E+005  0.1043930E+01  0.7957747E-01            NaN
         13   -1    0    0    0    0  0.00000000000E+00  0.00000000000E+00  0.74505805969E-08  0.10566000000E+00  0.10566000000E+00 0.  1.
     999900   -1    0    0    0    0 -0.00000000000E+00 -0.00000000000E+00 -0.74505805969E-08  0.93827000000E+00  0.93827000000E+00 0.  1.
     999902    2    1    2    0    0 -0.22457789569E-01  0.17098051883E-02  0.72159862736E-02  0.10202794989E+01  0.10200053478E+01 0.  0.
     999903    2    3    3    0    0 -0.17514730972E-01  0.85671564415E-03 -0.12734549836E+00  0.13003686074E+00  0.19626753073E-01 0.  0.
         14    1    1    2    0    0  0.22457789569E-01 -0.17098051883E-02 -0.72159862736E-02  0.23650501137E-01  0.00000000000E+00 0. -1.
     999901    1    3    3    0    0 -0.49430585974E-02  0.85308954419E-03  0.13456148463E+00  0.89024263813E+00  0.88000000000E+00 0. -1.
        -11    1    4    4    0    0 -0.81844704636E-02 -0.68605191095E-02 -0.93066551930E-01  0.93678687482E-01  0.51100000000E-03 0. -1.
         11    1    4    4    0    0 -0.93302605082E-02  0.77172347536E-02 -0.34278946427E-01  0.36358173256E-01  0.51100000000E-03 0.  1.
</event>
<event>
 8    1  0.1143957E+005  0.1043930E+01  0.7957747E-01            NaN
         13   -1    0    0    0    0  0.00000000000E+00  0.00000000000E+00  0.74505805969E-08  0.10566000000E+00  0.10566000000E+00 0. -1.
     999900   -1    0    0    0    0 -0.00000000000E+00 -0.00000000000E+00 -0.74505805969E-08  0.93827000000E+00  0.93827000000E+00 0. -1.
     999902    2    1    2    0    0 -0.22154193682E-01  0.62428200524E-02  0.43553474820E-04  0.10209129846E+01  0.10206534863E+01 0.  0.
     999903    2    3    3    0    0  0.97010596236E-01  0.64247052011E-01  0.53018022068E-01  0.12941366752E+00  0.19956131929E-01 0.  0.
         14    1    1    2    0    0  0.22154193682E-01 -0.62428200524E-02 -0.43553474820E-04  0.23017015376E-01  0.00000000000E+00 0.  1.
     999901    1    3    3    0    0 -0.11916478992E+00 -0.58004231958E-01 -0.52974468593E-01  0.89149931711E+00  0.88000000000E+00 0.  1.
        -11    1    4    4    0    0  0.62448996821E-01  0.39740547502E-01  0.23098317490E-01  0.77543418235E-01  0.51100000000E-03 0. -1.
         11    1    4    4    0    0  0.34561599416E-01  0.24506504509E-01  0.29919704578E-01  0.51870249281E-01  0.51100000000E-03 0.  1.
</event>
<event>
 8    1  0.1143957E+005  0.1043930E+01  0.7957747E-01            NaN
         13   -1    0    0    0    0  0.00000000000E+00  0.00000000000E+00  0.74505805969E-08  0.10566000000E+00  0.10566000000E+00 0.  1.
     999900   -1    0    0    0    0 -0.00000000000E+00 -0.00000000000E+00 -0.74505805969E-08  0.93827000000E+00  0.93827000000E+00 0. -1.
     999902    2    1    2    0    0  0.14210150637E-02  0.15793434574E-01 -0.19445388913E-01  0.10188386666E+01  0.10185296528E+01 0.  0.
     999903    2    3    3    0    0  0.29393209324E-02 -0.78353661899E-01 -0.10165952882E+00  0.13000507939E+00  0.20462769299E-01 0.  0.
         14    1    1    2    0    0 -0.14210150637E-02 -0.15793434574E-01  0.19445388913E-01  0.25091333354E-01  0.00000000000E+00 0.  1.
     999901    1    3    3    0    0 -0.15183058687E-02  0.94147096473E-01  0.82214139909E-01  0.88883358725E+00  0.88000000000E+00 0.  1.
        -11    1    4    4    0    0  0.97242821087E-02 -0.41465957177E-01 -0.63787491226E-01  0.76701319578E-01  0.51100000000E-03 0. -1.
         11    1    4    4    0    0 -0.67849611763E-02 -0.36887704722E-01 -0.37872037596E-01  0.53303759816E-01  0.51100000000E-03 0.  1.
</event>
<event>
 8    1  0.1143957E+005  0.1043930E+01  0.7957747E-01            NaN
         13   -1    0    0    0    0  0.00000000000E+00  0.00000000000E+00  0.74505805969E-08  0.10566000000E+00  0.10566000000E+00 0.  1.
     999900   -1    0    0    0    0 -0.00000000000E+00 -0.00000000000E+00 -0.74505805969E-08  0.93827000000E+00  0.93827000000E+00 0. -1.
     999902    2    1    2    0    0 -0.20434021502E-01 -0.22039043020E-02 -0.15712817815E-01  0.10180591849E+01  0.10177304186E+01 0.  0.
     999903    2    3    3    0    0  0.55086836968E-01  0.77210992085E-01 -0.84655513375E-01  0.12858562090E+00  0.19277163986E-01 0.  0.
         14    1    1    2    0    0  0.20434021502E-01  0.22039043020E-02  0.15712817815E-01  0.25870815074E-01  0.00000000000E+00 0.  1.
     999901    1    3    3    0    0 -0.75520858470E-01 -0.79414896387E-01  0.68942695560E-01  0.88947356403E+00  0.88000000000E+00 0. -1.
        -11    1    4    4    0    0  0.31553883679E-01  0.57223160896E-01 -0.63760162794E-01  0.91300368009E-01  0.51100000000E-03 0. -1.
         11    1    4    4    0    0  0.23532953289E-01  0.19987831189E-01 -0.20895350581E-01  0.37285252889E-01  0.51100000000E-03 0.  1.
</event>
<event>
 8    1  0.1143957E+005  0.1043930E+01  0.7957747E-01            NaN
         13   -1    0    0    0    0  0.00000000000E+00  0.00000000000E+00  0.74505805969E-08  0.10566000000E+00  0.10566000000E+00 0.  1.
     999900   -1    0    0    0    0 -0.00000000000E+00 -0.00000000000E+00 -0.74505805969E-08  0.93827000000E+00  0.93827000000E+00 0.  1.
     999902    2    1    2    0    0 -0.52067194585E-02 -0.48066734250E-02 -0.21653044586E-01  0.10211469278E+01  0.10208927367E+01 0.  0.
     999903    2    3    3    0    0  0.12067026492E+00 -0.35975826490E-01 -0.32397178202E-01  0.13157851131E+00  0.20192933267E-01 0.  0.
         14    1    1    2    0    0  0.52067194585E-02  0.48066734250E-02  0.21653044586E-01  0.22783072154E-01  0.00000000000E+00 0.  1.
     999901    1    3    3    0    0 -0.12587698438E+00  0.31169153065E-01  0.10744133616E-01  0.88956841654E+00  0.88000000000E+00 0.  1.
        -11    1    4    4    0    0  0.36205111446E-01 -0.65423207606E-02 -0.18061679529E-01  0.40988991744E-01  0.51100000000E-03 0. -1.
         11    1    4    4    0    0  0.84465153475E-01 -0.29433505730E-01 -0.14335498673E-01  0.90589519561E-01  0.51100000000E-03 0.  1.
</event>
<event>
 8    1  0.1143957E+005  0.1043930E+01  0.7957747E-01            NaN
         13   -1    0    0    0    0  0.00000000000E+00  0.00000000000E+00  0.74505805969E-08  0.10566000000E+00  0.10566000000E+00 0. -1.
     999900   -1    0    0    0    0 -0.00000000000E+00 -0.00000000000E+00 -0.74505805969E-08  0.93827000000E+00  0.93827000000E+00 0.  1.
     999902    2    1    2    0    0 -0.14237673624E-01 -0.18037545777E-01 -0.50504292819E-02  0.10204019052E+01  0.10201306176E+01 0.  0.
     999903    2    3    3    0    0 -0.96198601081E-01 -0.60459065897E-02 -0.89119960236E-01  0.13252292751E+00  0.18144838538E-01 0.  0.
         14    1    1    2    0    0  0.14237673624E-01  0.18037545777E-01  0.50504292819E-02  0.23528094776E-01  0.00000000000E+00 0.  1.
     999901    1    3    3    0    0  0.81960927458E-01 -0.11991639187E-01  0.84069530954E-01  0.88787897772E+00  0.88000000000E+00 0. -1.
        -11    1    4    4    0    0 -0.89063877341E-01 -0.10198090003E-01 -0.83602734400E-01  0.12258080440E+00  0.51100000000E-03 0. -1.
         11    1    4    4    0    0 -0.71347237409E-02  0.41521834133E-02 -0.55172258355E-02  0.99421231071E-02  0.51100000000E-03 0.  1.
</event>
<event>
 8    1  0.1143957E+005  0.1043930E+01  0.7957747E-01            NaN
         13   -1    0    0    0    0  0.00000000000E+00  0.00000000000E+00  0.74505805969E-08  0.10566000000E+00  0.10566000000E+00 0.  1.
     999900   -1    0    0    0    0 -0.00000000000E+00 -0.00000000000E+00 -0.74505805969E-08  0.93827000000E+00  0.93827000000E+00 0.  1.
     999902    2    1    2    0    0 -0.96657840101E-02 -0.17643091256E-01  0.10072641675E-01  0.10214319076E+01  0.10211841057E+01 0.  0.
     999903    2    3    3    0    0 -0.79556744249E-01 -0.91830657779E-01 -0.51111783609E-01  0.13343862205E+00  0.20767911971E-01 0.  0.
         14    1    1    2    0    0  0.96657840101E-02  0.17643091256E-01 -0.10072641675E-01  0.22498092362E-01  0.00000000000E+00 0. -1.
     999901    1    3    3    0    0  0.69890960239E-01  0.74187566523E-01  0.61184425284E-01  0.88799328559E+00  0.88000000000E+00 0. -1.
        -11    1    4    4    0    0 -0.54028342370E-01 -0.51157150589E-01 -0.23434013519E-01  0.78009806731E-01  0.51100000000E-03 0. -1.
         11    1    4    4    0    0 -0.25528401879E-01 -0.40673507190E-01 -0.27677770090E-01  0.55428815320E-01  0.51100000000E-03 0.  1.
</event>
<event>
 8    1  0.1143957E+005  0.1043930E+01  0.7957747E-01            NaN
         13   -1    0    0    0    0  0.00000000000E+00  0.00000000000E+00  0.74505805969E-08  0.10566000000E+00  0.10566000000E+00 0. -1.
     999900   -1    0    0    0    0 -0.00000000000E+00 -0.00000000000E+00 -0.74505805969E-08  0.93827000000E+00  0.93827000000E+00 0.  1.
     999902    2    1    2    0    0 -0.14173994275E-01 -0.58230159464E-02  0.18146644199E-01  0.10201789932E+01  0.10199024796E+01 0.  0.
     999903    2    3    3    0    0 -0.26947654880E-02  0.11781776729E+00 -0.48424185853E-01  0.12897167086E+00  0.20012547548E-01 0.  0.
         14    1    1    2    0    0  0.14173994275E-01  0.58230159464E-02 -0.18146644199E-01  0.23751006802E-01  0.00000000000E+00 0.  1.
     999901    1    3    3    0    0 -0.11479228787E-01 -0.12364078324E+00  0.66570830052E-01  0.89120732234E+00  0.88000000000E+00 0. -1.
        -11    1    4    4    0    0 -0.10361505092E-01  0.66239234157E-01 -0.22389578021E-01  0.70686287598E-01  0.51100000000E-03 0.  1.
         11    1    4    4    0    0  0.76667396040E-02  0.51578533132E-01 -0.26034607832E-01  0.58285383264E-01  0.51100000000E-03 0. -1.
</event>
<event>
 8    1  0.1143957E+005  0.1043930E+01  0.7957747E-01            NaN
         13   -1    0    0    0    0  0.00000000000E+00  0.00000000000E+00  0.74505805969E-08  0.10566000000E+00  0.10566000000E+00 0.  1.
     999900   -1    0    0    0    0 -0.00000000000E+00 -0.00000000000E+00 -0.74505805969E-08  0.93827000000E+00  0.93827000000E+00 0.  1.
     999902    2    1    2    0    0  0.11460243701E-01 -0.19950868520E-01  0.78497028983E-02  0.10196196694E+01  0.10193298180E+01 0.  0.
     999903    2    3    3    0    0 -0.49848292603E-01 -0.99968247451E-01 -0.66341514021E-01  0.13076318250E+00  0.14809140479E-01 0.  0.
         14    1    1    2    0    0 -0.11460243701E-01  0.19950868520E-01 -0.78497028983E-02  0.24310330643E-01  0.00000000000E+00 0.  1.
     999901    1    3    3    0    0  0.61308536304E-01  0.80017378930E-01  0.74191216919E-01  0.88885648685E+00  0.88000000000E+00 0. -1.
        -11    1    4    4    0    0 -0.26117303484E-01 -0.47924133759E-01 -0.24151899354E-01  0.59685940566E-01  0.51100000000E-03 0.  1.
         11    1    4    4    0    0 -0.23730989119E-01 -0.52044113692E-01 -0.42189614667E-01  0.71077241936E-01  0.51100000000E-03 0. -1.
</event>
<event>
 8    1  0.1143957E+005  0.1043930E+01  0.7957747E-01            NaN
         13   -1    0    0    0    0  0.00000000000E+00  0.00000000000E+00  0.74505805969E-08  0.10566000000E+00  0.10566000000E+00 0.  1.
     999900   -1    0    0    0    0 -0.00000000000E+00 -0.00000000000E+00 -0.74505805969E-08  0.93827000000E+00  0.93827000000E+00 0.  1.
     999902    2    1    2    0    0  0.65813457223E-02 -0.20707590669E-01  0.78444420552E-02  0.10208290543E+01  0.10205676383E+01 0.  0.
     999903    2    3    3    0    0  0.24915882457E-01  0.12421136283E+00 -0.61215259407E-02  0.12867844669E+00  0.21711879442E-01 0.  0.
         14    1    1    2    0    0 -0.65813457223E-02  0.20707590669E-01 -0.78444420552E-02  0.23100945738E-01  0.00000000000E+00 0. -1.
     999901    1    3    3    0    0 -0.18334536735E-01 -0.14491895350E+00  0.13965967996E-01  0.89215060757E+00  0.88000000000E+00 0.  1.
        -11    1    4    4    0    0  0.10700284270E-01  0.53801220727E-01  0.80981820951E-02  0.55451862993E-01  0.51100000000E-03 0. -1.
         11    1    4    4    0    0  0.14215598188E-01  0.70410142104E-01 -0.14219708036E-01  0.73226583702E-01  0.51100000000E-03 0.  1.
</event>
<event>
 8    1  0.1143957E+005  0.1043930E+01  0.7957747E-01            NaN
         13   -1    0    0    0    0  0.00000000000E+00  0.00000000000E+00  0.74505805969E-08  0.10566000000E+00  0.10566000000E+00 0.  1.
     999900   -1    0    0    0    0 -0.00000000000E+00 -0.00000000000E+00 -0.74505805969E-08  0.93827000000E+00  0.93827000000E+00 0.  1.
     999902    2    1    2    0    0 -0.27625092153E-02 -0.82778918343E-02  0.24285927720E-01  0.10181237753E+01  0.10177966695E+01 0.  0.
     999903    2    3    3    0    0 -0.11606218286E+00 -0.54289740616E-01 -0.56282796086E-02  0.12916440269E+00  0.15295723711E-01 0.  0.
         14    1    1    2    0    0  0.27625092153E-02  0.82778918343E-02 -0.24285927720E-01  0.25806224745E-01  0.00000000000E+00 0. -1.
     999901    1    3    3    0    0  0.11329967364E+00  0.46011848782E-01  0.29914207328E-01  0.88895937257E+00  0.88000000000E+00 0. -1.
        -11    1    4    4    0    0 -0.41653841920E-01 -0.27145500798E-01 -0.48158421818E-02  0.49953720754E-01  0.51100000000E-03 0.  1.
         11    1    4    4    0    0 -0.74408340940E-01 -0.27144239818E-01 -0.81243742680E-03  0.79210681933E-01  0.51100000000E-03 0. -1.
</event>
<event>
 8    1  0.1143957E+005  0.1043930E+01  0.7957747E-01            NaN
         13   -1    0    0    0    0  0.00000000000E+00  0.00000000000E+00  0.74505805969E-08  0.10566000000E+00  0.10566000000E+00 0. -1.
     999900   -1    0    0    0    0 -0.00000000000E+00 -0.00000000000E+00 -0.74505805969E-08  0.93827000000E+00  0.93827000000E+00 0.  1.
     999902    2    1    2    0    0 -0.13957090300E-01  0.88212329665E-02  0.16323164819E-01  0.10207123294E+01  0.10204482344E+01 0.  0.
     999903    2    3    3    0    0 -0.11156057380E+00  0.42521300417E-01  0.57120547154E-01  0.13373625248E+00  0.19204314756E-01 0.  0.
         14    1    1    2    0    0  0.13957090300E-01 -0.88212329665E-02 -0.16323164819E-01  0.23217670649E-01  0.00000000000E+00 0.  1.
     999901    1    3    3    0    0  0.97603483496E-01 -0.33700067451E-01 -0.40797382335E-01  0.88697607687E+00  0.88000000000E+00 0.  1.
        -11    1    4    4    0    0 -0.63743247894E-01  0.17356196662E-01  0.39121100516E-01  0.76779950777E-01  0.51100000000E-03 0.  1.
         11    1    4    4    0    0 -0.47817325901E-01  0.25165103755E-01  0.17999446638E-01  0.56956301703E-01  0.51100000000E-03 0. -1.
</event>
<event>
 8    1  0.1143957E+005  0.1043930E+01  0.7957747E-01            NaN
         13   -1    0    0    0    0  0.00000000000E+00  0.00000000000E+00  0.74505805969E-08  0.10566000000E+00  0.10566000000E+00 0.  1.
     999900   -1    0    0    0    0 -0.00000000000E+00 -0.00000000000E+00 -0.74505805969E-08  0.93827000000E+00  0.93827000000E+00 0. -1.
     999902    2    1    2    0    0 -0.21026521409E-01  0.53219250557E-02  0.91067982041E-02  0.10204061555E+01  0.10201349670E+01 0.  0.
     999903    2    3    3    0    0 -0.11638209507E+00 -0.60648297734E-01 -0.12476168617E-03  0.13275195621E+00  0.20001456008E-01 0.  0.
         14    1    1    2    0    0  0.21026521409E-01 -0.53219250557E-02 -0.91067982041E-02  0.23523844550E-01  0.00000000000E+00 0. -1.
     999901    1    3    3    0    0  0.95355573661E-01  0.65970222789E-01  0.92315598903E-02  0.88765419924E+00  0.88000000000E+00 0.  1.
        -11    1    4    4    0    0 -0.36070701482E-01 -0.27771838847E-01 -0.51995423705E-02  0.45822122389E-01  0.51100000000E-03 0. -1.
         11    1    4    4    0    0 -0.80311393588E-01 -0.32876458886E-01  0.50747806843E-02  0.86929833826E-01  0.51100000000E-03 0.  1.
</event>
<event>
 8    1  0.1143957E+005  0.1043930E+01  0.7957747E-01            NaN
         13   -1    0    0    0    0  0.00000000000E+00  0.00000000000E+00  0.74505805969E-08  0.10566000000E+00  0.10566000000E+00 0.  1.
     999900   -1    0    0    0    0 -0.00000000000E+00 -0.00000000000E+00 -0.74505805969E-08  0.93827000000E+00  0.93827000000E+00 0. -1.
     999902    2    1    2    0    0  0.14068772292E-01  0.12924678030E-01  0.14497011110E-01  0.10199479028E+01  0.10196659175E+01 0.  0.
     999903    2    3    3    0    0 -0.10216469724E+00 -0.18896106102E-01  0.75554221671E-01  0.12963853817E+00  0.17407526490E-01 0.  0.
         14    1    1    2    0    0 -0.14068772292E-01 -0.12924678030E-01 -0.14497011110E-01  0.23982097221E-01  0.00000000000E+00 0. -1.
     999901    1    3    3    0    0  0.11623346954E+00  0.31820784132E-01 -0.61057210561E-01  0.89030936461E+00  0.88000000000E+00 0. -1.
        -11    1    4    4    0    0 -0.93409431650E-01 -0.21238904657E-01  0.72218231294E-01  0.11996727489E+00  0.51100000000E-03 0.  1.
         11    1    4    4    0    0 -0.87552655949E-02  0.23427985552E-02  0.33359903765E-02  0.96712632836E-02  0.51100000000E-03 0. -1.
</event>
<event>
 8    1  0.1143957E+005  0.1043930E+01  0.7957747E-01            NaN
         13   -1    0    0    0    0  0.00000000000E+00  0.00000000000E+00  0.74505805969E-08  0.10566000000E+00  0.10566000000E+00 0.  1.
     999900   -1    0    0    0    0 -0.00000000000E+00 -0.00000000000E+00 -0.74505805969E-08  0.93827000000E+00  0.93827000000E+00 0. -1.
     999902    2    1    2    0    0  0.20722140909E-01 -0.74193390130E-03 -0.12123526740E-01  0.10199104769E+01  0.10196276003E+01 0.  0.
     999903    2    3    3    0    0  0.14934855147E-01  0.12184585322E+00  0.37966061542E-01  0.12998338714E+00  0.19616249843E-01 0.  0.
         14    1    1    2    0    0 -0.20722140909E-01  0.74193390130E-03  0.12123526740E-01  0.24019523109E-01  0.00000000000E+00 0.  1.
     999901    1    3    3    0    0  0.57872857612E-02 -0.12258778712E+00 -0.50089588282E-01  0.88992708976E+00  0.88000000000E+00 0. -1.
        -11    1    4    4    0    0  0.14279944149E-01  0.96887487835E-01  0.37894162827E-01  0.10501109847E+00  0.51100000000E-03 0. -1.
         11    1    4    4    0    0  0.65491099810E-03  0.24958365382E-01  0.71898715513E-04  0.24972288669E-01  0.51100000000E-03 0.  1.
</event>
<event>
 8    1  0.1143957E+005  0.1043930E+01  0.7957747E-01            NaN
         13   -1    0    0    0    0  0.00000000000E+00  0.00000000000E+00  0.74505805969E-08  0.10566000000E+00  0.10566000000E+00 0.  1.
     999900   -1    0    0    0    0 -0.00000000000E+00 -0.00000000000E+00 -0.74505805969E-08  0.93827000000E+00  0.93827000000E+00 0. -1.
     999902    2    1    2    0    0 -0.21198995015E-01 -0.10725603572E-01 -0.10681939190E-02  0.10201481372E+01  0.10198708961E+01 0.  0.
     999903    2    3    3    0    0 -0.87991407740E-01 -0.72094765265E-01  0.65832295691E-01  0.13295983927E+00  0.20106831909E-01 0.  0.
         14    1    1    2    0    0  0.21198995015E-01  0.10725603572E-01  0.10681939190E-02  0.23781862834E-01  0.00000000000E+00 0.  1.
     999901    1    3    3    0    0  0.66792412725E-01  0.61369161693E-01 -0.66900489610E-01  0.88718829789E+00  0.88000000000E+00 0. -1.
        -11    1    4    4    0    0 -0.38136815659E-01 -0.18752599039E-01  0.24641489968E-01  0.49127800970E-01  0.51100000000E-03 0.  1.
         11    1    4    4    0    0 -0.49854592081E-01 -0.53342166226E-01  0.41190805723E-01  0.83832038305E-01  0.51100000000E-03 0. -1.
</event>
<event>
 8    1  0.1143957E+005  0.1043930E+01  0.7957747E-01            NaN
         13   -1    0    0    0    0  0.00000000000E+00  0.00000000000E+00  0.74505805969E-08  0.10566000000E+00  0.10566000000E+00 0.  1.
     999900   -1    0    0    0    0 -0.00000000000E+00 -0.00000000000E+00 -0.74505805969E-08  0.93827000000E+00  0.93827000000E+00 0.  1.
     999902    2    1    2    0    0  0.62452848763E-02  0.25622171863E-01  0.56808589992E-02  0.10169527608E+01  0.10165948782E+01 0.  0.
     999903    2    3    3    0    0 -0.11896300630E+00 -0.29793082834E-01 -0.20681913203E-01  0.12597410655E+00  0.20047676507E-01 0.  0.
         14    1    1    2    0    0 -0.62452848763E-02 -0.25622171863E-01 -0.56808589992E-02  0.26977239168E-01  0.00000000000E+00 0. -1.
     999901    1    3    3    0    0  0.12520829118E+00  0.55415254697E-01  0.26362772202E-01  0.89097865428E+00  0.88000000000E+00 0. -1.
        -11    1    4    4    0    0 -0.72870802294E-01 -0.16304091165E-01 -0.22255625558E-01  0.77920159174E-01  0.51100000000E-03 0.  1.
         11    1    4    4    0    0 -0.46092204008E-01 -0.13488991669E-01  0.15737123543E-02  0.48053947373E-01  0.51100000000E-03 0. -1.
</event>
<event>
 8    1  0.1143957E+005  0.1043930E+01  0.7957747E-01            NaN
         13   -1    0    0    0    0  0.00000000000E+00  0.00000000000E+00  0.74505805969E-08  0.10566000000E+00  0.10566000000E+00 0.  1.
     999900   -1    0    0    0    0 -0.00000000000E+00 -0.00000000000E+00 -0.74505805969E-08  0.93827000000E+00  0.93827000000E+00 0. -1.
     999902    2    1    2    0    0 -0.14163013744E-01  0.24335994120E-02 -0.73373167352E-02  0.10277946481E+01  0.10276679858E+01 0.  0.
     999903    2    3    3    0    0 -0.23665795612E-01 -0.87489035999E-01  0.10026522958E+00  0.13664107479E+00  0.20081477953E-01 0.  0.
         14    1    1    2    0    0  0.14163013744E-01 -0.24335994120E-02  0.73373167352E-02  0.16135351911E-01  0.00000000000E+00 0. -1.
     999901    1    3    3    0    0  0.95027818685E-02  0.89922635411E-01 -0.10760254631E+00  0.89115357329E+00  0.88000000000E+00 0. -1.
        -11    1    4    4    0    0 -0.19491600441E-01 -0.59724851001E-01  0.55678256964E-01  0.83948256292E-01  0.51100000000E-03 0. -1.
         11    1    4    4    0    0 -0.41741951709E-02 -0.27764184998E-01  0.44586972614E-01  0.52692818503E-01  0.51100000000E-03 0.  1.
</event>
<event>
 8    1  0.1143957E+005  0.1043930E+01  0.7957747E-01            NaN
         13   -1    0    0    0    0  0.00000000000E+00  0.00000000000E+00  0.74505805969E-08  0.10566000000E+00  0.10566000000E+00 0.  1.
     999900   -1    0    0    0    0 -0.00000000000E+00 -0.00000000000E+00 -0.74505805969E-08  0.93827000000E+00  0.93827000000E+00 0. -1.
     999902    2    1    2    0    0  0.16475054772E-01 -0.10161862830E-01  0.79457446356E-02  0.10230057140E+01  0.10227917018E+01 0.  0.
     999903    2    3    3    0    0  0.11500285456E+00  0.66168582153E-01 -0.39629505833E-02  0.13414358681E+00  0.19361277969E-01 0.  0.
         14    1    1    2    0    0 -0.16475054772E-01  0.10161862830E-01 -0.79457446356E-02  0.20924285979E-01  0.00000000000E+00 0.  1.
     999901    1    3    3    0    0 -0.98527799789E-01 -0.76330444984E-01  0.11908695219E-01  0.88886212721E+00  0.88000000000E+00 0. -1.
        -11    1    4    4    0    0  0.41624280374E-01  0.24098733597E-01  0.78565350600E-02  0.48737213110E-01  0.51100000000E-03 0. -1.
         11    1    4    4    0    0  0.73378574187E-01  0.42069848556E-01 -0.11819485643E-01  0.85406373703E-01  0.51100000000E-03 0.  1.
</event>
<event>
 8    1  0.1143957E+005  0.1043930E+01  0.7957747E-01            NaN
         13   -1    0    0    0    0  0.00000000000E+00  0.00000000000E+00  0.74505805969E-08  0.10566000000E+00  0.10566000000E+00 0. -1.
     999900   -1    0    0    0    0 -0.00000000000E+00 -0.00000000000E+00 -0.74505805969E-08  0.93827000000E+00  0.93827000000E+00 0.  1.
     999902    2    1    2    0    0 -0.17333630711E-01 -0.16266500438E-01 -0.60607025573E-03  0.10201514149E+01  0.10198742511E+01 0.  0.
     999903    2    3    3    0    0 -0.11167781045E+00  0.65138558551E-01  0.15488104519E-01  0.13122699156E+00  0.16299594323E-01 0.  0.
         14    1    1    2    0    0  0.17333630711E-01  0.16266500438E-01  0.60607025573E-03  0.23778585140E-01  0.00000000000E+00 0. -1.
     999901    1    3    3    0    0  0.94344179738E-01 -0.81405058989E-01 -0.16094174775E-01  0.88892442330E+00  0.88000000000E+00 0. -1.
        -11    1    4    4    0    0 -0.17734139266E-01  0.57311482269E-02  0.63641363371E-02  0.19700484964E-01  0.51100000000E-03 0.  1.
         11    1    4    4    0    0 -0.93943671183E-01  0.59407410324E-01  0.91239681823E-02  0.11152650659E+00  0.51100000000E-03 0. -1.
</event>
<event>
 8    1  0.1143957E+005  0.1043930E+01  0.7957747E-01            NaN
         13   -1    0    0    0    0  0.00000000000E+00  0.00000000000E+00  0.74505805969E-08  0.10566000000E+00  0.10566000000E+00 0.  1.
     999900   -1    0    0    0    0 -0.00000000000E+00 -0.00000000000E+00 -0.74505805969E-08  0.93827000000E+00  0.93827000000E+00 0.  1.
     999902    2    1    2    0    0 -0.10501120205E-01 -0.16032782546E-01 -0.13495882427E-01  0.10204893839E+01  0.10202201332E+01 0.  0.
     999903    2    3    3    0    0 -0.14538825631E-01 -0.12647987814E+00  0.31516933086E-01  0.13243475856E+00  0.18360587642E-01 0.  0.
         14    1    1    2    0    0  0.10501120205E-01  0.16032782546E-01  0.13495882427E-01  0.23440616123E-01  0.00000000000E+00 0.  1.
     999901    1    3    3    0    0  0.40377054260E-02  0.11044709559E+00 -0.45012815513E-01  0.88805462532E+00  0.88000000000E+00 0. -1.
        -11    1    4    4    0    0 -0.17004947690E-01 -0.75073638496E-01  0.15400906557E-01  0.78502665475E-01  0.51100000000E-03 0.  1.
         11    1    4    4    0    0  0.24661220595E-02 -0.51406239642E-01  0.16116026530E-01  0.53932093083E-01  0.51100000000E-03 0. -1.
</event>
<event>
 8    1  0.1143957E+005  0.1043930E+01  0.7957747E-01            NaN
         13   -1    0    0    0    0  0.00000000000E+00  0.00000000000E+00  0.74505805969E-08  0.10566000000E+00  0.10566000000E+00 0. -1.
     999900   -1    0    0    0    0 -0.00000000000E+00 -0.00000000000E+00 -0.74505805969E-08  0.93827000000E+00  0.93827000000E+00 0.  1.
     999902    2    1    2    0    0  0.18088479449E-01 -0.11061596929E-01  0.10135395509E-01  0.10204293988E+01  0.10201587522E+01 0.  0.
     999903    2    3    3    0    0  0.33505466600E-01 -0.12542096735E+00  0.20389416031E-01  0.13283664643E+00  0.19411620393E-01 0.  0.
         14    1    1    2    0    0 -0.18088479449E-01  0.11061596929E-01 -0.10135395509E-01  0.23500601217E-01  0.00000000000E+00 0.  1.
     999901    1    3    3    0    0 -0.15416987151E-01  0.11435937042E+00 -0.10254020522E-01  0.88759275235E+00  0.88000000000E+00 0. -1.
        -11    1    4    4    0    0  0.31156008579E-01 -0.11328486798E+00  0.12481583192E-01  0.11815332930E+00  0.51100000000E-03 0.  1.
         11    1    4    4    0    0  0.23494580217E-02 -0.12136099367E-01  0.79078328387E-02  0.14683317134E-01  0.51100000000E-03 0. -1.
</event>
<event>
 8    1  0.1143957E+005  0.1043930E+01  0.7957747E-01            NaN
         13   -1    0    0    0    0  0.00000000000E+00  0.00000000000E+00  0.74505805969E-08  0.10566000000E+00  0.10566000000E+00 0.  1.
     999900   -1    0    0    0    0 -0.00000000000E+00 -0.00000000000E+00 -0.74505805969E-08  0.93827000000E+00  0.93827000000E+00 0. -1.
     999902    2    1    2    0    0 -0.16625131306E-01 -0.75356323435E-02  0.15042131300E-01  0.10202773794E+01  0.10200031787E+01 0.  0.
     999903    2    3    3    0    0  0.11114541839E+00 -0.36376682212E-01  0.52290385602E-01  0.12980303843E+00  0.20927907745E-01 0.  0.
         14    1    1    2    0    0  0.16625131306E-01  0.75356323435E-02 -0.15042131300E-01  0.23652620570E-01  0.00000000000E+00 0. -1.
     999901    1    3    3    0    0 -0.12777054969E+00  0.28841049869E-01 -0.37248254302E-01  0.89047434100E+00  0.88000000000E+00 0.  1.
        -11    1    4    4    0    0  0.70952952734E-01 -0.32590221488E-01  0.29701134698E-01  0.83539586794E-01  0.51100000000E-03 0.  1.
         11    1    4    4    0    0  0.40192465654E-01 -0.37864607242E-02  0.22589250904E-01  0.46263451639E-01  0.51100000000E-03 0. -1.
</event>
<event>
 8    1  0.1143957E+005  0.1043930E+01  0.7957747E-01            NaN
         13   -1    0    0    0    0  0.00000000000E+00  0.00000000000E+00  0.74505805969E-08  0.10566000000E+00  0.10566000000E+00 0.  1.
     999900   -1    0    0    0    0 -0.00000000000E+00 -0.00000000000E+00 -0.74505805969E-08  0.93827000000E+00  0.93827000000E+00 0.  1.
     999902    2    1    2    0    0 -0.66669735453E-02 -0.57749536575E-02  0.23501369415E-01  0.10188279485E+01  0.10185186673E+01 0.  0.
     999903    2    3    3    0    0  0.15616310997E-01  0.89170324011E-01 -0.86318267025E-01  0.12665559794E+00  0.19889228602E-01 0.  0.
         14    1    1    2    0    0  0.66669735453E-02  0.57749536575E-02 -0.23501369415E-01  0.25102051517E-01  0.00000000000E+00 0. -1.
     999901    1    3    3    0    0 -0.22283284543E-01 -0.94945277669E-01  0.10981963644E+00  0.89217235054E+00  0.88000000000E+00 0. -1.
        -11    1    4    4    0    0  0.97387310459E-02  0.28287021714E-01 -0.17839088180E-01  0.34835221658E-01  0.51100000000E-03 0.  1.
         11    1    4    4    0    0  0.58775799515E-02  0.60883302297E-01 -0.68479178845E-01  0.91820376284E-01  0.51100000000E-03 0. -1.
</event>
<event>
 8    1  0.1143957E+005  0.1043930E+01  0.7957747E-01            NaN
         13   -1    0    0    0    0  0.00000000000E+00  0.00000000000E+00  0.74505805969E-08  0.10566000000E+00  0.10566000000E+00 0. -1.
     999900   -1    0    0    0    0 -0.00000000000E+00 -0.00000000000E+00 -0.74505805969E-08  0.93827000000E+00  0.93827000000E+00 0.  1.
     999902    2    1    2    0    0  0.37654267791E-02 -0.27161962525E-02  0.12378926456E-01  0.10307090325E+01  0.10306242360E+01 0.  0.
     999903    2    3    3    0    0  0.41120282717E-01  0.13204783495E+00 -0.95412367584E-03  0.13956678821E+00  0.18720834774E-01 0.  0.
         14    1    1    2    0    0 -0.37654267791E-02  0.27161962525E-02 -0.12378926456E-01  0.13220967480E-01  0.00000000000E+00 0.  1.
     999901    1    3    3    0    0 -0.37354855938E-01 -0.13476403120E+00  0.13333050132E-01  0.89114224431E+00  0.88000000000E+00 0.  1.
        -11    1    4    4    0    0  0.79652905721E-02  0.14393675427E-01  0.49497314273E-02  0.17186759683E-01  0.51100000000E-03 0.  1.
         11    1    4    4    0    0  0.33154992145E-01  0.11765415952E+00 -0.59038551031E-02  0.12238002853E+00  0.51100000000E-03 0. -1.
</event>
<event>
 8    1  0.1143957E+005  0.1043930E+01  0.7957747E-01            NaN
         13   -1    0    0    0    0  0.00000000000E+00  0.00000000000E+00  0.74505805969E-08  0.10566000000E+00  0.10566000000E+00 0.  1.
     999900   -1    0    0    0    0 -0.00000000000E+00 -0.00000000000E+00 -0.74505805969E-08  0.93827000000E+00  0.93827000000E+00 0.  1.
     999902    2    1    2    0    0  0.23223605170E-01 -0.50781286716E-02  0.26625801608E-02  0.10200090351E+01  0.10197285027E+01 0.  0.
     999903    2    3    3    0    0  0.10722973672E+00  0.40629289644E-01  0.63619481755E-01  0.13273120823E+00  0.20522659799E-01 0.  0.
         14    1    1    2    0    0 -0.23223605170E-01  0.50781286716E-02 -0.26625801608E-02  0.23920964884E-01  0.00000000000E+00 0. -1.
     999901    1    3    3    0    0 -0.84006131553E-01 -0.45707418316E-01 -0.60956901594E-01  0.88727782688E+00  0.88000000000E+00 0.  1.
        -11    1    4    4    0    0  0.69443507748E-01  0.30773969210E-01  0.51757180876E-01  0.91915748609E-01  0.51100000000E-03 0.  1.
         11    1    4    4    0    0  0.37786228975E-01  0.98553204341E-02  0.11862300880E-01  0.40815459622E-01  0.51100000000E-03 0. -1.
</event>
<event>
 8    1  0.1143957E+005  0.1043930E+01  0.7957747E-01            NaN
         13   -1    0    0    0    0  0.00000000000E+00  0.00000000000E+00  0.74505805969E-08  0.10566000000E+00  0.10566000000E+00 0.  1.
     999900   -1    0    0    0    0 -0.00000000000E+00 -0.00000000000E+00 -0.74505805969E-08  0.93827000000E+00  0.93827000000E+00 0.  1.
     999902    2    1    2    0    0  0.18396694850E-01  0.14102788795E-01 -0.54517278749E-03  0.10207432743E+01  0.10204798910E+01 0.  0.
     999903    2    3    3    0    0  0.26119313287E-01 -0.50395121110E-02  0.12699806288E+00  0.13130899151E+00  0.20147656650E-01 0.  0.
         14    1    1    2    0    0 -0.18396694850E-01 -0.14102788795E-01  0.54517278749E-03  0.23186725654E-01  0.00000000000E+00 0.  1.
     999901    1    3    3    0    0 -0.77226184375E-02  0.19142300906E-01 -0.12754323566E+00  0.88943428284E+00  0.88000000000E+00 0.  1.
        -11    1    4    4    0    0  0.52180869820E-02 -0.82470857210E-02  0.20241787205E-01  0.22477409212E-01  0.51100000000E-03 0.  1.
         11    1    4    4    0    0  0.20901226305E-01  0.32075736101E-02  0.10675627567E+00  0.10883158230E+00  0.51100000000E-03 0. -1.
</event>
<event>
 8    1  0.1143957E+005  0.1043930E+01  0.7957747E-01            NaN
         13   -1    0    0    0    0  0.00000000000E+00  0.00000000000E+00  0.74505805969E-08  0.10566000000E+00  0.10566000000E+00 0. -1.
     999900   -1    0    0    0    0 -0.00000000000E+00 -0.00000000000E+00 -0.74505805969E-08  0.93827000000E+00  0.93827000000E+00 0. -1.
     999902    2    1    2    0    0 -0.54365674344E-02 -0.20900912521E-01  0.95783443502E-02  0.10203048208E+01  0.10200312634E+01 0.  0.
     999903    2    3    3    0    0 -0.79544014236E-01 -0.10471286693E+00  0.46409235525E-02  0.13320801919E+00  0.20755806512E-01 0.  0.
         14    1    1    2    0    0  0.54365674344E-02  0.20900912521E-01 -0.95783443502E-02  0.23625179156E-01  0.00000000000E+00 0.  1.
     999901    1    3    3    0    0  0.74107446802E-01  0.83811954412E-01  0.49374207977E-02  0.88709680165E+00  0.88000000000E+00 0.  1.
        -11    1    4    4    0    0 -0.49966161763E-01 -0.50200421502E-01  0.67410650088E-02  0.71150563727E-01  0.51100000000E-03 0. -1.
         11    1    4    4    0    0 -0.29577852473E-01 -0.54512445431E-01 -0.21001414563E-02  0.62057455466E-01  0.51100000000E-03 0.  1.
</event>
<event>
 8    1  0.1143957E+005  0.1043930E+01  0.7957747E-01            NaN
         13   -1    0    0    0    0  0.00000000000E+00  0.00000000000E+00  0.74505805969E-08  0.10566000000E+00  0.10566000000E+00 0. -1.
     999900   -1    0    0    0    0 -0.00000000000E+00 -0.00000000000E+00 -0.74505805969E-08  0.93827000000E+00  0.93827000000E+00 0.  1.
     999902    2    1    2    0    0 -0.14195134031E-01 -0.85613595400E-02 -0.17439845833E-01  0.10198686840E+01  0.10195848104E+01 0.  0.
     999903    2    3    3    0    0  0.83337355003E-01 -0.75595883278E-01 -0.63665155026E-01  0.13074383726E+00  0.19515294260E-01 0.  0.
         14    1    1    2    0    0  0.14195134031E-01  0.85613595400E-02  0.17439845833E-01  0.24061316049E-01  0.00000000000E+00 0.  1.
     999901    1    3    3    0    0 -0.97532489034E-01  0.67034523738E-01  0.46225309193E-01  0.88912484669E+00  0.88000000000E+00 0. -1.
        -11    1    4    4    0    0  0.20505243004E-02 -0.81421983030E-02 -0.29919570404E-02  0.89282120856E-02  0.51100000000E-03 0. -1.
         11    1    4    4    0    0  0.81286830703E-01 -0.67453684975E-01 -0.60673197985E-01  0.12181562518E+00  0.51100000000E-03 0.  1.
</event>
<event>
 8    1  0.1143957E+005  0.1043930E+01  0.7957747E-01            NaN
         13   -1    0    0    0    0  0.00000000000E+00  0.00000000000E+00  0.74505805969E-08  0.10566000000E+00  0.10566000000E+00 0.  1.
     999900   -1    0    0    0    0 -0.00000000000E+00 -0.00000000000E+00 -0.74505805969E-08  0.93827000000E+00  0.93827000000E+00 0. -1.
     999902    2    1    2    0    0  0.18106560055E-01 -0.21672049737E-01  0.10570718866E-01  0.10137759728E+01  0.10133274188E+01 0.  0.
     999903    2    3    3    0    0 -0.59918175120E-01 -0.57739835608E-01 -0.89648773114E-01  0.12392615908E+00  0.19917682017E-01 0.  0.
         14    1    1    2    0    0 -0.18106560055E-01  0.21672049737E-01 -0.10570718866E-01  0.30154027163E-01  0.00000000000E+00 0.  1.
     999901    1    3    3    0    0  0.78024735175E-01  0.36067785871E-01  0.10021949198E+00  0.88984981376E+00  0.88000000000E+00 0.  1.
        -11    1    4    4    0    0 -0.39441981150E-01 -0.47290287389E-01 -0.73177937123E-01  0.95641584894E-01  0.51100000000E-03 0. -1.
         11    1    4    4    0    0 -0.20476193970E-01 -0.10449548219E-01 -0.16470835990E-01  0.28284574183E-01  0.51100000000E-03 0.  1.
</event>
<event>
 8    1  0.1143957E+005  0.1043930E+01  0.7957747E-01            NaN
         13   -1    0    0    0    0  0.00000000000E+00  0.00000000000E+00  0.74505805969E-08  0.10566000000E+00  0.10566000000E+00 0.  1.
     999900   -1    0    0    0    0 -0.00000000000E+00 -0.00000000000E+00 -0.74505805969E-08  0.93827000000E+00  0.93827000000E+00 0. -1.
     999902    2    1    2    0    0 -0.14166604243E-01 -0.15797108472E-01 -0.12540342903E-01  0.10192824542E+01  0.10189844062E+01 0.  0.
     999903    2    3    3    0    0 -0.67132203849E-01  0.75257513272E-01  0.76735428092E-01  0.12851510966E+00  0.21386476781E-01 0.  0.
         14    1    1    2    0    0  0.14166604243E-01  0.15797108472E-01  0.12540342903E-01  0.24647545760E-01  0.00000000000E+00 0.  1.
     999901    1    3    3    0    0  0.52965599606E-01 -0.91054621744E-01 -0.89275770995E-01  0.89076734458E+00  0.88000000000E+00 0. -1.
        -11    1    4    4    0    0 -0.23543177740E-01  0.15235923726E-01  0.13924883623E-01  0.31314183604E-01  0.51100000000E-03 0.  1.
         11    1    4    4    0    0 -0.43589026109E-01  0.60021589546E-01  0.62810544469E-01  0.97200926057E-01  0.51100000000E-03 0. -1.
</event>
<event>
 8    1  0.1143957E+005  0.1043930E+01  0.7957747E-01            NaN
         13   -1    0    0    0    0  0.00000000000E+00  0.00000000000E+00  0.74505805969E-08  0.10566000000E+00  0.10566000000E+00 0. -1.
     999900   -1    0    0    0    0 -0.00000000000E+00 -0.00000000000E+00 -0.74505805969E-08  0.93827000000E+00  0.93827000000E+00 0.  1.
     999902    2    1    2    0    0  0.21635863968E-01  0.15744220660E-02 -0.10636949870E-01  0.10197694098E+01  0.10194831608E+01 0.  0.
     999903    2    3    3    0    0  0.43144586245E-02  0.12829427696E+00 -0.12156859078E-01  0.13052238970E+00  0.20255096533E-01 0.  0.
         14    1    1    2    0    0 -0.21635863968E-01 -0.15744220660E-02  0.10636949870E-01  0.24160590163E-01  0.00000000000E+00 0. -1.
     999901    1    3    3    0    0  0.17321405343E-01 -0.12671985489E+00  0.15199092078E-02  0.88924702014E+00  0.88000000000E+00 0. -1.
        -11    1    4    4    0    0 -0.76686272178E-03  0.40338338135E-01 -0.13072084836E-01  0.42413560625E-01  0.51100000000E-03 0.  1.
         11    1    4    4    0    0  0.50813213463E-02  0.87955938824E-01  0.91522575771E-03  0.88108829071E-01  0.51100000000E-03 0. -1.
</event>
<event>
 8    1  0.1143957E+005  0.1043930E+01  0.7957747E-01            NaN
         13   -1    0    0    0    0  0.00000000000E+00  0.00000000000E+00  0.74505805969E-08  0.10566000000E+00  0.10566000000E+00 0.  1.
     999900   -1    0    0    0    0 -0.00000000000E+00 -0.00000000000E+00 -0.74505805969E-08  0.93827000000E+00  0.93827000000E+00 0.  1.
     999902    2    1    2    0    0  0.43393792943E-02 -0.11409541012E-01  0.20526846161E-01  0.10200478047E+01  0.10197681916E+01 0.  0.
     999903    2    3    3    0    0  0.28644072372E-01 -0.63218803444E-01  0.11144078572E+00  0.13351508552E+00  0.24292578075E-01 0.  0.
         14    1    1    2    0    0 -0.43393792943E-02  0.11409541012E-01 -0.20526846161E-01  0.23882195295E-01  0.00000000000E+00 0. -1.
     999901    1    3    3    0    0 -0.24304693078E-01  0.51809262433E-01 -0.90913939555E-01  0.88653271918E+00  0.88000000000E+00 0.  1.
        -11    1    4    4    0    0  0.99522546968E-02 -0.43539250713E-01  0.54734236196E-01  0.70645675446E-01  0.51100000000E-03 0. -1.
         11    1    4    4    0    0  0.18691817675E-01 -0.19679552731E-01  0.56706549520E-01  0.62869410075E-01  0.51100000000E-03 0.  1.
</event>
<event>
 8    1  0.1143957E+005  0.1043930E+01  0.7957747E-01            NaN
         13   -1    0    0    0    0  0.00000000000E+00  0.00000000000E+00  0.74505805969E-08  0.10566000000E+00  0.10566000000E+00 0. -1.
     999900   -1    0    0    0    0 -0.00000000000E+00 -0.00000000000E+00 -0.74505805969E-08  0.93827000000E+00  0.93827000000E+00 0. -1.
     999902    2    1    2    0    0  0.22865131425E-01 -0.68503347217E-02 -0.19239258807E-02  0.10199833340E+01  0.10197021913E+01 0.  0.
     999903    2    3    3    0    0  0.40892231924E-01 -0.12360485237E+00 -0.10066710327E-01  0.13205152432E+00  0.19645158610E-01 0.  0.
         14    1    1    2    0    0 -0.22865131425E-01  0.68503347217E-02  0.19239258807E-02  0.23946665982E-01  0.00000000000E+00 0. -1.
     999901    1    3    3    0    0 -0.18027100500E-01  0.11675451765E+00  0.81427844459E-02  0.88793180970E+00  0.88000000000E+00 0.  1.
        -11    1    4    4    0    0  0.23062259382E-01 -0.68753594103E-01  0.41759960281E-02  0.72640378397E-01  0.51100000000E-03 0. -1.
         11    1    4    4    0    0  0.17829972542E-01 -0.54851258264E-01 -0.14242706355E-01  0.59411145918E-01  0.51100000000E-03 0.  1.
</event>
<event>
 8    1  0.1143957E+005  0.1043930E+01  0.7957747E-01            NaN
         13   -1    0    0    0    0  0.00000000000E+00  0.00000000000E+00  0.74505805969E-08  0.10566000000E+00  0.10566000000E+00 0. -1.
     999900   -1    0    0    0    0 -0.00000000000E+00 -0.00000000000E+00 -0.74505805969E-08  0.93827000000E+00  0.93827000000E+00 0.  1.
     999902    2    1    2    0    0  0.18594852078E-01 -0.48378692310E-02  0.14940534879E-01  0.10195908734E+01  0.10193003267E+01 0.  0.
     999903    2    3    3    0    0 -0.36433189246E-01  0.10678080476E-01  0.12384032851E+00  0.13103699483E+00  0.19820907340E-01 0.  0.
         14    1    1    2    0    0 -0.18594852078E-01  0.48378692310E-02 -0.14940534879E-01  0.24339126627E-01  0.00000000000E+00 0. -1.
     999901    1    3    3    0    0  0.55028041324E-01 -0.15515949707E-01 -0.10889979363E+00  0.88855387855E+00  0.88000000000E+00 0.  1.
        -11    1    4    4    0    0 -0.38463948190E-02  0.16607373386E-02  0.45689682480E-01  0.45884213055E-01  0.51100000000E-03 0.  1.
         11    1    4    4    0    0 -0.32586794427E-01  0.90173431379E-02  0.78150646025E-01  0.85152781772E-01  0.51100000000E-03 0. -1.
</event>
<event>
 8    1  0.1143957E+005  0.1043930E+01  0.7957747E-01            NaN
         13   -1    0    0    0    0  0.00000000000E+00  0.00000000000E+00  0.74505805969E-08  0.10566000000E+00  0.10566000000E+00 0. -1.
     999900   -1    0    0    0    0 -0.00000000000E+00 -0.00000000000E+00 -0.74505805969E-08  0.93827000000E+00  0.93827000000E+00 0. -1.
     999902    2    1    2    0    0  0.14606163729E-01 -0.13658752751E-01  0.13640590990E-01  0.10197232392E+01  0.10194358819E+01 0.  0.
     999903    2    3    3    0    0 -0.51562854575E-01  0.10410196242E+00  0.51317151878E-01  0.12861973890E+00  0.20338156381E-01 0.  0.
         14    1    1    2    0    0 -0.14606163729E-01  0.13658752751E-01 -0.13640590990E-01  0.24206760794E-01  0.00000000000E+00 0.  1.
     999901    1    3    3    0    0  0.66169018304E-01 -0.11776071517E+00 -0.37676560888E-01  0.89110350031E+00  0.88000000000E+00 0. -1.
        -11    1    4    4    0    0 -0.37115223948E-01  0.65882768430E-01  0.42757518533E-01  0.86870855509E-01  0.51100000000E-03 0. -1.
         11    1    4    4    0    0 -0.14447630627E-01  0.38219193993E-01  0.85596333444E-02  0.41748883389E-01  0.51100000000E-03 0.  1.
</event>
<event>
 8    1  0.1143957E+005  0.1043930E+01  0.7957747E-01            NaN
         13   -1    0    0    0    0  0.00000000000E+00  0.00000000000E+00  0.74505805969E-08  0.10566000000E+00  0.10566000000E+00 0.  1.
     999900   -1    0    0    0    0 -0.00000000000E+00 -0.00000000000E+00 -0.74505805969E-08  0.93827000000E+00  0.93827000000E+00 0.  1.
     999902    2    1    2    0    0 -0.15815544321E-01 -0.10083420991E-01 -0.13351426768E-01  0.10209068070E+01  0.10206471678E+01 0.  0.
     999903    2    3    3    0    0  0.16361883567E-01 -0.12899363285E+00 -0.13241634645E-01  0.13232645752E+00  0.20685306923E-01 0.  0.
         14    1    1    2    0    0  0.15815544321E-01  0.10083420991E-01  0.13351426768E-01  0.23023193040E-01  0.00000000000E+00 0.  1.
     999901    1    3    3    0    0 -0.32177427888E-01  0.11891021186E+00 -0.10979212276E-03  0.88858034944E+00  0.88000000000E+00 0. -1.
        -11    1    4    4    0    0  0.49900012614E-02 -0.81191648964E-01 -0.16785273959E-01  0.83060162033E-01  0.51100000000E-03 0.  1.
         11    1    4    4    0    0  0.11371882305E-01 -0.47801983887E-01  0.35436393137E-02  0.49266295490E-01  0.51100000000E-03 0. -1.
</event>
<event>
 8    1  0.1143957E+005  0.1043930E+01  0.7957747E-01            NaN
         13   -1    0    0    0    0  0.00000000000E+00  0.00000000000E+00  0.74505805969E-08  0.10566000000E+00  0.10566000000E+00 0. -1.
     999900   -1    0    0    0    0 -0.00000000000E+00 -0.00000000000E+00 -0.74505805969E-08  0.93827000000E+00  0.93827000000E+00 0. -1.
     999902    2    1    2    0    0 -0.17891827069E-01 -0.92058407613E-02 -0.34428293446E-02  0.10235163268E+01  0.10233127348E+01 0.  0.
     999903    2    3    3    0    0 -0.50235858863E-01 -0.12049938798E+00 -0.29813026741E-01  0.13552546121E+00  0.20846823601E-01 0.  0.
         14    1    1    2    0    0  0.17891827069E-01  0.92058407613E-02  0.34428293446E-02  0.20413673209E-01  0.00000000000E+00 0.  1.
     999901    1    3    3    0    0  0.32344031794E-01  0.11129354722E+00  0.26370197396E-01  0.88799086558E+00  0.88000000000E+00 0.  1.
        -11    1    4    4    0    0 -0.35367179207E-01 -0.92762915145E-01 -0.13865455328E-01  0.10024124782E+00  0.51100000000E-03 0. -1.
         11    1    4    4    0    0 -0.14868679656E-01 -0.27736472832E-01 -0.15947571413E-01  0.35284213394E-01  0.51100000000E-03 0.  1.
</event>
<event>
 8    1  0.1143957E+005  0.1043930E+01  0.7957747E-01            NaN
         13   -1    0    0    0    0  0.00000000000E+00  0.00000000000E+00  0.74505805969E-08  0.10566000000E+00  0.10566000000E+00 0. -1.
     999900   -1    0    0    0    0 -0.00000000000E+00 -0.00000000000E+00 -0.74505805969E-08  0.93827000000E+00  0.93827000000E+00 0.  1.
     999902    2    1    2    0    0  0.32923085510E-02 -0.21995042996E-01 -0.83600903703E-02  0.10201705319E+01  0.10198938189E+01 0.  0.
     999903    2    3    3    0    0 -0.11461758140E+00 -0.58662377749E-01  0.15801775247E-01  0.13122113442E+00  0.19769306727E-01 0.  0.
         14    1    1    2    0    0 -0.32923085510E-02  0.21995042996E-01  0.83600903703E-02  0.23759468070E-01  0.00000000000E+00 0. -1.
     999901    1    3    3    0    0  0.11790988995E+00  0.36667334753E-01 -0.24161865617E-01  0.88894939751E+00  0.88000000000E+00 0.  1.
        -11    1    4    4    0    0 -0.42622106008E-01 -0.24243155732E-01 -0.33573051144E-02  0.49151878286E-01  0.51100000000E-03 0. -1.
         11    1    4    4    0    0 -0.71995475389E-01 -0.34419222016E-01  0.19159080361E-01  0.82069256132E-01  0.51100000000E-03 0.  1.
</event>
<event>
 8    1  0.1143957E+005  0.1043930E+01  0.7957747E-01            NaN
         13   -1    0    0    0    0  0.00000000000E+00  0.00000000000E+00  0.74505805969E-08  0.10566000000E+00  0.10566000000E+00 0. -1.
     999900   -1    0    0    0    0 -0.00000000000E+00 -0.00000000000E+00 -0.74505805969E-08  0.93827000000E+00  0.93827000000E+00 0.  1.
     999902    2    1    2    0    0  0.18079687728E-01 -0.53437541472E-02  0.14012895196E-01  0.10204397457E+01  0.10201693401E+01 0.  0.
     999903    2    3    3    0    0 -0.12572764335E+00  0.36014063672E-02 -0.16247464457E-01  0.12820869166E+00  0.18790372182E-01 0.  0.
         14    1    1    2    0    0 -0.18079687728E-01  0.53437541472E-02 -0.14012895196E-01  0.23490254331E-01  0.00000000000E+00 0. -1.
     999901    1    3    3    0    0  0.14380733108E+00 -0.89451605144E-02  0.30260359654E-01  0.89223105401E+00  0.88000000000E+00 0.  1.
        -11    1    4    4    0    0 -0.72367206554E-01  0.27550492150E-02 -0.18652650736E-01  0.74784927499E-01  0.51100000000E-03 0. -1.
         11    1    4    4    0    0 -0.53360436795E-01  0.84635715215E-03  0.24051862783E-02  0.53423764164E-01  0.51100000000E-03 0.  1.
</event>
<event>
 8    1  0.1143957E+005  0.1043930E+01  0.7957747E-01            NaN
         13   -1    0    0    0    0  0.00000000000E+00  0.00000000000E+00  0.74505805969E-08  0.10566000000E+00  0.10566000000E+00 0. -1.
     999900   -1    0    0    0    0 -0.00000000000E+00 -0.00000000000E+00 -0.74505805969E-08  0.93827000000E+00  0.93827000000E+00 0.  1.
     999902    2    1    2    0    0  0.83093260546E-02 -0.31993737213E-03  0.22261535237E-01  0.10201660944E+01  0.10198892768E+01 0.  0.
     999903    2    3    3    0    0 -0.93218760343E-01  0.87780915382E-01 -0.28971560751E-02  0.12960297346E+00  0.19832065743E-01 0.  0.
         14    1    1    2    0    0 -0.83093260546E-02  0.31993737213E-03 -0.22261535237E-01  0.23763905624E-01  0.00000000000E+00 0.  1.
     999901    1    3    3    0    0  0.10152808640E+00 -0.88100852754E-01  0.25158691312E-01  0.89056312091E+00  0.88000000000E+00 0.  1.
        -11    1    4    4    0    0 -0.47113546785E-01  0.31589083457E-01 -0.44378408403E-02  0.56899139156E-01  0.51100000000E-03 0.  1.
         11    1    4    4    0    0 -0.46105213558E-01  0.56191831924E-01  0.15406847652E-02  0.72703834306E-01  0.51100000000E-03 0. -1.
</event>
<event>
 8    1  0.1143957E+005  0.1043930E+01  0.7957747E-01            NaN
         13   -1    0    0    0    0  0.00000000000E+00  0.00000000000E+00  0.74505805969E-08  0.10566000000E+00  0.10566000000E+00 0.  1.
     999900   -1    0    0    0    0 -0.00000000000E+00 -0.00000000000E+00 -0.74505805969E-08  0.93827000000E+00  0.93827000000E+00 0. -1.
     999902    2    1    2    0    0  0.22514720949E-01 -0.59930831301E-02  0.61720389169E-02  0.10198276398E+01  0.10195427853E+01 0.  0.
     999903    2    3    3    0    0 -0.70400567133E-01 -0.81962042738E-01 -0.66926814089E-01  0.12867783423E+00  0.20118903438E-01 0.  0.
         14    1    1    2    0    0 -0.22514720949E-01  0.59930831301E-02 -0.61720389169E-02  0.24102360241E-01  0.00000000000E+00 0. -1.
     999901    1    3    3    0    0  0.92915288082E-01  0.75968959608E-01  0.73098853006E-01  0.89114980553E+00  0.88000000000E+00 0.  1.
        -11    1    4    4    0    0 -0.13905999160E-01 -0.10536736753E-01 -0.18879312846E-01  0.25711655112E-01  0.51100000000E-03 0. -1.
         11    1    4    4    0    0 -0.56494567973E-01 -0.71425305985E-01 -0.48047501243E-01  0.10296617912E+00  0.51100000000E-03 0.  1.
</event>
<event>
 8    1  0.1143957E+005  0.1043930E+01  0.7957747E-01            NaN
         13   -1    0    0    0    0  0.00000000000E+00  0.00000000000E+00  0.74505805969E-08  0.10566000000E+00  0.10566000000E+00 0. -1.
     999900   -1    0    0    0    0 -0.00000000000E+00 -0.00000000000E+00 -0.74505805969E-08  0.93827000000E+00  0.93827000000E+00 0. -1.
     999902    2    1    2    0    0  0.76243010064E-03  0.93341204845E-02  0.16532609323E-01  0.10249290980E+01  0.10247529564E+01 0.  0.
     999903    2    3    3    0    0 -0.83635690904E-01 -0.80504611105E-01 -0.61723497350E-01  0.13289879655E+00  0.19400484430E-01 0.  0.
         14    1    1    2    0    0 -0.76243010064E-03 -0.93341204845E-02 -0.16532609323E-01  0.19000901976E-01  0.00000000000E+00 0.  1.
     999901    1    3    3    0    0  0.84398121005E-01  0.89838731589E-01  0.78256106674E-01  0.89203030148E+00  0.88000000000E+00 0.  1.
        -11    1    4    4    0    0 -0.69124397439E-01 -0.74078092094E-01 -0.57361259805E-01  0.11643161640E+00  0.51100000000E-03 0.  1.
         11    1    4    4    0    0 -0.14511293465E-01 -0.64265190103E-02 -0.43622375450E-02  0.16467180148E-01  0.51100000000E-03 0. -1.
</event>
<event>
 8    1  0.1143957E+005  0.1043930E+01  0.7957747E-01            NaN
         13   -1    0    0    0    0  0.00000000000E+00  0.00000000000E+00  0.74505805969E-08  0.10566000000E+00  0.10566000000E+00 0. -1.
     999900   -1    0    0    0    0 -0.00000000000E+00 -0.00000000000E+00 -0.74505805969E-08  0.93827000000E+00  0.93827000000E+00 0.  1.
     999902    2    1    2    0    0  0.19849657742E-01 -0.11423577195E-01  0.55561856452E-02  0.10203635360E+01  0.10200913524E+01 0.  0.
     999903    2    3    3    0    0 -0.16087389983E-01 -0.11398906806E+00  0.61075029231E-01  0.13194162419E+00  0.20642704439E-01 0.  0.
         14    1    1    2    0    0 -0.19849657742E-01  0.11423577195E-01 -0.55561856452E-02  0.23566464040E-01  0.00000000000E+00 0.  1.
     999901    1    3    3    0    0  0.35937047725E-01  0.10256549086E+00 -0.55518843586E-01  0.88842191177E+00  0.88000000000E+00 0. -1.
        -11    1    4    4    0    0  0.37201666928E-02 -0.38238449875E-01  0.16230992157E-01  0.41710009788E-01  0.51100000000E-03 0.  1.
         11    1    4    4    0    0 -0.19807556676E-01 -0.75750618180E-01  0.44844037074E-01  0.90231614405E-01  0.51100000000E-03 0. -1.
</event>
<event>
 8    1  0.1143957E+005  0.1043930E+01  0.7957747E-01            NaN
         13   -1    0    0    0    0  0.00000000000E+00  0.00000000000E+00  0.74505805969E-08  0.10566000000E+00  0.10566000000E+00 0. -1.
     999900   -1    0    0    0    0 -0.00000000000E+00 -0.00000000000E+00 -0.74505805969E-08  0.93827000000E+00  0.93827000000E+00 0.  1.
     999902    2    1    2    0    0 -0.20337688812E-01  0.19824608864E-01 -0.19155767702E-04  0.10155286432E+01  0.10151314142E+01 0.  0.
     999903    2    3    3    0    0  0.85761110130E-02 -0.88828048420E-01  0.83492092649E-01  0.12445314897E+00  0.23530509701E-01 0.  0.
         14    1    1    2    0    0  0.20337688812E-01 -0.19824608864E-01  0.19155767702E-04  0.28401356830E-01  0.00000000000E+00 0.  1.
     999901    1    3    3    0    0 -0.28913799825E-01  0.10865265728E+00 -0.83511248417E-01  0.89107549420E+00  0.88000000000E+00 0.  1.
        -11    1    4    4    0    0 -0.60826337252E-02 -0.44551769512E-01  0.33452215220E-01  0.56046145486E-01  0.51100000000E-03 0.  1.
         11    1    4    4    0    0  0.14658744738E-01 -0.44276278908E-01  0.50039877429E-01  0.68407003482E-01  0.51100000000E-03 0. -1.
</event>
<event>
 8    1  0.1143957E+005  0.1043930E+01  0.7957747E-01            NaN
         13   -1    0    0    0    0  0.00000000000E+00  0.00000000000E+00  0.74505805969E-08  0.10566000000E+00  0.10566000000E+00 0.  1.
     999900   -1    0    0    0    0 -0.00000000000E+00 -0.00000000000E+00 -0.74505805969E-08  0.93827000000E+00  0.93827000000E+00 0. -1.
     999902    2    1    2    0    0  0.90516323564E-02 -0.22634655078E-01 -0.24797836650E-02  0.10194267556E+01  0.10191322294E+01 0.  0.
     999903    2    3    3    0    0  0.10955231309E+00  0.52270362294E-01  0.40298256604E-01  0.12951602459E+00  0.20409582600E-01 0.  0.
         14    1    1    2    0    0 -0.90516323564E-02  0.22634655078E-01  0.24797836650E-02  0.24503244395E-01  0.00000000000E+00 0.  1.
     999901    1    3    3    0    0 -0.10050068073E+00 -0.74905017373E-01 -0.42778040269E-01  0.88991073102E+00  0.88000000000E+00 0. -1.
        -11    1    4    4    0    0  0.84043479864E-01  0.31521816821E-01  0.24576540283E-01  0.93065562356E-01  0.51100000000E-03 0.  1.
         11    1    4    4    0    0  0.25508833224E-01  0.20748545473E-01  0.15721716321E-01  0.36450462229E-01  0.51100000000E-03 0. -1.
</event>
<event>
 8    1  0.1143957E+005  0.1043930E+01  0.7957747E-01            NaN
         13   -1    0    0    0    0  0.00000000000E+00  0.00000000000E+00  0.74505805969E-08  0.10566000000E+00  0.10566000000E+00 0. -1.
     999900   -1    0    0    0    0 -0.00000000000E+00 -0.00000000000E+00 -0.74505805969E-08  0.93827000000E+00  0.93827000000E+00 0. -1.
     999902    2    1    2    0    0 -0.68694415626E-02 -0.13411538696E-01 -0.17431147979E-01  0.10208886563E+01  0.10206286029E+01 0.  0.
     999903    2    3    3    0    0 -0.11500130468E+00 -0.53658858083E-01 -0.35012723759E-01  0.13318292901E+00  0.20179906483E-01 0.  0.
         14    1    1    2    0    0  0.68694415626E-02  0.13411538696E-01  0.17431147979E-01  0.23041343655E-01  0.00000000000E+00 0. -1.
     999901    1    3    3    0    0  0.10813186312E+00  0.40247319387E-01  0.17581575780E-01  0.88770572734E+00  0.88000000000E+00 0. -1.
        -11    1    4    4    0    0 -0.53017499900E-01 -0.35644691565E-01 -0.19449328599E-01  0.66782758526E-01  0.51100000000E-03 0.  1.
         11    1    4    4    0    0 -0.61983804779E-01 -0.18014166518E-01 -0.15563395160E-01  0.66400170482E-01  0.51100000000E-03 0. -1.
</event>
<event>
 8    1  0.1143957E+005  0.1043930E+01  0.7957747E-01            NaN
         13   -1    0    0    0    0  0.00000000000E+00  0.00000000000E+00  0.74505805969E-08  0.10566000000E+00  0.10566000000E+00 0. -1.
     999900   -1    0    0    0    0 -0.00000000000E+00 -0.00000000000E+00 -0.74505805969E-08  0.93827000000E+00  0.93827000000E+00 0.  1.
     999902    2    1    2    0    0  0.80497354978E-03 -0.28091799813E-03 -0.23032144723E-01  0.10208820806E+01  0.10206218771E+01 0.  0.
     999903    2    3    3    0    0  0.36747513771E-01 -0.12218834813E+00  0.20997523298E-01  0.13066193965E+00  0.18742313143E-01 0.  0.
         14    1    1    2    0    0 -0.80497354978E-03  0.28091799813E-03  0.23032144723E-01  0.23047919382E-01  0.00000000000E+00 0. -1.
     999901    1    3    3    0    0 -0.35942540222E-01  0.12190743013E+00 -0.44029668020E-01  0.89022014097E+00  0.88000000000E+00 0.  1.
        -11    1    4    4    0    0  0.19148646945E-01 -0.53570505952E-01  0.42222678654E-03  0.56893841356E-01  0.51100000000E-03 0. -1.
         11    1    4    4    0    0  0.17598866827E-01 -0.68617842176E-01  0.20575296511E-01  0.73768098294E-01  0.51100000000E-03 0.  1.
</event>
<event>
 8    1  0.1143957E+005  0.1043930E+01  0.7957747E-01            NaN
         13   -1    0    0    0    0  0.00000000000E+00  0.00000000000E+00  0.74505805969E-08  0.10566000000E+00  0.10566000000E+00 0.  1.
     999900   -1    0    0    0    0 -0.00000000000E+00 -0.00000000000E+00 -0.74505805969E-08  0.93827000000E+00  0.93827000000E+00 0.  1.
     999902    2    1    2    0    0 -0.13054351075E-01 -0.62004025572E-02  0.15946821769E-01  0.10224087965E+01  0.10221822661E+01 0.  0.
     999903    2    3    3    0    0  0.43947984948E-01  0.15799622633E-01  0.12369030331E+00  0.13373454506E+00  0.20114272407E-01 0.  0.
         14    1    1    2    0    0  0.13054351075E-01  0.62004025572E-02 -0.15946821769E-01  0.21521203461E-01  0.00000000000E+00 0. -1.
     999901    1    3    3    0    0 -0.57002336023E-01 -0.22000025190E-01 -0.10774348154E+00  0.88867425148E+00  0.88000000000E+00 0.  1.
        -11    1    4    4    0    0  0.19286360649E-01  0.30380624582E-03  0.30442377292E-01  0.36042411983E-01  0.51100000000E-03 0.  1.
         11    1    4    4    0    0  0.24661624299E-01  0.15495816387E-01  0.93247926017E-01  0.97692133082E-01  0.51100000000E-03 0. -1.
</event>
<event>
 7    1  0.1143957E+005  0.1043930E+01  0.7957747E-01            NaN
         13   -1    0    0    0    0  0.00000000000E+00  0.00000000000E+00  0.74505805969E-08  0.10566000000E+00  0.10566000000E+00 0. -1.
     999900   -1    0    0    0    0 -0.00000000000E+00 -0.00000000000E+00 -0.74505805969E-08  0.93827000000E+00  0.93827000000E+00 0.  1.
     999902    2    1    2    0    0  0.50554634103E-02 -0.22641016395E-02  0.22489327733E-01  0.10207685292E+01  0.10205057259E+01 0.  0.
         14    1    1    2    0    0 -0.50554634103E-02  0.22641016395E-02 -0.22489327733E-01  0.23161470773E-01  0.00000000000E+00 0.  1.
     999901    1    3    3    0    0  0.69657953069E-01 -0.72174064772E-01 -0.57076150275E-01  0.88753535872E+00  0.88000000000E+00 0. -1.
        -11    1    3    3    0    0 -0.16216857883E-01 -0.30053497094E-02  0.26240313836E-02  0.16708239529E-01  0.51100000000E-03 0. -1.
         11    1    3    3    0    0 -0.48385631776E-01  0.72915312842E-01  0.76941446624E-01  0.11652493098E+00  0.51100000000E-03 0.  1.
</event>
<event>
 8    1  0.1143957E+005  0.1043930E+01  0.7957747E-01            NaN
         13   -1    0    0    0    0  0.00000000000E+00  0.00000000000E+00  0.74505805969E-08  0.10566000000E+00  0.10566000000E+00 0. -1.
     999900   -1    0    0    0    0 -0.00000000000E+00 -0.00000000000E+00 -0.74505805969E-08  0.93827000000E+00  0.93827000000E+00 0. -1.
     999902    2    1    2    0    0 -0.84109458039E-02 -0.21031029037E-01  0.59246678803E-02  0.10205173991E+01  0.10202487991E+01 0.  0.
     999903    2    3    3    0    0 -0.34243616271E-02 -0.29195236496E-01 -0.12589331313E+00  0.13064802642E+00  0.18859809916E-01 0.  0.
         14    1    1    2    0    0  0.84109458039E-02  0.21031029037E-01 -0.59246678803E-02  0.23412600906E-01  0.00000000000E+00 0.  1.
     999901    1    3    3    0    0 -0.49865841768E-02  0.81642074587E-02  0.13181798101E+00  0.88986937267E+00  0.88000000000E+00 0.  1.
        -11    1    4    4    0    0  0.18459399114E-02 -0.22039499544E-01 -0.56345422165E-01  0.60532757696E-01  0.51100000000E-03 0.  1.
         11    1    4    4    0    0 -0.52703015385E-02 -0.71557369517E-02 -0.69547890965E-01  0.70115268725E-01  0.51100000000E-03 0. -1.
</event>
<event>
 8    1  0.1143957E+005  0.1043930E+01  0.7957747E-01            NaN
         13   -1    0    0    0    0  0.00000000000E+00  0.00000000000E+00  0.74505805969E-08  0.10566000000E+00  0.10566000000E+00 0. -1.
     999900   -1    0    0    0    0 -0.00000000000E+00 -0.00000000000E+00 -0.74505805969E-08  0.93827000000E+00  0.93827000000E+00 0.  1.
     999902    2    1    2    0    0  0.23506623982E-02  0.49441212840E-02 -0.22721115372E-01  0.10205586707E+01  0.10202910278E+01 0.  0.
     999903    2    3    3    0    0 -0.35778248714E-01 -0.10638572024E+00 -0.65875499315E-01  0.13167709911E+00  0.20031786464E-01 0.  0.
         14    1    1    2    0    0 -0.23506623982E-02 -0.49441212840E-02  0.22721115372E-01  0.23371329289E-01  0.00000000000E+00 0. -1.
     999901    1    3    3    0    0  0.38128911112E-01  0.11132984152E+00  0.43154383943E-01  0.88888157160E+00  0.88000000000E+00 0. -1.
        -11    1    4    4    0    0 -0.68851727802E-02 -0.43374011126E-01 -0.18191320419E-01  0.47538360352E-01  0.51100000000E-03 0.  1.
         11    1    4    4    0    0 -0.28893075934E-01 -0.63011709111E-01 -0.47684178896E-01  0.84138738759E-01  0.51100000000E-03 0. -1.
</event>
<event>
 8    1  0.1143957E+005  0.1043930E+01  0.7957747E-01            NaN
         13   -1    0    0    0    0  0.00000000000E+00  0.00000000000E+00  0.74505805969E-08  0.10566000000E+00  0.10566000000E+00 0.  1.
     999900   -1    0    0    0    0 -0.00000000000E+00 -0.00000000000E+00 -0.74505805969E-08  0.93827000000E+00  0.93827000000E+00 0.  1.
     999902    2    1    2    0    0 -0.20788579889E-01 -0.35705127301E-02 -0.11004388110E-01  0.10201390317E+01  0.10198615758E+01 0.  0.
     999903    2    3    3    0    0  0.38551057015E-01  0.40112480629E-01  0.11387604988E+00  0.12827327935E+00  0.19775852979E-01 0.  0.
         14    1    1    2    0    0  0.20788579889E-01  0.35705127301E-02  0.11004388110E-01  0.23790968299E-01  0.00000000000E+00 0.  1.
     999901    1    3    3    0    0 -0.59339636904E-01 -0.43682993359E-01 -0.12488043799E+00  0.89186575235E+00  0.88000000000E+00 0.  1.
        -11    1    4    4    0    0  0.13934907549E-01  0.16029878921E-01  0.24157262163E-01  0.32170997853E-01  0.51100000000E-03 0. -1.
         11    1    4    4    0    0  0.24616149466E-01  0.24082601708E-01  0.89718787716E-01  0.96102281501E-01  0.51100000000E-03 0.  1.
</event>
<event>
 8    1  0.1143957E+005  0.1043930E+01  0.7957747E-01            NaN
         13   -1    0    0    0    0  0.00000000000E+00  0.00000000000E+00  0.74505805969E-08  0.10566000000E+00  0.10566000000E+00 0.  1.
     999900   -1    0    0    0    0 -0.00000000000E+00 -0.00000000000E+00 -0.74505805969E-08  0.93827000000E+00  0.93827000000E+00 0. -1.
     999902    2    1    2    0    0  0.23599330500E-01  0.20540258846E-02 -0.21325048192E-02  0.10201456564E+01  0.10198683569E+01 0.  0.
     999903    2    3    3    0    0  0.13154569933E+00  0.99365235452E-02  0.51860157258E-02  0.13348443981E+00  0.19702674903E-01 0.  0.
         14    1    1    2    0    0 -0.23599330500E-01 -0.20540258846E-02  0.21325048192E-02  0.23784343573E-01  0.00000000000E+00 0.  1.
     999901    1    3    3    0    0 -0.10794636883E+00 -0.78824976606E-02 -0.73185205451E-02  0.88666121662E+00  0.88000000000E+00 0.  1.
        -11    1    4    4    0    0  0.14014972013E-01  0.97294040796E-03  0.67642819338E-02  0.15600727055E-01  0.51100000000E-03 0. -1.
         11    1    4    4    0    0  0.11753072732E+00  0.89635831372E-02 -0.15782662080E-02  0.11788371275E+00  0.51100000000E-03 0.  1.
</event>
<event>
 8    1  0.1143957E+005  0.1043930E+01  0.7957747E-01            NaN
         13   -1    0    0    0    0  0.00000000000E+00  0.00000000000E+00  0.74505805969E-08  0.10566000000E+00  0.10566000000E+00 0.  1.
     999900   -1    0    0    0    0 -0.00000000000E+00 -0.00000000000E+00 -0.74505805969E-08  0.93827000000E+00  0.93827000000E+00 0.  1.
     999902    2    1    2    0    0 -0.12750995564E-01  0.78209526780E-02 -0.18294379089E-01  0.10202986756E+01  0.10200249741E+01 0.  0.
     999903    2    3    3    0    0 -0.84048508947E-01 -0.25350037402E-01  0.93374131771E-01  0.12976315896E+00  0.20321729450E-01 0.  0.
         14    1    1    2    0    0  0.12750995564E-01 -0.78209526780E-02  0.18294379089E-01  0.23631324442E-01  0.00000000000E+00 0.  1.
     999901    1    3    3    0    0  0.71297513383E-01  0.33170990080E-01 -0.11166851086E+00  0.89053551659E+00  0.88000000000E+00 0.  1.
        -11    1    4    4    0    0 -0.37619592617E-01 -0.18258490486E-01  0.55104306715E-01  0.69176238428E-01  0.51100000000E-03 0. -1.
         11    1    4    4    0    0 -0.46428916330E-01 -0.70915469165E-02  0.38269825055E-01  0.60586920536E-01  0.51100000000E-03 0.  1.
</event>
<event>
 8    1  0.1143957E+005  0.1043930E+01  0.7957747E-01            NaN
         13   -1    0    0    0    0  0.00000000000E+00  0.00000000000E+00  0.74505805969E-08  0.10566000000E+00  0.10566000000E+00 0. -1.
     999900   -1    0    0    0    0 -0.00000000000E+00 -0.00000000000E+00 -0.74505805969E-08  0.93827000000E+00  0.93827000000E+00 0. -1.
     999902    2    1    2    0    0  0.92043022356E-02  0.28524034213E-02  0.20050529664E-01  0.10216841212E+01  0.10214419045E+01 0.  0.
     999903    2    3    3    0    0 -0.79766830183E-01 -0.21638324574E-01 -0.97144213052E-01  0.12913145277E+00  0.20173489442E-01 0.  0.
         14    1    1    2    0    0 -0.92043022356E-02 -0.28524034213E-02 -0.20050529664E-01  0.22245878825E-01  0.00000000000E+00 0.  1.
     999901    1    3    3    0    0  0.88971132419E-01  0.24490727996E-01  0.11719474272E+00  0.89255266841E+00  0.88000000000E+00 0.  1.
        -11    1    4    4    0    0 -0.18989812840E-01  0.34209476759E-02 -0.20600361033E-01  0.28230335995E-01  0.51100000000E-03 0. -1.
         11    1    4    4    0    0 -0.60777017343E-01 -0.25059272250E-01 -0.76543852019E-01  0.10090111677E+00  0.51100000000E-03 0.  1.
</event>
<event>
 8    1  0.1143957E+005  0.1043930E+01  0.7957747E-01            NaN
         13   -1    0    0    0    0  0.00000000000E+00  0.00000000000E+00  0.74505805969E-08  0.10566000000E+00  0.10566000000E+00 0. -1.
     999900   -1    0    0    0    0 -0.00000000000E+00 -0.00000000000E+00 -0.74505805969E-08  0.93827000000E+00  0.93827000000E+00 0. -1.
     999902    2    1    2    0    0  0.13065187730E-01  0.70071757468E-02 -0.17985047030E-01  0.10206220280E+01  0.10203558509E+01 0.  0.
     999903    2    3    3    0    0  0.11779794012E-02 -0.12743101637E+00  0.13027835043E-01  0.12979278954E+00  0.20890001521E-01 0.  0.
         14    1    1    2    0    0 -0.13065187730E-01 -0.70071757468E-02  0.17985047030E-01  0.23307972006E-01  0.00000000000E+00 0. -1.
     999901    1    3    3    0    0  0.11887208329E-01  0.13443819212E+00 -0.31012882072E-01  0.89082923845E+00  0.88000000000E+00 0. -1.
        -11    1    4    4    0    0 -0.57509965542E-02 -0.69520546010E-01  0.15318870919E-01  0.71422049859E-01  0.51100000000E-03 0.  1.
         11    1    4    4    0    0  0.69289759554E-02 -0.57910470360E-01 -0.22910358764E-02  0.58370739686E-01  0.51100000000E-03 0. -1.
</event>
<event>
 8    1  0.1143957E+005  0.1043930E+01  0.7957747E-01            NaN
         13   -1    0    0    0    0  0.00000000000E+00  0.00000000000E+00  0.74505805969E-08  0.10566000000E+00  0.10566000000E+00 0.  1.
     999900   -1    0    0    0    0 -0.00000000000E+00 -0.00000000000E+00 -0.74505805969E-08  0.93827000000E+00  0.93827000000E+00 0.  1.
     999902    2    1    2    0    0  0.82051655900E-02 -0.69016727434E-02  0.20632297092E-01  0.10206781288E+01  0.10204132463E+01 0.  0.
     999903    2    3    3    0    0 -0.12773612819E-01  0.94131601384E-01  0.89602018735E-01  0.13196858454E+00  0.19059432870E-01 0.  0.
         14    1    1    2    0    0 -0.82051655900E-02  0.69016727434E-02 -0.20632297092E-01  0.23251871158E-01  0.00000000000E+00 0. -1.
     999901    1    3    3    0    0  0.20978778409E-01 -0.10103327413E+00 -0.68969721643E-01  0.88870954430E+00  0.88000000000E+00 0. -1.
        -11    1    4    4    0    0 -0.17410528118E-01  0.64903822438E-01  0.59561229816E-01  0.89796625074E-01  0.51100000000E-03 0. -1.
         11    1    4    4    0    0  0.46369152991E-02  0.29227778946E-01  0.30040788919E-01  0.42171959469E-01  0.51100000000E-03 0.  1.
</event>
<event>
 8    1  0.1143957E+005  0.1043930E+01  0.7957747E-01            NaN
         13   -1    0    0    0    0  0.00000000000E+00  0.00000000000E+00  0.74505805969E-08  0.10566000000E+00  0.10566000000E+00 0.  1.
     999900   -1    0    0    0    0 -0.00000000000E+00 -0.00000000000E+00 -0.74505805969E-08  0.93827000000E+00  0.93827000000E+00 0. -1.
     999902    2    1    2    0    0 -0.18404338324E-02  0.26922727246E-01 -0.89794910502E-02  0.10154896818E+01  0.10150913467E+01 0.  0.
     999903    2    3    3    0    0 -0.55477804156E-02 -0.11608566632E+00  0.34090116562E-01  0.12289787357E+00  0.20858846716E-01 0.  0.
         14    1    1    2    0    0  0.18404338324E-02 -0.26922727246E-01  0.89794910502E-02  0.28440318187E-01  0.00000000000E+00 0. -1.
     999901    1    3    3    0    0  0.37073465832E-02  0.14300839357E+00 -0.43069607612E-01  0.89259180825E+00  0.88000000000E+00 0. -1.
        -11    1    4    4    0    0 -0.63146818835E-03 -0.34771117176E-01  0.51181544161E-03  0.34784370308E-01  0.51100000000E-03 0. -1.
         11    1    4    4    0    0 -0.49163122273E-02 -0.81314549149E-01  0.33578301121E-01  0.88113503257E-01  0.51100000000E-03 0.  1.
</event>
<event>
 8    1  0.1143957E+005  0.1043930E+01  0.7957747E-01            NaN
         13   -1    0    0    0    0  0.00000000000E+00  0.00000000000E+00  0.74505805969E-08  0.10566000000E+00  0.10566000000E+00 0. -1.
     999900   -1    0    0    0    0 -0.00000000000E+00 -0.00000000000E+00 -0.74505805969E-08  0.93827000000E+00  0.93827000000E+00 0.  1.
     999902    2    1    2    0    0  0.20041657400E-01  0.12253100777E-01 -0.75168860204E-03  0.10204274141E+01  0.10201567212E+01 0.  0.
     999903    2    3    3    0    0 -0.10863151275E+00  0.52979385016E-01 -0.41149966170E-01  0.12922180604E+00  0.19933254669E-01 0.  0.
         14    1    1    2    0    0 -0.20041657400E-01 -0.12253100777E-01  0.75168860204E-03  0.23502585938E-01  0.00000000000E+00 0. -1.
     999901    1    3    3    0    0  0.12867317015E+00 -0.40726284239E-01  0.40398277568E-01  0.89120560802E+00  0.88000000000E+00 0. -1.
        -11    1    4    4    0    0 -0.61831251927E-01  0.34551333302E-01 -0.33459278227E-01  0.78336982123E-01  0.51100000000E-03 0. -1.
         11    1    4    4    0    0 -0.46800260820E-01  0.18428051715E-01 -0.76906879431E-02  0.50884823915E-01  0.51100000000E-03 0.  1.
</event>
<event>
 8    1  0.1143957E+005  0.1043930E+01  0.7957747E-01            NaN
         13   -1    0    0    0    0  0.00000000000E+00  0.00000000000E+00  0.74505805969E-08  0.10566000000E+00  0.10566000000E+00 0. -1.
     999900   -1    0    0    0    0 -0.00000000000E+00 -0.00000000000E+00 -0.74505805969E-08  0.93827000000E+00  0.93827000000E+00 0.  1.
     999902    2    1    2    0    0  0.22883853920E-01 -0.39137960236E-02 -0.37537710221E-02  0.10204123605E+01  0.10201413168E+01 0.  0.
     999903    2    3    3    0    0 -0.18365901435E-01  0.34978097581E-02  0.12688233262E+00  0.12978209729E+00  0.19867698314E-01 0.  0.
         14    1    1    2    0    0 -0.22883853920E-01  0.39137960236E-02  0.37537710221E-02  0.23517639474E-01  0.00000000000E+00 0.  1.
     999901    1    3    3    0    0  0.41249755354E-01 -0.74116057817E-02 -0.13063610365E+00  0.89063026324E+00  0.88000000000E+00 0.  1.
        -11    1    4    4    0    0 -0.12635089147E-01 -0.62635381906E-02  0.92770172194E-01  0.93837323909E-01  0.51100000000E-03 0. -1.
         11    1    4    4    0    0 -0.57308122874E-02  0.97613479487E-02  0.34112160430E-01  0.35944773381E-01  0.51100000000E-03 0.  1.
</event>
<event>
 8    1  0.1143957E+005  0.1043930E+01  0.7957747E-01            NaN
         13   -1    0    0    0    0  0.00000000000E+00  0.00000000000E+00  0.74505805969E-08  0.10566000000E+00  0.10566000000E+00 0. -1.
     999900   -1    0    0    0    0 -0.00000000000E+00 -0.00000000000E+00 -0.74505805969E-08  0.93827000000E+00  0.93827000000E+00 0. -1.
     999902    2    1    2    0    0 -0.75498595558E-02 -0.23259679383E-01  0.75848449669E-02  0.10183264273E+01  0.10180045037E+01 0.  0.
     999903    2    3    3    0    0  0.96706923214E-01  0.78489161887E-01  0.75045738008E-02  0.12634979645E+00  0.19879006605E-01 0.  0.
         14    1    1    2    0    0  0.75498595558E-02  0.23259679383E-01 -0.75848449669E-02  0.25603572749E-01  0.00000000000E+00 0. -1.
     999901    1    3    3    0    0 -0.10425678277E+00 -0.10174884127E+00  0.80271166146E-04  0.89197663080E+00  0.88000000000E+00 0.  1.
        -11    1    4    4    0    0  0.39165203331E-01  0.40225425685E-01  0.10768370312E-01  0.57168321155E-01  0.51100000000E-03 0. -1.
         11    1    4    4    0    0  0.57541719883E-01  0.38263736202E-01 -0.32637965111E-02  0.69181475294E-01  0.51100000000E-03 0.  1.
</event>
<event>
 8    1  0.1143957E+005  0.1043930E+01  0.7957747E-01            NaN
         13   -1    0    0    0    0  0.00000000000E+00  0.00000000000E+00  0.74505805969E-08  0.10566000000E+00  0.10566000000E+00 0.  1.
     999900   -1    0    0    0    0 -0.00000000000E+00 -0.00000000000E+00 -0.74505805969E-08  0.93827000000E+00  0.93827000000E+00 0. -1.
     999902    2    1    2    0    0 -0.32720415851E-01 -0.28884190661E-02  0.16300358583E-01  0.10072602540E+01  0.10065925437E+01 0.  0.
     999903    2    3    3    0    0 -0.33120253296E-01  0.46452285210E-01  0.10497000839E+00  0.12142902195E+00  0.21714942569E-01 0.  0.
         14    1    1    2    0    0  0.32720415851E-01  0.28884190661E-02 -0.16300358583E-01  0.36669745951E-01  0.00000000000E+00 0.  1.
     999901    1    3    3    0    0  0.39983744467E-03 -0.49340704276E-01 -0.88669649805E-01  0.88583123210E+00  0.88000000000E+00 0. -1.
        -11    1    4    4    0    0 -0.12718644734E-01  0.30776900077E-02  0.21548722725E-01  0.25215960655E-01  0.51100000000E-03 0.  1.
         11    1    4    4    0    0 -0.20401608562E-01  0.43374595203E-01  0.83421285662E-01  0.96213061293E-01  0.51100000000E-03 0. -1.
</event>
<event>
 8    1  0.1143957E+005  0.1043930E+01  0.7957747E-01            NaN
         13   -1    0    0    0    0  0.00000000000E+00  0.00000000000E+00  0.74505805969E-08  0.10566000000E+00  0.10566000000E+00 0. -1.
     999900   -1    0    0    0    0 -0.00000000000E+00 -0.00000000000E+00 -0.74505805969E-08  0.93827000000E+00  0.93827000000E+00 0. -1.
     999902    2    1    2    0    0  0.21821945259E-01 -0.17808492064E-03 -0.80700585009E-02  0.10206629664E+01  0.10203977343E+01 0.  0.
     999903    2    3    3    0    0  0.98130158844E-01 -0.77488488919E-01  0.39859677269E-01  0.13268937353E+00  0.19587802000E-01 0.  0.
         14    1    1    2    0    0 -0.21821945259E-01  0.17808492064E-03  0.80700585009E-02  0.23267033617E-01  0.00000000000E+00 0. -1.
     999901    1    3    3    0    0 -0.76308213585E-01  0.77310403998E-01 -0.47929735769E-01  0.88797359285E+00  0.88000000000E+00 0.  1.
        -11    1    4    4    0    0  0.17619358720E-01 -0.14804415019E-01  0.15603189885E-01  0.27808868394E-01  0.51100000000E-03 0.  1.
         11    1    4    4    0    0  0.80510800124E-01 -0.62684073900E-01  0.24256487384E-01  0.10488050514E+00  0.51100000000E-03 0. -1.
</event>
<event>
 8    1  0.1143957E+005  0.1043930E+01  0.7957747E-01            NaN
         13   -1    0    0    0    0  0.00000000000E+00  0.00000000000E+00  0.74505805969E-08  0.10566000000E+00  0.10566000000E+00 0. -1.
     999900   -1    0    0    0    0 -0.00000000000E+00 -0.00000000000E+00 -0.74505805969E-08  0.93827000000E+00  0.93827000000E+00 0.  1.
     999902    2    1    2    0    0  0.17319176929E-01  0.28148169105E-03  0.16566727926E-01  0.10199614874E+01  0.10196798253E+01 0.  0.
     999903    2    3    3    0    0  0.11660581934E+00 -0.31178359402E-01 -0.48141384163E-01  0.13146010940E+00  0.19878639143E-01 0.  0.
         14    1    1    2    0    0 -0.17319176929E-01 -0.28148169105E-03 -0.16566727926E-01  0.23968512587E-01  0.00000000000E+00 0.  1.
     999901    1    3    3    0    0 -0.99286642415E-01  0.31459841093E-01  0.64708112089E-01  0.88850137801E+00  0.88000000000E+00 0. -1.
        -11    1    4    4    0    0  0.79837606273E-01 -0.12036546007E-01 -0.34672756751E-01  0.87871400335E-01  0.51100000000E-03 0.  1.
         11    1    4    4    0    0  0.36768213071E-01 -0.19141813395E-01 -0.13468627413E-01  0.43588709064E-01  0.51100000000E-03 0. -1.
</event>
<event>
 8    1  0.1143957E+005  0.1043930E+01  0.7957747E-01            NaN
         13   -1    0    0    0    0  0.00000000000E+00  0.00000000000E+00  0.74505805969E-08  0.10566000000E+00  0.10566000000E+00 0.  1.
     999900   -1    0    0    0    0 -0.00000000000E+00 -0.00000000000E+00 -0.74505805969E-08  0.93827000000E+00  0.93827000000E+00 0.  1.
     999902    2    1    2    0    0 -0.74061046226E-02 -0.21800438371E-01  0.19805257266E-02  0.10208208680E+01  0.10205592646E+01 0.  0.
     999903    2    3    3    0    0  0.11775469899E+00  0.39594529868E-01 -0.32372980481E-01  0.12918488160E+00  0.14381510302E-01 0.  0.
         14    1    1    2    0    0  0.74061046226E-02  0.21800438371E-01 -0.19805257266E-02  0.23109131983E-01  0.00000000000E+00 0.  1.
     999901    1    3    3    0    0 -0.12516080361E+00 -0.61394968239E-01  0.34353506207E-01  0.89163598642E+00  0.88000000000E+00 0.  1.
        -11    1    4    4    0    0  0.58949385238E-01  0.13158056367E-01 -0.12157130092E-01  0.61613483917E-01  0.51100000000E-03 0.  1.
         11    1    4    4    0    0  0.58805313753E-01  0.26436473501E-01 -0.20215850389E-01  0.67571397682E-01  0.51100000000E-03 0. -1.
</event>
<event>
 8    1  0.1143957E+005  0.1043930E+01  0.7957747E-01            NaN
         13   -1    0    0    0    0  0.00000000000E+00  0.00000000000E+00  0.74505805969E-08  0.10566000000E+00  0.10566000000E+00 0. -1.
     999900   -1    0    0    0    0 -0.00000000000E+00 -0.00000000000E+00 -0.74505805969E-08  0.93827000000E+00  0.93827000000E+00 0.  1.
     999902    2    1    2    0    0  0.88613730202E-02 -0.50790580612E-02 -0.22675643817E-01  0.10190602275E+01  0.10187567137E+01 0.  0.
     999903    2    3    3    0    0 -0.57919945440E-01 -0.11076273316E+00 -0.30687806936E-01  0.13018848283E+00  0.19600929368E-01 0.  0.
         14    1    1    2    0    0 -0.88613730202E-02  0.50790580612E-02  0.22675643817E-01  0.24869772518E-01  0.00000000000E+00 0.  1.
     999901    1    3    3    0    0  0.66781318460E-01  0.10568367509E+00  0.80121631198E-02  0.88887174465E+00  0.88000000000E+00 0.  1.
        -11    1    4    4    0    0 -0.16196839293E-01 -0.34194150218E-01 -0.28579788715E-03  0.37840722954E-01  0.51100000000E-03 0.  1.
         11    1    4    4    0    0 -0.41723106148E-01 -0.76568582937E-01 -0.30402009049E-01  0.92347759880E-01  0.51100000000E-03 0. -1.
</event>
<event>
 8    1  0.1143957E+005  0.1043930E+01  0.7957747E-01            NaN
         13   -1    0    0    0    0  0.00000000000E+00  0.00000000000E+00  0.74505805969E-08  0.10566000000E+00  0.10566000000E+00 0. -1.
     999900   -1    0    0    0    0 -0.00000000000E+00 -0.00000000000E+00 -0.74505805969E-08  0.93827000000E+00  0.93827000000E+00 0. -1.
     999902    2    1    2    0    0  0.22839595696E-01 -0.38835386062E-02 -0.65006790790E-02  0.10198678340E+01  0.10195839402E+01 0.  0.
     999903    2    3    3    0    0  0.63403567934E-01 -0.35949545240E-01 -0.10874540893E+00  0.13244028801E+00  0.20061996274E-01 0.  0.
         14    1    1    2    0    0 -0.22839595696E-01  0.38835386062E-02  0.65006790790E-02  0.24062165990E-01  0.00000000000E+00 0. -1.
     999901    1    3    3    0    0 -0.40563972238E-01  0.32066006634E-01  0.10224472985E+00  0.88742754600E+00  0.88000000000E+00 0.  1.
        -11    1    4    4    0    0  0.19689008866E-01 -0.16216483299E-01 -0.53544392917E-01  0.59311841437E-01  0.51100000000E-03 0.  1.
         11    1    4    4    0    0  0.43714559067E-01 -0.19733061941E-01 -0.55201016010E-01  0.73128446569E-01  0.51100000000E-03 0. -1.
</event>
<event>
 8    1  0.1143957E+005  0.1043930E+01  0.7957747E-01            NaN
         13   -1    0    0    0    0  0.00000000000E+00  0.00000000000E+00  0.74505805969E-08  0.10566000000E+00  0.10566000000E+00 0. -1.
     999900   -1    0    0    0    0 -0.00000000000E+00 -0.00000000000E+00 -0.74505805969E-08  0.93827000000E+00  0.93827000000E+00 0. -1.
     999902    2    1    2    0    0 -0.23408952467E-01 -0.95509849668E-03  0.11646316757E-01  0.10177665147E+01  0.10174301698E+01 0.  0.
     999903    2    3    3    0    0 -0.66357866042E-01  0.43700130319E-01 -0.99599460428E-01  0.12860155724E+00  0.17471125679E-01 0.  0.
         14    1    1    2    0    0  0.23408952467E-01  0.95509849668E-03 -0.11646316757E-01  0.26163485294E-01  0.00000000000E+00 0.  1.
     999901    1    3    3    0    0  0.42948913575E-01 -0.44655228816E-01  0.11124577718E+00  0.88916495746E+00  0.88000000000E+00 0.  1.
        -11    1    4    4    0    0 -0.43791667073E-01  0.22079258341E-01 -0.70602350702E-01  0.85966021192E-01  0.51100000000E-03 0. -1.
         11    1    4    4    0    0 -0.22566198968E-01  0.21620871978E-01 -0.28997109726E-01  0.42635536052E-01  0.51100000000E-03 0.  1.
</event>
<event>
 8    1  0.1143957E+005  0.1043930E+01  0.7957747E-01            NaN
         13   -1    0    0    0    0  0.00000000000E+00  0.00000000000E+00  0.74505805969E-08  0.10566000000E+00  0.10566000000E+00 0. -1.
     999900   -1    0    0    0    0 -0.00000000000E+00 -0.00000000000E+00 -0.74505805969E-08  0.93827000000E+00  0.93827000000E+00 0.  1.
     999902    2    1    2    0    0 -0.12187927539E-01  0.14379139675E-01 -0.85255813958E-02  0.10232420621E+01  0.10230329061E+01 0.  0.
     999903    2    3    3    0    0  0.10224299477E-01  0.23725947895E-01 -0.13048351760E+00  0.13449946218E+00  0.19917330590E-01 0.  0.
         14    1    1    2    0    0  0.12187927539E-01 -0.14379139675E-01  0.85255813958E-02  0.20687937877E-01  0.00000000000E+00 0. -1.
     999901    1    3    3    0    0 -0.22412227016E-01 -0.93468082202E-02  0.12195793621E+00  0.88874259994E+00  0.88000000000E+00 0. -1.
        -11    1    4    4    0    0 -0.32642180609E-02  0.31011865348E-02 -0.52915585745E-01  0.53109253555E-01  0.51100000000E-03 0.  1.
         11    1    4    4    0    0  0.13488517538E-01  0.20624761360E-01 -0.77567931859E-01  0.81390208628E-01  0.51100000000E-03 0. -1.
</event>
<event>
 8    1  0.1143957E+005  0.1043930E+01  0.7957747E-01            NaN
         13   -1    0    0    0    0  0.00000000000E+00  0.00000000000E+00  0.74505805969E-08  0.10566000000E+00  0.10566000000E+00 0. -1.
     999900   -1    0    0    0    0 -0.00000000000E+00 -0.00000000000E+00 -0.74505805969E-08  0.93827000000E+00  0.93827000000E+00 0.  1.
     999902    2    1    2    0    0  0.21129693357E-01 -0.44819897352E-02 -0.10923744903E-01  0.10197250341E+01  0.10194377199E+01 0.  0.
     999903    2    3    3    0    0 -0.37477639417E-01 -0.11539471541E+00  0.40360903370E-01  0.12935063679E+00  0.19546634388E-01 0.  0.
         14    1    1    2    0    0 -0.21129693357E-01  0.44819897352E-02  0.10923744903E-01  0.24204965938E-01  0.00000000000E+00 0.  1.
     999901    1    3    3    0    0  0.58607332774E-01  0.11091272568E+00 -0.51284648272E-01  0.89037439727E+00  0.88000000000E+00 0.  1.
        -11    1    4    4    0    0 -0.27597829483E-01 -0.69173526318E-01  0.33204275148E-01  0.81543865156E-01  0.51100000000E-03 0.  1.
         11    1    4    4    0    0 -0.98798099344E-02 -0.46221189093E-01  0.71566282212E-02  0.47806771633E-01  0.51100000000E-03 0. -1.
</event>
<event>
 8    1  0.1143957E+005  0.1043930E+01  0.7957747E-01            NaN
         13   -1    0    0    0    0  0.00000000000E+00  0.00000000000E+00  0.74505805969E-08  0.10566000000E+00  0.10566000000E+00 0. -1.
     999900   -1    0    0    0    0 -0.00000000000E+00 -0.00000000000E+00 -0.74505805969E-08  0.93827000000E+00  0.93827000000E+00 0.  1.
     999902    2    1    2    0    0 -0.35289819307E-02  0.12605704542E-01 -0.12949424240E-01  0.10255168230E+01  0.10253515051E+01 0.  0.
     999903    2    3    3    0    0  0.29244808936E-01 -0.73578022246E-01  0.10495834108E+00  0.13287803977E+00  0.19270077452E-01 0.  0.
         14    1    1    2    0    0  0.35289819307E-02 -0.12605704542E-01  0.12949424240E-01  0.18413177037E-01  0.00000000000E+00 0. -1.
     999901    1    3    3    0    0 -0.32773790867E-01  0.86183726788E-01 -0.11790776532E+00  0.89263878319E+00  0.88000000000E+00 0.  1.
        -11    1    4    4    0    0  0.11206197743E-01 -0.26055759523E-01  0.23393401486E-01  0.36769468670E-01  0.51100000000E-03 0. -1.
         11    1    4    4    0    0  0.18038611193E-01 -0.47522262724E-01  0.81564939591E-01  0.96108571104E-01  0.51100000000E-03 0.  1.
</event>
<event>
 8    1  0.1143957E+005  0.1043930E+01  0.7957747E-01            NaN
         13   -1    0    0    0    0  0.00000000000E+00  0.00000000000E+00  0.74505805969E-08  0.10566000000E+00  0.10566000000E+00 0. -1.
     999900   -1    0    0    0    0 -0.00000000000E+00 -0.00000000000E+00 -0.74505805969E-08  0.93827000000E+00  0.93827000000E+00 0.  1.
     999902    2    1    2    0    0  0.18582428186E-01  0.70125314133E-02  0.10354358595E-01  0.10215314515E+01  0.10212858617E+01 0.  0.
     999903    2    3    3    0    0 -0.35873292703E-01 -0.38333580133E-02 -0.12291205090E+00  0.12976747219E+00  0.20751790723E-01 0.  0.
         14    1    1    2    0    0 -0.18582428186E-01 -0.70125314133E-02 -0.10354358595E-01  0.22398548525E-01  0.00000000000E+00 0.  1.
     999901    1    3    3    0    0  0.54455720889E-01  0.10845889427E-01  0.13326640950E+00  0.89176397929E+00  0.88000000000E+00 0. -1.
        -11    1    4    4    0    0 -0.31493897277E-01 -0.90309687425E-02 -0.82224877352E-01  0.88513363616E-01  0.51100000000E-03 0.  1.
         11    1    4    4    0    0 -0.43793954263E-02  0.51976107292E-02 -0.40687173549E-01  0.41254108571E-01  0.51100000000E-03 0. -1.
</event>
<event>
 8    1  0.1143957E+005  0.1043930E+01  0.7957747E-01            NaN
         13   -1    0    0    0    0  0.00000000000E+00  0.00000000000E+00  0.74505805969E-08  0.10566000000E+00  0.10566000000E+00 0.  1.
     999900   -1    0    0    0    0 -0.00000000000E+00 -0.00000000000E+00 -0.74505805969E-08  0.93827000000E+00  0.93827000000E+00 0. -1.
     999902    2    1    2    0    0 -0.22330108425E-01 -0.83989255359E-02  0.13866242360E-02  0.10200323344E+01  0.10197523547E+01 0.  0.
     999903    2    3    3    0    0 -0.58081700246E-01 -0.46859747770E-01 -0.10680763021E+00  0.13185250588E+00  0.20196375190E-01 0.  0.
         14    1    1    2    0    0  0.22330108425E-01  0.83989255359E-02 -0.13866242360E-02  0.23897665560E-01  0.00000000000E+00 0. -1.
     999901    1    3    3    0    0  0.35751591821E-01  0.38460822234E-01  0.10819425445E+00  0.88817982856E+00  0.88000000000E+00 0.  1.
        -11    1    4    4    0    0 -0.45909433768E-01 -0.46060934383E-01 -0.91884477611E-01  0.11257132908E+00  0.51100000000E-03 0.  1.
         11    1    4    4    0    0 -0.12172266479E-01 -0.79881338681E-03 -0.14923152602E-01  0.19281176796E-01  0.51100000000E-03 0. -1.
</event>
<event>
 8    1  0.1143957E+005  0.1043930E+01  0.7957747E-01            NaN
         13   -1    0    0    0    0  0.00000000000E+00  0.00000000000E+00  0.74505805969E-08  0.10566000000E+00  0.10566000000E+00 0.  1.
     999900   -1    0    0    0    0 -0.00000000000E+00 -0.00000000000E+00 -0.74505805969E-08  0.93827000000E+00  0.93827000000E+00 0.  1.
     999902    2    1    2    0    0 -0.20974754336E-01 -0.60675620904E-02 -0.10090440061E-01  0.10198764637E+01  0.10195927758E+01 0.  0.
     999903    2    3    3    0    0 -0.85157022106E-01 -0.39175943106E-01 -0.92541982174E-01  0.13307672011E+00  0.18945237872E-01 0.  0.
         14    1    1    2    0    0  0.20974754336E-01  0.60675620904E-02  0.10090440061E-01  0.24053536327E-01  0.00000000000E+00 0.  1.
     999901    1    3    3    0    0  0.64182267770E-01  0.33108381016E-01  0.82451542112E-01  0.88679974356E+00  0.88000000000E+00 0. -1.
        -11    1    4    4    0    0 -0.23061708101E-01 -0.50967192531E-02 -0.32746517154E-01  0.40378390686E-01  0.51100000000E-03 0.  1.
         11    1    4    4    0    0 -0.62095314005E-01 -0.34079223853E-01 -0.59795465020E-01  0.92698329423E-01  0.51100000000E-03 0. -1.
</event>
<event>
 8    1  0.1143957E+005  0.1043930E+01  0.7957747E-01            NaN
         13   -1    0    0    0    0  0.00000000000E+00  0.00000000000E+00  0.74505805969E-08  0.10566000000E+00  0.10566000000E+00 0. -1.
     999900   -1    0    0    0    0 -0.00000000000E+00 -0.00000000000E+00 -0.74505805969E-08  0.93827000000E+00  0.93827000000E+00 0.  1.
     999902    2    1    2    0    0 -0.13516852079E-01  0.19614180575E-01 -0.10396925297E-02  0.10200867131E+01  0.10198080211E+01 0.  0.
     999903    2    3    3    0    0 -0.11967619647E+00 -0.32089204729E-02 -0.51760218319E-01  0.13196325767E+00  0.20062203350E-01 0.  0.
         14    1    1    2    0    0  0.13516852079E-01 -0.19614180575E-01  0.10396925297E-02  0.23843286903E-01  0.00000000000E+00 0.  1.
     999901    1    3    3    0    0  0.10615934439E+00  0.22823101048E-01  0.50720525790E-01  0.88812345543E+00  0.88000000000E+00 0.  1.
        -11    1    4    4    0    0 -0.17637147179E-01  0.51788539004E-02 -0.12852614978E-01  0.22435247293E-01  0.51100000000E-03 0.  1.
         11    1    4    4    0    0 -0.10203904929E+00 -0.83877743733E-02 -0.38907603342E-01  0.10952801038E+00  0.51100000000E-03 0. -1.
</event>
<event>
 8    1  0.1143957E+005  0.1043930E+01  0.7957747E-01            NaN
         13   -1    0    0    0    0  0.00000000000E+00  0.00000000000E+00  0.74505805969E-08  0.10566000000E+00  0.10566000000E+00 0.  1.
     999900   -1    0    0    0    0 -0.00000000000E+00 -0.00000000000E+00 -0.74505805969E-08  0.93827000000E+00  0.93827000000E+00 0. -1.
     999902    2    1    2    0    0 -0.21020363891E-01 -0.91314399236E-02  0.96717398273E-02  0.10190546820E+01  0.10187510312E+01 0.  0.
     999903    2    3    3    0    0  0.37957020886E-01  0.14044689039E-01 -0.11910122062E+00  0.12742811209E+00  0.20367480767E-01 0.  0.
         14    1    1    2    0    0  0.21020363891E-01  0.91314399236E-02 -0.96717398273E-02  0.24875317977E-01  0.00000000000E+00 0. -1.
     999901    1    3    3    0    0 -0.58977384777E-01 -0.23176128963E-01  0.12877296045E+00  0.89162656993E+00  0.88000000000E+00 0.  1.
        -11    1    4    4    0    0 -0.14315660473E-02  0.12330789121E-02 -0.18918153302E-01  0.19019135373E-01  0.51100000000E-03 0. -1.
         11    1    4    4    0    0  0.39388586933E-01  0.12811610127E-01 -0.10018306732E+00  0.10840897672E+00  0.51100000000E-03 0.  1.
</event>
<event>
 8    1  0.1143957E+005  0.1043930E+01  0.7957747E-01            NaN
         13   -1    0    0    0    0  0.00000000000E+00  0.00000000000E+00  0.74505805969E-08  0.10566000000E+00  0.10566000000E+00 0. -1.
     999900   -1    0    0    0    0 -0.00000000000E+00 -0.00000000000E+00 -0.74505805969E-08  0.93827000000E+00  0.93827000000E+00 0. -1.
     999902    2    1    2    0    0 -0.24515994329E-02  0.15281747925E-01  0.16597789450E-01  0.10212357546E+01  0.10209835639E+01 0.  0.
     999903    2    3    3    0    0  0.54318998453E-01 -0.11291630998E+00 -0.23869925720E-01  0.12921822181E+00  0.20662256471E-01 0.  0.
         14    1    1    2    0    0  0.24515994329E-02 -0.15281747925E-01 -0.16597789450E-01  0.22694245395E-01  0.00000000000E+00 0.  1.
     999901    1    3    3    0    0 -0.56770597885E-01  0.12819805791E+00  0.40467715169E-01  0.89201753279E+00  0.88000000000E+00 0.  1.
        -11    1    4    4    0    0  0.50488631490E-01 -0.92015841791E-01 -0.25134275144E-01  0.10792594664E+00  0.51100000000E-03 0. -1.
         11    1    4    4    0    0  0.38303669630E-02 -0.20900468190E-01  0.12643494248E-02  0.21292275174E-01  0.51100000000E-03 0.  1.
</event>
<event>
 8    1  0.1143957E+005  0.1043930E+01  0.7957747E-01            NaN
         13   -1    0    0    0    0  0.00000000000E+00  0.00000000000E+00  0.74505805969E-08  0.10566000000E+00  0.10566000000E+00 0. -1.
     999900   -1    0    0    0    0 -0.00000000000E+00 -0.00000000000E+00 -0.74505805969E-08  0.93827000000E+00  0.93827000000E+00 0.  1.
     999902    2    1    2    0    0 -0.16544901596E-01  0.97098954237E-02  0.13355397077E-01  0.10205551745E+01  0.10202874505E+01 0.  0.
     999903    2    3    3    0    0 -0.68700045749E-01  0.11074813076E+00  0.18778813951E-01  0.13322305089E+00  0.20270487962E-01 0.  0.
         14    1    1    2    0    0  0.16544901596E-01 -0.97098954237E-02 -0.13355397077E-01  0.23374825541E-01  0.00000000000E+00 0.  1.
     999901    1    3    3    0    0  0.52155144153E-01 -0.10103823534E+00 -0.54234168743E-02  0.88733212357E+00  0.88000000000E+00 0. -1.
        -11    1    4    4    0    0 -0.55698928219E-01  0.90268472574E-01  0.23153693763E-01  0.10856851478E+00  0.51100000000E-03 0. -1.
         11    1    4    4    0    0 -0.13001117530E-01  0.20479658190E-01 -0.43748798113E-02  0.24654536114E-01  0.51100000000E-03 0.  1.
</event>
<event>
 8    1  0.1143957E+005  0.1043930E+01  0.7957747E-01            NaN
         13   -1    0    0    0    0  0.00000000000E+00  0.00000000000E+00  0.74505805969E-08  0.10566000000E+00  0.10566000000E+00 0.  1.
     999900   -1    0    0    0    0 -0.00000000000E+00 -0.00000000000E+00 -0.74505805969E-08  0.93827000000E+00  0.93827000000E+00 0.  1.
     999902    2    1    2    0    0 -0.20306797294E-01 -0.98647342131E-02  0.16579263766E-01  0.10159201627E+01  0.10155339610E+01 0.  0.
     999903    2    3    3    0    0 -0.91109288904E-01  0.59253855781E-01 -0.62947056924E-01  0.12681116604E+00  0.17516218388E-01 0.  0.
         14    1    1    2    0    0  0.20306797294E-01  0.98647342131E-02 -0.16579263766E-01  0.28009837280E-01  0.00000000000E+00 0.  1.
     999901    1    3    3    0    0  0.70802491611E-01 -0.69118589994E-01  0.79526320690E-01  0.88910899668E+00  0.88000000000E+00 0. -1.
        -11    1    4    4    0    0 -0.33900659166E-01  0.12288660757E-01 -0.21082254566E-01  0.41773058946E-01  0.51100000000E-03 0.  1.
         11    1    4    4    0    0 -0.57208629738E-01  0.46965195023E-01 -0.41864802358E-01  0.85038107091E-01  0.51100000000E-03 0. -1.
</event>
<event>
 7    1  0.1143957E+005  0.1043930E+01  0.7957747E-01            NaN
         13   -1    0    0    0    0  0.00000000000E+00  0.00000000000E+00  0.74505805969E-08  0.10566000000E+00  0.10566000000E+00 0.  1.
     999900   -1    0    0    0    0 -0.00000000000E+00 -0.00000000000E+00 -0.74505805969E-08  0.93827000000E+00  0.93827000000E+00 0. -1.
     999902    2    1    2    0    0  0.16972497770E-01  0.90450415803E-02  0.13601806604E-01  0.10203739477E+01  0.10201020074E+01 0.  0.
         14    1    1    2    0    0 -0.16972497770E-01 -0.90450415803E-02 -0.13601806604E-01  0.23556052314E-01  0.00000000000E+00 0. -1.
     999901    1    3    3    0    0 -0.92266435492E-01 -0.23200301730E-01 -0.44856338449E-01  0.88626375319E+00  0.88000000000E+00 0. -1.
        -11    1    3    3    0    0  0.95347045750E-01  0.23795041184E-01  0.32559618296E-01  0.10352609808E+00  0.51100000000E-03 0. -1.
         11    1    3    3    0    0  0.13891887512E-01  0.84503021267E-02  0.25898526757E-01  0.30584096420E-01  0.51100000000E-03 0.  1.
</event>
<event>
 8    1  0.1143957E+005  0.1043930E+01  0.7957747E-01            NaN
         13   -1    0    0    0    0  0.00000000000E+00  0.00000000000E+00  0.74505805969E-08  0.10566000000E+00  0.10566000000E+00 0.  1.
     999900   -1    0    0    0    0 -0.00000000000E+00 -0.00000000000E+00 -0.74505805969E-08  0.93827000000E+00  0.93827000000E+00 0. -1.
     999902    2    1    2    0    0  0.41063066569E-02  0.22513101402E-01 -0.13824317442E-02  0.10210037572E+01  0.10207463249E+01 0.  0.
     999903    2    3    3    0    0  0.25267618852E-01 -0.10226642648E+00 -0.72106528841E-01  0.12914074668E+00  0.19521946762E-01 0.  0.
         14    1    1    2    0    0 -0.41063066569E-02 -0.22513101402E-01  0.13824317442E-02  0.22926242750E-01  0.00000000000E+00 0.  1.
     999901    1    3    3    0    0 -0.21161312195E-01  0.12477952788E+00  0.70724097097E-01  0.89186301057E+00  0.88000000000E+00 0.  1.
        -11    1    4    4    0    0  0.85804580447E-02 -0.23486892605E-01 -0.81521988152E-02  0.26305471884E-01  0.51100000000E-03 0. -1.
         11    1    4    4    0    0  0.16687160807E-01 -0.78779533870E-01 -0.63954330026E-01  0.10283527480E+00  0.51100000000E-03 0.  1.
</event>
<event>
 8    1  0.1143957E+005  0.1043930E+01  0.7957747E-01            NaN
         13   -1    0    0    0    0  0.00000000000E+00  0.00000000000E+00  0.74505805969E-08  0.10566000000E+00  0.10566000000E+00 0. -1.
     999900   -1    0    0    0    0 -0.00000000000E+00 -0.00000000000E+00 -0.74505805969E-08  0.93827000000E+00  0.93827000000E+00 0.  1.
     999902    2    1    2    0    0 -0.13069844975E-01  0.98009381084E-03  0.21375115103E-01  0.10188565683E+01  0.10185480007E+01 0.  0.
     999903    2    3    3    0    0  0.10210524947E+00 -0.21316376195E-01 -0.68737282269E-01  0.12650984246E+00  0.20001410024E-01 0.  0.
         14    1    1    2    0    0  0.13069844975E-01 -0.98009381084E-03 -0.21375115103E-01  0.25073431700E-01  0.00000000000E+00 0.  1.
     999901    1    3    3    0    0 -0.11517509444E+00  0.22296470006E-01  0.90112397372E-01  0.89234672584E+00  0.88000000000E+00 0. -1.
        -11    1    4    4    0    0  0.37514096335E-01 -0.17339230537E-01 -0.23417507443E-01  0.47503653705E-01  0.51100000000E-03 0. -1.
         11    1    4    4    0    0  0.64591153132E-01 -0.39771456575E-02 -0.45319774826E-01  0.79006188756E-01  0.51100000000E-03 0.  1.
</event>
<event>
 8    1  0.1143957E+005  0.1043930E+01  0.7957747E-01            NaN
         13   -1    0    0    0    0  0.00000000000E+00  0.00000000000E+00  0.74505805969E-08  0.10566000000E+00  0.10566000000E+00 0.  1.
     999900   -1    0    0    0    0 -0.00000000000E+00 -0.00000000000E+00 -0.74505805969E-08  0.93827000000E+00  0.93827000000E+00 0. -1.
     999902    2    1    2    0    0  0.17655008540E-03 -0.23839585220E-01  0.10656785507E-02  0.10200659546E+01  0.10197867713E+01 0.  0.
     999903    2    3    3    0    0 -0.10666962655E+00 -0.34151968166E-01 -0.65053388630E-01  0.13108103808E+00  0.20137750999E-01 0.  0.
         14    1    1    2    0    0 -0.17655008540E-03  0.23839585220E-01 -0.10656785507E-02  0.23864045427E-01  0.00000000000E+00 0.  1.
     999901    1    3    3    0    0  0.10684617663E+00  0.10312382946E-01  0.66119067180E-01  0.88898491649E+00  0.88000000000E+00 0.  1.
        -11    1    4    4    0    0 -0.86194000478E-01 -0.27564089678E-01 -0.42727943829E-01  0.10007558675E+00  0.51100000000E-03 0. -1.
         11    1    4    4    0    0 -0.20475626068E-01 -0.65878784872E-02 -0.22325444800E-01  0.31005451333E-01  0.51100000000E-03 0.  1.
</event>
<event>
 8    1  0.1143957E+005  0.1043930E+01  0.7957747E-01            NaN
         13   -1    0    0    0    0  0.00000000000E+00  0.00000000000E+00  0.74505805969E-08  0.10566000000E+00  0.10566000000E+00 0. -1.
     999900   -1    0    0    0    0 -0.00000000000E+00 -0.00000000000E+00 -0.74505805969E-08  0.93827000000E+00  0.93827000000E+00 0.  1.
     999902    2    1    2    0    0 -0.78022883920E-02 -0.78679536511E-02 -0.20174504338E-01  0.10209128102E+01  0.10206533080E+01 0.  0.
     999903    2    3    3    0    0 -0.60068605070E-01  0.11167571461E+00 -0.26972652916E-01  0.13126755999E+00  0.20589943012E-01 0.  0.
         14    1    1    2    0    0  0.78022883920E-02  0.78679536511E-02  0.20174504338E-01  0.23017189752E-01  0.00000000000E+00 0. -1.
     999901    1    3    3    0    0  0.52266316678E-01 -0.11954366826E+00  0.67981485784E-02  0.88964525026E+00  0.88000000000E+00 0. -1.
        -11    1    4    4    0    0 -0.31408921444E-01  0.37689169145E-01 -0.12219096920E-01  0.50562449186E-01  0.51100000000E-03 0. -1.
         11    1    4    4    0    0 -0.28659683626E-01  0.73986545461E-01 -0.14753555996E-01  0.80705110806E-01  0.51100000000E-03 0.  1.
</event>
<event>
 8    1  0.1143957E+005  0.1043930E+01  0.7957747E-01            NaN
         13   -1    0    0    0    0  0.00000000000E+00  0.00000000000E+00  0.74505805969E-08  0.10566000000E+00  0.10566000000E+00 0.  1.
     999900   -1    0    0    0    0 -0.00000000000E+00 -0.00000000000E+00 -0.74505805969E-08  0.93827000000E+00  0.93827000000E+00 0.  1.
     999902    2    1    2    0    0 -0.13295588077E-01  0.20224375175E-01  0.54058179985E-02  0.10191303855E+01  0.10188286027E+01 0.  0.
     999903    2    3    3    0    0  0.54491217164E-01 -0.10674457812E+00  0.37276061144E-01  0.12686816028E+00  0.18502098572E-01 0.  0.
         14    1    1    2    0    0  0.13295588077E-01 -0.20224375175E-01 -0.54058179985E-02  0.24799614549E-01  0.00000000000E+00 0. -1.
     999901    1    3    3    0    0 -0.67786805242E-01  0.12696895330E+00 -0.31870243145E-01  0.89226222517E+00  0.88000000000E+00 0.  1.
        -11    1    4    4    0    0  0.21048259104E-01 -0.61315422936E-01  0.18641509419E-01  0.67456484459E-01  0.51100000000E-03 0. -1.
         11    1    4    4    0    0  0.33442958060E-01 -0.45429155188E-01  0.18634551724E-01  0.59411675821E-01  0.51100000000E-03 0.  1.
</event>
<event>
 8    1  0.1143957E+005  0.1043930E+01  0.7957747E-01            NaN
         13   -1    0    0    0    0  0.00000000000E+00  0.00000000000E+00  0.74505805969E-08  0.10566000000E+00  0.10566000000E+00 0.  1.
     999900   -1    0    0    0    0 -0.00000000000E+00 -0.00000000000E+00 -0.74505805969E-08  0.93827000000E+00  0.93827000000E+00 0.  1.
     999902    2    1    2    0    0  0.15386423511E-01 -0.52961592509E-03  0.20564010724E-01  0.10182414606E+01  0.10179173694E+01 0.  0.
     999903    2    3    3    0    0 -0.78444733680E-01 -0.10614408167E-01 -0.94347595155E-01  0.12576699804E+00  0.25487784923E-01 0.  0.
         14    1    1    2    0    0 -0.15386423511E-01  0.52961592509E-03 -0.20564010724E-01  0.25688539439E-01  0.00000000000E+00 0. -1.
     999901    1    3    3    0    0  0.93831157191E-01  0.10084792242E-01  0.11491160588E+00  0.89247446253E+00  0.88000000000E+00 0. -1.
        -11    1    4    4    0    0 -0.65268638269E-01 -0.10167425231E-01 -0.61040906831E-01  0.89942343226E-01  0.51100000000E-03 0.  1.
         11    1    4    4    0    0 -0.13176095412E-01 -0.44698293571E-03 -0.33306688325E-01  0.35824654809E-01  0.51100000000E-03 0. -1.
</event>
<event>
 8    1  0.1143957E+005  0.1043930E+01  0.7957747E-01            NaN
         13   -1    0    0    0    0  0.00000000000E+00  0.00000000000E+00  0.74505805969E-08  0.10566000000E+00  0.10566000000E+00 0. -1.
     999900   -1    0    0    0    0 -0.00000000000E+00 -0.00000000000E+00 -0.74505805969E-08  0.93827000000E+00  0.93827000000E+00 0.  1.
     999902    2    1    2    0    0 -0.10550720845E-01  0.22575188489E-01  0.30524117376E-02  0.10188247403E+01  0.10185153791E+01 0.  0.
     999903    2    3    3    0    0  0.23863578094E-01 -0.58854868003E-01  0.10945801250E+00  0.12801760635E+00  0.19341281991E-01 0.  0.
         14    1    1    2    0    0  0.10550720845E-01 -0.22575188489E-01 -0.30524117376E-02  0.25105259669E-01  0.00000000000E+00 0.  1.
     999901    1    3    3    0    0 -0.34414298939E-01  0.81430056492E-01 -0.10640560076E+00  0.89080713398E+00  0.88000000000E+00 0.  1.
        -11    1    4    4    0    0  0.13704464619E-01 -0.13666525527E-01  0.41266230154E-01  0.45582333668E-01  0.51100000000E-03 0. -1.
         11    1    4    4    0    0  0.10159113475E-01 -0.45188342476E-01  0.68191782345E-01  0.82435272685E-01  0.51100000000E-03 0.  1.
</event>
<event>
 8    1  0.1143957E+005  0.1043930E+01  0.7957747E-01            NaN
         13   -1    0    0    0    0  0.00000000000E+00  0.00000000000E+00  0.74505805969E-08  0.10566000000E+00  0.10566000000E+00 0. -1.
     999900   -1    0    0    0    0 -0.00000000000E+00 -0.00000000000E+00 -0.74505805969E-08  0.93827000000E+00  0.93827000000E+00 0. -1.
     999902    2    1    2    0    0 -0.94695075734E-02 -0.13500633594E-01 -0.17028164579E-01  0.10202256318E+01  0.10199502158E+01 0.  0.
     999903    2    3    3    0    0 -0.64054720505E-03  0.10640421610E+00 -0.72569700813E-01  0.13031553201E+00  0.19837058840E-01 0.  0.
         14    1    1    2    0    0  0.94695075734E-02  0.13500633594E-01  0.17028164579E-01  0.23704368164E-01  0.00000000000E+00 0.  1.
     999901    1    3    3    0    0 -0.88289603683E-02 -0.11990484969E+00  0.55541536234E-01  0.88991009982E+00  0.88000000000E+00 0.  1.
        -11    1    4    4    0    0 -0.29224347232E-02  0.50443066137E-01 -0.22991361322E-01  0.55514929186E-01  0.51100000000E-03 0.  1.
         11    1    4    4    0    0  0.22818875181E-02  0.55961149961E-01 -0.49578339491E-01  0.74800602827E-01  0.51100000000E-03 0. -1.
</event>
<event>
 8    1  0.1143957E+005  0.1043930E+01  0.7957747E-01            NaN
         13   -1    0    0    0    0  0.00000000000E+00  0.00000000000E+00  0.74505805969E-08  0.10566000000E+00  0.10566000000E+00 0. -1.
     999900   -1    0    0    0    0 -0.00000000000E+00 -0.00000000000E+00 -0.74505805969E-08  0.93827000000E+00  0.93827000000E+00 0.  1.
     999902    2    1    2    0    0  0.13839013244E-01  0.71134457084E-02 -0.18474559887E-01  0.10197757300E+01  0.10194896325E+01 0.  0.
     999903    2    3    3    0    0 -0.65697609116E-01 -0.47939588564E-01  0.95567891231E-01  0.12716013996E+00  0.20545056959E-01 0.  0.
         14    1    1    2    0    0 -0.13839013244E-01 -0.71134457084E-02  0.18474559887E-01  0.24154270025E-01  0.00000000000E+00 0. -1.
     999901    1    3    3    0    0  0.79536622360E-01  0.55053034272E-01 -0.11404245112E+00  0.89261559001E+00  0.88000000000E+00 0.  1.
        -11    1    4    4    0    0 -0.54918925998E-01 -0.38370216866E-01  0.88772354629E-01  0.11121669858E+00  0.51100000000E-03 0.  1.
         11    1    4    4    0    0 -0.10778683118E-01 -0.95693716978E-02  0.67955366016E-02  0.15943441383E-01  0.51100000000E-03 0. -1.
</event>
<event>
 8    1  0.1143957E+005  0.1043930E+01  0.7957747E-01            NaN
         13   -1    0    0    0    0  0.00000000000E+00  0.00000000000E+00  0.74505805969E-08  0.10566000000E+00  0.10566000000E+00 0.  1.
     999900   -1    0    0    0    0 -0.00000000000E+00 -0.00000000000E+00 -0.74505805969E-08  0.93827000000E+00  0.93827000000E+00 0.  1.
     999902    2    1    2    0    0  0.47317463584E-02 -0.21301614752E-01  0.30389761004E-02  0.10218985772E+01  0.10216610585E+01 0.  0.
     999903    2    3    3    0    0  0.47163769607E-01  0.84885464913E-01 -0.84324272284E-01  0.13021000508E+00  0.20349427769E-01 0.  0.
         14    1    1    2    0    0 -0.47317463584E-02  0.21301614752E-01 -0.30389761004E-02  0.22031422795E-01  0.00000000000E+00 0.  1.
     999901    1    3    3    0    0 -0.42432023249E-01 -0.10618707966E+00  0.87363248384E-01  0.89168857212E+00  0.88000000000E+00 0. -1.
        -11    1    4    4    0    0  0.42468553773E-02  0.72546866585E-03 -0.64771771821E-02  0.77959624569E-02  0.51100000000E-03 0. -1.
         11    1    4    4    0    0  0.42916914230E-01  0.84159996247E-01 -0.77847095101E-01  0.12241404263E+00  0.51100000000E-03 0.  1.
</event>
<event>
 8    1  0.1143957E+005  0.1043930E+01  0.7957747E-01            NaN
         13   -1    0    0    0    0  0.00000000000E+00  0.00000000000E+00  0.74505805969E-08  0.10566000000E+00  0.10566000000E+00 0. -1.
     999900   -1    0    0    0    0 -0.00000000000E+00 -0.00000000000E+00 -0.74505805969E-08  0.93827000000E+00  0.93827000000E+00 0. -1.
     999902    2    1    2    0    0  0.10294836538E-01 -0.13579973669E-01 -0.16799770865E-01  0.10200002769E+01  0.10197195366E+01 0.  0.
     999903    2    3    3    0    0  0.16813326401E-01  0.66731523975E-02 -0.12966435060E+00  0.13253698577E+00  0.20639522094E-01 0.  0.
         14    1    1    2    0    0 -0.10294836538E-01  0.13579973669E-01  0.16799770865E-01  0.23929723051E-01  0.00000000000E+00 0. -1.
     999901    1    3    3    0    0 -0.65184898629E-02 -0.20253126067E-01  0.11286457974E+00  0.88746329118E+00  0.88000000000E+00 0.  1.
        -11    1    4    4    0    0  0.35775287347E-02 -0.72128847420E-02 -0.45790920880E-01  0.46496171608E-01  0.51100000000E-03 0.  1.
         11    1    4    4    0    0  0.13235797666E-01  0.13886037139E-01 -0.83873429724E-01  0.86040814164E-01  0.51100000000E-03 0. -1.
</event>
<event>
 8    1  0.1143957E+005  0.1043930E+01  0.7957747E-01            NaN
         13   -1    0    0    0    0  0.00000000000E+00  0.00000000000E+00  0.74505805969E-08  0.10566000000E+00  0.10566000000E+00 0.  1.
     999900   -1    0    0    0    0 -0.00000000000E+00 -0.00000000000E+00 -0.74505805969E-08  0.93827000000E+00  0.93827000000E+00 0. -1.
     999902    2    1    2    0    0  0.14848273129E-01  0.16236669071E-01 -0.56844405370E-02  0.10212052667E+01  0.10209523903E+01 0.  0.
     999903    2    3    3    0    0 -0.30327170191E-01 -0.81398644649E-01 -0.94886837051E-01  0.13017746543E+00  0.19929477115E-01 0.  0.
         14    1    1    2    0    0 -0.14848273129E-01 -0.16236669071E-01  0.56844405370E-02  0.22724733258E-01  0.00000000000E+00 0. -1.
     999901    1    3    3    0    0  0.45175443320E-01  0.97635313720E-01  0.89202396514E-01  0.89102780131E+00  0.88000000000E+00 0.  1.
        -11    1    4    4    0    0 -0.21150670512E-01 -0.41698819975E-01 -0.62883197054E-01  0.78362618915E-01  0.51100000000E-03 0.  1.
         11    1    4    4    0    0 -0.91764996794E-02 -0.39699824674E-01 -0.32003639997E-01  0.51814846517E-01  0.51100000000E-03 0. -1.
</event>
<event>
 8    1  0.1143957E+005  0.1043930E+01  0.7957747E-01            NaN
         13   -1    0    0    0    0  0.00000000000E+00  0.00000000000E+00  0.74505805969E-08  0.10566000000E+00  0.10566000000E+00 0.  1.
     999900   -1    0    0    0    0 -0.00000000000E+00 -0.00000000000E+00 -0.74505805969E-08  0.93827000000E+00  0.93827000000E+00 0. -1.
     999902    2    1    2    0    0  0.12731730182E-01 -0.16325235720E-01  0.11813546598E-01  0.10200936799E+01  0.10198151526E+01 0.  0.
     999903    2    3    3    0    0  0.22432592748E-01 -0.10183535554E+00  0.80475263614E-01  0.13323375929E+00  0.20032616062E-01 0.  0.
         14    1    1    2    0    0 -0.12731730182E-01  0.16325235720E-01 -0.11813546598E-01  0.23836320143E-01  0.00000000000E+00 0.  1.
     999901    1    3    3    0    0 -0.97008625662E-02  0.85510119816E-01 -0.68661717016E-01  0.88685992057E+00  0.88000000000E+00 0. -1.
        -11    1    4    4    0    0  0.21046618261E-01 -0.76472626112E-01  0.50900710882E-01  0.94245244835E-01  0.51100000000E-03 0. -1.
         11    1    4    4    0    0  0.13859744865E-02 -0.25362729423E-01  0.29574552732E-01  0.38988514455E-01  0.51100000000E-03 0.  1.
</event>
<event>
 8    1  0.1143957E+005  0.1043930E+01  0.7957747E-01            NaN
         13   -1    0    0    0    0  0.00000000000E+00  0.00000000000E+00  0.74505805969E-08  0.10566000000E+00  0.10566000000E+00 0.  1.
     999900   -1    0    0    0    0 -0.00000000000E+00 -0.00000000000E+00 -0.74505805969E-08  0.93827000000E+00  0.93827000000E+00 0.  1.
     999902    2    1    2    0    0 -0.82469285447E-02 -0.21982930508E-01  0.27707689904E-02  0.10202881256E+01  0.10200141769E+01 0.  0.
     999903    2    3    3    0    0  0.35611885749E-01  0.20890298195E-01 -0.12145694015E+00  0.12944906435E+00  0.17339578594E-01 0.  0.
         14    1    1    2    0    0  0.82469285447E-02  0.21982930508E-01 -0.27707689904E-02  0.23641874395E-01  0.00000000000E+00 0.  1.
     999901    1    3    3    0    0 -0.43858814294E-01 -0.42873228703E-01  0.12422770914E+00  0.89083906125E+00  0.88000000000E+00 0. -1.
        -11    1    4    4    0    0  0.13816157298E-01  0.77242467873E-02 -0.24267757149E-01  0.28978187468E-01  0.51100000000E-03 0. -1.
         11    1    4    4    0    0  0.21795728451E-01  0.13166051408E-01 -0.97189183004E-01  0.10047087689E+00  0.51100000000E-03 0.  1.
</event>
<event>
 8    1  0.1143957E+005  0.1043930E+01  0.7957747E-01            NaN
         13   -1    0    0    0    0  0.00000000000E+00  0.00000000000E+00  0.74505805969E-08  0.10566000000E+00  0.10566000000E+00 0.  1.
     999900   -1    0    0    0    0 -0.00000000000E+00 -0.00000000000E+00 -0.74505805969E-08  0.93827000000E+00  0.93827000000E+00 0. -1.
     999902    2    1    2    0    0 -0.22128456559E-02  0.90061606081E-02 -0.21548471082E-01  0.10204705835E+01  0.10202008957E+01 0.  0.
     999903    2    3    3    0    0  0.65201347422E-01 -0.87446711490E-01 -0.70380103780E-01  0.13129548362E+00  0.19672365247E-01 0.  0.
         14    1    1    2    0    0  0.22128456559E-02 -0.90061606081E-02  0.21548471082E-01  0.23459416462E-01  0.00000000000E+00 0.  1.
     999901    1    3    3    0    0 -0.67414193078E-01  0.96452872098E-01  0.48831632698E-01  0.88917509992E+00  0.88000000000E+00 0. -1.
        -11    1    4    4    0    0  0.28570518526E-01 -0.43225558572E-01 -0.22346042159E-01  0.56429869430E-01  0.51100000000E-03 0.  1.
         11    1    4    4    0    0  0.36630828896E-01 -0.44221152918E-01 -0.48034061621E-01  0.74865614188E-01  0.51100000000E-03 0. -1.
</event>
<event>
 8    1  0.1143957E+005  0.1043930E+01  0.7957747E-01            NaN
         13   -1    0    0    0    0  0.00000000000E+00  0.00000000000E+00  0.74505805969E-08  0.10566000000E+00  0.10566000000E+00 0. -1.
     999900   -1    0    0    0    0 -0.00000000000E+00 -0.00000000000E+00 -0.74505805969E-08  0.93827000000E+00  0.93827000000E+00 0.  1.
     999902    2    1    2    0    0 -0.87747636779E-02 -0.33771937385E-01 -0.92132131974E-02  0.10078408946E+01  0.10071945419E+01 0.  0.
     999903    2    3    3    0    0 -0.79281754133E-01  0.78898641513E-03 -0.88752339036E-01  0.12077146906E+00  0.20556045757E-01 0.  0.
         14    1    1    2    0    0  0.87747636779E-02  0.33771937385E-01  0.92132131974E-02  0.36089105416E-01  0.00000000000E+00 0.  1.
     999901    1    3    3    0    0  0.70506990455E-01 -0.34560923800E-01  0.79539125838E-01  0.88706942552E+00  0.88000000000E+00 0.  1.
        -11    1    4    4    0    0 -0.26245381330E-01  0.91106365694E-02 -0.36299975754E-01  0.45714036144E-01  0.51100000000E-03 0. -1.
         11    1    4    4    0    0 -0.53036372803E-01 -0.83216501543E-02 -0.52452363281E-01  0.75057432917E-01  0.51100000000E-03 0.  1.
</event>
<event>
 8    1  0.1143957E+005  0.1043930E+01  0.7957747E-01            NaN
         13   -1    0    0    0    0  0.00000000000E+00  0.00000000000E+00  0.74505805969E-08  0.10566000000E+00  0.10566000000E+00 0. -1.
     999900   -1    0    0    0    0 -0.00000000000E+00 -0.00000000000E+00 -0.74505805969E-08  0.93827000000E+00  0.93827000000E+00 0. -1.
     999902    2    1    2    0    0 -0.22482843799E-01 -0.39301845227E-02 -0.22086098369E-02  0.10209996146E+01  0.10207420881E+01 0.  0.
     999903    2    3    3    0    0  0.12425491662E+00 -0.21302819693E-01  0.11957071669E-01  0.12856785516E+00  0.22217726867E-01 0.  0.
         14    1    1    2    0    0  0.22482843799E-01  0.39301845227E-02  0.22086098369E-02  0.22930385367E-01  0.00000000000E+00 0.  1.
     999901    1    3    3    0    0 -0.14673776042E+00  0.17372635170E-01 -0.14165681506E-01  0.89243175947E+00  0.88000000000E+00 0. -1.
        -11    1    4    4    0    0  0.61626507154E-01 -0.21047020231E-01  0.10158667580E-01  0.65911024060E-01  0.51100000000E-03 0. -1.
         11    1    4    4    0    0  0.62628409462E-01 -0.25579946186E-03  0.17984040892E-02  0.62656831099E-01  0.51100000000E-03 0.  1.
</event>
<event>
 8    1  0.1143957E+005  0.1043930E+01  0.7957747E-01            NaN
         13   -1    0    0    0    0  0.00000000000E+00  0.00000000000E+00  0.74505805969E-08  0.10566000000E+00  0.10566000000E+00 0. -1.
     999900   -1    0    0    0    0 -0.00000000000E+00 -0.00000000000E+00 -0.74505805969E-08  0.93827000000E+00  0.93827000000E+00 0.  1.
     999902    2    1    2    0    0  0.16218599212E-01  0.16287504870E-01  0.40039496612E-02  0.10205985322E+01  0.10203318120E+01 0.  0.
     999903    2    3    3    0    0 -0.27943226026E-01 -0.59602645455E-02 -0.12535800830E+00  0.12976760202E+00  0.17568484725E-01 0.  0.
         14    1    1    2    0    0 -0.16218599212E-01 -0.16287504870E-01 -0.40039496612E-02  0.23331467768E-01  0.00000000000E+00 0.  1.
     999901    1    3    3    0    0  0.44161825239E-01  0.22247769416E-01  0.12936195796E+00  0.89083093021E+00  0.88000000000E+00 0. -1.
        -11    1    4    4    0    0 -0.20500211793E-01  0.39677503622E-02 -0.70967890619E-01  0.73977728719E-01  0.51100000000E-03 0.  1.
         11    1    4    4    0    0 -0.74430142335E-02 -0.99280149077E-02 -0.54390117680E-01  0.55789873303E-01  0.51100000000E-03 0. -1.
</event>
<event>
 8    1  0.1143957E+005  0.1043930E+01  0.7957747E-01            NaN
         13   -1    0    0    0    0  0.00000000000E+00  0.00000000000E+00  0.74505805969E-08  0.10566000000E+00  0.10566000000E+00 0. -1.
     999900   -1    0    0    0    0 -0.00000000000E+00 -0.00000000000E+00 -0.74505805969E-08  0.93827000000E+00  0.93827000000E+00 0. -1.
     999902    2    1    2    0    0 -0.20064212546E-01  0.24510441424E-02 -0.15475509400E-01  0.10184727489E+01  0.10181545406E+01 0.  0.
     999903    2    3    3    0    0 -0.12272397319E+00  0.41947568605E-01  0.56999219071E-02  0.13137219045E+00  0.20134329108E-01 0.  0.
         14    1    1    2    0    0  0.20064212546E-01 -0.24510441424E-02  0.15475509400E-01  0.25457251102E-01  0.00000000000E+00 0. -1.
     999901    1    3    3    0    0  0.10265976064E+00 -0.39496524462E-01 -0.21175431307E-01  0.88710055844E+00  0.88000000000E+00 0. -1.
        -11    1    4    4    0    0 -0.82811334586E-01  0.20410391207E-01 -0.22721674342E-02  0.85321304907E-01  0.51100000000E-03 0. -1.
         11    1    4    4    0    0 -0.39912638601E-01  0.21537177397E-01  0.79720893413E-02  0.46050885548E-01  0.51100000000E-03 0.  1.
</event>
<event>
 8    1  0.1143957E+005  0.1043930E+01  0.7957747E-01            NaN
         13   -1    0    0    0    0  0.00000000000E+00  0.00000000000E+00  0.74505805969E-08  0.10566000000E+00  0.10566000000E+00 0.  1.
     999900   -1    0    0    0    0 -0.00000000000E+00 -0.00000000000E+00 -0.74505805969E-08  0.93827000000E+00  0.93827000000E+00 0. -1.
     999902    2    1    2    0    0 -0.12526622897E-01  0.82326621427E-02  0.16745253376E-01  0.10214556476E+01  0.10212083741E+01 0.  0.
     999903    2    3    3    0    0  0.28094441294E-01 -0.61094276518E-01  0.11235157369E+00  0.13263797010E+00  0.21169476746E-01 0.  0.
         14    1    1    2    0    0  0.12526622897E-01 -0.82326621427E-02 -0.16745253376E-01  0.22474352444E-01  0.00000000000E+00 0. -1.
     999901    1    3    3    0    0 -0.40621064191E-01  0.69326938661E-01 -0.95606320314E-01  0.88881767746E+00  0.88000000000E+00 0. -1.
        -11    1    4    4    0    0  0.29987331566E-01 -0.61130946715E-01  0.10596085357E+00  0.12595315125E+00  0.51100000000E-03 0.  1.
         11    1    4    4    0    0 -0.18928902721E-02  0.36670197007E-04  0.63907201216E-02  0.66848188425E-02  0.51100000000E-03 0. -1.
</event>
<event>
 8    1  0.1143957E+005  0.1043930E+01  0.7957747E-01            NaN
         13   -1    0    0    0    0  0.00000000000E+00  0.00000000000E+00  0.74505805969E-08  0.10566000000E+00  0.10566000000E+00 0. -1.
     999900   -1    0    0    0    0 -0.00000000000E+00 -0.00000000000E+00 -0.74505805969E-08  0.93827000000E+00  0.93827000000E+00 0. -1.
     999902    2    1    2    0    0 -0.10727362841E-01 -0.73644809614E-02 -0.20124440166E-01  0.10199653388E+01  0.10196837683E+01 0.  0.
     999903    2    3    3    0    0  0.76723482368E-02 -0.80248274697E-01 -0.10350757753E+00  0.13283324925E+00  0.20789492078E-01 0.  0.
         14    1    1    2    0    0  0.10727362841E-01  0.73644809614E-02  0.20124440166E-01  0.23964661178E-01  0.00000000000E+00 0. -1.
     999901    1    3    3    0    0 -0.18399711078E-01  0.72883793735E-01  0.83383137361E-01  0.88713208957E+00  0.88000000000E+00 0. -1.
        -11    1    4    4    0    0  0.13246598043E-01 -0.68981060375E-01 -0.82567775548E-01  0.10840460198E+00  0.51100000000E-03 0.  1.
         11    1    4    4    0    0 -0.55742498058E-02 -0.11267214322E-01 -0.20939801979E-01  0.24428647269E-01  0.51100000000E-03 0. -1.
</event>
<event>
 8    1  0.1143957E+005  0.1043930E+01  0.7957747E-01            NaN
         13   -1    0    0    0    0  0.00000000000E+00  0.00000000000E+00  0.74505805969E-08  0.10566000000E+00  0.10566000000E+00 0. -1.
     999900   -1    0    0    0    0 -0.00000000000E+00 -0.00000000000E+00 -0.74505805969E-08  0.93827000000E+00  0.93827000000E+00 0. -1.
     999902    2    1    2    0    0 -0.17288127953E-01  0.11040988676E-02  0.18028382987E-01  0.10189275802E+01  0.10186207796E+01 0.  0.
     999903    2    3    3    0    0 -0.84217124966E-01  0.65392480468E-01  0.75515120882E-01  0.13218228888E+00  0.20023071020E-01 0.  0.
         14    1    1    2    0    0  0.17288127953E-01 -0.11040988676E-02 -0.18028382987E-01  0.25002419794E-01  0.00000000000E+00 0.  1.
     999901    1    3    3    0    0  0.66928997014E-01 -0.64288381601E-01 -0.57486737895E-01  0.88674529132E+00  0.88000000000E+00 0. -1.
        -11    1    4    4    0    0 -0.25540337047E-01  0.17472605575E-01  0.11562846016E-01  0.33038784648E-01  0.51100000000E-03 0.  1.
         11    1    4    4    0    0 -0.58676787919E-01  0.47919874893E-01  0.63952274866E-01  0.99143504235E-01  0.51100000000E-03 0. -1.
</event>
<event>
 8    1  0.1143957E+005  0.1043930E+01  0.7957747E-01            NaN
         13   -1    0    0    0    0  0.00000000000E+00  0.00000000000E+00  0.74505805969E-08  0.10566000000E+00  0.10566000000E+00 0. -1.
     999900   -1    0    0    0    0 -0.00000000000E+00 -0.00000000000E+00 -0.74505805969E-08  0.93827000000E+00  0.93827000000E+00 0.  1.
     999902    2    1    2    0    0 -0.25078368927E-01 -0.58768383908E-02  0.43008927555E-02  0.10178156458E+01  0.10174805793E+01 0.  0.
     999903    2    3    3    0    0 -0.52732365673E-01 -0.49812765337E-01  0.10652795590E+00  0.13037805268E+00  0.19703229547E-01 0.  0.
         14    1    1    2    0    0  0.25078368927E-01  0.58768383908E-02 -0.43008927555E-02  0.26114354214E-01  0.00000000000E+00 0.  1.
     999901    1    3    3    0    0  0.27653996746E-01  0.43935926946E-01 -0.10222706314E+00  0.88743759310E+00  0.88000000000E+00 0.  1.
        -11    1    4    4    0    0 -0.17692704697E-01 -0.24805343446E-01  0.31178364534E-01  0.43596885198E-01  0.51100000000E-03 0.  1.
         11    1    4    4    0    0 -0.35039660976E-01 -0.25007421891E-01  0.75349591361E-01  0.86781167486E-01  0.51100000000E-03 0. -1.
</event>
<event>
 8    1  0.1143957E+005  0.1043930E+01  0.7957747E-01            NaN
         13   -1    0    0    0    0  0.00000000000E+00  0.00000000000E+00  0.74505805969E-08  0.10566000000E+00  0.10566000000E+00 0.  1.
     999900   -1    0    0    0    0 -0.00000000000E+00 -0.00000000000E+00 -0.74505805969E-08  0.93827000000E+00  0.93827000000E+00 0.  1.
     999902    2    1    2    0    0 -0.96625169004E-03 -0.14140597093E-01  0.20021516474E-01  0.10193993814E+01  0.10191041887E+01 0.  0.
     999903    2    3    3    0    0  0.29427595609E-01  0.56827650681E-01 -0.10786299860E+00  0.12681060296E+00  0.18738657653E-01 0.  0.
         14    1    1    2    0    0  0.96625169004E-03  0.14140597093E-01 -0.20021516474E-01  0.24530618631E-01  0.00000000000E+00 0.  1.
     999901    1    3    3    0    0 -0.30393847299E-01 -0.70968247775E-01  0.12788451508E+00  0.89258877841E+00  0.88000000000E+00 0. -1.
        -11    1    4    4    0    0 -0.95038495686E-03  0.12657221136E-01 -0.15773732728E-01  0.20252907041E-01  0.51100000000E-03 0.  1.
         11    1    4    4    0    0  0.30377980566E-01  0.44170429545E-01 -0.92089265873E-01  0.10655769592E+00  0.51100000000E-03 0. -1.
</event>
<event>
 8    1  0.1143957E+005  0.1043930E+01  0.7957747E-01            NaN
         13   -1    0    0    0    0  0.00000000000E+00  0.00000000000E+00  0.74505805969E-08  0.10566000000E+00  0.10566000000E+00 0.  1.
     999900   -1    0    0    0    0 -0.00000000000E+00 -0.00000000000E+00 -0.74505805969E-08  0.93827000000E+00  0.93827000000E+00 0. -1.
     999902    2    1    2    0    0 -0.89959762478E-02  0.23434124559E-01  0.50055825460E-02  0.10183342652E+01  0.10180125412E+01 0.  0.
     999903    2    3    3    0    0 -0.55760749044E-01  0.11563711542E+00 -0.15333165513E-01  0.13204875807E+00  0.26843340832E-01 0.  0.
         14    1    1    2    0    0  0.89959762478E-02 -0.23434124559E-01 -0.50055825460E-02  0.25595734784E-01  0.00000000000E+00 0.  1.
     999901    1    3    3    0    0  0.46764772796E-01 -0.92202990863E-01  0.20338748059E-01  0.88628550714E+00  0.88000000000E+00 0. -1.
        -11    1    4    4    0    0 -0.37198454556E-01  0.83623938556E-01  0.11551964537E-02  0.91532965214E-01  0.51100000000E-03 0.  1.
         11    1    4    4    0    0 -0.18562294488E-01  0.32013176865E-01 -0.16488361966E-01  0.40515792859E-01  0.51100000000E-03 0. -1.
</event>
<event>
 8    1  0.1143957E+005  0.1043930E+01  0.7957747E-01            NaN
         13   -1    0    0    0    0  0.00000000000E+00  0.00000000000E+00  0.74505805969E-08  0.10566000000E+00  0.10566000000E+00 0. -1.
     999900   -1    0    0    0    0 -0.00000000000E+00 -0.00000000000E+00 -0.74505805969E-08  0.93827000000E+00  0.93827000000E+00 0.  1.
     999902    2    1    2    0    0  0.18844593688E-02 -0.23217394312E-01 -0.46635762108E-02  0.10201740002E+01  0.10198973689E+01 0.  0.
     999903    2    3    3    0    0  0.11135152696E+00 -0.67274694425E-01  0.12069289024E-01  0.13214017571E+00  0.19756296021E-01 0.  0.
         14    1    1    2    0    0 -0.18844593688E-02  0.23217394312E-01  0.46635762108E-02  0.23755999849E-01  0.00000000000E+00 0. -1.
     999901    1    3    3    0    0 -0.10946706759E+00  0.44057300113E-01 -0.16732865234E-01  0.88803382445E+00  0.88000000000E+00 0.  1.
        -11    1    4    4    0    0  0.67719171075E-01 -0.50541286053E-01  0.31350635169E-02  0.84560022890E-01  0.51100000000E-03 0. -1.
         11    1    4    4    0    0  0.43632355882E-01 -0.16733408372E-01  0.89342255067E-02  0.47580152816E-01  0.51100000000E-03 0.  1.
</event>
<event>
 8    1  0.1143957E+005  0.1043930E+01  0.7957747E-01            NaN
         13   -1    0    0    0    0  0.00000000000E+00  0.00000000000E+00  0.74505805969E-08  0.10566000000E+00  0.10566000000E+00 0. -1.
     999900   -1    0    0    0    0 -0.00000000000E+00 -0.00000000000E+00 -0.74505805969E-08  0.93827000000E+00  0.93827000000E+00 0.  1.
     999902    2    1    2    0    0 -0.17105484265E-01 -0.13931276412E-01 -0.74493833784E-04  0.10218690933E+01  0.10216309315E+01 0.  0.
     999903    2    3    3    0    0 -0.11832393991E+00 -0.57864645030E-01 -0.18520494003E-01  0.13478647509E+00  0.21806266707E-01 0.  0.
         14    1    1    2    0    0  0.17105484265E-01  0.13931276412E-01  0.74493833784E-04  0.22060906685E-01  0.00000000000E+00 0. -1.
     999901    1    3    3    0    0  0.10121845565E+00  0.43933368617E-01  0.18446000169E-01  0.88708261823E+00  0.88000000000E+00 0. -1.
        -11    1    4    4    0    0 -0.47472382850E-01 -0.23713904720E-01 -0.18291018918E-01  0.56131977558E-01  0.51100000000E-03 0. -1.
         11    1    4    4    0    0 -0.70851557061E-01 -0.34150740310E-01 -0.22947508527E-03  0.78654497529E-01  0.51100000000E-03 0.  1.
</event>
<event>
 8    1  0.1143957E+005  0.1043930E+01  0.7957747E-01            NaN
         13   -1    0    0    0    0  0.00000000000E+00  0.00000000000E+00  0.74505805969E-08  0.10566000000E+00  0.10566000000E+00 0. -1.
     999900   -1    0    0    0    0 -0.00000000000E+00 -0.00000000000E+00 -0.74505805969E-08  0.93827000000E+00  0.93827000000E+00 0.  1.
     999902    2    1    2    0    0 -0.29809493237E-02  0.24459565921E-01  0.25825147410E-02  0.10191544918E+01  0.10188533027E+01 0.  0.
     999903    2    3    3    0    0  0.21063340699E-03  0.59810913139E-01 -0.11447334681E+00  0.13069403761E+00  0.19984860227E-01 0.  0.
         14    1    1    2    0    0  0.29809493237E-02 -0.24459565921E-01 -0.25825147410E-02  0.24775508195E-01  0.00000000000E+00 0.  1.
     999901    1    3    3    0    0 -0.31915827307E-02 -0.35351347218E-01  0.11705586155E+00  0.88846045420E+00  0.88000000000E+00 0. -1.
        -11    1    4    4    0    0 -0.74121323266E-02  0.29715734055E-01 -0.70467474624E-01  0.76836779324E-01  0.51100000000E-03 0.  1.
         11    1    4    4    0    0  0.76227657336E-02  0.30095179084E-01 -0.44005872190E-01  0.53857258283E-01  0.51100000000E-03 0. -1.
</event>
<event>
 8    1  0.1143957E+005  0.1043930E+01  0.7957747E-01            NaN
         13   -1    0    0    0    0  0.00000000000E+00  0.00000000000E+00  0.74505805969E-08  0.10566000000E+00  0.10566000000E+00 0. -1.
     999900   -1    0    0    0    0 -0.00000000000E+00 -0.00000000000E+00 -0.74505805969E-08  0.93827000000E+00  0.93827000000E+00 0. -1.
     999902    2    1    2    0    0 -0.18590606866E-01 -0.15706810762E-02 -0.15701018113E-01  0.10195455855E+01  0.10192539434E+01 0.  0.
     999903    2    3    3    0    0 -0.45353266235E-01  0.11104519600E+00  0.45257565611E-01  0.12987456501E+00  0.20765381706E-01 0.  0.
         14    1    1    2    0    0  0.18590606866E-01  0.15706810762E-02  0.15701018113E-01  0.24384414540E-01  0.00000000000E+00 0.  1.
     999901    1    3    3    0    0  0.26762659370E-01 -0.11261587708E+00 -0.60958583724E-01  0.88967102045E+00  0.88000000000E+00 0. -1.
        -11    1    4    4    0    0 -0.30865419342E-01  0.94104757860E-01  0.40924327861E-01  0.10716081977E+00  0.51100000000E-03 0.  1.
         11    1    4    4    0    0 -0.14487846894E-01  0.16940438141E-01  0.43332377505E-02  0.22713745231E-01  0.51100000000E-03 0. -1.
</event>
<event>
 8    1  0.1143957E+005  0.1043930E+01  0.7957747E-01            NaN
         13   -1    0    0    0    0  0.00000000000E+00  0.00000000000E+00  0.74505805969E-08  0.10566000000E+00  0.10566000000E+00 0. -1.
     999900   -1    0    0    0    0 -0.00000000000E+00 -0.00000000000E+00 -0.74505805969E-08  0.93827000000E+00  0.93827000000E+00 0.  1.
     999902    2    1    2    0    0 -0.21800753461E-02  0.13980740251E-01 -0.19004027392E-01  0.10202368178E+01  0.10199616647E+01 0.  0.
     999903    2    3    3    0    0  0.64833792666E-01 -0.10105445123E+00  0.40410277861E-01  0.12824241564E+00  0.19942513047E-01 0.  0.
         14    1    1    2    0    0  0.21800753461E-02 -0.13980740251E-01  0.19004027392E-01  0.23693182218E-01  0.00000000000E+00 0. -1.
     999901    1    3    3    0    0 -0.67013868012E-01  0.11503519148E+00 -0.59414305253E-01  0.89199440214E+00  0.88000000000E+00 0. -1.
        -11    1    4    4    0    0  0.15819316751E-01 -0.12130220794E-01  0.96000775691E-02  0.22131779172E-01  0.51100000000E-03 0. -1.
         11    1    4    4    0    0  0.49014475915E-01 -0.88924230440E-01  0.30810200292E-01  0.10611063647E+00  0.51100000000E-03 0.  1.
</event>
<event>
 8    1  0.1143957E+005  0.1043930E+01  0.7957747E-01            NaN
         13   -1    0    0    0    0  0.00000000000E+00  0.00000000000E+00  0.74505805969E-08  0.10566000000E+00  0.10566000000E+00 0. -1.
     999900   -1    0    0    0    0 -0.00000000000E+00 -0.00000000000E+00 -0.74505805969E-08  0.93827000000E+00  0.93827000000E+00 0.  1.
     999902    2    1    2    0    0 -0.38875397143E-02 -0.69321444895E-02  0.23046166579E-01  0.10195518666E+01  0.10192603766E+01 0.  0.
     999903    2    3    3    0    0  0.12635280107E+00 -0.11843059326E-01  0.18803053492E-01  0.12994258866E+00  0.20645414371E-01 0.  0.
         14    1    1    2    0    0  0.38875397143E-02  0.69321444895E-02 -0.23046166579E-01  0.24378133362E-01  0.00000000000E+00 0.  1.
     999901    1    3    3    0    0 -0.13024034079E+00  0.49109148364E-02  0.42431130869E-02  0.88960927798E+00  0.88000000000E+00 0.  1.
        -11    1    4    4    0    0  0.72779465898E-01 -0.13335122611E-01  0.29539103025E-02  0.74051757970E-01  0.51100000000E-03 0.  1.
         11    1    4    4    0    0  0.53573335174E-01  0.14920632851E-02  0.15849143189E-01  0.55890830691E-01  0.51100000000E-03 0. -1.
</event>
<event>
 8    1  0.1143957E+005  0.1043930E+01  0.7957747E-01            NaN
         13   -1    0    0    0    0  0.00000000000E+00  0.00000000000E+00  0.74505805969E-08  0.10566000000E+00  0.10566000000E+00 0.  1.
     999900   -1    0    0    0    0 -0.00000000000E+00 -0.00000000000E+00 -0.74505805969E-08  0.93827000000E+00  0.93827000000E+00 0.  1.
     999902    2    1    2    0    0 -0.19078856988E-01 -0.83625646906E-02 -0.12584994233E-01  0.10195924292E+01  0.10193019201E+01 0.  0.
     999903    2    3    3    0    0 -0.56996240066E-02  0.78716488609E-01  0.98880992696E-01  0.12819665199E+00  0.20692017120E-01 0.  0.
         14    1    1    2    0    0  0.19078856988E-01  0.83625646906E-02  0.12584994233E-01  0.24337570791E-01  0.00000000000E+00 0.  1.
     999901    1    3    3    0    0 -0.13379232982E-01 -0.87079053300E-01 -0.11146598693E+00  0.89139577722E+00  0.88000000000E+00 0. -1.
        -11    1    4    4    0    0 -0.83326226960E-02  0.20302973424E-01  0.17982735810E-01  0.28377512912E-01  0.51100000000E-03 0.  1.
         11    1    4    4    0    0  0.26329986894E-02  0.58413515186E-01  0.80898256886E-01  0.99819139080E-01  0.51100000000E-03 0. -1.
</event>
<event>
 8    1  0.1143957E+005  0.1043930E+01  0.7957747E-01            NaN
         13   -1    0    0    0    0  0.00000000000E+00  0.00000000000E+00  0.74505805969E-08  0.10566000000E+00  0.10566000000E+00 0.  1.
     999900   -1    0    0    0    0 -0.00000000000E+00 -0.00000000000E+00 -0.74505805969E-08  0.93827000000E+00  0.93827000000E+00 0. -1.
     999902    2    1    2    0    0 -0.10214809014E-01  0.22006239436E-01 -0.34510420016E-02  0.10194243560E+01  0.10191297714E+01 0.  0.
     999903    2    3    3    0    0 -0.91724566512E-01 -0.72772463232E-01  0.49483201573E-01  0.12901496858E+00  0.22069149815E-01 0.  0.
         14    1    1    2    0    0  0.10214809014E-01 -0.22006239436E-01  0.34510420016E-02  0.24505644007E-01  0.00000000000E+00 0.  1.
     999901    1    3    3    0    0  0.81509757497E-01  0.94778702668E-01 -0.52934243575E-01  0.89040938741E+00  0.88000000000E+00 0.  1.
        -11    1    4    4    0    0 -0.18721542752E-01 -0.54484402635E-02  0.46301133937E-02  0.20046963245E-01  0.51100000000E-03 0. -1.
         11    1    4    4    0    0 -0.73003023760E-01 -0.67324022969E-01  0.44853088180E-01  0.10896800534E+00  0.51100000000E-03 0.  1.
</event>
<event>
 8    1  0.1143957E+005  0.1043930E+01  0.7957747E-01            NaN
         13   -1    0    0    0    0  0.00000000000E+00  0.00000000000E+00  0.74505805969E-08  0.10566000000E+00  0.10566000000E+00 0. -1.
     999900   -1    0    0    0    0 -0.00000000000E+00 -0.00000000000E+00 -0.74505805969E-08  0.93827000000E+00  0.93827000000E+00 0. -1.
     999902    2    1    2    0    0 -0.17078879182E-01  0.16139821294E-01  0.10866602067E-01  0.10180405236E+01  0.10177112767E+01 0.  0.
     999903    2    3    3    0    0 -0.41071576264E-02  0.43216465350E-01  0.12133987908E+00  0.13062531353E+00  0.21332478956E-01 0.  0.
         14    1    1    2    0    0  0.17078879182E-01 -0.16139821294E-01 -0.10866602067E-01  0.25889476356E-01  0.00000000000E+00 0.  1.
     999901    1    3    3    0    0 -0.12971721556E-01 -0.27076644056E-01 -0.11047327701E+00  0.88741521012E+00  0.88000000000E+00 0. -1.
        -11    1    4    4    0    0 -0.51491723647E-02  0.60169227739E-02  0.45022568348E-01  0.45716628456E-01  0.51100000000E-03 0.  1.
         11    1    4    4    0    0  0.10420147383E-02  0.37199542576E-01  0.76317310729E-01  0.84908685071E-01  0.51100000000E-03 0. -1.
</event>
<event>
 8    1  0.1143957E+005  0.1043930E+01  0.7957747E-01            NaN
         13   -1    0    0    0    0  0.00000000000E+00  0.00000000000E+00  0.74505805969E-08  0.10566000000E+00  0.10566000000E+00 0. -1.
     999900   -1    0    0    0    0 -0.00000000000E+00 -0.00000000000E+00 -0.74505805969E-08  0.93827000000E+00  0.93827000000E+00 0. -1.
     999902    2    1    2    0    0  0.34332916892E-03  0.15502874253E-02  0.24011688982E-01  0.10198658675E+01  0.10195819267E+01 0.  0.
     999903    2    3    3    0    0  0.95105145563E-01 -0.85748935502E-01 -0.63558961640E-02  0.12996522899E+00  0.21276622786E-01 0.  0.
         14    1    1    2    0    0 -0.34332916892E-03 -0.15502874253E-02 -0.24011688982E-01  0.24064132517E-01  0.00000000000E+00 0.  1.
     999901    1    3    3    0    0 -0.94761816394E-01  0.87299222927E-01  0.30367585146E-01  0.88990063850E+00  0.88000000000E+00 0.  1.
        -11    1    4    4    0    0  0.48597160540E-01 -0.36460558651E-01  0.60987922515E-02  0.61061548765E-01  0.51100000000E-03 0. -1.
         11    1    4    4    0    0  0.46507985023E-01 -0.49288376850E-01 -0.12454688416E-01  0.68903680221E-01  0.51100000000E-03 0.  1.
</event>
<event>
 8    1  0.1143957E+005  0.1043930E+01  0.7957747E-01            NaN
         13   -1    0    0    0    0  0.00000000000E+00  0.00000000000E+00  0.74505805969E-08  0.10566000000E+00  0.10566000000E+00 0. -1.
     999900   -1    0    0    0    0 -0.00000000000E+00 -0.00000000000E+00 -0.74505805969E-08  0.93827000000E+00  0.93827000000E+00 0. -1.
     999902    2    1    2    0    0  0.43039122619E-02  0.23341922242E-01  0.69998051136E-03  0.10201842853E+01  0.10199078963E+01 0.  0.
     999903    2    3    3    0    0 -0.10834353755E+00  0.55729179007E-01  0.44805814554E-01  0.13131775596E+00  0.19817378492E-01 0.  0.
         14    1    1    2    0    0 -0.43039122619E-02 -0.23341922242E-01 -0.69998051136E-03  0.23745714717E-01  0.00000000000E+00 0. -1.
     999901    1    3    3    0    0  0.11264744982E+00 -0.32387256765E-01 -0.44105834042E-01  0.88886652932E+00  0.88000000000E+00 0. -1.
        -11    1    4    4    0    0 -0.33581921712E-01  0.15378497637E-01  0.23324472101E-01  0.43686791770E-01  0.51100000000E-03 0. -1.
         11    1    4    4    0    0 -0.74761615843E-01  0.40350681370E-01  0.21481342453E-01  0.87630964191E-01  0.51100000000E-03 0.  1.
</event>
<event>
 8    1  0.1143957E+005  0.1043930E+01  0.7957747E-01            NaN
         13   -1    0    0    0    0  0.00000000000E+00  0.00000000000E+00  0.74505805969E-08  0.10566000000E+00  0.10566000000E+00 0.  1.
     999900   -1    0    0    0    0 -0.00000000000E+00 -0.00000000000E+00 -0.74505805969E-08  0.93827000000E+00  0.93827000000E+00 0.  1.
     999902    2    1    2    0    0 -0.52243579608E-02 -0.20443088038E-01 -0.78519405872E-02  0.10214162989E+01  0.10211681492E+01 0.  0.
     999903    2    3    3    0    0  0.87578250067E-01  0.66273413122E-01  0.65319480003E-01  0.12929179394E+00  0.19688025280E-01 0.  0.
         14    1    1    2    0    0  0.52243579608E-02  0.20443088038E-01  0.78519405872E-02  0.22513701065E-01  0.00000000000E+00 0.  1.
     999901    1    3    3    0    0 -0.92802608028E-01 -0.86716501161E-01 -0.73171420590E-01  0.89212450500E+00  0.88000000000E+00 0. -1.
        -11    1    4    4    0    0  0.25223587400E-01  0.11137072352E-01  0.99346394560E-02  0.29312487509E-01  0.51100000000E-03 0. -1.
         11    1    4    4    0    0  0.62354662668E-01  0.55136340771E-01  0.55384840547E-01  0.99979306426E-01  0.51100000000E-03 0.  1.
</event>
<event>
 8    1  0.1143957E+005  0.1043930E+01  0.7957747E-01            NaN
         13   -1    0    0    0    0  0.00000000000E+00  0.00000000000E+00  0.74505805969E-08  0.10566000000E+00  0.10566000000E+00 0.  1.
     999900   -1    0    0    0    0 -0.00000000000E+00 -0.00000000000E+00 -0.74505805969E-08  0.93827000000E+00  0.93827000000E+00 0. -1.
     999902    2    1    2    0    0 -0.75700926759E-02  0.48529932950E-02  0.20641231983E-01  0.10214151537E+01  0.10211669784E+01 0.  0.
     999903    2    3    3    0    0  0.56240355104E-01  0.11724241025E+00  0.75792459847E-02  0.13187944907E+00  0.20639375374E-01 0.  0.
         14    1    1    2    0    0  0.75700926759E-02 -0.48529932950E-02 -0.20641231983E-01  0.22514846320E-01  0.00000000000E+00 0. -1.
     999901    1    3    3    0    0 -0.63810447780E-01 -0.11238941695E+00  0.13061985998E-01  0.88953570460E+00  0.88000000000E+00 0. -1.
        -11    1    4    4    0    0  0.33607557693E-01  0.46728797398E-01  0.16718276414E-02  0.57585628147E-01  0.51100000000E-03 0. -1.
         11    1    4    4    0    0  0.22632797411E-01  0.70513612849E-01  0.59074183433E-02  0.74293820928E-01  0.51100000000E-03 0.  1.
</event>
<event>
 8    1  0.1143957E+005  0.1043930E+01  0.7957747E-01            NaN
         13   -1    0    0    0    0  0.00000000000E+00  0.00000000000E+00  0.74505805969E-08  0.10566000000E+00  0.10566000000E+00 0.  1.
     999900   -1    0    0    0    0 -0.00000000000E+00 -0.00000000000E+00 -0.74505805969E-08  0.93827000000E+00  0.93827000000E+00 0.  1.
     999902    2    1    2    0    0 -0.18532625954E-01 -0.11065089063E-01 -0.87972247935E-02  0.10206215126E+01  0.10203553236E+01 0.  0.
     999903    2    3    3    0    0  0.47351513001E-01 -0.60789105985E-01 -0.10460818104E+00  0.13158105404E+00  0.20813962912E-01 0.  0.
         14    1    1    2    0    0  0.18532625954E-01  0.11065089063E-01  0.87972247935E-02  0.23308487398E-01  0.00000000000E+00 0.  1.
     999901    1    3    3    0    0 -0.65884138954E-01  0.49724016921E-01  0.95810956245E-01  0.88904045856E+00  0.88000000000E+00 0. -1.
        -11    1    4    4    0    0  0.45022619693E-01 -0.50220216484E-01 -0.79645009190E-01  0.10436807480E+00  0.51100000000E-03 0.  1.
         11    1    4    4    0    0  0.23288933076E-02 -0.10568889500E-01 -0.24963171848E-01  0.27212979238E-01  0.51100000000E-03 0. -1.
</event>
<event>
 8    1  0.1143957E+005  0.1043930E+01  0.7957747E-01            NaN
         13   -1    0    0    0    0  0.00000000000E+00  0.00000000000E+00  0.74505805969E-08  0.10566000000E+00  0.10566000000E+00 0. -1.
     999900   -1    0    0    0    0 -0.00000000000E+00 -0.00000000000E+00 -0.74505805969E-08  0.93827000000E+00  0.93827000000E+00 0.  1.
     999902    2    1    2    0    0 -0.56408805747E-02 -0.16494084013E-01 -0.15257512702E-01  0.10207639465E+01  0.10205010379E+01 0.  0.
     999903    2    3    3    0    0 -0.71860830092E-01 -0.10070384315E+00 -0.46532097842E-01  0.13371577141E+00  0.20234338824E-01 0.  0.
         14    1    1    2    0    0  0.56408805747E-02  0.16494084013E-01  0.15257512702E-01  0.23166053504E-01  0.00000000000E+00 0. -1.
     999901    1    3    3    0    0  0.66219949517E-01  0.84209759136E-01  0.31274585140E-01  0.88704817509E+00  0.88000000000E+00 0. -1.
        -11    1    4    4    0    0 -0.39035232331E-01 -0.42221246139E-01 -0.28963396388E-01  0.64385731649E-01  0.51100000000E-03 0.  1.
         11    1    4    4    0    0 -0.32825597761E-01 -0.58482597011E-01 -0.17568701454E-01  0.69330039761E-01  0.51100000000E-03 0. -1.
</event>
<event>
 8    1  0.1143957E+005  0.1043930E+01  0.7957747E-01            NaN
         13   -1    0    0    0    0  0.00000000000E+00  0.00000000000E+00  0.74505805969E-08  0.10566000000E+00  0.10566000000E+00 0.  1.
     999900   -1    0    0    0    0 -0.00000000000E+00 -0.00000000000E+00 -0.74505805969E-08  0.93827000000E+00  0.93827000000E+00 0. -1.
     999902    2    1    2    0    0  0.21585523755E-01  0.90549498240E-02 -0.94579767258E-03  0.10205030607E+01  0.10202341277E+01 0.  0.
     999903    2    3    3    0    0 -0.57868909730E-01 -0.86094121150E-01  0.73416398121E-01  0.12870931275E+00  0.20374279501E-01 0.  0.
         14    1    1    2    0    0 -0.21585523755E-01 -0.90549498240E-02  0.94579767258E-03  0.23426939308E-01  0.00000000000E+00 0. -1.
     999901    1    3    3    0    0  0.79454433486E-01  0.95149070974E-01 -0.74362195794E-01  0.89179374794E+00  0.88000000000E+00 0.  1.
        -11    1    4    4    0    0 -0.25647444090E-01 -0.46475272132E-01  0.48418617340E-01  0.71849606361E-01  0.51100000000E-03 0.  1.
         11    1    4    4    0    0 -0.32221465640E-01 -0.39618849017E-01  0.24997780781E-01  0.56859706387E-01  0.51100000000E-03 0. -1.
</event>
<event>
 8    1  0.1143957E+005  0.1043930E+01  0.7957747E-01            NaN
         13   -1    0    0    0    0  0.00000000000E+00  0.00000000000E+00  0.74505805969E-08  0.10566000000E+00  0.10566000000E+00 0. -1.
     999900   -1    0    0    0    0 -0.00000000000E+00 -0.00000000000E+00 -0.74505805969E-08  0.93827000000E+00  0.93827000000E+00 0. -1.
     999902    2    1    2    0    0 -0.17872417989E-01  0.65066497687E-02 -0.15297638364E-01  0.10195214450E+01  0.10192292182E+01 0.  0.
     999903    2    3    3    0    0  0.91884222889E-01 -0.74569300813E-01  0.42206103384E-01  0.12715016003E+00  0.19558041676E-01 0.  0.
         14    1    1    2    0    0  0.17872417989E-01 -0.65066497687E-02  0.15297638364E-01  0.24408554965E-01  0.00000000000E+00 0. -1.
     999901    1    3    3    0    0 -0.10975664088E+00  0.81075950582E-01 -0.57503741747E-01  0.89237128500E+00  0.88000000000E+00 0.  1.
        -11    1    4    4    0    0  0.39261035926E-01 -0.44326188754E-01  0.19461821962E-01  0.62331882585E-01  0.51100000000E-03 0.  1.
         11    1    4    4    0    0  0.52623186962E-01 -0.30243112058E-01  0.22744281422E-01  0.64818277449E-01  0.51100000000E-03 0. -1.
</event>
<event>
 8    1  0.1143957E+005  0.1043930E+01  0.7957747E-01            NaN
         13   -1    0    0    0    0  0.00000000000E+00  0.00000000000E+00  0.74505805969E-08  0.10566000000E+00  0.10566000000E+00 0.  1.
     999900   -1    0    0    0    0 -0.00000000000E+00 -0.00000000000E+00 -0.74505805969E-08  0.93827000000E+00  0.93827000000E+00 0.  1.
     999902    2    1    2    0    0 -0.58050312752E-02  0.11866661597E-01  0.24588561283E-01  0.10160173973E+01  0.10156339095E+01 0.  0.
     999903    2    3    3    0    0 -0.19069973849E-02 -0.25253490884E-01 -0.11917429199E+00  0.12357083955E+00  0.20636498618E-01 0.  0.
         14    1    1    2    0    0  0.58050312752E-02 -0.11866661597E-01 -0.24588561283E-01  0.27912602737E-01  0.00000000000E+00 0. -1.
     999901    1    3    3    0    0 -0.38980338903E-02  0.37120152481E-01  0.14376285327E+00  0.89244655771E+00  0.88000000000E+00 0. -1.
        -11    1    4    4    0    0  0.25570932187E-02 -0.24269677566E-01 -0.69077863470E-01  0.73263690308E-01  0.51100000000E-03 0.  1.
         11    1    4    4    0    0 -0.44640906036E-02 -0.98381331752E-03 -0.50096428521E-01  0.50307149245E-01  0.51100000000E-03 0. -1.
</event>
<event>
 8    1  0.1143957E+005  0.1043930E+01  0.7957747E-01            NaN
         13   -1    0    0    0    0  0.00000000000E+00  0.00000000000E+00  0.74505805969E-08  0.10566000000E+00  0.10566000000E+00 0. -1.
     999900   -1    0    0    0    0 -0.00000000000E+00 -0.00000000000E+00 -0.74505805969E-08  0.93827000000E+00  0.93827000000E+00 0.  1.
     999902    2    1    2    0    0  0.14185344604E-01 -0.13642484327E-01  0.13901026857E-01  0.10198347738E+01  0.10195500899E+01 0.  0.
     999903    2    3    3    0    0  0.38814077276E-01 -0.73468660255E-01  0.10274826960E+00  0.13299793513E+00  0.15068749384E-01 0.  0.
         14    1    1    2    0    0 -0.14185344604E-01  0.13642484327E-01 -0.13901026857E-01  0.24095226245E-01  0.00000000000E+00 0.  1.
     999901    1    3    3    0    0 -0.24628732673E-01  0.59826175928E-01 -0.88847242745E-01  0.88683683863E+00  0.88000000000E+00 0.  1.
        -11    1    4    4    0    0  0.14157426260E-01 -0.32824534916E-01  0.33448811256E-01  0.48958828685E-01  0.51100000000E-03 0.  1.
         11    1    4    4    0    0  0.24656651017E-01 -0.40644125339E-01  0.69299458347E-01  0.84039106445E-01  0.51100000000E-03 0. -1.
</event>
<event>
 8    1  0.1143957E+005  0.1043930E+01  0.7957747E-01            NaN
         13   -1    0    0    0    0  0.00000000000E+00  0.00000000000E+00  0.74505805969E-08  0.10566000000E+00  0.10566000000E+00 0.  1.
     999900   -1    0    0    0    0 -0.00000000000E+00 -0.00000000000E+00 -0.74505805969E-08  0.93827000000E+00  0.93827000000E+00 0.  1.
     999902    2    1    2    0    0  0.16480188732E-01 -0.12481729708E-01 -0.98535155477E-02  0.10210284287E+01  0.10207715564E+01 0.  0.
     999903    2    3    3    0    0 -0.90684530930E-01  0.28094567255E-01 -0.86932872772E-01  0.13025800921E+00  0.19920736323E-01 0.  0.
         14    1    1    2    0    0 -0.16480188732E-01  0.12481729708E-01  0.98535155477E-02  0.22901571251E-01  0.00000000000E+00 0.  1.
     999901    1    3    3    0    0  0.10716471966E+00 -0.40576296962E-01  0.77079357224E-01  0.89077041954E+00  0.88000000000E+00 0. -1.
        -11    1    4    4    0    0 -0.76020811343E-01  0.26327771534E-01 -0.81479346913E-01  0.11450528549E+00  0.51100000000E-03 0.  1.
         11    1    4    4    0    0 -0.14663719587E-01  0.17667957210E-02 -0.54535258595E-02  0.15752723718E-01  0.51100000000E-03 0. -1.
</event>
<event>
 8    1  0.1143957E+005  0.1043930E+01  0.7957747E-01            NaN
         13   -1    0    0    0    0  0.00000000000E+00  0.00000000000E+00  0.74505805969E-08  0.10566000000E+00  0.10566000000E+00 0.  1.
     999900   -1    0    0    0    0 -0.00000000000E+00 -0.00000000000E+00 -0.74505805969E-08  0.93827000000E+00  0.93827000000E+00 0. -1.
     999902    2    1    2    0    0  0.22674223188E-01  0.76323235474E-02 -0.60440181245E-03  0.10199980535E+01  0.10197172604E+01 0.  0.
     999903    2    3    3    0    0  0.12623819842E+00 -0.35730506924E-01  0.69492147819E-03  0.13286361036E+00  0.20964354907E-01 0.  0.
         14    1    1    2    0    0 -0.22674223188E-01 -0.76323235474E-02  0.60440181245E-03  0.23931946462E-01  0.00000000000E+00 0.  1.
     999901    1    3    3    0    0 -0.10356397523E+00  0.43362830471E-01 -0.12993232906E-02  0.88713444318E+00  0.88000000000E+00 0. -1.
        -11    1    4    4    0    0  0.34297938764E-01 -0.10276100414E-01  0.95321820857E-02  0.37054965383E-01  0.51100000000E-03 0.  1.
         11    1    4    4    0    0  0.91940259655E-01 -0.25454406510E-01 -0.88372606075E-02  0.95808644977E-01  0.51100000000E-03 0. -1.
</event>
<event>
 8    1  0.1143957E+005  0.1043930E+01  0.7957747E-01            NaN
         13   -1    0    0    0    0  0.00000000000E+00  0.00000000000E+00  0.74505805969E-08  0.10566000000E+00  0.10566000000E+00 0. -1.
     999900   -1    0    0    0    0 -0.00000000000E+00 -0.00000000000E+00 -0.74505805969E-08  0.93827000000E+00  0.93827000000E+00 0.  1.
     999902    2    1    2    0    0  0.45701481833E-03  0.17963987052E-01 -0.15451518729E-01  0.10202305670E+01  0.10199552670E+01 0.  0.
     999903    2    3    3    0    0  0.87461981556E-01 -0.82841590980E-01 -0.43780441131E-01  0.12976206299E+00  0.20227173585E-01 0.  0.
         14    1    1    2    0    0 -0.45701481833E-03 -0.17963987052E-01  0.15451518729E-01  0.23699432997E-01  0.00000000000E+00 0. -1.
     999901    1    3    3    0    0 -0.87004966738E-01  0.10080557803E+00  0.28328922403E-01  0.89046850402E+00  0.88000000000E+00 0.  1.
        -11    1    4    4    0    0  0.39476921855E-01 -0.30704691276E-01 -0.89662536466E-02  0.50812008925E-01  0.51100000000E-03 0.  1.
         11    1    4    4    0    0  0.47985059701E-01 -0.52136899704E-01 -0.34814187485E-01  0.78950054063E-01  0.51100000000E-03 0. -1.
</event>
<event>
 8    1  0.1143957E+005  0.1043930E+01  0.7957747E-01            NaN
         13   -1    0    0    0    0  0.00000000000E+00  0.00000000000E+00  0.74505805969E-08  0.10566000000E+00  0.10566000000E+00 0. -1.
     999900   -1    0    0    0    0 -0.00000000000E+00 -0.00000000000E+00 -0.74505805969E-08  0.93827000000E+00  0.93827000000E+00 0. -1.
     999902    2    1    2    0    0  0.66375525798E-02 -0.25638922717E-02 -0.22067660582E-01  0.10207435321E+01  0.10204801547E+01 0.  0.
     999903    2    3    3    0    0 -0.11776456953E+00  0.14217220138E-01  0.46964040230E-01  0.12915906086E+00  0.20144943378E-01 0.  0.
         14    1    1    2    0    0 -0.66375525798E-02  0.25638922717E-02  0.22067660582E-01  0.23186467851E-01  0.00000000000E+00 0. -1.
     999901    1    3    3    0    0  0.12440212211E+00 -0.16781112410E-01 -0.69031700812E-01  0.89158447128E+00  0.88000000000E+00 0. -1.
        -11    1    4    4    0    0 -0.45577957632E-01 -0.33391646221E-02  0.13327478851E-01  0.47606544254E-01  0.51100000000E-03 0. -1.
         11    1    4    4    0    0 -0.72186611898E-01  0.17556384760E-01  0.33636561379E-01  0.81552516610E-01  0.51100000000E-03 0.  1.
</event>
<event>
 8    1  0.1143957E+005  0.1043930E+01  0.7957747E-01            NaN
         13   -1    0    0    0    0  0.00000000000E+00  0.00000000000E+00  0.74505805969E-08  0.10566000000E+00  0.10566000000E+00 0.  1.
     999900   -1    0    0    0    0 -0.00000000000E+00 -0.00000000000E+00 -0.74505805969E-08  0.93827000000E+00  0.93827000000E+00 0. -1.
     999902    2    1    2    0    0 -0.17400141337E-01 -0.97677391867E-02  0.13160429111E-01  0.10200266416E+01  0.10197465269E+01 0.  0.
     999903    2    3    3    0    0  0.22552861513E-02 -0.12724552661E+00 -0.25153226260E-01  0.13117609032E+00  0.19441489670E-01 0.  0.
         14    1    1    2    0    0  0.17400141337E-01  0.97677391867E-02 -0.13160429111E-01  0.23903358378E-01  0.00000000000E+00 0. -1.
     999901    1    3    3    0    0 -0.19655427489E-01  0.11747778743E+00  0.38313655371E-01  0.88885055131E+00  0.88000000000E+00 0.  1.
        -11    1    4    4    0    0 -0.40462653125E-02 -0.27538892616E-01 -0.12337532289E-01  0.30450594304E-01  0.51100000000E-03 0.  1.
         11    1    4    4    0    0  0.63015514638E-02 -0.99706633997E-01 -0.12815693971E-01  0.10072549601E+00  0.51100000000E-03 0. -1.
</event>
<event>
 8    1  0.1143957E+005  0.1043930E+01  0.7957747E-01            NaN
         13   -1    0    0    0    0  0.00000000000E+00  0.00000000000E+00  0.74505805969E-08  0.10566000000E+00  0.10566000000E+00 0.  1.
     999900   -1    0    0    0    0 -0.00000000000E+00 -0.00000000000E+00 -0.74505805969E-08  0.93827000000E+00  0.93827000000E+00 0.  1.
     999902    2    1    2    0    0  0.19048761064E-01 -0.11695859431E-01  0.88146393117E-02  0.10199019686E+01  0.10196188892E+01 0.  0.
     999903    2    3    3    0    0  0.11562178393E+00 -0.28923844072E-01  0.56150561653E-01  0.13318677097E+00  0.19515243092E-01 0.  0.
         14    1    1    2    0    0 -0.19048761064E-01  0.11695859431E-01 -0.88146393117E-02  0.24028031382E-01  0.00000000000E+00 0. -1.
     999901    1    3    3    0    0 -0.96573022861E-01  0.17227984642E-01 -0.47335922341E-01  0.88671519765E+00  0.88000000000E+00 0. -1.
        -11    1    4    4    0    0  0.40476669690E-01 -0.81036280744E-02  0.96471465232E-02  0.42395260752E-01  0.51100000000E-03 0. -1.
         11    1    4    4    0    0  0.75145114236E-01 -0.20820215998E-01  0.46503415130E-01  0.90791510217E-01  0.51100000000E-03 0.  1.
</event>
<event>
 8    1  0.1143957E+005  0.1043930E+01  0.7957747E-01            NaN
         13   -1    0    0    0    0  0.00000000000E+00  0.00000000000E+00  0.74505805969E-08  0.10566000000E+00  0.10566000000E+00 0.  1.
     999900   -1    0    0    0    0 -0.00000000000E+00 -0.00000000000E+00 -0.74505805969E-08  0.93827000000E+00  0.93827000000E+00 0. -1.
     999902    2    1    2    0    0 -0.22921122315E-02  0.11801187775E-02 -0.26378317195E-01  0.10174259989E+01  0.10170807249E+01 0.  0.
     999903    2    3    3    0    0 -0.15821980861E-01 -0.10513122445E+00  0.64777816583E-01  0.12625003431E+00  0.20976086609E-01 0.  0.
         14    1    1    2    0    0  0.22921122315E-02 -0.11801187775E-02  0.26378317195E-01  0.26504001148E-01  0.00000000000E+00 0.  1.
     999901    1    3    3    0    0  0.13529868629E-01  0.10631134323E+00 -0.91156133777E-01  0.89117596454E+00  0.88000000000E+00 0. -1.
        -11    1    4    4    0    0  0.13493566403E-02 -0.60793651389E-01  0.36930467052E-01  0.71146393656E-01  0.51100000000E-03 0. -1.
         11    1    4    4    0    0 -0.17171337501E-01 -0.44337573066E-01  0.27847349530E-01  0.55103640658E-01  0.51100000000E-03 0.  1.
</event>
<event>
 8    1  0.1143957E+005  0.1043930E+01  0.7957747E-01            NaN
         13   -1    0    0    0    0  0.00000000000E+00  0.00000000000E+00  0.74505805969E-08  0.10566000000E+00  0.10566000000E+00 0.  1.
     999900   -1    0    0    0    0 -0.00000000000E+00 -0.00000000000E+00 -0.74505805969E-08  0.93827000000E+00  0.93827000000E+00 0.  1.
     999902    2    1    2    0    0 -0.19787057159E-01 -0.56063577607E-02  0.10905436605E-01  0.10206515244E+01  0.10203860283E+01 0.  0.
     999903    2    3    3    0    0  0.77609476574E-01 -0.63797004327E-01 -0.78106310180E-01  0.12891427208E+00  0.20615655212E-01 0.  0.
         14    1    1    2    0    0  0.19787057159E-01  0.56063577607E-02 -0.10905436605E-01  0.23278475592E-01  0.00000000000E+00 0. -1.
     999901    1    3    3    0    0 -0.97396533732E-01  0.58190646566E-01  0.89011746785E-01  0.89173725233E+00  0.88000000000E+00 0. -1.
        -11    1    4    4    0    0  0.90205732275E-02 -0.51612030633E-02 -0.17005951441E-01  0.19936706444E-01  0.51100000000E-03 0.  1.
         11    1    4    4    0    0  0.68588903346E-01 -0.58635801264E-01 -0.61100358739E-01  0.10897756563E+00  0.51100000000E-03 0. -1.
</event>
<event>
 8    1  0.1143957E+005  0.1043930E+01  0.7957747E-01            NaN
         13   -1    0    0    0    0  0.00000000000E+00  0.00000000000E+00  0.74505805969E-08  0.10566000000E+00  0.10566000000E+00 0. -1.
     999900   -1    0    0    0    0 -0.00000000000E+00 -0.00000000000E+00 -0.74505805969E-08  0.93827000000E+00  0.93827000000E+00 0.  1.
     999902    2    1    2    0    0 -0.22786289212E-01 -0.23523448827E-02  0.52169853839E-02  0.10204360553E+01  0.10201655637E+01 0.  0.
     999903    2    3    3    0    0  0.11913434720E+00  0.39248486417E-01  0.15101949960E-01  0.12804051027E+00  0.20805456274E-01 0.  0.
         14    1    1    2    0    0  0.22786289212E-01  0.23523448827E-02 -0.52169853839E-02  0.23493944730E-01  0.00000000000E+00 0. -1.
     999901    1    3    3    0    0 -0.14192063641E+00 -0.41600831300E-01 -0.98849645762E-02  0.89239554500E+00  0.88000000000E+00 0.  1.
        -11    1    4    4    0    0  0.55013012205E-01  0.12597098087E-01 -0.21789602193E-02  0.56481212635E-01  0.51100000000E-03 0. -1.
         11    1    4    4    0    0  0.64121334991E-01  0.26651388331E-01  0.17280910179E-01  0.71559297639E-01  0.51100000000E-03 0.  1.
</event>
<event>
 8    1  0.1143957E+005  0.1043930E+01  0.7957747E-01            NaN
         13   -1    0    0    0    0  0.00000000000E+00  0.00000000000E+00  0.74505805969E-08  0.10566000000E+00  0.10566000000E+00 0.  1.
     999900   -1    0    0    0    0 -0.00000000000E+00 -0.00000000000E+00 -0.74505805969E-08  0.93827000000E+00  0.93827000000E+00 0. -1.
     999902    2    1    2    0    0  0.66408617008E-02  0.21537978998E-01 -0.56998177802E-02  0.10206819139E+01  0.10204171186E+01 0.  0.
     999903    2    3    3    0    0 -0.32766220241E-01 -0.12216953756E+00  0.31255833807E-03  0.12813448264E+00  0.20477471836E-01 0.  0.
         14    1    1    2    0    0 -0.66408617008E-02 -0.21537978998E-01  0.56998177802E-02  0.23248086075E-01  0.00000000000E+00 0.  1.
     999901    1    3    3    0    0  0.39407081942E-01  0.14370751656E+00 -0.60123761182E-02  0.89254743128E+00  0.88000000000E+00 0.  1.
        -11    1    4    4    0    0 -0.19687673007E-01 -0.42488793091E-01 -0.56254626324E-02  0.47167880571E-01  0.51100000000E-03 0.  1.
         11    1    4    4    0    0 -0.13078547234E-01 -0.79680744469E-01  0.59380209705E-02  0.80966602071E-01  0.51100000000E-03 0. -1.
</event>
<event>
 8    1  0.1143957E+005  0.1043930E+01  0.7957747E-01            NaN
         13   -1    0    0    0    0  0.00000000000E+00  0.00000000000E+00  0.74505805969E-08  0.10566000000E+00  0.10566000000E+00 0. -1.
     999900   -1    0    0    0    0 -0.00000000000E+00 -0.00000000000E+00 -0.74505805969E-08  0.93827000000E+00  0.93827000000E+00 0.  1.
     999902    2    1    2    0    0  0.21797961247E-01  0.13892228642E-01  0.14878811328E-01  0.10141051084E+01  0.10136664376E+01 0.  0.
     999903    2    3    3    0    0  0.78692832589E-01  0.23581166949E-01 -0.92491432125E-01  0.12570245698E+00  0.22311641319E-01 0.  0.
         14    1    1    2    0    0 -0.21797961247E-01 -0.13892228642E-01 -0.14878811328E-01  0.29824891579E-01  0.00000000000E+00 0. -1.
     999901    1    3    3    0    0 -0.56894871342E-01 -0.96889383071E-02  0.10737024345E+00  0.88840265144E+00  0.88000000000E+00 0. -1.
        -11    1    4    4    0    0  0.62730021520E-01  0.23553694966E-01 -0.84498817933E-01  0.10784314303E+00  0.51100000000E-03 0. -1.
         11    1    4    4    0    0  0.15962811069E-01  0.27471983197E-04 -0.79926141920E-02  0.17859313944E-01  0.51100000000E-03 0.  1.
</event>
<event>
 8    1  0.1143957E+005  0.1043930E+01  0.7957747E-01            NaN
         13   -1    0    0    0    0  0.00000000000E+00  0.00000000000E+00  0.74505805969E-08  0.10566000000E+00  0.10566000000E+00 0.  1.
     999900   -1    0    0    0    0 -0.00000000000E+00 -0.00000000000E+00 -0.74505805969E-08  0.93827000000E+00  0.93827000000E+00 0. -1.
     999902    2    1    2    0    0  0.23869776487E-02 -0.19588332975E-01 -0.11996253644E-01  0.10208364825E+01  0.10205752365E+01 0.  0.
     999903    2    3    3    0    0 -0.21369639278E-01 -0.12726891448E+00 -0.29035075212E-01  0.13379093350E+00  0.20073370884E-01 0.  0.
         14    1    1    2    0    0 -0.23869776487E-02  0.19588332975E-01  0.11996253644E-01  0.23093517543E-01  0.00000000000E+00 0.  1.
     999901    1    3    3    0    0  0.23756616927E-01  0.10768058151E+00  0.17038821567E-01  0.88704554896E+00  0.88000000000E+00 0. -1.
        -11    1    4    4    0    0 -0.30516673358E-02 -0.75382046215E-01 -0.13848158584E-01  0.76705920125E-01  0.51100000000E-03 0. -1.
         11    1    4    4    0    0 -0.18317971942E-01 -0.51886868266E-01 -0.15186916628E-01  0.57085013376E-01  0.51100000000E-03 0.  1.
</event>
<event>
 8    1  0.1143957E+005  0.1043930E+01  0.7957747E-01            NaN
         13   -1    0    0    0    0  0.00000000000E+00  0.00000000000E+00  0.74505805969E-08  0.10566000000E+00  0.10566000000E+00 0. -1.
     999900   -1    0    0    0    0 -0.00000000000E+00 -0.00000000000E+00 -0.74505805969E-08  0.93827000000E+00  0.93827000000E+00 0.  1.
     999902    2    1    2    0    0  0.13405656258E-01 -0.12939861384E-02 -0.20200619763E-01  0.10196513868E+01  0.10193623004E+01 0.  0.
     999903    2    3    3    0    0 -0.59768731337E-02 -0.10926663050E+00 -0.68813520155E-01  0.13150894977E+00  0.24174030694E-01 0.  0.
         14    1    1    2    0    0 -0.13405656258E-01  0.12939861384E-02  0.20200619763E-01  0.24278613195E-01  0.00000000000E+00 0. -1.
     999901    1    3    3    0    0  0.19382529392E-01  0.10797264436E+00  0.48612900392E-01  0.88814243703E+00  0.88000000000E+00 0. -1.
        -11    1    4    4    0    0 -0.47692316617E-02 -0.58397460926E-01 -0.50735085639E-01  0.77506896783E-01  0.51100000000E-03 0. -1.
         11    1    4    4    0    0 -0.12076414720E-02 -0.50869169577E-01 -0.18078434516E-01  0.54002052988E-01  0.51100000000E-03 0.  1.
</event>
<event>
 8    1  0.1143957E+005  0.1043930E+01  0.7957747E-01            NaN
         13   -1    0    0    0    0  0.00000000000E+00  0.00000000000E+00  0.74505805969E-08  0.10566000000E+00  0.10566000000E+00 0.  1.
     999900   -1    0    0    0    0 -0.00000000000E+00 -0.00000000000E+00 -0.74505805969E-08  0.93827000000E+00  0.93827000000E+00 0. -1.
     999902    2    1    2    0    0 -0.12122025143E-01 -0.16054246509E-01  0.10406251658E-01  0.10212811060E+01  0.10210299335E+01 0.  0.
     999903    2    3    3    0    0  0.68208330564E-01  0.87599521740E-01  0.64515101030E-01  0.12991987886E+00  0.19771800497E-01 0.  0.
         14    1    1    2    0    0  0.12122025143E-01  0.16054246509E-01 -0.10406251658E-01  0.22648893970E-01  0.00000000000E+00 0. -1.
     999901    1    3    3    0    0 -0.80330355706E-01 -0.10365376825E+00 -0.54108849372E-01  0.89136122717E+00  0.88000000000E+00 0. -1.
        -11    1    4    4    0    0  0.37339373136E-01  0.52094653219E-01  0.26209086492E-01  0.69247808744E-01  0.51100000000E-03 0. -1.
         11    1    4    4    0    0  0.30868957428E-01  0.35504868521E-01  0.38306014538E-01  0.60672070116E-01  0.51100000000E-03 0.  1.
</event>
<event>
 8    1  0.1143957E+005  0.1043930E+01  0.7957747E-01            NaN
         13   -1    0    0    0    0  0.00000000000E+00  0.00000000000E+00  0.74505805969E-08  0.10566000000E+00  0.10566000000E+00 0.  1.
     999900   -1    0    0    0    0 -0.00000000000E+00 -0.00000000000E+00 -0.74505805969E-08  0.93827000000E+00  0.93827000000E+00 0. -1.
     999902    2    1    2    0    0  0.77229016023E-02 -0.22544754255E-01  0.41448641081E-02  0.10197413859E+01  0.10194544644E+01 0.  0.
     999903    2    3    3    0    0  0.14885889160E-01 -0.13060925677E+00 -0.27098354253E-02  0.13307559091E+00  0.20528079285E-01 0.  0.
         14    1    1    2    0    0 -0.77229016023E-02  0.22544754255E-01 -0.41448641081E-02  0.24188614099E-01  0.00000000000E+00 0. -1.
     999901    1    3    3    0    0 -0.71629875580E-02  0.10806450251E+00  0.68546995333E-02  0.88666579499E+00  0.88000000000E+00 0. -1.
        -11    1    4    4    0    0  0.15161532128E-01 -0.54499622482E-01  0.37125857859E-02  0.56693256401E-01  0.51100000000E-03 0. -1.
         11    1    4    4    0    0 -0.27564296813E-03 -0.76109634288E-01 -0.64224212112E-02  0.76382334513E-01  0.51100000000E-03 0.  1.
</event>
<event>
 8    1  0.1143957E+005  0.1043930E+01  0.7957747E-01            NaN
         13   -1    0    0    0    0  0.00000000000E+00  0.00000000000E+00  0.74505805969E-08  0.10566000000E+00  0.10566000000E+00 0. -1.
     999900   -1    0    0    0    0 -0.00000000000E+00 -0.00000000000E+00 -0.74505805969E-08  0.93827000000E+00  0.93827000000E+00 0.  1.
     999902    2    1    2    0    0 -0.59870193889E-02  0.21009711236E-01  0.59952132239E-02  0.10212761935E+01  0.10210249108E+01 0.  0.
     999903    2    3    3    0    0  0.53409154067E-01 -0.10455859065E+00  0.51853681625E-01  0.12920091473E+00  0.14799846419E-01 0.  0.
         14    1    1    2    0    0  0.59870193889E-02 -0.21009711236E-01 -0.59952132239E-02  0.22653806501E-01  0.00000000000E+00 0.  1.
     999901    1    3    3    0    0 -0.59396173456E-01  0.12556830188E+00 -0.45858468401E-01  0.89207527876E+00  0.88000000000E+00 0.  1.
        -11    1    4    4    0    0  0.34542712348E-01 -0.52311004141E-01  0.30112569993E-01  0.69546158220E-01  0.51100000000E-03 0. -1.
         11    1    4    4    0    0  0.18866441719E-01 -0.52247586506E-01  0.21741111632E-01  0.59654756515E-01  0.51100000000E-03 0.  1.
</event>
<event>
 8    1  0.1143957E+005  0.1043930E+01  0.7957747E-01            NaN
         13   -1    0    0    0    0  0.00000000000E+00  0.00000000000E+00  0.74505805969E-08  0.10566000000E+00  0.10566000000E+00 0. -1.
     999900   -1    0    0    0    0 -0.00000000000E+00 -0.00000000000E+00 -0.74505805969E-08  0.93827000000E+00  0.93827000000E+00 0.  1.
     999902    2    1    2    0    0  0.62577501083E-02 -0.15834953119E-01  0.16466667303E-01  0.10202433728E+01  0.10199683737E+01 0.  0.
     999903    2    3    3    0    0  0.89600939391E-02  0.11250509729E+00 -0.56942400469E-01  0.12790522924E+00  0.19484108800E-01 0.  0.
         14    1    1    2    0    0 -0.62577501083E-02  0.15834953119E-01 -0.16466667303E-01  0.23686627213E-01  0.00000000000E+00 0.  1.
     999901    1    3    3    0    0 -0.27023438308E-02 -0.12834005041E+00  0.73409067771E-01  0.89233814355E+00  0.88000000000E+00 0. -1.
        -11    1    4    4    0    0  0.50965510100E-02  0.93754892100E-01 -0.39032490456E-01  0.10168456646E+00  0.51100000000E-03 0. -1.
         11    1    4    4    0    0  0.38635429291E-02  0.18750205189E-01 -0.17909910012E-01  0.26220662773E-01  0.51100000000E-03 0.  1.
</event>
<event>
 8    1  0.1143957E+005  0.1043930E+01  0.7957747E-01            NaN
         13   -1    0    0    0    0  0.00000000000E+00  0.00000000000E+00  0.74505805969E-08  0.10566000000E+00  0.10566000000E+00 0.  1.
     999900   -1    0    0    0    0 -0.00000000000E+00 -0.00000000000E+00 -0.74505805969E-08  0.93827000000E+00  0.93827000000E+00 0. -1.
     999902    2    1    2    0    0  0.43496441881E-02  0.88873927271E-02 -0.21394551810E-01  0.10203581524E+01  0.10200858430E+01 0.  0.
     999903    2    3    3    0    0 -0.44150864045E-01  0.11832531871E-01 -0.12330189357E+00  0.13314561894E+00  0.20858841775E-01 0.  0.
         14    1    1    2    0    0 -0.43496441881E-02 -0.88873927271E-02  0.21394551810E-01  0.23571847641E-01  0.00000000000E+00 0.  1.
     999901    1    3    3    0    0  0.48500508233E-01 -0.29451391437E-02  0.10190734176E+00  0.88721253341E+00  0.88000000000E+00 0.  1.
        -11    1    4    4    0    0 -0.19843717028E-01 -0.27984770241E-02 -0.34284954098E-01  0.39715535722E-01  0.51100000000E-03 0.  1.
         11    1    4    4    0    0 -0.24307147017E-01  0.14631008895E-01 -0.89016939470E-01  0.93430083223E-01  0.51100000000E-03 0. -1.
</event>
<event>
 8    1  0.1143957E+005  0.1043930E+01  0.7957747E-01            NaN
         13   -1    0    0    0    0  0.00000000000E+00  0.00000000000E+00  0.74505805969E-08  0.10566000000E+00  0.10566000000E+00 0.  1.
     999900   -1    0    0    0    0 -0.00000000000E+00 -0.00000000000E+00 -0.74505805969E-08  0.93827000000E+00  0.93827000000E+00 0. -1.
     999902    2    1    2    0    0  0.99454283193E-02 -0.14715525129E-01  0.11745325849E-01  0.10226365526E+01  0.10224148413E+01 0.  0.
     999903    2    3    3    0    0  0.68221527118E-01 -0.23116190245E-01  0.11233255881E+00  0.13495166123E+00  0.20119942517E-01 0.  0.
         14    1    1    2    0    0 -0.99454283193E-02  0.14715525129E-01 -0.11745325849E-01  0.21293447433E-01  0.00000000000E+00 0. -1.
     999901    1    3    3    0    0 -0.58276098799E-01  0.84006651158E-02 -0.10058723296E+00  0.88768489133E+00  0.88000000000E+00 0. -1.
        -11    1    4    4    0    0  0.42078902231E-01 -0.23638819278E-01  0.79087090816E-01  0.92652343978E-01  0.51100000000E-03 0. -1.
         11    1    4    4    0    0  0.26142624887E-01  0.52262903345E-03  0.33245467995E-01  0.42299317256E-01  0.51100000000E-03 0.  1.
</event>
<event>
 8    1  0.1143957E+005  0.1043930E+01  0.7957747E-01            NaN
         13   -1    0    0    0    0  0.00000000000E+00  0.00000000000E+00  0.74505805969E-08  0.10566000000E+00  0.10566000000E+00 0.  1.
     999900   -1    0    0    0    0 -0.00000000000E+00 -0.00000000000E+00 -0.74505805969E-08  0.93827000000E+00  0.93827000000E+00 0.  1.
     999902    2    1    2    0    0  0.24248575070E-01  0.12540418761E-02 -0.47152366108E-02  0.10191954195E+01  0.10188952369E+01 0.  0.
     999903    2    3    3    0    0  0.19444359778E-01  0.89876517723E-01 -0.90468556239E-01  0.13058377460E+00  0.20290168929E-01 0.  0.
         14    1    1    2    0    0 -0.24248575070E-01 -0.12540418761E-02  0.47152366108E-02  0.24734580454E-01  0.00000000000E+00 0. -1.
     999901    1    3    3    0    0  0.48042152918E-02 -0.88622475847E-01  0.85753319628E-01  0.88861164495E+00  0.88000000000E+00 0. -1.
        -11    1    4    4    0    0  0.12914981094E-01  0.44931806961E-01 -0.59227113159E-01  0.75457114095E-01  0.51100000000E-03 0.  1.
         11    1    4    4    0    0  0.65293786835E-02  0.44944710762E-01 -0.31241443080E-01  0.55126660503E-01  0.51100000000E-03 0. -1.
</event>
<event>
 8    1  0.1143957E+005  0.1043930E+01  0.7957747E-01            NaN
         13   -1    0    0    0    0  0.00000000000E+00  0.00000000000E+00  0.74505805969E-08  0.10566000000E+00  0.10566000000E+00 0. -1.
     999900   -1    0    0    0    0 -0.00000000000E+00 -0.00000000000E+00 -0.74505805969E-08  0.93827000000E+00  0.93827000000E+00 0. -1.
     999902    2    1    2    0    0  0.12727849150E-01 -0.14796798698E-01 -0.15373841410E-01  0.10190845096E+01  0.10187815954E+01 0.  0.
     999903    2    3    3    0    0  0.84296545263E-01 -0.98767526714E-01  0.10064077842E-01  0.13183017783E+00  0.20420045248E-01 0.  0.
         14    1    1    2    0    0 -0.12727849150E-01  0.14796798698E-01  0.15373841410E-01  0.24845490444E-01  0.00000000000E+00 0. -1.
     999901    1    3    3    0    0 -0.71568696113E-01  0.83970728016E-01 -0.25437919253E-01  0.88725433172E+00  0.88000000000E+00 0. -1.
        -11    1    4    4    0    0  0.57315270880E-01 -0.75936056539E-01  0.23378383691E-03  0.95140111071E-01  0.51100000000E-03 0.  1.
         11    1    4    4    0    0  0.26981274383E-01 -0.22831470175E-01  0.98302940056E-02  0.36690066761E-01  0.51100000000E-03 0. -1.
</event>
<event>
 8    1  0.1143957E+005  0.1043930E+01  0.7957747E-01            NaN
         13   -1    0    0    0    0  0.00000000000E+00  0.00000000000E+00  0.74505805969E-08  0.10566000000E+00  0.10566000000E+00 0.  1.
     999900   -1    0    0    0    0 -0.00000000000E+00 -0.00000000000E+00 -0.74505805969E-08  0.93827000000E+00  0.93827000000E+00 0.  1.
     999902    2    1    2    0    0 -0.17592397205E-01  0.14698607206E-01 -0.58835852679E-02  0.10202623413E+01  0.10199877877E+01 0.  0.
     999903    2    3    3    0    0  0.56091856624E-01  0.10121194394E+00  0.57587394734E-01  0.13068800938E+00  0.19310457945E-01 0.  0.
         14    1    1    2    0    0  0.17592397205E-01 -0.14698607206E-01  0.58835852679E-02  0.23667658710E-01  0.00000000000E+00 0.  1.
     999901    1    3    3    0    0 -0.73684253829E-01 -0.86513336738E-01 -0.63470980002E-01  0.88957433191E+00  0.88000000000E+00 0.  1.
        -11    1    4    4    0    0  0.11983971511E-01  0.93832737310E-02  0.10221310882E-01  0.18341148171E-01  0.51100000000E-03 0. -1.
         11    1    4    4    0    0  0.44107885114E-01  0.91828670213E-01  0.47366083853E-01  0.11234686121E+00  0.51100000000E-03 0.  1.
</event>
<event>
 8    1  0.1143957E+005  0.1043930E+01  0.7957747E-01            NaN
         13   -1    0    0    0    0  0.00000000000E+00  0.00000000000E+00  0.74505805969E-08  0.10566000000E+00  0.10566000000E+00 0.  1.
     999900   -1    0    0    0    0 -0.00000000000E+00 -0.00000000000E+00 -0.74505805969E-08  0.93827000000E+00  0.93827000000E+00 0.  1.
     999902    2    1    2    0    0 -0.18340822734E-01 -0.62996758194E-02  0.14291669125E-01  0.10198400955E+01  0.10195555389E+01 0.  0.
     999903    2    3    3    0    0 -0.65544480914E-01 -0.63509570524E-02 -0.11026991889E+00  0.12981550188E+00  0.18873152452E-01 0.  0.
         14    1    1    2    0    0  0.18340822734E-01  0.62996758194E-02 -0.14291669125E-01  0.24089904532E-01  0.00000000000E+00 0.  1.
     999901    1    3    3    0    0  0.47203658180E-01  0.51281232952E-04  0.12456158802E+00  0.89002459358E+00  0.88000000000E+00 0. -1.
        -11    1    4    4    0    0 -0.46295779925E-01 -0.12703425100E-01 -0.72670150705E-01  0.87097004384E-01  0.51100000000E-03 0. -1.
         11    1    4    4    0    0 -0.19248700989E-01  0.63524680475E-02 -0.37599768186E-01  0.42718497501E-01  0.51100000000E-03 0.  1.
</event>
<event>
 8    1  0.1143957E+005  0.1043930E+01  0.7957747E-01            NaN
         13   -1    0    0    0    0  0.00000000000E+00  0.00000000000E+00  0.74505805969E-08  0.10566000000E+00  0.10566000000E+00 0. -1.
     999900   -1    0    0    0    0 -0.00000000000E+00 -0.00000000000E+00 -0.74505805969E-08  0.93827000000E+00  0.93827000000E+00 0. -1.
     999902    2    1    2    0    0  0.15177942303E-01  0.15349651909E-01 -0.39552805628E-03  0.10223397664E+01  0.10221117648E+01 0.  0.
     999903    2    3    3    0    0  0.73754230326E-01 -0.10389814749E+00 -0.27739074981E-01  0.13194721881E+00  0.20151941040E-01 0.  0.
         14    1    1    2    0    0 -0.15177942303E-01 -0.15349651909E-01  0.39552805628E-03  0.21590233642E-01  0.00000000000E+00 0. -1.
     999901    1    3    3    0    0 -0.58576288023E-01  0.11924779940E+00  0.27343546924E-01  0.89039254755E+00  0.88000000000E+00 0.  1.
        -11    1    4    4    0    0  0.27901520345E-01 -0.54828428198E-01 -0.17875886020E-01  0.64066058082E-01  0.51100000000E-03 0.  1.
         11    1    4    4    0    0  0.45852709981E-01 -0.49069719288E-01 -0.98631889607E-02  0.67881160723E-01  0.51100000000E-03 0. -1.
</event>
<event>
 8    1  0.1143957E+005  0.1043930E+01  0.7957747E-01            NaN
         13   -1    0    0    0    0  0.00000000000E+00  0.00000000000E+00  0.74505805969E-08  0.10566000000E+00  0.10566000000E+00 0.  1.
     999900   -1    0    0    0    0 -0.00000000000E+00 -0.00000000000E+00 -0.74505805969E-08  0.93827000000E+00  0.93827000000E+00 0. -1.
     999902    2    1    2    0    0  0.16064525301E-01 -0.29110696310E-02 -0.19223469902E-01  0.10187092725E+01  0.10183970232E+01 0.  0.
     999903    2    3    3    0    0 -0.17410046704E-01  0.10649789621E+00 -0.69865738316E-01  0.12985860558E+00  0.18360948477E-01 0.  0.
         14    1    1    2    0    0 -0.16064525301E-01  0.29110696310E-02  0.19223469902E-01  0.25220727480E-01  0.00000000000E+00 0.  1.
     999901    1    3    3    0    0  0.33474572005E-01 -0.10940896584E+00  0.50642268414E-01  0.88885066694E+00  0.88000000000E+00 0.  1.
        -11    1    4    4    0    0 -0.15246638111E-02  0.13147751184E-01 -0.16513809863E-01  0.21169671658E-01  0.51100000000E-03 0.  1.
         11    1    4    4    0    0 -0.15885382893E-01  0.93350145024E-01 -0.53351928452E-01  0.10868893392E+00  0.51100000000E-03 0. -1.
</event>
<event>
 8    1  0.1143957E+005  0.1043930E+01  0.7957747E-01            NaN
         13   -1    0    0    0    0  0.00000000000E+00  0.00000000000E+00  0.74505805969E-08  0.10566000000E+00  0.10566000000E+00 0. -1.
     999900   -1    0    0    0    0 -0.00000000000E+00 -0.00000000000E+00 -0.74505805969E-08  0.93827000000E+00  0.93827000000E+00 0. -1.
     999902    2    1    2    0    0 -0.17224449245E-02  0.21165946305E-01  0.87465131209E-02  0.10209633809E+01  0.10207050307E+01 0.  0.
     999903    2    3    3    0    0 -0.92048126171E-01  0.28951495881E-01 -0.86933838757E-01  0.13114650471E+00  0.18189742496E-01 0.  0.
         14    1    1    2    0    0  0.17224449245E-02 -0.21165946305E-01 -0.87465131209E-02  0.22966619065E-01  0.00000000000E+00 0.  1.
     999901    1    3    3    0    0  0.90325681246E-01 -0.77855495763E-02  0.95680351878E-01  0.88981687622E+00  0.88000000000E+00 0.  1.
        -11    1    4    4    0    0 -0.12282019725E-01  0.10250769936E-01 -0.10847729034E-01  0.19335476178E-01  0.51100000000E-03 0.  1.
         11    1    4    4    0    0 -0.79766106445E-01  0.18700725945E-01 -0.76086109723E-01  0.11181102853E+00  0.51100000000E-03 0. -1.
</event>
<event>
 8    1  0.1143957E+005  0.1043930E+01  0.7957747E-01            NaN
         13   -1    0    0    0    0  0.00000000000E+00  0.00000000000E+00  0.74505805969E-08  0.10566000000E+00  0.10566000000E+00 0.  1.
     999900   -1    0    0    0    0 -0.00000000000E+00 -0.00000000000E+00 -0.74505805969E-08  0.93827000000E+00  0.93827000000E+00 0.  1.
     999902    2    1    2    0    0 -0.16048934133E-01 -0.12866306294E-01  0.11536905642E-01  0.10203458885E+01  0.10200732924E+01 0.  0.
     999903    2    3    3    0    0 -0.12868086075E+00  0.16010622119E-01 -0.16684983007E-01  0.13224887639E+00  0.19906599485E-01 0.  0.
         14    1    1    2    0    0  0.16048934133E-01  0.12866306294E-01 -0.11536905642E-01  0.23584111522E-01  0.00000000000E+00 0. -1.
     999901    1    3    3    0    0  0.11263192662E+00 -0.28876928413E-01  0.28221888649E-01  0.88809701209E+00  0.88000000000E+00 0. -1.
        -11    1    4    4    0    0 -0.25051740070E-01  0.63566410549E-02  0.39303483463E-02  0.26147759467E-01  0.51100000000E-03 0.  1.
         11    1    4    4    0    0 -0.10362912068E+00  0.96539810641E-02 -0.20615331354E-01  0.10610111692E+00  0.51100000000E-03 0. -1.
</event>
<event>
 8    1  0.1143957E+005  0.1043930E+01  0.7957747E-01            NaN
         13   -1    0    0    0    0  0.00000000000E+00  0.00000000000E+00  0.74505805969E-08  0.10566000000E+00  0.10566000000E+00 0. -1.
     999900   -1    0    0    0    0 -0.00000000000E+00 -0.00000000000E+00 -0.74505805969E-08  0.93827000000E+00  0.93827000000E+00 0. -1.
     999902    2    1    2    0    0  0.27042904101E-02  0.23152880367E-01 -0.27690893504E-02  0.10204558246E+01  0.10201857934E+01 0.  0.
     999903    2    3    3    0    0 -0.43632039077E-02 -0.93834743196E-01  0.85157585820E-01  0.12834195643E+00  0.19895898509E-01 0.  0.
         14    1    1    2    0    0 -0.27042904101E-02 -0.23152880367E-01  0.27690893504E-02  0.23474175422E-01  0.00000000000E+00 0.  1.
     999901    1    3    3    0    0  0.70674943177E-02  0.11698762356E+00 -0.87926675170E-01  0.89211386815E+00  0.88000000000E+00 0. -1.
        -11    1    4    4    0    0 -0.32544517316E-02 -0.65125393373E-01  0.70679842908E-01  0.96165532456E-01  0.51100000000E-03 0. -1.
         11    1    4    4    0    0 -0.11087521761E-02 -0.28709349823E-01  0.14477742912E-01  0.32176423970E-01  0.51100000000E-03 0.  1.
</event>
<event>
 8    1  0.1143957E+005  0.1043930E+01  0.7957747E-01            NaN
         13   -1    0    0    0    0  0.00000000000E+00  0.00000000000E+00  0.74505805969E-08  0.10566000000E+00  0.10566000000E+00 0. -1.
     999900   -1    0    0    0    0 -0.00000000000E+00 -0.00000000000E+00 -0.74505805969E-08  0.93827000000E+00  0.93827000000E+00 0. -1.
     999902    2    1    2    0    0  0.20292090405E-01  0.68565713604E-02  0.11478708887E-01  0.10196289247E+01  0.10193392967E+01 0.  0.
     999903    2    3    3    0    0  0.12364841637E+00 -0.41721397413E-01 -0.42353896460E-03  0.13216962270E+00  0.20952897365E-01 0.  0.
         14    1    1    2    0    0 -0.20292090405E-01 -0.68565713604E-02 -0.11478708887E-01  0.24301075317E-01  0.00000000000E+00 0.  1.
     999901    1    3    3    0    0 -0.10335632596E+00  0.48577968773E-01  0.11902247852E-01  0.88745930198E+00  0.88000000000E+00 0. -1.
        -11    1    4    4    0    0  0.10094989107E-01  0.15030469078E-02 -0.29632607318E-02  0.10640018339E-01  0.51100000000E-03 0. -1.
         11    1    4    4    0    0  0.11355342726E+00 -0.43224444320E-01  0.25397217672E-02  0.12152960436E+00  0.51100000000E-03 0.  1.
</event>
<event>
 8    1  0.1143957E+005  0.1043930E+01  0.7957747E-01            NaN
         13   -1    0    0    0    0  0.00000000000E+00  0.00000000000E+00  0.74505805969E-08  0.10566000000E+00  0.10566000000E+00 0. -1.
     999900   -1    0    0    0    0 -0.00000000000E+00 -0.00000000000E+00 -0.74505805969E-08  0.93827000000E+00  0.93827000000E+00 0. -1.
     999902    2    1    2    0    0  0.20866104199E-01 -0.10196026934E-01  0.56547717818E-02  0.10200274957E+01  0.10197474012E+01 0.  0.
     999903    2    3    3    0    0 -0.17586362950E-01 -0.12008606616E+00 -0.44612529002E-01  0.13093739085E+00  0.20600464345E-01 0.  0.
         14    1    1    2    0    0 -0.20866104199E-01  0.10196026934E-01 -0.56547717818E-02  0.23902504337E-01  0.00000000000E+00 0. -1.
     999901    1    3    3    0    0  0.38452467149E-01  0.10989003922E+00  0.50267300783E-01  0.88909010481E+00  0.88000000000E+00 0.  1.
        -11    1    4    4    0    0 -0.17904494602E-01 -0.77511979529E-01 -0.21130211990E-01  0.82312969070E-01  0.51100000000E-03 0.  1.
         11    1    4    4    0    0  0.31813165149E-03 -0.42574086629E-01 -0.23482317012E-01  0.48624421779E-01  0.51100000000E-03 0. -1.
</event>
<event>
 8    1  0.1143957E+005  0.1043930E+01  0.7957747E-01            NaN
         13   -1    0    0    0    0  0.00000000000E+00  0.00000000000E+00  0.74505805969E-08  0.10566000000E+00  0.10566000000E+00 0.  1.
     999900   -1    0    0    0    0 -0.00000000000E+00 -0.00000000000E+00 -0.74505805969E-08  0.93827000000E+00  0.93827000000E+00 0. -1.
     999902    2    1    2    0    0 -0.93442009784E-03 -0.15515647175E-01  0.17374071989E-01  0.10206176251E+01  0.10203513462E+01 0.  0.
     999903    2    3    3    0    0  0.10611069268E+00  0.24262203431E-01 -0.66697667282E-01  0.12926528680E+00  0.20317527774E-01 0.  0.
         14    1    1    2    0    0  0.93442009784E-03  0.15515647175E-01 -0.17374071989E-01  0.23312374947E-01  0.00000000000E+00 0.  1.
     999901    1    3    3    0    0 -0.10704511277E+00 -0.39777850606E-01  0.84071739271E-01  0.89135233825E+00  0.88000000000E+00 0. -1.
        -11    1    4    4    0    0  0.27498143700E-01 -0.23258572706E-02 -0.19495639087E-01  0.33791989929E-01  0.51100000000E-03 0.  1.
         11    1    4    4    0    0  0.78612548976E-01  0.26588060701E-01 -0.47202028195E-01  0.95473296869E-01  0.51100000000E-03 0. -1.
</event>
<event>
 8    1  0.1143957E+005  0.1043930E+01  0.7957747E-01            NaN
         13   -1    0    0    0    0  0.00000000000E+00  0.00000000000E+00  0.74505805969E-08  0.10566000000E+00  0.10566000000E+00 0. -1.
     999900   -1    0    0    0    0 -0.00000000000E+00 -0.00000000000E+00 -0.74505805969E-08  0.93827000000E+00  0.93827000000E+00 0.  1.
     999902    2    1    2    0    0  0.25914476744E-04  0.23749473558E-01  0.25830056809E-02  0.10200404608E+01  0.10197606737E+01 0.  0.
     999903    2    3    3    0    0 -0.47695800379E-01  0.93330097941E-01  0.79145852035E-01  0.13269571673E+00  0.18939133758E-01 0.  0.
         14    1    1    2    0    0 -0.25914476744E-04 -0.23749473558E-01 -0.25830056809E-02  0.23889539221E-01  0.00000000000E+00 0.  1.
     999901    1    3    3    0    0  0.47721714856E-01 -0.69580624383E-01 -0.76562846354E-01  0.88734474405E+00  0.88000000000E+00 0. -1.
        -11    1    4    4    0    0 -0.28665569055E-01  0.71253070534E-01  0.51151090864E-01  0.92278979878E-01  0.51100000000E-03 0. -1.
         11    1    4    4    0    0 -0.19030231324E-01  0.22077027407E-01  0.27994761171E-01  0.40416736847E-01  0.51100000000E-03 0.  1.
</event>
<event>
 8    1  0.1143957E+005  0.1043930E+01  0.7957747E-01            NaN
         13   -1    0    0    0    0  0.00000000000E+00  0.00000000000E+00  0.74505805969E-08  0.10566000000E+00  0.10566000000E+00 0. -1.
     999900   -1    0    0    0    0 -0.00000000000E+00 -0.00000000000E+00 -0.74505805969E-08  0.93827000000E+00  0.93827000000E+00 0. -1.
     999902    2    1    2    0    0 -0.24255925257E-01 -0.19642042768E-02  0.39567094539E-02  0.10192751109E+01  0.10189768830E+01 0.  0.
     999903    2    3    3    0    0 -0.30146323204E-01  0.12415331608E+00 -0.13946586047E-01  0.13008398759E+00  0.20111933456E-01 0.  0.
         14    1    1    2    0    0  0.24255925257E-01  0.19642042768E-02 -0.39567094539E-02  0.24654889134E-01  0.00000000000E+00 0.  1.
     999901    1    3    3    0    0  0.58903979471E-02 -0.12611752036E+00  0.17903295501E-01  0.88919112328E+00  0.88000000000E+00 0. -1.
        -11    1    4    4    0    0 -0.54668044940E-03  0.14555597321E-01 -0.74604414612E-02  0.16373258096E-01  0.51100000000E-03 0. -1.
         11    1    4    4    0    0 -0.29599642754E-01  0.10959771876E+00 -0.64861445858E-02  0.11371072949E+00  0.51100000000E-03 0.  1.
</event>
<event>
 8    1  0.1143957E+005  0.1043930E+01  0.7957747E-01            NaN
         13   -1    0    0    0    0  0.00000000000E+00  0.00000000000E+00  0.74505805969E-08  0.10566000000E+00  0.10566000000E+00 0. -1.
     999900   -1    0    0    0    0 -0.00000000000E+00 -0.00000000000E+00 -0.74505805969E-08  0.93827000000E+00  0.93827000000E+00 0.  1.
     999902    2    1    2    0    0 -0.95650906581E-02  0.62218926541E-02 -0.18856176234E-01  0.10218900751E+01  0.10216523711E+01 0.  0.
     999903    2    3    3    0    0 -0.63960243366E-01  0.92514367810E-01 -0.70846712633E-01  0.13447346505E+00  0.20347853204E-01 0.  0.
         14    1    1    2    0    0  0.95650906581E-02 -0.62218926541E-02  0.18856176234E-01  0.22039924902E-01  0.00000000000E+00 0. -1.
     999901    1    3    3    0    0  0.54395152708E-01 -0.86292475156E-01  0.51990536399E-01  0.88741661004E+00  0.88000000000E+00 0. -1.
        -11    1    4    4    0    0 -0.19382486987E-01  0.37144433864E-01 -0.16666100608E-01  0.45093345400E-01  0.51100000000E-03 0. -1.
         11    1    4    4    0    0 -0.44577756379E-01  0.55369933946E-01 -0.54180612026E-01  0.89380119654E-01  0.51100000000E-03 0.  1.
</event>
<event>
 8    1  0.1143957E+005  0.1043930E+01  0.7957747E-01            NaN
         13   -1    0    0    0    0  0.00000000000E+00  0.00000000000E+00  0.74505805969E-08  0.10566000000E+00  0.10566000000E+00 0. -1.
     999900   -1    0    0    0    0 -0.00000000000E+00 -0.00000000000E+00 -0.74505805969E-08  0.93827000000E+00  0.93827000000E+00 0.  1.
     999902    2    1    2    0    0 -0.77198009004E-02  0.60172335488E-02  0.20892572001E-01  0.10208583293E+01  0.10205975830E+01 0.  0.
     999903    2    3    3    0    0  0.79631545051E-01  0.74391990367E-01  0.72618168475E-01  0.13238722544E+00  0.19432649555E-01 0.  0.
         14    1    1    2    0    0  0.77198009004E-02 -0.60172335488E-02 -0.20892572001E-01  0.23071670731E-01  0.00000000000E+00 0.  1.
     999901    1    3    3    0    0 -0.87351345952E-01 -0.68374756818E-01 -0.51725596474E-01  0.88847110383E+00  0.88000000000E+00 0.  1.
        -11    1    4    4    0    0  0.48321744612E-01  0.34880044217E-01  0.32003055277E-01  0.67646619687E-01  0.51100000000E-03 0.  1.
         11    1    4    4    0    0  0.31309800439E-01  0.39511946151E-01  0.40615113198E-01  0.64740605752E-01  0.51100000000E-03 0. -1.
</event>
<event>
 8    1  0.1143957E+005  0.1043930E+01  0.7957747E-01            NaN
         13   -1    0    0    0    0  0.00000000000E+00  0.00000000000E+00  0.74505805969E-08  0.10566000000E+00  0.10566000000E+00 0.  1.
     999900   -1    0    0    0    0 -0.00000000000E+00 -0.00000000000E+00 -0.74505805969E-08  0.93827000000E+00  0.93827000000E+00 0. -1.
     999902    2    1    2    0    0 -0.13071581185E-01  0.82267816927E-04  0.19567787272E-01  0.10203976541E+01  0.10201262673E+01 0.  0.
     999903    2    3    3    0    0 -0.48466988442E-01 -0.11389367240E+00  0.41536014302E-01  0.13207003845E+00  0.19910725568E-01 0.  0.
         14    1    1    2    0    0  0.13071581185E-01 -0.82267816927E-04 -0.19567787272E-01  0.23532345853E-01  0.00000000000E+00 0. -1.
     999901    1    3    3    0    0  0.35395407257E-01  0.11397594021E+00 -0.21968227031E-01  0.88832761569E+00  0.88000000000E+00 0.  1.
        -11    1    4    4    0    0 -0.46490575820E-01 -0.10411866148E+00  0.32415093834E-01  0.11854563989E+00  0.51100000000E-03 0. -1.
         11    1    4    4    0    0 -0.19764126216E-02 -0.97750109212E-02  0.91209204680E-02  0.13524398565E-01  0.51100000000E-03 0.  1.
</event>
<event>
 8    1  0.1143957E+005  0.1043930E+01  0.7957747E-01            NaN
         13   -1    0    0    0    0  0.00000000000E+00  0.00000000000E+00  0.74505805969E-08  0.10566000000E+00  0.10566000000E+00 0. -1.
     999900   -1    0    0    0    0 -0.00000000000E+00 -0.00000000000E+00 -0.74505805969E-08  0.93827000000E+00  0.93827000000E+00 0. -1.
     999902    2    1    2    0    0 -0.62167884093E-02  0.20801415065E-01  0.94942994572E-02  0.10202342399E+01  0.10199590262E+01 0.  0.
     999903    2    3    3    0    0  0.81846441506E-01 -0.26576653295E-01  0.95439376507E-01  0.13041045387E+00  0.22204805868E-01 0.  0.
         14    1    1    2    0    0  0.62167884093E-02 -0.20801415065E-01 -0.94942994572E-02  0.23695760148E-01  0.00000000000E+00 0. -1.
     999901    1    3    3    0    0 -0.88063229916E-01  0.47378068360E-01 -0.85945077050E-01  0.88982378598E+00  0.88000000000E+00 0. -1.
        -11    1    4    4    0    0  0.32611619210E-01  0.48272404760E-03  0.37564870948E-01  0.49750692260E-01  0.51100000000E-03 0.  1.
         11    1    4    4    0    0  0.49234822296E-01 -0.27059377343E-01  0.57874505559E-01  0.80659761613E-01  0.51100000000E-03 0. -1.
</event>
<event>
 8    1  0.1143957E+005  0.1043930E+01  0.7957747E-01            NaN
         13   -1    0    0    0    0  0.00000000000E+00  0.00000000000E+00  0.74505805969E-08  0.10566000000E+00  0.10566000000E+00 0.  1.
     999900   -1    0    0    0    0 -0.00000000000E+00 -0.00000000000E+00 -0.74505805969E-08  0.93827000000E+00  0.93827000000E+00 0.  1.
     999902    2    1    2    0    0 -0.16657618151E-01 -0.17425827756E-01  0.14241049109E-02  0.10197812156E+01  0.10194952495E+01 0.  0.
     999903    2    3    3    0    0 -0.99016034573E-01  0.72624383849E-01 -0.39518870584E-01  0.13041724248E+00  0.19194784990E-01 0.  0.
         14    1    1    2    0    0  0.16657618151E-01  0.17425827756E-01 -0.14241049109E-02  0.24148784446E-01  0.00000000000E+00 0. -1.
     999901    1    3    3    0    0  0.82358416422E-01 -0.90050211605E-01  0.40942975495E-01  0.88936397308E+00  0.88000000000E+00 0. -1.
        -11    1    4    4    0    0 -0.19837772665E-01  0.24729967420E-01 -0.86528540787E-02  0.32867027819E-01  0.51100000000E-03 0.  1.
         11    1    4    4    0    0 -0.79178261908E-01  0.47894416429E-01 -0.30866016505E-01  0.97550214658E-01  0.51100000000E-03 0. -1.
</event>
<event>
 8    1  0.1143957E+005  0.1043930E+01  0.7957747E-01            NaN
         13   -1    0    0    0    0  0.00000000000E+00  0.00000000000E+00  0.74505805969E-08  0.10566000000E+00  0.10566000000E+00 0. -1.
     999900   -1    0    0    0    0 -0.00000000000E+00 -0.00000000000E+00 -0.74505805969E-08  0.93827000000E+00  0.93827000000E+00 0. -1.
     999902    2    1    2    0    0 -0.18621519242E-01 -0.80062620841E-02  0.12427770964E-01  0.10201537366E+01  0.10198766276E+01 0.  0.
     999903    2    3    3    0    0 -0.98238690756E-01  0.57488134850E-01  0.65190103375E-01  0.13256584022E+00  0.19189226279E-01 0.  0.
         14    1    1    2    0    0  0.18621519242E-01  0.80062620841E-02 -0.12427770964E-01  0.23776263427E-01  0.00000000000E+00 0. -1.
     999901    1    3    3    0    0  0.79617171514E-01 -0.65494396934E-01 -0.52762332411E-01  0.88758789635E+00  0.88000000000E+00 0. -1.
        -11    1    4    4    0    0 -0.67682980523E-01  0.44295099813E-01  0.54763267290E-01  0.97684790450E-01  0.51100000000E-03 0.  1.
         11    1    4    4    0    0 -0.30555710233E-01  0.13193035037E-01  0.10426836085E-01  0.34881049771E-01  0.51100000000E-03 0. -1.
</event>
<event>
 8    1  0.1143957E+005  0.1043930E+01  0.7957747E-01            NaN
         13   -1    0    0    0    0  0.00000000000E+00  0.00000000000E+00  0.74505805969E-08  0.10566000000E+00  0.10566000000E+00 0.  1.
     999900   -1    0    0    0    0 -0.00000000000E+00 -0.00000000000E+00 -0.74505805969E-08  0.93827000000E+00  0.93827000000E+00 0. -1.
     999902    2    1    2    0    0 -0.79706730029E-03  0.18581870772E-01 -0.15354604025E-01  0.10198118512E+01  0.10195266189E+01 0.  0.
     999903    2    3    3    0    0  0.90165637183E-01 -0.88693730876E-01  0.72833889071E-02  0.12835531997E+00  0.20630569196E-01 0.  0.
         14    1    1    2    0    0  0.79706730029E-03 -0.18581870772E-01  0.15354604025E-01  0.24118148818E-01  0.00000000000E+00 0.  1.
     999901    1    3    3    0    0 -0.90962704483E-01  0.10727560165E+00 -0.22637992932E-01  0.89145653121E+00  0.88000000000E+00 0.  1.
        -11    1    4    4    0    0  0.46276558224E-01 -0.54739608313E-01  0.11936317364E-01  0.72668296750E-01  0.51100000000E-03 0. -1.
         11    1    4    4    0    0  0.43889078959E-01 -0.33954122563E-01 -0.46529284571E-02  0.55687023220E-01  0.51100000000E-03 0.  1.
</event>
<event>
 8    1  0.1143957E+005  0.1043930E+01  0.7957747E-01            NaN
         13   -1    0    0    0    0  0.00000000000E+00  0.00000000000E+00  0.74505805969E-08  0.10566000000E+00  0.10566000000E+00 0.  1.
     999900   -1    0    0    0    0 -0.00000000000E+00 -0.00000000000E+00 -0.74505805969E-08  0.93827000000E+00  0.93827000000E+00 0.  1.
     999902    2    1    2    0    0  0.57747145879E-02 -0.73208665363E-03 -0.22371032764E-01  0.10208140664E+01  0.10205523072E+01 0.  0.
     999903    2    3    3    0    0 -0.41474808986E-02  0.12338873898E+00 -0.41564232319E-01  0.13184117129E+00  0.20310749230E-01 0.  0.
         14    1    1    2    0    0 -0.57747145879E-02  0.73208665363E-03  0.22371032764E-01  0.23115933604E-01  0.00000000000E+00 0.  1.
     999901    1    3    3    0    0  0.99221954865E-02 -0.12412082564E+00  0.19193199555E-01  0.88897289510E+00  0.88000000000E+00 0.  1.
        -11    1    4    4    0    0  0.82188412615E-02  0.43804271880E-01 -0.14227945683E-01  0.46787382338E-01  0.51100000000E-03 0.  1.
         11    1    4    4    0    0 -0.12366322160E-01  0.79584467101E-01 -0.27336286637E-01  0.85053788955E-01  0.51100000000E-03 0. -1.
</event>
<event>
 8    1  0.1143957E+005  0.1043930E+01  0.7957747E-01            NaN
         13   -1    0    0    0    0  0.00000000000E+00  0.00000000000E+00  0.74505805969E-08  0.10566000000E+00  0.10566000000E+00 0. -1.
     999900   -1    0    0    0    0 -0.00000000000E+00 -0.00000000000E+00 -0.74505805969E-08  0.93827000000E+00  0.93827000000E+00 0.  1.
     999902    2    1    2    0    0 -0.48938675043E-02 -0.22956501924E-01  0.40438796971E-02  0.10201118581E+01  0.10198337606E+01 0.  0.
     999903    2    3    3    0    0  0.10986293362E+00 -0.41166964294E-01  0.54477638931E-01  0.13104250851E+00  0.20970044356E-01 0.  0.
         14    1    1    2    0    0  0.48938675043E-02  0.22956501924E-01 -0.40438796971E-02  0.23818141883E-01  0.00000000000E+00 0.  1.
     999901    1    3    3    0    0 -0.11475680112E+00  0.18210462369E-01 -0.50433759233E-01  0.88906934961E+00  0.88000000000E+00 0.  1.
        -11    1    4    4    0    0  0.70298579540E-01 -0.22643373449E-01  0.44505291163E-01  0.86229894520E-01  0.51100000000E-03 0.  1.
         11    1    4    4    0    0  0.39564354078E-01 -0.18523590845E-01  0.99723477676E-02  0.44812613988E-01  0.51100000000E-03 0. -1.
</event>
<event>
 8    1  0.1143957E+005  0.1043930E+01  0.7957747E-01            NaN
         13   -1    0    0    0    0  0.00000000000E+00  0.00000000000E+00  0.74505805969E-08  0.10566000000E+00  0.10566000000E+00 0.  1.
     999900   -1    0    0    0    0 -0.00000000000E+00 -0.00000000000E+00 -0.74505805969E-08  0.93827000000E+00  0.93827000000E+00 0.  1.
     999902    2    1    2    0    0  0.46665440529E-03 -0.87240230092E-02  0.20513703814E-01  0.10216333996E+01  0.10213900650E+01 0.  0.
     999903    2    3    3    0    0  0.12914053263E+00  0.16707842645E-01  0.17368600250E-02  0.13171412431E+00  0.19727257406E-01 0.  0.
         14    1    1    2    0    0 -0.46665440529E-03  0.87240230092E-02 -0.20513703814E-01  0.22296600368E-01  0.00000000000E+00 0. -1.
     999901    1    3    3    0    0 -0.12867387823E+00 -0.25431865654E-01  0.18776843789E-01  0.88991927532E+00  0.88000000000E+00 0. -1.
        -11    1    4    4    0    0  0.79518718266E-01  0.18793766720E-01 -0.33943674950E-02  0.81781508141E-01  0.51100000000E-03 0. -1.
         11    1    4    4    0    0  0.49621814369E-01 -0.20859240752E-02  0.51312275201E-02  0.49932616168E-01  0.51100000000E-03 0.  1.
</event>
<event>
 8    1  0.1143957E+005  0.1043930E+01  0.7957747E-01            NaN
         13   -1    0    0    0    0  0.00000000000E+00  0.00000000000E+00  0.74505805969E-08  0.10566000000E+00  0.10566000000E+00 0. -1.
     999900   -1    0    0    0    0 -0.00000000000E+00 -0.00000000000E+00 -0.74505805969E-08  0.93827000000E+00  0.93827000000E+00 0.  1.
     999902    2    1    2    0    0  0.22477679949E-01  0.38677435306E-02  0.76994858319E-02  0.10198574509E+01  0.10195733091E+01 0.  0.
     999903    2    3    3    0    0 -0.40634833322E-01  0.11979323165E+00  0.19176983826E-01  0.12993967885E+00  0.22692628858E-01 0.  0.
         14    1    1    2    0    0 -0.22477679949E-01 -0.38677435306E-02 -0.76994858319E-02  0.24072549055E-01  0.00000000000E+00 0.  1.
     999901    1    3    3    0    0  0.63112513272E-01 -0.11592548811E+00 -0.11477497994E-01  0.88991777209E+00  0.88000000000E+00 0. -1.
        -11    1    4    4    0    0 -0.61700861878E-02  0.49156036441E-01  0.12252421694E-01  0.51036936041E-01  0.51100000000E-03 0. -1.
         11    1    4    4    0    0 -0.34464747134E-01  0.70637195205E-01  0.69245621324E-02  0.78902742811E-01  0.51100000000E-03 0.  1.
</event>
<event>
 8    1  0.1143957E+005  0.1043930E+01  0.7957747E-01            NaN
         13   -1    0    0    0    0  0.00000000000E+00  0.00000000000E+00  0.74505805969E-08  0.10566000000E+00  0.10566000000E+00 0. -1.
     999900   -1    0    0    0    0 -0.00000000000E+00 -0.00000000000E+00 -0.74505805969E-08  0.93827000000E+00  0.93827000000E+00 0.  1.
     999902    2    1    2    0    0  0.20992085461E-01 -0.84469554825E-02  0.58909205187E-02  0.10205479202E+01  0.10202800282E+01 0.  0.
     999903    2    3    3    0    0  0.52946747518E-01 -0.15081952748E-01  0.11905669319E+00  0.13270130302E+00  0.20107616918E-01 0.  0.
         14    1    1    2    0    0 -0.20992085461E-01  0.84469554825E-02 -0.58909205187E-02  0.23382079751E-01  0.00000000000E+00 0. -1.
     999901    1    3    3    0    0 -0.31954662057E-01  0.66349972653E-02 -0.11316577268E+00  0.88784661723E+00  0.88000000000E+00 0.  1.
        -11    1    4    4    0    0  0.34381352413E-01 -0.18813323777E-01  0.87810797243E-01  0.96161404830E-01  0.51100000000E-03 0. -1.
         11    1    4    4    0    0  0.18565395105E-01  0.37313710297E-02  0.31245895951E-01  0.36539898193E-01  0.51100000000E-03 0.  1.
</event>
<event>
 8    1  0.1143957E+005  0.1043930E+01  0.7957747E-01            NaN
         13   -1    0    0    0    0  0.00000000000E+00  0.00000000000E+00  0.74505805969E-08  0.10566000000E+00  0.10566000000E+00 0.  1.
     999900   -1    0    0    0    0 -0.00000000000E+00 -0.00000000000E+00 -0.74505805969E-08  0.93827000000E+00  0.93827000000E+00 0. -1.
     999902    2    1    2    0    0 -0.10491876818E-01  0.10314008599E-01 -0.18317393509E-01  0.10204356356E+01  0.10201651343E+01 0.  0.
     999903    2    3    3    0    0  0.27543295622E-01  0.28882962335E-01 -0.12558852837E+00  0.13291178988E+00  0.17326476431E-01 0.  0.
         14    1    1    2    0    0  0.10491876818E-01 -0.10314008599E-01  0.18317393509E-01  0.23494364377E-01  0.00000000000E+00 0.  1.
     999901    1    3    3    0    0 -0.38035172440E-01 -0.18568953735E-01  0.10727113486E+00  0.88752384574E+00  0.88000000000E+00 0.  1.
        -11    1    4    4    0    0  0.18558462700E-01  0.16892041638E-01 -0.10134531952E+00  0.10440733939E+00  0.51100000000E-03 0.  1.
         11    1    4    4    0    0  0.89848329213E-02  0.11990920696E-01 -0.24243208842E-01  0.28504450490E-01  0.51100000000E-03 0. -1.
</event>
<event>
 8    1  0.1143957E+005  0.1043930E+01  0.7957747E-01            NaN
         13   -1    0    0    0    0  0.00000000000E+00  0.00000000000E+00  0.74505805969E-08  0.10566000000E+00  0.10566000000E+00 0.  1.
     999900   -1    0    0    0    0 -0.00000000000E+00 -0.00000000000E+00 -0.74505805969E-08  0.93827000000E+00  0.93827000000E+00 0.  1.
     999902    2    1    2    0    0 -0.41811232924E-02  0.64837946499E-02 -0.21540121598E-01  0.10210499164E+01  0.10207935314E+01 0.  0.
     999903    2    3    3    0    0  0.29336322192E-01 -0.11172906428E+00 -0.60035409389E-01  0.13167958506E+00  0.19780271385E-01 0.  0.
         14    1    1    2    0    0  0.41811232924E-02 -0.64837946499E-02  0.21540121598E-01  0.22880083555E-01  0.00000000000E+00 0.  1.
     999901    1    3    3    0    0 -0.33517445484E-01  0.11821285893E+00  0.38495287791E-01  0.88937033139E+00  0.88000000000E+00 0.  1.
        -11    1    4    4    0    0  0.13020350987E-01 -0.35986743941E-01 -0.10392719247E-01  0.39659110097E-01  0.51100000000E-03 0.  1.
         11    1    4    4    0    0  0.16315971205E-01 -0.75742320339E-01 -0.49642690142E-01  0.92020474962E-01  0.51100000000E-03 0. -1.
</event>
<event>
 8    1  0.1143957E+005  0.1043930E+01  0.7957747E-01            NaN
         13   -1    0    0    0    0  0.00000000000E+00  0.00000000000E+00  0.74505805969E-08  0.10566000000E+00  0.10566000000E+00 0. -1.
     999900   -1    0    0    0    0 -0.00000000000E+00 -0.00000000000E+00 -0.74505805969E-08  0.93827000000E+00  0.93827000000E+00 0. -1.
     999902    2    1    2    0    0  0.20520334651E-01  0.44066880479E-02  0.12650954772E-01  0.10194238846E+01  0.10191292886E+01 0.  0.
     999903    2    3    3    0    0 -0.23243668872E-02  0.11981479959E+00  0.48533370790E-01  0.13086974426E+00  0.20258652486E-01 0.  0.
         14    1    1    2    0    0 -0.20520334651E-01 -0.44066880479E-02 -0.12650954772E-01  0.24506115368E-01  0.00000000000E+00 0.  1.
     999901    1    3    3    0    0  0.22844701539E-01 -0.11540811154E+00 -0.35882416017E-01  0.88855414037E+00  0.88000000000E+00 0. -1.
        -11    1    4    4    0    0 -0.94645468274E-02  0.47680538975E-01  0.14089738861E-01  0.50614161119E-01  0.51100000000E-03 0.  1.
         11    1    4    4    0    0  0.71401799403E-02  0.72134260611E-01  0.34443631929E-01  0.80255583139E-01  0.51100000000E-03 0. -1.
</event>
