<event>
 8    1  0.1083484E+005  0.1043930E+01  0.7957747E-01            NaN
         13   -1    0    0    0    0  0.00000000000E+00  0.00000000000E+00  0.74505805969E-08  0.10566000000E+00  0.10566000000E+00 0.  1.
     999900   -1    0    0    0    0 -0.00000000000E+00 -0.00000000000E+00 -0.74505805969E-08  0.93827000000E+00  0.93827000000E+00 0.  1.
     999902    2    1    2    0    0 -0.70668089466E-02 -0.20612971986E-01 -0.86084318267E-02  0.10205005420E+01  0.10202315506E+01 0.  0.
     999903    2    3    3    0    0 -0.91456398406E-01 -0.36779621942E-01  0.84564813678E-01  0.13141999614E+00  0.20074717276E-01 0.  0.
         14    1    1    2    0    0  0.70668089466E-02  0.20612971986E-01  0.86084318267E-02  0.23429457981E-01  0.00000000000E+00 0.  1.
     999901    1    3    3    0    0  0.84389589460E-01  0.16166649956E-01 -0.93173245504E-01  0.88908054588E+00  0.88000000000E+00 0.  1.
        -11    1    4    4    0    0 -0.58646182326E-01 -0.13290562278E-01  0.47602779596E-01  0.76696150447E-01  0.51100000000E-03 0. -1.
         11    1    4    4    0    0 -0.32810216080E-01 -0.23489059664E-01  0.36962034082E-01  0.54723845695E-01  0.51100000000E-03 0.  1.
</event>
<event>
 8    1  0.1083484E+005  0.1043930E+01  0.7957747E-01            NaN
         13   -1    0    0    0    0  0.00000000000E+00  0.00000000000E+00  0.74505805969E-08  0.10566000000E+00  0.10566000000E+00 0.  1.
     999900   -1    0    0    0    0 -0.00000000000E+00 -0.00000000000E+00 -0.74505805969E-08  0.93827000000E+00  0.93827000000E+00 0.  1.
     999902    2    1    2    0    0  0.14707943896E-01 -0.38810547248E-02 -0.18397151550E-01  0.10200586493E+01  0.10197792931E+01 0.  0.
     999903    2    3    3    0    0  0.16448839490E-01  0.12649497221E+00 -0.17106707539E-01  0.13045053087E+00  0.21287537381E-01 0.  0.
         14    1    1    2    0    0 -0.14707943896E-01  0.38810547248E-02  0.18397151550E-01  0.23871350707E-01  0.00000000000E+00 0.  1.
     999901    1    3    3    0    0 -0.17408955942E-02 -0.13037602693E+00 -0.12904440105E-02  0.88960811842E+00  0.88000000000E+00 0.  1.
        -11    1    4    4    0    0  0.12988605483E-01  0.85972522076E-01 -0.17270945351E-02  0.86966789069E-01  0.51100000000E-03 0.  1.
         11    1    4    4    0    0  0.34602340069E-02  0.40522450131E-01 -0.15379613004E-01  0.43483741802E-01  0.51100000000E-03 0. -1.
</event>
<event>
 8    1  0.1083484E+005  0.1043930E+01  0.7957747E-01            NaN
         13   -1    0    0    0    0  0.00000000000E+00  0.00000000000E+00  0.74505805969E-08  0.10566000000E+00  0.10566000000E+00 0.  1.
     999900   -1    0    0    0    0 -0.00000000000E+00 -0.00000000000E+00 -0.74505805969E-08  0.93827000000E+00  0.93827000000E+00 0.  1.
     999902    2    1    2    0    0  0.17996495738E-01 -0.14112401521E-01  0.38596515281E-02  0.10207366681E+01  0.10204731329E+01 0.  0.
     999903    2    3    3    0    0  0.10571372581E+00 -0.79766515618E-01 -0.17469397912E-02  0.13392428149E+00  0.19863849934E-01 0.  0.
         14    1    1    2    0    0 -0.17996495738E-01  0.14112401521E-01 -0.38596515281E-02  0.23193331918E-01  0.00000000000E+00 0.  1.
     999901    1    3    3    0    0 -0.87717230076E-01  0.65654114098E-01  0.56065913193E-02  0.88681238659E+00  0.88000000000E+00 0.  1.
        -11    1    4    4    0    0  0.40701529565E-01 -0.20205077066E-01 -0.48172750831E-02  0.45698215593E-01  0.51100000000E-03 0. -1.
         11    1    4    4    0    0  0.65012196249E-01 -0.59561438553E-01  0.30703352919E-02  0.88226065895E-01  0.51100000000E-03 0.  1.
</event>
<event>
 8    1  0.1083484E+005  0.1043930E+01  0.7957747E-01            NaN
         13   -1    0    0    0    0  0.00000000000E+00  0.00000000000E+00  0.74505805969E-08  0.10566000000E+00  0.10566000000E+00 0. -1.
     999900   -1    0    0    0    0 -0.00000000000E+00 -0.00000000000E+00 -0.74505805969E-08  0.93827000000E+00  0.93827000000E+00 0. -1.
     999902    2    1    2    0    0 -0.18464283765E-01  0.43631858433E-02  0.14082710766E-01  0.10203018408E+01  0.10200282135E+01 0.  0.
     999903    2    3    3    0    0  0.33226470612E-01  0.12310510730E+00 -0.17355992855E-01  0.13026815036E+00  0.20240916882E-01 0.  0.
         14    1    1    2    0    0  0.18464283765E-01 -0.43631858433E-02 -0.14082710766E-01  0.23628159221E-01  0.00000000000E+00 0.  1.
     999901    1    3    3    0    0 -0.51690754377E-01 -0.11874192146E+00  0.31438703621E-01  0.89003369042E+00  0.88000000000E+00 0.  1.
        -11    1    4    4    0    0  0.32602744917E-01  0.97065395050E-01 -0.19082983467E-01  0.10415877914E+00  0.51100000000E-03 0.  1.
         11    1    4    4    0    0  0.62372569532E-03  0.26039712253E-01  0.17269906123E-02  0.26109371220E-01  0.51100000000E-03 0. -1.
</event>
<event>
 8    1  0.1083484E+005  0.1043930E+01  0.7957747E-01            NaN
         13   -1    0    0    0    0  0.00000000000E+00  0.00000000000E+00  0.74505805969E-08  0.10566000000E+00  0.10566000000E+00 0. -1.
     999900   -1    0    0    0    0 -0.00000000000E+00 -0.00000000000E+00 -0.74505805969E-08  0.93827000000E+00  0.93827000000E+00 0.  1.
     999902    2    1    2    0    0 -0.65780469367E-02  0.93274811212E-02 -0.20283894060E-01  0.10206553579E+01  0.10203899503E+01 0.  0.
     999903    2    3    3    0    0  0.42947034211E-02  0.11958791014E-01 -0.13149607044E+00  0.13358529943E+00  0.19808041925E-01 0.  0.
         14    1    1    2    0    0  0.65780469367E-02 -0.93274811212E-02  0.20283894060E-01  0.23274642077E-01  0.00000000000E+00 0. -1.
     999901    1    3    3    0    0 -0.10872750358E-01 -0.26313098933E-02  0.11121217638E+00  0.88707005849E+00  0.88000000000E+00 0. -1.
        -11    1    4    4    0    0 -0.37290454711E-02 -0.35943786872E-02 -0.47474518482E-01  0.47758940151E-01  0.51100000000E-03 0.  1.
         11    1    4    4    0    0  0.80237488922E-02  0.15553169702E-01 -0.84021551954E-01  0.85826359283E-01  0.51100000000E-03 0. -1.
</event>
<event>
 8    1  0.1083484E+005  0.1043930E+01  0.7957747E-01            NaN
         13   -1    0    0    0    0  0.00000000000E+00  0.00000000000E+00  0.74505805969E-08  0.10566000000E+00  0.10566000000E+00 0. -1.
     999900   -1    0    0    0    0 -0.00000000000E+00 -0.00000000000E+00 -0.74505805969E-08  0.93827000000E+00  0.93827000000E+00 0. -1.
     999902    2    1    2    0    0 -0.17945705810E-01 -0.32745425574E-02 -0.14831626232E-01  0.10204194040E+01  0.10201485245E+01 0.  0.
     999903    2    3    3    0    0  0.37613139555E-01  0.98407712856E-02 -0.12438536732E+00  0.13179078704E+00  0.19634227762E-01 0.  0.
         14    1    1    2    0    0  0.17945705810E-01  0.32745425574E-02  0.14831626232E-01  0.23510595966E-01  0.00000000000E+00 0. -1.
     999901    1    3    3    0    0 -0.55558845365E-01 -0.13115313843E-01  0.10955374108E+00  0.88862861699E+00  0.88000000000E+00 0.  1.
        -11    1    4    4    0    0  0.26099325678E-01  0.22066672062E-02 -0.10335643160E+00  0.10662484352E+00  0.51100000000E-03 0. -1.
         11    1    4    4    0    0  0.11513813876E-01  0.76341040794E-02 -0.21028935717E-01  0.25165943524E-01  0.51100000000E-03 0.  1.
</event>
<event>
 8    1  0.1083484E+005  0.1043930E+01  0.7957747E-01            NaN
         13   -1    0    0    0    0  0.00000000000E+00  0.00000000000E+00  0.74505805969E-08  0.10566000000E+00  0.10566000000E+00 0.  1.
     999900   -1    0    0    0    0 -0.00000000000E+00 -0.00000000000E+00 -0.74505805969E-08  0.93827000000E+00  0.93827000000E+00 0. -1.
     999902    2    1    2    0    0 -0.23231324034E-01 -0.16325088595E-02 -0.54066558686E-02  0.10200220216E+01  0.10197417973E+01 0.  0.
     999903    2    3    3    0    0  0.71001117678E-01  0.57042038548E-01  0.87777525796E-01  0.12816679387E+00  0.20661077984E-01 0.  0.
         14    1    1    2    0    0  0.23231324034E-01  0.16325088595E-02  0.54066558686E-02  0.23907978359E-01  0.00000000000E+00 0.  1.
     999901    1    3    3    0    0 -0.94232441712E-01 -0.58674547408E-01 -0.93184181664E-01  0.89185522777E+00  0.88000000000E+00 0. -1.
        -11    1    4    4    0    0  0.62245947489E-02  0.12178201950E-01  0.19974609752E-01  0.24213639509E-01  0.51100000000E-03 0. -1.
         11    1    4    4    0    0  0.64776522929E-01  0.44863836598E-01  0.67802916044E-01  0.10395315436E+00  0.51100000000E-03 0.  1.
</event>
<event>
 8    1  0.1083484E+005  0.1043930E+01  0.7957747E-01            NaN
         13   -1    0    0    0    0  0.00000000000E+00  0.00000000000E+00  0.74505805969E-08  0.10566000000E+00  0.10566000000E+00 0.  1.
     999900   -1    0    0    0    0 -0.00000000000E+00 -0.00000000000E+00 -0.74505805969E-08  0.93827000000E+00  0.93827000000E+00 0. -1.
     999902    2    1    2    0    0 -0.22099287393E-01 -0.94242468475E-02  0.20008165261E-02  0.10198219474E+01  0.10195369568E+01 0.  0.
     999903    2    3    3    0    0 -0.14632258242E-01 -0.12905414059E+00 -0.98474018020E-02  0.13161732671E+00  0.18896433082E-01 0.  0.
         14    1    1    2    0    0  0.22099287393E-01  0.94242468475E-02 -0.20008165261E-02  0.24108052569E-01  0.00000000000E+00 0. -1.
     999901    1    3    3    0    0 -0.74670291507E-02  0.11962989374E+00  0.11848218328E-01  0.88820462073E+00  0.88000000000E+00 0. -1.
        -11    1    4    4    0    0  0.35533898398E-02 -0.49956850578E-01 -0.36464916765E-02  0.50218238933E-01  0.51100000000E-03 0. -1.
         11    1    4    4    0    0 -0.18185648082E-01 -0.79097290008E-01 -0.62009101255E-02  0.81399087773E-01  0.51100000000E-03 0.  1.
</event>
<event>
 8    1  0.1083484E+005  0.1043930E+01  0.7957747E-01            NaN
         13   -1    0    0    0    0  0.00000000000E+00  0.00000000000E+00  0.74505805969E-08  0.10566000000E+00  0.10566000000E+00 0.  1.
     999900   -1    0    0    0    0 -0.00000000000E+00 -0.00000000000E+00 -0.74505805969E-08  0.93827000000E+00  0.93827000000E+00 0.  1.
     999902    2    1    2    0    0 -0.61684295309E-02  0.41649378727E-02  0.22639653322E-01  0.10200982956E+01  0.10198198775E+01 0.  0.
     999903    2    3    3    0    0  0.10083301497E+00  0.77558971040E-01  0.21653342159E-01  0.13058327832E+00  0.20010858351E-01 0.  0.
         14    1    1    2    0    0  0.61684295309E-02 -0.41649378727E-02 -0.22639653322E-01  0.23831704364E-01  0.00000000000E+00 0. -1.
     999901    1    3    3    0    0 -0.10700144450E+00 -0.73394033168E-01  0.98631116305E-03  0.88951501732E+00  0.88000000000E+00 0.  1.
        -11    1    4    4    0    0  0.30965091451E-01  0.25776047759E-01  0.16257898295E-01  0.43449072541E-01  0.51100000000E-03 0. -1.
         11    1    4    4    0    0  0.69867923520E-01  0.51782923281E-01  0.53954438639E-02  0.87134205774E-01  0.51100000000E-03 0.  1.
</event>
<event>
 8    1  0.1083484E+005  0.1043930E+01  0.7957747E-01            NaN
         13   -1    0    0    0    0  0.00000000000E+00  0.00000000000E+00  0.74505805969E-08  0.10566000000E+00  0.10566000000E+00 0.  1.
     999900   -1    0    0    0    0 -0.00000000000E+00 -0.00000000000E+00 -0.74505805969E-08  0.93827000000E+00  0.93827000000E+00 0.  1.
     999902    2    1    2    0    0  0.14073187363E-01 -0.16002790496E-01 -0.14050152295E-01  0.10184045091E+01  0.10180845709E+01 0.  0.
     999903    2    3    3    0    0  0.99198776406E-01  0.91824660140E-02 -0.83137342187E-01  0.13124403722E+00  0.19709508311E-01 0.  0.
         14    1    1    2    0    0 -0.14073187363E-01  0.16002790496E-01  0.14050152295E-01  0.25525490901E-01  0.00000000000E+00 0.  1.
     999901    1    3    3    0    0 -0.85125589043E-01 -0.25185256510E-01  0.69087189891E-01  0.88716047188E+00  0.88000000000E+00 0. -1.
        -11    1    4    4    0    0  0.40500816198E-01 -0.28963964099E-02 -0.42830040492E-01  0.59020155154E-01  0.51100000000E-03 0. -1.
         11    1    4    4    0    0  0.58697960208E-01  0.12078862424E-01 -0.40307301695E-01  0.72223882068E-01  0.51100000000E-03 0.  1.
</event>
<event>
 7    1  0.1083484E+005  0.1043930E+01  0.7957747E-01            NaN
         13   -1    0    0    0    0  0.00000000000E+00  0.00000000000E+00  0.74505805969E-08  0.10566000000E+00  0.10566000000E+00 0.  1.
     999900   -1    0    0    0    0 -0.00000000000E+00 -0.00000000000E+00 -0.74505805969E-08  0.93827000000E+00  0.93827000000E+00 0. -1.
     999903    2    1    2    0    0 -0.82128212016E-01 -0.29866604356E-01 -0.40706655357E-01  0.98849177230E-01  0.21841950097E-01 0.  0.
         14    1    1    2    0    0  0.26413609767E-01 -0.17995270340E-02 -0.51539308346E-01  0.57941499664E-01  0.00000000000E+00 0. -1.
     999901    1    1    2    0    0  0.55714602249E-01  0.31666131390E-01  0.92245963704E-01  0.88713932311E+00  0.88000000000E+00 0.  1.
        -11    1    3    3    0    0 -0.61679821360E-01 -0.18423466593E-01 -0.39182747042E-01  0.75361616696E-01  0.51100000000E-03 0. -1.
         11    1    3    3    0    0 -0.20448390657E-01 -0.11443137763E-01 -0.15239083149E-02  0.23487560534E-01  0.51100000000E-03 0.  1.
</event>
<event>
 8    1  0.1083484E+005  0.1043930E+01  0.7957747E-01            NaN
         13   -1    0    0    0    0  0.00000000000E+00  0.00000000000E+00  0.74505805969E-08  0.10566000000E+00  0.10566000000E+00 0. -1.
     999900   -1    0    0    0    0 -0.00000000000E+00 -0.00000000000E+00 -0.74505805969E-08  0.93827000000E+00  0.93827000000E+00 0.  1.
     999902    2    1    2    0    0 -0.18580593501E-01 -0.13230085829E-01 -0.48695197912E-03  0.10211152954E+01  0.10208603899E+01 0.  0.
     999903    2    3    3    0    0 -0.12138287849E+00 -0.29450159174E-02 -0.52422628987E-01  0.13355042054E+00  0.18577041890E-01 0.  0.
         14    1    1    2    0    0  0.18580593501E-01  0.13230085829E-01  0.48695197912E-03  0.22814704647E-01  0.00000000000E+00 0. -1.
     999901    1    3    3    0    0  0.10280228499E+00 -0.10285069912E-01  0.51935677008E-01  0.88756487482E+00  0.88000000000E+00 0.  1.
        -11    1    4    4    0    0 -0.34134419626E-01 -0.53707517384E-02 -0.22691410486E-01  0.41342046494E-01  0.51100000000E-03 0. -1.
         11    1    4    4    0    0 -0.87248458867E-01  0.24257358211E-02 -0.29731218501E-01  0.92208374042E-01  0.51100000000E-03 0.  1.
</event>
<event>
 8    1  0.1083484E+005  0.1043930E+01  0.7957747E-01            NaN
         13   -1    0    0    0    0  0.00000000000E+00  0.00000000000E+00  0.74505805969E-08  0.10566000000E+00  0.10566000000E+00 0. -1.
     999900   -1    0    0    0    0 -0.00000000000E+00 -0.00000000000E+00 -0.74505805969E-08  0.93827000000E+00  0.93827000000E+00 0.  1.
     999902    2    1    2    0    0  0.39530685946E-02  0.25902056536E-01 -0.43624418412E-02  0.10173673536E+01  0.10170205298E+01 0.  0.
     999903    2    3    3    0    0  0.60927202208E-01  0.31753090100E-01 -0.10795080065E+00  0.12944233731E+00  0.19533576962E-01 0.  0.
         14    1    1    2    0    0 -0.39530685946E-02 -0.25902056536E-01  0.43624418412E-02  0.26562646384E-01  0.00000000000E+00 0. -1.
     999901    1    3    3    0    0 -0.56974133613E-01 -0.58510335641E-02  0.10358835881E+00  0.88792501630E+00  0.88000000000E+00 0. -1.
        -11    1    4    4    0    0  0.82070328638E-02  0.53928927638E-02 -0.30919935105E-01  0.32445988792E-01  0.51100000000E-03 0. -1.
         11    1    4    4    0    0  0.52720169344E-01  0.26360197336E-01 -0.77030865543E-01  0.96996348522E-01  0.51100000000E-03 0.  1.
</event>
<event>
 8    1  0.1083484E+005  0.1043930E+01  0.7957747E-01            NaN
         13   -1    0    0    0    0  0.00000000000E+00  0.00000000000E+00  0.74505805969E-08  0.10566000000E+00  0.10566000000E+00 0.  1.
     999900   -1    0    0    0    0 -0.00000000000E+00 -0.00000000000E+00 -0.74505805969E-08  0.93827000000E+00  0.93827000000E+00 0. -1.
     999902    2    1    2    0    0 -0.15223350656E-01 -0.43138466493E-03 -0.18076316104E-01  0.10202933822E+01  0.10200195567E+01 0.  0.
     999903    2    3    3    0    0 -0.30947818826E-01 -0.15664421515E-01 -0.12753000571E+00  0.13324241720E+00  0.16926245686E-01 0.  0.
         14    1    1    2    0    0  0.15223350656E-01  0.43138466493E-03  0.18076316104E-01  0.23636617816E-01  0.00000000000E+00 0.  1.
     999901    1    3    3    0    0  0.15724468171E-01  0.15233036850E-01  0.10945368961E+00  0.88705096498E+00  0.88000000000E+00 0.  1.
        -11    1    4    4    0    0 -0.65535172411E-02  0.36116470151E-02 -0.25031222506E-01  0.26130744412E-01  0.51100000000E-03 0.  1.
         11    1    4    4    0    0 -0.24394301585E-01 -0.19276068530E-01 -0.10249878321E+00  0.10711167279E+00  0.51100000000E-03 0. -1.
</event>
<event>
 8    1  0.1083484E+005  0.1043930E+01  0.7957747E-01            NaN
         13   -1    0    0    0    0  0.00000000000E+00  0.00000000000E+00  0.74505805969E-08  0.10566000000E+00  0.10566000000E+00 0.  1.
     999900   -1    0    0    0    0 -0.00000000000E+00 -0.00000000000E+00 -0.74505805969E-08  0.93827000000E+00  0.93827000000E+00 0. -1.
     999902    2    1    2    0    0 -0.76282146031E-02 -0.61548588293E-02  0.15622659820E-01  0.10254871302E+01  0.10253212740E+01 0.  0.
     999903    2    3    3    0    0  0.23776759225E-01 -0.60528048584E-01  0.11858352633E+00  0.13726212711E+00  0.23449091193E-01 0.  0.
         14    1    1    2    0    0  0.76282146031E-02  0.61548588293E-02 -0.15622659820E-01  0.18442869763E-01  0.00000000000E+00 0. -1.
     999901    1    3    3    0    0 -0.31404973828E-01  0.54373189754E-01 -0.10296086651E+00  0.88822500313E+00  0.88000000000E+00 0. -1.
        -11    1    4    4    0    0  0.10634329959E-01 -0.52354587769E-01  0.87180049767E-01  0.10224829599E+00  0.51100000000E-03 0. -1.
         11    1    4    4    0    0  0.13142429266E-01 -0.81734608149E-02  0.31403476563E-01  0.35013831124E-01  0.51100000000E-03 0.  1.
</event>
<event>
 8    1  0.1083484E+005  0.1043930E+01  0.7957747E-01            NaN
         13   -1    0    0    0    0  0.00000000000E+00  0.00000000000E+00  0.74505805969E-08  0.10566000000E+00  0.10566000000E+00 0.  1.
     999900   -1    0    0    0    0 -0.00000000000E+00 -0.00000000000E+00 -0.74505805969E-08  0.93827000000E+00  0.93827000000E+00 0. -1.
     999902    2    1    2    0    0  0.77410399942E-02  0.12750645424E-01  0.22447648895E-01  0.10169781986E+01  0.10166209996E+01 0.  0.
     999903    2    3    3    0    0  0.62655615016E-01  0.56205687805E-01  0.98394020819E-01  0.13093542158E+00  0.19439543657E-01 0.  0.
         14    1    1    2    0    0 -0.77410399942E-02 -0.12750645424E-01 -0.22447648895E-01  0.26951801421E-01  0.00000000000E+00 0.  1.
     999901    1    3    3    0    0 -0.54914575022E-01 -0.43455042381E-01 -0.75946371924E-01  0.88604277700E+00  0.88000000000E+00 0. -1.
        -11    1    4    4    0    0  0.31631391492E-01  0.27150505560E-01  0.63388108972E-01  0.75868362048E-01  0.51100000000E-03 0.  1.
         11    1    4    4    0    0  0.31024223524E-01  0.29055182246E-01  0.35005911847E-01  0.55067059535E-01  0.51100000000E-03 0. -1.
</event>
<event>
 8    1  0.1083484E+005  0.1043930E+01  0.7957747E-01            NaN
         13   -1    0    0    0    0  0.00000000000E+00  0.00000000000E+00  0.74505805969E-08  0.10566000000E+00  0.10566000000E+00 0. -1.
     999900   -1    0    0    0    0 -0.00000000000E+00 -0.00000000000E+00 -0.74505805969E-08  0.93827000000E+00  0.93827000000E+00 0. -1.
     999902    2    1    2    0    0  0.79907103341E-02  0.19002579649E-01  0.11377120774E-01  0.10203845469E+01  0.10201128541E+01 0.  0.
     999903    2    3    3    0    0  0.33621457673E-01  0.41193412743E-01  0.12028710103E+00  0.13302286636E+00  0.19969893090E-01 0.  0.
         14    1    1    2    0    0 -0.79907103341E-02 -0.19002579649E-01 -0.11377120774E-01  0.23545453108E-01  0.00000000000E+00 0. -1.
     999901    1    3    3    0    0 -0.25630747339E-01 -0.22190833094E-01 -0.10890998026E+00  0.88736168054E+00  0.88000000000E+00 0. -1.
        -11    1    4    4    0    0 -0.20384020490E-03  0.12871384414E-02  0.18736258631E-01  0.18788474783E-01  0.51100000000E-03 0.  1.
         11    1    4    4    0    0  0.33825297878E-01  0.39906274301E-01  0.10155084240E+00  0.11423439157E+00  0.51100000000E-03 0. -1.
</event>
<event>
 8    1  0.1083484E+005  0.1043930E+01  0.7957747E-01            NaN
         13   -1    0    0    0    0  0.00000000000E+00  0.00000000000E+00  0.74505805969E-08  0.10566000000E+00  0.10566000000E+00 0. -1.
     999900   -1    0    0    0    0 -0.00000000000E+00 -0.00000000000E+00 -0.74505805969E-08  0.93827000000E+00  0.93827000000E+00 0.  1.
     999902    2    1    2    0    0  0.12739673710E-01 -0.15594549179E-01 -0.77018154135E-02  0.10223706120E+01  0.10221432684E+01 0.  0.
     999903    2    3    3    0    0 -0.10916503590E+00 -0.23695145381E-01  0.62768678602E-01  0.13113973932E+00  0.27915215168E-01 0.  0.
         14    1    1    2    0    0 -0.12739673710E-01  0.15594549179E-01  0.77018154135E-02  0.21559388002E-01  0.00000000000E+00 0.  1.
     999901    1    3    3    0    0  0.12190470961E+00  0.81005962020E-02 -0.70470494016E-01  0.89123087268E+00  0.88000000000E+00 0.  1.
        -11    1    4    4    0    0 -0.42256815700E-01 -0.12830167610E-01  0.40127857961E-01  0.59672085429E-01  0.51100000000E-03 0. -1.
         11    1    4    4    0    0 -0.66908220202E-01 -0.10864977772E-01  0.22640820642E-01  0.71467653893E-01  0.51100000000E-03 0.  1.
</event>
<event>
 8    1  0.1083484E+005  0.1043930E+01  0.7957747E-01            NaN
         13   -1    0    0    0    0  0.00000000000E+00  0.00000000000E+00  0.74505805969E-08  0.10566000000E+00  0.10566000000E+00 0. -1.
     999900   -1    0    0    0    0 -0.00000000000E+00 -0.00000000000E+00 -0.74505805969E-08  0.93827000000E+00  0.93827000000E+00 0. -1.
     999902    2    1    2    0    0 -0.96592780183E-02  0.13133216047E-01 -0.17006394641E-01  0.10203715520E+01  0.10200995557E+01 0.  0.
     999903    2    3    3    0    0  0.47662431546E-01 -0.63904259926E-01  0.97798739414E-01  0.12773457653E+00  0.19901426903E-01 0.  0.
         14    1    1    2    0    0  0.96592780183E-02 -0.13133216047E-01  0.17006394641E-01  0.23558448044E-01  0.00000000000E+00 0. -1.
     999901    1    3    3    0    0 -0.57321709564E-01  0.77037475973E-01 -0.11480513405E+00  0.89263697543E+00  0.88000000000E+00 0. -1.
        -11    1    4    4    0    0  0.16168748398E-01 -0.34084449488E-01  0.35358371884E-01  0.51707385400E-01  0.51100000000E-03 0.  1.
         11    1    4    4    0    0  0.31493683148E-01 -0.29819810439E-01  0.62440367530E-01  0.76027191130E-01  0.51100000000E-03 0. -1.
</event>
<event>
 8    1  0.1083484E+005  0.1043930E+01  0.7957747E-01            NaN
         13   -1    0    0    0    0  0.00000000000E+00  0.00000000000E+00  0.74505805969E-08  0.10566000000E+00  0.10566000000E+00 0.  1.
     999900   -1    0    0    0    0 -0.00000000000E+00 -0.00000000000E+00 -0.74505805969E-08  0.93827000000E+00  0.93827000000E+00 0. -1.
     999902    2    1    2    0    0  0.16516606567E-01 -0.49362056315E-02 -0.16471257775E-01  0.10200874592E+01  0.10198087849E+01 0.  0.
     999903    2    3    3    0    0  0.11503097896E+00  0.59510842836E-01  0.73187817899E-02  0.13192955118E+00  0.24045277503E-01 0.  0.
         14    1    1    2    0    0 -0.16516606567E-01  0.49362056315E-02  0.16471257775E-01  0.23842540788E-01  0.00000000000E+00 0.  1.
     999901    1    3    3    0    0 -0.98514372397E-01 -0.64447048468E-01 -0.23790039565E-01  0.88815790804E+00  0.88000000000E+00 0. -1.
        -11    1    4    4    0    0  0.36133438664E-01  0.29644114949E-01 -0.35224229073E-02  0.46872886885E-01  0.51100000000E-03 0.  1.
         11    1    4    4    0    0  0.78897540299E-01  0.29866727887E-01  0.10841204697E-01  0.85056664291E-01  0.51100000000E-03 0. -1.
</event>
<event>
 8    1  0.1083484E+005  0.1043930E+01  0.7957747E-01            NaN
         13   -1    0    0    0    0  0.00000000000E+00  0.00000000000E+00  0.74505805969E-08  0.10566000000E+00  0.10566000000E+00 0. -1.
     999900   -1    0    0    0    0 -0.00000000000E+00 -0.00000000000E+00 -0.74505805969E-08  0.93827000000E+00  0.93827000000E+00 0.  1.
     999902    2    1    2    0    0 -0.10376288725E-01  0.57888011061E-03 -0.21016199883E-01  0.10204846779E+01  0.10202153178E+01 0.  0.
     999903    2    3    3    0    0  0.17029135536E-01 -0.10013186063E+00 -0.82208540078E-01  0.13220644838E+00  0.20097760124E-01 0.  0.
         14    1    1    2    0    0  0.10376288725E-01 -0.57888011061E-03  0.21016199883E-01  0.23445322080E-01  0.00000000000E+00 0. -1.
     999901    1    3    3    0    0 -0.27405424261E-01  0.10071074074E+00  0.61192340195E-01  0.88827822954E+00  0.88000000000E+00 0. -1.
        -11    1    4    4    0    0  0.58351041883E-02 -0.81337637268E-01 -0.62284618356E-01  0.10261332507E+00  0.51100000000E-03 0.  1.
         11    1    4    4    0    0  0.11194031348E-01 -0.18794223357E-01 -0.19923921721E-01  0.29593123309E-01  0.51100000000E-03 0. -1.
</event>
<event>
 8    1  0.1083484E+005  0.1043930E+01  0.7957747E-01            NaN
         13   -1    0    0    0    0  0.00000000000E+00  0.00000000000E+00  0.74505805969E-08  0.10566000000E+00  0.10566000000E+00 0. -1.
     999900   -1    0    0    0    0 -0.00000000000E+00 -0.00000000000E+00 -0.74505805969E-08  0.93827000000E+00  0.93827000000E+00 0. -1.
     999902    2    1    2    0    0 -0.21590084690E-01  0.77996452606E-02 -0.74106646372E-02  0.10198077245E+01  0.10195223935E+01 0.  0.
     999903    2    3    3    0    0 -0.51046924598E-01  0.58116987757E-01  0.10369427556E+00  0.13090736561E+00  0.20021558590E-01 0.  0.
         14    1    1    2    0    0  0.21590084690E-01 -0.77996452606E-02  0.74106646372E-02  0.24122275462E-01  0.00000000000E+00 0. -1.
     999901    1    3    3    0    0  0.29456839908E-01 -0.50317342497E-01 -0.11110494020E+00  0.88890035893E+00  0.88000000000E+00 0. -1.
        -11    1    4    4    0    0 -0.57802582538E-02  0.13485120713E-01  0.31241562693E-01  0.34518925630E-01  0.51100000000E-03 0. -1.
         11    1    4    4    0    0 -0.45266666344E-01  0.44631867044E-01  0.72452712870E-01  0.96388439976E-01  0.51100000000E-03 0.  1.
</event>
<event>
 8    1  0.1083484E+005  0.1043930E+01  0.7957747E-01            NaN
         13   -1    0    0    0    0  0.00000000000E+00  0.00000000000E+00  0.74505805969E-08  0.10566000000E+00  0.10566000000E+00 0. -1.
     999900   -1    0    0    0    0 -0.00000000000E+00 -0.00000000000E+00 -0.74505805969E-08  0.93827000000E+00  0.93827000000E+00 0.  1.
     999902    2    1    2    0    0 -0.40683961657E-02  0.14520986418E-01 -0.17998783102E-01  0.10204487929E+01  0.10201785980E+01 0.  0.
     999903    2    3    3    0    0 -0.44203137767E-01  0.11712869287E+00  0.36561407739E-01  0.13190169041E+00  0.19704601414E-01 0.  0.
         14    1    1    2    0    0  0.40683961657E-02 -0.14520986418E-01  0.17998783102E-01  0.23481207104E-01  0.00000000000E+00 0. -1.
     999901    1    3    3    0    0  0.40134741601E-01 -0.10260770645E+00 -0.54560190841E-01  0.88854710248E+00  0.88000000000E+00 0. -1.
        -11    1    4    4    0    0 -0.40370704545E-01  0.95682995179E-01  0.23439700700E-01  0.10646459525E+00  0.51100000000E-03 0. -1.
         11    1    4    4    0    0 -0.38324332223E-02  0.21445697688E-01  0.13121707039E-01  0.25437095163E-01  0.51100000000E-03 0.  1.
</event>
<event>
 8    1  0.1083484E+005  0.1043930E+01  0.7957747E-01            NaN
         13   -1    0    0    0    0  0.00000000000E+00  0.00000000000E+00  0.74505805969E-08  0.10566000000E+00  0.10566000000E+00 0. -1.
     999900   -1    0    0    0    0 -0.00000000000E+00 -0.00000000000E+00 -0.74505805969E-08  0.93827000000E+00  0.93827000000E+00 0.  1.
     999902    2    1    2    0    0  0.10337589915E-01  0.22155186494E-01  0.22725290807E-02  0.10193763355E+01  0.10190805811E+01 0.  0.
     999903    2    3    3    0    0  0.49272949201E-01 -0.11069159168E+00 -0.35453653649E-01  0.12775562376E+00  0.19598108395E-01 0.  0.
         14    1    1    2    0    0 -0.10337589915E-01 -0.22155186494E-01 -0.22725290807E-02  0.24553664538E-01  0.00000000000E+00 0.  1.
     999901    1    3    3    0    0 -0.38935359286E-01  0.13284677818E+00  0.37726182729E-01  0.89162071170E+00  0.88000000000E+00 0.  1.
        -11    1    4    4    0    0  0.17346734801E-01 -0.27064523885E-01 -0.16959952209E-01  0.36349673469E-01  0.51100000000E-03 0.  1.
         11    1    4    4    0    0  0.31926214400E-01 -0.83627067798E-01 -0.18493701440E-01  0.91405950290E-01  0.51100000000E-03 0. -1.
</event>
<event>
 8    1  0.1083484E+005  0.1043930E+01  0.7957747E-01            NaN
         13   -1    0    0    0    0  0.00000000000E+00  0.00000000000E+00  0.74505805969E-08  0.10566000000E+00  0.10566000000E+00 0. -1.
     999900   -1    0    0    0    0 -0.00000000000E+00 -0.00000000000E+00 -0.74505805969E-08  0.93827000000E+00  0.93827000000E+00 0. -1.
     999902    2    1    2    0    0  0.82292258913E-02 -0.18291492633E-01 -0.12920829267E-01  0.10200711088E+01  0.10197920476E+01 0.  0.
     999903    2    3    3    0    0 -0.10337908739E+00 -0.94999070814E-02  0.73483104099E-01  0.12878027674E+00  0.20176945875E-01 0.  0.
         14    1    1    2    0    0 -0.82292258913E-02  0.18291492633E-01  0.12920829267E-01  0.23858891225E-01  0.00000000000E+00 0. -1.
     999901    1    3    3    0    0  0.11160831328E+00 -0.87915855519E-02 -0.86403933366E-01  0.89129083204E+00  0.88000000000E+00 0. -1.
        -11    1    4    4    0    0 -0.32060636884E-01 -0.12370188998E-01  0.24759412182E-01  0.42357946431E-01  0.51100000000E-03 0.  1.
         11    1    4    4    0    0 -0.71318450506E-01  0.28702819166E-02  0.48723691917E-01  0.86422330308E-01  0.51100000000E-03 0. -1.
</event>
<event>
 8    1  0.1083484E+005  0.1043930E+01  0.7957747E-01            NaN
         13   -1    0    0    0    0  0.00000000000E+00  0.00000000000E+00  0.74505805969E-08  0.10566000000E+00  0.10566000000E+00 0.  1.
     999900   -1    0    0    0    0 -0.00000000000E+00 -0.00000000000E+00 -0.74505805969E-08  0.93827000000E+00  0.93827000000E+00 0. -1.
     999902    2    1    2    0    0 -0.23034499451E-01  0.48479440674E-02  0.54370720229E-02  0.10197710994E+01  0.10194848908E+01 0.  0.
     999903    2    3    3    0    0  0.10316023387E+00  0.48498660519E-01  0.55365754303E-01  0.12829851480E+00  0.20024690373E-01 0.  0.
         14    1    1    2    0    0  0.23034499451E-01 -0.48479440674E-02 -0.54370720229E-02  0.24158900613E-01  0.00000000000E+00 0.  1.
     999901    1    3    3    0    0 -0.12619473332E+00 -0.43650716451E-01 -0.49928682280E-01  0.89147258459E+00  0.88000000000E+00 0.  1.
        -11    1    4    4    0    0  0.37324545589E-01  0.21705788311E-01  0.11181409179E-01  0.44604349361E-01  0.51100000000E-03 0.  1.
         11    1    4    4    0    0  0.65835688283E-01  0.26792872207E-01  0.44184345124E-01  0.83694165435E-01  0.51100000000E-03 0. -1.
</event>
<event>
 8    1  0.1083484E+005  0.1043930E+01  0.7957747E-01            NaN
         13   -1    0    0    0    0  0.00000000000E+00  0.00000000000E+00  0.74505805969E-08  0.10566000000E+00  0.10566000000E+00 0.  1.
     999900   -1    0    0    0    0 -0.00000000000E+00 -0.00000000000E+00 -0.74505805969E-08  0.93827000000E+00  0.93827000000E+00 0. -1.
     999902    2    1    2    0    0  0.80993010614E-02 -0.20169206368E-01  0.96021279148E-02  0.10201687622E+01  0.10198920075E+01 0.  0.
     999903    2    3    3    0    0  0.44187963839E-01 -0.84078007403E-01  0.91949267015E-01  0.13328219797E+00  0.16964348290E-01 0.  0.
         14    1    1    2    0    0 -0.80993010614E-02  0.20169206368E-01 -0.96021279148E-02  0.23761237840E-01  0.00000000000E+00 0. -1.
     999901    1    3    3    0    0 -0.36088662778E-01  0.63908801035E-01 -0.82347139100E-01  0.88688656419E+00  0.88000000000E+00 0. -1.
        -11    1    4    4    0    0  0.37186768148E-01 -0.74016449721E-01  0.86783792123E-01  0.11997073914E+00  0.51100000000E-03 0.  1.
         11    1    4    4    0    0  0.70011956913E-02 -0.10061557682E-01  0.51654748919E-02  0.13311458821E-01  0.51100000000E-03 0. -1.
</event>
<event>
 8    1  0.1083484E+005  0.1043930E+01  0.7957747E-01            NaN
         13   -1    0    0    0    0  0.00000000000E+00  0.00000000000E+00  0.74505805969E-08  0.10566000000E+00  0.10566000000E+00 0.  1.
     999900   -1    0    0    0    0 -0.00000000000E+00 -0.00000000000E+00 -0.74505805969E-08  0.93827000000E+00  0.93827000000E+00 0.  1.
     999902    2    1    2    0    0 -0.14495893740E-02 -0.61079181135E-02  0.22675212750E-01  0.10204018627E+01  0.10201305740E+01 0.  0.
     999903    2    3    3    0    0 -0.95277981505E-03 -0.10490707609E+00  0.79175966754E-01  0.13307224204E+00  0.20808303311E-01 0.  0.
         14    1    1    2    0    0  0.14495893740E-02  0.61079181135E-02 -0.22675212750E-01  0.23528137331E-01  0.00000000000E+00 0. -1.
     999901    1    3    3    0    0 -0.49680955892E-03  0.98799157981E-01 -0.56500754004E-01  0.88732962063E+00  0.88000000000E+00 0.  1.
        -11    1    4    4    0    0 -0.69406280816E-02 -0.22121233794E-01  0.24175704163E-01  0.33499956649E-01  0.51100000000E-03 0.  1.
         11    1    4    4    0    0  0.59878482665E-02 -0.82785842301E-01  0.55000262591E-01  0.99572285393E-01  0.51100000000E-03 0. -1.
</event>
<event>
 8    1  0.1083484E+005  0.1043930E+01  0.7957747E-01            NaN
         13   -1    0    0    0    0  0.00000000000E+00  0.00000000000E+00  0.74505805969E-08  0.10566000000E+00  0.10566000000E+00 0.  1.
     999900   -1    0    0    0    0 -0.00000000000E+00 -0.00000000000E+00 -0.74505805969E-08  0.93827000000E+00  0.93827000000E+00 0. -1.
     999902    2    1    2    0    0  0.14688735516E-01  0.15600703328E-01  0.11114716615E-01  0.10197912796E+01  0.10195055548E+01 0.  0.
     999903    2    3    3    0    0  0.11183520577E+00 -0.26420719503E-01 -0.59044426222E-01  0.13067624659E+00  0.19618090842E-01 0.  0.
         14    1    1    2    0    0 -0.14688735516E-01 -0.15600703328E-01 -0.11114716615E-01  0.24138720364E-01  0.00000000000E+00 0. -1.
     999901    1    3    3    0    0 -0.97146470250E-01  0.42021422831E-01  0.70159142836E-01  0.88911503304E+00  0.88000000000E+00 0.  1.
        -11    1    4    4    0    0  0.82302049136E-01 -0.27757044301E-01 -0.41122802169E-01  0.96101127879E-01  0.51100000000E-03 0.  1.
         11    1    4    4    0    0  0.29533156630E-01  0.13363247979E-02 -0.17921624053E-01  0.34575118715E-01  0.51100000000E-03 0. -1.
</event>
<event>
 8    1  0.1083484E+005  0.1043930E+01  0.7957747E-01            NaN
         13   -1    0    0    0    0  0.00000000000E+00  0.00000000000E+00  0.74505805969E-08  0.10566000000E+00  0.10566000000E+00 0.  1.
     999900   -1    0    0    0    0 -0.00000000000E+00 -0.00000000000E+00 -0.74505805969E-08  0.93827000000E+00  0.93827000000E+00 0.  1.
     999902    2    1    2    0    0 -0.79503178100E-02  0.15196502543E-01 -0.15555658160E-01  0.10207757403E+01  0.10205131024E+01 0.  0.
     999903    2    3    3    0    0 -0.46069812699E-01 -0.10202183873E+00  0.60683465279E-01  0.12892057301E+00  0.20177907932E-01 0.  0.
         14    1    1    2    0    0  0.79503178100E-02 -0.15196502543E-01  0.15555658160E-01  0.23154259729E-01  0.00000000000E+00 0.  1.
     999901    1    3    3    0    0  0.38119494890E-01  0.11721834127E+00 -0.76239123439E-01  0.89185516726E+00  0.88000000000E+00 0.  1.
        -11    1    4    4    0    0 -0.65357837744E-02 -0.23039602116E-01  0.21896315322E-01  0.32453805337E-01  0.51100000000E-03 0. -1.
         11    1    4    4    0    0 -0.39534028925E-01 -0.78982236611E-01  0.38787149957E-01  0.96466767676E-01  0.51100000000E-03 0.  1.
</event>
<event>
 8    1  0.1083484E+005  0.1043930E+01  0.7957747E-01            NaN
         13   -1    0    0    0    0  0.00000000000E+00  0.00000000000E+00  0.74505805969E-08  0.10566000000E+00  0.10566000000E+00 0. -1.
     999900   -1    0    0    0    0 -0.00000000000E+00 -0.00000000000E+00 -0.74505805969E-08  0.93827000000E+00  0.93827000000E+00 0.  1.
     999902    2    1    2    0    0  0.17270482125E-02 -0.14455526849E-01  0.19047775446E-01  0.10199557909E+01  0.10196739933E+01 0.  0.
     999903    2    3    3    0    0 -0.42293788055E-01 -0.11914877919E+00 -0.28904415451E-01  0.13136256354E+00  0.20867720934E-01 0.  0.
         14    1    1    2    0    0 -0.17270482125E-02  0.14455526849E-01 -0.19047775446E-01  0.23974209089E-01  0.00000000000E+00 0.  1.
     999901    1    3    3    0    0  0.44020836268E-01  0.10469325234E+00  0.47952190896E-01  0.88859322737E+00  0.88000000000E+00 0. -1.
        -11    1    4    4    0    0 -0.33273580213E-01 -0.71866934212E-01 -0.10787156385E-01  0.79928788537E-01  0.51100000000E-03 0. -1.
         11    1    4    4    0    0 -0.90202078421E-02 -0.47281844981E-01 -0.18117259065E-01  0.51433775006E-01  0.51100000000E-03 0.  1.
</event>
<event>
 8    1  0.1083484E+005  0.1043930E+01  0.7957747E-01            NaN
         13   -1    0    0    0    0  0.00000000000E+00  0.00000000000E+00  0.74505805969E-08  0.10566000000E+00  0.10566000000E+00 0. -1.
     999900   -1    0    0    0    0 -0.00000000000E+00 -0.00000000000E+00 -0.74505805969E-08  0.93827000000E+00  0.93827000000E+00 0. -1.
     999902    2    1    2    0    0 -0.18815972799E-01 -0.35511311237E-02  0.14729366636E-01  0.10197720695E+01  0.10194858842E+01 0.  0.
     999903    2    3    3    0    0 -0.10140234478E+00 -0.61808051851E-01  0.56584145580E-01  0.13299915597E+00  0.19604569796E-01 0.  0.
         14    1    1    2    0    0  0.18815972799E-01  0.35511311237E-02 -0.14729366636E-01  0.24157930502E-01  0.00000000000E+00 0. -1.
     999901    1    3    3    0    0  0.82586371980E-01  0.58256920728E-01 -0.41854778944E-01  0.88677291353E+00  0.88000000000E+00 0. -1.
        -11    1    4    4    0    0 -0.90625022951E-01 -0.49416139965E-01  0.43584973824E-01  0.11204802871E+00  0.51100000000E-03 0. -1.
         11    1    4    4    0    0 -0.10777321828E-01 -0.12391911887E-01  0.12999171755E-01  0.20951127257E-01  0.51100000000E-03 0.  1.
</event>
<event>
 8    1  0.1083484E+005  0.1043930E+01  0.7957747E-01            NaN
         13   -1    0    0    0    0  0.00000000000E+00  0.00000000000E+00  0.74505805969E-08  0.10566000000E+00  0.10566000000E+00 0.  1.
     999900   -1    0    0    0    0 -0.00000000000E+00 -0.00000000000E+00 -0.74505805969E-08  0.93827000000E+00  0.93827000000E+00 0.  1.
     999902    2    1    2    0    0  0.65620608437E-02  0.13405595152E-01 -0.18735974144E-01  0.10199757237E+01  0.10196944001E+01 0.  0.
     999903    2    3    3    0    0  0.89734393363E-01  0.50392696974E-01  0.76819593862E-01  0.13013498003E+00  0.21028023332E-01 0.  0.
         14    1    1    2    0    0 -0.65620608437E-02 -0.13405595152E-01  0.18735974144E-01  0.23954276258E-01  0.00000000000E+00 0.  1.
     999901    1    3    3    0    0 -0.83172332519E-01 -0.36987101821E-01 -0.95555568006E-01  0.88984074371E+00  0.88000000000E+00 0.  1.
        -11    1    4    4    0    0  0.76005856547E-01  0.43518976422E-01  0.73683138721E-01  0.11445635671E+00  0.51100000000E-03 0.  1.
         11    1    4    4    0    0  0.13728536815E-01  0.68737205519E-02  0.31364551404E-02  0.15678623319E-01  0.51100000000E-03 0. -1.
</event>
<event>
 8    1  0.1083484E+005  0.1043930E+01  0.7957747E-01            NaN
         13   -1    0    0    0    0  0.00000000000E+00  0.00000000000E+00  0.74505805969E-08  0.10566000000E+00  0.10566000000E+00 0. -1.
     999900   -1    0    0    0    0 -0.00000000000E+00 -0.00000000000E+00 -0.74505805969E-08  0.93827000000E+00  0.93827000000E+00 0.  1.
     999902    2    1    2    0    0  0.18747377191E-01  0.18348642030E-01  0.31166892039E-02  0.10175131386E+01  0.10171701611E+01 0.  0.
     999903    2    3    3    0    0 -0.17658587005E-01 -0.39368508846E-01 -0.11743940526E+00  0.12667620869E+00  0.19827827854E-01 0.  0.
         14    1    1    2    0    0 -0.18747377191E-01 -0.18348642030E-01 -0.31166892039E-02  0.26416861424E-01  0.00000000000E+00 0. -1.
     999901    1    3    3    0    0  0.36405964196E-01  0.57717150876E-01  0.12055609446E+00  0.89083692988E+00  0.88000000000E+00 0. -1.
        -11    1    4    4    0    0 -0.66480406990E-02 -0.15703048545E-01 -0.74459191028E-01  0.76388575247E-01  0.51100000000E-03 0. -1.
         11    1    4    4    0    0 -0.11010546306E-01 -0.23665460301E-01 -0.42980214231E-01  0.50287633445E-01  0.51100000000E-03 0.  1.
</event>
<event>
 8    1  0.1083484E+005  0.1043930E+01  0.7957747E-01            NaN
         13   -1    0    0    0    0  0.00000000000E+00  0.00000000000E+00  0.74505805969E-08  0.10566000000E+00  0.10566000000E+00 0. -1.
     999900   -1    0    0    0    0 -0.00000000000E+00 -0.00000000000E+00 -0.74505805969E-08  0.93827000000E+00  0.93827000000E+00 0. -1.
     999902    2    1    2    0    0  0.14221056694E-01 -0.19999953109E-01  0.65499833997E-03  0.10193807515E+01  0.10190851049E+01 0.  0.
     999903    2    3    3    0    0  0.77574207206E-01  0.26454234119E-01 -0.99387321632E-01  0.13023504975E+00  0.19124443967E-01 0.  0.
         14    1    1    2    0    0 -0.14221056694E-01  0.19999953109E-01 -0.65499833997E-03  0.24549248475E-01  0.00000000000E+00 0. -1.
     999901    1    3    3    0    0 -0.63353150513E-01 -0.46454187228E-01  0.10004231997E+00  0.88914570177E+00  0.88000000000E+00 0.  1.
        -11    1    4    4    0    0  0.42909291187E-01  0.88108337537E-02 -0.64576726135E-01  0.78033664152E-01  0.51100000000E-03 0. -1.
         11    1    4    4    0    0  0.34664916019E-01  0.17643400365E-01 -0.34810595496E-01  0.52201385603E-01  0.51100000000E-03 0.  1.
</event>
<event>
 8    1  0.1083484E+005  0.1043930E+01  0.7957747E-01            NaN
         13   -1    0    0    0    0  0.00000000000E+00  0.00000000000E+00  0.74505805969E-08  0.10566000000E+00  0.10566000000E+00 0.  1.
     999900   -1    0    0    0    0 -0.00000000000E+00 -0.00000000000E+00 -0.74505805969E-08  0.93827000000E+00  0.93827000000E+00 0. -1.
     999902    2    1    2    0    0  0.17915640679E-01  0.13563859430E-01  0.11135707802E-01  0.10188510755E+01  0.10185423711E+01 0.  0.
     999903    2    3    3    0    0  0.10249924003E+00  0.67370991970E-01  0.45413213523E-01  0.13249643987E+00  0.21166054176E-01 0.  0.
         14    1    1    2    0    0 -0.17915640679E-01 -0.13563859430E-01 -0.11135707802E-01  0.25078924455E-01  0.00000000000E+00 0.  1.
     999901    1    3    3    0    0 -0.84583599349E-01 -0.53807132539E-01 -0.34277505721E-01  0.88635463568E+00  0.88000000000E+00 0. -1.
        -11    1    4    4    0    0  0.81165251948E-01  0.60942466690E-01  0.31726148818E-01  0.10634186386E+00  0.51100000000E-03 0. -1.
         11    1    4    4    0    0  0.21333988080E-01  0.64285252802E-02  0.13687064704E-01  0.26154576003E-01  0.51100000000E-03 0.  1.
</event>
<event>
 8    1  0.1083484E+005  0.1043930E+01  0.7957747E-01            NaN
         13   -1    0    0    0    0  0.00000000000E+00  0.00000000000E+00  0.74505805969E-08  0.10566000000E+00  0.10566000000E+00 0.  1.
     999900   -1    0    0    0    0 -0.00000000000E+00 -0.00000000000E+00 -0.74505805969E-08  0.93827000000E+00  0.93827000000E+00 0. -1.
     999902    2    1    2    0    0 -0.39404232590E-02 -0.21309051485E-01 -0.86581428690E-02  0.10205940610E+01  0.10203272374E+01 0.  0.
     999903    2    3    3    0    0  0.49757279219E-02 -0.10050915510E+00  0.83314791118E-01  0.13221847898E+00  0.20335280587E-01 0.  0.
         14    1    1    2    0    0  0.39404232590E-02  0.21309051485E-01  0.86581428690E-02  0.23335938991E-01  0.00000000000E+00 0.  1.
     999901    1    3    3    0    0 -0.89161511809E-02  0.79200103615E-01 -0.91972933987E-01  0.88837558203E+00  0.88000000000E+00 0. -1.
        -11    1    4    4    0    0  0.32906573110E-02 -0.51234380195E-01  0.29428193730E-01  0.59178288643E-01  0.51100000000E-03 0.  1.
         11    1    4    4    0    0  0.16850706109E-02 -0.49274774905E-01  0.53886597388E-01  0.73040190333E-01  0.51100000000E-03 0. -1.
</event>
<event>
 8    1  0.1083484E+005  0.1043930E+01  0.7957747E-01            NaN
         13   -1    0    0    0    0  0.00000000000E+00  0.00000000000E+00  0.74505805969E-08  0.10566000000E+00  0.10566000000E+00 0.  1.
     999900   -1    0    0    0    0 -0.00000000000E+00 -0.00000000000E+00 -0.74505805969E-08  0.93827000000E+00  0.93827000000E+00 0.  1.
     999902    2    1    2    0    0  0.87652209651E-02  0.19931600009E-01  0.99631663010E-02  0.10199850118E+01  0.10197039089E+01 0.  0.
     999903    2    3    3    0    0 -0.29214474185E-01 -0.12247008554E+00  0.28129700653E-02  0.12770040328E+00  0.21144097130E-01 0.  0.
         14    1    1    2    0    0 -0.87652209651E-02 -0.19931600009E-01 -0.99631663010E-02  0.23944988207E-01  0.00000000000E+00 0.  1.
     999901    1    3    3    0    0  0.37979695150E-01  0.14240168554E+00  0.71501962357E-02  0.89228460852E+00  0.88000000000E+00 0.  1.
        -11    1    4    4    0    0 -0.21771257319E-01 -0.87967316662E-01  0.11492966304E-01  0.91348704651E-01  0.51100000000E-03 0. -1.
         11    1    4    4    0    0 -0.74432168662E-02 -0.34502768873E-01 -0.86799962390E-02  0.36351698625E-01  0.51100000000E-03 0.  1.
</event>
<event>
 8    1  0.1083484E+005  0.1043930E+01  0.7957747E-01            NaN
         13   -1    0    0    0    0  0.00000000000E+00  0.00000000000E+00  0.74505805969E-08  0.10566000000E+00  0.10566000000E+00 0. -1.
     999900   -1    0    0    0    0 -0.00000000000E+00 -0.00000000000E+00 -0.74505805969E-08  0.93827000000E+00  0.93827000000E+00 0.  1.
     999902    2    1    2    0    0 -0.66184468485E-02  0.13951386978E-01  0.18563719632E-01  0.10197834325E+01  0.10194975196E+01 0.  0.
     999903    2    3    3    0    0  0.82219322902E-01  0.53220877159E-01 -0.81514133716E-01  0.12880093043E+00  0.18778894024E-01 0.  0.
         14    1    1    2    0    0  0.66184468485E-02 -0.13951386978E-01 -0.18563719632E-01  0.24146567538E-01  0.00000000000E+00 0.  1.
     999901    1    3    3    0    0 -0.88837769750E-01 -0.39269490181E-01  0.10007785335E+00  0.89098250203E+00  0.88000000000E+00 0. -1.
        -11    1    4    4    0    0  0.48822630525E-01  0.42103665018E-01 -0.50741557413E-01  0.82044711158E-01  0.51100000000E-03 0. -1.
         11    1    4    4    0    0  0.33396692376E-01  0.11117212141E-01 -0.30772576303E-01  0.46756219274E-01  0.51100000000E-03 0.  1.
</event>
<event>
 8    1  0.1083484E+005  0.1043930E+01  0.7957747E-01            NaN
         13   -1    0    0    0    0  0.00000000000E+00  0.00000000000E+00  0.74505805969E-08  0.10566000000E+00  0.10566000000E+00 0.  1.
     999900   -1    0    0    0    0 -0.00000000000E+00 -0.00000000000E+00 -0.74505805969E-08  0.93827000000E+00  0.93827000000E+00 0. -1.
     999902    2    1    2    0    0  0.20878544044E-01  0.54612004276E-02  0.10720477738E-01  0.10198329679E+01  0.10195482409E+01 0.  0.
     999903    2    3    3    0    0  0.11824574709E-01 -0.21859507346E-01  0.12802031034E+00  0.13158320229E+00  0.17529422070E-01 0.  0.
         14    1    1    2    0    0 -0.20878544044E-01 -0.54612004276E-02 -0.10720477738E-01  0.24097032067E-01  0.00000000000E+00 0.  1.
     999901    1    3    3    0    0  0.90539693355E-02  0.27320707774E-01 -0.11729983260E+00  0.88824976564E+00  0.88000000000E+00 0. -1.
        -11    1    4    4    0    0 -0.21068832362E-02 -0.11045926639E-01  0.31200997832E-01  0.33169486565E-01  0.51100000000E-03 0. -1.
         11    1    4    4    0    0  0.13931457945E-01 -0.10813580707E-01  0.96819312505E-01  0.98413715726E-01  0.51100000000E-03 0.  1.
</event>
<event>
 8    1  0.1210563E+005  0.1043930E+01  0.7957747E-01            NaN
         13   -1    0    0    0    0  0.00000000000E+00  0.00000000000E+00  0.74505805969E-08  0.10566000000E+00  0.10566000000E+00 0. -1.
     999900   -1    0    0    0    0 -0.00000000000E+00 -0.00000000000E+00 -0.74505805969E-08  0.93827000000E+00  0.93827000000E+00 0.  1.
     999902    2    1    2    0    0 -0.10942325052E-01  0.16752809984E-01 -0.13607829329E-01  0.10197315674E+01  0.10194444102E+01 0.  0.
     999903    2    3    3    0    0 -0.60537489777E-03  0.25586702126E-01 -0.12820614837E+00  0.13219696815E+00  0.19600410828E-01 0.  0.
         14    1    1    2    0    0  0.10942325052E-01 -0.16752809984E-01  0.13607829329E-01  0.24198432572E-01  0.00000000000E+00 0.  1.
     999901    1    3    3    0    0 -0.10336950154E-01 -0.88338921419E-02  0.11459831904E+00  0.88753459928E+00  0.88000000000E+00 0. -1.
        -11    1    4    4    0    0  0.93119302026E-02  0.13540761639E-01 -0.72792032680E-01  0.74625769092E-01  0.51100000000E-03 0.  1.
         11    1    4    4    0    0 -0.99173051004E-02  0.12045940487E-01 -0.55414115686E-01  0.57571199058E-01  0.51100000000E-03 0. -1.
</event>
<event>
 8    1  0.1083484E+005  0.1043930E+01  0.7957747E-01            NaN
         13   -1    0    0    0    0  0.00000000000E+00  0.00000000000E+00  0.74505805969E-08  0.10566000000E+00  0.10566000000E+00 0. -1.
     999900   -1    0    0    0    0 -0.00000000000E+00 -0.00000000000E+00 -0.74505805969E-08  0.93827000000E+00  0.93827000000E+00 0.  1.
     999902    2    1    2    0    0 -0.22827943470E-02 -0.20411410626E-01 -0.93595170280E-02  0.10213592802E+01  0.10211098579E+01 0.  0.
     999903    2    3    3    0    0 -0.43785354186E-01  0.24071560945E-01 -0.12078337773E+00  0.13224934662E+00  0.20116362959E-01 0.  0.
         14    1    1    2    0    0  0.22827943470E-02  0.20411410626E-01  0.93595170280E-02  0.22570719811E-01  0.00000000000E+00 0.  1.
     999901    1    3    3    0    0  0.41502559839E-01 -0.44482971572E-01  0.11142386070E+00  0.88910993357E+00  0.88000000000E+00 0. -1.
        -11    1    4    4    0    0 -0.79242267946E-02 -0.30711808136E-02 -0.14083348744E-01  0.16456833071E-01  0.51100000000E-03 0.  1.
         11    1    4    4    0    0 -0.35861127391E-01  0.27142741759E-01 -0.10670002899E+00  0.11579251355E+00  0.51100000000E-03 0. -1.
</event>
<event>
 8    1  0.1083484E+005  0.1043930E+01  0.7957747E-01            NaN
         13   -1    0    0    0    0  0.00000000000E+00  0.00000000000E+00  0.74505805969E-08  0.10566000000E+00  0.10566000000E+00 0.  1.
     999900   -1    0    0    0    0 -0.00000000000E+00 -0.00000000000E+00 -0.74505805969E-08  0.93827000000E+00  0.93827000000E+00 0. -1.
     999902    2    1    2    0    0 -0.19279223893E-01 -0.20281261641E-02  0.15568861293E-01  0.10190665487E+01  0.10187631910E+01 0.  0.
     999903    2    3    3    0    0  0.59094043494E-01 -0.11212154520E+00 -0.79451847796E-02  0.12843989271E+00  0.19244043344E-01 0.  0.
         14    1    1    2    0    0  0.19279223893E-01  0.20281261641E-02 -0.15568861293E-01  0.24863451321E-01  0.00000000000E+00 0. -1.
     999901    1    3    3    0    0 -0.78373267387E-01  0.11009341904E+00  0.23514046073E-01  0.89062665597E+00  0.88000000000E+00 0. -1.
        -11    1    4    4    0    0  0.10601383142E-01 -0.34381623508E-01  0.32669750374E-02  0.36130591006E-01  0.51100000000E-03 0.  1.
         11    1    4    4    0    0  0.48492660352E-01 -0.77739921692E-01 -0.11212159817E-01  0.92309301706E-01  0.51100000000E-03 0. -1.
</event>
<event>
 8    1  0.1083484E+005  0.1043930E+01  0.7957747E-01            NaN
         13   -1    0    0    0    0  0.00000000000E+00  0.00000000000E+00  0.74505805969E-08  0.10566000000E+00  0.10566000000E+00 0. -1.
     999900   -1    0    0    0    0 -0.00000000000E+00 -0.00000000000E+00 -0.74505805969E-08  0.93827000000E+00  0.93827000000E+00 0.  1.
     999902    2    1    2    0    0  0.10152069126E-01  0.12126879657E-02  0.21107602564E-01  0.10204765140E+01  0.10202069641E+01 0.  0.
     999903    2    3    3    0    0  0.94734395629E-01 -0.81108339932E-01 -0.34096803100E-01  0.13088197265E+00  0.20355104065E-01 0.  0.
         14    1    1    2    0    0 -0.10152069126E-01 -0.12126879657E-02 -0.21107602564E-01  0.23453486002E-01  0.00000000000E+00 0.  1.
     999901    1    3    3    0    0 -0.84582326503E-01  0.82321027898E-01  0.55204405664E-01  0.88959454135E+00  0.88000000000E+00 0. -1.
        -11    1    4    4    0    0  0.79073598369E-01 -0.74368866593E-01 -0.34239719693E-01  0.11382434627E+00  0.51100000000E-03 0. -1.
         11    1    4    4    0    0  0.15660797260E-01 -0.67394733394E-02  0.14291659244E-03  0.17057626384E-01  0.51100000000E-03 0.  1.
</event>
<event>
 8    1  0.1083484E+005  0.1043930E+01  0.7957747E-01            NaN
         13   -1    0    0    0    0  0.00000000000E+00  0.00000000000E+00  0.74505805969E-08  0.10566000000E+00  0.10566000000E+00 0. -1.
     999900   -1    0    0    0    0 -0.00000000000E+00 -0.00000000000E+00 -0.74505805969E-08  0.93827000000E+00  0.93827000000E+00 0.  1.
     999902    2    1    2    0    0  0.10424447563E-01 -0.20384753736E-01 -0.66208855937E-02  0.10200963386E+01  0.10198178742E+01 0.  0.
     999903    2    3    3    0    0 -0.10377779120E+00  0.61736271776E-01 -0.38508694259E-01  0.12835487013E+00  0.20269581968E-01 0.  0.
         14    1    1    2    0    0 -0.10424447563E-01  0.20384753736E-01  0.66208855937E-02  0.23833661446E-01  0.00000000000E+00 0.  1.
     999901    1    3    3    0    0  0.11420223876E+00 -0.82121025512E-01  0.31887808665E-01  0.89174146843E+00  0.88000000000E+00 0. -1.
        -11    1    4    4    0    0 -0.80165335439E-01  0.56681341716E-01 -0.28737387751E-01  0.10230031320E+00  0.51100000000E-03 0. -1.
         11    1    4    4    0    0 -0.23612455760E-01  0.50549300601E-02 -0.97713065083E-02  0.26054556930E-01  0.51100000000E-03 0.  1.
</event>
<event>
 8    1  0.1083484E+005  0.1043930E+01  0.7957747E-01            NaN
         13   -1    0    0    0    0  0.00000000000E+00  0.00000000000E+00  0.74505805969E-08  0.10566000000E+00  0.10566000000E+00 0.  1.
     999900   -1    0    0    0    0 -0.00000000000E+00 -0.00000000000E+00 -0.74505805969E-08  0.93827000000E+00  0.93827000000E+00 0. -1.
     999902    2    1    2    0    0  0.18818809922E-01 -0.16076768782E-01  0.24893944881E-02  0.10190541646E+01  0.10187505010E+01 0.  0.
     999903    2    3    3    0    0  0.35326456911E-01  0.83451602767E-01  0.90016861926E-01  0.12897582159E+00  0.17877319789E-01 0.  0.
         14    1    1    2    0    0 -0.18818809922E-01  0.16076768782E-01 -0.24893944881E-02  0.24875835388E-01  0.00000000000E+00 0.  1.
     999901    1    3    3    0    0 -0.16507646988E-01 -0.99528371548E-01 -0.87527467438E-01  0.89007834302E+00  0.88000000000E+00 0. -1.
        -11    1    4    4    0    0  0.11232020821E-01  0.23309459472E-01  0.37554865784E-01  0.45608313471E-01  0.51100000000E-03 0.  1.
         11    1    4    4    0    0  0.24094436090E-01  0.60142143295E-01  0.52461996142E-01  0.83367508124E-01  0.51100000000E-03 0. -1.
</event>
<event>
 8    1  0.1083484E+005  0.1043930E+01  0.7957747E-01            NaN
         13   -1    0    0    0    0  0.00000000000E+00  0.00000000000E+00  0.74505805969E-08  0.10566000000E+00  0.10566000000E+00 0.  1.
     999900   -1    0    0    0    0 -0.00000000000E+00 -0.00000000000E+00 -0.74505805969E-08  0.93827000000E+00  0.93827000000E+00 0.  1.
     999902    2    1    2    0    0  0.12583532934E-02 -0.95541868303E-03  0.23890399459E-01  0.10199874132E+01  0.10197063673E+01 0.  0.
     999903    2    3    3    0    0 -0.33675843346E-01 -0.69736523532E-01 -0.99738755627E-01  0.12800344108E+00  0.20971800458E-01 0.  0.
         14    1    1    2    0    0 -0.12583532934E-02  0.95541868303E-03 -0.23890399459E-01  0.23942586831E-01  0.00000000000E+00 0. -1.
     999901    1    3    3    0    0  0.34934196639E-01  0.68781104849E-01  0.12362915509E+00  0.89198397209E+00  0.88000000000E+00 0. -1.
        -11    1    4    4    0    0 -0.29959322909E-01 -0.42006853848E-01 -0.56655776145E-01  0.76630769871E-01  0.51100000000E-03 0.  1.
         11    1    4    4    0    0 -0.37165204365E-02 -0.27729669684E-01 -0.43082979482E-01  0.51372671207E-01  0.51100000000E-03 0. -1.
</event>
<event>
 8    1  0.1083484E+005  0.1043930E+01  0.7957747E-01            NaN
         13   -1    0    0    0    0  0.00000000000E+00  0.00000000000E+00  0.74505805969E-08  0.10566000000E+00  0.10566000000E+00 0.  1.
     999900   -1    0    0    0    0 -0.00000000000E+00 -0.00000000000E+00 -0.74505805969E-08  0.93827000000E+00  0.93827000000E+00 0. -1.
     999902    2    1    2    0    0 -0.18799385085E-01  0.88455442386E-02 -0.11035700355E-01  0.10204045411E+01  0.10201333150E+01 0.  0.
     999903    2    3    3    0    0  0.51035130088E-01  0.88933247045E-01  0.76921178309E-01  0.12965917227E+00  0.19517334557E-01 0.  0.
         14    1    1    2    0    0  0.18799385085E-01 -0.88455442386E-02  0.11035700355E-01  0.23525458864E-01  0.00000000000E+00 0.  1.
     999901    1    3    3    0    0 -0.69834515173E-01 -0.80087702807E-01 -0.87956878664E-01  0.89074536887E+00  0.88000000000E+00 0. -1.
        -11    1    4    4    0    0  0.19581253730E-01  0.53571798325E-01  0.41251919812E-01  0.70394211996E-01  0.51100000000E-03 0.  1.
         11    1    4    4    0    0  0.31453876358E-01  0.35361448720E-01  0.35669258498E-01  0.59264960274E-01  0.51100000000E-03 0. -1.
</event>
<event>
 8    1  0.1083484E+005  0.1043930E+01  0.7957747E-01            NaN
         13   -1    0    0    0    0  0.00000000000E+00  0.00000000000E+00  0.74505805969E-08  0.10566000000E+00  0.10566000000E+00 0. -1.
     999900   -1    0    0    0    0 -0.00000000000E+00 -0.00000000000E+00 -0.74505805969E-08  0.93827000000E+00  0.93827000000E+00 0.  1.
     999902    2    1    2    0    0  0.40439087494E-02 -0.86028890719E-02  0.21681699215E-01  0.10202559851E+01  0.10199812823E+01 0.  0.
     999903    2    3    3    0    0 -0.10503646467E+00 -0.51688668253E-01 -0.51464392104E-01  0.12946686144E+00  0.20216508663E-01 0.  0.
         14    1    1    2    0    0 -0.40439087494E-02  0.86028890719E-02 -0.21681699215E-01  0.23674014852E-01  0.00000000000E+00 0.  1.
     999901    1    3    3    0    0  0.10908037342E+00  0.43085779181E-01  0.73146091319E-01  0.89078912370E+00  0.88000000000E+00 0. -1.
        -11    1    4    4    0    0 -0.55201896362E-01 -0.17587248127E-01 -0.30972725843E-01  0.65697271829E-01  0.51100000000E-03 0. -1.
         11    1    4    4    0    0 -0.49834568304E-01 -0.34101420125E-01 -0.20491666261E-01  0.63769589616E-01  0.51100000000E-03 0.  1.
</event>
<event>
 8    1  0.1083484E+005  0.1043930E+01  0.7957747E-01            NaN
         13   -1    0    0    0    0  0.00000000000E+00  0.00000000000E+00  0.74505805969E-08  0.10566000000E+00  0.10566000000E+00 0.  1.
     999900   -1    0    0    0    0 -0.00000000000E+00 -0.00000000000E+00 -0.74505805969E-08  0.93827000000E+00  0.93827000000E+00 0.  1.
     999902    2    1    2    0    0  0.80775748592E-02 -0.20882018492E-01 -0.74110951529E-02  0.10203454660E+01  0.10200728600E+01 0.  0.
     999903    2    3    3    0    0  0.62222159028E-01 -0.10719766113E+00 -0.45882974656E-01  0.13363124392E+00  0.19726286068E-01 0.  0.
         14    1    1    2    0    0 -0.80775748592E-02  0.20882018492E-01  0.74110951529E-02  0.23584533985E-01  0.00000000000E+00 0. -1.
     999901    1    3    3    0    0 -0.54144584169E-01  0.86315642636E-01  0.38471879503E-01  0.88671422210E+00  0.88000000000E+00 0. -1.
        -11    1    4    4    0    0  0.41757229431E-01 -0.73124547762E-01 -0.40752837955E-01  0.93551700239E-01  0.51100000000E-03 0.  1.
         11    1    4    4    0    0  0.20464929598E-01 -0.34073113366E-01 -0.51301367005E-02  0.40079543678E-01  0.51100000000E-03 0. -1.
</event>
<event>
 8    1  0.1083484E+005  0.1043930E+01  0.7957747E-01            NaN
         13   -1    0    0    0    0  0.00000000000E+00  0.00000000000E+00  0.74505805969E-08  0.10566000000E+00  0.10566000000E+00 0.  1.
     999900   -1    0    0    0    0 -0.00000000000E+00 -0.00000000000E+00 -0.74505805969E-08  0.93827000000E+00  0.93827000000E+00 0. -1.
     999902    2    1    2    0    0 -0.26705463303E-01  0.17269703953E-01  0.75812560920E-02  0.10112359655E+01  0.10107073158E+01 0.  0.
     999903    2    3    3    0    0  0.58298266560E-01 -0.17750070022E-01 -0.10098755239E+00  0.11981058738E+00  0.21031838776E-01 0.  0.
         14    1    1    2    0    0  0.26705463303E-01 -0.17269703953E-01 -0.75812560920E-02  0.32694034453E-01  0.00000000000E+00 0.  1.
     999901    1    3    3    0    0 -0.85003729863E-01  0.35019773975E-01  0.10856880848E+00  0.89142537816E+00  0.88000000000E+00 0.  1.
        -11    1    4    4    0    0  0.34390308346E-01 -0.20769481864E-01 -0.58647203688E-01  0.71090226519E-01  0.51100000000E-03 0.  1.
         11    1    4    4    0    0  0.23907958214E-01  0.30194118417E-02 -0.42340348699E-01  0.48720360865E-01  0.51100000000E-03 0. -1.
</event>
<event>
 8    1  0.1083484E+005  0.1043930E+01  0.7957747E-01            NaN
         13   -1    0    0    0    0  0.00000000000E+00  0.00000000000E+00  0.74505805969E-08  0.10566000000E+00  0.10566000000E+00 0.  1.
     999900   -1    0    0    0    0 -0.00000000000E+00 -0.00000000000E+00 -0.74505805969E-08  0.93827000000E+00  0.93827000000E+00 0. -1.
     999902    2    1    2    0    0 -0.98295711052E-02  0.20943271546E-01  0.40162322159E-02  0.10204487051E+01  0.10201785081E+01 0.  0.
     999903    2    3    3    0    0  0.91227450526E-01 -0.83819553286E-01 -0.25438887883E-01  0.12800521934E+00  0.19749276435E-01 0.  0.
         14    1    1    2    0    0  0.98295711052E-02 -0.20943271546E-01 -0.40162322159E-02  0.23481294946E-01  0.00000000000E+00 0. -1.
     999901    1    3    3    0    0 -0.10105702163E+00  0.10476282483E+00  0.29455120099E-01  0.89244348571E+00  0.88000000000E+00 0. -1.
        -11    1    4    4    0    0  0.24729289184E-01 -0.11837099260E-01 -0.43663005933E-02  0.27766533170E-01  0.51100000000E-03 0.  1.
         11    1    4    4    0    0  0.66498161343E-01 -0.71982454026E-01 -0.21072587289E-01  0.10023868617E+00  0.51100000000E-03 0. -1.
</event>
<event>
 8    1  0.1083484E+005  0.1043930E+01  0.7957747E-01            NaN
         13   -1    0    0    0    0  0.00000000000E+00  0.00000000000E+00  0.74505805969E-08  0.10566000000E+00  0.10566000000E+00 0. -1.
     999900   -1    0    0    0    0 -0.00000000000E+00 -0.00000000000E+00 -0.74505805969E-08  0.93827000000E+00  0.93827000000E+00 0. -1.
     999902    2    1    2    0    0  0.12587165994E-02  0.23405930336E-01  0.21333926106E-02  0.10203933625E+01  0.10201218755E+01 0.  0.
     999903    2    3    3    0    0 -0.36104646815E-01 -0.89708273830E-01 -0.82069329317E-01  0.12838386561E+00  0.19897794298E-01 0.  0.
         14    1    1    2    0    0 -0.12587165994E-02 -0.23405930336E-01 -0.21333926106E-02  0.23536637534E-01  0.00000000000E+00 0. -1.
     999901    1    3    3    0    0  0.37363363414E-01  0.11311420417E+00  0.84202721928E-01  0.89200949686E+00  0.88000000000E+00 0.  1.
        -11    1    4    4    0    0 -0.19142691034E-01 -0.48077441253E-01 -0.56688063158E-01  0.76757283714E-01  0.51100000000E-03 0.  1.
         11    1    4    4    0    0 -0.16961955780E-01 -0.41630832577E-01 -0.25381266159E-01  0.51626581891E-01  0.51100000000E-03 0. -1.
</event>
<event>
 8    1  0.1083484E+005  0.1043930E+01  0.7957747E-01            NaN
         13   -1    0    0    0    0  0.00000000000E+00  0.00000000000E+00  0.74505805969E-08  0.10566000000E+00  0.10566000000E+00 0. -1.
     999900   -1    0    0    0    0 -0.00000000000E+00 -0.00000000000E+00 -0.74505805969E-08  0.93827000000E+00  0.93827000000E+00 0. -1.
     999902    2    1    2    0    0 -0.48019298712E-02  0.17811436087E-01  0.14057278814E-01  0.10207370512E+01  0.10204735248E+01 0.  0.
     999903    2    3    3    0    0 -0.12371127338E+00 -0.38416833076E-01 -0.26413119107E-02  0.13080452952E+00  0.17958735712E-01 0.  0.
         14    1    1    2    0    0  0.48019298712E-02 -0.17811436087E-01 -0.14057278814E-01  0.23192948791E-01  0.00000000000E+00 0.  1.
     999901    1    3    3    0    0  0.11890934351E+00  0.56228269162E-01  0.16698590724E-01  0.88993252169E+00  0.88000000000E+00 0.  1.
        -11    1    4    4    0    0 -0.55774483707E-01 -0.20734011830E-01  0.71066327066E-02  0.59928771294E-01  0.51100000000E-03 0.  1.
         11    1    4    4    0    0 -0.67936789677E-01 -0.17682821246E-01 -0.97479446173E-02  0.70875758226E-01  0.51100000000E-03 0. -1.
</event>
<event>
 8    1  0.1083484E+005  0.1043930E+01  0.7957747E-01            NaN
         13   -1    0    0    0    0  0.00000000000E+00  0.00000000000E+00  0.74505805969E-08  0.10566000000E+00  0.10566000000E+00 0. -1.
     999900   -1    0    0    0    0 -0.00000000000E+00 -0.00000000000E+00 -0.74505805969E-08  0.93827000000E+00  0.93827000000E+00 0. -1.
     999902    2    1    2    0    0 -0.48688639297E-02 -0.21806113515E-01 -0.10872682246E-01  0.10190819087E+01  0.10187789304E+01 0.  0.
     999903    2    3    3    0    0 -0.61580887852E-01 -0.13113530936E-02 -0.11463464068E+00  0.13093618141E+00  0.14465730682E-01 0.  0.
         14    1    1    2    0    0  0.48688639297E-02  0.21806113515E-01  0.10872682246E-01  0.24848091311E-01  0.00000000000E+00 0. -1.
     999901    1    3    3    0    0  0.56712023922E-01 -0.20494760421E-01  0.10376195843E+00  0.88814572728E+00  0.88000000000E+00 0.  1.
        -11    1    4    4    0    0 -0.36117748753E-01 -0.76370006236E-02 -0.63191656852E-01  0.73186488986E-01  0.51100000000E-03 0.  1.
         11    1    4    4    0    0 -0.25463139100E-01  0.63256475301E-02 -0.51442983825E-01  0.57749692426E-01  0.51100000000E-03 0. -1.
</event>
<event>
 8    1  0.1083484E+005  0.1043930E+01  0.7957747E-01            NaN
         13   -1    0    0    0    0  0.00000000000E+00  0.00000000000E+00  0.74505805969E-08  0.10566000000E+00  0.10566000000E+00 0.  1.
     999900   -1    0    0    0    0 -0.00000000000E+00 -0.00000000000E+00 -0.74505805969E-08  0.93827000000E+00  0.93827000000E+00 0.  1.
     999902    2    1    2    0    0  0.17924007133E-01  0.13012592171E-01 -0.51096827094E-02  0.10211988222E+01  0.10209458007E+01 0.  0.
     999903    2    3    3    0    0 -0.11586104190E+00  0.53307723341E-01 -0.16029267610E-01  0.13010882996E+00  0.20146359823E-01 0.  0.
         14    1    1    2    0    0 -0.17924007133E-01 -0.13012592171E-01  0.51096827094E-02  0.22731177799E-01  0.00000000000E+00 0. -1.
     999901    1    3    3    0    0  0.13378504904E+00 -0.40295131170E-01  0.10919584901E-01  0.89108999224E+00  0.88000000000E+00 0. -1.
        -11    1    4    4    0    0 -0.20807115073E-01  0.91922404300E-02  0.48288037138E-02  0.23259660102E-01  0.51100000000E-03 0.  1.
         11    1    4    4    0    0 -0.95053926831E-01  0.44115482911E-01 -0.20858071324E-01  0.10684916986E+00  0.51100000000E-03 0. -1.
</event>
<event>
 8    1  0.1083484E+005  0.1043930E+01  0.7957747E-01            NaN
         13   -1    0    0    0    0  0.00000000000E+00  0.00000000000E+00  0.74505805969E-08  0.10566000000E+00  0.10566000000E+00 0. -1.
     999900   -1    0    0    0    0 -0.00000000000E+00 -0.00000000000E+00 -0.74505805969E-08  0.93827000000E+00  0.93827000000E+00 0. -1.
     999902    2    1    2    0    0  0.15797824673E-01  0.13929241143E-01 -0.13351876384E-01  0.10189927262E+01  0.10186875421E+01 0.  0.
     999903    2    3    3    0    0  0.18037583564E-01 -0.11481585886E+00  0.46435154941E-01  0.12761468829E+00  0.24924870819E-01 0.  0.
         14    1    1    2    0    0 -0.15797824673E-01 -0.13929241143E-01  0.13351876384E-01  0.24937273833E-01  0.00000000000E+00 0.  1.
     999901    1    3    3    0    0 -0.22397588904E-02  0.12874510001E+00 -0.59787031325E-01  0.89137803788E+00  0.88000000000E+00 0. -1.
        -11    1    4    4    0    0  0.13632178081E-01 -0.10664337638E+00  0.35413257167E-01  0.11319454894E+00  0.51100000000E-03 0.  1.
         11    1    4    4    0    0  0.44054054823E-02 -0.81724824856E-02  0.11021897774E-01  0.14420139354E-01  0.51100000000E-03 0. -1.
</event>
<event>
 8    1  0.1083484E+005  0.1043930E+01  0.7957747E-01            NaN
         13   -1    0    0    0    0  0.00000000000E+00  0.00000000000E+00  0.74505805969E-08  0.10566000000E+00  0.10566000000E+00 0.  1.
     999900   -1    0    0    0    0 -0.00000000000E+00 -0.00000000000E+00 -0.74505805969E-08  0.93827000000E+00  0.93827000000E+00 0.  1.
     999902    2    1    2    0    0 -0.21126950976E-01 -0.10474532660E-01  0.27697045472E-03  0.10203473665E+01  0.10200748049E+01 0.  0.
     999903    2    3    3    0    0 -0.42921784687E-01  0.83246577312E-01 -0.88756010490E-01  0.13063643985E+00  0.20395533444E-01 0.  0.
         14    1    1    2    0    0  0.21126950976E-01  0.10474532660E-01 -0.27697045472E-03  0.23582633539E-01  0.00000000000E+00 0.  1.
     999901    1    3    3    0    0  0.21794833710E-01 -0.93721109972E-01  0.89032980944E-01  0.88971092661E+00  0.88000000000E+00 0.  1.
        -11    1    4    4    0    0 -0.28781727529E-01  0.65352698645E-01 -0.76838547580E-01  0.10489893505E+00  0.51100000000E-03 0.  1.
         11    1    4    4    0    0 -0.14140057158E-01  0.17893878667E-01 -0.11917462909E-01  0.25737504801E-01  0.51100000000E-03 0. -1.
</event>
<event>
 8    1  0.1083484E+005  0.1043930E+01  0.7957747E-01            NaN
         13   -1    0    0    0    0  0.00000000000E+00  0.00000000000E+00  0.74505805969E-08  0.10566000000E+00  0.10566000000E+00 0. -1.
     999900   -1    0    0    0    0 -0.00000000000E+00 -0.00000000000E+00 -0.74505805969E-08  0.93827000000E+00  0.93827000000E+00 0. -1.
     999902    2    1    2    0    0  0.18875356870E-01  0.34800914308E-02  0.13515361647E-01  0.10204554365E+01  0.10201853962E+01 0.  0.
     999903    2    3    3    0    0 -0.65027729203E-01 -0.97454056592E-01  0.52369989661E-01  0.12987297974E+00  0.19961872084E-01 0.  0.
         14    1    1    2    0    0 -0.18875356870E-01 -0.34800914308E-02 -0.13515361647E-01  0.23474563548E-01  0.00000000000E+00 0.  1.
     999901    1    3    3    0    0  0.83903086073E-01  0.10093414802E+00 -0.38854628014E-01  0.89058245671E+00  0.88000000000E+00 0. -1.
        -11    1    4    4    0    0 -0.50097374853E-01 -0.60570153226E-01  0.40019294133E-01  0.88205983089E-01  0.51100000000E-03 0. -1.
         11    1    4    4    0    0 -0.14930354350E-01 -0.36883903367E-01  0.12350695528E-01  0.41666996647E-01  0.51100000000E-03 0.  1.
</event>
<event>
 8    1  0.1083484E+005  0.1043930E+01  0.7957747E-01            NaN
         13   -1    0    0    0    0  0.00000000000E+00  0.00000000000E+00  0.74505805969E-08  0.10566000000E+00  0.10566000000E+00 0.  1.
     999900   -1    0    0    0    0 -0.00000000000E+00 -0.00000000000E+00 -0.74505805969E-08  0.93827000000E+00  0.93827000000E+00 0.  1.
     999902    2    1    2    0    0 -0.14709426679E-01  0.44272687101E-02 -0.17994982582E-01  0.10202701746E+01  0.10199958048E+01 0.  0.
     999903    2    3    3    0    0 -0.61707993665E-01  0.15384799126E-02 -0.11648523905E+00  0.13352469754E+00  0.21208265713E-01 0.  0.
         14    1    1    2    0    0  0.14709426679E-01 -0.44272687101E-02  0.17994982582E-01  0.23659825434E-01  0.00000000000E+00 0.  1.
     999901    1    3    3    0    0  0.46998566987E-01  0.28887887975E-02  0.98490256470E-01  0.88674547702E+00  0.88000000000E+00 0. -1.
        -11    1    4    4    0    0 -0.41578872932E-01  0.45494023607E-02 -0.57361301601E-01  0.70993519272E-01  0.51100000000E-03 0. -1.
         11    1    4    4    0    0 -0.20129120733E-01 -0.30109224481E-02 -0.59123937450E-01  0.62531178272E-01  0.51100000000E-03 0.  1.
</event>
<event>
 8    1  0.1083484E+005  0.1043930E+01  0.7957747E-01            NaN
         13   -1    0    0    0    0  0.00000000000E+00  0.00000000000E+00  0.74505805969E-08  0.10566000000E+00  0.10566000000E+00 0. -1.
     999900   -1    0    0    0    0 -0.00000000000E+00 -0.00000000000E+00 -0.74505805969E-08  0.93827000000E+00  0.93827000000E+00 0.  1.
     999902    2    1    2    0    0 -0.12797924940E-01  0.12966418186E-01 -0.16158739862E-01  0.10195780030E+01  0.10192871452E+01 0.  0.
     999903    2    3    3    0    0 -0.12837463916E+00  0.21614137470E-02  0.17694159874E-01  0.13130960674E+00  0.21081030355E-01 0.  0.
         14    1    1    2    0    0  0.12797924940E-01 -0.12966418186E-01  0.16158739862E-01  0.24351996988E-01  0.00000000000E+00 0. -1.
     999901    1    3    3    0    0  0.11557671422E+00  0.10805004439E-01 -0.33852899736E-01  0.88826839627E+00  0.88000000000E+00 0.  1.
        -11    1    4    4    0    0 -0.46188130489E-01  0.10099162495E-01  0.24642925382E-02  0.47346281162E-01  0.51100000000E-03 0. -1.
         11    1    4    4    0    0 -0.82186508670E-01 -0.79377487484E-02  0.15229867336E-01  0.83963325581E-01  0.51100000000E-03 0.  1.
</event>
<event>
 8    1  0.1083484E+005  0.1043930E+01  0.7957747E-01            NaN
         13   -1    0    0    0    0  0.00000000000E+00  0.00000000000E+00  0.74505805969E-08  0.10566000000E+00  0.10566000000E+00 0.  1.
     999900   -1    0    0    0    0 -0.00000000000E+00 -0.00000000000E+00 -0.74505805969E-08  0.93827000000E+00  0.93827000000E+00 0. -1.
     999902    2    1    2    0    0 -0.23394497894E-01  0.24573419888E-02 -0.24782993383E-02  0.10202766064E+01  0.10200023875E+01 0.  0.
     999903    2    3    3    0    0  0.31142796982E-01  0.11294573126E+00  0.52730408803E-01  0.12997890217E+00  0.19682656900E-01 0.  0.
         14    1    1    2    0    0  0.23394497894E-01 -0.24573419888E-02  0.24782993383E-02  0.23653393604E-01  0.00000000000E+00 0.  1.
     999901    1    3    3    0    0 -0.54537294876E-01 -0.11048838927E+00 -0.55208708141E-01  0.89029770423E+00  0.88000000000E+00 0. -1.
        -11    1    4    4    0    0  0.69667883575E-02  0.44740123595E-01  0.29214965079E-01  0.53888682531E-01  0.51100000000E-03 0. -1.
         11    1    4    4    0    0  0.24176008624E-01  0.68205607666E-01  0.23515443723E-01  0.76090219638E-01  0.51100000000E-03 0.  1.
</event>
<event>
 8    1  0.1083484E+005  0.1043930E+01  0.7957747E-01            NaN
         13   -1    0    0    0    0  0.00000000000E+00  0.00000000000E+00  0.74505805969E-08  0.10566000000E+00  0.10566000000E+00 0. -1.
     999900   -1    0    0    0    0 -0.00000000000E+00 -0.00000000000E+00 -0.74505805969E-08  0.93827000000E+00  0.93827000000E+00 0.  1.
     999902    2    1    2    0    0  0.30616838770E-02  0.15630384804E-01 -0.16538408872E-01  0.10209691245E+01  0.10207109049E+01 0.  0.
     999903    2    3    3    0    0  0.15264990541E-02 -0.11859870639E+00 -0.50095093337E-01  0.13015721571E+00  0.19063028803E-01 0.  0.
         14    1    1    2    0    0 -0.30616838770E-02 -0.15630384804E-01  0.16538408872E-01  0.22960875534E-01  0.00000000000E+00 0.  1.
     999901    1    3    3    0    0  0.15351848230E-02  0.13422909119E+00  0.33556684466E-01  0.89081190876E+00  0.88000000000E+00 0. -1.
        -11    1    4    4    0    0  0.25649377375E-02 -0.57294044156E-01 -0.34346147576E-01  0.66851367792E-01  0.51100000000E-03 0.  1.
         11    1    4    4    0    0 -0.10384386835E-02 -0.61304662235E-01 -0.15748945761E-01  0.63305847915E-01  0.51100000000E-03 0. -1.
</event>
<event>
 8    1  0.1083484E+005  0.1043930E+01  0.7957747E-01            NaN
         13   -1    0    0    0    0  0.00000000000E+00  0.00000000000E+00  0.74505805969E-08  0.10566000000E+00  0.10566000000E+00 0.  1.
     999900   -1    0    0    0    0 -0.00000000000E+00 -0.00000000000E+00 -0.74505805969E-08  0.93827000000E+00  0.93827000000E+00 0.  1.
     999902    2    1    2    0    0  0.94903288507E-02 -0.19981738526E-01  0.43046098915E-03  0.10218048669E+01  0.10215653012E+01 0.  0.
     999903    2    3    3    0    0 -0.34664947389E-01  0.11086923565E+00  0.53414003827E-01  0.12946024647E+00  0.20328640398E-01 0.  0.
         14    1    1    2    0    0 -0.94903288507E-02  0.19981738526E-01 -0.43046098915E-03  0.22125133059E-01  0.00000000000E+00 0.  1.
     999901    1    3    3    0    0  0.44155276240E-01 -0.13085097418E+00 -0.52983542837E-01  0.89234462047E+00  0.88000000000E+00 0.  1.
        -11    1    4    4    0    0 -0.16600657982E-01  0.41925540507E-01  0.10627145764E-01  0.46330660910E-01  0.51100000000E-03 0.  1.
         11    1    4    4    0    0 -0.18064289407E-01  0.68943695147E-01  0.42786858062E-01  0.83129585565E-01  0.51100000000E-03 0. -1.
</event>
<event>
 8    1  0.1083484E+005  0.1043930E+01  0.7957747E-01            NaN
         13   -1    0    0    0    0  0.00000000000E+00  0.00000000000E+00  0.74505805969E-08  0.10566000000E+00  0.10566000000E+00 0. -1.
     999900   -1    0    0    0    0 -0.00000000000E+00 -0.00000000000E+00 -0.74505805969E-08  0.93827000000E+00  0.93827000000E+00 0. -1.
     999902    2    1    2    0    0 -0.41518059283E-02  0.20527296917E-01  0.83252936993E-02  0.10213929654E+01  0.10211442954E+01 0.  0.
     999903    2    3    3    0    0 -0.23364808188E-01  0.12367786333E+00  0.42741588714E-01  0.13449180964E+00  0.20471329146E-01 0.  0.
         14    1    1    2    0    0  0.41518059283E-02 -0.20527296917E-01 -0.83252936993E-02  0.22537034551E-01  0.00000000000E+00 0. -1.
     999901    1    3    3    0    0  0.19213002260E-01 -0.10315056641E+00 -0.34416295014E-01  0.88690115581E+00  0.88000000000E+00 0.  1.
        -11    1    4    4    0    0 -0.12103068320E-01  0.83631965592E-01  0.37879617212E-01  0.92606244135E-01  0.51100000000E-03 0.  1.
         11    1    4    4    0    0 -0.11261739868E-01  0.40045897733E-01  0.48619715011E-02  0.41885565509E-01  0.51100000000E-03 0. -1.
</event>
<event>
 8    1  0.1083484E+005  0.1043930E+01  0.7957747E-01            NaN
         13   -1    0    0    0    0  0.00000000000E+00  0.00000000000E+00  0.74505805969E-08  0.10566000000E+00  0.10566000000E+00 0. -1.
     999900   -1    0    0    0    0 -0.00000000000E+00 -0.00000000000E+00 -0.74505805969E-08  0.93827000000E+00  0.93827000000E+00 0. -1.
     999902    2    1    2    0    0  0.20405970655E-01 -0.11234865458E-01  0.21194062085E-01  0.10124369197E+01  0.10119469859E+01 0.  0.
     999903    2    3    3    0    0 -0.68472006729E-01  0.77189149190E-01 -0.57982128086E-01  0.12003175928E+00  0.19977877748E-01 0.  0.
         14    1    1    2    0    0 -0.20405970655E-01  0.11234865458E-01 -0.21194062085E-01  0.31493080318E-01  0.00000000000E+00 0.  1.
     999901    1    3    3    0    0  0.88877977383E-01 -0.88424014649E-01  0.79176190171E-01  0.89240516041E+00  0.88000000000E+00 0.  1.
        -11    1    4    4    0    0 -0.16964887029E-01  0.33069203688E-01 -0.23123945540E-01  0.43776221888E-01  0.51100000000E-03 0.  1.
         11    1    4    4    0    0 -0.51507119700E-01  0.44119945502E-01 -0.34858182546E-01  0.76255537388E-01  0.51100000000E-03 0. -1.
</event>
<event>
 8    1  0.1083484E+005  0.1043930E+01  0.7957747E-01            NaN
         13   -1    0    0    0    0  0.00000000000E+00  0.00000000000E+00  0.74505805969E-08  0.10566000000E+00  0.10566000000E+00 0.  1.
     999900   -1    0    0    0    0 -0.00000000000E+00 -0.00000000000E+00 -0.74505805969E-08  0.93827000000E+00  0.93827000000E+00 0. -1.
     999902    2    1    2    0    0  0.74416293184E-02  0.16188787057E-01 -0.17079261358E-01  0.10192489173E+01  0.10189500477E+01 0.  0.
     999903    2    3    3    0    0  0.53060071569E-01 -0.34891558151E-01  0.10884446450E+00  0.12765089766E+00  0.20367675308E-01 0.  0.
         14    1    1    2    0    0 -0.74416293184E-02 -0.16188787057E-01  0.17079261358E-01  0.24681082672E-01  0.00000000000E+00 0.  1.
     999901    1    3    3    0    0 -0.45618442251E-01  0.51080345208E-01 -0.12592372585E+00  0.89159801967E+00  0.88000000000E+00 0. -1.
        -11    1    4    4    0    0  0.29089100931E-01 -0.17850272093E-01  0.38779372876E-01  0.51661483607E-01  0.51100000000E-03 0. -1.
         11    1    4    4    0    0  0.23970970639E-01 -0.17041286057E-01  0.70065091619E-01  0.75989414055E-01  0.51100000000E-03 0.  1.
</event>
<event>
 8    1  0.1083484E+005  0.1043930E+01  0.7957747E-01            NaN
         13   -1    0    0    0    0  0.00000000000E+00  0.00000000000E+00  0.74505805969E-08  0.10566000000E+00  0.10566000000E+00 0. -1.
     999900   -1    0    0    0    0 -0.00000000000E+00 -0.00000000000E+00 -0.74505805969E-08  0.93827000000E+00  0.93827000000E+00 0.  1.
     999902    2    1    2    0    0  0.18704643820E-01 -0.13566173837E-01 -0.43946361559E-02  0.10204094218E+01  0.10201383095E+01 0.  0.
     999903    2    3    3    0    0 -0.69455299230E-01  0.10308912929E+00 -0.23743482077E-01  0.12813423264E+00  0.20080375134E-01 0.  0.
         14    1    1    2    0    0 -0.18704643820E-01  0.13566173837E-01  0.43946361559E-02  0.23520578223E-01  0.00000000000E+00 0. -1.
     999901    1    3    3    0    0  0.88159943050E-01 -0.11665530312E+00  0.19348845921E-01  0.89227518913E+00  0.88000000000E+00 0.  1.
        -11    1    4    4    0    0 -0.59359622629E-01  0.73805756762E-01 -0.14604553042E-01  0.95835320318E-01  0.51100000000E-03 0. -1.
         11    1    4    4    0    0 -0.10095676601E-01  0.29283372525E-01 -0.91389290348E-02  0.32298912325E-01  0.51100000000E-03 0.  1.
</event>
<event>
 8    1  0.1083484E+005  0.1043930E+01  0.7957747E-01            NaN
         13   -1    0    0    0    0  0.00000000000E+00  0.00000000000E+00  0.74505805969E-08  0.10566000000E+00  0.10566000000E+00 0.  1.
     999900   -1    0    0    0    0 -0.00000000000E+00 -0.00000000000E+00 -0.74505805969E-08  0.93827000000E+00  0.93827000000E+00 0.  1.
     999902    2    1    2    0    0 -0.18146251903E-01  0.76546128499E-02 -0.13566440766E-01  0.10200149865E+01  0.10197345953E+01 0.  0.
     999903    2    3    3    0    0 -0.47855459076E-01 -0.11089956283E+00  0.42538542530E-01  0.12979844053E+00  0.21195508117E-01 0.  0.
         14    1    1    2    0    0  0.18146251903E-01 -0.76546128499E-02  0.13566440766E-01  0.23915013507E-01  0.00000000000E+00 0.  1.
     999901    1    3    3    0    0  0.29709207174E-01  0.11855417568E+00 -0.56104983296E-01  0.89021654597E+00  0.88000000000E+00 0.  1.
        -11    1    4    4    0    0 -0.24693330909E-01 -0.81719579875E-01  0.29405745718E-01  0.90292908518E-01  0.51100000000E-03 0.  1.
         11    1    4    4    0    0 -0.23162128167E-01 -0.29179982950E-01  0.13132796812E-01  0.39505532009E-01  0.51100000000E-03 0. -1.
</event>
<event>
 8    1  0.1083484E+005  0.1043930E+01  0.7957747E-01            NaN
         13   -1    0    0    0    0  0.00000000000E+00  0.00000000000E+00  0.74505805969E-08  0.10566000000E+00  0.10566000000E+00 0.  1.
     999900   -1    0    0    0    0 -0.00000000000E+00 -0.00000000000E+00 -0.74505805969E-08  0.93827000000E+00  0.93827000000E+00 0. -1.
     999902    2    1    2    0    0  0.10743340735E-01  0.13290341010E-01 -0.15754403842E-01  0.10206866402E+01  0.10204219538E+01 0.  0.
     999903    2    3    3    0    0 -0.87378418660E-01 -0.39542014795E-01  0.79100346069E-01  0.12860112801E+00  0.32906327580E-01 0.  0.
         14    1    1    2    0    0 -0.10743340735E-01 -0.13290341010E-01  0.15754403842E-01  0.23243359799E-01  0.00000000000E+00 0.  1.
     999901    1    3    3    0    0  0.98121759395E-01  0.52832355805E-01 -0.94854749911E-01  0.89208551219E+00  0.88000000000E+00 0.  1.
        -11    1    4    4    0    0 -0.75352568192E-01 -0.21581769885E-01  0.70186762556E-01  0.10521513714E+00  0.51100000000E-03 0.  1.
         11    1    4    4    0    0 -0.12025850468E-01 -0.17960244910E-01  0.89135835125E-02  0.23385990865E-01  0.51100000000E-03 0. -1.
</event>
<event>
 8    1  0.1083484E+005  0.1043930E+01  0.7957747E-01            NaN
         13   -1    0    0    0    0  0.00000000000E+00  0.00000000000E+00  0.74505805969E-08  0.10566000000E+00  0.10566000000E+00 0. -1.
     999900   -1    0    0    0    0 -0.00000000000E+00 -0.00000000000E+00 -0.74505805969E-08  0.93827000000E+00  0.93827000000E+00 0. -1.
     999902    2    1    2    0    0  0.14758812862E-01 -0.17606756556E-01  0.74301567997E-02  0.10197840342E+01  0.10194981357E+01 0.  0.
     999903    2    3    3    0    0  0.96701271128E-01  0.37050637012E-01 -0.76474482418E-01  0.13032240738E+00  0.20290339149E-01 0.  0.
         14    1    1    2    0    0 -0.14758812862E-01  0.17606756556E-01 -0.74301567997E-02  0.24145965783E-01  0.00000000000E+00 0.  1.
     999901    1    3    3    0    0 -0.81942458267E-01 -0.54657393568E-01  0.83904639217E-01  0.88946162684E+00  0.88000000000E+00 0. -1.
        -11    1    4    4    0    0  0.23676116596E-01  0.11403591765E-01 -0.94356760929E-02  0.27926573483E-01  0.51100000000E-03 0. -1.
         11    1    4    4    0    0  0.73025154533E-01  0.25647045247E-01 -0.67038806325E-01  0.10239583389E+00  0.51100000000E-03 0.  1.
</event>
<event>
 8    1  0.1083484E+005  0.1043930E+01  0.7957747E-01            NaN
         13   -1    0    0    0    0  0.00000000000E+00  0.00000000000E+00  0.74505805969E-08  0.10566000000E+00  0.10566000000E+00 0.  1.
     999900   -1    0    0    0    0 -0.00000000000E+00 -0.00000000000E+00 -0.74505805969E-08  0.93827000000E+00  0.93827000000E+00 0.  1.
     999902    2    1    2    0    0 -0.60285886705E-02 -0.19813737888E-01 -0.12088851683E-01  0.10199494157E+01  0.10196674664E+01 0.  0.
     999903    2    3    3    0    0  0.52904766188E-01  0.11196475959E+00  0.22658986420E-01  0.12751111249E+00  0.20264068364E-01 0.  0.
         14    1    1    2    0    0  0.60285886705E-02  0.19813737888E-01  0.12088851683E-01  0.23980584344E-01  0.00000000000E+00 0.  1.
     999901    1    3    3    0    0 -0.58933354859E-01 -0.13177849748E+00 -0.34747838103E-01  0.89243830317E+00  0.88000000000E+00 0. -1.
        -11    1    4    4    0    0  0.28594418348E-01  0.78769956318E-01  0.20683702903E-01  0.86315835545E-01  0.51100000000E-03 0. -1.
         11    1    4    4    0    0  0.24310347840E-01  0.33194803271E-01  0.19752835168E-02  0.41195276941E-01  0.51100000000E-03 0.  1.
</event>
<event>
 8    1  0.1083484E+005  0.1043930E+01  0.7957747E-01            NaN
         13   -1    0    0    0    0  0.00000000000E+00  0.00000000000E+00  0.74505805969E-08  0.10566000000E+00  0.10566000000E+00 0.  1.
     999900   -1    0    0    0    0 -0.00000000000E+00 -0.00000000000E+00 -0.74505805969E-08  0.93827000000E+00  0.93827000000E+00 0. -1.
     999902    2    1    2    0    0  0.10132099226E-01 -0.16929106961E-01  0.13097027615E-01  0.10202490746E+01  0.10199742094E+01 0.  0.
     999903    2    3    3    0    0  0.19857957238E-01  0.12439247756E+00  0.22383736271E-01  0.12887226001E+00  0.15466118165E-01 0.  0.
         14    1    1    2    0    0 -0.10132099226E-01  0.16929106961E-01 -0.13097027615E-01  0.23680925437E-01  0.00000000000E+00 0. -1.
     999901    1    3    3    0    0 -0.97258580117E-02 -0.14132158452E+00 -0.92867086567E-02  0.89137681455E+00  0.88000000000E+00 0.  1.
        -11    1    4    4    0    0  0.20441245038E-01  0.82681608783E-01  0.13873343418E-01  0.86294980782E-01  0.51100000000E-03 0.  1.
         11    1    4    4    0    0 -0.58328780002E-03  0.41710868778E-01  0.85103928533E-02  0.42577279227E-01  0.51100000000E-03 0. -1.
</event>
<event>
 8    1  0.1083484E+005  0.1043930E+01  0.7957747E-01            NaN
         13   -1    0    0    0    0  0.00000000000E+00  0.00000000000E+00  0.74505805969E-08  0.10566000000E+00  0.10566000000E+00 0.  1.
     999900   -1    0    0    0    0 -0.00000000000E+00 -0.00000000000E+00 -0.74505805969E-08  0.93827000000E+00  0.93827000000E+00 0.  1.
     999902    2    1    2    0    0 -0.12123617032E-01  0.18916686384E-01  0.76258237910E-02  0.10202028783E+01  0.10199269271E+01 0.  0.
     999903    2    3    3    0    0 -0.16271428368E-01 -0.34251670677E-01 -0.12176667798E+00  0.12914367826E+00  0.20323125831E-01 0.  0.
         14    1    1    2    0    0  0.12123617032E-01 -0.18916686384E-01 -0.76258237910E-02  0.23727121658E-01  0.00000000000E+00 0.  1.
     999901    1    3    3    0    0  0.41478113364E-02  0.53168357061E-01  0.12939250177E+00  0.89105920008E+00  0.88000000000E+00 0. -1.
        -11    1    4    4    0    0 -0.21538827970E-03 -0.21633748387E-01 -0.76085766452E-01  0.79103542518E-01  0.51100000000E-03 0.  1.
         11    1    4    4    0    0 -0.16056040088E-01 -0.12617922290E-01 -0.45680911528E-01  0.50040135744E-01  0.51100000000E-03 0. -1.
</event>
<event>
 8    1  0.1083484E+005  0.1043930E+01  0.7957747E-01            NaN
         13   -1    0    0    0    0  0.00000000000E+00  0.00000000000E+00  0.74505805969E-08  0.10566000000E+00  0.10566000000E+00 0. -1.
     999900   -1    0    0    0    0 -0.00000000000E+00 -0.00000000000E+00 -0.74505805969E-08  0.93827000000E+00  0.93827000000E+00 0.  1.
     999902    2    1    2    0    0  0.40600315566E-02 -0.24784979967E-01  0.60339579066E-02  0.10181000225E+01  0.10177723066E+01 0.  0.
     999903    2    3    3    0    0  0.10740211306E+00  0.55162122401E-01 -0.35733731062E-01  0.12747346508E+00  0.19862304140E-01 0.  0.
         14    1    1    2    0    0 -0.40600315566E-02  0.24784979967E-01 -0.60339579066E-02  0.25829977472E-01  0.00000000000E+00 0.  1.
     999901    1    3    3    0    0 -0.10334208151E+00 -0.79947102368E-01  0.41767688968E-01  0.89062655745E+00  0.88000000000E+00 0. -1.
        -11    1    4    4    0    0  0.43017356164E-01  0.29054315163E-01 -0.73900143309E-02  0.52435861715E-01  0.51100000000E-03 0.  1.
         11    1    4    4    0    0  0.64384756900E-01  0.26107807238E-01 -0.28343716731E-01  0.75037603367E-01  0.51100000000E-03 0. -1.
</event>
<event>
 8    1  0.1083484E+005  0.1043930E+01  0.7957747E-01            NaN
         13   -1    0    0    0    0  0.00000000000E+00  0.00000000000E+00  0.74505805969E-08  0.10566000000E+00  0.10566000000E+00 0. -1.
     999900   -1    0    0    0    0 -0.00000000000E+00 -0.00000000000E+00 -0.74505805969E-08  0.93827000000E+00  0.93827000000E+00 0. -1.
     999902    2    1    2    0    0  0.97857398992E-03  0.23569079667E-01  0.26359662336E-03  0.10203391415E+01  0.10200663875E+01 0.  0.
     999903    2    3    3    0    0  0.73792325456E-01 -0.54315187059E-01 -0.89236361530E-01  0.12939691892E+00  0.19621099972E-01 0.  0.
         14    1    1    2    0    0 -0.97857398992E-03 -0.23569079667E-01 -0.26359662336E-03  0.23590858539E-01  0.00000000000E+00 0. -1.
     999901    1    3    3    0    0 -0.72813751466E-01  0.77884266726E-01  0.89499958153E-01  0.89094222255E+00  0.88000000000E+00 0.  1.
        -11    1    4    4    0    0  0.62323926905E-01 -0.35730238308E-01 -0.67347027996E-01  0.98472357011E-01  0.51100000000E-03 0.  1.
         11    1    4    4    0    0  0.11468398552E-01 -0.18584948751E-01 -0.21889333533E-01  0.30924561904E-01  0.51100000000E-03 0. -1.
</event>
<event>
 8    1  0.1083484E+005  0.1043930E+01  0.7957747E-01            NaN
         13   -1    0    0    0    0  0.00000000000E+00  0.00000000000E+00  0.74505805969E-08  0.10566000000E+00  0.10566000000E+00 0.  1.
     999900   -1    0    0    0    0 -0.00000000000E+00 -0.00000000000E+00 -0.74505805969E-08  0.93827000000E+00  0.93827000000E+00 0. -1.
     999902    2    1    2    0    0  0.18719596612E-01 -0.32955529813E-02  0.11643018361E-01  0.10216400058E+01  0.10213968169E+01 0.  0.
     999903    2    3    3    0    0  0.29527839451E-01 -0.12754259976E+00  0.11888340276E-01  0.13284632501E+00  0.19178252795E-01 0.  0.
         14    1    1    2    0    0 -0.18719596612E-01  0.32955529813E-02 -0.11643018361E-01  0.22289994242E-01  0.00000000000E+00 0. -1.
     999901    1    3    3    0    0 -0.10808242838E-01  0.12424704677E+00 -0.24532191539E-03  0.88879368074E+00  0.88000000000E+00 0. -1.
        -11    1    4    4    0    0  0.16228821327E-01 -0.41795754900E-01  0.10546325793E-01  0.46062412855E-01  0.51100000000E-03 0.  1.
         11    1    4    4    0    0  0.13299018124E-01 -0.85746844856E-01  0.13420144833E-02  0.86783912159E-01  0.51100000000E-03 0. -1.
</event>
<event>
 8    1  0.1083484E+005  0.1043930E+01  0.7957747E-01            NaN
         13   -1    0    0    0    0  0.00000000000E+00  0.00000000000E+00  0.74505805969E-08  0.10566000000E+00  0.10566000000E+00 0.  1.
     999900   -1    0    0    0    0 -0.00000000000E+00 -0.00000000000E+00 -0.74505805969E-08  0.93827000000E+00  0.93827000000E+00 0. -1.
     999902    2    1    2    0    0 -0.14490909212E-02 -0.16735862686E-01  0.17010631366E-01  0.10200228767E+01  0.10197426727E+01 0.  0.
     999903    2    3    3    0    0 -0.94202782239E-01  0.26698652090E-01 -0.81029322303E-01  0.12867466370E+00  0.20110589262E-01 0.  0.
         14    1    1    2    0    0  0.14490909212E-02  0.16735862686E-01 -0.17010631366E-01  0.23907123286E-01  0.00000000000E+00 0. -1.
     999901    1    3    3    0    0  0.92753691318E-01 -0.43434514776E-01  0.98039953669E-01  0.89134821301E+00  0.88000000000E+00 0.  1.
        -11    1    4    4    0    0 -0.53662889322E-01  0.14285586158E-01 -0.32966297091E-01  0.64581897829E-01  0.51100000000E-03 0. -1.
         11    1    4    4    0    0 -0.40539892918E-01  0.12413065932E-01 -0.48063025211E-01  0.64092765872E-01  0.51100000000E-03 0.  1.
</event>
<event>
 8    1  0.1083484E+005  0.1043930E+01  0.7957747E-01            NaN
         13   -1    0    0    0    0  0.00000000000E+00  0.00000000000E+00  0.74505805969E-08  0.10566000000E+00  0.10566000000E+00 0.  1.
     999900   -1    0    0    0    0 -0.00000000000E+00 -0.00000000000E+00 -0.74505805969E-08  0.93827000000E+00  0.93827000000E+00 0.  1.
     999902    2    1    2    0    0 -0.11473958872E-01  0.20133936092E-01  0.52294063361E-02  0.10201734471E+01  0.10198968028E+01 0.  0.
     999903    2    3    3    0    0 -0.73875781860E-01 -0.24866369710E-01 -0.10247201743E+00  0.13027535647E+00  0.19879302320E-01 0.  0.
         14    1    1    2    0    0  0.11473958872E-01 -0.20133936092E-01 -0.52294063361E-02  0.23756552894E-01  0.00000000000E+00 0. -1.
     999901    1    3    3    0    0  0.62401822988E-01  0.45000305802E-01  0.10770142376E+00  0.88989809063E+00  0.88000000000E+00 0. -1.
        -11    1    4    4    0    0 -0.35035338056E-01 -0.22232137373E-01 -0.51679455565E-01  0.66277975930E-01  0.51100000000E-03 0. -1.
         11    1    4    4    0    0 -0.38840443804E-01 -0.26342323362E-02 -0.50792561860E-01  0.63997380542E-01  0.51100000000E-03 0.  1.
</event>
<event>
 8    1  0.1083484E+005  0.1043930E+01  0.7957747E-01            NaN
         13   -1    0    0    0    0  0.00000000000E+00  0.00000000000E+00  0.74505805969E-08  0.10566000000E+00  0.10566000000E+00 0. -1.
     999900   -1    0    0    0    0 -0.00000000000E+00 -0.00000000000E+00 -0.74505805969E-08  0.93827000000E+00  0.93827000000E+00 0. -1.
     999902    2    1    2    0    0 -0.45437259631E-02  0.51668535955E-03 -0.23592698072E-01  0.10198981917E+01  0.10196150222E+01 0.  0.
     999903    2    3    3    0    0  0.89511692916E-01  0.61920257895E-01 -0.70919424526E-01  0.13149702126E+00  0.20382353136E-01 0.  0.
         14    1    1    2    0    0  0.45437259631E-02 -0.51668535955E-03  0.23592698072E-01  0.24031808332E-01  0.00000000000E+00 0. -1.
     999901    1    3    3    0    0 -0.94055418879E-01 -0.61403572536E-01  0.47326726453E-01  0.88840117041E+00  0.88000000000E+00 0.  1.
        -11    1    4    4    0    0  0.72623047732E-01  0.39786289540E-01 -0.55197242497E-01  0.99519106696E-01  0.51100000000E-03 0. -1.
         11    1    4    4    0    0  0.16888645183E-01  0.22133968355E-01 -0.15722182029E-01  0.31977914566E-01  0.51100000000E-03 0.  1.
</event>
<event>
 8    1  0.1083484E+005  0.1043930E+01  0.7957747E-01            NaN
         13   -1    0    0    0    0  0.00000000000E+00  0.00000000000E+00  0.74505805969E-08  0.10566000000E+00  0.10566000000E+00 0.  1.
     999900   -1    0    0    0    0 -0.00000000000E+00 -0.00000000000E+00 -0.74505805969E-08  0.93827000000E+00  0.93827000000E+00 0.  1.
     999902    2    1    2    0    0 -0.86324036983E-03 -0.15651975461E-01 -0.18264913335E-01  0.10198605883E+01  0.10195765214E+01 0.  0.
     999903    2    3    3    0    0 -0.35379666155E-01 -0.12200686584E+00  0.28541704317E-01  0.13155117949E+00  0.18806590581E-01 0.  0.
         14    1    1    2    0    0  0.86324036983E-03  0.15651975461E-01  0.18264913335E-01  0.24069411686E-01  0.00000000000E+00 0.  1.
     999901    1    3    3    0    0  0.34516425785E-01  0.10635489038E+00 -0.46806617652E-01  0.88830940883E+00  0.88000000000E+00 0. -1.
        -11    1    4    4    0    0 -0.41001396982E-02 -0.34969774385E-01  0.17330525409E-02  0.35255650018E-01  0.51100000000E-03 0. -1.
         11    1    4    4    0    0 -0.31279526457E-01 -0.87037091456E-01  0.26808651776E-01  0.96295529468E-01  0.51100000000E-03 0.  1.
</event>
<event>
 8    1  0.1083484E+005  0.1043930E+01  0.7957747E-01            NaN
         13   -1    0    0    0    0  0.00000000000E+00  0.00000000000E+00  0.74505805969E-08  0.10566000000E+00  0.10566000000E+00 0.  1.
     999900   -1    0    0    0    0 -0.00000000000E+00 -0.00000000000E+00 -0.74505805969E-08  0.93827000000E+00  0.93827000000E+00 0.  1.
     999902    2    1    2    0    0  0.85479612133E-02  0.45034731640E-02  0.20841463934E-01  0.10209579402E+01  0.10206994661E+01 0.  0.
     999903    2    3    3    0    0 -0.12167306673E+00 -0.19741526354E-03 -0.39041624644E-01  0.12934950668E+00  0.20066695874E-01 0.  0.
         14    1    1    2    0    0 -0.85479612133E-02 -0.45034731640E-02 -0.20841463934E-01  0.22972059776E-01  0.00000000000E+00 0. -1.
     999901    1    3    3    0    0  0.13022102794E+00  0.47008884276E-02  0.59883088578E-01  0.89160843354E+00  0.88000000000E+00 0. -1.
        -11    1    4    4    0    0 -0.54607614656E-01 -0.61884076512E-02 -0.93072641641E-02  0.55742033107E-01  0.51100000000E-03 0.  1.
         11    1    4    4    0    0 -0.67065452072E-01  0.59909923877E-02 -0.29734360480E-01  0.73607473572E-01  0.51100000000E-03 0. -1.
</event>
<event>
 8    1  0.1083484E+005  0.1043930E+01  0.7957747E-01            NaN
         13   -1    0    0    0    0  0.00000000000E+00  0.00000000000E+00  0.74505805969E-08  0.10566000000E+00  0.10566000000E+00 0.  1.
     999900   -1    0    0    0    0 -0.00000000000E+00 -0.00000000000E+00 -0.74505805969E-08  0.93827000000E+00  0.93827000000E+00 0.  1.
     999902    2    1    2    0    0 -0.16948751715E-01 -0.10851977439E-01 -0.91365320137E-02  0.10218279228E+01  0.10215888615E+01 0.  0.
     999903    2    3    3    0    0 -0.31120589611E-03 -0.12279750485E+00 -0.48855761968E-01  0.13369154462E+00  0.20179682299E-01 0.  0.
         14    1    1    2    0    0  0.16948751715E-01  0.10851977439E-01  0.91365320137E-02  0.22102077193E-01  0.00000000000E+00 0.  1.
     999901    1    3    3    0    0 -0.16637545819E-01  0.11194552741E+00  0.39719229954E-01  0.88813637819E+00  0.88000000000E+00 0. -1.
        -11    1    4    4    0    0  0.32971665114E-02 -0.19376691986E-01 -0.15263006677E-01  0.24890721025E-01  0.51100000000E-03 0.  1.
         11    1    4    4    0    0 -0.36083724076E-02 -0.10342081286E+00 -0.33592755291E-01  0.10880082359E+00  0.51100000000E-03 0. -1.
</event>
<event>
 8    1  0.1083484E+005  0.1043930E+01  0.7957747E-01            NaN
         13   -1    0    0    0    0  0.00000000000E+00  0.00000000000E+00  0.74505805969E-08  0.10566000000E+00  0.10566000000E+00 0. -1.
     999900   -1    0    0    0    0 -0.00000000000E+00 -0.00000000000E+00 -0.74505805969E-08  0.93827000000E+00  0.93827000000E+00 0.  1.
     999902    2    1    2    0    0 -0.11163736165E-01  0.46782246895E-03 -0.19912541902E-01  0.10210967526E+01  0.10208414279E+01 0.  0.
     999903    2    3    3    0    0 -0.12650552397E+00  0.34671986925E-01  0.41672410454E-02  0.13258480059E+00  0.18856542016E-01 0.  0.
         14    1    1    2    0    0  0.11163736165E-01 -0.46782246895E-03  0.19912541902E-01  0.22833247426E-01  0.00000000000E+00 0. -1.
     999901    1    3    3    0    0  0.11534178780E+00 -0.34204164456E-01 -0.24079782947E-01  0.88851195199E+00  0.88000000000E+00 0. -1.
        -11    1    4    4    0    0 -0.67003157291E-01  0.23706039670E-01 -0.55985769149E-02  0.71295193304E-01  0.51100000000E-03 0. -1.
         11    1    4    4    0    0 -0.59502366677E-01  0.10965947256E-01  0.97658179603E-02  0.61289607282E-01  0.51100000000E-03 0.  1.
</event>
<event>
 8    1  0.1083484E+005  0.1043930E+01  0.7957747E-01            NaN
         13   -1    0    0    0    0  0.00000000000E+00  0.00000000000E+00  0.74505805969E-08  0.10566000000E+00  0.10566000000E+00 0. -1.
     999900   -1    0    0    0    0 -0.00000000000E+00 -0.00000000000E+00 -0.74505805969E-08  0.93827000000E+00  0.93827000000E+00 0.  1.
     999902    2    1    2    0    0 -0.40188384584E-02 -0.23098795759E-01  0.33655001983E-03  0.10204817870E+01  0.10202123597E+01 0.  0.
     999903    2    3    3    0    0 -0.94316263938E-01  0.81457554424E-01  0.28194656101E-01  0.12926815968E+00  0.19606826807E-01 0.  0.
         14    1    1    2    0    0  0.40188384584E-02  0.23098795759E-01 -0.33655001983E-03  0.23448213023E-01  0.00000000000E+00 0. -1.
     999901    1    3    3    0    0  0.90297425480E-01 -0.10455635018E+00 -0.27858106081E-01  0.89121362730E+00  0.88000000000E+00 0. -1.
        -11    1    4    4    0    0 -0.83862703218E-01  0.64619637346E-01  0.19652866007E-01  0.10768076330E+00  0.51100000000E-03 0. -1.
         11    1    4    4    0    0 -0.10453560720E-01  0.16837917078E-01  0.85417900942E-02  0.21587396376E-01  0.51100000000E-03 0.  1.
</event>
<event>
 8    1  0.1083484E+005  0.1043930E+01  0.7957747E-01            NaN
         13   -1    0    0    0    0  0.00000000000E+00  0.00000000000E+00  0.74505805969E-08  0.10566000000E+00  0.10566000000E+00 0. -1.
     999900   -1    0    0    0    0 -0.00000000000E+00 -0.00000000000E+00 -0.74505805969E-08  0.93827000000E+00  0.93827000000E+00 0. -1.
     999902    2    1    2    0    0 -0.12186327290E-01 -0.10288547249E-01 -0.16210947926E-01  0.10211889444E+01  0.10209357005E+01 0.  0.
     999903    2    3    3    0    0  0.15719536743E-02  0.47800590077E-01 -0.12226677880E+00  0.13281319201E+00  0.20070160005E-01 0.  0.
         14    1    1    2    0    0  0.12186327290E-01  0.10288547249E-01  0.16210947926E-01  0.22741055604E-01  0.00000000000E+00 0. -1.
     999901    1    3    3    0    0 -0.13758280964E-01 -0.58089137325E-01  0.10605583088E+00  0.88837575239E+00  0.88000000000E+00 0.  1.
        -11    1    4    4    0    0 -0.89801836375E-02  0.24223059839E-01 -0.66839500929E-01  0.71660172562E-01  0.51100000000E-03 0. -1.
         11    1    4    4    0    0  0.10552137312E-01  0.23577530237E-01 -0.55427277873E-01  0.61153019446E-01  0.51100000000E-03 0.  1.
</event>
<event>
 8    1  0.1083484E+005  0.1043930E+01  0.7957747E-01            NaN
         13   -1    0    0    0    0  0.00000000000E+00  0.00000000000E+00  0.74505805969E-08  0.10566000000E+00  0.10566000000E+00 0. -1.
     999900   -1    0    0    0    0 -0.00000000000E+00 -0.00000000000E+00 -0.74505805969E-08  0.93827000000E+00  0.93827000000E+00 0.  1.
     999902    2    1    2    0    0  0.19907117260E-01  0.76469868883E-02 -0.78019857110E-02  0.10212222765E+01  0.10209697827E+01 0.  0.
     999903    2    3    3    0    0 -0.46500474673E-01 -0.25897741735E-01  0.11614265635E+00  0.12942774220E+00  0.20722853441E-01 0.  0.
         14    1    1    2    0    0 -0.19907117260E-01 -0.76469868883E-02  0.78019857110E-02  0.22707723512E-01  0.00000000000E+00 0. -1.
     999901    1    3    3    0    0  0.66407591933E-01  0.33544728624E-01 -0.12394464207E+00  0.89179453429E+00  0.88000000000E+00 0.  1.
        -11    1    4    4    0    0 -0.19082772945E-01  0.23584744965E-03  0.34653639749E-01  0.39564424881E-01  0.51100000000E-03 0. -1.
         11    1    4    4    0    0 -0.27417701729E-01 -0.26133589185E-01  0.81489016605E-01  0.89863317322E-01  0.51100000000E-03 0.  1.
</event>
<event>
 8    1  0.1083484E+005  0.1043930E+01  0.7957747E-01            NaN
         13   -1    0    0    0    0  0.00000000000E+00  0.00000000000E+00  0.74505805969E-08  0.10566000000E+00  0.10566000000E+00 0.  1.
     999900   -1    0    0    0    0 -0.00000000000E+00 -0.00000000000E+00 -0.74505805969E-08  0.93827000000E+00  0.93827000000E+00 0.  1.
     999902    2    1    2    0    0  0.91824445977E-02 -0.18450234719E-02 -0.21706970446E-01  0.10202886387E+01  0.10200147020E+01 0.  0.
     999903    2    3    3    0    0 -0.47545181276E-01  0.51492150039E-01  0.10471813228E+00  0.12785030229E+00  0.21629303908E-01 0.  0.
         14    1    1    2    0    0 -0.91824445977E-02  0.18450234719E-02  0.21706970446E-01  0.23641361347E-01  0.00000000000E+00 0.  1.
     999901    1    3    3    0    0  0.56727625874E-01 -0.53337173511E-01 -0.12642510273E+00  0.89243833637E+00  0.88000000000E+00 0.  1.
        -11    1    4    4    0    0 -0.22551413106E-01  0.22614554151E-01  0.29451578729E-01  0.43446989575E-01  0.51100000000E-03 0. -1.
         11    1    4    4    0    0 -0.24993768171E-01  0.28877595888E-01  0.75266553555E-01  0.84403312712E-01  0.51100000000E-03 0.  1.
</event>
<event>
 8    1  0.1083484E+005  0.1043930E+01  0.7957747E-01            NaN
         13   -1    0    0    0    0  0.00000000000E+00  0.00000000000E+00  0.74505805969E-08  0.10566000000E+00  0.10566000000E+00 0. -1.
     999900   -1    0    0    0    0 -0.00000000000E+00 -0.00000000000E+00 -0.74505805969E-08  0.93827000000E+00  0.93827000000E+00 0.  1.
     999902    2    1    2    0    0 -0.10620809702E-01  0.15121063419E-02  0.20887208972E-01  0.10204488679E+01  0.10201786748E+01 0.  0.
     999903    2    3    3    0    0  0.11772678635E+00  0.50368480349E-01  0.28004254305E-02  0.12961376399E+00  0.19882288475E-01 0.  0.
         14    1    1    2    0    0  0.10620809702E-01 -0.15121063419E-02 -0.20887208972E-01  0.23481132063E-01  0.00000000000E+00 0.  1.
     999901    1    3    3    0    0 -0.12834759605E+00 -0.48856374008E-01  0.18086783542E-01  0.89083510395E+00  0.88000000000E+00 0. -1.
        -11    1    4    4    0    0  0.10094720121E+00  0.41812389060E-01  0.93533283480E-02  0.10966475817E+00  0.51100000000E-03 0.  1.
         11    1    4    4    0    0  0.16779585138E-01  0.85560912894E-02 -0.65529029176E-02  0.19949005820E-01  0.51100000000E-03 0. -1.
</event>
<event>
 8    1  0.1083484E+005  0.1043930E+01  0.7957747E-01            NaN
         13   -1    0    0    0    0  0.00000000000E+00  0.00000000000E+00  0.74505805969E-08  0.10566000000E+00  0.10566000000E+00 0. -1.
     999900   -1    0    0    0    0 -0.00000000000E+00 -0.00000000000E+00 -0.74505805969E-08  0.93827000000E+00  0.93827000000E+00 0.  1.
     999902    2    1    2    0    0  0.17002050789E-01 -0.64095858388E-02  0.14946418158E-01  0.10204024005E+01  0.10201311244E+01 0.  0.
     999903    2    3    3    0    0 -0.73883814181E-01 -0.10316422024E-01 -0.10204051030E+00  0.12801154150E+00  0.20234684457E-01 0.  0.
         14    1    1    2    0    0 -0.17002050789E-01  0.64095858388E-02 -0.14946418158E-01  0.23527599483E-01  0.00000000000E+00 0.  1.
     999901    1    3    3    0    0  0.90885864970E-01  0.39068361852E-02  0.11698692846E+00  0.89239085901E+00  0.88000000000E+00 0. -1.
        -11    1    4    4    0    0 -0.25391695567E-01 -0.12130878387E-01 -0.45491365696E-01  0.53494129474E-01  0.51100000000E-03 0. -1.
         11    1    4    4    0    0 -0.48492118614E-01  0.18144563631E-02 -0.56549144602E-01  0.74517412031E-01  0.51100000000E-03 0.  1.
</event>
<event>
 8    1  0.1083484E+005  0.1043930E+01  0.7957747E-01            NaN
         13   -1    0    0    0    0  0.00000000000E+00  0.00000000000E+00  0.74505805969E-08  0.10566000000E+00  0.10566000000E+00 0. -1.
     999900   -1    0    0    0    0 -0.00000000000E+00 -0.00000000000E+00 -0.74505805969E-08  0.93827000000E+00  0.93827000000E+00 0. -1.
     999902    2    1    2    0    0 -0.13318752222E-01  0.18951123659E-01 -0.64331967204E-02  0.10198900277E+01  0.10196066635E+01 0.  0.
     999903    2    3    3    0    0  0.37755608047E-01 -0.65306554048E-01  0.10141987973E+00  0.12784729742E+00  0.19196549483E-01 0.  0.
         14    1    1    2    0    0  0.13318752222E-01 -0.18951123659E-01  0.64331967204E-02  0.24039972312E-01  0.00000000000E+00 0. -1.
     999901    1    3    3    0    0 -0.51074360269E-01  0.84257677707E-01 -0.10785307645E+00  0.89204273027E+00  0.88000000000E+00 0. -1.
        -11    1    4    4    0    0  0.26510960913E-01 -0.37400882079E-01  0.46969366071E-01  0.65635657222E-01  0.51100000000E-03 0.  1.
         11    1    4    4    0    0  0.11244647134E-01 -0.27905671969E-01  0.54450513658E-01  0.62211640196E-01  0.51100000000E-03 0. -1.
</event>
<event>
 8    1  0.1083484E+005  0.1043930E+01  0.7957747E-01            NaN
         13   -1    0    0    0    0  0.00000000000E+00  0.00000000000E+00  0.74505805969E-08  0.10566000000E+00  0.10566000000E+00 0. -1.
     999900   -1    0    0    0    0 -0.00000000000E+00 -0.00000000000E+00 -0.74505805969E-08  0.93827000000E+00  0.93827000000E+00 0.  1.
     999902    2    1    2    0    0 -0.19046975655E-01  0.44233844899E-02  0.13684470337E-01  0.10200633215E+01  0.10197840760E+01 0.  0.
     999903    2    3    3    0    0  0.11252728214E+00 -0.57305656411E-01 -0.25789320357E-02  0.12799451363E+00  0.20727207870E-01 0.  0.
         14    1    1    2    0    0  0.19046975655E-01 -0.44233844899E-02 -0.13684470337E-01  0.23866678452E-01  0.00000000000E+00 0. -1.
     999901    1    3    3    0    0 -0.13157425780E+00  0.61729040901E-01  0.16263402372E-01  0.89206880792E+00  0.88000000000E+00 0. -1.
        -11    1    4    4    0    0  0.32715294427E-01 -0.24370533200E-01  0.59613171799E-02  0.41231199369E-01  0.51100000000E-03 0.  1.
         11    1    4    4    0    0  0.79811987714E-01 -0.32935123211E-01 -0.85402492156E-02  0.86763314260E-01  0.51100000000E-03 0. -1.
</event>
<event>
 8    1  0.1083484E+005  0.1043930E+01  0.7957747E-01            NaN
         13   -1    0    0    0    0  0.00000000000E+00  0.00000000000E+00  0.74505805969E-08  0.10566000000E+00  0.10566000000E+00 0.  1.
     999900   -1    0    0    0    0 -0.00000000000E+00 -0.00000000000E+00 -0.74505805969E-08  0.93827000000E+00  0.93827000000E+00 0.  1.
     999902    2    1    2    0    0 -0.19933343991E-01  0.28410792464E-02  0.52762028862E-02  0.10231153837E+01  0.10229036319E+01 0.  0.
     999903    2    3    3    0    0  0.41116535062E-01 -0.10617109972E+00 -0.62859056541E-01  0.13168218013E+00  0.20641310594E-01 0.  0.
         14    1    1    2    0    0  0.19933343991E-01 -0.28410792464E-02 -0.52762028862E-02  0.20814616279E-01  0.00000000000E+00 0. -1.
     999901    1    3    3    0    0 -0.61049879052E-01  0.10901217896E+00  0.68135259427E-01  0.89143320360E+00  0.88000000000E+00 0. -1.
        -11    1    4    4    0    0  0.26755881360E-01 -0.42518784363E-01 -0.31356239497E-01  0.59221609970E-01  0.51100000000E-03 0.  1.
         11    1    4    4    0    0  0.14360653701E-01 -0.63652315354E-01 -0.31502817044E-01  0.72460570156E-01  0.51100000000E-03 0. -1.
</event>
<event>
 8    1  0.1083484E+005  0.1043930E+01  0.7957747E-01            NaN
         13   -1    0    0    0    0  0.00000000000E+00  0.00000000000E+00  0.74505805969E-08  0.10566000000E+00  0.10566000000E+00 0.  1.
     999900   -1    0    0    0    0 -0.00000000000E+00 -0.00000000000E+00 -0.74505805969E-08  0.93827000000E+00  0.93827000000E+00 0. -1.
     999902    2    1    2    0    0 -0.23345689014E-01 -0.28416801050E-02  0.21663148202E-02  0.10203124374E+01  0.10200390584E+01 0.  0.
     999903    2    3    3    0    0  0.29538549381E-01  0.33130163994E-01 -0.12006026996E+00  0.12956552935E+00  0.20065500409E-01 0.  0.
         14    1    1    2    0    0  0.23345689014E-01  0.28416801050E-02 -0.21663148202E-02  0.23617562560E-01  0.00000000000E+00 0. -1.
     999901    1    3    3    0    0 -0.52884238395E-01 -0.35971844099E-01  0.12222658479E+00  0.89074690809E+00  0.88000000000E+00 0.  1.
        -11    1    4    4    0    0  0.13318198994E-02  0.15170648571E-01 -0.39735780526E-01  0.42557204999E-01  0.51100000000E-03 0. -1.
         11    1    4    4    0    0  0.28206729482E-01  0.17959515422E-01 -0.80324489438E-01  0.87008324354E-01  0.51100000000E-03 0.  1.
</event>
<event>
 8    1  0.1083484E+005  0.1043930E+01  0.7957747E-01            NaN
         13   -1    0    0    0    0  0.00000000000E+00  0.00000000000E+00  0.74505805969E-08  0.10566000000E+00  0.10566000000E+00 0. -1.
     999900   -1    0    0    0    0 -0.00000000000E+00 -0.00000000000E+00 -0.74505805969E-08  0.93827000000E+00  0.93827000000E+00 0.  1.
     999902    2    1    2    0    0  0.16418186492E-01 -0.10345521155E-01 -0.23057088336E-01  0.10137933781E+01  0.10133453496E+01 0.  0.
     999903    2    3    3    0    0 -0.11688211089E+00  0.25105614063E-01  0.16650054927E-01  0.12216430194E+00  0.18846024415E-01 0.  0.
         14    1    1    2    0    0 -0.16418186492E-01  0.10345521155E-01  0.23057088336E-01  0.30136621877E-01  0.00000000000E+00 0. -1.
     999901    1    3    3    0    0  0.13330029738E+00 -0.35451135218E-01 -0.39707143262E-01  0.89162907618E+00  0.88000000000E+00 0.  1.
        -11    1    4    4    0    0 -0.91505471777E-02 -0.30347283844E-02  0.19742432764E-02  0.98539762296E-02  0.51100000000E-03 0.  1.
         11    1    4    4    0    0 -0.10773156371E+00  0.28140342447E-01  0.14675811650E-01  0.11231032571E+00  0.51100000000E-03 0. -1.
</event>
<event>
 8    1  0.1083484E+005  0.1043930E+01  0.7957747E-01            NaN
         13   -1    0    0    0    0  0.00000000000E+00  0.00000000000E+00  0.74505805969E-08  0.10566000000E+00  0.10566000000E+00 0. -1.
     999900   -1    0    0    0    0 -0.00000000000E+00 -0.00000000000E+00 -0.74505805969E-08  0.93827000000E+00  0.93827000000E+00 0. -1.
     999902    2    1    2    0    0 -0.18867947938E-01 -0.11364230750E-01  0.62568377674E-02  0.10210325500E+01  0.10207757711E+01 0.  0.
     999903    2    3    3    0    0 -0.71875427352E-01 -0.99760789386E-01 -0.47760649252E-01  0.13337178516E+00  0.19714494737E-01 0.  0.
         14    1    1    2    0    0  0.18867947938E-01  0.11364230750E-01 -0.62568377674E-02  0.22897450049E-01  0.00000000000E+00 0.  1.
     999901    1    3    3    0    0  0.53007479415E-01  0.88396558636E-01  0.54017487019E-01  0.88766076480E+00  0.88000000000E+00 0.  1.
        -11    1    4    4    0    0 -0.29852323176E-01 -0.54021278968E-01 -0.16801659335E-01  0.63968872569E-01  0.51100000000E-03 0. -1.
         11    1    4    4    0    0 -0.42023104176E-01 -0.45739510418E-01 -0.30958989916E-01  0.69402912587E-01  0.51100000000E-03 0.  1.
</event>
<event>
 8    1  0.1083484E+005  0.1043930E+01  0.7957747E-01            NaN
         13   -1    0    0    0    0  0.00000000000E+00  0.00000000000E+00  0.74505805969E-08  0.10566000000E+00  0.10566000000E+00 0. -1.
     999900   -1    0    0    0    0 -0.00000000000E+00 -0.00000000000E+00 -0.74505805969E-08  0.93827000000E+00  0.93827000000E+00 0. -1.
     999902    2    1    2    0    0  0.87228981126E-02  0.12555381553E-01 -0.19057820190E-01  0.10194979091E+01  0.10192051116E+01 0.  0.
     999903    2    3    3    0    0 -0.85290840680E-01 -0.88013826989E-01 -0.34024667001E-01  0.12866865758E+00  0.19416081822E-01 0.  0.
         14    1    1    2    0    0 -0.87228981126E-02 -0.12555381553E-01  0.19057820190E-01  0.24432090943E-01  0.00000000000E+00 0. -1.
     999901    1    3    3    0    0  0.94013738792E-01  0.10056920854E+00  0.14966846811E-01  0.89082925148E+00  0.88000000000E+00 0. -1.
        -11    1    4    4    0    0 -0.24303383322E-01 -0.20239716429E-01 -0.84437465045E-03  0.31642924195E-01  0.51100000000E-03 0. -1.
         11    1    4    4    0    0 -0.60987457357E-01 -0.67774110559E-01 -0.33180292351E-01  0.97025733383E-01  0.51100000000E-03 0.  1.
</event>
<event>
 8    1  0.1083484E+005  0.1043930E+01  0.7957747E-01            NaN
         13   -1    0    0    0    0  0.00000000000E+00  0.00000000000E+00  0.74505805969E-08  0.10566000000E+00  0.10566000000E+00 0.  1.
     999900   -1    0    0    0    0 -0.00000000000E+00 -0.00000000000E+00 -0.74505805969E-08  0.93827000000E+00  0.93827000000E+00 0.  1.
     999902    2    1    2    0    0  0.65017742537E-02  0.22599798222E-01  0.15258593647E-02  0.10203640883E+01  0.10200919177E+01 0.  0.
     999903    2    3    3    0    0 -0.46523557423E-01 -0.27694498029E-01  0.11653228097E+00  0.12987676157E+00  0.18888463937E-01 0.  0.
         14    1    1    2    0    0 -0.65017742537E-02 -0.22599798222E-01 -0.15258593647E-02  0.23565911714E-01  0.00000000000E+00 0.  1.
     999901    1    3    3    0    0  0.53025331677E-01  0.50294296251E-01 -0.11500642161E+00  0.89048732672E+00  0.88000000000E+00 0.  1.
        -11    1    4    4    0    0 -0.24302153484E-01 -0.49894026897E-02  0.40864020502E-01  0.47808138384E-01  0.51100000000E-03 0. -1.
         11    1    4    4    0    0 -0.22221403939E-01 -0.22705095339E-01  0.75668260471E-01  0.82068623183E-01  0.51100000000E-03 0.  1.
</event>
<event>
 8    1  0.1083484E+005  0.1043930E+01  0.7957747E-01            NaN
         13   -1    0    0    0    0  0.00000000000E+00  0.00000000000E+00  0.74505805969E-08  0.10566000000E+00  0.10566000000E+00 0. -1.
     999900   -1    0    0    0    0 -0.00000000000E+00 -0.00000000000E+00 -0.74505805969E-08  0.93827000000E+00  0.93827000000E+00 0.  1.
     999902    2    1    2    0    0 -0.70639155438E-02 -0.22896569193E-01  0.32261882518E-02  0.10197523228E+01  0.10194656639E+01 0.  0.
     999903    2    3    3    0    0 -0.34042255115E-01  0.11906906650E+00  0.23820991486E-01  0.12772865808E+00  0.20269502412E-01 0.  0.
         14    1    1    2    0    0  0.70639155438E-02  0.22896569193E-01 -0.32261882518E-02  0.24177677189E-01  0.00000000000E+00 0. -1.
     999901    1    3    3    0    0  0.26978339571E-01 -0.14196563569E+00 -0.20594803234E-01  0.89202366473E+00  0.88000000000E+00 0.  1.
        -11    1    4    4    0    0 -0.32219748333E-01  0.92421520089E-01  0.24887944861E-01  0.10099267537E+00  0.51100000000E-03 0. -1.
         11    1    4    4    0    0 -0.18225067821E-02  0.26647546413E-01 -0.10669533749E-02  0.26735982707E-01  0.51100000000E-03 0.  1.
</event>
<event>
 8    1  0.1083484E+005  0.1043930E+01  0.7957747E-01            NaN
         13   -1    0    0    0    0  0.00000000000E+00  0.00000000000E+00  0.74505805969E-08  0.10566000000E+00  0.10566000000E+00 0.  1.
     999900   -1    0    0    0    0 -0.00000000000E+00 -0.00000000000E+00 -0.74505805969E-08  0.93827000000E+00  0.93827000000E+00 0. -1.
     999902    2    1    2    0    0  0.14281366020E-01 -0.18638011298E-01 -0.25610093571E-02  0.10203102699E+01  0.10200368401E+01 0.  0.
     999903    2    3    3    0    0 -0.11245072568E+00  0.31120610313E-01 -0.50047954673E-01  0.12857490924E+00  0.20323666665E-01 0.  0.
         14    1    1    2    0    0 -0.14281366020E-01  0.18638011298E-01  0.25610093571E-02  0.23619730088E-01  0.00000000000E+00 0. -1.
     999901    1    3    3    0    0  0.12673209170E+00 -0.49758621611E-01  0.47486945315E-01  0.89173536067E+00  0.88000000000E+00 0. -1.
        -11    1    4    4    0    0 -0.81467683561E-01  0.23468330359E-01 -0.45838572713E-01  0.96380401866E-01  0.51100000000E-03 0. -1.
         11    1    4    4    0    0 -0.30983042123E-01  0.76522799539E-02 -0.42093819596E-02  0.32194507376E-01  0.51100000000E-03 0.  1.
</event>
<event>
 8    1  0.1083484E+005  0.1043930E+01  0.7957747E-01            NaN
         13   -1    0    0    0    0  0.00000000000E+00  0.00000000000E+00  0.74505805969E-08  0.10566000000E+00  0.10566000000E+00 0. -1.
     999900   -1    0    0    0    0 -0.00000000000E+00 -0.00000000000E+00 -0.74505805969E-08  0.93827000000E+00  0.93827000000E+00 0. -1.
     999902    2    1    2    0    0 -0.57520006821E-02 -0.18229485240E-02 -0.22790207619E-01  0.10203545421E+01  0.10200821483E+01 0.  0.
     999903    2    3    3    0    0  0.90805834370E-01 -0.70652735721E-01  0.55570036969E-01  0.12895043447E+00  0.17397612522E-01 0.  0.
         14    1    1    2    0    0  0.57520006821E-02  0.18229485240E-02  0.22790207619E-01  0.23575457927E-01  0.00000000000E+00 0. -1.
     999901    1    3    3    0    0 -0.96557835052E-01  0.68829787197E-01 -0.78360244588E-01  0.89140410760E+00  0.88000000000E+00 0.  1.
        -11    1    4    4    0    0  0.44655133072E-01 -0.24128598161E-01  0.26465091787E-01  0.57244496357E-01  0.51100000000E-03 0. -1.
         11    1    4    4    0    0  0.46150701298E-01 -0.46524137559E-01  0.29104945182E-01  0.71705938115E-01  0.51100000000E-03 0.  1.
</event>
<event>
 8    1  0.1083484E+005  0.1043930E+01  0.7957747E-01            NaN
         13   -1    0    0    0    0  0.00000000000E+00  0.00000000000E+00  0.74505805969E-08  0.10566000000E+00  0.10566000000E+00 0.  1.
     999900   -1    0    0    0    0 -0.00000000000E+00 -0.00000000000E+00 -0.74505805969E-08  0.93827000000E+00  0.93827000000E+00 0.  1.
     999902    2    1    2    0    0 -0.23382478701E-01 -0.82585054279E-05  0.28742366699E-02  0.10203715277E+01  0.10200995309E+01 0.  0.
     999903    2    3    3    0    0  0.84887572382E-01  0.95159929109E-01 -0.27217481922E-02  0.12862565423E+00  0.16608400266E-01 0.  0.
         14    1    1    2    0    0  0.23382478701E-01  0.82585054279E-05 -0.28742366699E-02  0.23558472252E-01  0.00000000000E+00 0. -1.
     999901    1    3    3    0    0 -0.10827005108E+00 -0.95168187614E-01  0.55959848621E-02  0.89174587352E+00  0.88000000000E+00 0. -1.
        -11    1    4    4    0    0  0.48415302913E-01  0.55015691436E-01  0.66228790297E-02  0.73585946402E-01  0.51100000000E-03 0. -1.
         11    1    4    4    0    0  0.36472269469E-01  0.40144237673E-01 -0.93446272219E-02  0.55039707825E-01  0.51100000000E-03 0.  1.
</event>
<event>
 8    1  0.1083484E+005  0.1043930E+01  0.7957747E-01            NaN
         13   -1    0    0    0    0  0.00000000000E+00  0.00000000000E+00  0.74505805969E-08  0.10566000000E+00  0.10566000000E+00 0.  1.
     999900   -1    0    0    0    0 -0.00000000000E+00 -0.00000000000E+00 -0.74505805969E-08  0.93827000000E+00  0.93827000000E+00 0.  1.
     999902    2    1    2    0    0 -0.11193153358E-01  0.22604696679E-01 -0.78034285192E-02  0.10175263546E+01  0.10171837247E+01 0.  0.
     999903    2    3    3    0    0  0.93557660166E-01 -0.75188324688E-01  0.29419033437E-01  0.12515775383E+00  0.19815748018E-01 0.  0.
         14    1    1    2    0    0  0.11193153358E-01 -0.22604696679E-01  0.78034285192E-02  0.26403645405E-01  0.00000000000E+00 0.  1.
     999901    1    3    3    0    0 -0.10475081352E+00  0.97793021367E-01 -0.37222461956E-01  0.89236860077E+00  0.88000000000E+00 0. -1.
        -11    1    4    4    0    0  0.48484352811E-01 -0.50646239577E-01  0.13325715349E-01  0.71369530343E-01  0.51100000000E-03 0.  1.
         11    1    4    4    0    0  0.45073307355E-01 -0.24542085112E-01  0.16093318088E-01  0.53788223484E-01  0.51100000000E-03 0. -1.
</event>
<event>
 8    1  0.1083484E+005  0.1043930E+01  0.7957747E-01            NaN
         13   -1    0    0    0    0  0.00000000000E+00  0.00000000000E+00  0.74505805969E-08  0.10566000000E+00  0.10566000000E+00 0. -1.
     999900   -1    0    0    0    0 -0.00000000000E+00 -0.00000000000E+00 -0.74505805969E-08  0.93827000000E+00  0.93827000000E+00 0.  1.
     999902    2    1    2    0    0 -0.21378612358E-01 -0.21121121747E-02  0.10536756814E-01  0.10200024149E+01  0.10197217253E+01 0.  0.
     999903    2    3    3    0    0 -0.85001025995E-01 -0.98839155228E-01  0.10348598456E-01  0.13241919753E+00  0.20818197736E-01 0.  0.
         14    1    1    2    0    0  0.21378612358E-01  0.21121121747E-02 -0.10536756814E-01  0.23927585092E-01  0.00000000000E+00 0.  1.
     999901    1    3    3    0    0  0.63622413637E-01  0.96727043053E-01  0.18815835834E-03  0.88758321738E+00  0.88000000000E+00 0.  1.
        -11    1    4    4    0    0 -0.24905941103E-01 -0.29515844099E-01 -0.64195247909E-02  0.39153063413E-01  0.51100000000E-03 0.  1.
         11    1    4    4    0    0 -0.60095084892E-01 -0.69323311129E-01  0.16768123247E-01  0.93266134113E-01  0.51100000000E-03 0. -1.
</event>
<event>
 8    1  0.1083484E+005  0.1043930E+01  0.7957747E-01            NaN
         13   -1    0    0    0    0  0.00000000000E+00  0.00000000000E+00  0.74505805969E-08  0.10566000000E+00  0.10566000000E+00 0.  1.
     999900   -1    0    0    0    0 -0.00000000000E+00 -0.00000000000E+00 -0.74505805969E-08  0.93827000000E+00  0.93827000000E+00 0. -1.
     999902    2    1    2    0    0  0.18886058243E-02  0.21937465145E-01 -0.10384850015E-01  0.10195853020E+01  0.10192946207E+01 0.  0.
     999903    2    3    3    0    0  0.74989484031E-01 -0.10125388007E+00  0.79488655613E-02  0.12781404714E+00  0.19936781041E-01 0.  0.
         14    1    1    2    0    0 -0.18886058243E-02 -0.21937465145E-01  0.10384850015E-01  0.24344697960E-01  0.00000000000E+00 0.  1.
     999901    1    3    3    0    0 -0.73100878207E-01  0.12319134522E+00 -0.18333715576E-01  0.89177125490E+00  0.88000000000E+00 0. -1.
        -11    1    4    4    0    0  0.33736639463E-01 -0.31599467550E-01 -0.18719177961E-02  0.46265023386E-01  0.51100000000E-03 0.  1.
         11    1    4    4    0    0  0.41252844568E-01 -0.69654412525E-01  0.98207833574E-02  0.81549023758E-01  0.51100000000E-03 0. -1.
</event>
<event>
 8    1  0.1083484E+005  0.1043930E+01  0.7957747E-01            NaN
         13   -1    0    0    0    0  0.00000000000E+00  0.00000000000E+00  0.74505805969E-08  0.10566000000E+00  0.10566000000E+00 0. -1.
     999900   -1    0    0    0    0 -0.00000000000E+00 -0.00000000000E+00 -0.74505805969E-08  0.93827000000E+00  0.93827000000E+00 0.  1.
     999902    2    1    2    0    0  0.63672309646E-02  0.25823703770E-02  0.21913644391E-01  0.10209644154E+01  0.10207060886E+01 0.  0.
     999903    2    3    3    0    0 -0.77378691854E-01  0.10147334151E+00 -0.18306266477E-01  0.13056537843E+00  0.20685687358E-01 0.  0.
         14    1    1    2    0    0 -0.63672309646E-02 -0.25823703770E-02 -0.21913644391E-01  0.22965584630E-01  0.00000000000E+00 0.  1.
     999901    1    3    3    0    0  0.83745922819E-01 -0.98890971130E-01  0.40219910867E-01  0.89039903694E+00  0.88000000000E+00 0.  1.
        -11    1    4    4    0    0 -0.60301636341E-01  0.67300103936E-01 -0.19053981046E-01  0.92352079836E-01  0.51100000000E-03 0.  1.
         11    1    4    4    0    0 -0.17077055513E-01  0.34173237571E-01  0.74771456980E-03  0.38213298590E-01  0.51100000000E-03 0. -1.
</event>
<event>
 8    1  0.1083484E+005  0.1043930E+01  0.7957747E-01            NaN
         13   -1    0    0    0    0  0.00000000000E+00  0.00000000000E+00  0.74505805969E-08  0.10566000000E+00  0.10566000000E+00 0. -1.
     999900   -1    0    0    0    0 -0.00000000000E+00 -0.00000000000E+00 -0.74505805969E-08  0.93827000000E+00  0.93827000000E+00 0. -1.
     999902    2    1    2    0    0  0.12522165876E-01  0.12907253192E-01 -0.15480976436E-01  0.10202010629E+01  0.10199250690E+01 0.  0.
     999903    2    3    3    0    0  0.54603780821E-01 -0.10301832170E+00  0.49211690535E-01  0.12924946919E+00  0.26254281807E-01 0.  0.
         14    1    1    2    0    0 -0.12522165876E-01 -0.12907253192E-01  0.15480976436E-01  0.23728937073E-01  0.00000000000E+00 0. -1.
     999901    1    3    3    0    0 -0.42081614945E-01  0.11592557489E+00 -0.64692666971E-01  0.89095159374E+00  0.88000000000E+00 0. -1.
        -11    1    4    4    0    0  0.27934157111E-01 -0.70293626708E-01  0.41675263098E-01  0.86363185239E-01  0.51100000000E-03 0. -1.
         11    1    4    4    0    0  0.26669623710E-01 -0.32724694994E-01  0.75364274369E-02  0.42886283947E-01  0.51100000000E-03 0.  1.
</event>
<event>
 8    1  0.1083484E+005  0.1043930E+01  0.7957747E-01            NaN
         13   -1    0    0    0    0  0.00000000000E+00  0.00000000000E+00  0.74505805969E-08  0.10566000000E+00  0.10566000000E+00 0. -1.
     999900   -1    0    0    0    0 -0.00000000000E+00 -0.00000000000E+00 -0.74505805969E-08  0.93827000000E+00  0.93827000000E+00 0. -1.
     999902    2    1    2    0    0  0.23312796952E-01  0.22482537884E-02 -0.49064870564E-02  0.10200006297E+01  0.10197198977E+01 0.  0.
     999903    2    3    3    0    0 -0.70391444051E-01 -0.90227473861E-01 -0.55796866676E-01  0.12875314685E+00  0.19186715651E-01 0.  0.
         14    1    1    2    0    0 -0.23312796952E-01 -0.22482537884E-02  0.49064870564E-02  0.23929370281E-01  0.00000000000E+00 0. -1.
     999901    1    3    3    0    0  0.93704241003E-01  0.92475727649E-01  0.50890379620E-01  0.89124748287E+00  0.88000000000E+00 0. -1.
        -11    1    4    4    0    0 -0.33543850981E-01 -0.58247164519E-01 -0.31021078039E-01  0.74030335112E-01  0.51100000000E-03 0.  1.
         11    1    4    4    0    0 -0.36847593070E-01 -0.31980309342E-01 -0.24775788637E-01  0.54722811736E-01  0.51100000000E-03 0. -1.
</event>
<event>
 8    1  0.1083484E+005  0.1043930E+01  0.7957747E-01            NaN
         13   -1    0    0    0    0  0.00000000000E+00  0.00000000000E+00  0.74505805969E-08  0.10566000000E+00  0.10566000000E+00 0.  1.
     999900   -1    0    0    0    0 -0.00000000000E+00 -0.00000000000E+00 -0.74505805969E-08  0.93827000000E+00  0.93827000000E+00 0.  1.
     999902    2    1    2    0    0 -0.11919350146E-01  0.12332202411E-01  0.16146915022E-01  0.10203741729E+01  0.10201022379E+01 0.  0.
     999903    2    3    3    0    0 -0.18973245162E-01  0.89699408280E-02  0.13004930392E+00  0.13299893300E+00  0.18315317639E-01 0.  0.
         14    1    1    2    0    0  0.11919350146E-01 -0.12332202411E-01 -0.16146915022E-01  0.23555827070E-01  0.00000000000E+00 0. -1.
     999901    1    3    3    0    0  0.70538950158E-02  0.33622615833E-02 -0.11390238890E+00  0.88737523993E+00  0.88000000000E+00 0.  1.
        -11    1    4    4    0    0 -0.15941738757E-01 -0.37449698806E-03  0.53742288306E-01  0.56060449124E-01  0.51100000000E-03 0.  1.
         11    1    4    4    0    0 -0.30315064049E-02  0.93444378161E-02  0.76307015611E-01  0.76938483880E-01  0.51100000000E-03 0. -1.
</event>
<event>
 8    1  0.1083484E+005  0.1043930E+01  0.7957747E-01            NaN
         13   -1    0    0    0    0  0.00000000000E+00  0.00000000000E+00  0.74505805969E-08  0.10566000000E+00  0.10566000000E+00 0.  1.
     999900   -1    0    0    0    0 -0.00000000000E+00 -0.00000000000E+00 -0.74505805969E-08  0.93827000000E+00  0.93827000000E+00 0. -1.
     999902    2    1    2    0    0 -0.20280350712E-02  0.11703770211E-01 -0.20462976307E-01  0.10202693879E+01  0.10199949997E+01 0.  0.
     999903    2    3    3    0    0  0.64086567460E-04  0.12888686932E+00  0.19346935017E-01  0.13160686216E+00  0.18282042625E-01 0.  0.
         14    1    1    2    0    0  0.20280350712E-02 -0.11703770211E-01  0.20462976307E-01  0.23660612054E-01  0.00000000000E+00 0.  1.
     999901    1    3    3    0    0 -0.20921216387E-02 -0.11718309911E+00 -0.39809911325E-01  0.88866252578E+00  0.88000000000E+00 0. -1.
        -11    1    4    4    0    0  0.50883392956E-02  0.30194822217E-01  0.10566155195E-01  0.32396346123E-01  0.51100000000E-03 0. -1.
         11    1    4    4    0    0 -0.50242527282E-02  0.98692047108E-01  0.87807798227E-02  0.99210516041E-01  0.51100000000E-03 0.  1.
</event>
<event>
 8    1  0.1083484E+005  0.1043930E+01  0.7957747E-01            NaN
         13   -1    0    0    0    0  0.00000000000E+00  0.00000000000E+00  0.74505805969E-08  0.10566000000E+00  0.10566000000E+00 0. -1.
     999900   -1    0    0    0    0 -0.00000000000E+00 -0.00000000000E+00 -0.74505805969E-08  0.93827000000E+00  0.93827000000E+00 0. -1.
     999902    2    1    2    0    0  0.18416974355E-01  0.86259593133E-02 -0.11176028184E-01  0.10207244894E+01  0.10204606741E+01 0.  0.
     999903    2    3    3    0    0  0.98021636400E-01  0.72524093215E-01  0.47535571310E-01  0.13288051339E+00  0.23013365681E-01 0.  0.
         14    1    1    2    0    0 -0.18416974355E-01 -0.86259593133E-02  0.11176028184E-01  0.23205510648E-01  0.00000000000E+00 0. -1.
     999901    1    3    3    0    0 -0.79604662044E-01 -0.63898133902E-01 -0.58711599494E-01  0.88784397596E+00  0.88000000000E+00 0.  1.
        -11    1    4    4    0    0  0.38379271274E-01  0.27756501018E-01  0.66490775353E-02  0.47831612615E-01  0.51100000000E-03 0. -1.
         11    1    4    4    0    0  0.59642365126E-01  0.44767592198E-01  0.40886493775E-01  0.85048900776E-01  0.51100000000E-03 0.  1.
</event>
<event>
 8    1  0.1083484E+005  0.1043930E+01  0.7957747E-01            NaN
         13   -1    0    0    0    0  0.00000000000E+00  0.00000000000E+00  0.74505805969E-08  0.10566000000E+00  0.10566000000E+00 0. -1.
     999900   -1    0    0    0    0 -0.00000000000E+00 -0.00000000000E+00 -0.74505805969E-08  0.93827000000E+00  0.93827000000E+00 0. -1.
     999902    2    1    2    0    0  0.55442957145E-02 -0.10078077003E-02  0.23700847332E-01  0.10195684513E+01  0.10192773626E+01 0.  0.
     999903    2    3    3    0    0 -0.53767905135E-01 -0.52938381834E-01 -0.10063895267E+00  0.12733803959E+00  0.19832237361E-01 0.  0.
         14    1    1    2    0    0 -0.55442957145E-02  0.10078077003E-02 -0.23700847332E-01  0.24361548711E-01  0.00000000000E+00 0.  1.
     999901    1    3    3    0    0  0.59312200850E-01  0.51930574134E-01  0.12433980000E+00  0.89223041170E+00  0.88000000000E+00 0.  1.
        -11    1    4    4    0    0 -0.77881555829E-02 -0.17950916393E-01 -0.33112341041E-01  0.38465296267E-01  0.51100000000E-03 0.  1.
         11    1    4    4    0    0 -0.45979749552E-01 -0.34987465441E-01 -0.67526611625E-01  0.88872743321E-01  0.51100000000E-03 0. -1.
</event>
<event>
 8    1  0.1083484E+005  0.1043930E+01  0.7957747E-01            NaN
         13   -1    0    0    0    0  0.00000000000E+00  0.00000000000E+00  0.74505805969E-08  0.10566000000E+00  0.10566000000E+00 0.  1.
     999900   -1    0    0    0    0 -0.00000000000E+00 -0.00000000000E+00 -0.74505805969E-08  0.93827000000E+00  0.93827000000E+00 0. -1.
     999902    2    1    2    0    0 -0.14141253526E-01 -0.90955461064E-02  0.16992229378E-01  0.10200251915E+01  0.10197450424E+01 0.  0.
     999903    2    3    3    0    0  0.59402981388E-01 -0.11430321998E+00  0.10601811337E-01  0.13068934573E+00  0.19322690986E-01 0.  0.
         14    1    1    2    0    0  0.14141253526E-01  0.90955461064E-02 -0.16992229378E-01  0.23904808502E-01  0.00000000000E+00 0. -1.
     999901    1    3    3    0    0 -0.73544234914E-01  0.10520767388E+00  0.63904180410E-02  0.88933584577E+00  0.88000000000E+00 0.  1.
        -11    1    4    4    0    0  0.59216438743E-02 -0.27955865782E-01  0.12637734335E-03  0.28580997009E-01  0.51100000000E-03 0. -1.
         11    1    4    4    0    0  0.53481337513E-01 -0.86347354199E-01  0.10475433993E-01  0.10210834872E+00  0.51100000000E-03 0.  1.
</event>
<event>
 8    1  0.1083484E+005  0.1043930E+01  0.7957747E-01            NaN
         13   -1    0    0    0    0  0.00000000000E+00  0.00000000000E+00  0.74505805969E-08  0.10566000000E+00  0.10566000000E+00 0. -1.
     999900   -1    0    0    0    0 -0.00000000000E+00 -0.00000000000E+00 -0.74505805969E-08  0.93827000000E+00  0.93827000000E+00 0.  1.
     999902    2    1    2    0    0  0.54634994547E-02 -0.15061910784E-01 -0.17720583783E-01  0.10200400424E+01  0.10197602454E+01 0.  0.
     999903    2    3    3    0    0 -0.32446642801E-01  0.12114244061E+00  0.17574603758E-01  0.12805654792E+00  0.19008872211E-01 0.  0.
         14    1    1    2    0    0 -0.54634994547E-02  0.15061910784E-01  0.17720583783E-01  0.23889957563E-01  0.00000000000E+00 0. -1.
     999901    1    3    3    0    0  0.37910142255E-01 -0.13620435139E+00 -0.35295187540E-01  0.89198349452E+00  0.88000000000E+00 0.  1.
        -11    1    4    4    0    0 -0.18457670523E-01  0.80314968116E-01  0.20086966553E-01  0.84822915836E-01  0.51100000000E-03 0.  1.
         11    1    4    4    0    0 -0.13988972277E-01  0.40827472493E-01 -0.25123627953E-02  0.43233632086E-01  0.51100000000E-03 0. -1.
</event>
<event>
 8    1  0.1083484E+005  0.1043930E+01  0.7957747E-01            NaN
         13   -1    0    0    0    0  0.00000000000E+00  0.00000000000E+00  0.74505805969E-08  0.10566000000E+00  0.10566000000E+00 0.  1.
     999900   -1    0    0    0    0 -0.00000000000E+00 -0.00000000000E+00 -0.74505805969E-08  0.93827000000E+00  0.93827000000E+00 0.  1.
     999902    2    1    2    0    0 -0.10423081954E-01 -0.18304755719E-01 -0.11211791807E-01  0.10200677077E+01  0.10197885660E+01 0.  0.
     999903    2    3    3    0    0  0.31716095312E-01 -0.10293157585E+00  0.72048525265E-01  0.13109656678E+00  0.19862019554E-01 0.  0.
         14    1    1    2    0    0  0.10423081954E-01  0.18304755719E-01  0.11211791807E-01  0.23862292322E-01  0.00000000000E+00 0.  1.
     999901    1    3    3    0    0 -0.42139177266E-01  0.84626820130E-01 -0.83260317071E-01  0.88897114090E+00  0.88000000000E+00 0.  1.
        -11    1    4    4    0    0  0.11190234848E-01 -0.27170225147E-01  0.10012969902E-01  0.31047756404E-01  0.51100000000E-03 0. -1.
         11    1    4    4    0    0  0.20525860464E-01 -0.75761350702E-01  0.62035555362E-01  0.10004881038E+00  0.51100000000E-03 0.  1.
</event>
<event>
 8    1  0.1083484E+005  0.1043930E+01  0.7957747E-01            NaN
         13   -1    0    0    0    0  0.00000000000E+00  0.00000000000E+00  0.74505805969E-08  0.10566000000E+00  0.10566000000E+00 0.  1.
     999900   -1    0    0    0    0 -0.00000000000E+00 -0.00000000000E+00 -0.74505805969E-08  0.93827000000E+00  0.93827000000E+00 0.  1.
     999902    2    1    2    0    0  0.17526525963E-01 -0.10230661866E-01  0.11366141578E-01  0.10206698468E+01  0.10204047733E+01 0.  0.
     999903    2    3    3    0    0  0.12393002098E+00  0.25415801631E-01 -0.33542403132E-01  0.13240797574E+00  0.20054080878E-01 0.  0.
         14    1    1    2    0    0 -0.17526525963E-01  0.10230661866E-01 -0.11366141578E-01  0.23260153243E-01  0.00000000000E+00 0.  1.
     999901    1    3    3    0    0 -0.10640349502E+00 -0.35646463497E-01  0.44908544709E-01  0.88826187102E+00  0.88000000000E+00 0. -1.
        -11    1    4    4    0    0  0.98396561049E-01  0.17949357047E-01 -0.34440937127E-01  0.10578516870E+00  0.51100000000E-03 0.  1.
         11    1    4    4    0    0  0.25533459929E-01  0.74664445837E-02  0.89853399542E-03  0.26622807046E-01  0.51100000000E-03 0. -1.
</event>
<event>
 8    1  0.1083484E+005  0.1043930E+01  0.7957747E-01            NaN
         13   -1    0    0    0    0  0.00000000000E+00  0.00000000000E+00  0.74505805969E-08  0.10566000000E+00  0.10566000000E+00 0. -1.
     999900   -1    0    0    0    0 -0.00000000000E+00 -0.00000000000E+00 -0.74505805969E-08  0.93827000000E+00  0.93827000000E+00 0. -1.
     999902    2    1    2    0    0 -0.20586008483E-01  0.97575589392E-02 -0.37569345826E-02  0.10208408627E+01  0.10205797170E+01 0.  0.
     999903    2    3    3    0    0 -0.84575187698E-01  0.57225332825E-01  0.82810378741E-01  0.13301109058E+00  0.20166563861E-01 0.  0.
         14    1    1    2    0    0  0.20586008483E-01 -0.97575589392E-02  0.37569345826E-02  0.23089137254E-01  0.00000000000E+00 0. -1.
     999901    1    3    3    0    0  0.63989179215E-01 -0.47467773886E-01 -0.86567313324E-01  0.88782977217E+00  0.88000000000E+00 0. -1.
        -11    1    4    4    0    0 -0.40634208279E-01  0.15507168414E-01  0.34565235374E-01  0.55557427696E-01  0.51100000000E-03 0. -1.
         11    1    4    4    0    0 -0.43940979419E-01  0.41718164411E-01  0.48245143367E-01  0.77453662880E-01  0.51100000000E-03 0.  1.
</event>
<event>
 8    1  0.1083484E+005  0.1043930E+01  0.7957747E-01            NaN
         13   -1    0    0    0    0  0.00000000000E+00  0.00000000000E+00  0.74505805969E-08  0.10566000000E+00  0.10566000000E+00 0.  1.
     999900   -1    0    0    0    0 -0.00000000000E+00 -0.00000000000E+00 -0.74505805969E-08  0.93827000000E+00  0.93827000000E+00 0.  1.
     999902    2    1    2    0    0 -0.22802869690E-01 -0.41804839750E-02 -0.83464776211E-02  0.10192903774E+01  0.10189925233E+01 0.  0.
     999903    2    3    3    0    0 -0.82716875180E-01 -0.45662780349E-01 -0.90110137855E-01  0.13250079409E+00  0.22571055380E-01 0.  0.
         14    1    1    2    0    0  0.22802869690E-01  0.41804839750E-02  0.83464776211E-02  0.24639622583E-01  0.00000000000E+00 0.  1.
     999901    1    3    3    0    0  0.59914005490E-01  0.41482296374E-01  0.81763660234E-01  0.88678958333E+00  0.88000000000E+00 0. -1.
        -11    1    4    4    0    0 -0.11768405499E-01 -0.35128439003E-02 -0.23210970311E-01  0.26264913935E-01  0.51100000000E-03 0.  1.
         11    1    4    4    0    0 -0.70948469681E-01 -0.42149936448E-01 -0.66899167544E-01  0.10623588015E+00  0.51100000000E-03 0. -1.
</event>
<event>
 8    1  0.1083484E+005  0.1043930E+01  0.7957747E-01            NaN
         13   -1    0    0    0    0  0.00000000000E+00  0.00000000000E+00  0.74505805969E-08  0.10566000000E+00  0.10566000000E+00 0. -1.
     999900   -1    0    0    0    0 -0.00000000000E+00 -0.00000000000E+00 -0.74505805969E-08  0.93827000000E+00  0.93827000000E+00 0. -1.
     999902    2    1    2    0    0  0.69756541518E-02 -0.89675942925E-02  0.21016533952E-01  0.10200391608E+01  0.10197593429E+01 0.  0.
     999903    2    3    3    0    0  0.11437640183E+00  0.59855118505E-01  0.49800830202E-04  0.13059490156E+00  0.19759284592E-01 0.  0.
         14    1    1    2    0    0 -0.69756541518E-02  0.89675942925E-02 -0.21016533952E-01  0.23890839198E-01  0.00000000000E+00 0.  1.
     999901    1    3    3    0    0 -0.10740074768E+00 -0.68822712798E-01  0.20966733121E-01  0.88944425924E+00  0.88000000000E+00 0.  1.
        -11    1    4    4    0    0  0.44830467728E-01  0.28533260192E-01 -0.85857380677E-02  0.53832088879E-01  0.51100000000E-03 0. -1.
         11    1    4    4    0    0  0.69545934099E-01  0.31321858313E-01  0.86355388979E-02  0.76762812683E-01  0.51100000000E-03 0.  1.
</event>
<event>
 8    1  0.1083484E+005  0.1043930E+01  0.7957747E-01            NaN
         13   -1    0    0    0    0  0.00000000000E+00  0.00000000000E+00  0.74505805969E-08  0.10566000000E+00  0.10566000000E+00 0.  1.
     999900   -1    0    0    0    0 -0.00000000000E+00 -0.00000000000E+00 -0.74505805969E-08  0.93827000000E+00  0.93827000000E+00 0. -1.
     999902    2    1    2    0    0 -0.51918071291E-02 -0.19550039548E-01  0.13479189351E-01  0.10196226461E+01  0.10193328666E+01 0.  0.
     999903    2    3    3    0    0  0.63516475389E-01  0.58192046879E-01 -0.91357646152E-01  0.12734722777E+00  0.21223570517E-01 0.  0.
         14    1    1    2    0    0  0.51918071291E-02  0.19550039548E-01 -0.13479189351E-01  0.24307353890E-01  0.00000000000E+00 0.  1.
     999901    1    3    3    0    0 -0.68708282518E-01 -0.77742086426E-01  0.10483683550E+00  0.89227541834E+00  0.88000000000E+00 0.  1.
        -11    1    4    4    0    0  0.37134996646E-01  0.21370882108E-01 -0.51636908705E-01  0.67099583006E-01  0.51100000000E-03 0.  1.
         11    1    4    4    0    0  0.26381478743E-01  0.36821164771E-01 -0.39720737447E-01  0.60247644768E-01  0.51100000000E-03 0. -1.
</event>
<event>
 8    1  0.1083484E+005  0.1043930E+01  0.7957747E-01            NaN
         13   -1    0    0    0    0  0.00000000000E+00  0.00000000000E+00  0.74505805969E-08  0.10566000000E+00  0.10566000000E+00 0.  1.
     999900   -1    0    0    0    0 -0.00000000000E+00 -0.00000000000E+00 -0.74505805969E-08  0.93827000000E+00  0.93827000000E+00 0.  1.
     999902    2    1    2    0    0  0.72903941297E-02  0.64934641797E-02 -0.22128377999E-01  0.10197436395E+01  0.10194567721E+01 0.  0.
     999903    2    3    3    0    0  0.10731053140E+00  0.72898848898E-01 -0.43511917529E-02  0.13141389700E+00  0.20515533999E-01 0.  0.
         14    1    1    2    0    0 -0.72903941297E-02 -0.64934641797E-02  0.22128377999E-01  0.24186360547E-01  0.00000000000E+00 0.  1.
     999901    1    3    3    0    0 -0.10002013727E+00 -0.66405384718E-01 -0.17777186246E-01  0.88832974245E+00  0.88000000000E+00 0.  1.
        -11    1    4    4    0    0  0.52761305043E-01  0.36477111657E-01  0.80846380898E-02  0.64652590657E-01  0.51100000000E-03 0. -1.
         11    1    4    4    0    0  0.54549226355E-01  0.36421737241E-01 -0.12435829843E-01  0.66761306341E-01  0.51100000000E-03 0.  1.
</event>
<event>
 8    1  0.1083484E+005  0.1043930E+01  0.7957747E-01            NaN
         13   -1    0    0    0    0  0.00000000000E+00  0.00000000000E+00  0.74505805969E-08  0.10566000000E+00  0.10566000000E+00 0. -1.
     999900   -1    0    0    0    0 -0.00000000000E+00 -0.00000000000E+00 -0.74505805969E-08  0.93827000000E+00  0.93827000000E+00 0.  1.
     999902    2    1    2    0    0 -0.71769180122E-02  0.23003726532E-01 -0.13462996749E-02  0.10197951267E+01  0.10195094940E+01 0.  0.
     999903    2    3    3    0    0  0.98368713728E-01  0.21098861638E-01  0.79419742918E-01  0.12981385581E+00  0.20556648389E-01 0.  0.
         14    1    1    2    0    0  0.71769180122E-02 -0.23003726532E-01  0.13462996749E-02  0.24134873302E-01  0.00000000000E+00 0. -1.
     999901    1    3    3    0    0 -0.10554563174E+00  0.19048648936E-02 -0.80766042593E-01  0.88998127088E+00  0.88000000000E+00 0.  1.
        -11    1    4    4    0    0  0.11939697116E-01  0.20169513375E-02  0.21284093434E-02  0.12305108990E-01  0.51100000000E-03 0.  1.
         11    1    4    4    0    0  0.86429016612E-01  0.19081910300E-01  0.77291333574E-01  0.11750874682E+00  0.51100000000E-03 0. -1.
</event>
<event>
 8    1  0.1083484E+005  0.1043930E+01  0.7957747E-01            NaN
         13   -1    0    0    0    0  0.00000000000E+00  0.00000000000E+00  0.74505805969E-08  0.10566000000E+00  0.10566000000E+00 0. -1.
     999900   -1    0    0    0    0 -0.00000000000E+00 -0.00000000000E+00 -0.74505805969E-08  0.93827000000E+00  0.93827000000E+00 0.  1.
     999902    2    1    2    0    0  0.50876074841E-02  0.18522917975E-01 -0.13943085737E-01  0.10201941225E+01  0.10199179652E+01 0.  0.
     999903    2    3    3    0    0  0.85950678473E-01  0.59202448582E-01  0.76437235469E-01  0.13094597777E+00  0.20291601243E-01 0.  0.
         14    1    1    2    0    0 -0.50876074841E-02 -0.18522917975E-01  0.13943085737E-01  0.23735877487E-01  0.00000000000E+00 0.  1.
     999901    1    3    3    0    0 -0.80863070988E-01 -0.40679530607E-01 -0.90380321206E-01  0.88924814474E+00  0.88000000000E+00 0.  1.
        -11    1    4    4    0    0  0.57378052953E-01  0.50474401383E-01  0.53807040258E-01  0.93463173806E-01  0.51100000000E-03 0. -1.
         11    1    4    4    0    0  0.28572625519E-01  0.87280471996E-02  0.22630195211E-01  0.37482803968E-01  0.51100000000E-03 0.  1.
</event>
<event>
 8    1  0.1083484E+005  0.1043930E+01  0.7957747E-01            NaN
         13   -1    0    0    0    0  0.00000000000E+00  0.00000000000E+00  0.74505805969E-08  0.10566000000E+00  0.10566000000E+00 0.  1.
     999900   -1    0    0    0    0 -0.00000000000E+00 -0.00000000000E+00 -0.74505805969E-08  0.93827000000E+00  0.93827000000E+00 0.  1.
     999902    2    1    2    0    0  0.12492373504E-01 -0.13767950911E-01 -0.14162182596E-01  0.10205594355E+01  0.10202918103E+01 0.  0.
     999903    2    3    3    0    0  0.50301353107E-01  0.72339270925E-01  0.92665145964E-01  0.12912460856E+00  0.17976067916E-01 0.  0.
         14    1    1    2    0    0 -0.12492373504E-01  0.13767950911E-01  0.14162182596E-01  0.23370564476E-01  0.00000000000E+00 0. -1.
     999901    1    3    3    0    0 -0.37808979603E-01 -0.86107221836E-01 -0.10682732856E+00  0.89143482696E+00  0.88000000000E+00 0. -1.
        -11    1    4    4    0    0  0.29095993012E-01  0.38803535020E-01  0.38211832778E-01  0.61747035756E-01  0.51100000000E-03 0.  1.
         11    1    4    4    0    0  0.21205360095E-01  0.33535735905E-01  0.54453313186E-01  0.67377572807E-01  0.51100000000E-03 0. -1.
</event>
<event>
 8    1  0.1083484E+005  0.1043930E+01  0.7957747E-01            NaN
         13   -1    0    0    0    0  0.00000000000E+00  0.00000000000E+00  0.74505805969E-08  0.10566000000E+00  0.10566000000E+00 0.  1.
     999900   -1    0    0    0    0 -0.00000000000E+00 -0.00000000000E+00 -0.74505805969E-08  0.93827000000E+00  0.93827000000E+00 0. -1.
     999902    2    1    2    0    0 -0.13526001753E-01 -0.10113137226E-01 -0.15703116684E-01  0.10208688608E+01  0.10206083552E+01 0.  0.
     999903    2    3    3    0    0  0.38883927700E-01  0.93163410947E-01  0.76060010648E-01  0.12854979362E+00  0.23421000117E-01 0.  0.
         14    1    1    2    0    0  0.13526001753E-01  0.10113137226E-01  0.15703116684E-01  0.23061139208E-01  0.00000000000E+00 0.  1.
     999901    1    3    3    0    0 -0.52409929452E-01 -0.10327654817E+00 -0.91763127332E-01  0.89231906718E+00  0.88000000000E+00 0. -1.
        -11    1    4    4    0    0  0.21054992721E-01  0.47285600899E-01  0.53367594521E-01  0.74347844870E-01  0.51100000000E-03 0. -1.
         11    1    4    4    0    0  0.17828934978E-01  0.45877810048E-01  0.22692416127E-01  0.54201948746E-01  0.51100000000E-03 0.  1.
</event>
<event>
 8    1  0.1083484E+005  0.1043930E+01  0.7957747E-01            NaN
         13   -1    0    0    0    0  0.00000000000E+00  0.00000000000E+00  0.74505805969E-08  0.10566000000E+00  0.10566000000E+00 0. -1.
     999900   -1    0    0    0    0 -0.00000000000E+00 -0.00000000000E+00 -0.74505805969E-08  0.93827000000E+00  0.93827000000E+00 0.  1.
     999902    2    1    2    0    0 -0.80362134551E-02 -0.11753308424E-01  0.16980820015E-01  0.10217699180E+01  0.10215295865E+01 0.  0.
     999903    2    3    3    0    0 -0.84223496723E-02 -0.69985465363E-01  0.11287478695E+00  0.13464716094E+00  0.20499733770E-01 0.  0.
         14    1    1    2    0    0  0.80362134551E-02  0.11753308424E-01 -0.16980820015E-01  0.22160081994E-01  0.00000000000E+00 0.  1.
     999901    1    3    3    0    0  0.38613621723E-03  0.58232156938E-01 -0.95893966937E-01  0.88712275706E+00  0.88000000000E+00 0.  1.
        -11    1    4    4    0    0 -0.46123818998E-02 -0.37755871555E-01  0.41836871550E-01  0.56545246005E-01  0.51100000000E-03 0.  1.
         11    1    4    4    0    0 -0.38099677726E-02 -0.32229593808E-01  0.71037915401E-01  0.78101914939E-01  0.51100000000E-03 0. -1.
</event>
<event>
 8    1  0.1083484E+005  0.1043930E+01  0.7957747E-01            NaN
         13   -1    0    0    0    0  0.00000000000E+00  0.00000000000E+00  0.74505805969E-08  0.10566000000E+00  0.10566000000E+00 0. -1.
     999900   -1    0    0    0    0 -0.00000000000E+00 -0.00000000000E+00 -0.74505805969E-08  0.93827000000E+00  0.93827000000E+00 0.  1.
     999902    2    1    2    0    0 -0.14645160974E-01  0.71363733780E-02 -0.16986374744E-01  0.10203939534E+01  0.10201224802E+01 0.  0.
     999903    2    3    3    0    0  0.97827463433E-01 -0.79005924282E-01  0.16283710680E-01  0.12844244947E+00  0.20497680828E-01 0.  0.
         14    1    1    2    0    0  0.14645160974E-01 -0.71363733780E-02  0.16986374744E-01  0.23536046650E-01  0.00000000000E+00 0.  1.
     999901    1    3    3    0    0 -0.11247262441E+00  0.86142297660E-01 -0.33270085424E-01  0.89195150388E+00  0.88000000000E+00 0.  1.
        -11    1    4    4    0    0  0.43694558170E-01 -0.23118683939E-01  0.31730282775E-02  0.49538037811E-01  0.51100000000E-03 0. -1.
         11    1    4    4    0    0  0.54132905263E-01 -0.55887240343E-01  0.13110682403E-01  0.78904411660E-01  0.51100000000E-03 0.  1.
</event>
<event>
 8    1  0.1083484E+005  0.1043930E+01  0.7957747E-01            NaN
         13   -1    0    0    0    0  0.00000000000E+00  0.00000000000E+00  0.74505805969E-08  0.10566000000E+00  0.10566000000E+00 0. -1.
     999900   -1    0    0    0    0 -0.00000000000E+00 -0.00000000000E+00 -0.74505805969E-08  0.93827000000E+00  0.93827000000E+00 0.  1.
     999902    2    1    2    0    0  0.52151630934E-02  0.21019241426E-01  0.53193434664E-02  0.10216297343E+01  0.10213863187E+01 0.  0.
     999903    2    3    3    0    0 -0.33999520412E-01  0.91794190016E-01 -0.87506145126E-01  0.13305590162E+00  0.21550100075E-01 0.  0.
         14    1    1    2    0    0 -0.52151630934E-02 -0.21019241426E-01 -0.53193434664E-02  0.22300265719E-01  0.00000000000E+00 0. -1.
     999901    1    3    3    0    0  0.39214683505E-01 -0.70774948590E-01  0.92825488593E-01  0.88857383266E+00  0.88000000000E+00 0.  1.
        -11    1    4    4    0    0 -0.26233266599E-01  0.74347847747E-01 -0.80581062705E-01  0.11273577750E+00  0.51100000000E-03 0. -1.
         11    1    4    4    0    0 -0.77662538129E-02  0.17446342269E-01 -0.69250824218E-02  0.20320124124E-01  0.51100000000E-03 0.  1.
</event>
<event>
 8    1  0.1083484E+005  0.1043930E+01  0.7957747E-01            NaN
         13   -1    0    0    0    0  0.00000000000E+00  0.00000000000E+00  0.74505805969E-08  0.10566000000E+00  0.10566000000E+00 0. -1.
     999900   -1    0    0    0    0 -0.00000000000E+00 -0.00000000000E+00 -0.74505805969E-08  0.93827000000E+00  0.93827000000E+00 0. -1.
     999902    2    1    2    0    0 -0.20900785787E-01 -0.83997910996E-02  0.77027023837E-02  0.10201238882E+01  0.10198460748E+01 0.  0.
     999903    2    3    3    0    0 -0.64320786738E-01 -0.36075197068E-01  0.10858044407E+00  0.13286544591E+00  0.20613840787E-01 0.  0.
         14    1    1    2    0    0  0.20900785787E-01  0.83997910996E-02 -0.77027023837E-02  0.23806111842E-01  0.00000000000E+00 0.  1.
     999901    1    3    3    0    0  0.43420000951E-01  0.27675405968E-01 -0.10087774168E+00  0.88725844225E+00  0.88000000000E+00 0. -1.
        -11    1    4    4    0    0 -0.51854874752E-01 -0.31065798232E-01  0.10020062742E+00  0.11702324005E+00  0.51100000000E-03 0.  1.
         11    1    4    4    0    0 -0.12465911986E-01 -0.50093988362E-02  0.83798166447E-02  0.15842205855E-01  0.51100000000E-03 0. -1.
</event>
<event>
 8    1  0.1083484E+005  0.1043930E+01  0.7957747E-01            NaN
         13   -1    0    0    0    0  0.00000000000E+00  0.00000000000E+00  0.74505805969E-08  0.10566000000E+00  0.10566000000E+00 0.  1.
     999900   -1    0    0    0    0 -0.00000000000E+00 -0.00000000000E+00 -0.74505805969E-08  0.93827000000E+00  0.93827000000E+00 0.  1.
     999902    2    1    2    0    0 -0.12398684999E-01 -0.95322561149E-02 -0.17237551817E-01  0.10206550244E+01  0.10203896091E+01 0.  0.
     999903    2    3    3    0    0  0.11426771336E+00 -0.15109352485E-01 -0.57830528380E-01  0.13064195134E+00  0.20917614340E-01 0.  0.
         14    1    1    2    0    0  0.12398684999E-01  0.95322561149E-02  0.17237551817E-01  0.23274975596E-01  0.00000000000E+00 0. -1.
     999901    1    3    3    0    0 -0.12666639835E+00  0.55770963704E-02  0.40592976563E-01  0.89001307306E+00  0.88000000000E+00 0.  1.
        -11    1    4    4    0    0  0.39470109357E-01 -0.15039639469E-01 -0.18240746175E-01  0.46011587997E-01  0.51100000000E-03 0.  1.
         11    1    4    4    0    0  0.74797603998E-01 -0.69713016727E-04 -0.39589782205E-01  0.84630363344E-01  0.51100000000E-03 0. -1.
</event>
<event>
 8    1  0.1083484E+005  0.1043930E+01  0.7957747E-01            NaN
         13   -1    0    0    0    0  0.00000000000E+00  0.00000000000E+00  0.74505805969E-08  0.10566000000E+00  0.10566000000E+00 0.  1.
     999900   -1    0    0    0    0 -0.00000000000E+00 -0.00000000000E+00 -0.74505805969E-08  0.93827000000E+00  0.93827000000E+00 0. -1.
     999902    2    1    2    0    0 -0.11526993495E-01 -0.40056551756E-02  0.20188091870E-01  0.10203402585E+01  0.10200675307E+01 0.  0.
     999903    2    3    3    0    0 -0.47174106609E-01  0.42579160856E-02 -0.11829108578E+00  0.12875992786E+00  0.18515179285E-01 0.  0.
         14    1    1    2    0    0  0.11526993495E-01  0.40056551756E-02 -0.20188091870E-01  0.23589741537E-01  0.00000000000E+00 0. -1.
     999901    1    3    3    0    0  0.35647113113E-01 -0.82635712612E-02  0.13847917765E+00  0.89158033061E+00  0.88000000000E+00 0.  1.
        -11    1    4    4    0    0 -0.15897352652E-01  0.87459163031E-02 -0.30980421900E-01  0.35906330019E-01  0.51100000000E-03 0. -1.
         11    1    4    4    0    0 -0.31276753957E-01 -0.44880002175E-02 -0.87310663875E-01  0.92853597838E-01  0.51100000000E-03 0.  1.
</event>
<event>
 8    1  0.1083484E+005  0.1043930E+01  0.7957747E-01            NaN
         13   -1    0    0    0    0  0.00000000000E+00  0.00000000000E+00  0.74505805969E-08  0.10566000000E+00  0.10566000000E+00 0.  1.
     999900   -1    0    0    0    0 -0.00000000000E+00 -0.00000000000E+00 -0.74505805969E-08  0.93827000000E+00  0.93827000000E+00 0. -1.
     999902    2    1    2    0    0  0.12108962956E-01 -0.10166921877E-01 -0.18509958164E-01  0.10195863800E+01  0.10192957247E+01 0.  0.
     999903    2    3    3    0    0  0.50304191799E-01 -0.11826947901E+00 -0.23355245512E-01  0.13213580943E+00  0.19905357621E-01 0.  0.
         14    1    1    2    0    0 -0.12108962956E-01  0.10166921877E-01  0.18509958164E-01  0.24343620017E-01  0.00000000000E+00 0.  1.
     999901    1    3    3    0    0 -0.38195228844E-01  0.10810255714E+00  0.48452873478E-02  0.88745057055E+00  0.88000000000E+00 0.  1.
        -11    1    4    4    0    0  0.35845275517E-01 -0.68446401045E-01 -0.21584673598E-01  0.80224390607E-01  0.51100000000E-03 0.  1.
         11    1    4    4    0    0  0.14458916282E-01 -0.49823077968E-01 -0.17705719138E-02  0.51911418823E-01  0.51100000000E-03 0. -1.
</event>
<event>
 8    1  0.1083484E+005  0.1043930E+01  0.7957747E-01            NaN
         13   -1    0    0    0    0  0.00000000000E+00  0.00000000000E+00  0.74505805969E-08  0.10566000000E+00  0.10566000000E+00 0. -1.
     999900   -1    0    0    0    0 -0.00000000000E+00 -0.00000000000E+00 -0.74505805969E-08  0.93827000000E+00  0.93827000000E+00 0. -1.
     999902    2    1    2    0    0  0.94109289016E-02 -0.20036273668E-01  0.98443844443E-02  0.10197033669E+01  0.10194155319E+01 0.  0.
     999903    2    3    3    0    0 -0.78843998533E-01  0.35867199646E-01  0.94652818664E-01  0.12947496867E+00  0.17371796534E-01 0.  0.
         14    1    1    2    0    0 -0.94109289016E-02  0.20036273668E-01 -0.98443844443E-02  0.24226633079E-01  0.00000000000E+00 0.  1.
     999901    1    3    3    0    0  0.88254927434E-01 -0.55903473314E-01 -0.84808434220E-01  0.89022839826E+00  0.88000000000E+00 0. -1.
        -11    1    4    4    0    0 -0.46074059132E-01  0.30131179656E-01  0.57748058736E-01  0.79786003291E-01  0.51100000000E-03 0. -1.
         11    1    4    4    0    0 -0.32769939400E-01  0.57360199902E-02  0.36904759929E-01  0.49688965375E-01  0.51100000000E-03 0.  1.
</event>
<event>
 8    1  0.1083484E+005  0.1043930E+01  0.7957747E-01            NaN
         13   -1    0    0    0    0  0.00000000000E+00  0.00000000000E+00  0.74505805969E-08  0.10566000000E+00  0.10566000000E+00 0. -1.
     999900   -1    0    0    0    0 -0.00000000000E+00 -0.00000000000E+00 -0.74505805969E-08  0.93827000000E+00  0.93827000000E+00 0.  1.
     999902    2    1    2    0    0  0.16182316622E-01  0.17723860817E-01 -0.15493087773E-01  0.10153636145E+01  0.10149616895E+01 0.  0.
     999903    2    3    3    0    0  0.11618270619E+00  0.50695518078E-01  0.54540561453E-02  0.12883894424E+00  0.22389061013E-01 0.  0.
         14    1    1    2    0    0 -0.16182316622E-01 -0.17723860817E-01  0.15493087773E-01  0.28566385530E-01  0.00000000000E+00 0. -1.
     999901    1    3    3    0    0 -0.10000038957E+00 -0.32971657261E-01 -0.20947143918E-01  0.88652467023E+00  0.88000000000E+00 0.  1.
        -11    1    4    4    0    0  0.24419964515E-01  0.15188083152E-01 -0.71578670809E-02  0.29639647753E-01  0.51100000000E-03 0. -1.
         11    1    4    4    0    0  0.91762741672E-01  0.35507434926E-01  0.12611923226E-01  0.99199296483E-01  0.51100000000E-03 0.  1.
</event>
<event>
 8    1  0.1083484E+005  0.1043930E+01  0.7957747E-01            NaN
         13   -1    0    0    0    0  0.00000000000E+00  0.00000000000E+00  0.74505805969E-08  0.10566000000E+00  0.10566000000E+00 0. -1.
     999900   -1    0    0    0    0 -0.00000000000E+00 -0.00000000000E+00 -0.74505805969E-08  0.93827000000E+00  0.93827000000E+00 0. -1.
     999902    2    1    2    0    0 -0.33477266189E-03  0.70255460725E-02 -0.20665707885E-01  0.10221001614E+01  0.10218670159E+01 0.  0.
     999903    2    3    3    0    0 -0.61389646935E-01 -0.11356461764E+00 -0.17008481653E-01  0.13177265956E+00  0.20227066730E-01 0.  0.
         14    1    1    2    0    0  0.33477266189E-03 -0.70255460725E-02  0.20665707885E-01  0.21829838587E-01  0.00000000000E+00 0.  1.
     999901    1    3    3    0    0  0.61054874273E-01  0.12059016371E+00 -0.36572262322E-02  0.89032750186E+00  0.88000000000E+00 0.  1.
        -11    1    4    4    0    0 -0.40190651668E-01 -0.64605921487E-01 -0.10954624229E-02  0.76096483044E-01  0.51100000000E-03 0.  1.
         11    1    4    4    0    0 -0.21198995267E-01 -0.48958696151E-01 -0.15913019230E-01  0.55676176514E-01  0.51100000000E-03 0. -1.
</event>
<event>
 8    1  0.1083484E+005  0.1043930E+01  0.7957747E-01            NaN
         13   -1    0    0    0    0  0.00000000000E+00  0.00000000000E+00  0.74505805969E-08  0.10566000000E+00  0.10566000000E+00 0.  1.
     999900   -1    0    0    0    0 -0.00000000000E+00 -0.00000000000E+00 -0.74505805969E-08  0.93827000000E+00  0.93827000000E+00 0.  1.
     999902    2    1    2    0    0 -0.15742147704E-02 -0.23257889006E-01  0.12735068547E-02  0.10205841359E+01  0.10203170826E+01 0.  0.
     999903    2    3    3    0    0 -0.87881146417E-02 -0.11087145918E+00 -0.70534044979E-01  0.13329359576E+00  0.20552852606E-01 0.  0.
         14    1    1    2    0    0  0.15742147704E-02  0.23257889006E-01 -0.12735068547E-02  0.23345864149E-01  0.00000000000E+00 0.  1.
     999901    1    3    3    0    0  0.72138998713E-02  0.87613570176E-01  0.71807551834E-01  0.88729054009E+00  0.88000000000E+00 0. -1.
        -11    1    4    4    0    0 -0.45304826533E-02 -0.68841367553E-01 -0.31767381663E-01  0.75954504925E-01  0.51100000000E-03 0. -1.
         11    1    4    4    0    0 -0.42576319884E-02 -0.42030091628E-01 -0.38766663317E-01  0.57339090838E-01  0.51100000000E-03 0.  1.
</event>
<event>
 8    1  0.1083484E+005  0.1043930E+01  0.7957747E-01            NaN
         13   -1    0    0    0    0  0.00000000000E+00  0.00000000000E+00  0.74505805969E-08  0.10566000000E+00  0.10566000000E+00 0. -1.
     999900   -1    0    0    0    0 -0.00000000000E+00 -0.00000000000E+00 -0.74505805969E-08  0.93827000000E+00  0.93827000000E+00 0.  1.
     999902    2    1    2    0    0  0.17410206851E-01 -0.61331660305E-02  0.15897450702E-01  0.10195689662E+01  0.10192778899E+01 0.  0.
     999903    2    3    3    0    0  0.46349551443E-01 -0.26578147031E-01  0.11981067137E+00  0.13274686436E+00  0.20308968553E-01 0.  0.
         14    1    1    2    0    0 -0.17410206851E-01  0.61331660305E-02 -0.15897450702E-01  0.24361033783E-01  0.00000000000E+00 0.  1.
     999901    1    3    3    0    0 -0.28939344592E-01  0.20444981000E-01 -0.10391322067E+00  0.88682210186E+00  0.88000000000E+00 0.  1.
        -11    1    4    4    0    0  0.28568498407E-01 -0.18989599193E-01  0.52522665882E-01  0.62734803188E-01  0.51100000000E-03 0. -1.
         11    1    4    4    0    0  0.17781053036E-01 -0.75885478376E-02  0.67288005491E-01  0.70012061171E-01  0.51100000000E-03 0.  1.
</event>
<event>
 8    1  0.1083484E+005  0.1043930E+01  0.7957747E-01            NaN
         13   -1    0    0    0    0  0.00000000000E+00  0.00000000000E+00  0.74505805969E-08  0.10566000000E+00  0.10566000000E+00 0.  1.
     999900   -1    0    0    0    0 -0.00000000000E+00 -0.00000000000E+00 -0.74505805969E-08  0.93827000000E+00  0.93827000000E+00 0. -1.
     999902    2    1    2    0    0 -0.88330953065E-02 -0.20495548796E-01  0.10238892853E-01  0.10193754481E+01  0.10190796721E+01 0.  0.
     999903    2    3    3    0    0  0.58529434199E-01  0.97616331031E-01  0.54560038596E-01  0.12783044613E+00  0.20228257347E-01 0.  0.
         14    1    1    2    0    0  0.88330953065E-02  0.20495548796E-01 -0.10238892853E-01  0.24554551920E-01  0.00000000000E+00 0. -1.
     999901    1    3    3    0    0 -0.67362529506E-01 -0.11811187983E+00 -0.44321145743E-01  0.89154500195E+00  0.88000000000E+00 0. -1.
        -11    1    4    4    0    0  0.53723191083E-01  0.83036746686E-01  0.53473950537E-01  0.11243223322E+00  0.51100000000E-03 0. -1.
         11    1    4    4    0    0  0.48062431162E-02  0.14579584345E-01  0.10860880587E-02  0.15398212910E-01  0.51100000000E-03 0.  1.
</event>
<event>
 8    1  0.1083484E+005  0.1043930E+01  0.7957747E-01            NaN
         13   -1    0    0    0    0  0.00000000000E+00  0.00000000000E+00  0.74505805969E-08  0.10566000000E+00  0.10566000000E+00 0.  1.
     999900   -1    0    0    0    0 -0.00000000000E+00 -0.00000000000E+00 -0.74505805969E-08  0.93827000000E+00  0.93827000000E+00 0.  1.
     999902    2    1    2    0    0  0.20606715112E-01  0.94728234941E-02  0.60281810814E-02  0.10204627876E+01  0.10201929184E+01 0.  0.
     999903    2    3    3    0    0  0.11185789170E+00 -0.17261782316E-01  0.67303661130E-01  0.13322200804E+00  0.20203058236E-01 0.  0.
         14    1    1    2    0    0 -0.20606715112E-01 -0.94728234941E-02 -0.60281810814E-02  0.23467212442E-01  0.00000000000E+00 0.  1.
     999901    1    3    3    0    0 -0.91251176586E-01  0.26734605810E-01 -0.61275480049E-01  0.88724077951E+00  0.88000000000E+00 0. -1.
        -11    1    4    4    0    0  0.58293529018E-01  0.11556986330E-02  0.35354850050E-01  0.68188691935E-01  0.51100000000E-03 0.  1.
         11    1    4    4    0    0  0.53564362680E-01 -0.18417480949E-01  0.31948811081E-01  0.65033316110E-01  0.51100000000E-03 0. -1.
</event>
<event>
 8    1  0.1083484E+005  0.1043930E+01  0.7957747E-01            NaN
         13   -1    0    0    0    0  0.00000000000E+00  0.00000000000E+00  0.74505805969E-08  0.10566000000E+00  0.10566000000E+00 0. -1.
     999900   -1    0    0    0    0 -0.00000000000E+00 -0.00000000000E+00 -0.74505805969E-08  0.93827000000E+00  0.93827000000E+00 0. -1.
     999902    2    1    2    0    0  0.19749561812E-01  0.12627893042E-02  0.14055701940E-01  0.10196565045E+01  0.10193675414E+01 0.  0.
     999903    2    3    3    0    0 -0.91413970174E-01 -0.37177821390E-01 -0.77753975219E-01  0.12709612655E+00  0.19210423633E-01 0.  0.
         14    1    1    2    0    0 -0.19749561812E-01 -0.12627893042E-02 -0.14055701940E-01  0.24273495538E-01  0.00000000000E+00 0.  1.
     999901    1    3    3    0    0  0.11116353199E+00  0.38440610694E-01  0.91809677159E-01  0.89256037791E+00  0.88000000000E+00 0.  1.
        -11    1    4    4    0    0 -0.51783895414E-01 -0.14278394141E-01 -0.32806203285E-01  0.62944042279E-01  0.51100000000E-03 0. -1.
         11    1    4    4    0    0 -0.39630074759E-01 -0.22899427249E-01 -0.44947771934E-01  0.64152084273E-01  0.51100000000E-03 0.  1.
</event>
<event>
 8    1  0.1083484E+005  0.1043930E+01  0.7957747E-01            NaN
         13   -1    0    0    0    0  0.00000000000E+00  0.00000000000E+00  0.74505805969E-08  0.10566000000E+00  0.10566000000E+00 0.  1.
     999900   -1    0    0    0    0 -0.00000000000E+00 -0.00000000000E+00 -0.74505805969E-08  0.93827000000E+00  0.93827000000E+00 0.  1.
     999902    2    1    2    0    0 -0.23700009667E-01  0.72002328291E-02 -0.10201682307E-03  0.10191601752E+01  0.10188591260E+01 0.  0.
     999903    2    3    3    0    0  0.10147751790E+00  0.56200490244E-01 -0.47711729839E-01  0.12767987630E+00  0.23865454190E-01 0.  0.
         14    1    1    2    0    0  0.23700009667E-01 -0.72002328291E-02  0.10201682307E-03  0.24769824756E-01  0.00000000000E+00 0.  1.
     999901    1    3    3    0    0 -0.12517752757E+00 -0.49000257415E-01  0.47609713016E-01  0.89148029895E+00  0.88000000000E+00 0.  1.
        -11    1    4    4    0    0  0.44334084265E-01  0.16448902815E-01 -0.29457649155E-01  0.55714375579E-01  0.51100000000E-03 0.  1.
         11    1    4    4    0    0  0.57143433638E-01  0.39751587428E-01 -0.18254080684E-01  0.71965500718E-01  0.51100000000E-03 0. -1.
</event>
<event>
 8    1  0.1083484E+005  0.1043930E+01  0.7957747E-01            NaN
         13   -1    0    0    0    0  0.00000000000E+00  0.00000000000E+00  0.74505805969E-08  0.10566000000E+00  0.10566000000E+00 0.  1.
     999900   -1    0    0    0    0 -0.00000000000E+00 -0.00000000000E+00 -0.74505805969E-08  0.93827000000E+00  0.93827000000E+00 0. -1.
     999902    2    1    2    0    0 -0.22558136602E-01  0.25233538919E-02  0.58418562736E-02  0.10204914820E+01  0.10202222800E+01 0.  0.
     999903    2    3    3    0    0 -0.10137737838E+00 -0.58455516598E-01  0.60501280442E-01  0.13318175694E+00  0.19559017826E-01 0.  0.
         14    1    1    2    0    0  0.22558136602E-01 -0.25233538919E-02 -0.58418562736E-02  0.23438518011E-01  0.00000000000E+00 0.  1.
     999901    1    3    3    0    0  0.78819241777E-01  0.60978870490E-01 -0.54659424168E-01  0.88730972505E+00  0.88000000000E+00 0. -1.
        -11    1    4    4    0    0 -0.54660526127E-01 -0.27105389593E-01  0.21369680885E-01  0.64648276416E-01  0.51100000000E-03 0. -1.
         11    1    4    4    0    0 -0.46716852252E-01 -0.31350127004E-01  0.39131599558E-01  0.68533480522E-01  0.51100000000E-03 0.  1.
</event>
<event>
 8    1  0.1083484E+005  0.1043930E+01  0.7957747E-01            NaN
         13   -1    0    0    0    0  0.00000000000E+00  0.00000000000E+00  0.74505805969E-08  0.10566000000E+00  0.10566000000E+00 0.  1.
     999900   -1    0    0    0    0 -0.00000000000E+00 -0.00000000000E+00 -0.74505805969E-08  0.93827000000E+00  0.93827000000E+00 0.  1.
     999902    2    1    2    0    0  0.19709855245E-01 -0.10348624101E-01  0.88312801871E-02  0.10199808054E+01  0.10196996025E+01 0.  0.
     999903    2    3    3    0    0  0.13139995890E+00  0.13140528777E-02 -0.64737817917E-02  0.13271255831E+00  0.17407967972E-01 0.  0.
         14    1    1    2    0    0 -0.19709855245E-01  0.10348624101E-01 -0.88312801871E-02  0.23949194649E-01  0.00000000000E+00 0. -1.
     999901    1    3    3    0    0 -0.11169010365E+00 -0.11662676979E-01  0.15305061979E-01  0.88726824704E+00  0.88000000000E+00 0. -1.
        -11    1    4    4    0    0  0.60787668258E-01  0.64124950754E-02 -0.94439516401E-02  0.61852324523E-01  0.51100000000E-03 0.  1.
         11    1    4    4    0    0  0.70612290640E-01 -0.50984421977E-02  0.29701698484E-02  0.70860233786E-01  0.51100000000E-03 0. -1.
</event>
<event>
 8    1  0.1083484E+005  0.1043930E+01  0.7957747E-01            NaN
         13   -1    0    0    0    0  0.00000000000E+00  0.00000000000E+00  0.74505805969E-08  0.10566000000E+00  0.10566000000E+00 0.  1.
     999900   -1    0    0    0    0 -0.00000000000E+00 -0.00000000000E+00 -0.74505805969E-08  0.93827000000E+00  0.93827000000E+00 0.  1.
     999902    2    1    2    0    0 -0.22817438829E-01 -0.27864396239E-02  0.48783687550E-02  0.10204311013E+01  0.10201604943E+01 0.  0.
     999903    2    3    3    0    0 -0.51623334016E-01  0.89587175978E-01 -0.78237834927E-01  0.13123429077E+00  0.20259554439E-01 0.  0.
         14    1    1    2    0    0  0.22817438829E-01  0.27864396239E-02 -0.48783687550E-02  0.23498898744E-01  0.00000000000E+00 0.  1.
     999901    1    3    3    0    0  0.28805895188E-01 -0.92373615602E-01  0.83116203682E-01  0.88919681048E+00  0.88000000000E+00 0. -1.
        -11    1    4    4    0    0 -0.34913319827E-01  0.74779086306E-01 -0.56121714684E-01  0.99803605297E-01  0.51100000000E-03 0.  1.
         11    1    4    4    0    0 -0.16710014190E-01  0.14808089672E-01 -0.22116120243E-01  0.31430685477E-01  0.51100000000E-03 0. -1.
</event>
<event>
 8    1  0.1083484E+005  0.1043930E+01  0.7957747E-01            NaN
         13   -1    0    0    0    0  0.00000000000E+00  0.00000000000E+00  0.74505805969E-08  0.10566000000E+00  0.10566000000E+00 0. -1.
     999900   -1    0    0    0    0 -0.00000000000E+00 -0.00000000000E+00 -0.74505805969E-08  0.93827000000E+00  0.93827000000E+00 0.  1.
     999902    2    1    2    0    0 -0.82321187694E-02  0.87348002999E-02 -0.19303077849E-01  0.10211995506E+01  0.10209465455E+01 0.  0.
     999903    2    3    3    0    0  0.47440269971E-01 -0.66345563587E-01  0.97439357702E-01  0.12858245902E+00  0.19664875187E-01 0.  0.
         14    1    1    2    0    0  0.82321187694E-02 -0.87348002999E-02  0.19303077849E-01  0.22730449405E-01  0.00000000000E+00 0. -1.
     999901    1    3    3    0    0 -0.55672388740E-01  0.75080363887E-01 -0.11674243555E+00  0.89261709157E+00  0.88000000000E+00 0.  1.
        -11    1    4    4    0    0  0.71634796518E-02 -0.16629461841E-01  0.11565087677E-01  0.21491086893E-01  0.51100000000E-03 0.  1.
         11    1    4    4    0    0  0.40276790319E-01 -0.49716101746E-01  0.85874270025E-01  0.10709137213E+00  0.51100000000E-03 0. -1.
</event>
<event>
 8    1  0.1083484E+005  0.1043930E+01  0.7957747E-01            NaN
         13   -1    0    0    0    0  0.00000000000E+00  0.00000000000E+00  0.74505805969E-08  0.10566000000E+00  0.10566000000E+00 0. -1.
     999900   -1    0    0    0    0 -0.00000000000E+00 -0.00000000000E+00 -0.74505805969E-08  0.93827000000E+00  0.93827000000E+00 0. -1.
     999902    2    1    2    0    0 -0.83252039224E-02 -0.34019389690E-01 -0.88987598424E-02  0.10077939263E+01  0.10071458594E+01 0.  0.
     999903    2    3    3    0    0 -0.60112759138E-01  0.94072410149E-01 -0.27937100075E-01  0.11681024606E+00  0.20024731270E-01 0.  0.
         14    1    1    2    0    0  0.83252039224E-02  0.34019389690E-01  0.88987598424E-02  0.36136073693E-01  0.00000000000E+00 0. -1.
     999901    1    3    3    0    0  0.51787555216E-01 -0.12809179984E+00  0.19038340233E-01  0.89098368024E+00  0.88000000000E+00 0.  1.
        -11    1    4    4    0    0 -0.29722916851E-01  0.58009015079E-01 -0.24085180907E-01  0.69489960979E-01  0.51100000000E-03 0. -1.
         11    1    4    4    0    0 -0.30389842287E-01  0.36063395070E-01 -0.38519191684E-02  0.47320285085E-01  0.51100000000E-03 0.  1.
</event>
<event>
 8    1  0.1083484E+005  0.1043930E+01  0.7957747E-01            NaN
         13   -1    0    0    0    0  0.00000000000E+00  0.00000000000E+00  0.74505805969E-08  0.10566000000E+00  0.10566000000E+00 0.  1.
     999900   -1    0    0    0    0 -0.00000000000E+00 -0.00000000000E+00 -0.74505805969E-08  0.93827000000E+00  0.93827000000E+00 0.  1.
     999902    2    1    2    0    0 -0.15994770227E-01  0.95632711219E-02  0.14241239749E-01  0.10204757522E+01  0.10202061846E+01 0.  0.
     999903    2    3    3    0    0  0.76563867639E-01  0.98934497319E-01 -0.29420161677E-01  0.13004853145E+00  0.19925210968E-01 0.  0.
         14    1    1    2    0    0  0.15994770227E-01 -0.95632711219E-02 -0.14241239749E-01  0.23454247776E-01  0.00000000000E+00 0. -1.
     999901    1    3    3    0    0 -0.92558637866E-01 -0.89371226198E-01  0.43661401427E-01  0.89042722077E+00  0.88000000000E+00 0. -1.
        -11    1    4    4    0    0  0.22938664800E-01  0.44989792254E-01 -0.91044698428E-02  0.51316822213E-01  0.51100000000E-03 0.  1.
         11    1    4    4    0    0  0.53625202839E-01  0.53944705065E-01 -0.20315691835E-01  0.78731709240E-01  0.51100000000E-03 0. -1.
</event>
<event>
 8    1  0.1083484E+005  0.1043930E+01  0.7957747E-01            NaN
         13   -1    0    0    0    0  0.00000000000E+00  0.00000000000E+00  0.74505805969E-08  0.10566000000E+00  0.10566000000E+00 0. -1.
     999900   -1    0    0    0    0 -0.00000000000E+00 -0.00000000000E+00 -0.74505805969E-08  0.93827000000E+00  0.93827000000E+00 0.  1.
     999902    2    1    2    0    0  0.88467305122E-02 -0.21851739893E-01  0.50472267292E-02  0.10198211287E+01  0.10195361185E+01 0.  0.
     999903    2    3    3    0    0  0.96910966961E-01 -0.24835465280E-01  0.83657844560E-01  0.13193383767E+00  0.19984161550E-01 0.  0.
         14    1    1    2    0    0 -0.88467305122E-02  0.21851739893E-01 -0.50472267292E-02  0.24108871288E-01  0.00000000000E+00 0. -1.
     999901    1    3    3    0    0 -0.88064236449E-01  0.29837253872E-02 -0.78610617831E-01  0.88788729104E+00  0.88000000000E+00 0.  1.
        -11    1    4    4    0    0  0.37887197675E-01 -0.14373694588E-01  0.45225250594E-01  0.60725836808E-01  0.51100000000E-03 0. -1.
         11    1    4    4    0    0  0.59023769286E-01 -0.10461770693E-01  0.38432593966E-01  0.71208000862E-01  0.51100000000E-03 0.  1.
</event>
<event>
 8    1  0.1083484E+005  0.1043930E+01  0.7957747E-01            NaN
         13   -1    0    0    0    0  0.00000000000E+00  0.00000000000E+00  0.74505805969E-08  0.10566000000E+00  0.10566000000E+00 0. -1.
     999900   -1    0    0    0    0 -0.00000000000E+00 -0.00000000000E+00 -0.74505805969E-08  0.93827000000E+00  0.93827000000E+00 0. -1.
     999902    2    1    2    0    0  0.24339725698E-01 -0.87965136728E-02 -0.66018058910E-02  0.10172207368E+01  0.10168700225E+01 0.  0.
     999903    2    3    3    0    0 -0.49486770006E-01 -0.10007931937E+00 -0.58869120755E-01  0.12788684321E+00  0.20607297614E-01 0.  0.
         14    1    1    2    0    0 -0.24339725698E-01  0.87965136728E-02  0.66018058910E-02  0.26709263203E-01  0.00000000000E+00 0. -1.
     999901    1    3    3    0    0  0.73826495704E-01  0.91282805701E-01  0.52267314864E-01  0.88933389359E+00  0.88000000000E+00 0. -1.
        -11    1    4    4    0    0 -0.30132457089E-01 -0.79750223464E-01 -0.47541420672E-01  0.97614091776E-01  0.51100000000E-03 0.  1.
         11    1    4    4    0    0 -0.19354312917E-01 -0.20329095910E-01 -0.11327700082E-01  0.30272751431E-01  0.51100000000E-03 0. -1.
</event>
<event>
 8    1  0.1083484E+005  0.1043930E+01  0.7957747E-01            NaN
         13   -1    0    0    0    0  0.00000000000E+00  0.00000000000E+00  0.74505805969E-08  0.10566000000E+00  0.10566000000E+00 0.  1.
     999900   -1    0    0    0    0 -0.00000000000E+00 -0.00000000000E+00 -0.74505805969E-08  0.93827000000E+00  0.93827000000E+00 0. -1.
     999902    2    1    2    0    0 -0.21488936159E-01  0.12355205574E-01 -0.74617707818E-02  0.10180436425E+01  0.10177144759E+01 0.  0.
     999903    2    3    3    0    0 -0.20804224084E-01  0.52563803032E-01  0.11390424317E+00  0.12880413061E+00  0.20507518671E-01 0.  0.
         14    1    1    2    0    0  0.21488936159E-01 -0.12355205574E-01  0.74617707818E-02  0.25886357511E-01  0.00000000000E+00 0. -1.
     999901    1    3    3    0    0 -0.68471207478E-03 -0.40208597458E-01 -0.12136601395E+00  0.88923951188E+00  0.88000000000E+00 0. -1.
        -11    1    4    4    0    0 -0.11357769279E-01  0.78361734671E-02  0.34798504210E-01  0.37437969414E-01  0.51100000000E-03 0.  1.
         11    1    4    4    0    0 -0.94464548046E-02  0.44727629565E-01  0.79105738958E-01  0.91366161198E-01  0.51100000000E-03 0. -1.
</event>
<event>
 8    1  0.1083484E+005  0.1043930E+01  0.7957747E-01            NaN
         13   -1    0    0    0    0  0.00000000000E+00  0.00000000000E+00  0.74505805969E-08  0.10566000000E+00  0.10566000000E+00 0. -1.
     999900   -1    0    0    0    0 -0.00000000000E+00 -0.00000000000E+00 -0.74505805969E-08  0.93827000000E+00  0.93827000000E+00 0. -1.
     999902    2    1    2    0    0  0.44697674472E-02  0.37921356343E-02 -0.22579239076E-01  0.10206023094E+01  0.10203356765E+01 0.  0.
     999903    2    3    3    0    0  0.38237332006E-01 -0.36313667386E-01  0.11476538771E+00  0.12840711190E+00  0.23162818718E-01 0.  0.
         14    1    1    2    0    0 -0.44697674472E-02 -0.37921356343E-02  0.22579239076E-01  0.23327690648E-01  0.00000000000E+00 0. -1.
     999901    1    3    3    0    0 -0.33767564559E-01  0.40105803021E-01 -0.13734462679E+00  0.89219519745E+00  0.88000000000E+00 0. -1.
        -11    1    4    4    0    0  0.34588658431E-01 -0.29053859735E-01  0.72936549403E-01  0.85793376302E-01  0.51100000000E-03 0. -1.
         11    1    4    4    0    0  0.36486735749E-02 -0.72598076510E-02  0.41828838311E-01  0.42613735595E-01  0.51100000000E-03 0.  1.
</event>
<event>
 8    1  0.1083484E+005  0.1043930E+01  0.7957747E-01            NaN
         13   -1    0    0    0    0  0.00000000000E+00  0.00000000000E+00  0.74505805969E-08  0.10566000000E+00  0.10566000000E+00 0. -1.
     999900   -1    0    0    0    0 -0.00000000000E+00 -0.00000000000E+00 -0.74505805969E-08  0.93827000000E+00  0.93827000000E+00 0. -1.
     999902    2    1    2    0    0  0.14179139608E-01  0.72488778865E-03 -0.19202145067E-01  0.10200491324E+01  0.10197695508E+01 0.  0.
     999903    2    3    3    0    0 -0.99728777458E-01 -0.21534429310E-01  0.73865067927E-01  0.12756271967E+00  0.20165279329E-01 0.  0.
         14    1    1    2    0    0 -0.14179139608E-01 -0.72488778865E-03  0.19202145067E-01  0.23880867604E-01  0.00000000000E+00 0.  1.
     999901    1    3    3    0    0  0.11390791707E+00  0.22259317099E-01 -0.93067212994E-01  0.89248641273E+00  0.88000000000E+00 0. -1.
        -11    1    4    4    0    0 -0.84010491520E-01 -0.23170863755E-01  0.68561358888E-01  0.11088540331E+00  0.51100000000E-03 0. -1.
         11    1    4    4    0    0 -0.15718285938E-01  0.16364344447E-02  0.53037090394E-02  0.16677316364E-01  0.51100000000E-03 0.  1.
</event>
<event>
 8    1  0.1083484E+005  0.1043930E+01  0.7957747E-01            NaN
         13   -1    0    0    0    0  0.00000000000E+00  0.00000000000E+00  0.74505805969E-08  0.10566000000E+00  0.10566000000E+00 0. -1.
     999900   -1    0    0    0    0 -0.00000000000E+00 -0.00000000000E+00 -0.74505805969E-08  0.93827000000E+00  0.93827000000E+00 0.  1.
     999902    2    1    2    0    0 -0.14340839184E-01  0.15151648885E-01 -0.13617422107E-01  0.10190168244E+01  0.10187122372E+01 0.  0.
     999903    2    3    3    0    0  0.20534503102E-01  0.96517256693E-01  0.81407740965E-01  0.12948524362E+00  0.20048974256E-01 0.  0.
         14    1    1    2    0    0  0.14340839184E-01 -0.15151648885E-01  0.13617422107E-01  0.24913175576E-01  0.00000000000E+00 0. -1.
     999901    1    3    3    0    0 -0.34875342287E-01 -0.81365607808E-01 -0.95025163072E-01  0.88953158081E+00  0.88000000000E+00 0.  1.
        -11    1    4    4    0    0  0.98227778852E-02  0.77145394389E-01  0.56304884800E-01  0.96012499260E-01  0.51100000000E-03 0.  1.
         11    1    4    4    0    0  0.10711725217E-01  0.19371862304E-01  0.25102856164E-01  0.33472744358E-01  0.51100000000E-03 0. -1.
</event>
<event>
 8    1  0.1083484E+005  0.1043930E+01  0.7957747E-01            NaN
         13   -1    0    0    0    0  0.00000000000E+00  0.00000000000E+00  0.74505805969E-08  0.10566000000E+00  0.10566000000E+00 0. -1.
     999900   -1    0    0    0    0 -0.00000000000E+00 -0.00000000000E+00 -0.74505805969E-08  0.93827000000E+00  0.93827000000E+00 0.  1.
     999902    2    1    2    0    0  0.40021642578E-02  0.23139281983E-01  0.28684305157E-02  0.10202726210E+01  0.10199983086E+01 0.  0.
     999903    2    3    3    0    0  0.12925972498E+00 -0.65043495727E-02  0.42947826820E-02  0.13090754637E+00  0.19182217637E-01 0.  0.
         14    1    1    2    0    0 -0.40021642578E-02 -0.23139281983E-01 -0.28684305157E-02  0.23657379041E-01  0.00000000000E+00 0.  1.
     999901    1    3    3    0    0 -0.12525756073E+00  0.29643631556E-01 -0.14263521663E-02  0.88936507458E+00  0.88000000000E+00 0. -1.
        -11    1    4    4    0    0  0.53080133154E-01 -0.12104445438E-01  0.12219708204E-02  0.54458906239E-01  0.51100000000E-03 0.  1.
         11    1    4    4    0    0  0.76179591829E-01  0.56000958651E-02  0.30728118616E-02  0.76448640136E-01  0.51100000000E-03 0. -1.
</event>
<event>
 8    1  0.1083484E+005  0.1043930E+01  0.7957747E-01            NaN
         13   -1    0    0    0    0  0.00000000000E+00  0.00000000000E+00  0.74505805969E-08  0.10566000000E+00  0.10566000000E+00 0. -1.
     999900   -1    0    0    0    0 -0.00000000000E+00 -0.00000000000E+00 -0.74505805969E-08  0.93827000000E+00  0.93827000000E+00 0.  1.
     999902    2    1    2    0    0 -0.29926655377E-02 -0.19027515848E-01  0.11314092775E-01  0.10215914436E+01  0.10213471822E+01 0.  0.
     999903    2    3    3    0    0  0.60998543727E-02  0.90897111132E-01 -0.88933279128E-01  0.12905817638E+00  0.21151636309E-01 0.  0.
         14    1    1    2    0    0  0.29926655377E-02  0.19027515848E-01 -0.11314092775E-01  0.22338556393E-01  0.00000000000E+00 0.  1.
     999901    1    3    3    0    0 -0.90925199104E-02 -0.10992462698E+00  0.10024737190E+00  0.89253326723E+00  0.88000000000E+00 0. -1.
        -11    1    4    4    0    0 -0.72562421335E-02  0.45598786006E-01 -0.47238801118E-01  0.66058063756E-01  0.51100000000E-03 0. -1.
         11    1    4    4    0    0  0.13356096506E-01  0.45298325126E-01 -0.41694478009E-01  0.63000112623E-01  0.51100000000E-03 0.  1.
</event>
<event>
 8    1  0.1083484E+005  0.1043930E+01  0.7957747E-01            NaN
         13   -1    0    0    0    0  0.00000000000E+00  0.00000000000E+00  0.74505805969E-08  0.10566000000E+00  0.10566000000E+00 0.  1.
     999900   -1    0    0    0    0 -0.00000000000E+00 -0.00000000000E+00 -0.74505805969E-08  0.93827000000E+00  0.93827000000E+00 0. -1.
     999902    2    1    2    0    0  0.62837920733E-02 -0.15803261804E-01 -0.16491991243E-01  0.10202400253E+01  0.10199649476E+01 0.  0.
     999903    2    3    3    0    0 -0.57050555004E-02  0.29173578282E-01 -0.12707382474E+00  0.13209871305E+00  0.20461371590E-01 0.  0.
         14    1    1    2    0    0 -0.62837920733E-02  0.15803261804E-01  0.16491991243E-01  0.23689974707E-01  0.00000000000E+00 0.  1.
     999901    1    3    3    0    0  0.11988847574E-01 -0.44976840086E-01  0.11058183350E+00  0.88814131224E+00  0.88000000000E+00 0.  1.
        -11    1    4    4    0    0 -0.41045958024E-03  0.18592698465E-01 -0.10840963506E+00  0.10999439534E+00  0.51100000000E-03 0. -1.
         11    1    4    4    0    0 -0.52945959202E-02  0.10580879817E-01 -0.18664189686E-01  0.22104317707E-01  0.51100000000E-03 0.  1.
</event>
<event>
 8    1  0.1083484E+005  0.1043930E+01  0.7957747E-01            NaN
         13   -1    0    0    0    0  0.00000000000E+00  0.00000000000E+00  0.74505805969E-08  0.10566000000E+00  0.10566000000E+00 0.  1.
     999900   -1    0    0    0    0 -0.00000000000E+00 -0.00000000000E+00 -0.74505805969E-08  0.93827000000E+00  0.93827000000E+00 0. -1.
     999902    2    1    2    0    0 -0.32257303581E-02 -0.52982766626E-02  0.24369052667E-01  0.10187838711E+01  0.10184734892E+01 0.  0.
     999903    2    3    3    0    0  0.19952240678E-01 -0.64855903366E-01 -0.10533100936E+00  0.12698432223E+00  0.20640165901E-01 0.  0.
         14    1    1    2    0    0  0.32257303581E-02  0.52982766626E-02 -0.24369052667E-01  0.25146128923E-01  0.00000000000E+00 0. -1.
     999901    1    3    3    0    0 -0.23177971036E-01  0.59557626704E-01  0.12970006203E+00  0.89179954885E+00  0.88000000000E+00 0.  1.
        -11    1    4    4    0    0  0.18284693197E-01 -0.36295727958E-01 -0.47900896474E-01  0.62820911147E-01  0.51100000000E-03 0.  1.
         11    1    4    4    0    0  0.16675474809E-02 -0.28560175408E-01 -0.57430112889E-01  0.64163411080E-01  0.51100000000E-03 0. -1.
</event>
<event>
 8    1  0.1083484E+005  0.1043930E+01  0.7957747E-01            NaN
         13   -1    0    0    0    0  0.00000000000E+00  0.00000000000E+00  0.74505805969E-08  0.10566000000E+00  0.10566000000E+00 0.  1.
     999900   -1    0    0    0    0 -0.00000000000E+00 -0.00000000000E+00 -0.74505805969E-08  0.93827000000E+00  0.93827000000E+00 0.  1.
     999902    2    1    2    0    0  0.90055028815E-02 -0.12824257851E-03  0.24653666292E-01  0.10176827375E+01  0.10173442069E+01 0.  0.
     999903    2    3    3    0    0 -0.86040761596E-01  0.36367395458E-01  0.88353711161E-01  0.12952542050E+00  0.15647880715E-01 0.  0.
         14    1    1    2    0    0 -0.90055028815E-02  0.12824257851E-03 -0.24653666292E-01  0.26247262523E-01  0.00000000000E+00 0. -1.
     999901    1    3    3    0    0  0.95046264478E-01 -0.36495638036E-01 -0.63700044868E-01  0.88815731698E+00  0.88000000000E+00 0.  1.
        -11    1    4    4    0    0 -0.37892457616E-01  0.10573616371E-01  0.45103855922E-01  0.59851972794E-01  0.51100000000E-03 0.  1.
         11    1    4    4    0    0 -0.48148303980E-01  0.25793779087E-01  0.43249855239E-01  0.69673447704E-01  0.51100000000E-03 0. -1.
</event>
<event>
 8    1  0.1083484E+005  0.1043930E+01  0.7957747E-01            NaN
         13   -1    0    0    0    0  0.00000000000E+00  0.00000000000E+00  0.74505805969E-08  0.10566000000E+00  0.10566000000E+00 0. -1.
     999900   -1    0    0    0    0 -0.00000000000E+00 -0.00000000000E+00 -0.74505805969E-08  0.93827000000E+00  0.93827000000E+00 0.  1.
     999902    2    1    2    0    0 -0.15885834526E-01  0.80920647825E-02 -0.16222943770E-01  0.10198255366E+01  0.10195406318E+01 0.  0.
     999903    2    3    3    0    0  0.79443604338E-01 -0.75950955445E-02  0.97006589626E-01  0.12732639591E+00  0.20802906464E-01 0.  0.
         14    1    1    2    0    0  0.15885834526E-01 -0.80920647825E-02  0.16222943770E-01  0.24104463395E-01  0.00000000000E+00 0. -1.
     999901    1    3    3    0    0 -0.95329438864E-01  0.15687160327E-01 -0.11322953340E+00  0.89249914070E+00  0.88000000000E+00 0.  1.
        -11    1    4    4    0    0  0.30156752007E-01  0.11630067296E-02  0.51391636029E-01  0.59599862844E-01  0.51100000000E-03 0. -1.
         11    1    4    4    0    0  0.49286852331E-01 -0.87581022741E-02  0.45614953597E-01  0.67726533063E-01  0.51100000000E-03 0.  1.
</event>
<event>
 8    1  0.1083484E+005  0.1043930E+01  0.7957747E-01            NaN
         13   -1    0    0    0    0  0.00000000000E+00  0.00000000000E+00  0.74505805969E-08  0.10566000000E+00  0.10566000000E+00 0. -1.
     999900   -1    0    0    0    0 -0.00000000000E+00 -0.00000000000E+00 -0.74505805969E-08  0.93827000000E+00  0.93827000000E+00 0.  1.
     999902    2    1    2    0    0  0.63578254785E-02  0.85569131838E-02 -0.92338620613E-02  0.10298265637E+01  0.10297299861E+01 0.  0.
     999903    2    3    3    0    0  0.57247017526E-01 -0.11275979405E+00  0.51535236576E-01  0.13797436925E+00  0.19724446563E-01 0.  0.
         14    1    1    2    0    0 -0.63578254785E-02 -0.85569131838E-02  0.92338620613E-02  0.14103436341E-01  0.00000000000E+00 0. -1.
     999901    1    3    3    0    0 -0.50889192048E-01  0.12131670723E+00 -0.60769098637E-01  0.89185219441E+00  0.88000000000E+00 0. -1.
        -11    1    4    4    0    0  0.37799343886E-01 -0.87917933282E-01  0.44995907085E-01  0.10575086839E+00  0.51100000000E-03 0.  1.
         11    1    4    4    0    0  0.19447673640E-01 -0.24841860765E-01  0.65393294911E-02  0.32223500857E-01  0.51100000000E-03 0. -1.
</event>
<event>
 8    1  0.1083484E+005  0.1043930E+01  0.7957747E-01            NaN
         13   -1    0    0    0    0  0.00000000000E+00  0.00000000000E+00  0.74505805969E-08  0.10566000000E+00  0.10566000000E+00 0. -1.
     999900   -1    0    0    0    0 -0.00000000000E+00 -0.00000000000E+00 -0.74505805969E-08  0.93827000000E+00  0.93827000000E+00 0.  1.
     999902    2    1    2    0    0  0.18242599062E-01 -0.11660923325E-01 -0.10011816500E-01  0.10200761529E+01  0.10197972110E+01 0.  0.
     999903    2    3    3    0    0  0.30430752744E-01 -0.28639000977E-01  0.12157812045E+00  0.13004653667E+00  0.19612221656E-01 0.  0.
         14    1    1    2    0    0 -0.18242599062E-01  0.11660923325E-01  0.10011816500E-01  0.23853847131E-01  0.00000000000E+00 0. -1.
     999901    1    3    3    0    0 -0.12188153682E-01  0.16978077652E-01 -0.13158993695E+00  0.89002961620E+00  0.88000000000E+00 0.  1.
        -11    1    4    4    0    0  0.30958890519E-01 -0.19199224931E-01  0.10169595925E+00  0.10802496188E+00  0.51100000000E-03 0. -1.
         11    1    4    4    0    0 -0.52813777506E-03 -0.94397760461E-02  0.19882161194E-01  0.22021574786E-01  0.51100000000E-03 0.  1.
</event>
<event>
 8    1  0.1083484E+005  0.1043930E+01  0.7957747E-01            NaN
         13   -1    0    0    0    0  0.00000000000E+00  0.00000000000E+00  0.74505805969E-08  0.10566000000E+00  0.10566000000E+00 0. -1.
     999900   -1    0    0    0    0 -0.00000000000E+00 -0.00000000000E+00 -0.74505805969E-08  0.93827000000E+00  0.93827000000E+00 0.  1.
     999902    2    1    2    0    0  0.22284134235E-01  0.24854597845E-02 -0.73192275309E-02  0.10203433249E+01  0.10200706689E+01 0.  0.
     999903    2    3    3    0    0 -0.27971629298E-01 -0.12338323359E+00  0.19339574987E-01  0.12956879595E+00  0.20204438777E-01 0.  0.
         14    1    1    2    0    0 -0.22284134235E-01 -0.24854597845E-02  0.73192275309E-02  0.23586675064E-01  0.00000000000E+00 0.  1.
     999901    1    3    3    0    0  0.50255763533E-01  0.12586869337E+00 -0.26658802518E-01  0.89077452899E+00  0.88000000000E+00 0. -1.
        -11    1    4    4    0    0 -0.39444494636E-02 -0.51710193742E-01  0.14339091090E-01  0.53808674697E-01  0.51100000000E-03 0.  1.
         11    1    4    4    0    0 -0.24027179834E-01 -0.71673039848E-01  0.50004838970E-02  0.75760121251E-01  0.51100000000E-03 0. -1.
</event>
<event>
 8    1  0.1083484E+005  0.1043930E+01  0.7957747E-01            NaN
         13   -1    0    0    0    0  0.00000000000E+00  0.00000000000E+00  0.74505805969E-08  0.10566000000E+00  0.10566000000E+00 0.  1.
     999900   -1    0    0    0    0 -0.00000000000E+00 -0.00000000000E+00 -0.74505805969E-08  0.93827000000E+00  0.93827000000E+00 0.  1.
     999902    2    1    2    0    0 -0.13854835301E-02 -0.23002237001E-01 -0.22666163418E-02  0.10207748705E+01  0.10205122127E+01 0.  0.
     999903    2    3    3    0    0 -0.66101858552E-01 -0.10092815600E+00 -0.53564271543E-01  0.13348004495E+00  0.19795020517E-01 0.  0.
         14    1    1    2    0    0  0.13854835301E-02  0.23002237001E-01  0.22666163418E-02  0.23155129481E-01  0.00000000000E+00 0.  1.
     999901    1    3    3    0    0  0.64716375021E-01  0.77925918998E-01  0.51297655201E-01  0.88729482557E+00  0.88000000000E+00 0. -1.
        -11    1    4    4    0    0 -0.32944076020E-01 -0.41984501512E-01 -0.14197536618E-01  0.55225371697E-01  0.51100000000E-03 0.  1.
         11    1    4    4    0    0 -0.33157782532E-01 -0.58943654486E-01 -0.39366734925E-01  0.78254673255E-01  0.51100000000E-03 0. -1.
</event>
<event>
 8    1  0.1083484E+005  0.1043930E+01  0.7957747E-01            NaN
         13   -1    0    0    0    0  0.00000000000E+00  0.00000000000E+00  0.74505805969E-08  0.10566000000E+00  0.10566000000E+00 0.  1.
     999900   -1    0    0    0    0 -0.00000000000E+00 -0.00000000000E+00 -0.74505805969E-08  0.93827000000E+00  0.93827000000E+00 0.  1.
     999902    2    1    2    0    0 -0.10505264562E-01 -0.24917212315E-02 -0.20976637146E-01  0.10203378707E+01  0.10200650871E+01 0.  0.
     999903    2    3    3    0    0 -0.12879395245E+00  0.12788338650E-01  0.14235724560E-01  0.13159403567E+00  0.19050211981E-01 0.  0.
         14    1    1    2    0    0  0.10505264562E-01  0.24917212315E-02  0.20976637146E-01  0.23592129284E-01  0.00000000000E+00 0.  1.
     999901    1    3    3    0    0  0.11828868789E+00 -0.15280059882E-01 -0.35212361706E-01  0.88874383504E+00  0.88000000000E+00 0. -1.
        -11    1    4    4    0    0 -0.87233114654E-01  0.11586629774E-02  0.14463567278E-01  0.88433108571E-01  0.51100000000E-03 0.  1.
         11    1    4    4    0    0 -0.41560837799E-01  0.11629675673E-01 -0.22784271868E-03  0.43160927100E-01  0.51100000000E-03 0. -1.
</event>
<event>
 8    1  0.1083484E+005  0.1043930E+01  0.7957747E-01            NaN
         13   -1    0    0    0    0  0.00000000000E+00  0.00000000000E+00  0.74505805969E-08  0.10566000000E+00  0.10566000000E+00 0. -1.
     999900   -1    0    0    0    0 -0.00000000000E+00 -0.00000000000E+00 -0.74505805969E-08  0.93827000000E+00  0.93827000000E+00 0. -1.
     999902    2    1    2    0    0  0.10195857153E-01  0.15993783959E-01 -0.10626641801E-01  0.10221887456E+01  0.10219575086E+01 0.  0.
     999903    2    3    3    0    0  0.85519746405E-01  0.55409313256E-01 -0.85486641465E-01  0.13492819094E+00  0.22667858770E-01 0.  0.
         14    1    1    2    0    0 -0.10195857153E-01 -0.15993783959E-01  0.10626641801E-01  0.21741254434E-01  0.00000000000E+00 0.  1.
     999901    1    3    3    0    0 -0.75323889252E-01 -0.39415529298E-01  0.74859999664E-01  0.88726055462E+00  0.88000000000E+00 0.  1.
        -11    1    4    4    0    0  0.55137427038E-01  0.44741590624E-01 -0.49067686918E-01  0.86312483526E-01  0.51100000000E-03 0.  1.
         11    1    4    4    0    0  0.30382319367E-01  0.10667722633E-01 -0.36418954547E-01  0.48615707416E-01  0.51100000000E-03 0. -1.
</event>
<event>
 8    1  0.1083484E+005  0.1043930E+01  0.7957747E-01            NaN
         13   -1    0    0    0    0  0.00000000000E+00  0.00000000000E+00  0.74505805969E-08  0.10566000000E+00  0.10566000000E+00 0.  1.
     999900   -1    0    0    0    0 -0.00000000000E+00 -0.00000000000E+00 -0.74505805969E-08  0.93827000000E+00  0.93827000000E+00 0. -1.
     999902    2    1    2    0    0  0.13390432301E-01  0.17580871444E-01 -0.46479576392E-02  0.10213469482E+01  0.10210972502E+01 0.  0.
     999903    2    3    3    0    0  0.47003978087E-01  0.10657783936E+00  0.62474732378E-01  0.13367821142E+00  0.19964023242E-01 0.  0.
         14    1    1    2    0    0 -0.13390432301E-01 -0.17580871444E-01  0.46479576392E-02  0.22583051789E-01  0.00000000000E+00 0.  1.
     999901    1    3    3    0    0 -0.33613545787E-01 -0.88996967918E-01 -0.67122690017E-01  0.88766873679E+00  0.88000000000E+00 0. -1.
        -11    1    4    4    0    0  0.36249778832E-01  0.88694475426E-01  0.42617633609E-01  0.10486791813E+00  0.51100000000E-03 0.  1.
         11    1    4    4    0    0  0.10754199255E-01  0.17883363935E-01  0.19857098769E-01  0.28810293296E-01  0.51100000000E-03 0. -1.
</event>
<event>
 8    1  0.1083484E+005  0.1043930E+01  0.7957747E-01            NaN
         13   -1    0    0    0    0  0.00000000000E+00  0.00000000000E+00  0.74505805969E-08  0.10566000000E+00  0.10566000000E+00 0.  1.
     999900   -1    0    0    0    0 -0.00000000000E+00 -0.00000000000E+00 -0.74505805969E-08  0.93827000000E+00  0.93827000000E+00 0. -1.
     999902    2    1    2    0    0 -0.16964731618E-01  0.10423938885E-01 -0.13213330251E-01  0.10200332907E+01  0.10197533336E+01 0.  0.
     999903    2    3    3    0    0  0.10691331148E+00 -0.33697166624E-01  0.57228905466E-01  0.12747822229E+00  0.20238436870E-01 0.  0.
         14    1    1    2    0    0  0.16964731618E-01 -0.10423938885E-01  0.13213330251E-01  0.23896709336E-01  0.00000000000E+00 0. -1.
     999901    1    3    3    0    0 -0.12387804310E+00  0.44121105509E-01 -0.70442235717E-01  0.89255506838E+00  0.88000000000E+00 0. -1.
        -11    1    4    4    0    0  0.69820784833E-01 -0.27221180009E-01  0.28757963830E-01  0.80269647068E-01  0.51100000000E-03 0.  1.
         11    1    4    4    0    0  0.37092526645E-01 -0.64759866151E-02  0.28470941637E-01  0.47208575219E-01  0.51100000000E-03 0. -1.
</event>
<event>
 8    1  0.1083484E+005  0.1043930E+01  0.7957747E-01            NaN
         13   -1    0    0    0    0  0.00000000000E+00  0.00000000000E+00  0.74505805969E-08  0.10566000000E+00  0.10566000000E+00 0.  1.
     999900   -1    0    0    0    0 -0.00000000000E+00 -0.00000000000E+00 -0.74505805969E-08  0.93827000000E+00  0.93827000000E+00 0. -1.
     999902    2    1    2    0    0  0.19820627451E-01  0.81457110443E-02 -0.86634143012E-02  0.10208158349E+01  0.10205541162E+01 0.  0.
     999903    2    3    3    0    0  0.11310340099E+00 -0.53586055962E-01 -0.40793270124E-01  0.13315327822E+00  0.20046443641E-01 0.  0.
         14    1    1    2    0    0 -0.19820627451E-01 -0.81457110443E-02  0.86634143012E-02  0.23114165102E-01  0.00000000000E+00 0.  1.
     999901    1    3    3    0    0 -0.93282773543E-01  0.61731767006E-01  0.32129855822E-01  0.88766255668E+00  0.88000000000E+00 0. -1.
        -11    1    4    4    0    0  0.39761881654E-01 -0.19297330220E-01 -0.24608056555E-01  0.50588652430E-01  0.51100000000E-03 0. -1.
         11    1    4    4    0    0  0.73341519341E-01 -0.34288725741E-01 -0.16185213569E-01  0.82564625788E-01  0.51100000000E-03 0.  1.
</event>
<event>
 8    1  0.1083484E+005  0.1043930E+01  0.7957747E-01            NaN
         13   -1    0    0    0    0  0.00000000000E+00  0.00000000000E+00  0.74505805969E-08  0.10566000000E+00  0.10566000000E+00 0.  1.
     999900   -1    0    0    0    0 -0.00000000000E+00 -0.00000000000E+00 -0.74505805969E-08  0.93827000000E+00  0.93827000000E+00 0. -1.
     999902    2    1    2    0    0 -0.19213057054E-01 -0.39353339788E-02 -0.15751445879E-01  0.10187757466E+01  0.10184651616E+01 0.  0.
     999903    2    3    3    0    0 -0.58147858861E-01  0.64355819881E-01  0.92836597567E-01  0.12862353288E+00  0.20063257937E-01 0.  0.
         14    1    1    2    0    0  0.19213057054E-01  0.39353339788E-02  0.15751445879E-01  0.25154253361E-01  0.00000000000E+00 0.  1.
     999901    1    3    3    0    0  0.38934801807E-01 -0.68291153860E-01 -0.10858804345E+00  0.89015221376E+00  0.88000000000E+00 0. -1.
        -11    1    4    4    0    0 -0.18762089317E-01  0.35008252988E-01  0.37437327988E-01  0.54583957539E-01  0.51100000000E-03 0.  1.
         11    1    4    4    0    0 -0.39385769544E-01  0.29347566893E-01  0.55399269579E-01  0.74039575337E-01  0.51100000000E-03 0. -1.
</event>
<event>
 8    1  0.1083484E+005  0.1043930E+01  0.7957747E-01            NaN
         13   -1    0    0    0    0  0.00000000000E+00  0.00000000000E+00  0.74505805969E-08  0.10566000000E+00  0.10566000000E+00 0. -1.
     999900   -1    0    0    0    0 -0.00000000000E+00 -0.00000000000E+00 -0.74505805969E-08  0.93827000000E+00  0.93827000000E+00 0. -1.
     999902    2    1    2    0    0 -0.13439854868E-01  0.64371371303E-02  0.17546185624E-01  0.10209096815E+01  0.10206501079E+01 0.  0.
     999903    2    3    3    0    0  0.10468403473E+00  0.55331809412E-01 -0.47784975998E-01  0.12927516953E+00  0.20206663907E-01 0.  0.
         14    1    1    2    0    0  0.13439854868E-01 -0.64371371303E-02 -0.17546185624E-01  0.23020318487E-01  0.00000000000E+00 0.  1.
     999901    1    3    3    0    0 -0.11812388960E+00 -0.48894672282E-01  0.65331161622E-01  0.89163451198E+00  0.88000000000E+00 0.  1.
        -11    1    4    4    0    0  0.28931237777E-01  0.17689818720E-01 -0.43748884458E-02  0.34195715749E-01  0.51100000000E-03 0.  1.
         11    1    4    4    0    0  0.75752796956E-01  0.37641990693E-01 -0.43410087552E-01  0.95079453786E-01  0.51100000000E-03 0. -1.
</event>
<event>
 8    1  0.1083484E+005  0.1043930E+01  0.7957747E-01            NaN
         13   -1    0    0    0    0  0.00000000000E+00  0.00000000000E+00  0.74505805969E-08  0.10566000000E+00  0.10566000000E+00 0. -1.
     999900   -1    0    0    0    0 -0.00000000000E+00 -0.00000000000E+00 -0.74505805969E-08  0.93827000000E+00  0.93827000000E+00 0. -1.
     999902    2    1    2    0    0 -0.12171222301E-01  0.18941730454E-01 -0.76295076468E-02  0.10201573857E+01  0.10198803628E+01 0.  0.
     999903    2    3    3    0    0 -0.17319570377E-01 -0.99990494122E-01  0.75809732565E-01  0.12823054656E+00  0.19947207483E-01 0.  0.
         14    1    1    2    0    0  0.12171222301E-01 -0.18941730454E-01  0.76295076468E-02  0.23772614324E-01  0.00000000000E+00 0.  1.
     999901    1    3    3    0    0  0.51483480765E-02  0.11893222458E+00 -0.83439240212E-01  0.89192683912E+00  0.88000000000E+00 0. -1.
        -11    1    4    4    0    0 -0.20417502068E-02 -0.67087697229E-01  0.47997502456E-01  0.82516357326E-01  0.51100000000E-03 0. -1.
         11    1    4    4    0    0 -0.15277820171E-01 -0.32902796893E-01  0.27812230109E-01  0.45714189232E-01  0.51100000000E-03 0.  1.
</event>
<event>
 8    1  0.1083484E+005  0.1043930E+01  0.7957747E-01            NaN
         13   -1    0    0    0    0  0.00000000000E+00  0.00000000000E+00  0.74505805969E-08  0.10566000000E+00  0.10566000000E+00 0. -1.
     999900   -1    0    0    0    0 -0.00000000000E+00 -0.00000000000E+00 -0.74505805969E-08  0.93827000000E+00  0.93827000000E+00 0. -1.
     999902    2    1    2    0    0 -0.44269674133E-02 -0.20930712166E-01 -0.10728397574E-01  0.10199969420E+01  0.10197161224E+01 0.  0.
     999903    2    3    3    0    0 -0.27942759926E-01  0.48806916161E-01 -0.11619911120E+00  0.13064864083E+00  0.20097786194E-01 0.  0.
         14    1    1    2    0    0  0.44269674133E-02  0.20930712166E-01  0.10728397574E-01  0.23933058032E-01  0.00000000000E+00 0. -1.
     999901    1    3    3    0    0  0.23515792513E-01 -0.69737628327E-01  0.10547071363E+00  0.88934830114E+00  0.88000000000E+00 0.  1.
        -11    1    4    4    0    0  0.23217735097E-02  0.88042293139E-02 -0.24211124096E-01  0.25871697606E-01  0.51100000000E-03 0. -1.
         11    1    4    4    0    0 -0.30264533436E-01  0.40002686847E-01 -0.91987987104E-01  0.10477694322E+00  0.51100000000E-03 0.  1.
</event>
<event>
 8    1  0.1083484E+005  0.1043930E+01  0.7957747E-01            NaN
         13   -1    0    0    0    0  0.00000000000E+00  0.00000000000E+00  0.74505805969E-08  0.10566000000E+00  0.10566000000E+00 0.  1.
     999900   -1    0    0    0    0 -0.00000000000E+00 -0.00000000000E+00 -0.74505805969E-08  0.93827000000E+00  0.93827000000E+00 0. -1.
     999902    2    1    2    0    0  0.25525683993E-01 -0.99488133286E-03 -0.17149198389E-02  0.10183274360E+01  0.10180055381E+01 0.  0.
     999903    2    3    3    0    0  0.24402406705E-01  0.86061323966E-01  0.91066064378E-01  0.12917707997E+00  0.19790426297E-01 0.  0.
         14    1    1    2    0    0 -0.25525683993E-01  0.99488133286E-03  0.17149198389E-02  0.25602563977E-01  0.00000000000E+00 0.  1.
     999901    1    3    3    0    0  0.11232772871E-02 -0.87056205299E-01 -0.92780984217E-01  0.88915035605E+00  0.88000000000E+00 0.  1.
        -11    1    4    4    0    0  0.36081190500E-02  0.47248768801E-01  0.43008799003E-01  0.63995957598E-01  0.51100000000E-03 0.  1.
         11    1    4    4    0    0  0.20794287655E-01  0.38812555165E-01  0.48057265375E-01  0.65181122374E-01  0.51100000000E-03 0. -1.
</event>
<event>
 8    1  0.1083484E+005  0.1043930E+01  0.7957747E-01            NaN
         13   -1    0    0    0    0  0.00000000000E+00  0.00000000000E+00  0.74505805969E-08  0.10566000000E+00  0.10566000000E+00 0.  1.
     999900   -1    0    0    0    0 -0.00000000000E+00 -0.00000000000E+00 -0.74505805969E-08  0.93827000000E+00  0.93827000000E+00 0. -1.
     999902    2    1    2    0    0  0.97484227713E-02 -0.22170267548E-01  0.10440021859E-02  0.10196886624E+01  0.10194004737E+01 0.  0.
     999903    2    3    3    0    0 -0.55143269801E-01 -0.11690437097E+00  0.17981435302E-01  0.13206691930E+00  0.20271334487E-01 0.  0.
         14    1    1    2    0    0 -0.97484227713E-02  0.22170267548E-01 -0.10440021859E-02  0.24241337633E-01  0.00000000000E+00 0.  1.
     999901    1    3    3    0    0  0.64891692572E-01  0.94734103426E-01 -0.16937433116E-01  0.88762174306E+00  0.88000000000E+00 0.  1.
        -11    1    4    4    0    0 -0.28298950326E-01 -0.46186241490E-01 -0.61014202726E-03  0.54172252000E-01  0.51100000000E-03 0.  1.
         11    1    4    4    0    0 -0.26844319475E-01 -0.70718129484E-01  0.18591577330E-01  0.77894667304E-01  0.51100000000E-03 0. -1.
</event>
<event>
 8    1  0.1083484E+005  0.1043930E+01  0.7957747E-01            NaN
         13   -1    0    0    0    0  0.00000000000E+00  0.00000000000E+00  0.74505805969E-08  0.10566000000E+00  0.10566000000E+00 0. -1.
     999900   -1    0    0    0    0 -0.00000000000E+00 -0.00000000000E+00 -0.74505805969E-08  0.93827000000E+00  0.93827000000E+00 0.  1.
     999902    2    1    2    0    0 -0.16629871159E-01  0.16994269956E-01 -0.36008260849E-02  0.10198816368E+01  0.10195980724E+01 0.  0.
     999903    2    3    3    0    0 -0.13024048018E+00  0.80750069157E-02  0.96548894060E-02  0.13243437763E+00  0.20441601611E-01 0.  0.
         14    1    1    2    0    0  0.16629871159E-01 -0.16994269956E-01  0.36008260849E-02  0.24048363242E-01  0.00000000000E+00 0.  1.
     999901    1    3    3    0    0  0.11361060902E+00  0.89192630407E-02 -0.13255715491E-01  0.88744725912E+00  0.88000000000E+00 0.  1.
        -11    1    4    4    0    0 -0.87933165443E-01  0.14375212080E-01  0.30797846932E-02  0.89155114839E-01  0.51100000000E-03 0.  1.
         11    1    4    4    0    0 -0.42307314734E-01 -0.63002051641E-02  0.65751047128E-02  0.43279262795E-01  0.51100000000E-03 0. -1.
</event>
<event>
 8    1  0.1083484E+005  0.1043930E+01  0.7957747E-01            NaN
         13   -1    0    0    0    0  0.00000000000E+00  0.00000000000E+00  0.74505805969E-08  0.10566000000E+00  0.10566000000E+00 0.  1.
     999900   -1    0    0    0    0 -0.00000000000E+00 -0.00000000000E+00 -0.74505805969E-08  0.93827000000E+00  0.93827000000E+00 0.  1.
     999902    2    1    2    0    0  0.11323314444E-01 -0.16189193670E-01 -0.12018832780E-01  0.10208051263E+01  0.10205431623E+01 0.  0.
     999903    2    3    3    0    0  0.94695839245E-01  0.21604358389E-01  0.85125173164E-01  0.13073979817E+00  0.20311313298E-01 0.  0.
         14    1    1    2    0    0 -0.11323314444E-01  0.16189193670E-01  0.12018832780E-01  0.23124873688E-01  0.00000000000E+00 0.  1.
     999901    1    3    3    0    0 -0.83372524801E-01 -0.37793552060E-01 -0.97144005944E-01  0.89006532814E+00  0.88000000000E+00 0.  1.
        -11    1    4    4    0    0  0.58683869996E-01  0.22646362376E-01  0.58906535358E-01  0.86179436964E-01  0.51100000000E-03 0.  1.
         11    1    4    4    0    0  0.36011969249E-01 -0.10420039863E-02  0.26218637806E-01  0.44560361207E-01  0.51100000000E-03 0. -1.
</event>
<event>
 8    1  0.1083484E+005  0.1043930E+01  0.7957747E-01            NaN
         13   -1    0    0    0    0  0.00000000000E+00  0.00000000000E+00  0.74505805969E-08  0.10566000000E+00  0.10566000000E+00 0. -1.
     999900   -1    0    0    0    0 -0.00000000000E+00 -0.00000000000E+00 -0.74505805969E-08  0.93827000000E+00  0.93827000000E+00 0. -1.
     999902    2    1    2    0    0  0.46018145664E-02  0.22669309614E-01 -0.51869475378E-02  0.10202239096E+01  0.10199484531E+01 0.  0.
     999903    2    3    3    0    0  0.40494290760E-01 -0.62928060471E-01  0.10288816873E+00  0.12876700637E+00  0.19880600769E-01 0.  0.
         14    1    1    2    0    0 -0.46018145664E-02 -0.22669309614E-01  0.51869475378E-02  0.23706090366E-01  0.00000000000E+00 0.  1.
     999901    1    3    3    0    0 -0.35892476194E-01  0.85597370085E-01 -0.10807511627E+00  0.89145690326E+00  0.88000000000E+00 0. -1.
        -11    1    4    4    0    0  0.30788883877E-01 -0.46779967043E-01  0.89756944316E-01  0.10579645959E+00  0.51100000000E-03 0. -1.
         11    1    4    4    0    0  0.97054068834E-02 -0.16148093428E-01  0.13131224415E-01  0.22970546789E-01  0.51100000000E-03 0.  1.
</event>
<event>
 8    1  0.1083484E+005  0.1043930E+01  0.7957747E-01            NaN
         13   -1    0    0    0    0  0.00000000000E+00  0.00000000000E+00  0.74505805969E-08  0.10566000000E+00  0.10566000000E+00 0.  1.
     999900   -1    0    0    0    0 -0.00000000000E+00 -0.00000000000E+00 -0.74505805969E-08  0.93827000000E+00  0.93827000000E+00 0. -1.
     999902    2    1    2    0    0 -0.28913589014E-02 -0.17972564225E-01  0.13920718541E-01  0.10210136428E+01  0.10207564349E+01 0.  0.
     999903    2    3    3    0    0 -0.53299638876E-01 -0.55477948249E-01 -0.10444623011E+00  0.13086849565E+00  0.17288548907E-01 0.  0.
         14    1    1    2    0    0  0.28913589014E-02  0.17972564225E-01 -0.13920718541E-01  0.22916357168E-01  0.00000000000E+00 0.  1.
     999901    1    3    3    0    0  0.50408279975E-01  0.37505384024E-01  0.11836694865E+00  0.89014514718E+00  0.88000000000E+00 0.  1.
        -11    1    4    4    0    0 -0.37610479901E-01 -0.30899835361E-01 -0.54870069371E-01  0.73350757716E-01  0.51100000000E-03 0. -1.
         11    1    4    4    0    0 -0.15689158976E-01 -0.24578112888E-01 -0.49576160738E-01  0.57517737934E-01  0.51100000000E-03 0.  1.
</event>
<event>
 8    1  0.1083484E+005  0.1043930E+01  0.7957747E-01            NaN
         13   -1    0    0    0    0  0.00000000000E+00  0.00000000000E+00  0.74505805969E-08  0.10566000000E+00  0.10566000000E+00 0.  1.
     999900   -1    0    0    0    0 -0.00000000000E+00 -0.00000000000E+00 -0.74505805969E-08  0.93827000000E+00  0.93827000000E+00 0. -1.
     999902    2    1    2    0    0  0.20545036313E-01  0.66387868087E-02  0.99391866007E-02  0.10201611246E+01  0.10198841899E+01 0.  0.
     999903    2    3    3    0    0  0.11907823234E+00  0.53497331920E-01  0.16733920954E-01  0.13339696070E+00  0.21751668301E-01 0.  0.
         14    1    1    2    0    0 -0.20545036313E-01 -0.66387868087E-02 -0.99391866007E-02  0.23768875398E-01  0.00000000000E+00 0. -1.
     999901    1    3    3    0    0 -0.98533196025E-01 -0.46858545111E-01 -0.67947343536E-02  0.88676416390E+00  0.88000000000E+00 0. -1.
        -11    1    4    4    0    0  0.77627388801E-01  0.37335882575E-01  0.21108604104E-01  0.88689423878E-01  0.51100000000E-03 0.  1.
         11    1    4    4    0    0  0.41450843537E-01  0.16161449345E-01 -0.43746831499E-02  0.44707536820E-01  0.51100000000E-03 0. -1.
</event>
<event>
 8    1  0.1083484E+005  0.1043930E+01  0.7957747E-01            NaN
         13   -1    0    0    0    0  0.00000000000E+00  0.00000000000E+00  0.74505805969E-08  0.10566000000E+00  0.10566000000E+00 0.  1.
     999900   -1    0    0    0    0 -0.00000000000E+00 -0.00000000000E+00 -0.74505805969E-08  0.93827000000E+00  0.93827000000E+00 0. -1.
     999902    2    1    2    0    0 -0.11007558043E-02 -0.23654821262E-01  0.33935935701E-02  0.10200076525E+01  0.10197270872E+01 0.  0.
     999903    2    3    3    0    0  0.52580962133E-01  0.14987187132E-01 -0.11578057983E+00  0.12951485902E+00  0.19482881787E-01 0.  0.
         14    1    1    2    0    0  0.11007558043E-02  0.23654821262E-01 -0.33935935701E-02  0.23922347494E-01  0.00000000000E+00 0.  1.
     999901    1    3    3    0    0 -0.53681717938E-01 -0.38642008394E-01  0.11917417340E+00  0.89049279349E+00  0.88000000000E+00 0.  1.
        -11    1    4    4    0    0  0.43834862286E-01  0.47676020514E-02 -0.95288892432E-01  0.10499742532E+00  0.51100000000E-03 0. -1.
         11    1    4    4    0    0  0.87460998471E-02  0.10219585081E-01 -0.20491687399E-01  0.24517433700E-01  0.51100000000E-03 0.  1.
</event>
<event>
 8    1  0.1083484E+005  0.1043930E+01  0.7957747E-01            NaN
         13   -1    0    0    0    0  0.00000000000E+00  0.00000000000E+00  0.74505805969E-08  0.10566000000E+00  0.10566000000E+00 0. -1.
     999900   -1    0    0    0    0 -0.00000000000E+00 -0.00000000000E+00 -0.74505805969E-08  0.93827000000E+00  0.93827000000E+00 0. -1.
     999902    2    1    2    0    0  0.34672109444E-02  0.50613627292E-02 -0.22863552093E-01  0.10202576330E+01  0.10199829689E+01 0.  0.
     999903    2    3    3    0    0  0.11420544118E+00 -0.28700714370E-01 -0.54339245856E-01  0.13211713017E+00  0.25210486789E-01 0.  0.
         14    1    1    2    0    0 -0.34672109444E-02 -0.50613627292E-02  0.22863552093E-01  0.23672366986E-01  0.00000000000E+00 0. -1.
     999901    1    3    3    0    0 -0.11073823024E+00  0.33762077099E-01  0.31475693763E-01  0.88814050284E+00  0.88000000000E+00 0.  1.
        -11    1    4    4    0    0  0.77827569424E-01 -0.80393553470E-02 -0.40106265896E-01  0.87923463774E-01  0.51100000000E-03 0.  1.
         11    1    4    4    0    0  0.36377871759E-01 -0.20661359023E-01 -0.14232979960E-01  0.44193666401E-01  0.51100000000E-03 0. -1.
</event>
<event>
 8    1  0.1083484E+005  0.1043930E+01  0.7957747E-01            NaN
         13   -1    0    0    0    0  0.00000000000E+00  0.00000000000E+00  0.74505805969E-08  0.10566000000E+00  0.10566000000E+00 0.  1.
     999900   -1    0    0    0    0 -0.00000000000E+00 -0.00000000000E+00 -0.74505805969E-08  0.93827000000E+00  0.93827000000E+00 0.  1.
     999902    2    1    2    0    0  0.13063083338E-02 -0.12959058108E-01  0.21282435346E-01  0.10189783331E+01  0.10186727922E+01 0.  0.
     999903    2    3    3    0    0  0.61634344755E-01  0.23096472365E-01  0.11221278479E+00  0.13150562830E+00  0.19229709158E-01 0.  0.
         14    1    1    2    0    0 -0.13063083338E-02  0.12959058108E-01 -0.21282435346E-01  0.24951666934E-01  0.00000000000E+00 0. -1.
     999901    1    3    3    0    0 -0.60328036421E-01 -0.36055530473E-01 -0.90930349446E-01  0.88747270477E+00  0.88000000000E+00 0.  1.
        -11    1    4    4    0    0  0.21838192459E-01  0.13190520384E-01  0.28297920718E-01  0.38104198140E-01  0.51100000000E-03 0.  1.
         11    1    4    4    0    0  0.39796152296E-01  0.99059519812E-02  0.83914864074E-01  0.93401430159E-01  0.51100000000E-03 0. -1.
</event>
<event>
 8    1  0.1083484E+005  0.1043930E+01  0.7957747E-01            NaN
         13   -1    0    0    0    0  0.00000000000E+00  0.00000000000E+00  0.74505805969E-08  0.10566000000E+00  0.10566000000E+00 0. -1.
     999900   -1    0    0    0    0 -0.00000000000E+00 -0.00000000000E+00 -0.74505805969E-08  0.93827000000E+00  0.93827000000E+00 0. -1.
     999902    2    1    2    0    0  0.17674647667E-01  0.14397169054E-01  0.61186971152E-02  0.10203268201E+01  0.10200537779E+01 0.  0.
     999903    2    3    3    0    0  0.11070059135E+00  0.52045119776E-01 -0.48064100765E-01  0.13296727066E+00  0.20169825689E-01 0.  0.
         14    1    1    2    0    0 -0.17674647667E-01 -0.14397169054E-01 -0.61186971152E-02  0.23603179899E-01  0.00000000000E+00 0. -1.
     999901    1    3    3    0    0 -0.93025943680E-01 -0.37647950722E-01  0.54182797881E-01  0.88735954944E+00  0.88000000000E+00 0. -1.
        -11    1    4    4    0    0  0.55312424374E-01  0.34693730967E-01 -0.32150304474E-01  0.72780646173E-01  0.51100000000E-03 0.  1.
         11    1    4    4    0    0  0.55388166973E-01  0.17351388808E-01 -0.15913796292E-01  0.60186624491E-01  0.51100000000E-03 0. -1.
</event>
<event>
 8    1  0.1083484E+005  0.1043930E+01  0.7957747E-01            NaN
         13   -1    0    0    0    0  0.00000000000E+00  0.00000000000E+00  0.74505805969E-08  0.10566000000E+00  0.10566000000E+00 0. -1.
     999900   -1    0    0    0    0 -0.00000000000E+00 -0.00000000000E+00 -0.74505805969E-08  0.93827000000E+00  0.93827000000E+00 0.  1.
     999902    2    1    2    0    0  0.20188238732E-01 -0.71695299410E-02  0.60628552852E-02  0.10216651093E+01  0.10214224739E+01 0.  0.
     999903    2    3    3    0    0 -0.15173292604E-01 -0.21807261376E-01 -0.12658638640E+00  0.13090109882E+00  0.20129555226E-01 0.  0.
         14    1    1    2    0    0 -0.20188238732E-01  0.71695299410E-02 -0.60628552852E-02  0.22264890678E-01  0.00000000000E+00 0.  1.
     999901    1    3    3    0    0  0.35361531337E-01  0.14637731435E-01  0.13264924169E+00  0.89076401050E+00  0.88000000000E+00 0. -1.
        -11    1    4    4    0    0  0.24470513292E-02 -0.83060293260E-02 -0.62015554520E-01  0.62619232722E-01  0.51100000000E-03 0.  1.
         11    1    4    4    0    0 -0.17620343933E-01 -0.13501232050E-01 -0.64570831882E-01  0.68281866101E-01  0.51100000000E-03 0. -1.
</event>
<event>
 8    1  0.1083484E+005  0.1043930E+01  0.7957747E-01            NaN
         13   -1    0    0    0    0  0.00000000000E+00  0.00000000000E+00  0.74505805969E-08  0.10566000000E+00  0.10566000000E+00 0. -1.
     999900   -1    0    0    0    0 -0.00000000000E+00 -0.00000000000E+00 -0.74505805969E-08  0.93827000000E+00  0.93827000000E+00 0. -1.
     999902    2    1    2    0    0  0.12466138560E-02  0.22097058150E-01  0.55156360746E-02  0.10211208732E+01  0.10208660938E+01 0.  0.
     999903    2    3    3    0    0  0.47103608724E-01 -0.83567426285E-01  0.85416615372E-01  0.13002491104E+00  0.20204321785E-01 0.  0.
         14    1    1    2    0    0 -0.12466138560E-02 -0.22097058150E-01 -0.55156360746E-02  0.22809126820E-01  0.00000000000E+00 0.  1.
     999901    1    3    3    0    0 -0.45856994868E-01  0.10566448443E+00 -0.79900979297E-01  0.89109596214E+00  0.88000000000E+00 0. -1.
        -11    1    4    4    0    0  0.21202344571E-01 -0.38239939808E-01  0.25767406768E-01  0.50754830158E-01  0.51100000000E-03 0.  1.
         11    1    4    4    0    0  0.25901264153E-01 -0.45327486477E-01  0.59649208604E-01  0.79270080883E-01  0.51100000000E-03 0. -1.
</event>
<event>
 8    1  0.1083484E+005  0.1043930E+01  0.7957747E-01            NaN
         13   -1    0    0    0    0  0.00000000000E+00  0.00000000000E+00  0.74505805969E-08  0.10566000000E+00  0.10566000000E+00 0.  1.
     999900   -1    0    0    0    0 -0.00000000000E+00 -0.00000000000E+00 -0.74505805969E-08  0.93827000000E+00  0.93827000000E+00 0. -1.
     999902    2    1    2    0    0  0.62597311418E-02 -0.19630609020E-02  0.23048882821E-01  0.10199656757E+01  0.10196841132E+01 0.  0.
     999903    2    3    3    0    0  0.60929388884E-01  0.53725151604E-01 -0.97029063737E-01  0.12838917207E+00  0.21687737340E-01 0.  0.
         14    1    1    2    0    0 -0.62597311418E-02  0.19630609020E-02 -0.23048882821E-01  0.23964324346E-01  0.00000000000E+00 0. -1.
     999901    1    3    3    0    0 -0.54669657742E-01 -0.55688212506E-01  0.12007794656E+00  0.89157650358E+00  0.88000000000E+00 0.  1.
        -11    1    4    4    0    0  0.40427275219E-01  0.39159767357E-01 -0.80733828983E-01  0.98417804407E-01  0.51100000000E-03 0.  1.
         11    1    4    4    0    0  0.20502113665E-01  0.14565384247E-01 -0.16295234754E-01  0.29971367664E-01  0.51100000000E-03 0. -1.
</event>
<event>
 8    1  0.1083484E+005  0.1043930E+01  0.7957747E-01            NaN
         13   -1    0    0    0    0  0.00000000000E+00  0.00000000000E+00  0.74505805969E-08  0.10566000000E+00  0.10566000000E+00 0.  1.
     999900   -1    0    0    0    0 -0.00000000000E+00 -0.00000000000E+00 -0.74505805969E-08  0.93827000000E+00  0.93827000000E+00 0.  1.
     999902    2    1    2    0    0  0.15418111811E-01 -0.12631955332E-01  0.31169629488E-02  0.10237557608E+01  0.10235569637E+01 0.  0.
     999903    2    3    3    0    0  0.27816652567E-01  0.37997748055E-01  0.12384465706E+00  0.13398485393E+00  0.19921018575E-01 0.  0.
         14    1    1    2    0    0 -0.15418111811E-01  0.12631955332E-01 -0.31169629488E-02  0.20174239152E-01  0.00000000000E+00 0.  1.
     999901    1    3    3    0    0 -0.12398540756E-01 -0.50629703387E-01 -0.12072769412E+00  0.88977090692E+00  0.88000000000E+00 0.  1.
        -11    1    4    4    0    0  0.16723488915E-01  0.12328349816E-01  0.73626994133E-01  0.76503978176E-01  0.51100000000E-03 0. -1.
         11    1    4    4    0    0  0.11093163652E-01  0.25669398239E-01  0.50217662931E-01  0.57480875750E-01  0.51100000000E-03 0.  1.
</event>
<event>
 8    1  0.1083484E+005  0.1043930E+01  0.7957747E-01            NaN
         13   -1    0    0    0    0  0.00000000000E+00  0.00000000000E+00  0.74505805969E-08  0.10566000000E+00  0.10566000000E+00 0. -1.
     999900   -1    0    0    0    0 -0.00000000000E+00 -0.00000000000E+00 -0.74505805969E-08  0.93827000000E+00  0.93827000000E+00 0.  1.
     999902    2    1    2    0    0  0.14205776412E-01  0.10098261920E-01 -0.56544551873E-02  0.10256064676E+01  0.10254427700E+01 0.  0.
     999903    2    3    3    0    0 -0.98085605949E-01 -0.67902290470E-01 -0.56660082744E-01  0.13358908278E+00  0.20104002482E-01 0.  0.
         14    1    1    2    0    0 -0.14205776412E-01 -0.10098261920E-01  0.56544551873E-02  0.18323532431E-01  0.00000000000E+00 0.  1.
     999901    1    3    3    0    0  0.11229138236E+00  0.78000552390E-01  0.51005627557E-01  0.89201738479E+00  0.88000000000E+00 0. -1.
        -11    1    4    4    0    0 -0.87339745804E-01 -0.56623717488E-01 -0.55493953261E-01  0.11795896129E+00  0.51100000000E-03 0.  1.
         11    1    4    4    0    0 -0.10745860144E-01 -0.11278572982E-01 -0.11661294824E-02  0.15630121488E-01  0.51100000000E-03 0. -1.
</event>
<event>
 8    1  0.1083484E+005  0.1043930E+01  0.7957747E-01            NaN
         13   -1    0    0    0    0  0.00000000000E+00  0.00000000000E+00  0.74505805969E-08  0.10566000000E+00  0.10566000000E+00 0. -1.
     999900   -1    0    0    0    0 -0.00000000000E+00 -0.00000000000E+00 -0.74505805969E-08  0.93827000000E+00  0.93827000000E+00 0. -1.
     999902    2    1    2    0    0  0.20147427014E-01 -0.61620333882E-02  0.11139493126E-01  0.10200977156E+01  0.10198192838E+01 0.  0.
     999903    2    3    3    0    0  0.66848614081E-01  0.11060306425E+00  0.11102636819E-01  0.13115728442E+00  0.19421371865E-01 0.  0.
         14    1    1    2    0    0 -0.20147427014E-01  0.61620333882E-02 -0.11139493126E-01  0.23832284361E-01  0.00000000000E+00 0.  1.
     999901    1    3    3    0    0 -0.46701187067E-01 -0.11676509764E+00  0.36856306492E-04  0.88894043122E+00  0.88000000000E+00 0. -1.
        -11    1    4    4    0    0  0.27852047154E-01  0.35125661620E-01 -0.34444557335E-02  0.44963029604E-01  0.51100000000E-03 0. -1.
         11    1    4    4    0    0  0.38996566927E-01  0.75477402632E-01  0.14547092553E-01  0.86194254814E-01  0.51100000000E-03 0.  1.
</event>
<event>
 8    1  0.1083484E+005  0.1043930E+01  0.7957747E-01            NaN
         13   -1    0    0    0    0  0.00000000000E+00  0.00000000000E+00  0.74505805969E-08  0.10566000000E+00  0.10566000000E+00 0. -1.
     999900   -1    0    0    0    0 -0.00000000000E+00 -0.00000000000E+00 -0.74505805969E-08  0.93827000000E+00  0.93827000000E+00 0. -1.
     999902    2    1    2    0    0 -0.21379677512E-01  0.57157102357E-02 -0.79147536521E-02  0.10204267390E+01  0.10201560304E+01 0.  0.
     999903    2    3    3    0    0  0.24056220188E-01  0.12568877798E+00  0.18004220839E-01  0.13074716124E+00  0.19856927372E-01 0.  0.
         14    1    1    2    0    0  0.21379677512E-01 -0.57157102357E-02  0.79147536521E-02  0.23503261038E-01  0.00000000000E+00 0. -1.
     999901    1    3    3    0    0 -0.45435897700E-01 -0.11997306774E+00 -0.25918974491E-01  0.88967957773E+00  0.88000000000E+00 0. -1.
        -11    1    4    4    0    0  0.23138857791E-01  0.10572857800E+00  0.83607010475E-02  0.10855460095E+00  0.51100000000E-03 0. -1.
         11    1    4    4    0    0  0.91736239681E-03  0.19960199981E-01  0.96435197918E-02  0.22192560285E-01  0.51100000000E-03 0.  1.
</event>
<event>
 8    1  0.1083484E+005  0.1043930E+01  0.7957747E-01            NaN
         13   -1    0    0    0    0  0.00000000000E+00  0.00000000000E+00  0.74505805969E-08  0.10566000000E+00  0.10566000000E+00 0.  1.
     999900   -1    0    0    0    0 -0.00000000000E+00 -0.00000000000E+00 -0.74505805969E-08  0.93827000000E+00  0.93827000000E+00 0.  1.
     999902    2    1    2    0    0 -0.13938287362E-01  0.14754029528E-01  0.90237461618E-02  0.10217177233E+01  0.10214762459E+01 0.  0.
     999903    2    3    3    0    0 -0.10168930869E+00 -0.55171899285E-02  0.84897722965E-01  0.13387312853E+00  0.18526637392E-01 0.  0.
         14    1    1    2    0    0  0.13938287362E-01 -0.14754029528E-01 -0.90237461618E-02  0.22212276711E-01  0.00000000000E+00 0. -1.
     999901    1    3    3    0    0  0.87751021323E-01  0.20271219456E-01 -0.75873976803E-01  0.88784459476E+00  0.88000000000E+00 0.  1.
        -11    1    4    4    0    0 -0.75533561843E-01  0.37405819830E-02  0.59062007102E-01  0.95957765305E-01  0.51100000000E-03 0. -1.
         11    1    4    4    0    0 -0.26155746842E-01 -0.92577719115E-02  0.25835715862E-01  0.37915363228E-01  0.51100000000E-03 0.  1.
</event>
<event>
 8    1  0.1193448E+005  0.1043930E+01  0.7957747E-01            NaN
         13   -1    0    0    0    0  0.00000000000E+00  0.00000000000E+00  0.74505805969E-08  0.10566000000E+00  0.10566000000E+00 0.  1.
     999900   -1    0    0    0    0 -0.00000000000E+00 -0.00000000000E+00 -0.74505805969E-08  0.93827000000E+00  0.93827000000E+00 0. -1.
     999902    2    1    2    0    0  0.67323106068E-02 -0.15418328572E-01  0.17217250721E-01  0.10198575555E+01  0.10195734161E+01 0.  0.
     999903    2    3    3    0    0  0.12834040467E+00 -0.21786072899E-01  0.11355190794E-02  0.13132635244E+00  0.17304016840E-01 0.  0.
         14    1    1    2    0    0 -0.67323106068E-02  0.15418328572E-01 -0.17217250721E-01  0.24072444505E-01  0.00000000000E+00 0. -1.
     999901    1    3    3    0    0 -0.12160809406E+00  0.63677443268E-02  0.16081731641E-01  0.88853120305E+00  0.88000000000E+00 0.  1.
        -11    1    4    4    0    0  0.81072629692E-01 -0.22064047893E-01 -0.55513197840E-03  0.84024774841E-01  0.51100000000E-03 0. -1.
         11    1    4    4    0    0  0.47267774977E-01  0.27797499471E-03  0.16906510578E-02  0.47301577600E-01  0.51100000000E-03 0.  1.
</event>
<event>
 8    1  0.1083484E+005  0.1043930E+01  0.7957747E-01            NaN
         13   -1    0    0    0    0  0.00000000000E+00  0.00000000000E+00  0.74505805969E-08  0.10566000000E+00  0.10566000000E+00 0.  1.
     999900   -1    0    0    0    0 -0.00000000000E+00 -0.00000000000E+00 -0.74505805969E-08  0.93827000000E+00  0.93827000000E+00 0. -1.
     999902    2    1    2    0    0 -0.12989277790E-01 -0.13534472338E-01  0.15945891456E-01  0.10193093840E+01  0.10190119948E+01 0.  0.
     999903    2    3    3    0    0 -0.12006121968E+00  0.43101944861E-01 -0.18648319020E-01  0.13033871861E+00  0.19181961441E-01 0.  0.
         14    1    1    2    0    0  0.12989277790E-01  0.13534472338E-01 -0.15945891456E-01  0.24620616022E-01  0.00000000000E+00 0. -1.
     999901    1    3    3    0    0  0.10707194189E+00 -0.56636417198E-01  0.34594210477E-01  0.88897066537E+00  0.88000000000E+00 0.  1.
        -11    1    4    4    0    0 -0.85886898047E-01  0.23701280242E-01 -0.71222455208E-02  0.89382869967E-01  0.51100000000E-03 0. -1.
         11    1    4    4    0    0 -0.34174321630E-01  0.19400664619E-01 -0.11526073500E-01  0.40955848640E-01  0.51100000000E-03 0.  1.
</event>
<event>
 8    1  0.1083484E+005  0.1043930E+01  0.7957747E-01            NaN
         13   -1    0    0    0    0  0.00000000000E+00  0.00000000000E+00  0.74505805969E-08  0.10566000000E+00  0.10566000000E+00 0.  1.
     999900   -1    0    0    0    0 -0.00000000000E+00 -0.00000000000E+00 -0.74505805969E-08  0.93827000000E+00  0.93827000000E+00 0.  1.
     999902    2    1    2    0    0 -0.16424573187E-01  0.11834682588E-01  0.14157582233E-01  0.10192264891E+01  0.10189270693E+01 0.  0.
     999903    2    3    3    0    0 -0.99580781130E-01 -0.74715784221E-01 -0.30800725636E-01  0.12994183969E+00  0.20914507399E-01 0.  0.
         14    1    1    2    0    0  0.16424573187E-01 -0.11834682588E-01 -0.14157582233E-01  0.24703510905E-01  0.00000000000E+00 0. -1.
     999901    1    3    3    0    0  0.83156207943E-01  0.86550466809E-01  0.44958307869E-01  0.88928464941E+00  0.88000000000E+00 0.  1.
        -11    1    4    4    0    0 -0.33061423136E-01 -0.23364740454E-01 -0.20179110308E-01  0.45237444778E-01  0.51100000000E-03 0. -1.
         11    1    4    4    0    0 -0.66519357995E-01 -0.51351043766E-01 -0.10621615327E-01  0.84704394910E-01  0.51100000000E-03 0.  1.
</event>
<event>
 8    1  0.1083484E+005  0.1043930E+01  0.7957747E-01            NaN
         13   -1    0    0    0    0  0.00000000000E+00  0.00000000000E+00  0.74505805969E-08  0.10566000000E+00  0.10566000000E+00 0. -1.
     999900   -1    0    0    0    0 -0.00000000000E+00 -0.00000000000E+00 -0.74505805969E-08  0.93827000000E+00  0.93827000000E+00 0.  1.
     999902    2    1    2    0    0 -0.34713298345E-02  0.79875177316E-02 -0.21584911818E-01  0.10206542833E+01  0.10203888509E+01 0.  0.
     999903    2    3    3    0    0 -0.62124783841E-01 -0.76968033067E-01  0.80214582323E-01  0.12879061081E+00  0.19211333466E-01 0.  0.
         14    1    1    2    0    0  0.34713298345E-02 -0.79875177316E-02  0.21584911818E-01  0.23275716714E-01  0.00000000000E+00 0. -1.
     999901    1    3    3    0    0  0.58653454007E-01  0.84955550799E-01 -0.10179949414E+00  0.89186367248E+00  0.88000000000E+00 0.  1.
        -11    1    4    4    0    0 -0.37548242815E-01 -0.59292246350E-01  0.60503290219E-01  0.92662561286E-01  0.51100000000E-03 0. -1.
         11    1    4    4    0    0 -0.24576541026E-01 -0.17675786718E-01  0.19711292104E-01  0.36128049522E-01  0.51100000000E-03 0.  1.
</event>
<event>
 8    1  0.1083484E+005  0.1043930E+01  0.7957747E-01            NaN
         13   -1    0    0    0    0  0.00000000000E+00  0.00000000000E+00  0.74505805969E-08  0.10566000000E+00  0.10566000000E+00 0. -1.
     999900   -1    0    0    0    0 -0.00000000000E+00 -0.00000000000E+00 -0.74505805969E-08  0.93827000000E+00  0.93827000000E+00 0.  1.
     999902    2    1    2    0    0  0.23134174735E-01  0.34340357821E-02 -0.14975370863E-03  0.10205418605E+01  0.10202738279E+01 0.  0.
     999903    2    3    3    0    0  0.12742729558E+00 -0.36094204873E-01  0.13329549641E-03  0.13350205477E+00  0.16800999190E-01 0.  0.
         14    1    1    2    0    0 -0.23134174735E-01 -0.34340357821E-02  0.14975370863E-03  0.23388139486E-01  0.00000000000E+00 0.  1.
     999901    1    3    3    0    0 -0.10429312085E+00  0.39528240655E-01 -0.28304920504E-03  0.88703980575E+00  0.88000000000E+00 0.  1.
        -11    1    4    4    0    0  0.83683453249E-01 -0.21993985067E-01 -0.77287342305E-02  0.86871457802E-01  0.51100000000E-03 0. -1.
         11    1    4    4    0    0  0.43743842335E-01 -0.14100219806E-01  0.78620297269E-02  0.46630596964E-01  0.51100000000E-03 0.  1.
</event>
<event>
 8    1  0.1083484E+005  0.1043930E+01  0.7957747E-01            NaN
         13   -1    0    0    0    0  0.00000000000E+00  0.00000000000E+00  0.74505805969E-08  0.10566000000E+00  0.10566000000E+00 0. -1.
     999900   -1    0    0    0    0 -0.00000000000E+00 -0.00000000000E+00 -0.74505805969E-08  0.93827000000E+00  0.93827000000E+00 0.  1.
     999902    2    1    2    0    0 -0.72369710103E-02 -0.22035804883E-01 -0.49427997324E-02  0.10202154113E+01  0.10199397550E+01 0.  0.
     999903    2    3    3    0    0  0.12115844614E+00  0.37091314289E-01 -0.17051247008E-01  0.12885240231E+00  0.16033149746E-01 0.  0.
         14    1    1    2    0    0  0.72369710103E-02  0.22035804883E-01  0.49427997324E-02  0.23714588663E-01  0.00000000000E+00 0.  1.
     999901    1    3    3    0    0 -0.12839541715E+00 -0.59127119172E-01  0.12108447276E-01  0.89136300903E+00  0.88000000000E+00 0. -1.
        -11    1    4    4    0    0  0.47381834190E-01  0.18294356082E-01  0.16989680033E-03  0.50793815190E-01  0.51100000000E-03 0. -1.
         11    1    4    4    0    0  0.73776611947E-01  0.18796958207E-01 -0.17221143809E-01  0.78058587120E-01  0.51100000000E-03 0.  1.
</event>
<event>
 8    1  0.1083484E+005  0.1043930E+01  0.7957747E-01            NaN
         13   -1    0    0    0    0  0.00000000000E+00  0.00000000000E+00  0.74505805969E-08  0.10566000000E+00  0.10566000000E+00 0. -1.
     999900   -1    0    0    0    0 -0.00000000000E+00 -0.00000000000E+00 -0.74505805969E-08  0.93827000000E+00  0.93827000000E+00 0. -1.
     999902    2    1    2    0    0 -0.84521368431E-02  0.22475095919E-01  0.34121669411E-02  0.10196769293E+01  0.10193884582E+01 0.  0.
     999903    2    3    3    0    0  0.10227159602E+00 -0.44795763681E-01  0.60018973848E-01  0.12839165280E+00  0.20396065563E-01 0.  0.
         14    1    1    2    0    0  0.84521368431E-02 -0.22475095919E-01 -0.34121669411E-02  0.24253070672E-01  0.00000000000E+00 0. -1.
     999901    1    3    3    0    0 -0.11072373286E+00  0.67270859601E-01 -0.56606806907E-01  0.89128527653E+00  0.88000000000E+00 0. -1.
        -11    1    4    4    0    0  0.16248507175E-01 -0.44622713421E-02  0.17506357197E-01  0.24303487697E-01  0.51100000000E-03 0.  1.
         11    1    4    4    0    0  0.86023088844E-01 -0.40333492339E-01  0.42512616650E-01  0.10408816510E+00  0.51100000000E-03 0. -1.
</event>
<event>
 8    1  0.1083484E+005  0.1043930E+01  0.7957747E-01            NaN
         13   -1    0    0    0    0  0.00000000000E+00  0.00000000000E+00  0.74505805969E-08  0.10566000000E+00  0.10566000000E+00 0. -1.
     999900   -1    0    0    0    0 -0.00000000000E+00 -0.00000000000E+00 -0.74505805969E-08  0.93827000000E+00  0.93827000000E+00 0. -1.
     999902    2    1    2    0    0  0.12886648522E-01 -0.19420277203E-01 -0.47311938624E-02  0.10201477152E+01  0.10198704642E+01 0.  0.
     999903    2    3    3    0    0 -0.11844774730E+00  0.33543653481E-01  0.29676379506E-01  0.12816241114E+00  0.19745141198E-01 0.  0.
         14    1    1    2    0    0 -0.12886648522E-01  0.19420277203E-01  0.47311938624E-02  0.23782284838E-01  0.00000000000E+00 0.  1.
     999901    1    3    3    0    0  0.13133439582E+00 -0.52963930684E-01 -0.34407573369E-01  0.89198530402E+00  0.88000000000E+00 0.  1.
        -11    1    4    4    0    0 -0.31330031715E-01  0.74811104929E-04  0.84063795839E-02  0.32442330722E-01  0.51100000000E-03 0. -1.
         11    1    4    4    0    0 -0.87117715583E-01  0.33468842376E-01  0.21269999922E-01  0.95720080422E-01  0.51100000000E-03 0.  1.
</event>
<event>
 8    1  0.1083484E+005  0.1043930E+01  0.7957747E-01            NaN
         13   -1    0    0    0    0  0.00000000000E+00  0.00000000000E+00  0.74505805969E-08  0.10566000000E+00  0.10566000000E+00 0. -1.
     999900   -1    0    0    0    0 -0.00000000000E+00 -0.00000000000E+00 -0.74505805969E-08  0.93827000000E+00  0.93827000000E+00 0. -1.
     999902    2    1    2    0    0  0.22101586224E-01  0.60285542931E-02 -0.70808994754E-02  0.10199516198E+01  0.10196697230E+01 0.  0.
     999903    2    3    3    0    0 -0.44019437366E-01 -0.33333763963E-01  0.11358719855E+00  0.12838997203E+00  0.23088580677E-01 0.  0.
         14    1    1    2    0    0 -0.22101586224E-01 -0.60285542931E-02  0.70808994754E-02  0.23978380218E-01  0.00000000000E+00 0. -1.
     999901    1    3    3    0    0  0.66121023590E-01  0.39362318257E-01 -0.12066809803E+00  0.89156164775E+00  0.88000000000E+00 0. -1.
        -11    1    4    4    0    0 -0.40645522955E-01 -0.36726477667E-01  0.10726611497E+00  0.12044572736E+00  0.51100000000E-03 0.  1.
         11    1    4    4    0    0 -0.33739144113E-02  0.33927137037E-02  0.63210835821E-02  0.79442446704E-02  0.51100000000E-03 0. -1.
</event>
<event>
 8    1  0.1083484E+005  0.1043930E+01  0.7957747E-01            NaN
         13   -1    0    0    0    0  0.00000000000E+00  0.00000000000E+00  0.74505805969E-08  0.10566000000E+00  0.10566000000E+00 0.  1.
     999900   -1    0    0    0    0 -0.00000000000E+00 -0.00000000000E+00 -0.74505805969E-08  0.93827000000E+00  0.93827000000E+00 0.  1.
     999902    2    1    2    0    0  0.23091226985E-01  0.27693455859E-02  0.35197160560E-02  0.10204084686E+01  0.10201373341E+01 0.  0.
     999903    2    3    3    0    0  0.72272140723E-01  0.99590007592E-01 -0.44578439955E-01  0.13242962004E+00  0.20222141775E-01 0.  0.
         14    1    1    2    0    0 -0.23091226985E-01 -0.27693455859E-02 -0.35197160560E-02  0.23521531408E-01  0.00000000000E+00 0.  1.
     999901    1    3    3    0    0 -0.49180913738E-01 -0.96820662006E-01  0.48098156011E-01  0.88797884855E+00  0.88000000000E+00 0. -1.
        -11    1    4    4    0    0  0.35727636013E-01  0.64224364106E-01 -0.31190222106E-01  0.79839363699E-01  0.51100000000E-03 0.  1.
         11    1    4    4    0    0  0.36544504710E-01  0.35365643486E-01 -0.13388217849E-01  0.52590256339E-01  0.51100000000E-03 0. -1.
</event>
<event>
 8    1  0.1083484E+005  0.1043930E+01  0.7957747E-01            NaN
         13   -1    0    0    0    0  0.00000000000E+00  0.00000000000E+00  0.74505805969E-08  0.10566000000E+00  0.10566000000E+00 0. -1.
     999900   -1    0    0    0    0 -0.00000000000E+00 -0.00000000000E+00 -0.74505805969E-08  0.93827000000E+00  0.93827000000E+00 0. -1.
     999902    2    1    2    0    0 -0.16613980740E-01  0.63709486637E-02 -0.15999021964E-01  0.10200013133E+01  0.10197205976E+01 0.  0.
     999903    2    3    3    0    0 -0.66245527384E-01  0.11250461626E-01 -0.11326869041E+00  0.13323838644E+00  0.20189814520E-01 0.  0.
         14    1    1    2    0    0  0.16613980740E-01 -0.63709486637E-02  0.15999021964E-01  0.23928686690E-01  0.00000000000E+00 0. -1.
     999901    1    3    3    0    0  0.49631546644E-01 -0.48795129620E-02  0.97269668442E-01  0.88676292687E+00  0.88000000000E+00 0.  1.
        -11    1    4    4    0    0 -0.16662286276E-01  0.66480984293E-02 -0.47251075177E-01  0.50544576594E-01  0.51100000000E-03 0.  1.
         11    1    4    4    0    0 -0.49583241108E-01  0.46023631964E-02 -0.66017615229E-01  0.82693809848E-01  0.51100000000E-03 0. -1.
</event>
<event>
 8    1  0.1083484E+005  0.1043930E+01  0.7957747E-01            NaN
         13   -1    0    0    0    0  0.00000000000E+00  0.00000000000E+00  0.74505805969E-08  0.10566000000E+00  0.10566000000E+00 0.  1.
     999900   -1    0    0    0    0 -0.00000000000E+00 -0.00000000000E+00 -0.74505805969E-08  0.93827000000E+00  0.93827000000E+00 0. -1.
     999902    2    1    2    0    0 -0.24423125544E-01 -0.44632220027E-02  0.91138169850E-02  0.10174824846E+01  0.10171387002E+01 0.  0.
     999903    2    3    3    0    0  0.25729551824E-01 -0.59580175443E-01  0.10931527391E+00  0.12866669850E+00  0.19836407230E-01 0.  0.
         14    1    1    2    0    0  0.24423125544E-01  0.44632220027E-02 -0.91138169850E-02  0.26447515423E-01  0.00000000000E+00 0. -1.
     999901    1    3    3    0    0 -0.50152677368E-01  0.55116953440E-01 -0.10020145692E+00  0.88881578607E+00  0.88000000000E+00 0. -1.
        -11    1    4    4    0    0  0.69779677960E-02 -0.23082298944E-01  0.58995608648E-01  0.63735606374E-01  0.51100000000E-03 0. -1.
         11    1    4    4    0    0  0.18751584028E-01 -0.36497876498E-01  0.50319665259E-01  0.64931092130E-01  0.51100000000E-03 0.  1.
</event>
<event>
 8    1  0.1083484E+005  0.1043930E+01  0.7957747E-01            NaN
         13   -1    0    0    0    0  0.00000000000E+00  0.00000000000E+00  0.74505805969E-08  0.10566000000E+00  0.10566000000E+00 0. -1.
     999900   -1    0    0    0    0 -0.00000000000E+00 -0.00000000000E+00 -0.74505805969E-08  0.93827000000E+00  0.93827000000E+00 0. -1.
     999902    2    1    2    0    0 -0.11969393468E-01 -0.18175105816E-01  0.93644947093E-02  0.10202383430E+01  0.10199632257E+01 0.  0.
     999903    2    3    3    0    0 -0.52208098779E-01 -0.10430251409E+00 -0.59541223565E-01  0.13244045952E+00  0.19764058021E-01 0.  0.
         14    1    1    2    0    0  0.11969393468E-01  0.18175105816E-01 -0.93644947093E-02  0.23691657025E-01  0.00000000000E+00 0.  1.
     999901    1    3    3    0    0  0.40238705311E-01  0.86127408277E-01  0.68905718274E-01  0.88779788346E+00  0.88000000000E+00 0.  1.
        -11    1    4    4    0    0 -0.19146940275E-01 -0.60115803419E-01 -0.32972923760E-01  0.71189816441E-01  0.51100000000E-03 0.  1.
         11    1    4    4    0    0 -0.33061158504E-01 -0.44186710673E-01 -0.26568299804E-01  0.61250643076E-01  0.51100000000E-03 0. -1.
</event>
<event>
 8    1  0.1083484E+005  0.1043930E+01  0.7957747E-01            NaN
         13   -1    0    0    0    0  0.00000000000E+00  0.00000000000E+00  0.74505805969E-08  0.10566000000E+00  0.10566000000E+00 0.  1.
     999900   -1    0    0    0    0 -0.00000000000E+00 -0.00000000000E+00 -0.74505805969E-08  0.93827000000E+00  0.93827000000E+00 0. -1.
     999902    2    1    2    0    0 -0.15141473291E-01  0.18824461230E-01  0.42952300086E-02  0.10193928128E+01  0.10190974601E+01 0.  0.
     999903    2    3    3    0    0  0.37609032367E-01  0.96459202094E-01  0.78246699980E-01  0.13131703410E+00  0.20069887951E-01 0.  0.
         14    1    1    2    0    0  0.15141473291E-01 -0.18824461230E-01 -0.42952300086E-02  0.24537187183E-01  0.00000000000E+00 0.  1.
     999901    1    3    3    0    0 -0.52750505658E-01 -0.77634740864E-01 -0.73951469972E-01  0.88807577872E+00  0.88000000000E+00 0. -1.
        -11    1    4    4    0    0 -0.14000997941E-02  0.13987447559E-01  0.12994641212E-01  0.19150216445E-01  0.51100000000E-03 0.  1.
         11    1    4    4    0    0  0.39009132161E-01  0.82471754535E-01  0.65252058768E-01  0.11216681765E+00  0.51100000000E-03 0. -1.
</event>
<event>
 8    1  0.1083484E+005  0.1043930E+01  0.7957747E-01            NaN
         13   -1    0    0    0    0  0.00000000000E+00  0.00000000000E+00  0.74505805969E-08  0.10566000000E+00  0.10566000000E+00 0. -1.
     999900   -1    0    0    0    0 -0.00000000000E+00 -0.00000000000E+00 -0.74505805969E-08  0.93827000000E+00  0.93827000000E+00 0. -1.
     999902    2    1    2    0    0 -0.76990528978E-02 -0.48220460525E-02 -0.21336874985E-01  0.10207397051E+01  0.10204762397E+01 0.  0.
     999903    2    3    3    0    0 -0.10845248577E+00 -0.20002876744E-02  0.69588614655E-01  0.13033156204E+00  0.19437025304E-01 0.  0.
         14    1    1    2    0    0  0.76990528978E-02  0.48220460525E-02  0.21336874985E-01  0.23190294905E-01  0.00000000000E+00 0. -1.
     999901    1    3    3    0    0  0.10075343287E+00 -0.28217583782E-02 -0.90925489640E-01  0.89040814306E+00  0.88000000000E+00 0.  1.
        -11    1    4    4    0    0 -0.20203687918E-01 -0.37307516386E-02  0.21791465872E-01  0.29953908245E-01  0.51100000000E-03 0.  1.
         11    1    4    4    0    0 -0.88248797854E-01  0.17304639642E-02  0.47797148783E-01  0.10037765379E+00  0.51100000000E-03 0. -1.
</event>
<event>
 8    1  0.1083484E+005  0.1043930E+01  0.7957747E-01            NaN
         13   -1    0    0    0    0  0.00000000000E+00  0.00000000000E+00  0.74505805969E-08  0.10566000000E+00  0.10566000000E+00 0.  1.
     999900   -1    0    0    0    0 -0.00000000000E+00 -0.00000000000E+00 -0.74505805969E-08  0.93827000000E+00  0.93827000000E+00 0. -1.
     999902    2    1    2    0    0  0.23638053260E-01 -0.21801902367E-02 -0.50104239996E-02  0.10196686080E+01  0.10193799366E+01 0.  0.
     999903    2    3    3    0    0 -0.89434702245E-01 -0.86979842734E-01  0.20003355907E-01  0.12803969515E+00  0.20735724731E-01 0.  0.
         14    1    1    2    0    0 -0.23638053260E-01  0.21801902367E-02  0.50104239996E-02  0.24261391964E-01  0.00000000000E+00 0. -1.
     999901    1    3    3    0    0  0.11307275550E+00  0.84799652497E-01 -0.25013779906E-01  0.89162891288E+00  0.88000000000E+00 0.  1.
        -11    1    4    4    0    0 -0.11985987008E-01 -0.85257409351E-02  0.89930090218E-02  0.17247825234E-01  0.51100000000E-03 0. -1.
         11    1    4    4    0    0 -0.77448715237E-01 -0.78454101798E-01  0.11010346885E-01  0.11079186992E+00  0.51100000000E-03 0.  1.
</event>
<event>
 8    1  0.1083484E+005  0.1043930E+01  0.7957747E-01            NaN
         13   -1    0    0    0    0  0.00000000000E+00  0.00000000000E+00  0.74505805969E-08  0.10566000000E+00  0.10566000000E+00 0. -1.
     999900   -1    0    0    0    0 -0.00000000000E+00 -0.00000000000E+00 -0.74505805969E-08  0.93827000000E+00  0.93827000000E+00 0.  1.
     999902    2    1    2    0    0  0.84207206487E-02  0.19457151100E-01 -0.45784981040E-02  0.10222400966E+01  0.10220099624E+01 0.  0.
     999903    2    3    3    0    0 -0.50371119067E-01  0.34419390018E-01  0.11533992558E+00  0.13203743576E+00  0.20214894604E-01 0.  0.
         14    1    1    2    0    0 -0.84207206487E-02 -0.19457151100E-01  0.45784981040E-02  0.21689903413E-01  0.00000000000E+00 0. -1.
     999901    1    3    3    0    0  0.58791839716E-01 -0.14962238918E-01 -0.11991842368E+00  0.89020266083E+00  0.88000000000E+00 0.  1.
        -11    1    4    4    0    0 -0.27244463632E-01  0.11490983653E-01  0.71892867537E-01  0.77737693737E-01  0.51100000000E-03 0. -1.
         11    1    4    4    0    0 -0.23126655435E-01  0.22928406365E-01  0.43447058041E-01  0.54299742020E-01  0.51100000000E-03 0.  1.
</event>
<event>
 8    1  0.1368110E+005  0.1043930E+01  0.7957747E-01            NaN
         13   -1    0    0    0    0  0.00000000000E+00  0.00000000000E+00  0.74505805969E-08  0.10566000000E+00  0.10566000000E+00 0.  1.
     999900   -1    0    0    0    0 -0.00000000000E+00 -0.00000000000E+00 -0.74505805969E-08  0.93827000000E+00  0.93827000000E+00 0.  1.
     999902    2    1    2    0    0 -0.61729476157E-02  0.17664087997E-01 -0.16094115842E-01  0.10192491197E+01  0.10189502550E+01 0.  0.
     999903    2    3    3    0    0 -0.80744324594E-02 -0.42323326801E-02 -0.12977106833E+00  0.13166502882E+00  0.20298781702E-01 0.  0.
         14    1    1    2    0    0  0.61729476157E-02 -0.17664087997E-01  0.16094115842E-01  0.24680880288E-01  0.00000000000E+00 0.  1.
     999901    1    3    3    0    0  0.19014848436E-02  0.21896420678E-01  0.11367695249E+00  0.88758409090E+00  0.88000000000E+00 0. -1.
        -11    1    4    4    0    0 -0.12331517018E-01 -0.74566456061E-02 -0.60838154592E-01  0.62523675922E-01  0.51100000000E-03 0.  1.
         11    1    4    4    0    0  0.42570845591E-02  0.32243129259E-02 -0.68932913738E-01  0.69141352895E-01  0.51100000000E-03 0. -1.
</event>
<event>
 8    1  0.1083484E+005  0.1043930E+01  0.7957747E-01            NaN
         13   -1    0    0    0    0  0.00000000000E+00  0.00000000000E+00  0.74505805969E-08  0.10566000000E+00  0.10566000000E+00 0. -1.
     999900   -1    0    0    0    0 -0.00000000000E+00 -0.00000000000E+00 -0.74505805969E-08  0.93827000000E+00  0.93827000000E+00 0.  1.
     999902    2    1    2    0    0  0.20842155345E-01 -0.11854763595E-02  0.10422062109E-01  0.10205971868E+01  0.10203304355E+01 0.  0.
     999903    2    3    3    0    0 -0.89396746069E-01  0.77357520489E-01  0.48467586090E-01  0.12943554060E+00  0.20699953775E-01 0.  0.
         14    1    1    2    0    0 -0.20842155345E-01  0.11854763595E-02 -0.10422062109E-01  0.23332813209E-01  0.00000000000E+00 0.  1.
     999901    1    3    3    0    0  0.11023890141E+00 -0.78542996848E-01 -0.38045523980E-01  0.89116164619E+00  0.88000000000E+00 0.  1.
        -11    1    4    4    0    0 -0.52535583728E-01  0.33916551692E-01  0.31300147389E-01  0.69930539708E-01  0.51100000000E-03 0.  1.
         11    1    4    4    0    0 -0.36861162341E-01  0.43440968796E-01  0.17167438701E-01  0.59505000897E-01  0.51100000000E-03 0. -1.
</event>
<event>
 8    1  0.1083484E+005  0.1043930E+01  0.7957747E-01            NaN
         13   -1    0    0    0    0  0.00000000000E+00  0.00000000000E+00  0.74505805969E-08  0.10566000000E+00  0.10566000000E+00 0.  1.
     999900   -1    0    0    0    0 -0.00000000000E+00 -0.00000000000E+00 -0.74505805969E-08  0.93827000000E+00  0.93827000000E+00 0.  1.
     999902    2    1    2    0    0 -0.17871534809E-01 -0.15682456096E-02  0.15195823529E-01  0.10204190620E+01  0.10201481745E+01 0.  0.
     999903    2    3    3    0    0  0.77541579153E-01 -0.25799396788E-01 -0.96322875858E-01  0.12793531916E+00  0.20274222625E-01 0.  0.
         14    1    1    2    0    0  0.17871534809E-01  0.15682456096E-02 -0.15195823529E-01  0.23510937953E-01  0.00000000000E+00 0. -1.
     999901    1    3    3    0    0 -0.95413113962E-01  0.24231151178E-01  0.11151869939E+00  0.89248374289E+00  0.88000000000E+00 0.  1.
        -11    1    4    4    0    0  0.51081010008E-01 -0.11003415322E-01 -0.72531546591E-01  0.89394804681E-01  0.51100000000E-03 0. -1.
         11    1    4    4    0    0  0.26460569145E-01 -0.14795981466E-01 -0.23791329267E-01  0.38540514479E-01  0.51100000000E-03 0.  1.
</event>
<event>
 8    1  0.1083484E+005  0.1043930E+01  0.7957747E-01            NaN
         13   -1    0    0    0    0  0.00000000000E+00  0.00000000000E+00  0.74505805969E-08  0.10566000000E+00  0.10566000000E+00 0.  1.
     999900   -1    0    0    0    0 -0.00000000000E+00 -0.00000000000E+00 -0.74505805969E-08  0.93827000000E+00  0.93827000000E+00 0. -1.
     999902    2    1    2    0    0  0.76176113679E-02 -0.19634321810E-01  0.46126129491E-02  0.10223705289E+01  0.10221431835E+01 0.  0.
     999903    2    3    3    0    0  0.44649779393E-01 -0.12469630424E+00  0.16852035187E-01  0.13526331718E+00  0.21665705482E-01 0.  0.
         14    1    1    2    0    0 -0.76176113679E-02  0.19634321810E-01 -0.46126129491E-02  0.21559471100E-01  0.00000000000E+00 0. -1.
     999901    1    3    3    0    0 -0.37032168025E-01  0.10506198243E+00 -0.12239422238E-01  0.88710721172E+00  0.88000000000E+00 0.  1.
        -11    1    4    4    0    0  0.31769161658E-01 -0.77852715680E-01  0.78434626183E-03  0.84090435195E-01  0.51100000000E-03 0. -1.
         11    1    4    4    0    0  0.12880617735E-01 -0.46843588563E-01  0.16067688926E-01  0.51172881989E-01  0.51100000000E-03 0.  1.
</event>
<event>
 8    1  0.1083484E+005  0.1043930E+01  0.7957747E-01            NaN
         13   -1    0    0    0    0  0.00000000000E+00  0.00000000000E+00  0.74505805969E-08  0.10566000000E+00  0.10566000000E+00 0. -1.
     999900   -1    0    0    0    0 -0.00000000000E+00 -0.00000000000E+00 -0.74505805969E-08  0.93827000000E+00  0.93827000000E+00 0.  1.
     999902    2    1    2    0    0  0.14611136550E-01  0.15358299332E-01  0.45169532057E-02  0.10222559248E+01  0.10220261299E+01 0.  0.
     999903    2    3    3    0    0  0.12581384036E+00 -0.55699102677E-02  0.38197531669E-01  0.13437169098E+00  0.27139520716E-01 0.  0.
         14    1    1    2    0    0 -0.14611136550E-01 -0.15358299332E-01 -0.45169532057E-02  0.21674075203E-01  0.00000000000E+00 0.  1.
     999901    1    3    3    0    0 -0.11120270381E+00  0.20928209599E-01 -0.33680578463E-01  0.88788423382E+00  0.88000000000E+00 0. -1.
        -11    1    4    4    0    0  0.79668440989E-01 -0.41915216273E-02  0.10334901059E-01  0.80446880885E-01  0.51100000000E-03 0. -1.
         11    1    4    4    0    0  0.46145399372E-01 -0.13783886404E-02  0.27862630609E-01  0.53924810096E-01  0.51100000000E-03 0.  1.
</event>
<event>
 8    1  0.1083484E+005  0.1043930E+01  0.7957747E-01            NaN
         13   -1    0    0    0    0  0.00000000000E+00  0.00000000000E+00  0.74505805969E-08  0.10566000000E+00  0.10566000000E+00 0. -1.
     999900   -1    0    0    0    0 -0.00000000000E+00 -0.00000000000E+00 -0.74505805969E-08  0.93827000000E+00  0.93827000000E+00 0.  1.
     999902    2    1    2    0    0  0.20094088361E-01  0.16017821051E-01  0.71604827058E-02  0.10172538779E+01  0.10169040449E+01 0.  0.
     999903    2    3    3    0    0 -0.47496500376E-01  0.48024818701E-01 -0.10542591741E+00  0.12693447842E+00  0.20867127017E-01 0.  0.
         14    1    1    2    0    0 -0.20094088361E-01 -0.16017821051E-01 -0.71604827058E-02  0.26676122111E-01  0.00000000000E+00 0. -1.
     999901    1    3    3    0    0  0.67590588737E-01 -0.32006997649E-01  0.11258640012E+00  0.89031939947E+00  0.88000000000E+00 0. -1.
        -11    1    4    4    0    0 -0.76675991689E-03  0.64679660267E-02 -0.20168206224E-01  0.21200003976E-01  0.51100000000E-03 0. -1.
         11    1    4    4    0    0 -0.46729740460E-01  0.41556852674E-01 -0.85257711187E-01  0.10573447444E+00  0.51100000000E-03 0.  1.
</event>
<event>
 8    1  0.1083484E+005  0.1043930E+01  0.7957747E-01            NaN
         13   -1    0    0    0    0  0.00000000000E+00  0.00000000000E+00  0.74505805969E-08  0.10566000000E+00  0.10566000000E+00 0.  1.
     999900   -1    0    0    0    0 -0.00000000000E+00 -0.00000000000E+00 -0.74505805969E-08  0.93827000000E+00  0.93827000000E+00 0.  1.
     999902    2    1    2    0    0 -0.14276469452E-01 -0.26028959333E-01  0.16962340001E-01  0.10097386958E+01  0.10091596447E+01 0.  0.
     999903    2    3    3    0    0 -0.11180543960E+00 -0.39769289602E-01  0.30571483778E-01  0.12413951701E+00  0.19848207577E-01 0.  0.
         14    1    1    2    0    0  0.14276469452E-01  0.26028959333E-01 -0.16962340001E-01  0.34191304191E-01  0.00000000000E+00 0. -1.
     999901    1    3    3    0    0  0.97528970147E-01  0.13740330269E-01 -0.13609143776E-01  0.88559917880E+00  0.88000000000E+00 0.  1.
        -11    1    4    4    0    0 -0.44165500050E-01 -0.23428389016E-01  0.19553251277E-01  0.53684928640E-01  0.51100000000E-03 0.  1.
         11    1    4    4    0    0 -0.67639939548E-01 -0.16340900586E-01  0.11018232501E-01  0.70454588371E-01  0.51100000000E-03 0. -1.
</event>
<event>
 8    1  0.1083484E+005  0.1043930E+01  0.7957747E-01            NaN
         13   -1    0    0    0    0  0.00000000000E+00  0.00000000000E+00  0.74505805969E-08  0.10566000000E+00  0.10566000000E+00 0.  1.
     999900   -1    0    0    0    0 -0.00000000000E+00 -0.00000000000E+00 -0.74505805969E-08  0.93827000000E+00  0.93827000000E+00 0.  1.
     999902    2    1    2    0    0 -0.13940217058E-01  0.16683681830E-01  0.12525415587E-01  0.10188389473E+01  0.10185299404E+01 0.  0.
     999903    2    3    3    0    0  0.28582685679E-01 -0.98444956494E-02  0.12507117470E+00  0.13025665545E+00  0.20251260010E-01 0.  0.
         14    1    1    2    0    0  0.13940217058E-01 -0.16683681830E-01 -0.12525415587E-01  0.25091052721E-01  0.00000000000E+00 0. -1.
     999901    1    3    3    0    0 -0.42522902737E-01  0.26528177479E-01 -0.11254575912E+00  0.88858229183E+00  0.88000000000E+00 0.  1.
        -11    1    4    4    0    0  0.80693447640E-03  0.19366563686E-02  0.38807649825E-01  0.38867680495E-01  0.51100000000E-03 0.  1.
         11    1    4    4    0    0  0.27775751202E-01 -0.11781152018E-01  0.86263524878E-01  0.91388974954E-01  0.51100000000E-03 0. -1.
</event>
<event>
 8    1  0.1083484E+005  0.1043930E+01  0.7957747E-01            NaN
         13   -1    0    0    0    0  0.00000000000E+00  0.00000000000E+00  0.74505805969E-08  0.10566000000E+00  0.10566000000E+00 0. -1.
     999900   -1    0    0    0    0 -0.00000000000E+00 -0.00000000000E+00 -0.74505805969E-08  0.93827000000E+00  0.93827000000E+00 0.  1.
     999902    2    1    2    0    0  0.19385439331E-01  0.18219644218E-01 -0.10910260178E-02  0.10173040534E+01  0.10169555527E+01 0.  0.
     999903    2    3    3    0    0  0.70990941564E-01 -0.76104130044E-01 -0.71404886750E-01  0.12797613793E+00  0.21158488484E-01 0.  0.
         14    1    1    2    0    0 -0.19385439331E-01 -0.18219644218E-01  0.10910260178E-02  0.26625946580E-01  0.00000000000E+00 0. -1.
     999901    1    3    3    0    0 -0.51605502233E-01  0.94323774262E-01  0.70313860733E-01  0.88932791549E+00  0.88000000000E+00 0. -1.
        -11    1    4    4    0    0  0.43556592164E-01 -0.56121793119E-01 -0.57081001243E-01  0.91133606357E-01  0.51100000000E-03 0.  1.
         11    1    4    4    0    0  0.27434349400E-01 -0.19982336925E-01 -0.14323885508E-01  0.36842531577E-01  0.51100000000E-03 0. -1.
</event>
<event>
 8    1  0.1083484E+005  0.1043930E+01  0.7957747E-01            NaN
         13   -1    0    0    0    0  0.00000000000E+00  0.00000000000E+00  0.74505805969E-08  0.10566000000E+00  0.10566000000E+00 0.  1.
     999900   -1    0    0    0    0 -0.00000000000E+00 -0.00000000000E+00 -0.74505805969E-08  0.93827000000E+00  0.93827000000E+00 0. -1.
     999902    2    1    2    0    0  0.21153117003E-01  0.22830308439E-02  0.10779496829E-01  0.10200791270E+01  0.10198002556E+01 0.  0.
     999903    2    3    3    0    0 -0.21427888984E-01 -0.59588989049E-01 -0.10955444709E+00  0.12871974555E+00  0.23592243954E-01 0.  0.
         14    1    1    2    0    0 -0.21153117003E-01 -0.22830308439E-02 -0.10779496829E-01  0.23850872954E-01  0.00000000000E+00 0. -1.
     999901    1    3    3    0    0  0.42581005987E-01  0.61872019893E-01  0.12033394392E+00  0.89135938149E+00  0.88000000000E+00 0.  1.
        -11    1    4    4    0    0  0.14187937305E-02 -0.36832666086E-02 -0.21986741198E-01  0.22344067178E-01  0.51100000000E-03 0.  1.
         11    1    4    4    0    0 -0.22846682714E-01 -0.55905722440E-01 -0.87567705896E-01  0.10637567837E+00  0.51100000000E-03 0. -1.
</event>
<event>
 8    1  0.1083484E+005  0.1043930E+01  0.7957747E-01            NaN
         13   -1    0    0    0    0  0.00000000000E+00  0.00000000000E+00  0.74505805969E-08  0.10566000000E+00  0.10566000000E+00 0.  1.
     999900   -1    0    0    0    0 -0.00000000000E+00 -0.00000000000E+00 -0.74505805969E-08  0.93827000000E+00  0.93827000000E+00 0.  1.
     999902    2    1    2    0    0 -0.14061361774E-01  0.57352195569E-02 -0.18992471569E-01  0.10196127507E+01  0.10193227324E+01 0.  0.
     999903    2    3    3    0    0  0.34634208896E-01 -0.72044503969E-01  0.96891824627E-01  0.12728427187E+00  0.20574771122E-01 0.  0.
         14    1    1    2    0    0  0.14061361774E-01 -0.57352195569E-02  0.18992471569E-01  0.24317249322E-01  0.00000000000E+00 0.  1.
     999901    1    3    3    0    0 -0.48695570669E-01  0.77779723526E-01 -0.11588429620E+00  0.89232847881E+00  0.88000000000E+00 0.  1.
        -11    1    4    4    0    0  0.75221503070E-02 -0.40093283925E-02  0.16184120681E-01  0.18298752488E-01  0.51100000000E-03 0.  1.
         11    1    4    4    0    0  0.27112058589E-01 -0.68035175577E-01  0.80707703945E-01  0.10898551938E+00  0.51100000000E-03 0. -1.
</event>
<event>
 8    1  0.1083484E+005  0.1043930E+01  0.7957747E-01            NaN
         13   -1    0    0    0    0  0.00000000000E+00  0.00000000000E+00  0.74505805969E-08  0.10566000000E+00  0.10566000000E+00 0.  1.
     999900   -1    0    0    0    0 -0.00000000000E+00 -0.00000000000E+00 -0.74505805969E-08  0.93827000000E+00  0.93827000000E+00 0. -1.
     999902    2    1    2    0    0 -0.13066533617E-01 -0.19643701557E-01  0.61521512267E-02  0.10195484849E+01  0.10192569131E+01 0.  0.
     999903    2    3    3    0    0 -0.43594681938E-01 -0.11144007047E+00  0.55184795363E-01  0.13289029749E+00  0.17178007155E-01 0.  0.
         14    1    1    2    0    0  0.13066533617E-01  0.19643701557E-01 -0.61521512267E-02  0.24381515054E-01  0.00000000000E+00 0.  1.
     999901    1    3    3    0    0  0.30528148321E-01  0.91796368909E-01 -0.49032644137E-01  0.88665818745E+00  0.88000000000E+00 0. -1.
        -11    1    4    4    0    0 -0.10820202569E-01 -0.20328943197E-01  0.17739921741E-01  0.29074192328E-01  0.51100000000E-03 0.  1.
         11    1    4    4    0    0 -0.32774479369E-01 -0.91111127269E-01  0.37444873622E-01  0.10381610517E+00  0.51100000000E-03 0. -1.
</event>
<event>
 8    1  0.1083484E+005  0.1043930E+01  0.7957747E-01            NaN
         13   -1    0    0    0    0  0.00000000000E+00  0.00000000000E+00  0.74505805969E-08  0.10566000000E+00  0.10566000000E+00 0.  1.
     999900   -1    0    0    0    0 -0.00000000000E+00 -0.00000000000E+00 -0.74505805969E-08  0.93827000000E+00  0.93827000000E+00 0. -1.
     999902    2    1    2    0    0  0.12770470917E-01 -0.19023552180E-02  0.18932399994E-01  0.10210140743E+01  0.10207568761E+01 0.  0.
     999903    2    3    3    0    0 -0.11028127651E+00 -0.31091498257E-01  0.59973408237E-01  0.13102637605E+00  0.21034740623E-01 0.  0.
         14    1    1    2    0    0 -0.12770470917E-01  0.19023552180E-02 -0.18932399994E-01  0.22915925736E-01  0.00000000000E+00 0. -1.
     999901    1    3    3    0    0  0.12305174742E+00  0.29189143039E-01 -0.41041008243E-01  0.88998769821E+00  0.88000000000E+00 0.  1.
        -11    1    4    4    0    0 -0.40735248933E-01 -0.22133477825E-01  0.23039784344E-01  0.51772040040E-01  0.51100000000E-03 0.  1.
         11    1    4    4    0    0 -0.69546027574E-01 -0.89580204319E-02  0.36933623893E-01  0.79254336009E-01  0.51100000000E-03 0. -1.
</event>
<event>
 8    1  0.1083484E+005  0.1043930E+01  0.7957747E-01            NaN
         13   -1    0    0    0    0  0.00000000000E+00  0.00000000000E+00  0.74505805969E-08  0.10566000000E+00  0.10566000000E+00 0. -1.
     999900   -1    0    0    0    0 -0.00000000000E+00 -0.00000000000E+00 -0.74505805969E-08  0.93827000000E+00  0.93827000000E+00 0.  1.
     999902    2    1    2    0    0  0.16783898824E-01 -0.57827657521E-02  0.15804421974E-01  0.10201619670E+01  0.10198850521E+01 0.  0.
     999903    2    3    3    0    0  0.11692256159E+00  0.53103504268E-01 -0.22150340910E-01  0.13171618440E+00  0.19174150711E-01 0.  0.
         14    1    1    2    0    0 -0.16783898824E-01  0.57827657521E-02 -0.15804421974E-01  0.23768033015E-01  0.00000000000E+00 0.  1.
     999901    1    3    3    0    0 -0.10013866276E+00 -0.58886270020E-01  0.37954762884E-01  0.88844578259E+00  0.88000000000E+00 0.  1.
        -11    1    4    4    0    0  0.55631765320E-02  0.56259238433E-02  0.22094173443E-02  0.82305891780E-02  0.51100000000E-03 0. -1.
         11    1    4    4    0    0  0.11135938506E+00  0.47477580424E-01 -0.24359758255E-01  0.12348559522E+00  0.51100000000E-03 0.  1.
</event>
<event>
 8    1  0.1083484E+005  0.1043930E+01  0.7957747E-01            NaN
         13   -1    0    0    0    0  0.00000000000E+00  0.00000000000E+00  0.74505805969E-08  0.10566000000E+00  0.10566000000E+00 0. -1.
     999900   -1    0    0    0    0 -0.00000000000E+00 -0.00000000000E+00 -0.74505805969E-08  0.93827000000E+00  0.93827000000E+00 0. -1.
     999902    2    1    2    0    0 -0.69323497145E-02 -0.74730133232E-02  0.23201762349E-01  0.10185878380E+01  0.10182725364E+01 0.  0.
     999903    2    3    3    0    0  0.10241317092E+00  0.46055270850E-01  0.61090131140E-01  0.12939874189E+00  0.20062022046E-01 0.  0.
         14    1    1    2    0    0  0.69323497145E-02  0.74730133232E-02 -0.23201762349E-01  0.25342162039E-01  0.00000000000E+00 0.  1.
     999901    1    3    3    0    0 -0.10934552063E+00 -0.53528284173E-01 -0.37888368791E-01  0.88918909607E+00  0.88000000000E+00 0.  1.
        -11    1    4    4    0    0  0.40522207755E-01  0.21617027494E-01  0.14492803482E-01  0.48162720779E-01  0.51100000000E-03 0.  1.
         11    1    4    4    0    0  0.61890963163E-01  0.24438243355E-01  0.46597327659E-01  0.81236021108E-01  0.51100000000E-03 0. -1.
</event>
<event>
 8    1  0.1083484E+005  0.1043930E+01  0.7957747E-01            NaN
         13   -1    0    0    0    0  0.00000000000E+00  0.00000000000E+00  0.74505805969E-08  0.10566000000E+00  0.10566000000E+00 0.  1.
     999900   -1    0    0    0    0 -0.00000000000E+00 -0.00000000000E+00 -0.74505805969E-08  0.93827000000E+00  0.93827000000E+00 0.  1.
     999902    2    1    2    0    0  0.11200841784E-01 -0.12164836243E-01 -0.17509214416E-01  0.10198465059E+01  0.10195621025E+01 0.  0.
     999903    2    3    3    0    0  0.11432171466E+00 -0.43360855690E-01  0.42919511781E-01  0.13121906036E+00  0.20657663509E-01 0.  0.
         14    1    1    2    0    0 -0.11200841784E-01  0.12164836243E-01  0.17509214416E-01  0.24083494077E-01  0.00000000000E+00 0.  1.
     999901    1    3    3    0    0 -0.10312087288E+00  0.31196019448E-01 -0.60428726198E-01  0.88862744556E+00  0.88000000000E+00 0.  1.
        -11    1    4    4    0    0  0.52464741873E-01 -0.26802829080E-01  0.29084729978E-01  0.65704820413E-01  0.51100000000E-03 0.  1.
         11    1    4    4    0    0  0.61856972788E-01 -0.16558026610E-01  0.13834781803E-01  0.65514239950E-01  0.51100000000E-03 0. -1.
</event>
<event>
 8    1  0.1083484E+005  0.1043930E+01  0.7957747E-01            NaN
         13   -1    0    0    0    0  0.00000000000E+00  0.00000000000E+00  0.74505805969E-08  0.10566000000E+00  0.10566000000E+00 0. -1.
     999900   -1    0    0    0    0 -0.00000000000E+00 -0.00000000000E+00 -0.74505805969E-08  0.93827000000E+00  0.93827000000E+00 0.  1.
     999902    2    1    2    0    0 -0.22654937749E-01 -0.57378737211E-02 -0.42806948951E-02  0.10201709228E+01  0.10198942190E+01 0.  0.
     999903    2    3    3    0    0  0.16021132266E-01  0.10945454839E+00  0.63320948869E-01  0.12925279261E+00  0.21442177832E-01 0.  0.
         14    1    1    2    0    0  0.22654937749E-01  0.57378737211E-02  0.42806948951E-02  0.23759077171E-01  0.00000000000E+00 0.  1.
     999901    1    3    3    0    0 -0.38676070015E-01 -0.11519242211E+00 -0.67601643764E-01  0.89091813021E+00  0.88000000000E+00 0.  1.
        -11    1    4    4    0    0  0.23377691848E-02  0.58907464229E-01  0.43463661381E-01  0.73245515141E-01  0.51100000000E-03 0.  1.
         11    1    4    4    0    0  0.13683363081E-01  0.50547084163E-01  0.19857287488E-01  0.56007277473E-01  0.51100000000E-03 0. -1.
</event>
<event>
 8    1  0.1083484E+005  0.1043930E+01  0.7957747E-01            NaN
         13   -1    0    0    0    0  0.00000000000E+00  0.00000000000E+00  0.74505805969E-08  0.10566000000E+00  0.10566000000E+00 0.  1.
     999900   -1    0    0    0    0 -0.00000000000E+00 -0.00000000000E+00 -0.74505805969E-08  0.93827000000E+00  0.93827000000E+00 0.  1.
     999902    2    1    2    0    0  0.11663845549E-01 -0.10184462772E-01  0.19010840407E-01  0.10194110149E+01  0.10191161056E+01 0.  0.
     999903    2    3    3    0    0 -0.10680605542E+00  0.42408853314E-01  0.57426412469E-01  0.12908695568E+00  0.12633485792E-01 0.  0.
         14    1    1    2    0    0 -0.11663845549E-01  0.10184462772E-01 -0.19010840407E-01  0.24518985051E-01  0.00000000000E+00 0. -1.
     999901    1    3    3    0    0  0.11846990097E+00 -0.52593316086E-01 -0.38415572062E-01  0.89032405927E+00  0.88000000000E+00 0.  1.
        -11    1    4    4    0    0 -0.51942245067E-01  0.24475105373E-01  0.34422547511E-01  0.66949238262E-01  0.51100000000E-03 0.  1.
         11    1    4    4    0    0 -0.54863810358E-01  0.17933747941E-01  0.23003864958E-01  0.62137717420E-01  0.51100000000E-03 0. -1.
</event>
<event>
 8    1  0.1083484E+005  0.1043930E+01  0.7957747E-01            NaN
         13   -1    0    0    0    0  0.00000000000E+00  0.00000000000E+00  0.74505805969E-08  0.10566000000E+00  0.10566000000E+00 0. -1.
     999900   -1    0    0    0    0 -0.00000000000E+00 -0.00000000000E+00 -0.74505805969E-08  0.93827000000E+00  0.93827000000E+00 0. -1.
     999902    2    1    2    0    0 -0.20916281724E-01  0.44269915821E-02  0.10285047495E-01  0.10202050912E+01  0.10199291921E+01 0.  0.
     999903    2    3    3    0    0  0.73547064314E-01  0.24060700234E-01  0.10246708864E+00  0.13014535446E+00  0.21218413409E-01 0.  0.
         14    1    1    2    0    0  0.20916281724E-01 -0.44269915821E-02 -0.10285047495E-01  0.23724908801E-01  0.00000000000E+00 0.  1.
     999901    1    3    3    0    0 -0.94463346038E-01 -0.19633708652E-01 -0.92182041144E-01  0.89005973674E+00  0.88000000000E+00 0. -1.
        -11    1    4    4    0    0  0.11074040496E-01 -0.38733071194E-02  0.13276139252E-01  0.17724386461E-01  0.51100000000E-03 0. -1.
         11    1    4    4    0    0  0.62473023818E-01  0.27934007353E-01  0.89190949386E-01  0.11242096800E+00  0.51100000000E-03 0.  1.
</event>
<event>
 8    1  0.1083484E+005  0.1043930E+01  0.7957747E-01            NaN
         13   -1    0    0    0    0  0.00000000000E+00  0.00000000000E+00  0.74505805969E-08  0.10566000000E+00  0.10566000000E+00 0.  1.
     999900   -1    0    0    0    0 -0.00000000000E+00 -0.00000000000E+00 -0.74505805969E-08  0.93827000000E+00  0.93827000000E+00 0. -1.
     999902    2    1    2    0    0 -0.11491657712E-01  0.20546152856E-01  0.43286488617E-03  0.10203845128E+01  0.10201128193E+01 0.  0.
     999903    2    3    3    0    0 -0.81461275475E-01  0.31848010035E-01  0.97203439032E-01  0.13224712289E+00  0.19762535457E-01 0.  0.
         14    1    1    2    0    0  0.11491657712E-01 -0.20546152856E-01 -0.43286488617E-03  0.23545487172E-01  0.00000000000E+00 0.  1.
     999901    1    3    3    0    0  0.69969617764E-01 -0.11301857178E-01 -0.96770574146E-01  0.88813738994E+00  0.88000000000E+00 0. -1.
        -11    1    4    4    0    0 -0.17681988625E-01  0.79532965791E-02  0.34960804973E-01  0.39980328332E-01  0.51100000000E-03 0.  1.
         11    1    4    4    0    0 -0.63779286850E-01  0.23894713456E-01  0.62242634059E-01  0.92266794557E-01  0.51100000000E-03 0. -1.
</event>
<event>
 8    1  0.1083484E+005  0.1043930E+01  0.7957747E-01            NaN
         13   -1    0    0    0    0  0.00000000000E+00  0.00000000000E+00  0.74505805969E-08  0.10566000000E+00  0.10566000000E+00 0.  1.
     999900   -1    0    0    0    0 -0.00000000000E+00 -0.00000000000E+00 -0.74505805969E-08  0.93827000000E+00  0.93827000000E+00 0. -1.
     999902    2    1    2    0    0  0.10141222801E-01 -0.18164715140E-01  0.11264088886E-01  0.10202724225E+01  0.10199981054E+01 0.  0.
     999903    2    3    3    0    0  0.48202863732E-01  0.10974413755E+00  0.45965711862E-01  0.12953476988E+00  0.17295032333E-01 0.  0.
         14    1    1    2    0    0 -0.10141222801E-01  0.18164715140E-01 -0.11264088886E-01  0.23657577528E-01  0.00000000000E+00 0. -1.
     999901    1    3    3    0    0 -0.38061640931E-01 -0.12790885269E+00 -0.34701622976E-01  0.89073765259E+00  0.88000000000E+00 0.  1.
        -11    1    4    4    0    0  0.42043919593E-01  0.10083697463E+00  0.46371514855E-01  0.11868599386E+00  0.51100000000E-03 0.  1.
         11    1    4    4    0    0  0.61589441385E-02  0.89071629206E-02 -0.40580299235E-03  0.10848776026E-01  0.51100000000E-03 0. -1.
</event>
<event>
 8    1  0.1083484E+005  0.1043930E+01  0.7957747E-01            NaN
         13   -1    0    0    0    0  0.00000000000E+00  0.00000000000E+00  0.74505805969E-08  0.10566000000E+00  0.10566000000E+00 0.  1.
     999900   -1    0    0    0    0 -0.00000000000E+00 -0.00000000000E+00 -0.74505805969E-08  0.93827000000E+00  0.93827000000E+00 0.  1.
     999902    2    1    2    0    0  0.17215962587E-01  0.71292350987E-02 -0.15017530527E-01  0.10199979799E+01  0.10197171851E+01 0.  0.
     999903    2    3    3    0    0 -0.93654318165E-01 -0.29361073643E-01  0.77789770129E-01  0.12745276717E+00  0.23659153965E-01 0.  0.
         14    1    1    2    0    0 -0.17215962587E-01 -0.71292350987E-02  0.15017530527E-01  0.23932020057E-01  0.00000000000E+00 0.  1.
     999901    1    3    3    0    0  0.11087028075E+00  0.36490308741E-01 -0.92807300656E-01  0.89254521277E+00  0.88000000000E+00 0. -1.
        -11    1    4    4    0    0 -0.47408556723E-01 -0.14391001784E-01  0.54153877331E-01  0.73400107179E-01  0.51100000000E-03 0.  1.
         11    1    4    4    0    0 -0.46245761443E-01 -0.14970071859E-01  0.23635892798E-01  0.54052659992E-01  0.51100000000E-03 0. -1.
</event>
<event>
 8    1  0.1083484E+005  0.1043930E+01  0.7957747E-01            NaN
         13   -1    0    0    0    0  0.00000000000E+00  0.00000000000E+00  0.74505805969E-08  0.10566000000E+00  0.10566000000E+00 0.  1.
     999900   -1    0    0    0    0 -0.00000000000E+00 -0.00000000000E+00 -0.74505805969E-08  0.93827000000E+00  0.93827000000E+00 0. -1.
     999902    2    1    2    0    0  0.85191002309E-02 -0.20803800143E-01  0.64142021218E-02  0.10205523363E+01  0.10202845466E+01 0.  0.
     999903    2    3    3    0    0  0.33076530656E-01  0.33749399515E-02 -0.12427021007E+00  0.13023436256E+00  0.20309036873E-01 0.  0.
         14    1    1    2    0    0 -0.85191002309E-02  0.20803800143E-01 -0.64142021218E-02  0.23377663655E-01  0.00000000000E+00 0. -1.
     999901    1    3    3    0    0 -0.24557430425E-01 -0.24178740094E-01  0.13068441219E+00  0.89031797379E+00  0.88000000000E+00 0.  1.
        -11    1    4    4    0    0  0.16951297624E-01  0.19129114681E-02 -0.97202935685E-01  0.98689804682E-01  0.51100000000E-03 0.  1.
         11    1    4    4    0    0  0.16125233032E-01  0.14620284834E-02 -0.27067274388E-01  0.31544557874E-01  0.51100000000E-03 0. -1.
</event>
<event>
 8    1  0.1083484E+005  0.1043930E+01  0.7957747E-01            NaN
         13   -1    0    0    0    0  0.00000000000E+00  0.00000000000E+00  0.74505805969E-08  0.10566000000E+00  0.10566000000E+00 0. -1.
     999900   -1    0    0    0    0 -0.00000000000E+00 -0.00000000000E+00 -0.74505805969E-08  0.93827000000E+00  0.93827000000E+00 0.  1.
     999902    2    1    2    0    0 -0.85589013888E-02 -0.21776019143E-01  0.15971172016E-03  0.10205318097E+01  0.10202635440E+01 0.  0.
     999903    2    3    3    0    0 -0.62249178077E-01  0.26180466580E-01 -0.11030442641E+00  0.13070890811E+00  0.18904369141E-01 0.  0.
         14    1    1    2    0    0  0.85589013888E-02  0.21776019143E-01 -0.15971172016E-03  0.23398190326E-01  0.00000000000E+00 0.  1.
     999901    1    3    3    0    0  0.53690276688E-01 -0.47956485723E-01  0.11046413813E+00  0.88982290156E+00  0.88000000000E+00 0. -1.
        -11    1    4    4    0    0 -0.38460653634E-01  0.61054017928E-02 -0.58848436789E-01  0.70568388408E-01  0.51100000000E-03 0. -1.
         11    1    4    4    0    0 -0.23788524442E-01  0.20075064787E-01 -0.51455989619E-01  0.60140519702E-01  0.51100000000E-03 0.  1.
</event>
<event>
 8    1  0.1083484E+005  0.1043930E+01  0.7957747E-01            NaN
         13   -1    0    0    0    0  0.00000000000E+00  0.00000000000E+00  0.74505805969E-08  0.10566000000E+00  0.10566000000E+00 0. -1.
     999900   -1    0    0    0    0 -0.00000000000E+00 -0.00000000000E+00 -0.74505805969E-08  0.93827000000E+00  0.93827000000E+00 0. -1.
     999902    2    1    2    0    0  0.12039584277E-01 -0.39725331084E-03  0.22463882345E-01  0.10184400920E+01  0.10181210564E+01 0.  0.
     999903    2    3    3    0    0 -0.33302018869E-01  0.91897087407E-01 -0.79050587461E-01  0.12665576052E+00  0.15446266839E-01 0.  0.
         14    1    1    2    0    0 -0.12039584277E-01  0.39725331084E-03 -0.22463882345E-01  0.25489907998E-01  0.00000000000E+00 0.  1.
     999901    1    3    3    0    0  0.45341603146E-01 -0.92294340718E-01  0.10151446981E+00  0.89178433149E+00  0.88000000000E+00 0.  1.
        -11    1    4    4    0    0 -0.14521299986E-01  0.61712796865E-01 -0.51191212951E-01  0.81487047158E-01  0.51100000000E-03 0. -1.
         11    1    4    4    0    0 -0.18780718883E-01  0.30184290542E-01 -0.27859374510E-01  0.45168713357E-01  0.51100000000E-03 0.  1.
</event>
<event>
 8    1  0.1083484E+005  0.1043930E+01  0.7957747E-01            NaN
         13   -1    0    0    0    0  0.00000000000E+00  0.00000000000E+00  0.74505805969E-08  0.10566000000E+00  0.10566000000E+00 0. -1.
     999900   -1    0    0    0    0 -0.00000000000E+00 -0.00000000000E+00 -0.74505805969E-08  0.93827000000E+00  0.93827000000E+00 0. -1.
     999902    2    1    2    0    0  0.72244888322E-02 -0.14871850193E-02  0.22001959977E-01  0.10207245868E+01  0.10204607738E+01 0.  0.
     999903    2    3    3    0    0 -0.11534189164E+00 -0.21588884633E-01  0.55665847484E-01  0.13136534935E+00  0.19706256015E-01 0.  0.
         14    1    1    2    0    0 -0.72244888322E-02  0.14871850193E-02 -0.22001959977E-01  0.23205413183E-01  0.00000000000E+00 0.  1.
     999901    1    3    3    0    0  0.12256638047E+00  0.20101699614E-01 -0.33663887507E-01  0.88935923747E+00  0.88000000000E+00 0. -1.
        -11    1    4    4    0    0 -0.58878250647E-01 -0.20846455292E-01  0.31235317144E-01  0.69836446471E-01  0.51100000000E-03 0. -1.
         11    1    4    4    0    0 -0.56463640993E-01 -0.74242934093E-03  0.24430530340E-01  0.61528902877E-01  0.51100000000E-03 0.  1.
</event>
<event>
 8    1  0.1083484E+005  0.1043930E+01  0.7957747E-01            NaN
         13   -1    0    0    0    0  0.00000000000E+00  0.00000000000E+00  0.74505805969E-08  0.10566000000E+00  0.10566000000E+00 0.  1.
     999900   -1    0    0    0    0 -0.00000000000E+00 -0.00000000000E+00 -0.74505805969E-08  0.93827000000E+00  0.93827000000E+00 0.  1.
     999902    2    1    2    0    0  0.14714005280E-02  0.79703969624E-02  0.21878263199E-01  0.10205986767E+01  0.10203319598E+01 0.  0.
     999903    2    3    3    0    0  0.10398190275E+00  0.11652789013E-01 -0.73824494279E-01  0.12948646104E+00  0.19200626158E-01 0.  0.
         14    1    1    2    0    0 -0.14714005280E-02 -0.79703969624E-02 -0.21878263199E-01  0.23331323320E-01  0.00000000000E+00 0. -1.
     999901    1    3    3    0    0 -0.10251050222E+00 -0.36823920511E-02  0.95702757478E-01  0.89111221564E+00  0.88000000000E+00 0.  1.
        -11    1    4    4    0    0  0.43536848678E-01  0.13964683337E-01 -0.35355136756E-01  0.57798930696E-01  0.51100000000E-03 0. -1.
         11    1    4    4    0    0  0.60445054074E-01 -0.23118943234E-02 -0.38469357523E-01  0.71687530342E-01  0.51100000000E-03 0.  1.
</event>
<event>
 8    1  0.1083484E+005  0.1043930E+01  0.7957747E-01            NaN
         13   -1    0    0    0    0  0.00000000000E+00  0.00000000000E+00  0.74505805969E-08  0.10566000000E+00  0.10566000000E+00 0.  1.
     999900   -1    0    0    0    0 -0.00000000000E+00 -0.00000000000E+00 -0.74505805969E-08  0.93827000000E+00  0.93827000000E+00 0. -1.
     999902    2    1    2    0    0 -0.18145601866E-01  0.13720484690E-01  0.40243826813E-03  0.10211774941E+01  0.10209239923E+01 0.  0.
     999903    2    3    3    0    0 -0.13879939172E-01  0.13031761378E+00 -0.15150701140E-01  0.13334024184E+00  0.19358284416E-01 0.  0.
         14    1    1    2    0    0  0.18145601866E-01 -0.13720484690E-01 -0.40243826813E-03  0.22752505879E-01  0.00000000000E+00 0. -1.
     999901    1    3    3    0    0 -0.42656626940E-02 -0.11659712909E+00  0.15553139408E-01  0.88783725228E+00  0.88000000000E+00 0.  1.
        -11    1    4    4    0    0 -0.27622427468E-02  0.99971814803E-01 -0.14105002519E-01  0.10100101958E+00  0.51100000000E-03 0. -1.
         11    1    4    4    0    0 -0.11117696425E-01  0.30345798981E-01 -0.10456986213E-02  0.32339222257E-01  0.51100000000E-03 0.  1.
</event>
<event>
 8    1  0.1083484E+005  0.1043930E+01  0.7957747E-01            NaN
         13   -1    0    0    0    0  0.00000000000E+00  0.00000000000E+00  0.74505805969E-08  0.10566000000E+00  0.10566000000E+00 0.  1.
     999900   -1    0    0    0    0 -0.00000000000E+00 -0.00000000000E+00 -0.74505805969E-08  0.93827000000E+00  0.93827000000E+00 0.  1.
     999902    2    1    2    0    0  0.16911867010E-01 -0.43175121450E-02 -0.98752435274E-02  0.10238757588E+01  0.10236793428E+01 0.  0.
     999903    2    3    3    0    0 -0.64959274015E-01  0.11181037596E+00  0.17750417842E-01  0.13205080548E+00  0.20026743162E-01 0.  0.
         14    1    1    2    0    0 -0.16911867010E-01  0.43175121450E-02  0.98752435274E-02  0.20054241237E-01  0.00000000000E+00 0.  1.
     999901    1    3    3    0    0  0.81871141025E-01 -0.11612788811E+00 -0.27625661369E-01  0.89182495328E+00  0.88000000000E+00 0.  1.
        -11    1    4    4    0    0 -0.33028479994E-01  0.41440786847E-01  0.13339351448E-01  0.54648135588E-01  0.51100000000E-03 0. -1.
         11    1    4    4    0    0 -0.31930794021E-01  0.70369589114E-01  0.44110663943E-02  0.77402669894E-01  0.51100000000E-03 0.  1.
</event>
<event>
 8    1  0.1083484E+005  0.1043930E+01  0.7957747E-01            NaN
         13   -1    0    0    0    0  0.00000000000E+00  0.00000000000E+00  0.74505805969E-08  0.10566000000E+00  0.10566000000E+00 0.  1.
     999900   -1    0    0    0    0 -0.00000000000E+00 -0.00000000000E+00 -0.74505805969E-08  0.93827000000E+00  0.93827000000E+00 0. -1.
     999902    2    1    2    0    0  0.48041778696E-02  0.13858497003E-01  0.18820188053E-01  0.10200692049E+01  0.10197900986E+01 0.  0.
     999903    2    3    3    0    0 -0.20569668656E-01 -0.10310558180E+00  0.74253852411E-01  0.13023926668E+00  0.19868561101E-01 0.  0.
         14    1    1    2    0    0 -0.48041778696E-02 -0.13858497003E-01 -0.18820188053E-01  0.23860795095E-01  0.00000000000E+00 0. -1.
     999901    1    3    3    0    0  0.25373846525E-01  0.11696407880E+00 -0.55433664358E-01  0.88982993823E+00  0.88000000000E+00 0.  1.
        -11    1    4    4    0    0 -0.79610945592E-02 -0.20124605724E-01  0.72168693758E-02  0.22819358157E-01  0.51100000000E-03 0.  1.
         11    1    4    4    0    0 -0.12608574097E-01 -0.82980976078E-01  0.67036983036E-01  0.10741990852E+00  0.51100000000E-03 0. -1.
</event>
<event>
 8    1  0.1083484E+005  0.1043930E+01  0.7957747E-01            NaN
         13   -1    0    0    0    0  0.00000000000E+00  0.00000000000E+00  0.74505805969E-08  0.10566000000E+00  0.10566000000E+00 0.  1.
     999900   -1    0    0    0    0 -0.00000000000E+00 -0.00000000000E+00 -0.74505805969E-08  0.93827000000E+00  0.93827000000E+00 0.  1.
     999902    2    1    2    0    0 -0.16472508294E-01  0.16102492597E-01  0.70172752460E-02  0.10198493864E+01  0.10195650519E+01 0.  0.
     999903    2    3    3    0    0  0.18069561390E-01 -0.11635809902E+00  0.47219482234E-01  0.12835896005E+00  0.19509660838E-01 0.  0.
         14    1    1    2    0    0  0.16472508294E-01 -0.16102492597E-01 -0.70172752460E-02  0.24080613555E-01  0.00000000000E+00 0. -1.
     999901    1    3    3    0    0 -0.34542069684E-01  0.13246059162E+00 -0.40202206988E-01  0.89149042640E+00  0.88000000000E+00 0.  1.
        -11    1    4    4    0    0  0.10974185297E-01 -0.22372692798E-01  0.12778915927E-01  0.28009497304E-01  0.51100000000E-03 0.  1.
         11    1    4    4    0    0  0.70953760935E-02 -0.93985406221E-01  0.34440566306E-01  0.10034946274E+00  0.51100000000E-03 0. -1.
</event>
<event>
 8    1  0.1083484E+005  0.1043930E+01  0.7957747E-01            NaN
         13   -1    0    0    0    0  0.00000000000E+00  0.00000000000E+00  0.74505805969E-08  0.10566000000E+00  0.10566000000E+00 0. -1.
     999900   -1    0    0    0    0 -0.00000000000E+00 -0.00000000000E+00 -0.74505805969E-08  0.93827000000E+00  0.93827000000E+00 0. -1.
     999902    2    1    2    0    0  0.22399429070E-01  0.22059178823E-01  0.58206867395E-02  0.10119577904E+01  0.10114525927E+01 0.  0.
     999903    2    3    3    0    0 -0.45605462902E-01  0.10632511961E+00 -0.40171320947E-01  0.12412859574E+00  0.20230767360E-01 0.  0.
         14    1    1    2    0    0 -0.22399429070E-01 -0.22059178823E-01 -0.58206867395E-02  0.31972209607E-01  0.00000000000E+00 0. -1.
     999901    1    3    3    0    0  0.68004891972E-01 -0.84265940783E-01  0.45992007687E-01  0.88782919465E+00  0.88000000000E+00 0. -1.
        -11    1    4    4    0    0 -0.37603042703E-01  0.79862334158E-01 -0.38853952303E-01  0.96446212825E-01  0.51100000000E-03 0. -1.
         11    1    4    4    0    0 -0.80024201988E-02  0.26462785448E-01 -0.13173686443E-02  0.27682382915E-01  0.51100000000E-03 0.  1.
</event>
<event>
 8    1  0.1083484E+005  0.1043930E+01  0.7957747E-01            NaN
         13   -1    0    0    0    0  0.00000000000E+00  0.00000000000E+00  0.74505805969E-08  0.10566000000E+00  0.10566000000E+00 0. -1.
     999900   -1    0    0    0    0 -0.00000000000E+00 -0.00000000000E+00 -0.74505805969E-08  0.93827000000E+00  0.93827000000E+00 0.  1.
     999902    2    1    2    0    0 -0.35200306618E-03  0.13112577393E-01 -0.22453413053E-01  0.10179257821E+01  0.10175935723E+01 0.  0.
     999903    2    3    3    0    0  0.77839811663E-02 -0.80380763031E-01 -0.99465049725E-01  0.12959139057E+00  0.19467279366E-01 0.  0.
         14    1    1    2    0    0  0.35200306618E-03 -0.13112577393E-01  0.22453413053E-01  0.26004217923E-01  0.00000000000E+00 0. -1.
     999901    1    3    3    0    0 -0.81359842325E-02  0.93493340424E-01  0.77011636672E-01  0.88833439150E+00  0.88000000000E+00 0. -1.
        -11    1    4    4    0    0  0.11907408765E-01 -0.26951822162E-01 -0.36272088532E-01  0.46734490784E-01  0.51100000000E-03 0.  1.
         11    1    4    4    0    0 -0.41234275986E-02 -0.53428940869E-01 -0.63192961193E-01  0.82856899791E-01  0.51100000000E-03 0. -1.
</event>
<event>
 8    1  0.1083484E+005  0.1043930E+01  0.7957747E-01            NaN
         13   -1    0    0    0    0  0.00000000000E+00  0.00000000000E+00  0.74505805969E-08  0.10566000000E+00  0.10566000000E+00 0.  1.
     999900   -1    0    0    0    0 -0.00000000000E+00 -0.00000000000E+00 -0.74505805969E-08  0.93827000000E+00  0.93827000000E+00 0.  1.
     999902    2    1    2    0    0 -0.67147057540E-02 -0.91504737752E-02  0.21182835136E-01  0.10198981264E+01  0.10196149554E+01 0.  0.
     999903    2    3    3    0    0 -0.12792477390E-01 -0.11717018072E+00  0.57733309267E-01  0.13251932705E+00  0.18323163403E-01 0.  0.
         14    1    1    2    0    0  0.67147057540E-02  0.91504737752E-02 -0.21182835136E-01  0.24031873586E-01  0.00000000000E+00 0. -1.
     999901    1    3    3    0    0  0.60777716357E-02  0.10801970694E+00 -0.36550474131E-01  0.88737879936E+00  0.88000000000E+00 0. -1.
        -11    1    4    4    0    0 -0.27428671054E-02 -0.28766133859E-01  0.57363671702E-02  0.29464908051E-01  0.51100000000E-03 0.  1.
         11    1    4    4    0    0 -0.10049610284E-01 -0.88404046857E-01  0.51996942097E-01  0.10305441900E+00  0.51100000000E-03 0. -1.
</event>
<event>
 8    1  0.1083484E+005  0.1043930E+01  0.7957747E-01            NaN
         13   -1    0    0    0    0  0.00000000000E+00  0.00000000000E+00  0.74505805969E-08  0.10566000000E+00  0.10566000000E+00 0. -1.
     999900   -1    0    0    0    0 -0.00000000000E+00 -0.00000000000E+00 -0.74505805969E-08  0.93827000000E+00  0.93827000000E+00 0.  1.
     999902    2    1    2    0    0 -0.42571995689E-03 -0.15782558125E-01  0.18582001076E-01  0.10195463755E+01  0.10192547526E+01 0.  0.
     999903    2    3    3    0    0  0.58529836027E-01  0.82429890117E-01  0.79272982435E-01  0.13004941781E+00  0.20204376707E-01 0.  0.
         14    1    1    2    0    0  0.42571995689E-03  0.15782558125E-01 -0.18582001076E-01  0.24383624473E-01  0.00000000000E+00 0.  1.
     999901    1    3    3    0    0 -0.58955555984E-01 -0.98212448242E-01 -0.60690981359E-01  0.88949695772E+00  0.88000000000E+00 0.  1.
        -11    1    4    4    0    0  0.40983990315E-01  0.54518659759E-01  0.64658066716E-01  0.93983500874E-01  0.51100000000E-03 0.  1.
         11    1    4    4    0    0  0.17545845712E-01  0.27911230359E-01  0.14614915719E-01  0.36065916935E-01  0.51100000000E-03 0. -1.
</event>
<event>
 8    1  0.1083484E+005  0.1043930E+01  0.7957747E-01            NaN
         13   -1    0    0    0    0  0.00000000000E+00  0.00000000000E+00  0.74505805969E-08  0.10566000000E+00  0.10566000000E+00 0.  1.
     999900   -1    0    0    0    0 -0.00000000000E+00 -0.00000000000E+00 -0.74505805969E-08  0.93827000000E+00  0.93827000000E+00 0. -1.
     999902    2    1    2    0    0 -0.15725694248E-03 -0.23959679857E-01  0.18720039679E-02  0.10198967857E+01  0.10196135828E+01 0.  0.
     999903    2    3    3    0    0 -0.43789060109E-01  0.24503883015E-01 -0.11714464248E+00  0.12949383578E+00  0.22975294876E-01 0.  0.
         14    1    1    2    0    0  0.15725694248E-03  0.23959679857E-01 -0.18720039679E-02  0.24033214256E-01  0.00000000000E+00 0. -1.
     999901    1    3    3    0    0  0.43631803167E-01 -0.48463562872E-01  0.11901664645E+00  0.89040294996E+00  0.88000000000E+00 0. -1.
        -11    1    4    4    0    0 -0.67557847692E-02  0.40902328331E-02 -0.46420489411E-01  0.47090270658E-01  0.51100000000E-03 0.  1.
         11    1    4    4    0    0 -0.37033275340E-01  0.20413650182E-01 -0.70724153071E-01  0.82403565122E-01  0.51100000000E-03 0. -1.
</event>
<event>
 8    1  0.1083484E+005  0.1043930E+01  0.7957747E-01            NaN
         13   -1    0    0    0    0  0.00000000000E+00  0.00000000000E+00  0.74505805969E-08  0.10566000000E+00  0.10566000000E+00 0. -1.
     999900   -1    0    0    0    0 -0.00000000000E+00 -0.00000000000E+00 -0.74505805969E-08  0.93827000000E+00  0.93827000000E+00 0.  1.
     999902    2    1    2    0    0 -0.17950804996E-01  0.24279252234E-02  0.13492947679E-01  0.10213427058E+01  0.10210929130E+01 0.  0.
     999903    2    3    3    0    0  0.66463383459E-01  0.49477705156E-01  0.10043546404E+00  0.13179313545E+00  0.20413805785E-01 0.  0.
         14    1    1    2    0    0  0.17950804996E-01 -0.24279252234E-02 -0.13492947679E-01  0.22587294171E-01  0.00000000000E+00 0.  1.
     999901    1    3    3    0    0 -0.84414188455E-01 -0.47049779932E-01 -0.86942516365E-01  0.88954957038E+00  0.88000000000E+00 0.  1.
        -11    1    4    4    0    0  0.34170628758E-01  0.21080377083E-01  0.63361957829E-01  0.75013418724E-01  0.51100000000E-03 0. -1.
         11    1    4    4    0    0  0.32292754701E-01  0.28397328073E-01  0.37073506214E-01  0.56779716729E-01  0.51100000000E-03 0.  1.
</event>
<event>
 8    1  0.1083484E+005  0.1043930E+01  0.7957747E-01            NaN
         13   -1    0    0    0    0  0.00000000000E+00  0.00000000000E+00  0.74505805969E-08  0.10566000000E+00  0.10566000000E+00 0. -1.
     999900   -1    0    0    0    0 -0.00000000000E+00 -0.00000000000E+00 -0.74505805969E-08  0.93827000000E+00  0.93827000000E+00 0. -1.
     999902    2    1    2    0    0  0.14763631517E-01 -0.16682266561E-01 -0.88406130535E-02  0.10199629545E+01  0.10196813273E+01 0.  0.
     999903    2    3    3    0    0 -0.48709289585E-01  0.31066816932E-01 -0.11502301108E+00  0.13002841285E+00  0.18421538008E-01 0.  0.
         14    1    1    2    0    0 -0.14763631517E-01  0.16682266561E-01  0.88406130535E-02  0.23967045549E-01  0.00000000000E+00 0. -1.
     999901    1    3    3    0    0  0.63472921102E-01 -0.47749083492E-01  0.10618239803E+00  0.88993454160E+00  0.88000000000E+00 0.  1.
        -11    1    4    4    0    0 -0.34545181491E-01  0.21682883090E-01 -0.97136706618E-01  0.10535330027E+00  0.51100000000E-03 0.  1.
         11    1    4    4    0    0 -0.14164108094E-01  0.93839338420E-02 -0.17886304467E-01  0.24675112582E-01  0.51100000000E-03 0. -1.
</event>
<event>
 8    1  0.1083484E+005  0.1043930E+01  0.7957747E-01            NaN
         13   -1    0    0    0    0  0.00000000000E+00  0.00000000000E+00  0.74505805969E-08  0.10566000000E+00  0.10566000000E+00 0. -1.
     999900   -1    0    0    0    0 -0.00000000000E+00 -0.00000000000E+00 -0.74505805969E-08  0.93827000000E+00  0.93827000000E+00 0.  1.
     999902    2    1    2    0    0  0.45659778917E-02 -0.59270349845E-02 -0.21414878820E-01  0.10212457558E+01  0.10209937898E+01 0.  0.
     999903    2    3    3    0    0 -0.84433698141E-01 -0.98970076906E-01 -0.65777588338E-02  0.13175259111E+00  0.19782640091E-01 0.  0.
         14    1    1    2    0    0 -0.45659778917E-02  0.59270349845E-02  0.21414878820E-01  0.22684244151E-01  0.00000000000E+00 0. -1.
     999901    1    3    3    0    0  0.88999676032E-01  0.93043041922E-01 -0.14837119986E-01  0.88949316474E+00  0.88000000000E+00 0.  1.
        -11    1    4    4    0    0 -0.15732037439E-01 -0.84480402412E-02 -0.24961803582E-02  0.18037694511E-01  0.51100000000E-03 0. -1.
         11    1    4    4    0    0 -0.68701660702E-01 -0.90522036665E-01 -0.40815784756E-02  0.11371489660E+00  0.51100000000E-03 0.  1.
</event>
<event>
 8    1  0.1083484E+005  0.1043930E+01  0.7957747E-01            NaN
         13   -1    0    0    0    0  0.00000000000E+00  0.00000000000E+00  0.74505805969E-08  0.10566000000E+00  0.10566000000E+00 0. -1.
     999900   -1    0    0    0    0 -0.00000000000E+00 -0.00000000000E+00 -0.74505805969E-08  0.93827000000E+00  0.93827000000E+00 0. -1.
     999902    2    1    2    0    0  0.19507729356E-01 -0.10770543643E-01 -0.10723592081E-01  0.10192004318E+01  0.10189003723E+01 0.  0.
     999903    2    3    3    0    0 -0.51433897064E-01  0.63074659620E-01  0.95283385606E-01  0.12694300948E+00  0.20291516233E-01 0.  0.
         14    1    1    2    0    0 -0.19507729356E-01  0.10770543643E-01  0.10723592081E-01  0.24729568175E-01  0.00000000000E+00 0. -1.
     999901    1    3    3    0    0  0.70941626420E-01 -0.73845203263E-01 -0.10600697769E+00  0.89225742234E+00  0.88000000000E+00 0.  1.
        -11    1    4    4    0    0 -0.74442215386E-02  0.23372030091E-01  0.25336970231E-01  0.35268844699E-01  0.51100000000E-03 0. -1.
         11    1    4    4    0    0 -0.43989675525E-01  0.39702629529E-01  0.69946415375E-01  0.91674164785E-01  0.51100000000E-03 0.  1.
</event>
<event>
 8    1  0.1083484E+005  0.1043930E+01  0.7957747E-01            NaN
         13   -1    0    0    0    0  0.00000000000E+00  0.00000000000E+00  0.74505805969E-08  0.10566000000E+00  0.10566000000E+00 0. -1.
     999900   -1    0    0    0    0 -0.00000000000E+00 -0.00000000000E+00 -0.74505805969E-08  0.93827000000E+00  0.93827000000E+00 0. -1.
     999902    2    1    2    0    0 -0.79375198215E-03 -0.17292547718E-01 -0.16015452503E-01  0.10203470195E+01  0.10200744499E+01 0.  0.
     999903    2    3    3    0    0  0.77501979790E-01  0.66270216767E-01  0.75231529333E-01  0.12824894818E+00  0.19741104360E-01 0.  0.
         14    1    1    2    0    0  0.79375198215E-03  0.17292547718E-01  0.16015452503E-01  0.23582980466E-01  0.00000000000E+00 0. -1.
     999901    1    3    3    0    0 -0.78295731773E-01 -0.83562764485E-01 -0.91246981836E-01  0.89209807136E+00  0.88000000000E+00 0. -1.
        -11    1    4    4    0    0  0.46067736068E-01  0.28992975519E-01  0.46898963689E-01  0.71851255048E-01  0.51100000000E-03 0. -1.
         11    1    4    4    0    0  0.31434243722E-01  0.37277241248E-01  0.28332565644E-01  0.56397693131E-01  0.51100000000E-03 0.  1.
</event>
<event>
 8    1  0.1083484E+005  0.1043930E+01  0.7957747E-01            NaN
         13   -1    0    0    0    0  0.00000000000E+00  0.00000000000E+00  0.74505805969E-08  0.10566000000E+00  0.10566000000E+00 0. -1.
     999900   -1    0    0    0    0 -0.00000000000E+00 -0.00000000000E+00 -0.74505805969E-08  0.93827000000E+00  0.93827000000E+00 0.  1.
     999902    2    1    2    0    0 -0.11396419742E-01  0.13868310149E-01 -0.15402281811E-01  0.10202775436E+01  0.10200033467E+01 0.  0.
     999903    2    3    3    0    0 -0.95011990166E-02 -0.29547102096E-01  0.12296909769E+00  0.12840584399E+00  0.20083768568E-01 0.  0.
         14    1    1    2    0    0  0.11396419742E-01 -0.13868310149E-01  0.15402281811E-01  0.23652456411E-01  0.00000000000E+00 0. -1.
     999901    1    3    3    0    0 -0.18952207252E-02  0.43415412245E-01 -0.13837137950E+00  0.89187169960E+00  0.88000000000E+00 0.  1.
        -11    1    4    4    0    0 -0.64788264771E-02 -0.16738848098E-01  0.33839052629E-01  0.38308051791E-01  0.51100000000E-03 0.  1.
         11    1    4    4    0    0 -0.30223725396E-02 -0.12808253999E-01  0.89130045057E-01  0.90097792199E-01  0.51100000000E-03 0. -1.
</event>
<event>
 8    1  0.1083484E+005  0.1043930E+01  0.7957747E-01            NaN
         13   -1    0    0    0    0  0.00000000000E+00  0.00000000000E+00  0.74505805969E-08  0.10566000000E+00  0.10566000000E+00 0.  1.
     999900   -1    0    0    0    0 -0.00000000000E+00 -0.00000000000E+00 -0.74505805969E-08  0.93827000000E+00  0.93827000000E+00 0.  1.
     999902    2    1    2    0    0  0.15935486705E-01 -0.17159434839E-01 -0.41108263410E-02  0.10201542806E+01  0.10198771844E+01 0.  0.
     999903    2    3    3    0    0  0.86029791898E-01 -0.34258295299E-01 -0.93416542318E-01  0.13269662325E+00  0.17521060282E-01 0.  0.
         14    1    1    2    0    0 -0.15935486705E-01  0.17159434839E-01  0.41108263410E-02  0.23775719416E-01  0.00000000000E+00 0. -1.
     999901    1    3    3    0    0 -0.70094305193E-01  0.17098860460E-01  0.89305715976E-01  0.88745765733E+00  0.88000000000E+00 0. -1.
        -11    1    4    4    0    0  0.45193412863E-01 -0.10035733530E-01 -0.39553771430E-01  0.60892712774E-01  0.51100000000E-03 0.  1.
         11    1    4    4    0    0  0.40836379035E-01 -0.24222561769E-01 -0.53862770888E-01  0.71803910479E-01  0.51100000000E-03 0. -1.
</event>
<event>
 8    1  0.1083484E+005  0.1043930E+01  0.7957747E-01            NaN
         13   -1    0    0    0    0  0.00000000000E+00  0.00000000000E+00  0.74505805969E-08  0.10566000000E+00  0.10566000000E+00 0. -1.
     999900   -1    0    0    0    0 -0.00000000000E+00 -0.00000000000E+00 -0.74505805969E-08  0.93827000000E+00  0.93827000000E+00 0.  1.
     999902    2    1    2    0    0 -0.15797914415E-01  0.14147114239E-01 -0.41596709074E-02  0.10223194053E+01  0.10220909689E+01 0.  0.
     999903    2    3    3    0    0 -0.19036569305E-01 -0.29931659869E-02  0.13008131082E+00  0.13196839628E+00  0.11097755530E-01 0.  0.
         14    1    1    2    0    0  0.15797914415E-01 -0.14147114239E-01  0.41596709074E-02  0.21610594698E-01  0.00000000000E+00 0. -1.
     999901    1    3    3    0    0  0.32386548908E-02  0.17140280225E-01 -0.13424098173E+00  0.89035100902E+00  0.88000000000E+00 0.  1.
        -11    1    4    4    0    0 -0.43402359276E-02  0.35872319967E-02  0.47058507145E-01  0.47396941853E-01  0.51100000000E-03 0.  1.
         11    1    4    4    0    0 -0.14696333378E-01 -0.65803979836E-02  0.83022803678E-01  0.84571454427E-01  0.51100000000E-03 0. -1.
</event>
<event>
 8    1  0.1083484E+005  0.1043930E+01  0.7957747E-01            NaN
         13   -1    0    0    0    0  0.00000000000E+00  0.00000000000E+00  0.74505805969E-08  0.10566000000E+00  0.10566000000E+00 0. -1.
     999900   -1    0    0    0    0 -0.00000000000E+00 -0.00000000000E+00 -0.74505805969E-08  0.93827000000E+00  0.93827000000E+00 0.  1.
     999902    2    1    2    0    0 -0.12695496669E-02  0.32362463100E-01 -0.16784439911E-01  0.10074518120E+01  0.10067911876E+01 0.  0.
     999903    2    3    3    0    0 -0.89543160540E-01  0.25332403891E-01  0.70874099266E-01  0.11867418428E+00  0.20017886518E-01 0.  0.
         14    1    1    2    0    0  0.12695496669E-02 -0.32362463100E-01  0.16784439911E-01  0.36478187968E-01  0.00000000000E+00 0.  1.
     999901    1    3    3    0    0  0.88273610873E-01  0.70300592095E-02 -0.87658539177E-01  0.88877762776E+00  0.88000000000E+00 0.  1.
        -11    1    4    4    0    0 -0.62324599243E-01  0.26181075476E-01  0.54997057021E-01  0.87147815726E-01  0.51100000000E-03 0. -1.
         11    1    4    4    0    0 -0.27218561297E-01 -0.84867158584E-03  0.15877042245E-01  0.31526368550E-01  0.51100000000E-03 0.  1.
</event>
<event>
 8    1  0.1083484E+005  0.1043930E+01  0.7957747E-01            NaN
         13   -1    0    0    0    0  0.00000000000E+00  0.00000000000E+00  0.74505805969E-08  0.10566000000E+00  0.10566000000E+00 0.  1.
     999900   -1    0    0    0    0 -0.00000000000E+00 -0.00000000000E+00 -0.74505805969E-08  0.93827000000E+00  0.93827000000E+00 0. -1.
     999902    2    1    2    0    0  0.29110727246E-02 -0.22170586987E-01 -0.87410666511E-02  0.10199213449E+01  0.10196387274E+01 0.  0.
     999903    2    3    3    0    0  0.50028990252E-01  0.97989807485E-01 -0.64583978182E-01  0.12875522725E+00  0.17375732181E-01 0.  0.
         14    1    1    2    0    0 -0.29110727246E-02  0.22170586987E-01  0.87410666511E-02  0.24008655063E-01  0.00000000000E+00 0. -1.
     999901    1    3    3    0    0 -0.47117917527E-01 -0.12016039447E+00  0.55842911531E-01  0.89116611769E+00  0.88000000000E+00 0.  1.
        -11    1    4    4    0    0  0.25872376297E-01  0.67174394404E-01 -0.37744363914E-01  0.81281469272E-01  0.51100000000E-03 0.  1.
         11    1    4    4    0    0  0.24156613954E-01  0.30815413081E-01 -0.26839614268E-01  0.47473757974E-01  0.51100000000E-03 0. -1.
</event>
<event>
 8    1  0.1083484E+005  0.1043930E+01  0.7957747E-01            NaN
         13   -1    0    0    0    0  0.00000000000E+00  0.00000000000E+00  0.74505805969E-08  0.10566000000E+00  0.10566000000E+00 0. -1.
     999900   -1    0    0    0    0 -0.00000000000E+00 -0.00000000000E+00 -0.74505805969E-08  0.93827000000E+00  0.93827000000E+00 0.  1.
     999902    2    1    2    0    0 -0.19973958444E-01 -0.64467863452E-02 -0.18620613016E-01  0.10158720724E+01  0.10154845249E+01 0.  0.
     999903    2    3    3    0    0  0.69718931577E-01 -0.13054570980E-01 -0.10360487584E+00  0.12721533203E+00  0.20460184814E-01 0.  0.
         14    1    1    2    0    0  0.19973958444E-01  0.64467863452E-02  0.18620613016E-01  0.28057927564E-01  0.00000000000E+00 0. -1.
     999901    1    3    3    0    0 -0.89692890022E-01  0.66077846346E-02  0.84984262823E-01  0.88865674040E+00  0.88000000000E+00 0.  1.
        -11    1    4    4    0    0  0.62947625557E-01 -0.14667906548E-01 -0.81410771840E-01  0.10394963174E+00  0.51100000000E-03 0.  1.
         11    1    4    4    0    0  0.67713060203E-02  0.16133355684E-02 -0.22194103998E-01  0.23265700294E-01  0.51100000000E-03 0. -1.
</event>
<event>
 8    1  0.1083484E+005  0.1043930E+01  0.7957747E-01            NaN
         13   -1    0    0    0    0  0.00000000000E+00  0.00000000000E+00  0.74505805969E-08  0.10566000000E+00  0.10566000000E+00 0. -1.
     999900   -1    0    0    0    0 -0.00000000000E+00 -0.00000000000E+00 -0.74505805969E-08  0.93827000000E+00  0.93827000000E+00 0.  1.
     999902    2    1    2    0    0 -0.23131925104E-01  0.11392494843E-02  0.60077704142E-02  0.10200035052E+01  0.10197228415E+01 0.  0.
     999903    2    3    3    0    0 -0.12966408422E-01 -0.10731793158E+00 -0.69369562547E-01  0.13008887997E+00  0.20632845162E-01 0.  0.
         14    1    1    2    0    0  0.23131925104E-01 -0.11392494843E-02 -0.60077704142E-02  0.23926494807E-01  0.00000000000E+00 0. -1.
     999901    1    3    3    0    0 -0.10165516682E-01  0.10845718106E+00  0.75377332962E-01  0.88991462522E+00  0.88000000000E+00 0. -1.
        -11    1    4    4    0    0 -0.60395075664E-02 -0.77871764512E-01 -0.39314701071E-01  0.87443663013E-01  0.51100000000E-03 0. -1.
         11    1    4    4    0    0 -0.69269008552E-02 -0.29446167067E-01 -0.30054861476E-01  0.42645216962E-01  0.51100000000E-03 0.  1.
</event>
<event>
 8    1  0.1083484E+005  0.1043930E+01  0.7957747E-01            NaN
         13   -1    0    0    0    0  0.00000000000E+00  0.00000000000E+00  0.74505805969E-08  0.10566000000E+00  0.10566000000E+00 0. -1.
     999900   -1    0    0    0    0 -0.00000000000E+00 -0.00000000000E+00 -0.74505805969E-08  0.93827000000E+00  0.93827000000E+00 0.  1.
     999902    2    1    2    0    0 -0.87768999867E-03  0.26251080336E-02 -0.23305357159E-01  0.10204608457E+01  0.10201909313E+01 0.  0.
     999903    2    3    3    0    0 -0.37205499553E-02  0.89599280414E-02 -0.13171787191E+00  0.13378081030E+00  0.21297526203E-01 0.  0.
         14    1    1    2    0    0  0.87768999867E-03 -0.26251080336E-02  0.23305357159E-01  0.23469154314E-01  0.00000000000E+00 0. -1.
     999901    1    3    3    0    0  0.28428599566E-02 -0.63348200078E-02  0.10841251475E+00  0.88668003539E+00  0.88000000000E+00 0. -1.
        -11    1    4    4    0    0 -0.79944597797E-02  0.93632669229E-02 -0.37682454135E-01  0.39646066958E-01  0.51100000000E-03 0. -1.
         11    1    4    4    0    0  0.42739098245E-02 -0.40333888157E-03 -0.94035417772E-01  0.94134743342E-01  0.51100000000E-03 0.  1.
</event>
<event>
 8    1  0.1083484E+005  0.1043930E+01  0.7957747E-01            NaN
         13   -1    0    0    0    0  0.00000000000E+00  0.00000000000E+00  0.74505805969E-08  0.10566000000E+00  0.10566000000E+00 0. -1.
     999900   -1    0    0    0    0 -0.00000000000E+00 -0.00000000000E+00 -0.74505805969E-08  0.93827000000E+00  0.93827000000E+00 0.  1.
     999902    2    1    2    0    0  0.25464340818E-01  0.38972091199E-02 -0.41742552685E-02  0.10178331554E+01  0.10174985439E+01 0.  0.
     999903    2    3    3    0    0 -0.72608402667E-02  0.63926641798E-01  0.10880196873E+00  0.12798030380E+00  0.20043812713E-01 0.  0.
         14    1    1    2    0    0 -0.25464340818E-01 -0.38972091199E-02  0.41742552685E-02  0.26096844623E-01  0.00000000000E+00 0. -1.
     999901    1    3    3    0    0  0.32725181085E-01 -0.60029432678E-01 -0.11297622400E+00  0.88985285157E+00  0.88000000000E+00 0.  1.
        -11    1    4    4    0    0 -0.12019987900E-01  0.54217983624E-01  0.98270857333E-01  0.11287821924E+00  0.51100000000E-03 0. -1.
         11    1    4    4    0    0  0.47591476328E-02  0.97086581742E-02  0.10531111402E-01  0.15102084561E-01  0.51100000000E-03 0.  1.
</event>
<event>
 8    1  0.1083484E+005  0.1043930E+01  0.7957747E-01            NaN
         13   -1    0    0    0    0  0.00000000000E+00  0.00000000000E+00  0.74505805969E-08  0.10566000000E+00  0.10566000000E+00 0.  1.
     999900   -1    0    0    0    0 -0.00000000000E+00 -0.00000000000E+00 -0.74505805969E-08  0.93827000000E+00  0.93827000000E+00 0. -1.
     999902    2    1    2    0    0  0.82891692184E-02 -0.13071059707E-01 -0.19054358486E-01  0.10193814460E+01  0.10190858162E+01 0.  0.
     999903    2    3    3    0    0 -0.72778728353E-02 -0.50222128514E-01 -0.12084043953E+00  0.13259909329E+00  0.20121582711E-01 0.  0.
         14    1    1    2    0    0 -0.82891692184E-02  0.13071059707E-01  0.19054358486E-01  0.24548554041E-01  0.00000000000E+00 0.  1.
     999901    1    3    3    0    0  0.15567042054E-01  0.37151068807E-01  0.10178608104E+00  0.88678235267E+00  0.88000000000E+00 0.  1.
        -11    1    4    4    0    0 -0.55511693005E-02 -0.38137086070E-01 -0.66140749151E-01  0.76551372514E-01  0.51100000000E-03 0.  1.
         11    1    4    4    0    0 -0.17267035349E-02 -0.12085042444E-01 -0.54699690376E-01  0.56047720776E-01  0.51100000000E-03 0. -1.
</event>
<event>
 8    1  0.1083484E+005  0.1043930E+01  0.7957747E-01            NaN
         13   -1    0    0    0    0  0.00000000000E+00  0.00000000000E+00  0.74505805969E-08  0.10566000000E+00  0.10566000000E+00 0.  1.
     999900   -1    0    0    0    0 -0.00000000000E+00 -0.00000000000E+00 -0.74505805969E-08  0.93827000000E+00  0.93827000000E+00 0. -1.
     999902    2    1    2    0    0  0.55911291181E-02  0.11425679904E-01  0.20585884164E-01  0.10197311258E+01  0.10194439579E+01 0.  0.
     999903    2    3    3    0    0  0.88123082573E-01  0.82321842207E-01  0.51385039185E-01  0.13249588240E+00  0.19291791366E-01 0.  0.
         14    1    1    2    0    0 -0.55911291181E-02 -0.11425679904E-01 -0.20585884164E-01  0.24198874207E-01  0.00000000000E+00 0. -1.
     999901    1    3    3    0    0 -0.82531953455E-01 -0.70896162302E-01 -0.30799155021E-01  0.88723524339E+00  0.88000000000E+00 0. -1.
        -11    1    4    4    0    0  0.26156614392E-01  0.37088112812E-01  0.18014061358E-01  0.48830974965E-01  0.51100000000E-03 0.  1.
         11    1    4    4    0    0  0.61966468181E-01  0.45233729394E-01  0.33370977827E-01  0.83664907434E-01  0.51100000000E-03 0. -1.
</event>
<event>
 8    1  0.1083484E+005  0.1043930E+01  0.7957747E-01            NaN
         13   -1    0    0    0    0  0.00000000000E+00  0.00000000000E+00  0.74505805969E-08  0.10566000000E+00  0.10566000000E+00 0.  1.
     999900   -1    0    0    0    0 -0.00000000000E+00 -0.00000000000E+00 -0.74505805969E-08  0.93827000000E+00  0.93827000000E+00 0. -1.
     999902    2    1    2    0    0 -0.18126939810E-01  0.14568479415E-01  0.60884476478E-02  0.10198905380E+01  0.10196071860E+01 0.  0.
     999903    2    3    3    0    0  0.80859941109E-01  0.95256290306E-01 -0.27724235384E-01  0.13002974946E+00  0.22956733151E-01 0.  0.
         14    1    1    2    0    0  0.18126939810E-01 -0.14568479415E-01 -0.60884476478E-02  0.24039462018E-01  0.00000000000E+00 0. -1.
     999901    1    3    3    0    0 -0.98986880920E-01 -0.80687810891E-01  0.33812683032E-01  0.88986078853E+00  0.88000000000E+00 0.  1.
        -11    1    4    4    0    0  0.18267262865E-01  0.36022002268E-01 -0.36807152250E-02  0.40559663775E-01  0.51100000000E-03 0. -1.
         11    1    4    4    0    0  0.62592678245E-01  0.59234288038E-01 -0.24043520159E-01  0.89470085682E-01  0.51100000000E-03 0.  1.
</event>
<event>
 8    1  0.1083484E+005  0.1043930E+01  0.7957747E-01            NaN
         13   -1    0    0    0    0  0.00000000000E+00  0.00000000000E+00  0.74505805969E-08  0.10566000000E+00  0.10566000000E+00 0.  1.
     999900   -1    0    0    0    0 -0.00000000000E+00 -0.00000000000E+00 -0.74505805969E-08  0.93827000000E+00  0.93827000000E+00 0.  1.
     999902    2    1    2    0    0 -0.33652352716E-02 -0.16246923760E-01  0.18575297436E-01  0.10190235949E+01  0.10187191752E+01 0.  0.
     999903    2    3    3    0    0  0.13583021043E-01 -0.10420814262E+00 -0.73342259012E-01  0.12971304363E+00  0.20063680676E-01 0.  0.
         14    1    1    2    0    0  0.33652352716E-02  0.16246923760E-01 -0.18575297436E-01  0.24906405099E-01  0.00000000000E+00 0. -1.
     999901    1    3    3    0    0 -0.16948256314E-01  0.87961218860E-01  0.91917556448E-01  0.88931055127E+00  0.88000000000E+00 0. -1.
        -11    1    4    4    0    0 -0.46900616005E-02 -0.15379942574E-01 -0.14067937864E-01  0.21370711456E-01  0.51100000000E-03 0.  1.
         11    1    4    4    0    0  0.18273082643E-01 -0.88828200047E-01 -0.59274321148E-01  0.10834233218E+00  0.51100000000E-03 0. -1.
</event>
<event>
 8    1  0.1083484E+005  0.1043930E+01  0.7957747E-01            NaN
         13   -1    0    0    0    0  0.00000000000E+00  0.00000000000E+00  0.74505805969E-08  0.10566000000E+00  0.10566000000E+00 0.  1.
     999900   -1    0    0    0    0 -0.00000000000E+00 -0.00000000000E+00 -0.74505805969E-08  0.93827000000E+00  0.93827000000E+00 0. -1.
     999902    2    1    2    0    0  0.23930493153E-01 -0.93060820524E-02  0.21264983577E-01  0.10105912659E+01  0.10100412049E+01 0.  0.
     999903    2    3    3    0    0 -0.68058170301E-01 -0.50877756081E-01 -0.80831292427E-01  0.11895582028E+00  0.19908006804E-01 0.  0.
         14    1    1    2    0    0 -0.23930493153E-01  0.93060820524E-02 -0.21264983577E-01  0.33338734113E-01  0.00000000000E+00 0. -1.
     999901    1    3    3    0    0  0.91988663454E-01  0.41571674029E-01  0.10209627600E+00  0.89163544561E+00  0.88000000000E+00 0.  1.
        -11    1    4    4    0    0 -0.19999500467E-01 -0.61058750596E-02 -0.26172503912E-01  0.33504071562E-01  0.51100000000E-03 0.  1.
         11    1    4    4    0    0 -0.48058669834E-01 -0.44771881022E-01 -0.54658788515E-01  0.85451748720E-01  0.51100000000E-03 0. -1.
</event>
<event>
 8    1  0.1083484E+005  0.1043930E+01  0.7957747E-01            NaN
         13   -1    0    0    0    0  0.00000000000E+00  0.00000000000E+00  0.74505805969E-08  0.10566000000E+00  0.10566000000E+00 0.  1.
     999900   -1    0    0    0    0 -0.00000000000E+00 -0.00000000000E+00 -0.74505805969E-08  0.93827000000E+00  0.93827000000E+00 0.  1.
     999902    2    1    2    0    0 -0.18286134766E-03  0.59196317980E-02  0.23714093781E-01  0.10194875426E+01  0.10191944936E+01 0.  0.
     999903    2    3    3    0    0 -0.12710607596E+00 -0.37695356943E-02 -0.14565355362E-01  0.12950512785E+00  0.19729790062E-01 0.  0.
         14    1    1    2    0    0  0.18286134766E-03 -0.59196317980E-02 -0.23714093781E-01  0.24442457380E-01  0.00000000000E+00 0. -1.
     999901    1    3    3    0    0  0.12692321462E+00  0.96891674923E-02  0.38279449144E-01  0.88998241477E+00  0.88000000000E+00 0.  1.
        -11    1    4    4    0    0 -0.44101232236E-01  0.45419362137E-02  0.22952305062E-02  0.44396813775E-01  0.51100000000E-03 0.  1.
         11    1    4    4    0    0 -0.83004843729E-01 -0.83114719081E-02 -0.16860585869E-01  0.85108314074E-01  0.51100000000E-03 0. -1.
</event>
<event>
 8    1  0.1083484E+005  0.1043930E+01  0.7957747E-01            NaN
         13   -1    0    0    0    0  0.00000000000E+00  0.00000000000E+00  0.74505805969E-08  0.10566000000E+00  0.10566000000E+00 0.  1.
     999900   -1    0    0    0    0 -0.00000000000E+00 -0.00000000000E+00 -0.74505805969E-08  0.93827000000E+00  0.93827000000E+00 0. -1.
     999902    2    1    2    0    0 -0.15624185635E-01 -0.56075027743E-02 -0.17112807052E-01  0.10200887033E+01  0.10198100584E+01 0.  0.
     999903    2    3    3    0    0  0.85485314737E-01  0.49438382220E-01  0.77951135246E-01  0.12751358955E+00  0.20771214748E-01 0.  0.
         14    1    1    2    0    0  0.15624185635E-01  0.56075027743E-02  0.17112807052E-01  0.23841296721E-01  0.00000000000E+00 0.  1.
     999901    1    3    3    0    0 -0.10110950037E+00 -0.55045884994E-01 -0.95063942298E-01  0.89257511373E+00  0.88000000000E+00 0.  1.
        -11    1    4    4    0    0  0.49375325586E-01  0.38643022994E-01  0.54838604451E-01  0.83299097606E-01  0.51100000000E-03 0. -1.
         11    1    4    4    0    0  0.36109989151E-01  0.10795359226E-01  0.23112530795E-01  0.44214491946E-01  0.51100000000E-03 0.  1.
</event>
<event>
 8    1  0.1083484E+005  0.1043930E+01  0.7957747E-01            NaN
         13   -1    0    0    0    0  0.00000000000E+00  0.00000000000E+00  0.74505805969E-08  0.10566000000E+00  0.10566000000E+00 0. -1.
     999900   -1    0    0    0    0 -0.00000000000E+00 -0.00000000000E+00 -0.74505805969E-08  0.93827000000E+00  0.93827000000E+00 0.  1.
     999902    2    1    2    0    0  0.11170808689E-01 -0.18912920955E-01  0.71082341531E-02  0.10208429357E+01  0.10205818374E+01 0.  0.
     999903    2    3    3    0    0  0.11008294328E-01 -0.57932364045E-01 -0.11579367337E+00  0.13144571159E+00  0.19810576879E-01 0.  0.
         14    1    1    2    0    0 -0.11170808689E-01  0.18912920955E-01 -0.71082341531E-02  0.23087064313E-01  0.00000000000E+00 0.  1.
     999901    1    3    3    0    0  0.16251436131E-03  0.39019443089E-01  0.12290190752E+00  0.88939722409E+00  0.88000000000E+00 0. -1.
        -11    1    4    4    0    0  0.16414157904E-01 -0.40761559243E-01 -0.76550076651E-01  0.88267234283E-01  0.51100000000E-03 0.  1.
         11    1    4    4    0    0 -0.54058635762E-02 -0.17170804802E-01 -0.39243596719E-01  0.43178477312E-01  0.51100000000E-03 0. -1.
</event>
<event>
 8    1  0.1083484E+005  0.1043930E+01  0.7957747E-01            NaN
         13   -1    0    0    0    0  0.00000000000E+00  0.00000000000E+00  0.74505805969E-08  0.10566000000E+00  0.10566000000E+00 0.  1.
     999900   -1    0    0    0    0 -0.00000000000E+00 -0.00000000000E+00 -0.74505805969E-08  0.93827000000E+00  0.93827000000E+00 0. -1.
     999902    2    1    2    0    0  0.83710530961E-02  0.13460374007E-01 -0.17346815048E-01  0.10204317407E+01  0.10201611487E+01 0.  0.
     999903    2    3    3    0    0 -0.12834301185E-01 -0.11767740760E+00 -0.49383833417E-01  0.12988519201E+00  0.20462369263E-01 0.  0.
         14    1    1    2    0    0 -0.83710530961E-02 -0.13460374007E-01  0.17346815048E-01  0.23498259311E-01  0.00000000000E+00 0.  1.
     999901    1    3    3    0    0  0.21205354281E-01  0.13113778160E+00  0.32037018369E-01  0.89054654868E+00  0.88000000000E+00 0.  1.
        -11    1    4    4    0    0 -0.93456741564E-02 -0.70262023856E-01 -0.40105543046E-01  0.81442061158E-01  0.51100000000E-03 0.  1.
         11    1    4    4    0    0 -0.34886270286E-02 -0.47415383740E-01 -0.92782903714E-02  0.48443130854E-01  0.51100000000E-03 0. -1.
</event>
<event>
 8    1  0.1083484E+005  0.1043930E+01  0.7957747E-01            NaN
         13   -1    0    0    0    0  0.00000000000E+00  0.00000000000E+00  0.74505805969E-08  0.10566000000E+00  0.10566000000E+00 0. -1.
     999900   -1    0    0    0    0 -0.00000000000E+00 -0.00000000000E+00 -0.74505805969E-08  0.93827000000E+00  0.93827000000E+00 0.  1.
     999902    2    1    2    0    0  0.10568962203E-01  0.13889373585E-01  0.14944368990E-01  0.10209527977E+01  0.10206942066E+01 0.  0.
     999903    2    3    3    0    0  0.93749431341E-01  0.89390658401E-01  0.26707949763E-01  0.13373364987E+00  0.19792140901E-01 0.  0.
         14    1    1    2    0    0 -0.10568962203E-01 -0.13889373585E-01 -0.14944368990E-01  0.22977202291E-01  0.00000000000E+00 0.  1.
     999901    1    3    3    0    0 -0.83180469139E-01 -0.75501284816E-01 -0.11763580773E-01  0.88721914784E+00  0.88000000000E+00 0. -1.
        -11    1    4    4    0    0  0.23016395904E-01  0.26201008404E-01  0.15695689228E-01  0.38247393417E-01  0.51100000000E-03 0.  1.
         11    1    4    4    0    0  0.70733035437E-01  0.63189649997E-01  0.11012260535E-01  0.95486256456E-01  0.51100000000E-03 0. -1.
</event>
<event>
 8    1  0.1083484E+005  0.1043930E+01  0.7957747E-01            NaN
         13   -1    0    0    0    0  0.00000000000E+00  0.00000000000E+00  0.74505805969E-08  0.10566000000E+00  0.10566000000E+00 0. -1.
     999900   -1    0    0    0    0 -0.00000000000E+00 -0.00000000000E+00 -0.74505805969E-08  0.93827000000E+00  0.93827000000E+00 0. -1.
     999902    2    1    2    0    0  0.19965455093E-01 -0.11346491744E-01 -0.52647224430E-02  0.10203698732E+01  0.10200978377E+01 0.  0.
     999903    2    3    3    0    0 -0.74319247661E-02  0.11172301909E+00 -0.62290049390E-01  0.12955641977E+00  0.19171571363E-01 0.  0.
         14    1    1    2    0    0 -0.19965455093E-01  0.11346491744E-01  0.52647224430E-02  0.23560126790E-01  0.00000000000E+00 0. -1.
     999901    1    3    3    0    0  0.27397379859E-01 -0.12306951084E+00  0.57025326947E-01  0.89081345344E+00  0.88000000000E+00 0.  1.
        -11    1    4    4    0    0 -0.68519077714E-02  0.34492703228E-01 -0.28438199002E-01  0.45229277018E-01  0.51100000000E-03 0. -1.
         11    1    4    4    0    0 -0.58001699477E-03  0.77230315867E-01 -0.33851850388E-01  0.84327142749E-01  0.51100000000E-03 0.  1.
</event>
<event>
 8    1  0.1083484E+005  0.1043930E+01  0.7957747E-01            NaN
         13   -1    0    0    0    0  0.00000000000E+00  0.00000000000E+00  0.74505805969E-08  0.10566000000E+00  0.10566000000E+00 0. -1.
     999900   -1    0    0    0    0 -0.00000000000E+00 -0.00000000000E+00 -0.74505805969E-08  0.93827000000E+00  0.93827000000E+00 0.  1.
     999902    2    1    2    0    0 -0.10781190090E-01  0.10805881181E-01  0.17327038771E-01  0.10208382829E+01  0.10205770781E+01 0.  0.
     999903    2    3    3    0    0  0.11153986228E+00 -0.24361828600E-01  0.60113862439E-01  0.13065295387E+00  0.20539676960E-01 0.  0.
         14    1    1    2    0    0  0.10781190090E-01 -0.10805881181E-01 -0.17327038771E-01  0.23091717139E-01  0.00000000000E+00 0.  1.
     999901    1    3    3    0    0 -0.12232105237E+00  0.35167709781E-01 -0.42786823668E-01  0.89018532899E+00  0.88000000000E+00 0.  1.
        -11    1    4    4    0    0  0.83637158848E-01 -0.26973991756E-01  0.43323221888E-01  0.97979249065E-01  0.51100000000E-03 0. -1.
         11    1    4    4    0    0  0.27902703427E-01  0.26121631562E-02  0.16790640551E-01  0.32673704810E-01  0.51100000000E-03 0.  1.
</event>
<event>
 8    1  0.1083484E+005  0.1043930E+01  0.7957747E-01            NaN
         13   -1    0    0    0    0  0.00000000000E+00  0.00000000000E+00  0.74505805969E-08  0.10566000000E+00  0.10566000000E+00 0.  1.
     999900   -1    0    0    0    0 -0.00000000000E+00 -0.00000000000E+00 -0.74505805969E-08  0.93827000000E+00  0.93827000000E+00 0. -1.
     999902    2    1    2    0    0  0.61590812538E-02 -0.21619523858E-01 -0.35061042312E-02  0.10211784976E+01  0.10209250184E+01 0.  0.
     999903    2    3    3    0    0  0.10336156534E+00 -0.33998346363E-01  0.72857977374E-01  0.13245298818E+00  0.19899961457E-01 0.  0.
         14    1    1    2    0    0 -0.61590812538E-02  0.21619523858E-01  0.35061042312E-02  0.22751502381E-01  0.00000000000E+00 0.  1.
     999901    1    3    3    0    0 -0.97202484091E-01  0.12378822506E-01 -0.76364081605E-01  0.88872550943E+00  0.88000000000E+00 0. -1.
        -11    1    4    4    0    0  0.67957504008E-01 -0.32088979764E-01  0.49293567658E-01  0.89877927806E-01  0.51100000000E-03 0.  1.
         11    1    4    4    0    0  0.35404061337E-01 -0.19093665998E-02  0.23564409716E-01  0.42575060378E-01  0.51100000000E-03 0. -1.
</event>
<event>
 8    1  0.1083484E+005  0.1043930E+01  0.7957747E-01            NaN
         13   -1    0    0    0    0  0.00000000000E+00  0.00000000000E+00  0.74505805969E-08  0.10566000000E+00  0.10566000000E+00 0.  1.
     999900   -1    0    0    0    0 -0.00000000000E+00 -0.00000000000E+00 -0.74505805969E-08  0.93827000000E+00  0.93827000000E+00 0. -1.
     999902    2    1    2    0    0  0.15206138602E-02 -0.13196641017E-02 -0.23768978498E-01  0.10200758993E+01  0.10197969515E+01 0.  0.
     999903    2    3    3    0    0  0.85449170609E-01 -0.93589018748E-01 -0.27759394378E-01  0.13127133146E+00  0.20027813161E-01 0.  0.
         14    1    1    2    0    0 -0.15206138602E-02  0.13196641017E-02  0.23768978498E-01  0.23854100668E-01  0.00000000000E+00 0.  1.
     999901    1    3    3    0    0 -0.83928556749E-01  0.92269354647E-01  0.39904158798E-02  0.88880456787E+00  0.88000000000E+00 0. -1.
        -11    1    4    4    0    0  0.62635626424E-01 -0.62187111270E-01 -0.27510782409E-01  0.92453030103E-01  0.51100000000E-03 0. -1.
         11    1    4    4    0    0  0.22813544185E-01 -0.31401907479E-01 -0.24861196892E-03  0.38818301360E-01  0.51100000000E-03 0.  1.
</event>
<event>
 8    1  0.1083484E+005  0.1043930E+01  0.7957747E-01            NaN
         13   -1    0    0    0    0  0.00000000000E+00  0.00000000000E+00  0.74505805969E-08  0.10566000000E+00  0.10566000000E+00 0.  1.
     999900   -1    0    0    0    0 -0.00000000000E+00 -0.00000000000E+00 -0.74505805969E-08  0.93827000000E+00  0.93827000000E+00 0. -1.
     999902    2    1    2    0    0 -0.21810224791E-01  0.29543083138E-01 -0.47953984958E-02  0.10068965622E+01  0.10062152908E+01 0.  0.
     999903    2    3    3    0    0  0.10391484422E-01 -0.59706893213E-01  0.96886564319E-01  0.11597471946E+00  0.19754320095E-01 0.  0.
         14    1    1    2    0    0  0.21810224791E-01 -0.29543083138E-01  0.47953984958E-02  0.37033437776E-01  0.00000000000E+00 0. -1.
     999901    1    3    3    0    0 -0.32201709213E-01  0.89249976351E-01 -0.10168196281E+00  0.89092184277E+00  0.88000000000E+00 0. -1.
        -11    1    4    4    0    0  0.44790152600E-02 -0.36413509165E-01  0.74874062061E-01  0.83381002140E-01  0.51100000000E-03 0.  1.
         11    1    4    4    0    0  0.59124691617E-02 -0.23293384048E-01  0.22012502258E-01  0.32593717318E-01  0.51100000000E-03 0. -1.
</event>
<event>
 8    1  0.1083484E+005  0.1043930E+01  0.7957747E-01            NaN
         13   -1    0    0    0    0  0.00000000000E+00  0.00000000000E+00  0.74505805969E-08  0.10566000000E+00  0.10566000000E+00 0.  1.
     999900   -1    0    0    0    0 -0.00000000000E+00 -0.00000000000E+00 -0.74505805969E-08  0.93827000000E+00  0.93827000000E+00 0. -1.
     999902    2    1    2    0    0 -0.58465324565E-02 -0.57248076973E-02  0.22249736319E-01  0.10202233315E+01  0.10199478614E+01 0.  0.
     999903    2    3    3    0    0  0.45924701156E-01  0.70548630511E-01  0.99535558637E-01  0.13203923103E+00  0.20996277144E-01 0.  0.
         14    1    1    2    0    0  0.58465324565E-02  0.57248076973E-02 -0.22249736319E-01  0.23706668497E-01  0.00000000000E+00 0. -1.
     999901    1    3    3    0    0 -0.51771233613E-01 -0.76273438208E-01 -0.77285822318E-01  0.88818410048E+00  0.88000000000E+00 0.  1.
        -11    1    4    4    0    0  0.19772676882E-01  0.42804002636E-01  0.66910530663E-01  0.81856103177E-01  0.51100000000E-03 0.  1.
         11    1    4    4    0    0  0.26152024274E-01  0.27744627874E-01  0.32625027975E-01  0.50183127851E-01  0.51100000000E-03 0. -1.
</event>
<event>
 8    1  0.1083484E+005  0.1043930E+01  0.7957747E-01            NaN
         13   -1    0    0    0    0  0.00000000000E+00  0.00000000000E+00  0.74505805969E-08  0.10566000000E+00  0.10566000000E+00 0. -1.
     999900   -1    0    0    0    0 -0.00000000000E+00 -0.00000000000E+00 -0.74505805969E-08  0.93827000000E+00  0.93827000000E+00 0. -1.
     999902    2    1    2    0    0 -0.33190024359E-03  0.16193571172E-01  0.19358501453E-01  0.10186892892E+01  0.10183765386E+01 0.  0.
     999903    2    3    3    0    0  0.12101675941E-01 -0.74509911062E-01 -0.99301258246E-01  0.12601809881E+00  0.17934434265E-01 0.  0.
         14    1    1    2    0    0  0.33190024359E-03 -0.16193571172E-01 -0.19358501453E-01  0.25240710838E-01  0.00000000000E+00 0.  1.
     999901    1    3    3    0    0 -0.12433576184E-01  0.90703482234E-01  0.11865975970E+00  0.89267119035E+00  0.88000000000E+00 0.  1.
        -11    1    4    4    0    0 -0.34632899005E-02 -0.32336399745E-01 -0.38469350087E-01  0.50376474097E-01  0.51100000000E-03 0.  1.
         11    1    4    4    0    0  0.15564965841E-01 -0.42173511317E-01 -0.60831908159E-01  0.75641624717E-01  0.51100000000E-03 0. -1.
</event>
<event>
 8    1  0.1083484E+005  0.1043930E+01  0.7957747E-01            NaN
         13   -1    0    0    0    0  0.00000000000E+00  0.00000000000E+00  0.74505805969E-08  0.10566000000E+00  0.10566000000E+00 0.  1.
     999900   -1    0    0    0    0 -0.00000000000E+00 -0.00000000000E+00 -0.74505805969E-08  0.93827000000E+00  0.93827000000E+00 0. -1.
     999902    2    1    2    0    0 -0.69563625488E-02  0.23798899751E-02 -0.23285517037E-01  0.10195113563E+01  0.10192188850E+01 0.  0.
     999903    2    3    3    0    0 -0.18105866953E-01  0.96284989313E-01 -0.86677660821E-01  0.13217768568E+00  0.18955266326E-01 0.  0.
         14    1    1    2    0    0  0.69563625488E-02 -0.23798899751E-02  0.23285517037E-01  0.24418643695E-01  0.00000000000E+00 0.  1.
     999901    1    3    3    0    0  0.11149504404E-01 -0.93905099338E-01  0.63392143783E-01  0.88733367062E+00  0.88000000000E+00 0.  1.
        -11    1    4    4    0    0 -0.15142866153E-01  0.36611295428E-01 -0.40548247700E-01  0.56693164145E-01  0.51100000000E-03 0. -1.
         11    1    4    4    0    0 -0.29630007999E-02  0.59673693885E-01 -0.46129413121E-01  0.75484521535E-01  0.51100000000E-03 0.  1.
</event>
<event>
 8    1  0.1083484E+005  0.1043930E+01  0.7957747E-01            NaN
         13   -1    0    0    0    0  0.00000000000E+00  0.00000000000E+00  0.74505805969E-08  0.10566000000E+00  0.10566000000E+00 0.  1.
     999900   -1    0    0    0    0 -0.00000000000E+00 -0.00000000000E+00 -0.74505805969E-08  0.93827000000E+00  0.93827000000E+00 0.  1.
     999902    2    1    2    0    0  0.83219084384E-02  0.22636049015E-01 -0.10781910311E-01  0.10175123077E+01  0.10171693084E+01 0.  0.
     999903    2    3    3    0    0  0.11954360758E+00 -0.28923362136E-01 -0.33354780550E-01  0.12872764668E+00  0.18194247568E-01 0.  0.
         14    1    1    2    0    0 -0.83219084384E-02 -0.22636049015E-01  0.10781910311E-01  0.26417692273E-01  0.00000000000E+00 0.  1.
     999901    1    3    3    0    0 -0.11122169914E+00  0.51559411151E-01  0.22572870239E-01  0.88878466104E+00  0.88000000000E+00 0. -1.
        -11    1    4    4    0    0  0.84425868164E-01 -0.19826500803E-01 -0.14800477254E-01  0.87978023376E-01  0.51100000000E-03 0.  1.
         11    1    4    4    0    0  0.35117739415E-01 -0.90968613329E-02 -0.18554303296E-01  0.40749623306E-01  0.51100000000E-03 0. -1.
</event>
<event>
 8    1  0.1083484E+005  0.1043930E+01  0.7957747E-01            NaN
         13   -1    0    0    0    0  0.00000000000E+00  0.00000000000E+00  0.74505805969E-08  0.10566000000E+00  0.10566000000E+00 0. -1.
     999900   -1    0    0    0    0 -0.00000000000E+00 -0.00000000000E+00 -0.74505805969E-08  0.93827000000E+00  0.93827000000E+00 0.  1.
     999902    2    1    2    0    0 -0.14615487375E-02  0.37949076706E-02  0.23188947423E-01  0.10203871724E+01  0.10201155409E+01 0.  0.
     999903    2    3    3    0    0 -0.79649066139E-01 -0.10026892623E+00 -0.11565970000E-01  0.13013413326E+00  0.20082073441E-01 0.  0.
         14    1    1    2    0    0  0.14615487375E-02 -0.37949076706E-02 -0.23188947423E-01  0.23542827603E-01  0.00000000000E+00 0.  1.
     999901    1    3    3    0    0  0.78187517401E-01  0.10406383390E+00  0.34754917424E-01  0.89025303913E+00  0.88000000000E+00 0. -1.
        -11    1    4    4    0    0 -0.45475298427E-01 -0.42294772754E-01 -0.18100903071E-02  0.62132021674E-01  0.51100000000E-03 0.  1.
         11    1    4    4    0    0 -0.34173767712E-01 -0.57974153476E-01 -0.97558796930E-02  0.68002111588E-01  0.51100000000E-03 0. -1.
</event>
<event>
 8    1  0.1083484E+005  0.1043930E+01  0.7957747E-01            NaN
         13   -1    0    0    0    0  0.00000000000E+00  0.00000000000E+00  0.74505805969E-08  0.10566000000E+00  0.10566000000E+00 0. -1.
     999900   -1    0    0    0    0 -0.00000000000E+00 -0.00000000000E+00 -0.74505805969E-08  0.93827000000E+00  0.93827000000E+00 0. -1.
     999902    2    1    2    0    0 -0.68014122649E-03  0.19070302089E-01  0.15698754333E-01  0.10192198826E+01  0.10189203007E+01 0.  0.
     999903    2    3    3    0    0 -0.90059185299E-03  0.12793655786E+00 -0.23990085818E-01  0.13162362626E+00  0.19511044831E-01 0.  0.
         14    1    1    2    0    0  0.68014122649E-03 -0.19070302089E-01 -0.15698754333E-01  0.24710117390E-01  0.00000000000E+00 0.  1.
     999901    1    3    3    0    0  0.22045062650E-03 -0.10886625577E+00  0.39688840151E-01  0.88759625634E+00  0.88000000000E+00 0.  1.
        -11    1    4    4    0    0 -0.83609214523E-02  0.10180564523E+00 -0.16944830629E-01  0.10354555913E+00  0.51100000000E-03 0. -1.
         11    1    4    4    0    0  0.74603295993E-02  0.26130912629E-01 -0.70452551888E-02  0.28078067139E-01  0.51100000000E-03 0.  1.
</event>
<event>
 8    1  0.1083484E+005  0.1043930E+01  0.7957747E-01            NaN
         13   -1    0    0    0    0  0.00000000000E+00  0.00000000000E+00  0.74505805969E-08  0.10566000000E+00  0.10566000000E+00 0. -1.
     999900   -1    0    0    0    0 -0.00000000000E+00 -0.00000000000E+00 -0.74505805969E-08  0.93827000000E+00  0.93827000000E+00 0. -1.
     999902    2    1    2    0    0 -0.14872653580E-01 -0.11592368503E-01 -0.15055498202E-01  0.10198002081E+01  0.10195146971E+01 0.  0.
     999903    2    3    3    0    0  0.49198905511E-01  0.10305437415E+00 -0.57089212057E-01  0.12906126014E+00  0.18891648958E-01 0.  0.
         14    1    1    2    0    0  0.14872653580E-01  0.11592368503E-01  0.15055498202E-01  0.24129791920E-01  0.00000000000E+00 0. -1.
     999901    1    3    3    0    0 -0.64071559090E-01 -0.11464674265E+00  0.42033713855E-01  0.89073894794E+00  0.88000000000E+00 0.  1.
        -11    1    4    4    0    0  0.58986928078E-02  0.30880582672E-01 -0.12761025348E-01  0.33933904166E-01  0.51100000000E-03 0.  1.
         11    1    4    4    0    0  0.43300212703E-01  0.72173791474E-01 -0.44328186709E-01  0.95127355970E-01  0.51100000000E-03 0. -1.
</event>
<event>
 8    1  0.1083484E+005  0.1043930E+01  0.7957747E-01            NaN
         13   -1    0    0    0    0  0.00000000000E+00  0.00000000000E+00  0.74505805969E-08  0.10566000000E+00  0.10566000000E+00 0. -1.
     999900   -1    0    0    0    0 -0.00000000000E+00 -0.00000000000E+00 -0.74505805969E-08  0.93827000000E+00  0.93827000000E+00 0.  1.
     999902    2    1    2    0    0  0.10726095315E-01  0.11175318507E-01  0.17687190580E-01  0.10204188627E+01  0.10201479706E+01 0.  0.
     999903    2    3    3    0    0 -0.60548624457E-01  0.69177194080E-01 -0.88820328907E-01  0.12924651412E+00  0.19078534543E-01 0.  0.
         14    1    1    2    0    0 -0.10726095315E-01 -0.11175318507E-01 -0.17687190580E-01  0.23511137256E-01  0.00000000000E+00 0.  1.
     999901    1    3    3    0    0  0.71274719772E-01 -0.58001875573E-01  0.10650751949E+00  0.89117234863E+00  0.88000000000E+00 0. -1.
        -11    1    4    4    0    0 -0.51402883759E-01  0.49014363263E-01 -0.60544503414E-01  0.93330393118E-01  0.51100000000E-03 0. -1.
         11    1    4    4    0    0 -0.91457406977E-02  0.20162830817E-01 -0.28275825492E-01  0.35916121001E-01  0.51100000000E-03 0.  1.
</event>
<event>
 8    1  0.1083484E+005  0.1043930E+01  0.7957747E-01            NaN
         13   -1    0    0    0    0  0.00000000000E+00  0.00000000000E+00  0.74505805969E-08  0.10566000000E+00  0.10566000000E+00 0. -1.
     999900   -1    0    0    0    0 -0.00000000000E+00 -0.00000000000E+00 -0.74505805969E-08  0.93827000000E+00  0.93827000000E+00 0.  1.
     999902    2    1    2    0    0  0.16659062715E-01 -0.66035760077E-02 -0.15903283221E-01  0.10199707428E+01  0.10196893008E+01 0.  0.
     999903    2    3    3    0    0 -0.12199371908E-02 -0.45304223990E-01  0.11863503912E+00  0.12872556951E+00  0.21024718323E-01 0.  0.
         14    1    1    2    0    0 -0.16659062715E-01  0.66035760077E-02  0.15903283221E-01  0.23959257164E-01  0.00000000000E+00 0. -1.
     999901    1    3    3    0    0  0.17878999906E-01  0.38700647983E-01 -0.13453832234E+00  0.89124517332E+00  0.88000000000E+00 0.  1.
        -11    1    4    4    0    0 -0.20015590539E-02 -0.44907150723E-01  0.95324757371E-01  0.10539321095E+00  0.51100000000E-03 0. -1.
         11    1    4    4    0    0  0.78162186317E-03 -0.39707326721E-03  0.23310281753E-01  0.23332358567E-01  0.51100000000E-03 0.  1.
</event>
<event>
 8    1  0.1083484E+005  0.1043930E+01  0.7957747E-01            NaN
         13   -1    0    0    0    0  0.00000000000E+00  0.00000000000E+00  0.74505805969E-08  0.10566000000E+00  0.10566000000E+00 0.  1.
     999900   -1    0    0    0    0 -0.00000000000E+00 -0.00000000000E+00 -0.74505805969E-08  0.93827000000E+00  0.93827000000E+00 0. -1.
     999902    2    1    2    0    0 -0.52584403388E-02 -0.23221563329E-01  0.15402064433E-02  0.10200707369E+01  0.10197916669E+01 0.  0.
     999903    2    3    3    0    0  0.98149769654E-01  0.64989669185E-01 -0.47169515257E-01  0.12830444668E+00  0.19494447551E-01 0.  0.
         14    1    1    2    0    0  0.52584403388E-02  0.23221563329E-01 -0.15402064433E-02  0.23859263067E-01  0.00000000000E+00 0. -1.
     999901    1    3    3    0    0 -0.10340820999E+00 -0.88211232514E-01  0.48709721701E-01  0.89176629025E+00  0.88000000000E+00 0.  1.
        -11    1    4    4    0    0  0.57508087892E-01  0.39769133986E-01 -0.17720372604E-01  0.72132079668E-01  0.51100000000E-03 0.  1.
         11    1    4    4    0    0  0.40641681763E-01  0.25220535199E-01 -0.29449142653E-01  0.56172367016E-01  0.51100000000E-03 0. -1.
</event>
<event>
 8    1  0.1083484E+005  0.1043930E+01  0.7957747E-01            NaN
         13   -1    0    0    0    0  0.00000000000E+00  0.00000000000E+00  0.74505805969E-08  0.10566000000E+00  0.10566000000E+00 0.  1.
     999900   -1    0    0    0    0 -0.00000000000E+00 -0.00000000000E+00 -0.74505805969E-08  0.93827000000E+00  0.93827000000E+00 0.  1.
     999902    2    1    2    0    0  0.38050800943E-02 -0.21044331014E-01  0.79703645982E-02  0.10211074407E+01  0.10208523577E+01 0.  0.
     999903    2    3    3    0    0 -0.25036729077E-01  0.12428996812E+00  0.10578806332E-01  0.12871699226E+00  0.19527390371E-01 0.  0.
         14    1    1    2    0    0 -0.38050800943E-02  0.21044331014E-01 -0.79703645982E-02  0.22822559325E-01  0.00000000000E+00 0. -1.
     999901    1    3    3    0    0  0.28841809171E-01 -0.14533429913E+00 -0.26084417335E-02  0.89239044842E+00  0.88000000000E+00 0.  1.
        -11    1    4    4    0    0 -0.99556931453E-02  0.76330734608E-01 -0.15620031377E-02  0.76994791036E-01  0.51100000000E-03 0. -1.
         11    1    4    4    0    0 -0.15081035932E-01  0.47959233509E-01  0.12140809469E-01  0.51722201220E-01  0.51100000000E-03 0.  1.
</event>
<event>
 7    1  0.1083484E+005  0.1043930E+01  0.7957747E-01            NaN
         13   -1    0    0    0    0  0.00000000000E+00  0.00000000000E+00  0.74505805969E-08  0.10566000000E+00  0.10566000000E+00 0. -1.
     999900   -1    0    0    0    0 -0.00000000000E+00 -0.00000000000E+00 -0.74505805969E-08  0.93827000000E+00  0.93827000000E+00 0.  1.
     999903    2    1    2    0    0 -0.61959288319E-01  0.14416663368E-01 -0.98486182036E-01  0.11929063803E+00  0.21998515352E-01 0.  0.
         14    1    1    2    0    0  0.37221202235E-01 -0.11669719861E-01  0.29590488153E-02  0.39119767731E-01  0.00000000000E+00 0.  1.
     999901    1    1    2    0    0  0.24738086084E-01 -0.27469435070E-02  0.95527133221E-01  0.88551959424E+00  0.88000000000E+00 0. -1.
        -11    1    3    3    0    0 -0.46478790346E-01  0.56365454542E-02 -0.84671687029E-01  0.96755383839E-01  0.51100000000E-03 0.  1.
         11    1    3    3    0    0 -0.15480497973E-01  0.87801179139E-02 -0.13814495007E-01  0.22535254190E-01  0.51100000000E-03 0. -1.
</event>
<event>
 8    1  0.1083484E+005  0.1043930E+01  0.7957747E-01            NaN
         13   -1    0    0    0    0  0.00000000000E+00  0.00000000000E+00  0.74505805969E-08  0.10566000000E+00  0.10566000000E+00 0.  1.
     999900   -1    0    0    0    0 -0.00000000000E+00 -0.00000000000E+00 -0.74505805969E-08  0.93827000000E+00  0.93827000000E+00 0.  1.
     999902    2    1    2    0    0 -0.76505206152E-02 -0.32173279461E-02 -0.21795102593E-01  0.10206081613E+01  0.10203416637E+01 0.  0.
     999903    2    3    3    0    0  0.10830244521E+00 -0.28978858208E-01 -0.65818721440E-01  0.13153739595E+00  0.20019704823E-01 0.  0.
         14    1    1    2    0    0  0.76505206152E-02  0.32173279461E-02  0.21795102593E-01  0.23321838732E-01  0.00000000000E+00 0.  1.
     999901    1    3    3    0    0 -0.11595296582E+00  0.25761530262E-01  0.44023618848E-01  0.88907076532E+00  0.88000000000E+00 0. -1.
        -11    1    4    4    0    0  0.37038297642E-01 -0.14439590083E-01 -0.13673480252E-01  0.42042388576E-01  0.51100000000E-03 0.  1.
         11    1    4    4    0    0  0.71264147563E-01 -0.14539268125E-01 -0.52145241189E-01  0.89495007376E-01  0.51100000000E-03 0. -1.
</event>
<event>
 8    1  0.1083484E+005  0.1043930E+01  0.7957747E-01            NaN
         13   -1    0    0    0    0  0.00000000000E+00  0.00000000000E+00  0.74505805969E-08  0.10566000000E+00  0.10566000000E+00 0.  1.
     999900   -1    0    0    0    0 -0.00000000000E+00 -0.00000000000E+00 -0.74505805969E-08  0.93827000000E+00  0.93827000000E+00 0. -1.
     999902    2    1    2    0    0 -0.20072386132E-01 -0.93350485646E-02 -0.74373219509E-02  0.10205771078E+01  0.10203098918E+01 0.  0.
     999903    2    3    3    0    0 -0.32237006421E-01  0.12396144612E+00 -0.14253165853E-01  0.13042971033E+00  0.20077148504E-01 0.  0.
         14    1    1    2    0    0  0.20072386132E-01  0.93350485646E-02  0.74373219509E-02  0.23352892209E-01  0.00000000000E+00 0.  1.
     999901    1    3    3    0    0  0.12164620289E-01 -0.13329649469E+00  0.68158439023E-02  0.89014739746E+00  0.88000000000E+00 0. -1.
        -11    1    4    4    0    0 -0.16663247870E-01  0.75818467240E-01 -0.18000442784E-01  0.79689276981E-01  0.51100000000E-03 0. -1.
         11    1    4    4    0    0 -0.15573758551E-01  0.48142978880E-01  0.37472769309E-02  0.50740433347E-01  0.51100000000E-03 0.  1.
</event>
<event>
 8    1  0.1083484E+005  0.1043930E+01  0.7957747E-01            NaN
         13   -1    0    0    0    0  0.00000000000E+00  0.00000000000E+00  0.74505805969E-08  0.10566000000E+00  0.10566000000E+00 0.  1.
     999900   -1    0    0    0    0 -0.00000000000E+00 -0.00000000000E+00 -0.74505805969E-08  0.93827000000E+00  0.93827000000E+00 0.  1.
     999902    2    1    2    0    0 -0.56588022378E-02  0.12838666883E-01  0.88567741880E-02  0.10273379580E+01  0.10272039642E+01 0.  0.
     999903    2    3    3    0    0 -0.11202388250E+00  0.48504851468E-01 -0.59997768299E-01  0.13754778323E+00  0.20435009284E-01 0.  0.
         14    1    1    2    0    0  0.56588022378E-02 -0.12838666883E-01 -0.88567741880E-02  0.16592042042E-01  0.00000000000E+00 0. -1.
     999901    1    3    3    0    0  0.10636508026E+00 -0.35666184585E-01  0.68854542487E-01  0.88979017473E+00  0.88000000000E+00 0. -1.
        -11    1    4    4    0    0 -0.36059676221E-01  0.22599294669E-01 -0.29039268962E-01  0.51522506068E-01  0.51100000000E-03 0.  1.
         11    1    4    4    0    0 -0.75964206278E-01  0.25905556799E-01 -0.30958499337E-01  0.86025277162E-01  0.51100000000E-03 0. -1.
</event>
<event>
 8    1  0.1083484E+005  0.1043930E+01  0.7957747E-01            NaN
         13   -1    0    0    0    0  0.00000000000E+00  0.00000000000E+00  0.74505805969E-08  0.10566000000E+00  0.10566000000E+00 0. -1.
     999900   -1    0    0    0    0 -0.00000000000E+00 -0.00000000000E+00 -0.74505805969E-08  0.93827000000E+00  0.93827000000E+00 0. -1.
     999902    2    1    2    0    0  0.19058520049E-01  0.43076180448E-03  0.19218167068E-01  0.10168606319E+01  0.10165002676E+01 0.  0.
     999903    2    3    3    0    0 -0.81757090104E-01 -0.51461780322E-01  0.81161337645E-01  0.12742621638E+00  0.17825298801E-01 0.  0.
         14    1    1    2    0    0 -0.19058520049E-01 -0.43076180448E-03 -0.19218167068E-01  0.27069368069E-01  0.00000000000E+00 0. -1.
     999901    1    3    3    0    0  0.10081561015E+00  0.51892542126E-01 -0.61943170577E-01  0.88943441555E+00  0.88000000000E+00 0. -1.
        -11    1    4    4    0    0 -0.28844927257E-01 -0.11686929847E-01  0.18135415947E-01  0.36024555380E-01  0.51100000000E-03 0. -1.
         11    1    4    4    0    0 -0.52912162847E-01 -0.39774850475E-01  0.63025921698E-01  0.91401661004E-01  0.51100000000E-03 0.  1.
</event>
<event>
 8    1  0.1083484E+005  0.1043930E+01  0.7957747E-01            NaN
         13   -1    0    0    0    0  0.00000000000E+00  0.00000000000E+00  0.74505805969E-08  0.10566000000E+00  0.10566000000E+00 0.  1.
     999900   -1    0    0    0    0 -0.00000000000E+00 -0.00000000000E+00 -0.74505805969E-08  0.93827000000E+00  0.93827000000E+00 0.  1.
     999902    2    1    2    0    0  0.23208544284E-01 -0.44478563132E-02 -0.21767066044E-02  0.10201990496E+01  0.10199230083E+01 0.  0.
     999903    2    3    3    0    0 -0.10565153657E+00 -0.55954920113E-01  0.41811003318E-01  0.12823895149E+00  0.20096477737E-01 0.  0.
         14    1    1    2    0    0 -0.23208544284E-01  0.44478563132E-02  0.21767066044E-02  0.23730950365E-01  0.00000000000E+00 0.  1.
     999901    1    3    3    0    0  0.12886008085E+00  0.51507063800E-01 -0.43987709923E-01  0.89196009814E+00  0.88000000000E+00 0.  1.
        -11    1    4    4    0    0 -0.43466193307E-01 -0.12724571144E-01  0.12093459939E-01  0.46880033764E-01  0.51100000000E-03 0. -1.
         11    1    4    4    0    0 -0.62185343258E-01 -0.43230348969E-01  0.29717543379E-01  0.81358917727E-01  0.51100000000E-03 0.  1.
</event>
<event>
 8    1  0.1083484E+005  0.1043930E+01  0.7957747E-01            NaN
         13   -1    0    0    0    0  0.00000000000E+00  0.00000000000E+00  0.74505805969E-08  0.10566000000E+00  0.10566000000E+00 0. -1.
     999900   -1    0    0    0    0 -0.00000000000E+00 -0.00000000000E+00 -0.74505805969E-08  0.93827000000E+00  0.93827000000E+00 0. -1.
     999902    2    1    2    0    0  0.56664882601E-02  0.23241409947E-01 -0.89670129017E-04  0.10200076200E+01  0.10197270539E+01 0.  0.
     999903    2    3    3    0    0  0.18241216764E-01  0.12173723752E+00  0.46739805224E-01  0.13318601919E+00  0.20030210392E-01 0.  0.
         14    1    1    2    0    0 -0.56664882601E-02 -0.23241409947E-01  0.89670129017E-04  0.23922380029E-01  0.00000000000E+00 0. -1.
     999901    1    3    3    0    0 -0.12574728503E-01 -0.98495827571E-01 -0.46829475353E-01  0.88682160078E+00  0.88000000000E+00 0.  1.
        -11    1    4    4    0    0  0.12915130572E-01  0.63016602452E-01  0.14342260513E-01  0.65907923195E-01  0.51100000000E-03 0.  1.
         11    1    4    4    0    0  0.53260861919E-02  0.58720635066E-01  0.32397544711E-01  0.67278095997E-01  0.51100000000E-03 0. -1.
</event>
<event>
 8    1  0.1083484E+005  0.1043930E+01  0.7957747E-01            NaN
         13   -1    0    0    0    0  0.00000000000E+00  0.00000000000E+00  0.74505805969E-08  0.10566000000E+00  0.10566000000E+00 0. -1.
     999900   -1    0    0    0    0 -0.00000000000E+00 -0.00000000000E+00 -0.74505805969E-08  0.93827000000E+00  0.93827000000E+00 0. -1.
     999902    2    1    2    0    0 -0.25184198130E-02 -0.21046961051E-01 -0.10624363736E-01  0.10202193671E+01  0.10199438038E+01 0.  0.
     999903    2    3    3    0    0  0.61582012615E-01  0.10946071040E+00 -0.16443499918E-01  0.12826926755E+00  0.20214472724E-01 0.  0.
         14    1    1    2    0    0  0.25184198130E-02  0.21046961051E-01  0.10624363736E-01  0.23710632902E-01  0.00000000000E+00 0. -1.
     999901    1    3    3    0    0 -0.64100432428E-01 -0.13050767145E+00  0.58191361824E-02  0.89195009955E+00  0.88000000000E+00 0. -1.
        -11    1    4    4    0    0  0.62617517714E-02  0.20084436254E-01  0.33497825011E-02  0.21309065646E-01  0.51100000000E-03 0.  1.
         11    1    4    4    0    0  0.55320260844E-01  0.89376274148E-01 -0.19793282419E-01  0.10696020190E+00  0.51100000000E-03 0. -1.
</event>
<event>
 8    1  0.1083484E+005  0.1043930E+01  0.7957747E-01            NaN
         13   -1    0    0    0    0  0.00000000000E+00  0.00000000000E+00  0.74505805969E-08  0.10566000000E+00  0.10566000000E+00 0. -1.
     999900   -1    0    0    0    0 -0.00000000000E+00 -0.00000000000E+00 -0.74505805969E-08  0.93827000000E+00  0.93827000000E+00 0.  1.
     999902    2    1    2    0    0  0.19468135375E-01  0.41028010216E-02 -0.12546008568E-01  0.10204088690E+01  0.10201377438E+01 0.  0.
     999903    2    3    3    0    0  0.82181134786E-01  0.10178990071E+00 -0.14111135567E-01  0.13278386974E+00  0.17818785472E-01 0.  0.
         14    1    1    2    0    0 -0.19468135375E-01 -0.41028010216E-02  0.12546008568E-01  0.23521130972E-01  0.00000000000E+00 0. -1.
     999901    1    3    3    0    0 -0.62712999411E-01 -0.97687099684E-01  0.15651269987E-02  0.88762499929E+00  0.88000000000E+00 0.  1.
        -11    1    4    4    0    0  0.54463774062E-01  0.54524976581E-01 -0.49382678830E-02  0.77226442148E-01  0.51100000000E-03 0. -1.
         11    1    4    4    0    0  0.27717360724E-01  0.47264924124E-01 -0.91728676837E-02  0.55557427591E-01  0.51100000000E-03 0.  1.
</event>
<event>
 8    1  0.1083484E+005  0.1043930E+01  0.7957747E-01            NaN
         13   -1    0    0    0    0  0.00000000000E+00  0.00000000000E+00  0.74505805969E-08  0.10566000000E+00  0.10566000000E+00 0. -1.
     999900   -1    0    0    0    0 -0.00000000000E+00 -0.00000000000E+00 -0.74505805969E-08  0.93827000000E+00  0.93827000000E+00 0.  1.
     999902    2    1    2    0    0  0.21036939565E-01 -0.86645675090E-02  0.58134368325E-02  0.10204475895E+01  0.10201773666E+01 0.  0.
     999903    2    3    3    0    0  0.16664812269E-01 -0.55540495570E-01  0.11732762036E+00  0.13216166633E+00  0.18397633832E-01 0.  0.
         14    1    1    2    0    0 -0.21036939565E-01  0.86645675090E-02 -0.58134368325E-02  0.23482410528E-01  0.00000000000E+00 0. -1.
     999901    1    3    3    0    0  0.43721272961E-02  0.46875928061E-01 -0.11151418353E+00  0.88828592314E+00  0.88000000000E+00 0.  1.
        -11    1    4    4    0    0  0.46245594294E-02 -0.95861344260E-03  0.12310364995E-01  0.13195139141E-01  0.51100000000E-03 0. -1.
         11    1    4    4    0    0  0.12040252839E-01 -0.54581882127E-01  0.10501725537E+00  0.11896652719E+00  0.51100000000E-03 0.  1.
</event>
<event>
 8    1  0.1083484E+005  0.1043930E+01  0.7957747E-01            NaN
         13   -1    0    0    0    0  0.00000000000E+00  0.00000000000E+00  0.74505805969E-08  0.10566000000E+00  0.10566000000E+00 0.  1.
     999900   -1    0    0    0    0 -0.00000000000E+00 -0.00000000000E+00 -0.74505805969E-08  0.93827000000E+00  0.93827000000E+00 0.  1.
     999902    2    1    2    0    0 -0.48710640081E-02  0.22192923101E-01 -0.89651487282E-02  0.10195040508E+01  0.10192114024E+01 0.  0.
     999903    2    3    3    0    0  0.89957236935E-01 -0.68685859135E-01  0.57128398889E-01  0.12730468033E+00  0.11522844754E-01 0.  0.
         14    1    1    2    0    0  0.48710640081E-02 -0.22192923101E-01  0.89651487282E-02  0.24425949154E-01  0.00000000000E+00 0.  1.
     999901    1    3    3    0    0 -0.94828300943E-01  0.90878782236E-01 -0.66093547617E-01  0.89219937052E+00  0.88000000000E+00 0.  1.
        -11    1    4    4    0    0  0.85068573313E-01 -0.64473817055E-01  0.56575325409E-01  0.12080796256E+00  0.51100000000E-03 0. -1.
         11    1    4    4    0    0  0.48886636217E-02 -0.42120420796E-02  0.55307348022E-03  0.64967177683E-02  0.51100000000E-03 0.  1.
</event>
<event>
 8    1  0.1083484E+005  0.1043930E+01  0.7957747E-01            NaN
         13   -1    0    0    0    0  0.00000000000E+00  0.00000000000E+00  0.74505805969E-08  0.10566000000E+00  0.10566000000E+00 0.  1.
     999900   -1    0    0    0    0 -0.00000000000E+00 -0.00000000000E+00 -0.74505805969E-08  0.93827000000E+00  0.93827000000E+00 0.  1.
     999902    2    1    2    0    0  0.10127672700E-01 -0.73631842637E-02  0.15341992266E-01  0.10241268951E+01  0.10239354151E+01 0.  0.
     999903    2    3    3    0    0 -0.71413551438E-01  0.78079290455E-02 -0.10843657044E+00  0.13160223634E+00  0.19994992257E-01 0.  0.
         14    1    1    2    0    0 -0.10127672700E-01  0.73631842637E-02 -0.15341992266E-01  0.19803104895E-01  0.00000000000E+00 0. -1.
     999901    1    3    3    0    0  0.81541224138E-01 -0.15171113309E-01  0.12377856271E+00  0.89252465876E+00  0.88000000000E+00 0. -1.
        -11    1    4    4    0    0 -0.27616672923E-01  0.11416539166E-01 -0.35052617486E-01  0.46064792450E-01  0.51100000000E-03 0. -1.
         11    1    4    4    0    0 -0.43796878515E-01 -0.36086101200E-02 -0.73383952959E-01  0.85537443892E-01  0.51100000000E-03 0.  1.
</event>
<event>
 8    1  0.1083484E+005  0.1043930E+01  0.7957747E-01            NaN
         13   -1    0    0    0    0  0.00000000000E+00  0.00000000000E+00  0.74505805969E-08  0.10566000000E+00  0.10566000000E+00 0. -1.
     999900   -1    0    0    0    0 -0.00000000000E+00 -0.00000000000E+00 -0.74505805969E-08  0.93827000000E+00  0.93827000000E+00 0. -1.
     999902    2    1    2    0    0 -0.20627187464E-01  0.77990141701E-02  0.80254520943E-02  0.10204627171E+01  0.10201928463E+01 0.  0.
     999903    2    3    3    0    0  0.87282014215E-01  0.92632178301E-01 -0.16107340091E-01  0.12949501108E+00  0.17625011399E-01 0.  0.
         14    1    1    2    0    0  0.20627187464E-01 -0.77990141701E-02 -0.80254520943E-02  0.23467282885E-01  0.00000000000E+00 0. -1.
     999901    1    3    3    0    0 -0.10790920168E+00 -0.84833164131E-01  0.24132792186E-01  0.89096770604E+00  0.88000000000E+00 0. -1.
        -11    1    4    4    0    0  0.16622243142E-01  0.25319373012E-01  0.14932203007E-02  0.30329201187E-01  0.51100000000E-03 0.  1.
         11    1    4    4    0    0  0.70659771074E-01  0.67312805289E-01 -0.17600560392E-01  0.99165809890E-01  0.51100000000E-03 0. -1.
</event>
<event>
 8    1  0.1083484E+005  0.1043930E+01  0.7957747E-01            NaN
         13   -1    0    0    0    0  0.00000000000E+00  0.00000000000E+00  0.74505805969E-08  0.10566000000E+00  0.10566000000E+00 0.  1.
     999900   -1    0    0    0    0 -0.00000000000E+00 -0.00000000000E+00 -0.74505805969E-08  0.93827000000E+00  0.93827000000E+00 0. -1.
     999902    2    1    2    0    0 -0.15147412775E-01  0.48225154683E-02  0.17931006040E-01  0.10199670756E+01  0.10196855464E+01 0.  0.
     999903    2    3    3    0    0 -0.70884597995E-01  0.10828943663E+00  0.17589603811E-01  0.13215394538E+00  0.20100815916E-01 0.  0.
         14    1    1    2    0    0  0.15147412775E-01 -0.48225154683E-02 -0.17931006040E-01  0.23962924421E-01  0.00000000000E+00 0. -1.
     999901    1    3    3    0    0  0.55737185220E-01 -0.10346692116E+00  0.34140222952E-03  0.88781313019E+00  0.88000000000E+00 0.  1.
        -11    1    4    4    0    0 -0.31301513389E-01  0.65377847089E-01  0.12424017742E-01  0.73543626292E-01  0.51100000000E-03 0. -1.
         11    1    4    4    0    0 -0.39583084605E-01  0.42911589538E-01  0.51655860692E-02  0.58610319092E-01  0.51100000000E-03 0.  1.
</event>
<event>
 8    1  0.1083484E+005  0.1043930E+01  0.7957747E-01            NaN
         13   -1    0    0    0    0  0.00000000000E+00  0.00000000000E+00  0.74505805969E-08  0.10566000000E+00  0.10566000000E+00 0. -1.
     999900   -1    0    0    0    0 -0.00000000000E+00 -0.00000000000E+00 -0.74505805969E-08  0.93827000000E+00  0.93827000000E+00 0. -1.
     999902    2    1    2    0    0  0.21919942994E-01 -0.42410505979E-02 -0.10584634360E-01  0.10192216027E+01  0.10189220631E+01 0.  0.
     999903    2    3    3    0    0 -0.92585417026E-01  0.84686055291E-01  0.73720161308E-02  0.12717791045E+00  0.19392959526E-01 0.  0.
         14    1    1    2    0    0 -0.21919942994E-01  0.42410505979E-02  0.10584634360E-01  0.24708397268E-01  0.00000000000E+00 0. -1.
     999901    1    3    3    0    0  0.11450536002E+00 -0.88927105888E-01 -0.17956650491E-01  0.89204369228E+00  0.88000000000E+00 0.  1.
        -11    1    4    4    0    0 -0.31028650730E-01  0.36534358947E-01  0.10051139907E-01  0.48977781537E-01  0.51100000000E-03 0.  1.
         11    1    4    4    0    0 -0.61556766296E-01  0.48151696343E-01 -0.26791237766E-02  0.78200128918E-01  0.51100000000E-03 0. -1.
</event>
<event>
 8    1  0.1083484E+005  0.1043930E+01  0.7957747E-01            NaN
         13   -1    0    0    0    0  0.00000000000E+00  0.00000000000E+00  0.74505805969E-08  0.10566000000E+00  0.10566000000E+00 0.  1.
     999900   -1    0    0    0    0 -0.00000000000E+00 -0.00000000000E+00 -0.74505805969E-08  0.93827000000E+00  0.93827000000E+00 0.  1.
     999902    2    1    2    0    0 -0.11598046787E-01  0.15040747242E-01 -0.13656513665E-01  0.10205368572E+01  0.10202687086E+01 0.  0.
     999903    2    3    3    0    0 -0.65269624093E-02 -0.12509137400E+00  0.21776320900E-01  0.12873070497E+00  0.20172584401E-01 0.  0.
         14    1    1    2    0    0  0.11598046787E-01 -0.15040747242E-01  0.13656513665E-01  0.23393142849E-01  0.00000000000E+00 0.  1.
     999901    1    3    3    0    0 -0.50710843778E-02  0.14013212125E+00 -0.35432834565E-01  0.89180615218E+00  0.88000000000E+00 0.  1.
        -11    1    4    4    0    0  0.12481192183E-02 -0.64886746629E-01  0.21724288406E-02  0.64937110020E-01  0.51100000000E-03 0.  1.
         11    1    4    4    0    0 -0.77750816277E-02 -0.60204627376E-01  0.19603892059E-01  0.63793594950E-01  0.51100000000E-03 0. -1.
</event>
<event>
 8    1  0.1083484E+005  0.1043930E+01  0.7957747E-01            NaN
         13   -1    0    0    0    0  0.00000000000E+00  0.00000000000E+00  0.74505805969E-08  0.10566000000E+00  0.10566000000E+00 0.  1.
     999900   -1    0    0    0    0 -0.00000000000E+00 -0.00000000000E+00 -0.74505805969E-08  0.93827000000E+00  0.93827000000E+00 0. -1.
     999902    2    1    2    0    0 -0.19697152336E-02  0.11266383561E-01  0.20945708495E-01  0.10200650910E+01  0.10197858873E+01 0.  0.
     999903    2    3    3    0    0  0.82721096520E-01 -0.70157763308E-01  0.71126678074E-01  0.13084039781E+00  0.17184696800E-01 0.  0.
         14    1    1    2    0    0  0.19697152336E-02 -0.11266383561E-01 -0.20945708495E-01  0.23864908988E-01  0.00000000000E+00 0. -1.
     999901    1    3    3    0    0 -0.84690811753E-01  0.81424146868E-01 -0.50180969579E-01  0.88922469320E+00  0.88000000000E+00 0. -1.
        -11    1    4    4    0    0  0.64596339323E-01 -0.54627056315E-01  0.63493864456E-01  0.10577586814E+00  0.51100000000E-03 0.  1.
         11    1    4    4    0    0  0.18124757196E-01 -0.15530706993E-01  0.76328136183E-02  0.25064529675E-01  0.51100000000E-03 0. -1.
</event>
<event>
 8    1  0.1083484E+005  0.1043930E+01  0.7957747E-01            NaN
         13   -1    0    0    0    0  0.00000000000E+00  0.00000000000E+00  0.74505805969E-08  0.10566000000E+00  0.10566000000E+00 0.  1.
     999900   -1    0    0    0    0 -0.00000000000E+00 -0.00000000000E+00 -0.74505805969E-08  0.93827000000E+00  0.93827000000E+00 0.  1.
     999902    2    1    2    0    0 -0.67030237017E-02  0.35093901098E-02 -0.22851647812E-01  0.10198583537E+01  0.10195742335E+01 0.  0.
     999903    2    3    3    0    0  0.11721300142E+00 -0.83802823809E-02 -0.53368646251E-01  0.13057334162E+00  0.19800714769E-01 0.  0.
         14    1    1    2    0    0  0.67030237017E-02 -0.35093901098E-02  0.22851647812E-01  0.24071646254E-01  0.00000000000E+00 0.  1.
     999901    1    3    3    0    0 -0.12391602512E+00  0.11889672491E-01  0.30516998439E-01  0.88928501212E+00  0.88000000000E+00 0. -1.
        -11    1    4    4    0    0  0.39913885219E-01 -0.12113282175E-01 -0.16671460828E-01  0.44922695438E-01  0.51100000000E-03 0.  1.
         11    1    4    4    0    0  0.77299116200E-01  0.37329997938E-02 -0.36697185423E-01  0.85650646184E-01  0.51100000000E-03 0. -1.
</event>
<event>
 8    1  0.1083484E+005  0.1043930E+01  0.7957747E-01            NaN
         13   -1    0    0    0    0  0.00000000000E+00  0.00000000000E+00  0.74505805969E-08  0.10566000000E+00  0.10566000000E+00 0. -1.
     999900   -1    0    0    0    0 -0.00000000000E+00 -0.00000000000E+00 -0.74505805969E-08  0.93827000000E+00  0.93827000000E+00 0.  1.
     999902    2    1    2    0    0  0.10240287139E-01  0.50035390734E-02  0.19805428535E-01  0.10210793133E+01  0.10208235940E+01 0.  0.
     999903    2    3    3    0    0  0.41036079824E-01 -0.18820245613E-01 -0.11933970273E+00  0.12929608788E+00  0.20912967246E-01 0.  0.
         14    1    1    2    0    0 -0.10240287139E-01 -0.50035390734E-02 -0.19805428535E-01  0.22850686716E-01  0.00000000000E+00 0.  1.
     999901    1    3    3    0    0 -0.30795792684E-01  0.23823784687E-01  0.13914513127E+00  0.89178322541E+00  0.88000000000E+00 0.  1.
        -11    1    4    4    0    0  0.31940180861E-01 -0.22153503970E-01 -0.82493468708E-01  0.91194223458E-01  0.51100000000E-03 0.  1.
         11    1    4    4    0    0  0.90958989626E-02  0.33332583568E-02 -0.36846234026E-01  0.38101864418E-01  0.51100000000E-03 0. -1.
</event>
<event>
 8    1  0.1083484E+005  0.1043930E+01  0.7957747E-01            NaN
         13   -1    0    0    0    0  0.00000000000E+00  0.00000000000E+00  0.74505805969E-08  0.10566000000E+00  0.10566000000E+00 0. -1.
     999900   -1    0    0    0    0 -0.00000000000E+00 -0.00000000000E+00 -0.74505805969E-08  0.93827000000E+00  0.93827000000E+00 0.  1.
     999902    2    1    2    0    0 -0.19798731904E-01  0.41045432701E-02  0.12234534643E-01  0.10202969533E+01  0.10200232115E+01 0.  0.
     999903    2    3    3    0    0 -0.88833039224E-01 -0.87084416698E-01  0.40887365880E-01  0.13243314233E+00  0.19792827253E-01 0.  0.
         14    1    1    2    0    0  0.19798731904E-01 -0.41045432701E-02 -0.12234534643E-01  0.23633046744E-01  0.00000000000E+00 0.  1.
     999901    1    3    3    0    0  0.69034307319E-01  0.91188959968E-01 -0.28652831237E-01  0.88786381092E+00  0.88000000000E+00 0. -1.
        -11    1    4    4    0    0 -0.57574326756E-01 -0.59539397888E-01  0.17507145404E-01  0.84655208130E-01  0.51100000000E-03 0.  1.
         11    1    4    4    0    0 -0.31258712467E-01 -0.27545018809E-01  0.23380220476E-01  0.47777934204E-01  0.51100000000E-03 0. -1.
</event>
<event>
 8    1  0.1083484E+005  0.1043930E+01  0.7957747E-01            NaN
         13   -1    0    0    0    0  0.00000000000E+00  0.00000000000E+00  0.74505805969E-08  0.10566000000E+00  0.10566000000E+00 0.  1.
     999900   -1    0    0    0    0 -0.00000000000E+00 -0.00000000000E+00 -0.74505805969E-08  0.93827000000E+00  0.93827000000E+00 0.  1.
     999902    2    1    2    0    0  0.20202642241E-01 -0.81885246785E-02  0.17145767780E-01  0.10161959768E+01  0.10158174478E+01 0.  0.
     999903    2    3    3    0    0 -0.87423605262E-01  0.40289698070E-01  0.79111081658E-01  0.12615482755E+00  0.19756789884E-01 0.  0.
         14    1    1    2    0    0 -0.20202642241E-01  0.81885246785E-02 -0.17145767780E-01  0.27734023197E-01  0.00000000000E+00 0. -1.
     999901    1    3    3    0    0  0.10762624750E+00 -0.48478222748E-01 -0.61965313878E-01  0.89004114925E+00  0.88000000000E+00 0.  1.
        -11    1    4    4    0    0 -0.67364674323E-01  0.28645106466E-01  0.48775915168E-01  0.87965291408E-01  0.51100000000E-03 0.  1.
         11    1    4    4    0    0 -0.20058930939E-01  0.11644591604E-01  0.30335166490E-01  0.38189536145E-01  0.51100000000E-03 0. -1.
</event>
<event>
 8    1  0.1083484E+005  0.1043930E+01  0.7957747E-01            NaN
         13   -1    0    0    0    0  0.00000000000E+00  0.00000000000E+00  0.74505805969E-08  0.10566000000E+00  0.10566000000E+00 0.  1.
     999900   -1    0    0    0    0 -0.00000000000E+00 -0.00000000000E+00 -0.74505805969E-08  0.93827000000E+00  0.93827000000E+00 0.  1.
     999902    2    1    2    0    0 -0.10670819649E-01  0.24776571493E-01  0.42063141138E-02  0.10166272901E+01  0.10162606010E+01 0.  0.
     999903    2    3    3    0    0  0.52607736458E-01 -0.34549383216E-01 -0.10680425358E+00  0.12542187572E+00  0.19033247468E-01 0.  0.
         14    1    1    2    0    0  0.10670819649E-01 -0.24776571493E-01 -0.42063141138E-02  0.27302709853E-01  0.00000000000E+00 0.  1.
     999901    1    3    3    0    0 -0.63278556107E-01  0.59325954708E-01  0.11101056770E+00  0.89120541443E+00  0.88000000000E+00 0. -1.
        -11    1    4    4    0    0  0.16922228392E-01 -0.15474119663E-02 -0.31420296522E-01  0.35724675675E-01  0.51100000000E-03 0.  1.
         11    1    4    4    0    0  0.35685508066E-01 -0.33001971249E-01 -0.75383957063E-01  0.89697200044E-01  0.51100000000E-03 0. -1.
</event>
<event>
 8    1  0.1083484E+005  0.1043930E+01  0.7957747E-01            NaN
         13   -1    0    0    0    0  0.00000000000E+00  0.00000000000E+00  0.74505805969E-08  0.10566000000E+00  0.10566000000E+00 0.  1.
     999900   -1    0    0    0    0 -0.00000000000E+00 -0.00000000000E+00 -0.74505805969E-08  0.93827000000E+00  0.93827000000E+00 0. -1.
     999902    2    1    2    0    0  0.22941063481E-01  0.13523131212E-02  0.71528820068E-02  0.10198616626E+01  0.10195776214E+01 0.  0.
     999903    2    3    3    0    0 -0.69517195765E-01  0.69547785118E-01 -0.79504583594E-01  0.12817300143E+00  0.20923779817E-01 0.  0.
         14    1    1    2    0    0 -0.22941063481E-01 -0.13523131212E-02 -0.71528820068E-02  0.24068337404E-01  0.00000000000E+00 0. -1.
     999901    1    3    3    0    0  0.92458259245E-01 -0.68195471997E-01  0.86657465601E-01  0.89168866116E+00  0.88000000000E+00 0. -1.
        -11    1    4    4    0    0 -0.35698756954E-01  0.39051781055E-01 -0.29665672309E-01  0.60660993119E-01  0.51100000000E-03 0.  1.
         11    1    4    4    0    0 -0.33818438810E-01  0.30496004063E-01 -0.49838911285E-01  0.67512008313E-01  0.51100000000E-03 0. -1.
</event>
<event>
 8    1  0.1083484E+005  0.1043930E+01  0.7957747E-01            NaN
         13   -1    0    0    0    0  0.00000000000E+00  0.00000000000E+00  0.74505805969E-08  0.10566000000E+00  0.10566000000E+00 0.  1.
     999900   -1    0    0    0    0 -0.00000000000E+00 -0.00000000000E+00 -0.74505805969E-08  0.93827000000E+00  0.93827000000E+00 0.  1.
     999902    2    1    2    0    0  0.98317740308E-02  0.21000908755E-01  0.34020230949E-02  0.10204933682E+01  0.10202242101E+01 0.  0.
     999903    2    3    3    0    0  0.17596535967E-01 -0.62519369312E-01  0.11077319698E+00  0.13000782797E+00  0.20323005339E-01 0.  0.
         14    1    1    2    0    0 -0.98317740308E-02 -0.21000908755E-01 -0.34020230949E-02  0.23436631803E-01  0.00000000000E+00 0. -1.
     999901    1    3    3    0    0 -0.77647619360E-02  0.83520278067E-01 -0.10737117389E+00  0.89048554023E+00  0.88000000000E+00 0. -1.
        -11    1    4    4    0    0  0.14885657292E-01 -0.20501984723E-01  0.33481046065E-01  0.41989948050E-01  0.51100000000E-03 0. -1.
         11    1    4    4    0    0  0.27108786752E-02 -0.42017384589E-01  0.77292150916E-01  0.88017879918E-01  0.51100000000E-03 0.  1.
</event>
<event>
 8    1  0.1083484E+005  0.1043930E+01  0.7957747E-01            NaN
         13   -1    0    0    0    0  0.00000000000E+00  0.00000000000E+00  0.74505805969E-08  0.10566000000E+00  0.10566000000E+00 0. -1.
     999900   -1    0    0    0    0 -0.00000000000E+00 -0.00000000000E+00 -0.74505805969E-08  0.93827000000E+00  0.93827000000E+00 0.  1.
     999902    2    1    2    0    0  0.14978337581E-01 -0.15671156960E-01  0.99623115424E-02  0.10200724350E+01  0.10197934052E+01 0.  0.
     999903    2    3    3    0    0  0.11549067139E+00  0.31017785900E-01  0.52309490204E-01  0.13211079720E+00  0.20415233340E-01 0.  0.
         14    1    1    2    0    0 -0.14978337581E-01  0.15671156960E-01 -0.99623115424E-02  0.23857565015E-01  0.00000000000E+00 0.  1.
     999901    1    3    3    0    0 -0.10051233381E+00 -0.46688942861E-01 -0.42347178662E-01  0.88796163778E+00  0.88000000000E+00 0.  1.
        -11    1    4    4    0    0  0.43452195109E-01  0.13224416057E-01  0.30695134196E-01  0.54821809749E-01  0.51100000000E-03 0.  1.
         11    1    4    4    0    0  0.72038476279E-01  0.17793369843E-01  0.21614356008E-01  0.77288987453E-01  0.51100000000E-03 0. -1.
</event>
<event>
 8    1  0.1083484E+005  0.1043930E+01  0.7957747E-01            NaN
         13   -1    0    0    0    0  0.00000000000E+00  0.00000000000E+00  0.74505805969E-08  0.10566000000E+00  0.10566000000E+00 0.  1.
     999900   -1    0    0    0    0 -0.00000000000E+00 -0.00000000000E+00 -0.74505805969E-08  0.93827000000E+00  0.93827000000E+00 0. -1.
     999902    2    1    2    0    0 -0.21843920338E-01  0.79934877641E-02 -0.48370299649E-02  0.10201718527E+01  0.10198951709E+01 0.  0.
     999903    2    3    3    0    0  0.44152692185E-01 -0.84891900565E-01  0.83153254412E-01  0.12847373209E+00  0.20855241751E-01 0.  0.
         14    1    1    2    0    0  0.21843920338E-01 -0.79934877641E-02  0.48370299649E-02  0.23758147260E-01  0.00000000000E+00 0. -1.
     999901    1    3    3    0    0 -0.65996612523E-01  0.92885388330E-01 -0.87990284377E-01  0.89169812065E+00  0.88000000000E+00 0.  1.
        -11    1    4    4    0    0  0.17974511247E-01 -0.39849528784E-01  0.51326046639E-01  0.67421748595E-01  0.51100000000E-03 0. -1.
         11    1    4    4    0    0  0.26178180938E-01 -0.45042371781E-01  0.31827207772E-01  0.61051983493E-01  0.51100000000E-03 0.  1.
</event>
<event>
 8    1  0.1083484E+005  0.1043930E+01  0.7957747E-01            NaN
         13   -1    0    0    0    0  0.00000000000E+00  0.00000000000E+00  0.74505805969E-08  0.10566000000E+00  0.10566000000E+00 0.  1.
     999900   -1    0    0    0    0 -0.00000000000E+00 -0.00000000000E+00 -0.74505805969E-08  0.93827000000E+00  0.93827000000E+00 0. -1.
     999902    2    1    2    0    0 -0.27034206603E-01 -0.44618766039E-02  0.40709347479E-02  0.10162292928E+01  0.10158516852E+01 0.  0.
     999903    2    3    3    0    0 -0.11481420665E+00 -0.49140575693E-01  0.31666695797E-01  0.13030432951E+00  0.19476663942E-01 0.  0.
         14    1    1    2    0    0  0.27034206603E-01  0.44618766039E-02 -0.40709347479E-02  0.27700707197E-01  0.00000000000E+00 0. -1.
     999901    1    3    3    0    0  0.87780000045E-01  0.44678699089E-01 -0.27595761049E-01  0.88592496329E+00  0.88000000000E+00 0. -1.
        -11    1    4    4    0    0 -0.70550403938E-01 -0.29199826569E-01  0.95418373635E-02  0.76949965229E-01  0.51100000000E-03 0. -1.
         11    1    4    4    0    0 -0.44263802710E-01 -0.19940749124E-01  0.22124858433E-01  0.53354364279E-01  0.51100000000E-03 0.  1.
</event>
<event>
 8    1  0.1083484E+005  0.1043930E+01  0.7957747E-01            NaN
         13   -1    0    0    0    0  0.00000000000E+00  0.00000000000E+00  0.74505805969E-08  0.10566000000E+00  0.10566000000E+00 0.  1.
     999900   -1    0    0    0    0 -0.00000000000E+00 -0.00000000000E+00 -0.74505805969E-08  0.93827000000E+00  0.93827000000E+00 0. -1.
     999902    2    1    2    0    0 -0.30274556839E-01 -0.14887695309E-01  0.40474256162E-02  0.10099509783E+01  0.10093792174E+01 0.  0.
     999903    2    3    3    0    0  0.36393966375E-01 -0.11439111421E+00  0.60773264831E-03  0.12183079843E+00  0.20797266818E-01 0.  0.
         14    1    1    2    0    0  0.30274556839E-01  0.14887695309E-01 -0.40474256162E-02  0.33979021727E-01  0.00000000000E+00 0. -1.
     999901    1    3    3    0    0 -0.66668523214E-01  0.99503418904E-01  0.34396929679E-02  0.88812017985E+00  0.88000000000E+00 0.  1.
        -11    1    4    4    0    0  0.19103894650E-01 -0.88041541864E-01  0.36401195950E-02  0.90165311935E-01  0.51100000000E-03 0.  1.
         11    1    4    4    0    0  0.17290071725E-01 -0.26349572349E-01 -0.30323869467E-02  0.31665486493E-01  0.51100000000E-03 0. -1.
</event>
<event>
 8    1  0.1083484E+005  0.1043930E+01  0.7957747E-01            NaN
         13   -1    0    0    0    0  0.00000000000E+00  0.00000000000E+00  0.74505805969E-08  0.10566000000E+00  0.10566000000E+00 0. -1.
     999900   -1    0    0    0    0 -0.00000000000E+00 -0.00000000000E+00 -0.74505805969E-08  0.93827000000E+00  0.93827000000E+00 0. -1.
     999902    2    1    2    0    0 -0.24048428966E-01 -0.11505442399E-01  0.35099425401E-02  0.10170409346E+01  0.10166854188E+01 0.  0.
     999903    2    3    3    0    0  0.39829165180E-01  0.73256709740E-01  0.92617052560E-01  0.12619580412E+00  0.19863399322E-01 0.  0.
         14    1    1    2    0    0  0.24048428966E-01  0.11505442399E-01 -0.35099425401E-02  0.26889065383E-01  0.00000000000E+00 0.  1.
     999901    1    3    3    0    0 -0.63877594146E-01 -0.84762152139E-01 -0.89107110019E-01  0.89084513049E+00  0.88000000000E+00 0. -1.
        -11    1    4    4    0    0  0.39516934096E-01  0.64155375371E-01  0.74765815965E-01  0.10614936942E+00  0.51100000000E-03 0.  1.
         11    1    4    4    0    0  0.31223108379E-03  0.91013343692E-02  0.17851236595E-01  0.20046434708E-01  0.51100000000E-03 0. -1.
</event>
<event>
 8    1  0.1083484E+005  0.1043930E+01  0.7957747E-01            NaN
         13   -1    0    0    0    0  0.00000000000E+00  0.00000000000E+00  0.74505805969E-08  0.10566000000E+00  0.10566000000E+00 0.  1.
     999900   -1    0    0    0    0 -0.00000000000E+00 -0.00000000000E+00 -0.74505805969E-08  0.93827000000E+00  0.93827000000E+00 0.  1.
     999902    2    1    2    0    0 -0.75754671551E-02 -0.83418139608E-02 -0.20291559481E-01  0.10207196370E+01  0.10204557102E+01 0.  0.
     999903    2    3    3    0    0 -0.10629870156E+00  0.27049953416E-01 -0.72854013885E-01  0.13293494139E+00  0.18244927252E-01 0.  0.
         14    1    1    2    0    0  0.75754671551E-02  0.83418139608E-02  0.20291559481E-01  0.23210362964E-01  0.00000000000E+00 0.  1.
     999901    1    3    3    0    0  0.98723234404E-01 -0.35391767377E-01  0.52562454405E-01  0.88778469565E+00  0.88000000000E+00 0. -1.
        -11    1    4    4    0    0 -0.51952457109E-01  0.43260205862E-02 -0.37664292407E-01  0.64316656453E-01  0.51100000000E-03 0. -1.
         11    1    4    4    0    0 -0.54346244450E-01  0.22723932830E-01 -0.35189721478E-01  0.68618284937E-01  0.51100000000E-03 0.  1.
</event>
<event>
 8    1  0.1083484E+005  0.1043930E+01  0.7957747E-01            NaN
         13   -1    0    0    0    0  0.00000000000E+00  0.00000000000E+00  0.74505805969E-08  0.10566000000E+00  0.10566000000E+00 0.  1.
     999900   -1    0    0    0    0 -0.00000000000E+00 -0.00000000000E+00 -0.74505805969E-08  0.93827000000E+00  0.93827000000E+00 0.  1.
     999902    2    1    2    0    0  0.96623575932E-02  0.19179118837E-01 -0.94720762367E-02  0.10204583153E+01  0.10201883421E+01 0.  0.
     999903    2    3    3    0    0  0.64972900017E-01 -0.10942219471E+00 -0.12104573073E-01  0.12938902284E+00  0.20007601370E-01 0.  0.
         14    1    1    2    0    0 -0.96623575932E-02 -0.19179118837E-01  0.94720762367E-02  0.23471684683E-01  0.00000000000E+00 0.  1.
     999901    1    3    3    0    0 -0.55310542424E-01  0.12860131354E+00  0.26324968362E-02  0.89106929247E+00  0.88000000000E+00 0.  1.
        -11    1    4    4    0    0  0.11044554352E-01 -0.32322374098E-01 -0.86332866929E-02  0.35235107610E-01  0.51100000000E-03 0. -1.
         11    1    4    4    0    0  0.53928345665E-01 -0.77099820608E-01 -0.34712863800E-02  0.94153915235E-01  0.51100000000E-03 0.  1.
</event>
<event>
 8    1  0.1083484E+005  0.1043930E+01  0.7957747E-01            NaN
         13   -1    0    0    0    0  0.00000000000E+00  0.00000000000E+00  0.74505805969E-08  0.10566000000E+00  0.10566000000E+00 0.  1.
     999900   -1    0    0    0    0 -0.00000000000E+00 -0.00000000000E+00 -0.74505805969E-08  0.93827000000E+00  0.93827000000E+00 0.  1.
     999902    2    1    2    0    0 -0.41602769775E-02 -0.58456318941E-02 -0.22626159089E-01  0.10201934798E+01  0.10199173073E+01 0.  0.
     999903    2    3    3    0    0  0.64915001448E-01  0.10966489618E+00  0.12953857257E-01  0.12925015176E+00  0.17246809698E-01 0.  0.
         14    1    1    2    0    0  0.41602769775E-02  0.58456318941E-02  0.22626159089E-01  0.23736520215E-01  0.00000000000E+00 0.  1.
     999901    1    3    3    0    0 -0.69075278425E-01 -0.11551052808E+00 -0.35580016346E-01  0.89094332802E+00  0.88000000000E+00 0. -1.
        -11    1    4    4    0    0  0.38440098882E-01  0.73457418494E-01  0.13649661248E-02  0.82920189263E-01  0.51100000000E-03 0.  1.
         11    1    4    4    0    0  0.26474902566E-01  0.36207477690E-01  0.11588891132E-01  0.46329962499E-01  0.51100000000E-03 0. -1.
</event>
<event>
 8    1  0.1083484E+005  0.1043930E+01  0.7957747E-01            NaN
         13   -1    0    0    0    0  0.00000000000E+00  0.00000000000E+00  0.74505805969E-08  0.10566000000E+00  0.10566000000E+00 0. -1.
     999900   -1    0    0    0    0 -0.00000000000E+00 -0.00000000000E+00 -0.74505805969E-08  0.93827000000E+00  0.93827000000E+00 0. -1.
     999902    2    1    2    0    0  0.26900365635E-02 -0.19217646723E-01  0.12607623686E-01  0.10207889884E+01  0.10205266545E+01 0.  0.
     999903    2    3    3    0    0  0.50375482829E-01 -0.11950570308E+00 -0.22395135063E-01  0.13311968673E+00  0.20000164519E-01 0.  0.
         14    1    1    2    0    0 -0.26900365635E-02  0.19217646723E-01 -0.12607623686E-01  0.23141011588E-01  0.00000000000E+00 0.  1.
     999901    1    3    3    0    0 -0.47685446265E-01  0.10028805636E+00  0.35002758749E-01  0.88766930168E+00  0.88000000000E+00 0.  1.
        -11    1    4    4    0    0  0.10262484445E-01 -0.49261625190E-01 -0.93192541512E-02  0.51177494295E-01  0.51100000000E-03 0. -1.
         11    1    4    4    0    0  0.40112998383E-01 -0.70244077891E-01 -0.13075880912E-01  0.81942192433E-01  0.51100000000E-03 0.  1.
</event>
<event>
 8    1  0.1083484E+005  0.1043930E+01  0.7957747E-01            NaN
         13   -1    0    0    0    0  0.00000000000E+00  0.00000000000E+00  0.74505805969E-08  0.10566000000E+00  0.10566000000E+00 0.  1.
     999900   -1    0    0    0    0 -0.00000000000E+00 -0.00000000000E+00 -0.74505805969E-08  0.93827000000E+00  0.93827000000E+00 0.  1.
     999902    2    1    2    0    0  0.85987726366E-02  0.24974582068E-01  0.25271342471E-03  0.10175153733E+01  0.10171724546E+01 0.  0.
     999903    2    3    3    0    0  0.64177326229E-01 -0.40532689143E-01 -0.10062020091E+00  0.12759654382E+00  0.19870205606E-01 0.  0.
         14    1    1    2    0    0 -0.85987726366E-02 -0.24974582068E-01 -0.25271342471E-03  0.26414626713E-01  0.00000000000E+00 0.  1.
     999901    1    3    3    0    0 -0.55578553593E-01  0.65507271211E-01  0.10087291434E+00  0.88991882947E+00  0.88000000000E+00 0. -1.
        -11    1    4    4    0    0  0.46743266127E-02 -0.99167080304E-02 -0.93231496472E-02  0.14400439847E-01  0.51100000000E-03 0. -1.
         11    1    4    4    0    0  0.59502999617E-01 -0.30615981113E-01 -0.91297051265E-01  0.11319610397E+00  0.51100000000E-03 0.  1.
</event>
<event>
 8    1  0.1083484E+005  0.1043930E+01  0.7957747E-01            NaN
         13   -1    0    0    0    0  0.00000000000E+00  0.00000000000E+00  0.74505805969E-08  0.10566000000E+00  0.10566000000E+00 0.  1.
     999900   -1    0    0    0    0 -0.00000000000E+00 -0.00000000000E+00 -0.74505805969E-08  0.93827000000E+00  0.93827000000E+00 0. -1.
     999902    2    1    2    0    0 -0.81187511229E-02 -0.21354360810E-01 -0.66715659955E-02  0.10201301547E+01  0.10198524892E+01 0.  0.
     999903    2    3    3    0    0  0.65511060174E-01 -0.86110386772E-01  0.71690882405E-01  0.13122331740E+00  0.19320421676E-01 0.  0.
         14    1    1    2    0    0  0.81187511229E-02  0.21354360810E-01  0.66715659955E-02  0.23799845341E-01  0.00000000000E+00 0.  1.
     999901    1    3    3    0    0 -0.73629811297E-01  0.64756025962E-01 -0.78362448401E-01  0.88890683726E+00  0.88000000000E+00 0. -1.
        -11    1    4    4    0    0  0.10838609843E-01 -0.28326348567E-01  0.18554525819E-01  0.35558248492E-01  0.51100000000E-03 0. -1.
         11    1    4    4    0    0  0.54672450332E-01 -0.57784038206E-01  0.53136356586E-01  0.95665068906E-01  0.51100000000E-03 0.  1.
</event>
<event>
 8    1  0.1083484E+005  0.1043930E+01  0.7957747E-01            NaN
         13   -1    0    0    0    0  0.00000000000E+00  0.00000000000E+00  0.74505805969E-08  0.10566000000E+00  0.10566000000E+00 0. -1.
     999900   -1    0    0    0    0 -0.00000000000E+00 -0.00000000000E+00 -0.74505805969E-08  0.93827000000E+00  0.93827000000E+00 0. -1.
     999902    2    1    2    0    0 -0.16163142455E-01  0.85949574578E-02  0.16148688275E-01  0.10195189246E+01  0.10192266368E+01 0.  0.
     999903    2    3    3    0    0 -0.63528120476E-01 -0.87721113647E-01  0.71584423108E-01  0.13126594974E+00  0.19380507217E-01 0.  0.
         14    1    1    2    0    0  0.16163142455E-01 -0.85949574578E-02 -0.16148688275E-01  0.24411075370E-01  0.00000000000E+00 0.  1.
     999901    1    3    3    0    0  0.47364978021E-01  0.96316071105E-01 -0.55435734833E-01  0.88825297489E+00  0.88000000000E+00 0. -1.
        -11    1    4    4    0    0 -0.16348027190E-01 -0.25686092227E-01  0.10396104893E-01  0.32177219346E-01  0.51100000000E-03 0.  1.
         11    1    4    4    0    0 -0.47180093286E-01 -0.62035021421E-01  0.61188318215E-01  0.99088730399E-01  0.51100000000E-03 0. -1.
</event>
<event>
 8    1  0.1083484E+005  0.1043930E+01  0.7957747E-01            NaN
         13   -1    0    0    0    0  0.00000000000E+00  0.00000000000E+00  0.74505805969E-08  0.10566000000E+00  0.10566000000E+00 0.  1.
     999900   -1    0    0    0    0 -0.00000000000E+00 -0.00000000000E+00 -0.74505805969E-08  0.93827000000E+00  0.93827000000E+00 0. -1.
     999902    2    1    2    0    0  0.23165537477E-01  0.64248499953E-02 -0.20619325126E-02  0.10198017512E+01  0.10195162772E+01 0.  0.
     999903    2    3    3    0    0  0.61536341129E-01  0.10077351877E+00  0.55002095230E-01  0.13209104769E+00  0.21926947722E-01 0.  0.
         14    1    1    2    0    0 -0.23165537477E-01 -0.64248499953E-02  0.20619325126E-02  0.24128248791E-01  0.00000000000E+00 0.  1.
     999901    1    3    3    0    0 -0.38370803652E-01 -0.94348668774E-01 -0.57064027743E-01  0.88771070351E+00  0.88000000000E+00 0. -1.
        -11    1    4    4    0    0  0.97740928251E-02  0.26072996523E-01  0.47869794745E-02  0.28257925114E-01  0.51100000000E-03 0.  1.
         11    1    4    4    0    0  0.51762248304E-01  0.74700522247E-01  0.50215115755E-01  0.10383312258E+00  0.51100000000E-03 0. -1.
</event>
<event>
 8    1  0.1083484E+005  0.1043930E+01  0.7957747E-01            NaN
         13   -1    0    0    0    0  0.00000000000E+00  0.00000000000E+00  0.74505805969E-08  0.10566000000E+00  0.10566000000E+00 0.  1.
     999900   -1    0    0    0    0 -0.00000000000E+00 -0.00000000000E+00 -0.74505805969E-08  0.93827000000E+00  0.93827000000E+00 0.  1.
     999902    2    1    2    0    0  0.70261698746E-02 -0.75657914295E-02 -0.20430999766E-01  0.10210382108E+01  0.10207815603E+01 0.  0.
     999903    2    3    3    0    0 -0.89669285842E-01 -0.19500301055E-01 -0.93729086698E-01  0.13263230510E+00  0.19630183314E-01 0.  0.
         14    1    1    2    0    0 -0.70261698746E-02  0.75657914295E-02  0.20430999766E-01  0.22891789238E-01  0.00000000000E+00 0.  1.
     999901    1    3    3    0    0  0.96695455717E-01  0.11934509625E-01  0.73298086931E-01  0.88840590567E+00  0.88000000000E+00 0. -1.
        -11    1    4    4    0    0 -0.29300923012E-01 -0.10609932587E-01 -0.43965213831E-01  0.53891705364E-01  0.51100000000E-03 0.  1.
         11    1    4    4    0    0 -0.60368362830E-01 -0.88903684683E-02 -0.49763872867E-01  0.78740599731E-01  0.51100000000E-03 0. -1.
</event>
<event>
 8    1  0.1083484E+005  0.1043930E+01  0.7957747E-01            NaN
         13   -1    0    0    0    0  0.00000000000E+00  0.00000000000E+00  0.74505805969E-08  0.10566000000E+00  0.10566000000E+00 0.  1.
     999900   -1    0    0    0    0 -0.00000000000E+00 -0.00000000000E+00 -0.74505805969E-08  0.93827000000E+00  0.93827000000E+00 0.  1.
     999902    2    1    2    0    0  0.18070410884E-01 -0.10852726169E-01 -0.17136889801E-01  0.10167639475E+01  0.10164009694E+01 0.  0.
     999903    2    3    3    0    0  0.88100703617E-01  0.50634012922E-01  0.73817050414E-01  0.12718119128E+00  0.20014026081E-01 0.  0.
         14    1    1    2    0    0 -0.18070410884E-01  0.10852726169E-01  0.17136889801E-01  0.27166052471E-01  0.00000000000E+00 0.  1.
     999901    1    3    3    0    0 -0.70030292733E-01 -0.61486739091E-01 -0.90953940215E-01  0.88958275625E+00  0.88000000000E+00 0.  1.
        -11    1    4    4    0    0  0.44358873745E-01  0.33557803845E-01  0.48675627834E-01  0.73914908813E-01  0.51100000000E-03 0.  1.
         11    1    4    4    0    0  0.43741829872E-01  0.17076209078E-01  0.25141422580E-01  0.53266282462E-01  0.51100000000E-03 0. -1.
</event>
<event>
 8    1  0.1083484E+005  0.1043930E+01  0.7957747E-01            NaN
         13   -1    0    0    0    0  0.00000000000E+00  0.00000000000E+00  0.74505805969E-08  0.10566000000E+00  0.10566000000E+00 0. -1.
     999900   -1    0    0    0    0 -0.00000000000E+00 -0.00000000000E+00 -0.74505805969E-08  0.93827000000E+00  0.93827000000E+00 0. -1.
     999902    2    1    2    0    0 -0.16452130060E-01 -0.13166392314E-01 -0.11212686406E-01  0.10200605466E+01  0.10197812353E+01 0.  0.
     999903    2    3    3    0    0 -0.29246845215E-01 -0.72107213940E-01 -0.10593639742E+00  0.13292453299E+00  0.19788454051E-01 0.  0.
         14    1    1    2    0    0  0.16452130060E-01  0.13166392314E-01  0.11212686406E-01  0.23869453419E-01  0.00000000000E+00 0.  1.
     999901    1    3    3    0    0  0.12794715155E-01  0.58940821627E-01  0.94723711014E-01  0.88713601360E+00  0.88000000000E+00 0.  1.
        -11    1    4    4    0    0 -0.11007198784E-01 -0.39573032704E-01 -0.41008597325E-01  0.58044375421E-01  0.51100000000E-03 0. -1.
         11    1    4    4    0    0 -0.18239646430E-01 -0.32534181237E-01 -0.64927800096E-01  0.74880157565E-01  0.51100000000E-03 0.  1.
</event>
<event>
 7    1  0.1135922E+005  0.1043930E+01  0.7957747E-01            NaN
         13   -1    0    0    0    0  0.00000000000E+00  0.00000000000E+00  0.74505805969E-08  0.10566000000E+00  0.10566000000E+00 0.  1.
     999900   -1    0    0    0    0 -0.00000000000E+00 -0.00000000000E+00 -0.74505805969E-08  0.93827000000E+00  0.93827000000E+00 0.  1.
     999903    2    1    2    0    0 -0.10876309577E-02  0.83368799033E-01  0.56843098357E-01  0.10246642430E+00  0.17795805263E-01 0.  0.
         14    1    1    2    0    0 -0.43518506048E-01  0.27238981659E-01  0.28120353683E-02  0.51417215340E-01  0.00000000000E+00 0. -1.
     999901    1    1    2    0    0  0.44606137005E-01 -0.11060778069E+00 -0.59655133726E-01  0.89004636036E+00  0.88000000000E+00 0. -1.
        -11    1    3    3    0    0 -0.60196042855E-02  0.27954417925E-01  0.27003784539E-01  0.39333835533E-01  0.51100000000E-03 0. -1.
         11    1    3    3    0    0  0.49319733278E-02  0.55414381108E-01  0.29839313818E-01  0.63132588768E-01  0.51100000000E-03 0.  1.
</event>
<event>
 8    1  0.1083484E+005  0.1043930E+01  0.7957747E-01            NaN
         13   -1    0    0    0    0  0.00000000000E+00  0.00000000000E+00  0.74505805969E-08  0.10566000000E+00  0.10566000000E+00 0. -1.
     999900   -1    0    0    0    0 -0.00000000000E+00 -0.00000000000E+00 -0.74505805969E-08  0.93827000000E+00  0.93827000000E+00 0. -1.
     999902    2    1    2    0    0 -0.13427515838E-01 -0.18403247301E-01 -0.55226090634E-02  0.10204890763E+01  0.10202198184E+01 0.  0.
     999903    2    3    3    0    0  0.38148057045E-01 -0.94678726789E-02  0.12157366743E+00  0.12981891057E+00  0.22975597056E-01 0.  0.
         14    1    1    2    0    0  0.13427515838E-01  0.18403247301E-01  0.55226090634E-02  0.23440923695E-01  0.00000000000E+00 0.  1.
     999901    1    3    3    0    0 -0.51575572883E-01 -0.89353746220E-02 -0.12709627649E+00  0.89067016574E+00  0.88000000000E+00 0. -1.
        -11    1    4    4    0    0  0.14520613538E-01  0.72762627026E-02  0.51245362772E-01  0.53760027373E-01  0.51100000000E-03 0. -1.
         11    1    4    4    0    0  0.23627443507E-01 -0.16744135382E-01  0.70328304654E-01  0.76058883195E-01  0.51100000000E-03 0.  1.
</event>
<event>
 8    1  0.1083484E+005  0.1043930E+01  0.7957747E-01            NaN
         13   -1    0    0    0    0  0.00000000000E+00  0.00000000000E+00  0.74505805969E-08  0.10566000000E+00  0.10566000000E+00 0. -1.
     999900   -1    0    0    0    0 -0.00000000000E+00 -0.00000000000E+00 -0.74505805969E-08  0.93827000000E+00  0.93827000000E+00 0. -1.
     999902    2    1    2    0    0 -0.21395333832E-01  0.29383340493E-02  0.91993501866E-02  0.10204561388E+01  0.10201861149E+01 0.  0.
     999903    2    3    3    0    0  0.12017191271E-01 -0.12793949357E+00 -0.13045005988E-03  0.13010090194E+00  0.20329799971E-01 0.  0.
         14    1    1    2    0    0  0.21395333832E-01 -0.29383340493E-02 -0.91993501866E-02  0.23473861221E-01  0.00000000000E+00 0.  1.
     999901    1    3    3    0    0 -0.33412525103E-01  0.13087782762E+00  0.93298002465E-02  0.89035523684E+00  0.88000000000E+00 0.  1.
        -11    1    4    4    0    0  0.28387267485E-02 -0.73218751095E-01 -0.92912640972E-02  0.73862254169E-01  0.51100000000E-03 0.  1.
         11    1    4    4    0    0  0.91784645227E-02 -0.54720742476E-01  0.91608140373E-02  0.56238647770E-01  0.51100000000E-03 0. -1.
</event>
<event>
 8    1  0.1083484E+005  0.1043930E+01  0.7957747E-01            NaN
         13   -1    0    0    0    0  0.00000000000E+00  0.00000000000E+00  0.74505805969E-08  0.10566000000E+00  0.10566000000E+00 0. -1.
     999900   -1    0    0    0    0 -0.00000000000E+00 -0.00000000000E+00 -0.74505805969E-08  0.93827000000E+00  0.93827000000E+00 0. -1.
     999902    2    1    2    0    0 -0.11050069986E-01 -0.14839522377E-01 -0.14987183017E-01  0.10201196845E+01  0.10198417718E+01 0.  0.
     999903    2    3    3    0    0  0.41798430693E-01  0.59874622111E-01  0.10273726474E+00  0.12757600878E+00  0.19713276465E-01 0.  0.
         14    1    1    2    0    0  0.11050069986E-01  0.14839522377E-01  0.14987183017E-01  0.23810315535E-01  0.00000000000E+00 0. -1.
     999901    1    3    3    0    0 -0.52848500679E-01 -0.74714144488E-01 -0.11772444775E+00  0.89254367569E+00  0.88000000000E+00 0. -1.
        -11    1    4    4    0    0  0.89791163744E-02  0.24343198842E-01  0.25108444225E-01  0.36109707187E-01  0.51100000000E-03 0. -1.
         11    1    4    4    0    0  0.32819314318E-01  0.35531423269E-01  0.77628820511E-01  0.91466301591E-01  0.51100000000E-03 0.  1.
</event>
<event>
 8    1  0.1083484E+005  0.1043930E+01  0.7957747E-01            NaN
         13   -1    0    0    0    0  0.00000000000E+00  0.00000000000E+00  0.74505805969E-08  0.10566000000E+00  0.10566000000E+00 0.  1.
     999900   -1    0    0    0    0 -0.00000000000E+00 -0.00000000000E+00 -0.74505805969E-08  0.93827000000E+00  0.93827000000E+00 0. -1.
     999902    2    1    2    0    0 -0.20645605516E-01 -0.71082174811E-02 -0.10502443821E-01  0.10197004909E+01  0.10194125868E+01 0.  0.
     999903    2    3    3    0    0  0.40488211915E-01  0.95993955828E-01 -0.73884681787E-01  0.12931590557E+00  0.20236659118E-01 0.  0.
         14    1    1    2    0    0  0.20645605516E-01  0.71082174811E-02  0.10502443821E-01  0.24229509056E-01  0.00000000000E+00 0.  1.
     999901    1    3    3    0    0 -0.61133817431E-01 -0.10310217331E+00  0.63382237966E-01  0.89038458537E+00  0.88000000000E+00 0.  1.
        -11    1    4    4    0    0  0.33760765116E-02  0.30744335499E-01 -0.24506270288E-01  0.39464293511E-01  0.51100000000E-03 0.  1.
         11    1    4    4    0    0  0.37112135404E-01  0.65249620329E-01 -0.49378411498E-01  0.89851612063E-01  0.51100000000E-03 0. -1.
</event>
<event>
 8    1  0.1083484E+005  0.1043930E+01  0.7957747E-01            NaN
         13   -1    0    0    0    0  0.00000000000E+00  0.00000000000E+00  0.74505805969E-08  0.10566000000E+00  0.10566000000E+00 0.  1.
     999900   -1    0    0    0    0 -0.00000000000E+00 -0.00000000000E+00 -0.74505805969E-08  0.93827000000E+00  0.93827000000E+00 0. -1.
     999902    2    1    2    0    0  0.15221768075E-01 -0.55494144939E-02 -0.21903268160E-01  0.10166857092E+01  0.10163206088E+01 0.  0.
     999903    2    3    3    0    0 -0.56876456533E-01 -0.10233864387E+00  0.42289775788E-01  0.12613135612E+00  0.20311684405E-01 0.  0.
         14    1    1    2    0    0 -0.15221768075E-01  0.55494144939E-02  0.21903268160E-01  0.27244290790E-01  0.00000000000E+00 0.  1.
     999901    1    3    3    0    0  0.72098224608E-01  0.96789229378E-01 -0.64193043948E-01  0.89055435309E+00  0.88000000000E+00 0. -1.
        -11    1    4    4    0    0 -0.14520371533E-01 -0.35255554517E-01  0.22823516869E-01  0.44440627325E-01  0.51100000000E-03 0.  1.
         11    1    4    4    0    0 -0.42356085000E-01 -0.67083089354E-01  0.19466258919E-01  0.81690728795E-01  0.51100000000E-03 0. -1.
</event>
<event>
 8    1  0.1083484E+005  0.1043930E+01  0.7957747E-01            NaN
         13   -1    0    0    0    0  0.00000000000E+00  0.00000000000E+00  0.74505805969E-08  0.10566000000E+00  0.10566000000E+00 0. -1.
     999900   -1    0    0    0    0 -0.00000000000E+00 -0.00000000000E+00 -0.74505805969E-08  0.93827000000E+00  0.93827000000E+00 0. -1.
     999902    2    1    2    0    0 -0.13538491557E-01  0.74989317377E-02  0.17861966922E-01  0.10202958173E+01  0.10200220489E+01 0.  0.
     999903    2    3    3    0    0  0.54854238431E-01 -0.81618440910E-01 -0.79099457435E-01  0.12787159672E+00  0.20587950606E-01 0.  0.
         14    1    1    2    0    0  0.13538491557E-01 -0.74989317377E-02 -0.17861966922E-01  0.23634182726E-01  0.00000000000E+00 0.  1.
     999901    1    3    3    0    0 -0.68392729987E-01  0.89117372647E-01  0.96961424356E-01  0.89242422056E+00  0.88000000000E+00 0. -1.
        -11    1    4    4    0    0  0.43389099635E-01 -0.61595435546E-01 -0.48738249584E-01  0.89734551543E-01  0.51100000000E-03 0. -1.
         11    1    4    4    0    0  0.11465138796E-01 -0.20023005364E-01 -0.30361207851E-01  0.38137045174E-01  0.51100000000E-03 0.  1.
</event>
<event>
 8    1  0.1083484E+005  0.1043930E+01  0.7957747E-01            NaN
         13   -1    0    0    0    0  0.00000000000E+00  0.00000000000E+00  0.74505805969E-08  0.10566000000E+00  0.10566000000E+00 0.  1.
     999900   -1    0    0    0    0 -0.00000000000E+00 -0.00000000000E+00 -0.74505805969E-08  0.93827000000E+00  0.93827000000E+00 0.  1.
     999902    2    1    2    0    0 -0.10012455240E-01 -0.12410988908E-01 -0.18208292193E-01  0.10197262026E+01  0.10194389165E+01 0.  0.
     999903    2    3    3    0    0  0.10012693143E+00 -0.78804650518E-01  0.15302468063E-01  0.12974767819E+00  0.19097620945E-01 0.  0.
         14    1    1    2    0    0  0.10012455240E-01  0.12410988908E-01  0.18208292193E-01  0.24203797434E-01  0.00000000000E+00 0.  1.
     999901    1    3    3    0    0 -0.11013938667E+00  0.66393661610E-01 -0.33510760256E-01  0.88997852438E+00  0.88000000000E+00 0.  1.
        -11    1    4    4    0    0  0.62286461482E-01 -0.59712381137E-01  0.71413106946E-02  0.86581933361E-01  0.51100000000E-03 0. -1.
         11    1    4    4    0    0  0.37840469948E-01 -0.19092269381E-01  0.81611573680E-02  0.43165744829E-01  0.51100000000E-03 0.  1.
</event>
<event>
 8    1  0.1083484E+005  0.1043930E+01  0.7957747E-01            NaN
         13   -1    0    0    0    0  0.00000000000E+00  0.00000000000E+00  0.74505805969E-08  0.10566000000E+00  0.10566000000E+00 0. -1.
     999900   -1    0    0    0    0 -0.00000000000E+00 -0.00000000000E+00 -0.74505805969E-08  0.93827000000E+00  0.93827000000E+00 0.  1.
     999902    2    1    2    0    0 -0.19212571489E-02  0.53970504568E-02  0.22974154987E-01  0.10202523485E+01  0.10199775603E+01 0.  0.
     999903    2    3    3    0    0 -0.10337292299E+00 -0.53108423408E-02  0.79591696940E-01  0.13255158501E+00  0.22823632742E-01 0.  0.
         14    1    1    2    0    0  0.19212571489E-02 -0.53970504568E-02 -0.22974154987E-01  0.23677651489E-01  0.00000000000E+00 0.  1.
     999901    1    3    3    0    0  0.10145166584E+00  0.10707892798E-01 -0.56617541953E-01  0.88770076350E+00  0.88000000000E+00 0.  1.
        -11    1    4    4    0    0 -0.82180909928E-01 -0.10970226138E-02  0.51063227784E-01  0.96760631292E-01  0.51100000000E-03 0.  1.
         11    1    4    4    0    0 -0.21192013064E-01 -0.42138197270E-02  0.28528469156E-01  0.35790953714E-01  0.51100000000E-03 0. -1.
</event>
<event>
 8    1  0.1083484E+005  0.1043930E+01  0.7957747E-01            NaN
         13   -1    0    0    0    0  0.00000000000E+00  0.00000000000E+00  0.74505805969E-08  0.10566000000E+00  0.10566000000E+00 0.  1.
     999900   -1    0    0    0    0 -0.00000000000E+00 -0.00000000000E+00 -0.74505805969E-08  0.93827000000E+00  0.93827000000E+00 0.  1.
     999902    2    1    2    0    0  0.16433096291E-01  0.49826989388E-02 -0.14322137882E-01  0.10215693744E+01  0.10213246248E+01 0.  0.
     999903    2    3    3    0    0 -0.11970195207E+00  0.20983406386E-01 -0.43047077759E-01  0.13049480056E+00  0.20173779878E-01 0.  0.
         14    1    1    2    0    0 -0.16433096291E-01 -0.49826989388E-02  0.14322137882E-01  0.22360625571E-01  0.00000000000E+00 0.  1.
     999901    1    3    3    0    0  0.13613504837E+00 -0.16000707447E-01  0.28724939877E-01  0.89107457387E+00  0.88000000000E+00 0. -1.
        -11    1    4    4    0    0 -0.26567101919E-01  0.59237021691E-02 -0.11066709208E-02  0.27246779503E-01  0.51100000000E-03 0.  1.
         11    1    4    4    0    0 -0.93134850155E-01  0.15059704217E-01 -0.41940406838E-01  0.10324802105E+00  0.51100000000E-03 0. -1.
</event>
<event>
 8    1  0.1083484E+005  0.1043930E+01  0.7957747E-01            NaN
         13   -1    0    0    0    0  0.00000000000E+00  0.00000000000E+00  0.74505805969E-08  0.10566000000E+00  0.10566000000E+00 0.  1.
     999900   -1    0    0    0    0 -0.00000000000E+00 -0.00000000000E+00 -0.74505805969E-08  0.93827000000E+00  0.93827000000E+00 0.  1.
     999902    2    1    2    0    0 -0.12464614739E-02  0.34584010319E-02 -0.19180757504E-01  0.10244001341E+01  0.10242139518E+01 0.  0.
     999903    2    3    3    0    0  0.53278778766E-01  0.10435173842E+00  0.60640105317E-01  0.13337609542E+00  0.19597114027E-01 0.  0.
         14    1    1    2    0    0  0.12464614739E-02 -0.34584010319E-02  0.19180757504E-01  0.19529865907E-01  0.00000000000E+00 0.  1.
     999901    1    3    3    0    0 -0.54525240239E-01 -0.10089333739E+00 -0.79820862821E-01  0.89102403867E+00  0.88000000000E+00 0.  1.
        -11    1    4    4    0    0  0.17848212976E-01  0.28044731232E-01  0.26758054185E-01  0.42676928674E-01  0.51100000000E-03 0. -1.
         11    1    4    4    0    0  0.35430565790E-01  0.76307007189E-01  0.33882051133E-01  0.90699166746E-01  0.51100000000E-03 0.  1.
</event>
<event>
 8    1  0.1083484E+005  0.1043930E+01  0.7957747E-01            NaN
         13   -1    0    0    0    0  0.00000000000E+00  0.00000000000E+00  0.74505805969E-08  0.10566000000E+00  0.10566000000E+00 0.  1.
     999900   -1    0    0    0    0 -0.00000000000E+00 -0.00000000000E+00 -0.74505805969E-08  0.93827000000E+00  0.93827000000E+00 0. -1.
     999902    2    1    2    0    0  0.14978371970E-01 -0.23273344558E-01  0.10715195746E-01  0.10142514621E+01  0.10138171495E+01 0.  0.
     999903    2    3    3    0    0  0.85279124413E-01  0.77649885612E-01 -0.40943924960E-01  0.12419732948E+00  0.21131442531E-01 0.  0.
         14    1    1    2    0    0 -0.14978371970E-01  0.23273344558E-01 -0.10715195746E-01  0.29678537930E-01  0.00000000000E+00 0.  1.
     999901    1    3    3    0    0 -0.70300752443E-01 -0.10092323017E+00  0.51659120706E-01  0.89005413259E+00  0.88000000000E+00 0.  1.
        -11    1    4    4    0    0  0.41892109483E-01  0.50810462480E-01 -0.28002351762E-01  0.71561475387E-01  0.51100000000E-03 0.  1.
         11    1    4    4    0    0  0.43387014930E-01  0.26839423132E-01 -0.12941573198E-01  0.52635854096E-01  0.51100000000E-03 0. -1.
</event>
<event>
 8    1  0.1083484E+005  0.1043930E+01  0.7957747E-01            NaN
         13   -1    0    0    0    0  0.00000000000E+00  0.00000000000E+00  0.74505805969E-08  0.10566000000E+00  0.10566000000E+00 0.  1.
     999900   -1    0    0    0    0 -0.00000000000E+00 -0.00000000000E+00 -0.74505805969E-08  0.93827000000E+00  0.93827000000E+00 0. -1.
     999902    2    1    2    0    0 -0.13481094090E-01 -0.15709731396E-01 -0.13282388659E-01  0.10193341181E+01  0.10190373334E+01 0.  0.
     999903    2    3    3    0    0  0.13242710186E-01 -0.78098962048E-01  0.10027633353E+00  0.12944527042E+00  0.20637774172E-01 0.  0.
         14    1    1    2    0    0  0.13481094090E-01  0.15709731396E-01  0.13282388659E-01  0.24595881909E-01  0.00000000000E+00 0.  1.
     999901    1    3    3    0    0 -0.26723804276E-01  0.62389230652E-01 -0.11355872219E+00  0.88988884767E+00  0.88000000000E+00 0. -1.
        -11    1    4    4    0    0 -0.89673270803E-03 -0.30409929963E-01  0.25847939007E-01  0.39924241280E-01  0.51100000000E-03 0.  1.
         11    1    4    4    0    0  0.14139442894E-01 -0.47689032085E-01  0.74428394524E-01  0.89521029144E-01  0.51100000000E-03 0. -1.
</event>
<event>
 8    1  0.1083484E+005  0.1043930E+01  0.7957747E-01            NaN
         13   -1    0    0    0    0  0.00000000000E+00  0.00000000000E+00  0.74505805969E-08  0.10566000000E+00  0.10566000000E+00 0. -1.
     999900   -1    0    0    0    0 -0.00000000000E+00 -0.00000000000E+00 -0.74505805969E-08  0.93827000000E+00  0.93827000000E+00 0. -1.
     999902    2    1    2    0    0 -0.20504546681E-01  0.84006538636E-02 -0.12342733234E-01  0.10185656454E+01  0.10182497844E+01 0.  0.
     999903    2    3    3    0    0  0.86356399657E-01  0.83864084410E-01  0.38389683840E-01  0.12744962079E+00  0.16704059320E-01 0.  0.
         14    1    1    2    0    0  0.20504546681E-01 -0.84006538636E-02  0.12342733234E-01  0.25364354587E-01  0.00000000000E+00 0. -1.
     999901    1    3    3    0    0 -0.10686094634E+00 -0.75463430547E-01 -0.50732417074E-01  0.89111602463E+00  0.88000000000E+00 0. -1.
        -11    1    4    4    0    0  0.47967642109E-01  0.40192354518E-01  0.12596149766E-01  0.63837639063E-01  0.51100000000E-03 0. -1.
         11    1    4    4    0    0  0.38388757548E-01  0.43671729892E-01  0.25793534074E-01  0.63611981725E-01  0.51100000000E-03 0.  1.
</event>
<event>
 8    1  0.1083484E+005  0.1043930E+01  0.7957747E-01            NaN
         13   -1    0    0    0    0  0.00000000000E+00  0.00000000000E+00  0.74505805969E-08  0.10566000000E+00  0.10566000000E+00 0.  1.
     999900   -1    0    0    0    0 -0.00000000000E+00 -0.00000000000E+00 -0.74505805969E-08  0.93827000000E+00  0.93827000000E+00 0. -1.
     999902    2    1    2    0    0  0.91149276523E-02  0.18183538259E-01  0.13099886478E-01  0.10197364059E+01  0.10194493649E+01 0.  0.
     999903    2    3    3    0    0  0.10191804835E+00  0.62996855457E-01 -0.50314016485E-01  0.13145605843E+00  0.19831859913E-01 0.  0.
         14    1    1    2    0    0 -0.91149276523E-02 -0.18183538259E-01 -0.13099886478E-01  0.24193594099E-01  0.00000000000E+00 0. -1.
     999901    1    3    3    0    0 -0.92803120694E-01 -0.44813317198E-01  0.63413902963E-01  0.88828034747E+00  0.88000000000E+00 0.  1.
        -11    1    4    4    0    0  0.87162305438E-01  0.56141244664E-01 -0.35916494853E-01  0.10972402911E+00  0.51100000000E-03 0.  1.
         11    1    4    4    0    0  0.14755742908E-01  0.68556107924E-02 -0.14397521632E-01  0.21732029318E-01  0.51100000000E-03 0. -1.
</event>
<event>
 8    1  0.1083484E+005  0.1043930E+01  0.7957747E-01            NaN
         13   -1    0    0    0    0  0.00000000000E+00  0.00000000000E+00  0.74505805969E-08  0.10566000000E+00  0.10566000000E+00 0. -1.
     999900   -1    0    0    0    0 -0.00000000000E+00 -0.00000000000E+00 -0.74505805969E-08  0.93827000000E+00  0.93827000000E+00 0.  1.
     999902    2    1    2    0    0  0.15028272888E-01  0.68026655192E-02 -0.17622543909E-01  0.10197912490E+01  0.10195055234E+01 0.  0.
     999903    2    3    3    0    0 -0.85698132717E-01 -0.93174397604E-01 -0.42182574639E-02  0.12832005106E+00  0.20557321978E-01 0.  0.
         14    1    1    2    0    0 -0.15028272888E-01 -0.68026655192E-02  0.17622543909E-01  0.24138750962E-01  0.00000000000E+00 0. -1.
     999901    1    3    3    0    0  0.10072640561E+00  0.99977063123E-01 -0.13404286445E-01  0.89147119798E+00  0.88000000000E+00 0.  1.
        -11    1    4    4    0    0 -0.47957768936E-01 -0.46580801772E-01 -0.11761206364E-01  0.67884503321E-01  0.51100000000E-03 0.  1.
         11    1    4    4    0    0 -0.37740363782E-01 -0.46593595832E-01  0.75429489003E-02  0.60435547735E-01  0.51100000000E-03 0. -1.
</event>
<event>
 8    1  0.1083484E+005  0.1043930E+01  0.7957747E-01            NaN
         13   -1    0    0    0    0  0.00000000000E+00  0.00000000000E+00  0.74505805969E-08  0.10566000000E+00  0.10566000000E+00 0. -1.
     999900   -1    0    0    0    0 -0.00000000000E+00 -0.00000000000E+00 -0.74505805969E-08  0.93827000000E+00  0.93827000000E+00 0. -1.
     999902    2    1    2    0    0 -0.66036399426E-03 -0.18486537596E-02 -0.23216339546E-01  0.10206308150E+01  0.10203648408E+01 0.  0.
     999903    2    3    3    0    0 -0.12612625380E+00 -0.26465862876E-01 -0.14281231062E-01  0.13134597159E+00  0.20965135300E-01 0.  0.
         14    1    1    2    0    0  0.66036399426E-03  0.18486537596E-02  0.23216339546E-01  0.23299185034E-01  0.00000000000E+00 0. -1.
     999901    1    3    3    0    0  0.12546588980E+00  0.24617209116E-01 -0.89351084840E-02  0.88928484337E+00  0.88000000000E+00 0.  1.
        -11    1    4    4    0    0 -0.64409967282E-01 -0.24173328460E-01 -0.82351309016E-02  0.69289769779E-01  0.51100000000E-03 0.  1.
         11    1    4    4    0    0 -0.61716286516E-01 -0.22925344157E-02 -0.60461001605E-02  0.62056201814E-01  0.51100000000E-03 0. -1.
</event>
<event>
 8    1  0.1083484E+005  0.1043930E+01  0.7957747E-01            NaN
         13   -1    0    0    0    0  0.00000000000E+00  0.00000000000E+00  0.74505805969E-08  0.10566000000E+00  0.10566000000E+00 0. -1.
     999900   -1    0    0    0    0 -0.00000000000E+00 -0.00000000000E+00 -0.74505805969E-08  0.93827000000E+00  0.93827000000E+00 0. -1.
     999902    2    1    2    0    0  0.19859884295E-01 -0.29592781921E-02 -0.14701916542E-01  0.10190438858E+01  0.10187399680E+01 0.  0.
     999903    2    3    3    0    0  0.66896643230E-01  0.10782105104E+00  0.19665229465E-01  0.13018740761E+00  0.21482549400E-01 0.  0.
         14    1    1    2    0    0 -0.19859884295E-01  0.29592781921E-02  0.14701916542E-01  0.24886114233E-01  0.00000000000E+00 0. -1.
     999901    1    3    3    0    0 -0.47036758935E-01 -0.11078032923E+00 -0.34367146007E-01  0.88885647816E+00  0.88000000000E+00 0. -1.
        -11    1    4    4    0    0  0.22730208761E-01  0.43874171853E-01 -0.21608444751E-02  0.49462467750E-01  0.51100000000E-03 0. -1.
         11    1    4    4    0    0  0.44166434469E-01  0.63946879183E-01  0.21826073940E-01  0.80724939861E-01  0.51100000000E-03 0.  1.
</event>
<event>
 8    1  0.1083484E+005  0.1043930E+01  0.7957747E-01            NaN
         13   -1    0    0    0    0  0.00000000000E+00  0.00000000000E+00  0.74505805969E-08  0.10566000000E+00  0.10566000000E+00 0. -1.
     999900   -1    0    0    0    0 -0.00000000000E+00 -0.00000000000E+00 -0.74505805969E-08  0.93827000000E+00  0.93827000000E+00 0.  1.
     999902    2    1    2    0    0 -0.17662559783E-01 -0.15052603662E-01 -0.20561458684E-02  0.10206324759E+01  0.10203665401E+01 0.  0.
     999903    2    3    3    0    0 -0.89818039455E-01 -0.78793091398E-01  0.52517630600E-01  0.13370093392E+00  0.29020798445E-01 0.  0.
         14    1    1    2    0    0  0.17662559783E-01  0.15052603662E-01  0.20561458684E-02  0.23297524137E-01  0.00000000000E+00 0. -1.
     999901    1    3    3    0    0  0.72155479672E-01  0.63740487736E-01 -0.54573776468E-01  0.88693154195E+00  0.88000000000E+00 0.  1.
        -11    1    4    4    0    0 -0.75502973729E-01 -0.60140711463E-01  0.29854446328E-01  0.10104035483E+00  0.51100000000E-03 0. -1.
         11    1    4    4    0    0 -0.14315065726E-01 -0.18652379935E-01  0.22663184272E-01  0.32660579087E-01  0.51100000000E-03 0.  1.
</event>
<event>
 8    1  0.1083484E+005  0.1043930E+01  0.7957747E-01            NaN
         13   -1    0    0    0    0  0.00000000000E+00  0.00000000000E+00  0.74505805969E-08  0.10566000000E+00  0.10566000000E+00 0.  1.
     999900   -1    0    0    0    0 -0.00000000000E+00 -0.00000000000E+00 -0.74505805969E-08  0.93827000000E+00  0.93827000000E+00 0.  1.
     999902    2    1    2    0    0 -0.24784130705E-03  0.22601069103E-01  0.57958025428E-02  0.10205963103E+01  0.10203295386E+01 0.  0.
     999903    2    3    3    0    0  0.12499661376E+00  0.36508899173E-01  0.67365904650E-02  0.13161909663E+00  0.17920708062E-01 0.  0.
         14    1    1    2    0    0  0.24784130705E-03 -0.22601069103E-01 -0.57958025428E-02  0.23333689743E-01  0.00000000000E+00 0.  1.
     999901    1    3    3    0    0 -0.12524445506E+00 -0.13907830070E-01 -0.94078792226E-03  0.88897721362E+00  0.88000000000E+00 0. -1.
        -11    1    4    4    0    0  0.50999007048E-01  0.12137192304E-01  0.11097922260E-01  0.53587639959E-01  0.51100000000E-03 0.  1.
         11    1    4    4    0    0  0.73997606710E-01  0.24371706869E-01 -0.43613317952E-02  0.78031456673E-01  0.51100000000E-03 0. -1.
</event>
<event>
 8    1  0.1083484E+005  0.1043930E+01  0.7957747E-01            NaN
         13   -1    0    0    0    0  0.00000000000E+00  0.00000000000E+00  0.74505805969E-08  0.10566000000E+00  0.10566000000E+00 0. -1.
     999900   -1    0    0    0    0 -0.00000000000E+00 -0.00000000000E+00 -0.74505805969E-08  0.93827000000E+00  0.93827000000E+00 0. -1.
     999902    2    1    2    0    0  0.12278671875E-01 -0.20012148994E-02  0.14897624042E-01  0.10245209854E+01  0.10243371221E+01 0.  0.
     999903    2    3    3    0    0 -0.57769531402E-01  0.11798853602E+00  0.13677194225E-01  0.13361931827E+00  0.20209977328E-01 0.  0.
         14    1    1    2    0    0 -0.12278671875E-01  0.20012148994E-02 -0.14897624042E-01  0.19409014560E-01  0.00000000000E+00 0.  1.
     999901    1    3    3    0    0  0.70048203278E-01 -0.11998975092E+00  0.12204298168E-02  0.89090166716E+00  0.88000000000E+00 0. -1.
        -11    1    4    4    0    0 -0.20246372097E-01  0.64183642549E-01  0.79436390060E-02  0.67770333300E-01  0.51100000000E-03 0. -1.
         11    1    4    4    0    0 -0.37523159306E-01  0.53804893472E-01  0.57335552194E-02  0.65848984975E-01  0.51100000000E-03 0.  1.
</event>
<event>
 8    1  0.1083484E+005  0.1043930E+01  0.7957747E-01            NaN
         13   -1    0    0    0    0  0.00000000000E+00  0.00000000000E+00  0.74505805969E-08  0.10566000000E+00  0.10566000000E+00 0. -1.
     999900   -1    0    0    0    0 -0.00000000000E+00 -0.00000000000E+00 -0.74505805969E-08  0.93827000000E+00  0.93827000000E+00 0.  1.
     999902    2    1    2    0    0 -0.15917909841E-01  0.19422964926E-01 -0.20264027574E-02  0.10187359982E+01  0.10184244185E+01 0.  0.
     999903    2    3    3    0    0 -0.36518104585E-01  0.11809022450E+00  0.41148163262E-01  0.13193069863E+00  0.20824620460E-01 0.  0.
         14    1    1    2    0    0  0.15917909841E-01 -0.19422964926E-01  0.20264027574E-02  0.25194001833E-01  0.00000000000E+00 0.  1.
     999901    1    3    3    0    0  0.20600194744E-01 -0.98667259571E-01 -0.43174566019E-01  0.88680529954E+00  0.88000000000E+00 0.  1.
        -11    1    4    4    0    0 -0.21742959043E-01  0.82768826574E-01  0.18882333567E-01  0.87636970294E-01  0.51100000000E-03 0.  1.
         11    1    4    4    0    0 -0.14775145542E-01  0.35321397923E-01  0.22265829694E-01  0.44293728337E-01  0.51100000000E-03 0. -1.
</event>
<event>
 8    1  0.1083484E+005  0.1043930E+01  0.7957747E-01            NaN
         13   -1    0    0    0    0  0.00000000000E+00  0.00000000000E+00  0.74505805969E-08  0.10566000000E+00  0.10566000000E+00 0. -1.
     999900   -1    0    0    0    0 -0.00000000000E+00 -0.00000000000E+00 -0.74505805969E-08  0.93827000000E+00  0.93827000000E+00 0. -1.
     999902    2    1    2    0    0  0.32923173132E-01  0.90444089210E-02  0.11285308613E-01  0.10079703719E+01  0.10073287327E+01 0.  0.
     999903    2    3    3    0    0 -0.75479858571E-01  0.80050448922E-01 -0.36292954922E-01  0.11720846985E+00  0.17758474188E-01 0.  0.
         14    1    1    2    0    0 -0.32923173132E-01 -0.90444089210E-02 -0.11285308613E-01  0.35959628089E-01  0.00000000000E+00 0.  1.
     999901    1    3    3    0    0  0.10840303170E+00 -0.71006040001E-01  0.47578263535E-01  0.89076190206E+00  0.88000000000E+00 0.  1.
        -11    1    4    4    0    0 -0.34458197044E-01  0.47878006195E-01 -0.23699766287E-01  0.63573664861E-01  0.51100000000E-03 0.  1.
         11    1    4    4    0    0 -0.41021661527E-01  0.32172442727E-01 -0.12593188636E-01  0.53634804991E-01  0.51100000000E-03 0. -1.
</event>
<event>
 8    1  0.1083484E+005  0.1043930E+01  0.7957747E-01            NaN
         13   -1    0    0    0    0  0.00000000000E+00  0.00000000000E+00  0.74505805969E-08  0.10566000000E+00  0.10566000000E+00 0.  1.
     999900   -1    0    0    0    0 -0.00000000000E+00 -0.00000000000E+00 -0.74505805969E-08  0.93827000000E+00  0.93827000000E+00 0.  1.
     999902    2    1    2    0    0 -0.50247662230E-02 -0.23163967708E-01 -0.71021206216E-02  0.10191861565E+01  0.10188857462E+01 0.  0.
     999903    2    3    3    0    0  0.32478078619E-01 -0.12423584715E+00  0.22950130699E-01  0.13209815294E+00  0.20828879099E-01 0.  0.
         14    1    1    2    0    0  0.50247662230E-02  0.23163967708E-01  0.71021206216E-02  0.24743843535E-01  0.00000000000E+00 0. -1.
     999901    1    3    3    0    0 -0.37502844842E-01  0.10107187944E+00 -0.30052251320E-01  0.88708800352E+00  0.88000000000E+00 0.  1.
        -11    1    4    4    0    0  0.19770320770E-01 -0.82748354890E-01  0.52714680738E-02  0.85242039610E-01  0.51100000000E-03 0. -1.
         11    1    4    4    0    0  0.12707757849E-01 -0.41487492257E-01  0.17678662625E-01  0.46856113332E-01  0.51100000000E-03 0.  1.
</event>
<event>
 8    1  0.1083484E+005  0.1043930E+01  0.7957747E-01            NaN
         13   -1    0    0    0    0  0.00000000000E+00  0.00000000000E+00  0.74505805969E-08  0.10566000000E+00  0.10566000000E+00 0. -1.
     999900   -1    0    0    0    0 -0.00000000000E+00 -0.00000000000E+00 -0.74505805969E-08  0.93827000000E+00  0.93827000000E+00 0. -1.
     999902    2    1    2    0    0  0.18436356363E-01 -0.13718694911E-01 -0.18627360433E-02  0.10208741632E+01  0.10206137788E+01 0.  0.
     999903    2    3    3    0    0  0.12235915887E+00  0.29231607107E-01 -0.38459863008E-01  0.13296424262E+00  0.19341099734E-01 0.  0.
         14    1    1    2    0    0 -0.18436356363E-01  0.13718694911E-01  0.18627360433E-02  0.23055836823E-01  0.00000000000E+00 0. -1.
     999901    1    3    3    0    0 -0.10392280251E+00 -0.42950302018E-01  0.36597126965E-01  0.88790992056E+00  0.88000000000E+00 0. -1.
        -11    1    4    4    0    0  0.60250865856E-01  0.24315273519E-01 -0.19306422444E-01  0.67781991939E-01  0.51100000000E-03 0.  1.
         11    1    4    4    0    0  0.62108293015E-01  0.49163335880E-02 -0.19153440565E-01  0.65182250679E-01  0.51100000000E-03 0. -1.
</event>
<event>
 7    1  0.1187405E+005  0.1043930E+01  0.7957747E-01            NaN
         13   -1    0    0    0    0  0.00000000000E+00  0.00000000000E+00  0.74505805969E-08  0.10566000000E+00  0.10566000000E+00 0.  1.
     999900   -1    0    0    0    0 -0.00000000000E+00 -0.00000000000E+00 -0.74505805969E-08  0.93827000000E+00  0.93827000000E+00 0.  1.
     999903    2    1    2    0    0  0.37131802742E-01 -0.42208430114E-01  0.57509621834E-01  0.83007785027E-01  0.20557563671E-01 0.  0.
         14    1    1    2    0    0 -0.74301725737E-01  0.12524393319E-01  0.14381591649E-01  0.76710084434E-01  0.00000000000E+00 0. -1.
     999901    1    1    2    0    0  0.37169922995E-01  0.29684036795E-01 -0.71891213484E-01  0.88421213054E+00  0.88000000000E+00 0.  1.
        -11    1    3    3    0    0  0.56431471980E-02 -0.21293083175E-01  0.22166058421E-01  0.31254371987E-01  0.51100000000E-03 0. -1.
         11    1    3    3    0    0  0.31488655544E-01 -0.20915346939E-01  0.35343563414E-01  0.51753413040E-01  0.51100000000E-03 0.  1.
</event>
<event>
 8    1  0.1083484E+005  0.1043930E+01  0.7957747E-01            NaN
         13   -1    0    0    0    0  0.00000000000E+00  0.00000000000E+00  0.74505805969E-08  0.10566000000E+00  0.10566000000E+00 0.  1.
     999900   -1    0    0    0    0 -0.00000000000E+00 -0.00000000000E+00 -0.74505805969E-08  0.93827000000E+00  0.93827000000E+00 0. -1.
     999902    2    1    2    0    0  0.12270794827E-01  0.19707594447E-01  0.75130645306E-02  0.10195290200E+01  0.10192369768E+01 0.  0.
     999903    2    3    3    0    0  0.11873295606E+00  0.52616147285E-01  0.16427751570E-01  0.13245707466E+00  0.20224534502E-01 0.  0.
         14    1    1    2    0    0 -0.12270794827E-01 -0.19707594447E-01 -0.75130645306E-02  0.24400979964E-01  0.00000000000E+00 0. -1.
     999901    1    3    3    0    0 -0.10646216124E+00 -0.32908552838E-01 -0.89146870397E-02  0.88707194537E+00  0.88000000000E+00 0. -1.
        -11    1    4    4    0    0  0.52756721263E-01  0.19822093547E-01 -0.23985688710E-02  0.56411003223E-01  0.51100000000E-03 0. -1.
         11    1    4    4    0    0  0.65976234799E-01  0.32794053738E-01  0.18826320441E-01  0.76046071438E-01  0.51100000000E-03 0.  1.
</event>
<event>
 8    1  0.1083484E+005  0.1043930E+01  0.7957747E-01            NaN
         13   -1    0    0    0    0  0.00000000000E+00  0.00000000000E+00  0.74505805969E-08  0.10566000000E+00  0.10566000000E+00 0. -1.
     999900   -1    0    0    0    0 -0.00000000000E+00 -0.00000000000E+00 -0.74505805969E-08  0.93827000000E+00  0.93827000000E+00 0. -1.
     999902    2    1    2    0    0 -0.76879656773E-02 -0.20491412652E-01 -0.93500574871E-02  0.10201302861E+01  0.10198526237E+01 0.  0.
     999903    2    3    3    0    0  0.81713719629E-01 -0.70991641437E-01 -0.72815762319E-01  0.13188998629E+00  0.19387834117E-01 0.  0.
         14    1    1    2    0    0  0.76879656773E-02  0.20491412652E-01  0.93500574871E-02  0.23799713942E-01  0.00000000000E+00 0. -1.
     999901    1    3    3    0    0 -0.89401685306E-01  0.50500228786E-01  0.63465704832E-01  0.88824029977E+00  0.88000000000E+00 0.  1.
        -11    1    4    4    0    0  0.36083099003E-01 -0.21537265222E-01 -0.35064566047E-01  0.54732337242E-01  0.51100000000E-03 0. -1.
         11    1    4    4    0    0  0.45630620626E-01 -0.49454376215E-01 -0.37751196272E-01  0.77157649048E-01  0.51100000000E-03 0.  1.
</event>
<event>
 8    1  0.1083484E+005  0.1043930E+01  0.7957747E-01            NaN
         13   -1    0    0    0    0  0.00000000000E+00  0.00000000000E+00  0.74505805969E-08  0.10566000000E+00  0.10566000000E+00 0.  1.
     999900   -1    0    0    0    0 -0.00000000000E+00 -0.00000000000E+00 -0.74505805969E-08  0.93827000000E+00  0.93827000000E+00 0. -1.
     999902    2    1    2    0    0  0.80773816655E-02 -0.21934138705E-01  0.75812111754E-02  0.10193571431E+01  0.10190609206E+01 0.  0.
     999903    2    3    3    0    0  0.11360449132E+00  0.88809075758E-02  0.61564377879E-01  0.13087544925E+00  0.18797862269E-01 0.  0.
         14    1    1    2    0    0 -0.80773816655E-02  0.21934138705E-01 -0.75812111754E-02  0.24572856940E-01  0.00000000000E+00 0.  1.
     999901    1    3    3    0    0 -0.10552710965E+00 -0.30815046281E-01 -0.53983166703E-01  0.88848169381E+00  0.88000000000E+00 0. -1.
        -11    1    4    4    0    0  0.93628168172E-01  0.57253607162E-03  0.53080447281E-01  0.10763064934E+00  0.51100000000E-03 0.  1.
         11    1    4    4    0    0  0.19976323145E-01  0.83083715041E-02  0.84839305975E-02  0.23244799910E-01  0.51100000000E-03 0. -1.
</event>
<event>
 8    1  0.1083484E+005  0.1043930E+01  0.7957747E-01            NaN
         13   -1    0    0    0    0  0.00000000000E+00  0.00000000000E+00  0.74505805969E-08  0.10566000000E+00  0.10566000000E+00 0. -1.
     999900   -1    0    0    0    0 -0.00000000000E+00 -0.00000000000E+00 -0.74505805969E-08  0.93827000000E+00  0.93827000000E+00 0.  1.
     999902    2    1    2    0    0  0.11725002755E-01  0.11255273537E-01  0.20173824181E-01  0.10180236291E+01  0.10176939468E+01 0.  0.
     999903    2    3    3    0    0  0.24581502543E-01  0.69113143195E-01 -0.10181600628E+00  0.12763363509E+00  0.23301691836E-01 0.  0.
         14    1    1    2    0    0 -0.11725002755E-01 -0.11255273537E-01 -0.20173824181E-01  0.25906370916E-01  0.00000000000E+00 0.  1.
     999901    1    3    3    0    0 -0.12856499789E-01 -0.57857869659E-01  0.12198983046E+00  0.89038999399E+00  0.88000000000E+00 0. -1.
        -11    1    4    4    0    0  0.14119326106E-01  0.25816765335E-01 -0.24023776093E-01  0.37990310354E-01  0.51100000000E-03 0.  1.
         11    1    4    4    0    0  0.10462176437E-01  0.43296377861E-01 -0.77792230185E-01  0.89643324736E-01  0.51100000000E-03 0. -1.
</event>
<event>
 8    1  0.1083484E+005  0.1043930E+01  0.7957747E-01            NaN
         13   -1    0    0    0    0  0.00000000000E+00  0.00000000000E+00  0.74505805969E-08  0.10566000000E+00  0.10566000000E+00 0. -1.
     999900   -1    0    0    0    0 -0.00000000000E+00 -0.00000000000E+00 -0.74505805969E-08  0.93827000000E+00  0.93827000000E+00 0.  1.
     999902    2    1    2    0    0  0.19341001986E-01 -0.83861473746E-02  0.10720881248E-01  0.10202796486E+01  0.10200055011E+01 0.  0.
     999903    2    3    3    0    0  0.11856890257E+00 -0.50974259316E-01  0.27466489509E-01  0.13352131687E+00  0.20410150470E-01 0.  0.
         14    1    1    2    0    0 -0.19341001986E-01  0.83861473746E-02 -0.10720881248E-01  0.23650351379E-01  0.00000000000E+00 0. -1.
     999901    1    3    3    0    0 -0.99227900589E-01  0.42588111941E-01 -0.16745608261E-01  0.88675833175E+00  0.88000000000E+00 0. -1.
        -11    1    4    4    0    0  0.85768704641E-01 -0.28171071381E-01  0.13973980633E-01  0.91353233190E-01  0.51100000000E-03 0. -1.
         11    1    4    4    0    0  0.32800197934E-01 -0.22803187935E-01  0.13492508876E-01  0.42168083680E-01  0.51100000000E-03 0.  1.
</event>
<event>
 8    1  0.1083484E+005  0.1043930E+01  0.7957747E-01            NaN
         13   -1    0    0    0    0  0.00000000000E+00  0.00000000000E+00  0.74505805969E-08  0.10566000000E+00  0.10566000000E+00 0.  1.
     999900   -1    0    0    0    0 -0.00000000000E+00 -0.00000000000E+00 -0.74505805969E-08  0.93827000000E+00  0.93827000000E+00 0. -1.
     999902    2    1    2    0    0  0.22493015130E-01 -0.76098434906E-02 -0.39194616887E-02  0.10198632672E+01  0.10195792643E+01 0.  0.
     999903    2    3    3    0    0  0.25690979736E-01 -0.10672751485E+00 -0.69952178244E-01  0.13183463061E+00  0.20887166436E-01 0.  0.
         14    1    1    2    0    0 -0.22493015130E-01  0.76098434906E-02  0.39194616887E-02  0.24066732797E-01  0.00000000000E+00 0.  1.
     999901    1    3    3    0    0 -0.31979646063E-02  0.99117671358E-01  0.66032716555E-01  0.88802863659E+00  0.88000000000E+00 0. -1.
        -11    1    4    4    0    0  0.12359926023E-02 -0.39453611203E-01 -0.31976587081E-01  0.50802345979E-01  0.51100000000E-03 0.  1.
         11    1    4    4    0    0  0.24454987134E-01 -0.67273903645E-01 -0.37975591163E-01  0.81032284631E-01  0.51100000000E-03 0. -1.
</event>
<event>
 8    1  0.1083484E+005  0.1043930E+01  0.7957747E-01            NaN
         13   -1    0    0    0    0  0.00000000000E+00  0.00000000000E+00  0.74505805969E-08  0.10566000000E+00  0.10566000000E+00 0. -1.
     999900   -1    0    0    0    0 -0.00000000000E+00 -0.00000000000E+00 -0.74505805969E-08  0.93827000000E+00  0.93827000000E+00 0.  1.
     999902    2    1    2    0    0 -0.14070141629E-01 -0.12028829369E-01 -0.13692227096E-01  0.10209052589E+01  0.10206455844E+01 0.  0.
     999903    2    3    3    0    0  0.85735473555E-01 -0.34547216375E-01 -0.91004041147E-01  0.13161039485E+00  0.22259356284E-01 0.  0.
         14    1    1    2    0    0  0.14070141629E-01  0.12028829369E-01  0.13692227096E-01  0.23024741134E-01  0.00000000000E+00 0. -1.
     999901    1    3    3    0    0 -0.99805615184E-01  0.22518387006E-01  0.77311814051E-01  0.88929486402E+00  0.88000000000E+00 0. -1.
        -11    1    4    4    0    0  0.33183764731E-01 -0.18652035359E-01 -0.24082008087E-01  0.45047362845E-01  0.51100000000E-03 0. -1.
         11    1    4    4    0    0  0.52551708824E-01 -0.15895181016E-01 -0.66922033060E-01  0.86563032004E-01  0.51100000000E-03 0.  1.
</event>
<event>
 8    1  0.1083484E+005  0.1043930E+01  0.7957747E-01            NaN
         13   -1    0    0    0    0  0.00000000000E+00  0.00000000000E+00  0.74505805969E-08  0.10566000000E+00  0.10566000000E+00 0.  1.
     999900   -1    0    0    0    0 -0.00000000000E+00 -0.00000000000E+00 -0.74505805969E-08  0.93827000000E+00  0.93827000000E+00 0. -1.
     999902    2    1    2    0    0 -0.16734911001E-01  0.72798915444E-02 -0.15255613576E-01  0.10201437054E+01  0.10198663598E+01 0.  0.
     999903    2    3    3    0    0  0.32660254034E-01  0.26606676203E-01 -0.12347383400E+00  0.13192943495E+00  0.19620925346E-01 0.  0.
         14    1    1    2    0    0  0.16734911001E-01 -0.72798915444E-02  0.15255613576E-01  0.23786294640E-01  0.00000000000E+00 0.  1.
     999901    1    3    3    0    0 -0.49395165035E-01 -0.19326784659E-01  0.10821822042E+00  0.88821427041E+00  0.88000000000E+00 0.  1.
        -11    1    4    4    0    0  0.19978629510E-01  0.20414052677E-01 -0.10413870767E+00  0.10798615994E+00  0.51100000000E-03 0. -1.
         11    1    4    4    0    0  0.12681624523E-01  0.61926235261E-02 -0.19335126329E-01  0.23943275003E-01  0.51100000000E-03 0.  1.
</event>
<event>
 8    1  0.1083484E+005  0.1043930E+01  0.7957747E-01            NaN
         13   -1    0    0    0    0  0.00000000000E+00  0.00000000000E+00  0.74505805969E-08  0.10566000000E+00  0.10566000000E+00 0. -1.
     999900   -1    0    0    0    0 -0.00000000000E+00 -0.00000000000E+00 -0.74505805969E-08  0.93827000000E+00  0.93827000000E+00 0. -1.
     999902    2    1    2    0    0  0.17620442776E-02 -0.23981516661E-01 -0.11013295229E-01  0.10174817370E+01  0.10171379329E+01 0.  0.
     999903    2    3    3    0    0  0.97869568929E-01 -0.51078302920E-02 -0.81692117705E-01  0.12923156492E+00  0.20558521951E-01 0.  0.
         14    1    1    2    0    0 -0.17620442776E-02  0.23981516661E-01  0.11013295229E-01  0.26448262952E-01  0.00000000000E+00 0.  1.
     999901    1    3    3    0    0 -0.96107524651E-01 -0.18873686369E-01  0.70678822476E-01  0.88825017212E+00  0.88000000000E+00 0.  1.
        -11    1    4    4    0    0  0.44784394724E-01 -0.72571934370E-02 -0.49320363977E-01  0.67015433231E-01  0.51100000000E-03 0.  1.
         11    1    4    4    0    0  0.53085174205E-01  0.21493631451E-02 -0.32371753728E-01  0.62216131692E-01  0.51100000000E-03 0. -1.
</event>
<event>
 8    1  0.1083484E+005  0.1043930E+01  0.7957747E-01            NaN
         13   -1    0    0    0    0  0.00000000000E+00  0.00000000000E+00  0.74505805969E-08  0.10566000000E+00  0.10566000000E+00 0. -1.
     999900   -1    0    0    0    0 -0.00000000000E+00 -0.00000000000E+00 -0.74505805969E-08  0.93827000000E+00  0.93827000000E+00 0.  1.
     999902    2    1    2    0    0  0.17361712990E-01 -0.26323319067E-02 -0.14564800427E-01  0.10211157137E+01  0.10208608177E+01 0.  0.
     999903    2    3    3    0    0  0.12403702453E+00  0.33792261831E-01 -0.30887346654E-01  0.13377541895E+00  0.20365021908E-01 0.  0.
         14    1    1    2    0    0 -0.17361712990E-01  0.26323319067E-02  0.14564800427E-01  0.22814286328E-01  0.00000000000E+00 0. -1.
     999901    1    3    3    0    0 -0.10667531154E+00 -0.36424593738E-01  0.16322546228E-01  0.88734029472E+00  0.88000000000E+00 0.  1.
        -11    1    4    4    0    0  0.40100544547E-01  0.52885665189E-02 -0.18432555822E-02  0.40492978662E-01  0.51100000000E-03 0.  1.
         11    1    4    4    0    0  0.83936479986E-01  0.28503695312E-01 -0.29044091072E-01  0.93282440288E-01  0.51100000000E-03 0. -1.
</event>
<event>
 8    1  0.1083484E+005  0.1043930E+01  0.7957747E-01            NaN
         13   -1    0    0    0    0  0.00000000000E+00  0.00000000000E+00  0.74505805969E-08  0.10566000000E+00  0.10566000000E+00 0. -1.
     999900   -1    0    0    0    0 -0.00000000000E+00 -0.00000000000E+00 -0.74505805969E-08  0.93827000000E+00  0.93827000000E+00 0.  1.
     999902    2    1    2    0    0 -0.36733358793E-02 -0.18692819212E-01 -0.15750938677E-01  0.10192114451E+01  0.10189116561E+01 0.  0.
     999903    2    3    3    0    0  0.11214377690E+00  0.17919921311E-01 -0.59695912165E-01  0.12978170810E+00  0.19553504857E-01 0.  0.
         14    1    1    2    0    0  0.36733358793E-02  0.18692819212E-01  0.15750938677E-01  0.24718554888E-01  0.00000000000E+00 0. -1.
     999901    1    3    3    0    0 -0.11581711278E+00 -0.36612740522E-01  0.43944973488E-01  0.88942973701E+00  0.88000000000E+00 0. -1.
        -11    1    4    4    0    0  0.14040530543E-01  0.69183744885E-02 -0.13970972601E-01  0.20986891145E-01  0.51100000000E-03 0.  1.
         11    1    4    4    0    0  0.98103246355E-01  0.11001546822E-01 -0.45724939564E-01  0.10879481696E+00  0.51100000000E-03 0. -1.
</event>
<event>
 8    1  0.1083484E+005  0.1043930E+01  0.7957747E-01            NaN
         13   -1    0    0    0    0  0.00000000000E+00  0.00000000000E+00  0.74505805969E-08  0.10566000000E+00  0.10566000000E+00 0. -1.
     999900   -1    0    0    0    0 -0.00000000000E+00 -0.00000000000E+00 -0.74505805969E-08  0.93827000000E+00  0.93827000000E+00 0. -1.
     999902    2    1    2    0    0 -0.75801852954E-02 -0.10555529211E-01 -0.19295366506E-01  0.10206665184E+01  0.10204013682E+01 0.  0.
     999903    2    3    3    0    0  0.85895503334E-01 -0.72314896235E-01 -0.66930820922E-01  0.13228537258E+00  0.20302790450E-01 0.  0.
         14    1    1    2    0    0  0.75801852954E-02  0.10555529211E-01  0.19295366506E-01  0.23263481568E-01  0.00000000000E+00 0. -1.
     999901    1    3    3    0    0 -0.93475688630E-01  0.61759367024E-01  0.47635454416E-01  0.88838114585E+00  0.88000000000E+00 0.  1.
        -11    1    4    4    0    0  0.44327428897E-01 -0.45462992180E-01 -0.46692256279E-01  0.78817717094E-01  0.51100000000E-03 0.  1.
         11    1    4    4    0    0  0.41568074438E-01 -0.26851904055E-01 -0.20238564643E-01  0.53467655491E-01  0.51100000000E-03 0. -1.
</event>
<event>
 8    1  0.1083484E+005  0.1043930E+01  0.7957747E-01            NaN
         13   -1    0    0    0    0  0.00000000000E+00  0.00000000000E+00  0.74505805969E-08  0.10566000000E+00  0.10566000000E+00 0. -1.
     999900   -1    0    0    0    0 -0.00000000000E+00 -0.00000000000E+00 -0.74505805969E-08  0.93827000000E+00  0.93827000000E+00 0.  1.
     999902    2    1    2    0    0  0.20536473933E-01  0.11508454681E-02 -0.12889744760E-01  0.10196562132E+01  0.10193672431E+01 0.  0.
     999903    2    3    3    0    0 -0.16754158844E-01 -0.12319779011E+00  0.28619298328E-01  0.12916411600E+00  0.20147141205E-01 0.  0.
         14    1    1    2    0    0 -0.20536473933E-01 -0.11508454681E-02  0.12889744760E-01  0.24273786826E-01  0.00000000000E+00 0. -1.
     999901    1    3    3    0    0  0.37290632777E-01  0.12434863558E+00 -0.41509043089E-01  0.89049209717E+00  0.88000000000E+00 0.  1.
        -11    1    4    4    0    0  0.38462558660E-02 -0.15482393940E-01  0.59944885015E-03  0.15972434574E-01  0.51100000000E-03 0.  1.
         11    1    4    4    0    0 -0.20600414710E-01 -0.10771539617E+00  0.28019849478E-01  0.11319168143E+00  0.51100000000E-03 0. -1.
</event>
<event>
 8    1  0.1083484E+005  0.1043930E+01  0.7957747E-01            NaN
         13   -1    0    0    0    0  0.00000000000E+00  0.00000000000E+00  0.74505805969E-08  0.10566000000E+00  0.10566000000E+00 0. -1.
     999900   -1    0    0    0    0 -0.00000000000E+00 -0.00000000000E+00 -0.74505805969E-08  0.93827000000E+00  0.93827000000E+00 0.  1.
     999902    2    1    2    0    0 -0.73259167437E-02  0.22408997523E-01 -0.34103317830E-02  0.10201085267E+01  0.10198303505E+01 0.  0.
     999903    2    3    3    0    0  0.97060607102E-01  0.86309609206E-01 -0.82631937894E-02  0.13162477065E+00  0.19664429449E-01 0.  0.
         14    1    1    2    0    0  0.73259167437E-02 -0.22408997523E-01  0.34103317830E-02  0.23821473275E-01  0.00000000000E+00 0.  1.
     999901    1    3    3    0    0 -0.10438652385E+00 -0.63900611683E-01  0.48528620064E-02  0.88848375607E+00  0.88000000000E+00 0.  1.
        -11    1    4    4    0    0  0.13958430500E-01  0.75268608648E-02  0.42642955180E-02  0.16429752091E-01  0.51100000000E-03 0.  1.
         11    1    4    4    0    0  0.83102176602E-01  0.78782748341E-01 -0.12527489307E-01  0.11519501856E+00  0.51100000000E-03 0. -1.
</event>
<event>
 8    1  0.1083484E+005  0.1043930E+01  0.7957747E-01            NaN
         13   -1    0    0    0    0  0.00000000000E+00  0.00000000000E+00  0.74505805969E-08  0.10566000000E+00  0.10566000000E+00 0. -1.
     999900   -1    0    0    0    0 -0.00000000000E+00 -0.00000000000E+00 -0.74505805969E-08  0.93827000000E+00  0.93827000000E+00 0. -1.
     999902    2    1    2    0    0  0.30020243676E-02 -0.16484164445E-01  0.16880696635E-01  0.10201455987E+01  0.10198682977E+01 0.  0.
     999903    2    3    3    0    0 -0.17096451315E-01 -0.23495348470E-01 -0.12374533900E+00  0.12872606370E+00  0.20326595954E-01 0.  0.
         14    1    1    2    0    0 -0.30020243676E-02  0.16484164445E-01 -0.16880696635E-01  0.23784401330E-01  0.00000000000E+00 0.  1.
     999901    1    3    3    0    0  0.20098475682E-01  0.70111840248E-02  0.14062603564E+00  0.89141953497E+00  0.88000000000E+00 0.  1.
        -11    1    4    4    0    0  0.46286452366E-02 -0.38990613584E-02 -0.17460494916E-01  0.18486671954E-01  0.51100000000E-03 0. -1.
         11    1    4    4    0    0 -0.21725096551E-01 -0.19596287112E-01 -0.10628484409E+00  0.11023939175E+00  0.51100000000E-03 0.  1.
</event>
<event>
 8    1  0.1083484E+005  0.1043930E+01  0.7957747E-01            NaN
         13   -1    0    0    0    0  0.00000000000E+00  0.00000000000E+00  0.74505805969E-08  0.10566000000E+00  0.10566000000E+00 0.  1.
     999900   -1    0    0    0    0 -0.00000000000E+00 -0.00000000000E+00 -0.74505805969E-08  0.93827000000E+00  0.93827000000E+00 0. -1.
     999902    2    1    2    0    0 -0.81628241015E-03 -0.19348046157E-01  0.12525599035E-01  0.10208669595E+01  0.10206064105E+01 0.  0.
     999903    2    3    3    0    0 -0.59395173533E-01 -0.48099758180E-01  0.10742158510E+00  0.13336293379E+00  0.20122171541E-01 0.  0.
         14    1    1    2    0    0  0.81628241015E-03  0.19348046157E-01 -0.12525599035E-01  0.23063040525E-01  0.00000000000E+00 0. -1.
     999901    1    3    3    0    0  0.58578891122E-01  0.28751712023E-01 -0.94895986069E-01  0.88750402568E+00  0.88000000000E+00 0. -1.
        -11    1    4    4    0    0 -0.40826338196E-01 -0.29680182637E-01  0.54231570774E-01  0.74087971503E-01  0.51100000000E-03 0.  1.
         11    1    4    4    0    0 -0.18568835337E-01 -0.18419575543E-01  0.53190014330E-01  0.59274962289E-01  0.51100000000E-03 0. -1.
</event>
<event>
 8    1  0.1083484E+005  0.1043930E+01  0.7957747E-01            NaN
         13   -1    0    0    0    0  0.00000000000E+00  0.00000000000E+00  0.74505805969E-08  0.10566000000E+00  0.10566000000E+00 0. -1.
     999900   -1    0    0    0    0 -0.00000000000E+00 -0.00000000000E+00 -0.74505805969E-08  0.93827000000E+00  0.93827000000E+00 0. -1.
     999902    2    1    2    0    0 -0.26361666332E-02  0.14766768238E-01  0.17544902692E-01  0.10208468800E+01  0.10205858719E+01 0.  0.
     999903    2    3    3    0    0 -0.12209236801E-01 -0.14715817483E-01 -0.12543732228E+00  0.12876796914E+00  0.21932790680E-01 0.  0.
         14    1    1    2    0    0  0.26361666332E-02 -0.14766768238E-01 -0.17544902692E-01  0.23083120005E-01  0.00000000000E+00 0. -1.
     999901    1    3    3    0    0  0.95730701678E-02  0.29482585721E-01  0.14298222498E+00  0.89207891086E+00  0.88000000000E+00 0.  1.
        -11    1    4    4    0    0  0.38948899893E-02 -0.10783628581E-01 -0.68859454424E-01  0.69809328875E-01  0.51100000000E-03 0. -1.
         11    1    4    4    0    0 -0.16104126790E-01 -0.39321889019E-02 -0.56577867860E-01  0.58958640265E-01  0.51100000000E-03 0.  1.
</event>
<event>
 8    1  0.1083484E+005  0.1043930E+01  0.7957747E-01            NaN
         13   -1    0    0    0    0  0.00000000000E+00  0.00000000000E+00  0.74505805969E-08  0.10566000000E+00  0.10566000000E+00 0. -1.
     999900   -1    0    0    0    0 -0.00000000000E+00 -0.00000000000E+00 -0.74505805969E-08  0.93827000000E+00  0.93827000000E+00 0. -1.
     999902    2    1    2    0    0 -0.15809954945E-01 -0.18031599945E-01  0.52108834413E-02  0.10193892873E+01  0.10190938487E+01 0.  0.
     999903    2    3    3    0    0  0.35971511112E-01 -0.34093218300E-01 -0.11765183235E+00  0.12920136181E+00  0.19868092370E-01 0.  0.
         14    1    1    2    0    0  0.15809954945E-01  0.18031599945E-01 -0.52108834413E-02  0.24540712667E-01  0.00000000000E+00 0.  1.
     999901    1    3    3    0    0 -0.51781466057E-01  0.16061618355E-01  0.12286271579E+00  0.89018792552E+00  0.88000000000E+00 0.  1.
        -11    1    4    4    0    0  0.39944493573E-02 -0.10207087843E-01 -0.11999889548E-01  0.16260342496E-01  0.51100000000E-03 0.  1.
         11    1    4    4    0    0  0.31977061755E-01 -0.23886130457E-01 -0.10565194280E+00  0.11294101932E+00  0.51100000000E-03 0. -1.
</event>
<event>
 8    1  0.1083484E+005  0.1043930E+01  0.7957747E-01            NaN
         13   -1    0    0    0    0  0.00000000000E+00  0.00000000000E+00  0.74505805969E-08  0.10566000000E+00  0.10566000000E+00 0. -1.
     999900   -1    0    0    0    0 -0.00000000000E+00 -0.00000000000E+00 -0.74505805969E-08  0.93827000000E+00  0.93827000000E+00 0. -1.
     999902    2    1    2    0    0  0.18869938232E-01  0.14261174802E-02  0.12604889173E-01  0.10211925505E+01  0.10209393878E+01 0.  0.
     999903    2    3    3    0    0 -0.46585843595E-01  0.45543428973E-01 -0.10979676732E+00  0.12922115964E+00  0.19958287464E-01 0.  0.
         14    1    1    2    0    0 -0.18869938232E-01 -0.14261174802E-02 -0.12604889173E-01  0.22737449528E-01  0.00000000000E+00 0.  1.
     999901    1    3    3    0    0  0.65455781827E-01 -0.44117311492E-01  0.12240165650E+00  0.89197139083E+00  0.88000000000E+00 0.  1.
        -11    1    4    4    0    0 -0.22431818522E-02 -0.12477910620E-02 -0.10874118011E-02  0.28341546855E-02  0.51100000000E-03 0.  1.
         11    1    4    4    0    0 -0.44342661743E-01  0.46791220035E-01 -0.10870935552E+00  0.12638700496E+00  0.51100000000E-03 0. -1.
</event>
<event>
 8    1  0.1083484E+005  0.1043930E+01  0.7957747E-01            NaN
         13   -1    0    0    0    0  0.00000000000E+00  0.00000000000E+00  0.74505805969E-08  0.10566000000E+00  0.10566000000E+00 0. -1.
     999900   -1    0    0    0    0 -0.00000000000E+00 -0.00000000000E+00 -0.74505805969E-08  0.93827000000E+00  0.93827000000E+00 0. -1.
     999902    2    1    2    0    0  0.88142439133E-02 -0.20701364254E-01 -0.16307772937E-02  0.10213712586E+01  0.10211221039E+01 0.  0.
     999903    2    3    3    0    0 -0.11644322442E+00  0.52240794647E-01 -0.80282129616E-02  0.12949070659E+00  0.20378070325E-01 0.  0.
         14    1    1    2    0    0 -0.88142439133E-02  0.20701364254E-01  0.16307772937E-02  0.22558741373E-01  0.00000000000E+00 0.  1.
     999901    1    3    3    0    0  0.12525746834E+00 -0.72942158901E-01  0.63974356678E-02  0.89188055204E+00  0.88000000000E+00 0. -1.
        -11    1    4    4    0    0 -0.71058315022E-01  0.25098710956E-01  0.31892945659E-02  0.75429849173E-01  0.51100000000E-03 0. -1.
         11    1    4    4    0    0 -0.45384909402E-01  0.27142083692E-01 -0.11217507528E-01  0.54060857417E-01  0.51100000000E-03 0.  1.
</event>
<event>
 8    1  0.1083484E+005  0.1043930E+01  0.7957747E-01            NaN
         13   -1    0    0    0    0  0.00000000000E+00  0.00000000000E+00  0.74505805969E-08  0.10566000000E+00  0.10566000000E+00 0.  1.
     999900   -1    0    0    0    0 -0.00000000000E+00 -0.00000000000E+00 -0.74505805969E-08  0.93827000000E+00  0.93827000000E+00 0. -1.
     999902    2    1    2    0    0 -0.19325185415E-01 -0.21376114923E-02 -0.12500097940E-01  0.10208154024E+01  0.10205536738E+01 0.  0.
     999903    2    3    3    0    0 -0.78835316650E-01 -0.12895874930E-01 -0.10623169367E+00  0.13377379796E+00  0.15130946423E-01 0.  0.
         14    1    1    2    0    0  0.19325185415E-01  0.21376114923E-02  0.12500097940E-01  0.23114597612E-01  0.00000000000E+00 0.  1.
     999901    1    3    3    0    0  0.59510131234E-01  0.10758263437E-01  0.93731595726E-01  0.88704160443E+00  0.88000000000E+00 0.  1.
        -11    1    4    4    0    0 -0.15274338047E-01  0.17922025427E-02 -0.14011036564E-01  0.20810758259E-01  0.51100000000E-03 0.  1.
         11    1    4    4    0    0 -0.63560978602E-01 -0.14688077472E-01 -0.92220657103E-01  0.11296303970E+00  0.51100000000E-03 0. -1.
</event>
<event>
 8    1  0.1083484E+005  0.1043930E+01  0.7957747E-01            NaN
         13   -1    0    0    0    0  0.00000000000E+00  0.00000000000E+00  0.74505805969E-08  0.10566000000E+00  0.10566000000E+00 0. -1.
     999900   -1    0    0    0    0 -0.00000000000E+00 -0.00000000000E+00 -0.74505805969E-08  0.93827000000E+00  0.93827000000E+00 0. -1.
     999902    2    1    2    0    0 -0.20276524457E-01  0.10378729812E-01  0.47031568474E-02  0.10206711273E+01  0.10204060833E+01 0.  0.
     999903    2    3    3    0    0  0.67224937628E-01 -0.65853626214E-01 -0.85282681512E-01  0.12850223682E+00  0.19590731927E-01 0.  0.
         14    1    1    2    0    0  0.20276524457E-01 -0.10378729812E-01 -0.47031568474E-02  0.23258872735E-01  0.00000000000E+00 0.  1.
     999901    1    3    3    0    0 -0.87501462085E-01  0.76232356026E-01  0.89985838359E-01  0.89216889044E+00  0.88000000000E+00 0.  1.
        -11    1    4    4    0    0  0.58289518741E-01 -0.52990328551E-01 -0.61139814742E-01  0.99719511544E-01  0.51100000000E-03 0.  1.
         11    1    4    4    0    0  0.89354188871E-02 -0.12863297663E-01 -0.24142866770E-01  0.28782725276E-01  0.51100000000E-03 0. -1.
</event>
<event>
 8    1  0.1083484E+005  0.1043930E+01  0.7957747E-01            NaN
         13   -1    0    0    0    0  0.00000000000E+00  0.00000000000E+00  0.74505805969E-08  0.10566000000E+00  0.10566000000E+00 0. -1.
     999900   -1    0    0    0    0 -0.00000000000E+00 -0.00000000000E+00 -0.74505805969E-08  0.93827000000E+00  0.93827000000E+00 0. -1.
     999902    2    1    2    0    0  0.14924990627E-01  0.62582208956E-02  0.14905823081E-01  0.10219276311E+01  0.10216907453E+01 0.  0.
     999903    2    3    3    0    0  0.80197188110E-01 -0.10328603851E+00 -0.42026043005E-02  0.13253146714E+00  0.21150252179E-01 0.  0.
         14    1    1    2    0    0 -0.14924990627E-01 -0.62582208956E-02 -0.14905823081E-01  0.22002368865E-01  0.00000000000E+00 0.  1.
     999901    1    3    3    0    0 -0.65272197484E-01  0.10954425941E+00  0.19108427381E-01  0.88939616400E+00  0.88000000000E+00 0. -1.
        -11    1    4    4    0    0  0.52767990933E-01 -0.71624529223E-01  0.67773004631E-02  0.89222906118E-01  0.51100000000E-03 0. -1.
         11    1    4    4    0    0  0.27429197177E-01 -0.31661509287E-01 -0.10979904764E-01  0.43308561021E-01  0.51100000000E-03 0.  1.
</event>
<event>
 8    1  0.1083484E+005  0.1043930E+01  0.7957747E-01            NaN
         13   -1    0    0    0    0  0.00000000000E+00  0.00000000000E+00  0.74505805969E-08  0.10566000000E+00  0.10566000000E+00 0. -1.
     999900   -1    0    0    0    0 -0.00000000000E+00 -0.00000000000E+00 -0.74505805969E-08  0.93827000000E+00  0.93827000000E+00 0.  1.
     999902    2    1    2    0    0  0.95970269420E-02 -0.20685421531E-01  0.45438959074E-02  0.10206784069E+01  0.10204135308E+01 0.  0.
     999903    2    3    3    0    0 -0.11864155985E-01  0.10233032408E+00 -0.73986419422E-01  0.12840016195E+00  0.20008945706E-01 0.  0.
         14    1    1    2    0    0 -0.95970269420E-02  0.20685421531E-01 -0.45438959074E-02  0.23251593065E-01  0.00000000000E+00 0.  1.
     999901    1    3    3    0    0  0.21461182927E-01 -0.12301574561E+00  0.78530315330E-01  0.89227824498E+00  0.88000000000E+00 0.  1.
        -11    1    4    4    0    0 -0.13102083351E-01  0.69779421882E-01 -0.59955413421E-01  0.92928709373E-01  0.51100000000E-03 0. -1.
         11    1    4    4    0    0  0.12379273659E-02  0.32550902193E-01 -0.14031006001E-01  0.35471452581E-01  0.51100000000E-03 0.  1.
</event>
<event>
 8    1  0.1083484E+005  0.1043930E+01  0.7957747E-01            NaN
         13   -1    0    0    0    0  0.00000000000E+00  0.00000000000E+00  0.74505805969E-08  0.10566000000E+00  0.10566000000E+00 0. -1.
     999900   -1    0    0    0    0 -0.00000000000E+00 -0.00000000000E+00 -0.74505805969E-08  0.93827000000E+00  0.93827000000E+00 0. -1.
     999902    2    1    2    0    0 -0.21620731912E-01  0.23040716600E-02  0.10094737845E-01  0.10199577551E+01  0.10196760042E+01 0.  0.
     999903    2    3    3    0    0  0.12076373694E+00  0.26726817915E-01 -0.23268641131E-01  0.12755486256E+00  0.20751152905E-01 0.  0.
         14    1    1    2    0    0  0.21620731912E-01 -0.23040716600E-02 -0.10094737845E-01  0.23972244926E-01  0.00000000000E+00 0.  1.
     999901    1    3    3    0    0 -0.14238446886E+00 -0.24422746255E-01  0.33363378976E-01  0.89240289251E+00  0.88000000000E+00 0. -1.
        -11    1    4    4    0    0  0.10810963356E+00  0.28149583858E-01 -0.25570524209E-01  0.11460455824E+00  0.51100000000E-03 0. -1.
         11    1    4    4    0    0  0.12654103383E-01 -0.14227659432E-02  0.23018830779E-02  0.12950304323E-01  0.51100000000E-03 0.  1.
</event>
<event>
 7    1  0.1083484E+005  0.1043930E+01  0.7957747E-01            NaN
         13   -1    0    0    0    0  0.00000000000E+00  0.00000000000E+00  0.74505805969E-08  0.10566000000E+00  0.10566000000E+00 0. -1.
     999900   -1    0    0    0    0 -0.00000000000E+00 -0.00000000000E+00 -0.74505805969E-08  0.93827000000E+00  0.93827000000E+00 0. -1.
     999902    2    1    2    0    0  0.76129916703E-02 -0.41684947866E-03 -0.21820977362E-01  0.10208153627E+01  0.10205536332E+01 0.  0.
         14    1    1    2    0    0 -0.76129916703E-02  0.41684947866E-03  0.21820977362E-01  0.23114637325E-01  0.00000000000E+00 0. -1.
     999901    1    3    3    0    0 -0.77488462423E-01  0.84560499035E-01 -0.58016483533E-01  0.88933731068E+00  0.88000000000E+00 0. -1.
        -11    1    3    3    0    0  0.77544472704E-01 -0.61569027025E-01  0.17437337497E-01  0.10053960511E+00  0.51100000000E-03 0.  1.
         11    1    3    3    0    0  0.75569813897E-02 -0.23408321488E-01  0.18758168675E-01  0.30938446885E-01  0.51100000000E-03 0. -1.
</event>
<event>
 8    1  0.1083484E+005  0.1043930E+01  0.7957747E-01            NaN
         13   -1    0    0    0    0  0.00000000000E+00  0.00000000000E+00  0.74505805969E-08  0.10566000000E+00  0.10566000000E+00 0.  1.
     999900   -1    0    0    0    0 -0.00000000000E+00 -0.00000000000E+00 -0.74505805969E-08  0.93827000000E+00  0.93827000000E+00 0.  1.
     999902    2    1    2    0    0  0.12707417146E-01 -0.77637148237E-03  0.19368384048E-01  0.10207520902E+01  0.10204889093E+01 0.  0.
     999903    2    3    3    0    0  0.15559268712E-01  0.11963203095E+00 -0.44704214636E-01  0.13024009456E+00  0.20250969195E-01 0.  0.
         14    1    1    2    0    0 -0.12707417146E-01  0.77637148237E-03 -0.19368384048E-01  0.23177909825E-01  0.00000000000E+00 0. -1.
     999901    1    3    3    0    0 -0.28518515659E-02 -0.12040840243E+00  0.64072598684E-01  0.89051199562E+00  0.88000000000E+00 0. -1.
        -11    1    4    4    0    0  0.16180494014E-01  0.54360378471E-01 -0.16015661096E-01  0.58937438487E-01  0.51100000000E-03 0.  1.
         11    1    4    4    0    0 -0.62122530203E-03  0.65271652476E-01 -0.28688553540E-01  0.71302656073E-01  0.51100000000E-03 0. -1.
</event>
<event>
 8    1  0.1083484E+005  0.1043930E+01  0.7957747E-01            NaN
         13   -1    0    0    0    0  0.00000000000E+00  0.00000000000E+00  0.74505805969E-08  0.10566000000E+00  0.10566000000E+00 0. -1.
     999900   -1    0    0    0    0 -0.00000000000E+00 -0.00000000000E+00 -0.74505805969E-08  0.93827000000E+00  0.93827000000E+00 0. -1.
     999902    2    1    2    0    0  0.48348284653E-02  0.17614587661E-01 -0.14883280222E-01  0.10203681390E+01  0.10200960630E+01 0.  0.
     999903    2    3    3    0    0 -0.47183217501E-01 -0.58522199219E-01  0.10165960199E+00  0.12790809459E+00  0.19357225276E-01 0.  0.
         14    1    1    2    0    0 -0.48348284653E-02 -0.17614587661E-01  0.14883280222E-01  0.23561861024E-01  0.00000000000E+00 0. -1.
     999901    1    3    3    0    0  0.52018045967E-01  0.76136786880E-01 -0.11654288221E+00  0.89246004438E+00  0.88000000000E+00 0. -1.
        -11    1    4    4    0    0 -0.32860619237E-01 -0.46915606030E-01  0.87823051244E-01  0.10485248608E+00  0.51100000000E-03 0.  1.
         11    1    4    4    0    0 -0.14322598264E-01 -0.11606593189E-01  0.13836550748E-01  0.23055608517E-01  0.51100000000E-03 0. -1.
</event>
<event>
 8    1  0.1083484E+005  0.1043930E+01  0.7957747E-01            NaN
         13   -1    0    0    0    0  0.00000000000E+00  0.00000000000E+00  0.74505805969E-08  0.10566000000E+00  0.10566000000E+00 0. -1.
     999900   -1    0    0    0    0 -0.00000000000E+00 -0.00000000000E+00 -0.74505805969E-08  0.93827000000E+00  0.93827000000E+00 0. -1.
     999902    2    1    2    0    0 -0.40536462309E-02 -0.85926677772E-02  0.22062316193E-01  0.10199089304E+01  0.10196260170E+01 0.  0.
     999903    2    3    3    0    0  0.11715726747E+00 -0.45789232134E-01 -0.24609064897E-01  0.12959781188E+00  0.19170489583E-01 0.  0.
         14    1    1    2    0    0  0.40536462309E-02  0.85926677772E-02 -0.22062316193E-01  0.24021069566E-01  0.00000000000E+00 0.  1.
     999901    1    3    3    0    0 -0.12121091370E+00  0.37196564356E-01  0.46671381091E-01  0.89031111855E+00  0.88000000000E+00 0.  1.
        -11    1    4    4    0    0  0.91307530985E-01 -0.43242032715E-01 -0.16409556086E-01  0.10235464454E+00  0.51100000000E-03 0. -1.
         11    1    4    4    0    0  0.25849736480E-01 -0.25471994187E-02 -0.81995088114E-02  0.27243167340E-01  0.51100000000E-03 0.  1.
</event>
<event>
 8    1  0.1083484E+005  0.1043930E+01  0.7957747E-01            NaN
         13   -1    0    0    0    0  0.00000000000E+00  0.00000000000E+00  0.74505805969E-08  0.10566000000E+00  0.10566000000E+00 0.  1.
     999900   -1    0    0    0    0 -0.00000000000E+00 -0.00000000000E+00 -0.74505805969E-08  0.93827000000E+00  0.93827000000E+00 0.  1.
     999902    2    1    2    0    0  0.24895953016E-01  0.78341444082E-03  0.54098301212E-02  0.10184410126E+01  0.10181220004E+01 0.  0.
     999903    2    3    3    0    0  0.31144336706E-01 -0.12157432242E+00  0.26086024523E-01  0.12971272847E+00  0.19865187413E-01 0.  0.
         14    1    1    2    0    0 -0.24895953016E-01 -0.78341444082E-03 -0.54098301212E-02  0.25488987362E-01  0.00000000000E+00 0. -1.
     999901    1    3    3    0    0 -0.62483836900E-02  0.12235773686E+00 -0.20676194402E-01  0.88872828417E+00  0.88000000000E+00 0.  1.
        -11    1    4    4    0    0  0.16898226218E-01 -0.80492665269E-01  0.25890623291E-01  0.86227633082E-01  0.51100000000E-03 0. -1.
         11    1    4    4    0    0  0.14246110488E-01 -0.41081657149E-01  0.19540123172E-03  0.43485095387E-01  0.51100000000E-03 0.  1.
</event>
<event>
 8    1  0.1083484E+005  0.1043930E+01  0.7957747E-01            NaN
         13   -1    0    0    0    0  0.00000000000E+00  0.00000000000E+00  0.74505805969E-08  0.10566000000E+00  0.10566000000E+00 0. -1.
     999900   -1    0    0    0    0 -0.00000000000E+00 -0.00000000000E+00 -0.74505805969E-08  0.93827000000E+00  0.93827000000E+00 0. -1.
     999902    2    1    2    0    0 -0.19340163540E-01  0.98018535911E-02  0.87315095916E-02  0.10205557082E+01  0.10202879966E+01 0.  0.
     999903    2    3    3    0    0 -0.25539066898E-01 -0.12587545878E+00  0.64034293536E-02  0.13013323570E+00  0.19919338968E-01 0.  0.
         14    1    1    2    0    0  0.19340163540E-01 -0.98018535911E-02 -0.87315095916E-02  0.23374291847E-01  0.00000000000E+00 0.  1.
     999901    1    3    3    0    0  0.61989033576E-02  0.13567731237E+00  0.23280802380E-02  0.89042247245E+00  0.88000000000E+00 0.  1.
        -11    1    4    4    0    0 -0.10476072558E-01 -0.42606171012E-01  0.11491880936E-01  0.45358112317E-01  0.51100000000E-03 0. -1.
         11    1    4    4    0    0 -0.15062994340E-01 -0.83269287768E-01 -0.50884515827E-02  0.84775123382E-01  0.51100000000E-03 0.  1.
</event>
<event>
 8    1  0.1083484E+005  0.1043930E+01  0.7957747E-01            NaN
         13   -1    0    0    0    0  0.00000000000E+00  0.00000000000E+00  0.74505805969E-08  0.10566000000E+00  0.10566000000E+00 0. -1.
     999900   -1    0    0    0    0 -0.00000000000E+00 -0.00000000000E+00 -0.74505805969E-08  0.93827000000E+00  0.93827000000E+00 0. -1.
     999902    2    1    2    0    0 -0.16099398935E-01 -0.45203204053E-02 -0.17225639146E-01  0.10199227805E+01  0.10196401972E+01 0.  0.
     999903    2    3    3    0    0  0.29366277193E-01 -0.26329574347E-01  0.12083427445E+00  0.12773260405E+00  0.12612356393E-01 0.  0.
         14    1    1    2    0    0  0.16099398935E-01  0.45203204053E-02  0.17225639146E-01  0.24007219469E-01  0.00000000000E+00 0. -1.
     999901    1    3    3    0    0 -0.45465676129E-01  0.21809253942E-01 -0.13805991360E+00  0.89219017648E+00  0.88000000000E+00 0. -1.
        -11    1    4    4    0    0  0.20416001009E-01 -0.24659617131E-01  0.87525018339E-01  0.93197638223E-01  0.51100000000E-03 0.  1.
         11    1    4    4    0    0  0.89502761849E-02 -0.16699572165E-02  0.33309256114E-01  0.34534965828E-01  0.51100000000E-03 0. -1.
</event>
<event>
 8    1  0.1083484E+005  0.1043930E+01  0.7957747E-01            NaN
         13   -1    0    0    0    0  0.00000000000E+00  0.00000000000E+00  0.74505805969E-08  0.10566000000E+00  0.10566000000E+00 0. -1.
     999900   -1    0    0    0    0 -0.00000000000E+00 -0.00000000000E+00 -0.74505805969E-08  0.93827000000E+00  0.93827000000E+00 0.  1.
     999902    2    1    2    0    0  0.18224417568E-01 -0.14683201001E-01  0.35506828724E-02  0.10202586431E+01  0.10199840027E+01 0.  0.
     999903    2    3    3    0    0 -0.70510320080E-01  0.40410217980E-01  0.98239003926E-01  0.12903756134E+00  0.19877107154E-01 0.  0.
         14    1    1    2    0    0 -0.18224417568E-01  0.14683201001E-01 -0.35506828724E-02  0.23671356873E-01  0.00000000000E+00 0.  1.
     999901    1    3    3    0    0  0.88734737649E-01 -0.55093418981E-01 -0.94688321054E-01  0.89122108179E+00  0.88000000000E+00 0.  1.
        -11    1    4    4    0    0 -0.58736164497E-01  0.24692040711E-01  0.79554226849E-01  0.10192531592E+00  0.51100000000E-03 0.  1.
         11    1    4    4    0    0 -0.11774155584E-01  0.15718177269E-01  0.18684777077E-01  0.27112245422E-01  0.51100000000E-03 0. -1.
</event>
<event>
 8    1  0.1083484E+005  0.1043930E+01  0.7957747E-01            NaN
         13   -1    0    0    0    0  0.00000000000E+00  0.00000000000E+00  0.74505805969E-08  0.10566000000E+00  0.10566000000E+00 0.  1.
     999900   -1    0    0    0    0 -0.00000000000E+00 -0.00000000000E+00 -0.74505805969E-08  0.93827000000E+00  0.93827000000E+00 0. -1.
     999902    2    1    2    0    0 -0.98383569898E-02 -0.19600412481E-01 -0.72316751991E-02  0.10208374349E+01  0.10205762107E+01 0.  0.
     999903    2    3    3    0    0 -0.59542594254E-01  0.73953017587E-02 -0.11625933925E+00  0.13230701260E+00  0.19720562901E-01 0.  0.
         14    1    1    2    0    0  0.98383569898E-02  0.19600412481E-01  0.72316751991E-02  0.23092565121E-01  0.00000000000E+00 0.  1.
     999901    1    3    3    0    0  0.49704237264E-01 -0.26995714240E-01  0.10902766405E+00  0.88853042228E+00  0.88000000000E+00 0.  1.
        -11    1    4    4    0    0 -0.23214893238E-01  0.80568306859E-02 -0.30527179150E-01  0.39192009091E-01  0.51100000000E-03 0.  1.
         11    1    4    4    0    0 -0.36327701016E-01 -0.66152892728E-03 -0.85732160101E-01  0.93115003507E-01  0.51100000000E-03 0. -1.
</event>
<event>
 8    1  0.1083484E+005  0.1043930E+01  0.7957747E-01            NaN
         13   -1    0    0    0    0  0.00000000000E+00  0.00000000000E+00  0.74505805969E-08  0.10566000000E+00  0.10566000000E+00 0.  1.
     999900   -1    0    0    0    0 -0.00000000000E+00 -0.00000000000E+00 -0.74505805969E-08  0.93827000000E+00  0.93827000000E+00 0. -1.
     999902    2    1    2    0    0  0.30279237580E-03  0.14549718051E-01  0.18486411856E-01  0.10204027094E+01  0.10201314405E+01 0.  0.
     999903    2    3    3    0    0 -0.10813844343E+00 -0.33876090877E-01  0.63389949737E-01  0.13129029341E+00  0.19425316861E-01 0.  0.
         14    1    1    2    0    0 -0.30279237580E-03 -0.14549718051E-01 -0.18486411856E-01  0.23527290577E-01  0.00000000000E+00 0. -1.
     999901    1    3    3    0    0  0.10844123581E+00  0.48425808928E-01 -0.44903537881E-01  0.88911241601E+00  0.88000000000E+00 0. -1.
        -11    1    4    4    0    0 -0.77022738511E-01 -0.14723879770E-01  0.42317890065E-01  0.89108696679E-01  0.51100000000E-03 0.  1.
         11    1    4    4    0    0 -0.31115704920E-01 -0.19152211107E-01  0.21072059673E-01  0.42181596731E-01  0.51100000000E-03 0. -1.
</event>
<event>
 8    1  0.1083484E+005  0.1043930E+01  0.7957747E-01            NaN
         13   -1    0    0    0    0  0.00000000000E+00  0.00000000000E+00  0.74505805969E-08  0.10566000000E+00  0.10566000000E+00 0.  1.
     999900   -1    0    0    0    0 -0.00000000000E+00 -0.00000000000E+00 -0.74505805969E-08  0.93827000000E+00  0.93827000000E+00 0. -1.
     999902    2    1    2    0    0  0.40607205990E-02 -0.20819131069E-01 -0.10002947787E-01  0.10204782488E+01  0.10202087392E+01 0.  0.
     999903    2    3    3    0    0 -0.59285017184E-01 -0.66978807134E-01  0.93427414430E-01  0.13096083018E+00  0.20522753381E-01 0.  0.
         14    1    1    2    0    0 -0.40607205990E-02  0.20819131069E-01  0.10002947787E-01  0.23451751207E-01  0.00000000000E+00 0. -1.
     999901    1    3    3    0    0  0.63345737783E-01  0.46159676065E-01 -0.10343036222E+00  0.88951741861E+00  0.88000000000E+00 0. -1.
        -11    1    4    4    0    0 -0.17276797943E-02 -0.11912902890E-01  0.13997818314E-01  0.18468951548E-01  0.51100000000E-03 0.  1.
         11    1    4    4    0    0 -0.57557337390E-01 -0.55065904244E-01  0.79429596116E-01  0.11249187863E+00  0.51100000000E-03 0. -1.
</event>
<event>
 8    1  0.1083484E+005  0.1043930E+01  0.7957747E-01            NaN
         13   -1    0    0    0    0  0.00000000000E+00  0.00000000000E+00  0.74505805969E-08  0.10566000000E+00  0.10566000000E+00 0. -1.
     999900   -1    0    0    0    0 -0.00000000000E+00 -0.00000000000E+00 -0.74505805969E-08  0.93827000000E+00  0.93827000000E+00 0. -1.
     999902    2    1    2    0    0 -0.13266546584E-01 -0.12901801490E-01  0.14264759017E-01  0.10205646177E+01  0.10202971125E+01 0.  0.
     999903    2    3    3    0    0  0.20108453992E-01 -0.82347397025E-02  0.12905984178E+00  0.13246913683E+00  0.20480932401E-01 0.  0.
         14    1    1    2    0    0  0.13266546584E-01  0.12901801490E-01 -0.14264759017E-01  0.23365382295E-01  0.00000000000E+00 0.  1.
     999901    1    3    3    0    0 -0.33375000576E-01 -0.46670617873E-02 -0.11479508276E+00  0.88809548088E+00  0.88000000000E+00 0. -1.
        -11    1    4    4    0    0  0.78689252786E-02  0.59522328060E-02  0.64178634912E-01  0.64934639143E-01  0.51100000000E-03 0. -1.
         11    1    4    4    0    0  0.12239528714E-01 -0.14186972508E-01  0.64881206866E-01  0.67534497685E-01  0.51100000000E-03 0.  1.
</event>
<event>
 8    1  0.1083484E+005  0.1043930E+01  0.7957747E-01            NaN
         13   -1    0    0    0    0  0.00000000000E+00  0.00000000000E+00  0.74505805969E-08  0.10566000000E+00  0.10566000000E+00 0.  1.
     999900   -1    0    0    0    0 -0.00000000000E+00 -0.00000000000E+00 -0.74505805969E-08  0.93827000000E+00  0.93827000000E+00 0.  1.
     999902    2    1    2    0    0 -0.12492519623E-01  0.23313420240E-02  0.20125340172E-01  0.10201281614E+01  0.10198504490E+01 0.  0.
     999903    2    3    3    0    0 -0.58083383480E-03 -0.63662971268E-01 -0.10946232322E+00  0.12811353142E+00  0.19436189222E-01 0.  0.
         14    1    1    2    0    0  0.12492519623E-01 -0.23313420240E-02 -0.20125340172E-01  0.23801838568E-01  0.00000000000E+00 0. -1.
     999901    1    3    3    0    0 -0.11911685788E-01  0.65994313292E-01  0.12958766339E+00  0.89201463001E+00  0.88000000000E+00 0. -1.
        -11    1    4    4    0    0 -0.33652075458E-02 -0.49913903282E-01 -0.68587069059E-01  0.84895050066E-01  0.51100000000E-03 0. -1.
         11    1    4    4    0    0  0.27843737110E-02 -0.13749067986E-01 -0.40875254158E-01  0.43218481358E-01  0.51100000000E-03 0.  1.
</event>
<event>
 8    1  0.1083484E+005  0.1043930E+01  0.7957747E-01            NaN
         13   -1    0    0    0    0  0.00000000000E+00  0.00000000000E+00  0.74505805969E-08  0.10566000000E+00  0.10566000000E+00 0.  1.
     999900   -1    0    0    0    0 -0.00000000000E+00 -0.00000000000E+00 -0.74505805969E-08  0.93827000000E+00  0.93827000000E+00 0. -1.
     999902    2    1    2    0    0  0.14131099330E-01 -0.74626195420E-02  0.19084029685E-01  0.10190386592E+01  0.10187346122E+01 0.  0.
     999903    2    3    3    0    0  0.95841598309E-01 -0.72412816057E-01  0.51672608369E-01  0.13227084902E+00  0.19907062823E-01 0.  0.
         14    1    1    2    0    0 -0.14131099330E-01  0.74626195420E-02 -0.19084029685E-01  0.24891340818E-01  0.00000000000E+00 0. -1.
     999901    1    3    3    0    0 -0.81710498979E-01  0.64950196515E-01 -0.32588578684E-01  0.88676781016E+00  0.88000000000E+00 0.  1.
        -11    1    4    4    0    0  0.49411508288E-01 -0.29455729134E-01  0.16279840011E-01  0.59786549005E-01  0.51100000000E-03 0.  1.
         11    1    4    4    0    0  0.46430090021E-01 -0.42957086924E-01  0.35392768358E-01  0.72484300020E-01  0.51100000000E-03 0. -1.
</event>
<event>
 8    1  0.1083484E+005  0.1043930E+01  0.7957747E-01            NaN
         13   -1    0    0    0    0  0.00000000000E+00  0.00000000000E+00  0.74505805969E-08  0.10566000000E+00  0.10566000000E+00 0. -1.
     999900   -1    0    0    0    0 -0.00000000000E+00 -0.00000000000E+00 -0.74505805969E-08  0.93827000000E+00  0.93827000000E+00 0. -1.
     999902    2    1    2    0    0 -0.94497308599E-02 -0.18558269224E-01 -0.12854677468E-01  0.10194565552E+01  0.10191627536E+01 0.  0.
     999903    2    3    3    0    0  0.30201837134E-01 -0.12171502387E+00  0.33620069363E-01  0.13132736130E+00  0.19745094607E-01 0.  0.
         14    1    1    2    0    0  0.94497308599E-02  0.18558269224E-01  0.12854677468E-01  0.24473444848E-01  0.00000000000E+00 0. -1.
     999901    1    3    3    0    0 -0.39651567994E-01  0.10315675465E+00 -0.46474746831E-01  0.88812919385E+00  0.88000000000E+00 0. -1.
        -11    1    4    4    0    0  0.12474807175E-01 -0.84003888186E-01  0.27111711898E-01  0.89149201272E-01  0.51100000000E-03 0.  1.
         11    1    4    4    0    0  0.17727029959E-01 -0.37711135684E-01  0.65083574652E-02  0.42178160031E-01  0.51100000000E-03 0. -1.
</event>
<event>
 8    1  0.1083484E+005  0.1043930E+01  0.7957747E-01            NaN
         13   -1    0    0    0    0  0.00000000000E+00  0.00000000000E+00  0.74505805969E-08  0.10566000000E+00  0.10566000000E+00 0. -1.
     999900   -1    0    0    0    0 -0.00000000000E+00 -0.00000000000E+00 -0.74505805969E-08  0.93827000000E+00  0.93827000000E+00 0. -1.
     999902    2    1    2    0    0 -0.17436263328E-01  0.16201034532E-01  0.36839170921E-02  0.10198453982E+01  0.10195609684E+01 0.  0.
     999903    2    3    3    0    0  0.26360189485E-01  0.96669348633E-01 -0.81801443598E-01  0.13096912686E+00  0.20533228234E-01 0.  0.
         14    1    1    2    0    0  0.17436263328E-01 -0.16201034532E-01 -0.36839170921E-02  0.24084601800E-01  0.00000000000E+00 0. -1.
     999901    1    3    3    0    0 -0.43796452813E-01 -0.80468314101E-01  0.85485360690E-01  0.88887627134E+00  0.88000000000E+00 0.  1.
        -11    1    4    4    0    0  0.14006148929E-01  0.56176635553E-01 -0.59873562423E-01  0.83289202110E-01  0.51100000000E-03 0. -1.
         11    1    4    4    0    0  0.12354040556E-01  0.40492713079E-01 -0.21927881175E-01  0.47679924753E-01  0.51100000000E-03 0.  1.
</event>
<event>
 8    1  0.1083484E+005  0.1043930E+01  0.7957747E-01            NaN
         13   -1    0    0    0    0  0.00000000000E+00  0.00000000000E+00  0.74505805969E-08  0.10566000000E+00  0.10566000000E+00 0.  1.
     999900   -1    0    0    0    0 -0.00000000000E+00 -0.00000000000E+00 -0.74505805969E-08  0.93827000000E+00  0.93827000000E+00 0.  1.
     999902    2    1    2    0    0  0.55752193952E-02  0.21167589563E-01  0.93901325350E-02  0.10201114251E+01  0.10198333174E+01 0.  0.
     999903    2    3    3    0    0 -0.78320527013E-01  0.72962178494E-01 -0.72743865387E-01  0.13080429635E+00  0.18987089027E-01 0.  0.
         14    1    1    2    0    0 -0.55752193952E-02 -0.21167589563E-01 -0.93901325350E-02  0.23818574858E-01  0.00000000000E+00 0. -1.
     999901    1    3    3    0    0  0.83895746409E-01 -0.51794588931E-01  0.82133997922E-01  0.88930712879E+00  0.88000000000E+00 0.  1.
        -11    1    4    4    0    0 -0.12565682990E-01  0.44268695573E-02 -0.12853475683E-01  0.18519355313E-01  0.51100000000E-03 0. -1.
         11    1    4    4    0    0 -0.65754844024E-01  0.68535308937E-01 -0.59890389704E-01  0.11228494104E+00  0.51100000000E-03 0.  1.
</event>
<event>
 8    1  0.1083484E+005  0.1043930E+01  0.7957747E-01            NaN
         13   -1    0    0    0    0  0.00000000000E+00  0.00000000000E+00  0.74505805969E-08  0.10566000000E+00  0.10566000000E+00 0. -1.
     999900   -1    0    0    0    0 -0.00000000000E+00 -0.00000000000E+00 -0.74505805969E-08  0.93827000000E+00  0.93827000000E+00 0. -1.
     999902    2    1    2    0    0 -0.10175872628E-01  0.21287742951E-01 -0.56145567167E-02  0.10196763481E+01  0.10193878630E+01 0.  0.
     999903    2    3    3    0    0 -0.95791389197E-01  0.53667648331E-01 -0.70694538476E-01  0.13253832108E+00  0.22638066663E-01 0.  0.
         14    1    1    2    0    0  0.10175872628E-01 -0.21287742951E-01  0.56145567167E-02  0.24253651907E-01  0.00000000000E+00 0. -1.
     999901    1    3    3    0    0  0.85615516570E-01 -0.32379905380E-01  0.65079981759E-01  0.88713802701E+00  0.88000000000E+00 0.  1.
        -11    1    4    4    0    0 -0.46950000367E-02  0.88308022020E-03 -0.97918343059E-02  0.10907061753E-01  0.51100000000E-03 0.  1.
         11    1    4    4    0    0 -0.91096389161E-01  0.52784568111E-01 -0.60902704170E-01  0.12163125932E+00  0.51100000000E-03 0. -1.
</event>
<event>
 8    1  0.1083484E+005  0.1043930E+01  0.7957747E-01            NaN
         13   -1    0    0    0    0  0.00000000000E+00  0.00000000000E+00  0.74505805969E-08  0.10566000000E+00  0.10566000000E+00 0. -1.
     999900   -1    0    0    0    0 -0.00000000000E+00 -0.00000000000E+00 -0.74505805969E-08  0.93827000000E+00  0.93827000000E+00 0. -1.
     999902    2    1    2    0    0 -0.65189466808E-02 -0.36302580401E-02 -0.22127921143E-01  0.10205779052E+01  0.10203107077E+01 0.  0.
     999903    2    3    3    0    0  0.41367392148E-01 -0.14268723141E-01 -0.12455097967E+00  0.13328045712E+00  0.18326923348E-01 0.  0.
         14    1    1    2    0    0  0.65189466808E-02  0.36302580401E-02  0.22127921143E-01  0.23352094839E-01  0.00000000000E+00 0. -1.
     999901    1    3    3    0    0 -0.47886338829E-01  0.10638465101E-01  0.10242305853E+00  0.88729744804E+00  0.88000000000E+00 0.  1.
        -11    1    4    4    0    0  0.41928321450E-01 -0.14679994124E-01 -0.10900891962E+00  0.11771445130E+00  0.51100000000E-03 0.  1.
         11    1    4    4    0    0 -0.56092930213E-03  0.41127098346E-03 -0.15542060050E-01  0.15566005817E-01  0.51100000000E-03 0. -1.
</event>
<event>
 8    1  0.1083484E+005  0.1043930E+01  0.7957747E-01            NaN
         13   -1    0    0    0    0  0.00000000000E+00  0.00000000000E+00  0.74505805969E-08  0.10566000000E+00  0.10566000000E+00 0.  1.
     999900   -1    0    0    0    0 -0.00000000000E+00 -0.00000000000E+00 -0.74505805969E-08  0.93827000000E+00  0.93827000000E+00 0.  1.
     999902    2    1    2    0    0  0.21340018468E-01  0.99971826246E-02 -0.13346387437E-01  0.10168474206E+01  0.10164866997E+01 0.  0.
     999903    2    3    3    0    0  0.10954554982E+00  0.13450157734E-02 -0.68434426263E-01  0.13068165295E+00  0.19808764922E-01 0.  0.
         14    1    1    2    0    0 -0.21340018468E-01 -0.99971826246E-02  0.13346387437E-01  0.27082579388E-01  0.00000000000E+00 0.  1.
     999901    1    3    3    0    0 -0.88205531350E-01  0.86521668512E-02  0.55088038826E-01  0.88616576766E+00  0.88000000000E+00 0. -1.
        -11    1    4    4    0    0  0.18786648452E-01 -0.39936005790E-02 -0.19735036995E-01  0.27543053786E-01  0.51100000000E-03 0.  1.
         11    1    4    4    0    0  0.90758901366E-01  0.53386163524E-02 -0.48699389268E-01  0.10313859917E+00  0.51100000000E-03 0. -1.
</event>
<event>
 8    1  0.1083484E+005  0.1043930E+01  0.7957747E-01            NaN
         13   -1    0    0    0    0  0.00000000000E+00  0.00000000000E+00  0.74505805969E-08  0.10566000000E+00  0.10566000000E+00 0.  1.
     999900   -1    0    0    0    0 -0.00000000000E+00 -0.00000000000E+00 -0.74505805969E-08  0.93827000000E+00  0.93827000000E+00 0. -1.
     999902    2    1    2    0    0  0.21374973760E-01 -0.58968096293E-03 -0.99513283465E-02  0.10203447045E+01  0.10200720807E+01 0.  0.
     999903    2    3    3    0    0  0.11009058750E+00  0.71586263653E-01 -0.41789349240E-03  0.13289289542E+00  0.20391577119E-01 0.  0.
         14    1    1    2    0    0 -0.21374973760E-01  0.58968096293E-03  0.99513283465E-02  0.23585295477E-01  0.00000000000E+00 0.  1.
     999901    1    3    3    0    0 -0.88715613742E-01 -0.72175944616E-01 -0.95334348541E-02  0.88745180910E+00  0.88000000000E+00 0. -1.
        -11    1    4    4    0    0  0.52422699435E-02  0.95594777645E-02  0.17333534812E-02  0.11051273437E-01  0.51100000000E-03 0.  1.
         11    1    4    4    0    0  0.10484831756E+00  0.62026785888E-01 -0.21512469736E-02  0.12184162198E+00  0.51100000000E-03 0. -1.
</event>
<event>
 8    1  0.1083484E+005  0.1043930E+01  0.7957747E-01            NaN
         13   -1    0    0    0    0  0.00000000000E+00  0.00000000000E+00  0.74505805969E-08  0.10566000000E+00  0.10566000000E+00 0. -1.
     999900   -1    0    0    0    0 -0.00000000000E+00 -0.00000000000E+00 -0.74505805969E-08  0.93827000000E+00  0.93827000000E+00 0.  1.
     999902    2    1    2    0    0 -0.10577685509E-03  0.23226713735E-01  0.10886888898E-02  0.10206775450E+01  0.10204126490E+01 0.  0.
     999903    2    3    3    0    0  0.93420401530E-01 -0.81808989354E-01 -0.26988450593E-01  0.12906778131E+00  0.22583922257E-01 0.  0.
         14    1    1    2    0    0  0.10577685509E-03 -0.23226713735E-01 -0.10886888898E-02  0.23252454993E-01  0.00000000000E+00 0.  1.
     999901    1    3    3    0    0 -0.93526178385E-01  0.10503570309E+00  0.28077139483E-01  0.89160976370E+00  0.88000000000E+00 0.  1.
        -11    1    4    4    0    0  0.35693890348E-01 -0.40032689907E-01 -0.24178751066E-02  0.53691501286E-01  0.51100000000E-03 0. -1.
         11    1    4    4    0    0  0.57726511182E-01 -0.41776299447E-01 -0.24570575487E-01  0.75376280019E-01  0.51100000000E-03 0.  1.
</event>
<event>
 8    1  0.1083484E+005  0.1043930E+01  0.7957747E-01            NaN
         13   -1    0    0    0    0  0.00000000000E+00  0.00000000000E+00  0.74505805969E-08  0.10566000000E+00  0.10566000000E+00 0.  1.
     999900   -1    0    0    0    0 -0.00000000000E+00 -0.00000000000E+00 -0.74505805969E-08  0.93827000000E+00  0.93827000000E+00 0.  1.
     999902    2    1    2    0    0 -0.15684675825E-01  0.14307470556E-01  0.11149974251E-01  0.10199501189E+01  0.10196681864E+01 0.  0.
     999903    2    3    3    0    0 -0.72636371683E-01 -0.49647002154E-01 -0.93103264257E-01  0.12966791202E+00  0.20116716366E-01 0.  0.
         14    1    1    2    0    0  0.15684675825E-01 -0.14307470556E-01 -0.11149974251E-01  0.23979881051E-01  0.00000000000E+00 0. -1.
     999901    1    3    3    0    0  0.56951695858E-01  0.63954472710E-01  0.10425323851E+00  0.89028220693E+00  0.88000000000E+00 0. -1.
        -11    1    4    4    0    0 -0.41787078462E-01 -0.22013349550E-01 -0.37369407725E-01  0.60228574942E-01  0.51100000000E-03 0. -1.
         11    1    4    4    0    0 -0.30849293220E-01 -0.27633652604E-01 -0.55733856532E-01  0.69439337074E-01  0.51100000000E-03 0.  1.
</event>
<event>
 8    1  0.1083484E+005  0.1043930E+01  0.7957747E-01            NaN
         13   -1    0    0    0    0  0.00000000000E+00  0.00000000000E+00  0.74505805969E-08  0.10566000000E+00  0.10566000000E+00 0. -1.
     999900   -1    0    0    0    0 -0.00000000000E+00 -0.00000000000E+00 -0.74505805969E-08  0.93827000000E+00  0.93827000000E+00 0. -1.
     999902    2    1    2    0    0  0.20392344155E-01 -0.32566298682E-02  0.22109871695E-01  0.10136760785E+01  0.10132245025E+01 0.  0.
     999903    2    3    3    0    0 -0.21240511340E-01 -0.42956547229E-01  0.11558033087E+00  0.12685811252E+00  0.20922321928E-01 0.  0.
         14    1    1    2    0    0 -0.20392344155E-01  0.32566298682E-02 -0.22109871695E-01  0.30253921475E-01  0.00000000000E+00 0.  1.
     999901    1    3    3    0    0  0.41632855495E-01  0.39699917361E-01 -0.93470459178E-01  0.88681796601E+00  0.88000000000E+00 0. -1.
        -11    1    4    4    0    0 -0.13256920448E-02 -0.24473947759E-01  0.45320682362E-01  0.51526274357E-01  0.51100000000E-03 0. -1.
         11    1    4    4    0    0 -0.19914819295E-01 -0.18482599470E-01  0.70259648511E-01  0.75331838160E-01  0.51100000000E-03 0.  1.
</event>
<event>
 7    1  0.1083484E+005  0.1043930E+01  0.7957747E-01            NaN
         13   -1    0    0    0    0  0.00000000000E+00  0.00000000000E+00  0.74505805969E-08  0.10566000000E+00  0.10566000000E+00 0.  1.
     999900   -1    0    0    0    0 -0.00000000000E+00 -0.00000000000E+00 -0.74505805969E-08  0.93827000000E+00  0.93827000000E+00 0. -1.
     999903    2    1    2    0    0  0.73441341696E-01  0.28914638209E-01 -0.64838954835E-01  0.10251467550E+00  0.86880179068E-02 0.  0.
         14    1    1    2    0    0  0.37827115258E-01  0.17388409133E-01 -0.25174093265E-01  0.48651643267E-01  0.00000000000E+00 0. -1.
     999901    1    1    2    0    0 -0.11126845695E+00 -0.46303047342E-01  0.90013048100E-01  0.89276368124E+00  0.88000000000E+00 0.  1.
        -11    1    3    3    0    0  0.36853501337E-01  0.18012001889E-01 -0.37220239051E-01  0.55391516398E-01  0.51100000000E-03 0. -1.
         11    1    3    3    0    0  0.36587840359E-01  0.10902636320E-01 -0.27618715785E-01  0.47123159098E-01  0.51100000000E-03 0.  1.
</event>
<event>
 8    1  0.1083484E+005  0.1043930E+01  0.7957747E-01            NaN
         13   -1    0    0    0    0  0.00000000000E+00  0.00000000000E+00  0.74505805969E-08  0.10566000000E+00  0.10566000000E+00 0. -1.
     999900   -1    0    0    0    0 -0.00000000000E+00 -0.00000000000E+00 -0.74505805969E-08  0.93827000000E+00  0.93827000000E+00 0. -1.
     999902    2    1    2    0    0  0.85307073600E-03 -0.23164823859E-01  0.50988006390E-02  0.10201953300E+01  0.10199192011E+01 0.  0.
     999903    2    3    3    0    0  0.96677634536E-01 -0.38053836579E-01 -0.77712240434E-01  0.13100373179E+00  0.18114246648E-01 0.  0.
         14    1    1    2    0    0 -0.85307073600E-03  0.23164823859E-01 -0.50988006390E-02  0.23734670044E-01  0.00000000000E+00 0. -1.
     999901    1    3    3    0    0 -0.95824563800E-01  0.14889012719E-01  0.82811041073E-01  0.88919159817E+00  0.88000000000E+00 0.  1.
        -11    1    4    4    0    0  0.46321486689E-01 -0.10890649324E-01 -0.42615504240E-01  0.63879798797E-01  0.51100000000E-03 0.  1.
         11    1    4    4    0    0  0.50356147847E-01 -0.27163187255E-01 -0.35096736195E-01  0.67123932992E-01  0.51100000000E-03 0. -1.
</event>
<event>
 8    1  0.1083484E+005  0.1043930E+01  0.7957747E-01            NaN
         13   -1    0    0    0    0  0.00000000000E+00  0.00000000000E+00  0.74505805969E-08  0.10566000000E+00  0.10566000000E+00 0. -1.
     999900   -1    0    0    0    0 -0.00000000000E+00 -0.00000000000E+00 -0.74505805969E-08  0.93827000000E+00  0.93827000000E+00 0.  1.
     999902    2    1    2    0    0  0.14827325890E-01 -0.72315881055E-02 -0.16952585361E-01  0.10202754949E+01  0.10200012500E+01 0.  0.
     999903    2    3    3    0    0 -0.68935270172E-01  0.86692970148E-01 -0.65028721148E-01  0.13002310938E+00  0.20236893358E-01 0.  0.
         14    1    1    2    0    0 -0.14827325890E-01  0.72315881055E-02  0.16952585361E-01  0.23654505068E-01  0.00000000000E+00 0. -1.
     999901    1    3    3    0    0  0.83762596062E-01 -0.93924558254E-01  0.48076135787E-01  0.89025238555E+00  0.88000000000E+00 0. -1.
        -11    1    4    4    0    0 -0.40448999900E-01  0.39309101530E-01 -0.24639712354E-01  0.61552445946E-01  0.51100000000E-03 0.  1.
         11    1    4    4    0    0 -0.28486270272E-01  0.47383868619E-01 -0.40389008794E-01  0.68470663438E-01  0.51100000000E-03 0. -1.
</event>
<event>
 8    1  0.1083484E+005  0.1043930E+01  0.7957747E-01            NaN
         13   -1    0    0    0    0  0.00000000000E+00  0.00000000000E+00  0.74505805969E-08  0.10566000000E+00  0.10566000000E+00 0. -1.
     999900   -1    0    0    0    0 -0.00000000000E+00 -0.00000000000E+00 -0.74505805969E-08  0.93827000000E+00  0.93827000000E+00 0. -1.
     999902    2    1    2    0    0  0.20897209025E-01 -0.10563040593E-01  0.26313163105E-02  0.10203674238E+01  0.10200953311E+01 0.  0.
     999903    2    3    3    0    0 -0.35259714124E-01 -0.15829069276E-01 -0.12245336262E+00  0.12973421760E+00  0.18502278920E-01 0.  0.
         14    1    1    2    0    0 -0.20897209025E-01  0.10563040593E-01 -0.26313163105E-02  0.23562576199E-01  0.00000000000E+00 0.  1.
     999901    1    3    3    0    0  0.56156923149E-01  0.52660286832E-02  0.12508467893E+00  0.89063320620E+00  0.88000000000E+00 0.  1.
        -11    1    4    4    0    0 -0.71961679176E-02  0.41609965394E-02 -0.26729098478E-01  0.27996509628E-01  0.51100000000E-03 0. -1.
         11    1    4    4    0    0 -0.28063546206E-01 -0.19990065816E-01 -0.95724264147E-01  0.10173770798E+00  0.51100000000E-03 0.  1.
</event>
<event>
 8    1  0.1083484E+005  0.1043930E+01  0.7957747E-01            NaN
         13   -1    0    0    0    0  0.00000000000E+00  0.00000000000E+00  0.74505805969E-08  0.10566000000E+00  0.10566000000E+00 0. -1.
     999900   -1    0    0    0    0 -0.00000000000E+00 -0.00000000000E+00 -0.74505805969E-08  0.93827000000E+00  0.93827000000E+00 0. -1.
     999902    2    1    2    0    0  0.13716568009E-01  0.19321271026E-01 -0.12203390673E-02  0.10202035384E+01  0.10199276027E+01 0.  0.
     999903    2    3    3    0    0  0.96893815482E-01 -0.84704065727E-01  0.45121835276E-02  0.13016276013E+00  0.18941860949E-01 0.  0.
         14    1    1    2    0    0 -0.13716568009E-01 -0.19321271026E-01  0.12203390673E-02  0.23726461587E-01  0.00000000000E+00 0. -1.
     999901    1    3    3    0    0 -0.83177247473E-01  0.10402533675E+00 -0.57325225949E-02  0.89004077828E+00  0.88000000000E+00 0.  1.
        -11    1    4    4    0    0  0.53408658862E-01 -0.45800923509E-01 -0.69362874015E-02  0.70700655157E-01  0.51100000000E-03 0.  1.
         11    1    4    4    0    0  0.43485156620E-01 -0.38903142218E-01  0.11448470929E-01  0.59462104977E-01  0.51100000000E-03 0. -1.
</event>
<event>
 8    1  0.1083484E+005  0.1043930E+01  0.7957747E-01            NaN
         13   -1    0    0    0    0  0.00000000000E+00  0.00000000000E+00  0.74505805969E-08  0.10566000000E+00  0.10566000000E+00 0. -1.
     999900   -1    0    0    0    0 -0.00000000000E+00 -0.00000000000E+00 -0.74505805969E-08  0.93827000000E+00  0.93827000000E+00 0.  1.
     999902    2    1    2    0    0 -0.18696454184E-01  0.24735549679E-01 -0.12130129318E-01  0.10106351828E+01  0.10100865942E+01 0.  0.
     999903    2    3    3    0    0 -0.18776610579E-01  0.10353705408E+00 -0.65475008562E-01  0.12550504564E+00  0.19800430869E-01 0.  0.
         14    1    1    2    0    0  0.18696454184E-01 -0.24735549679E-01  0.12130129318E-01  0.33294817228E-01  0.00000000000E+00 0. -1.
     999901    1    3    3    0    0  0.80156395373E-04 -0.78801504400E-01  0.53344879244E-01  0.88513013713E+00  0.88000000000E+00 0. -1.
        -11    1    4    4    0    0 -0.97177325200E-03  0.38693671387E-01 -0.32821152271E-01  0.50750701533E-01  0.51100000000E-03 0.  1.
         11    1    4    4    0    0 -0.17804837327E-01  0.64843382691E-01 -0.32653856290E-01  0.74754344106E-01  0.51100000000E-03 0. -1.
</event>
<event>
 8    1  0.1083484E+005  0.1043930E+01  0.7957747E-01            NaN
         13   -1    0    0    0    0  0.00000000000E+00  0.00000000000E+00  0.74505805969E-08  0.10566000000E+00  0.10566000000E+00 0. -1.
     999900   -1    0    0    0    0 -0.00000000000E+00 -0.00000000000E+00 -0.74505805969E-08  0.93827000000E+00  0.93827000000E+00 0.  1.
     999902    2    1    2    0    0  0.11531232088E-01  0.21425187382E-01 -0.35237038955E-02  0.10193449546E+01  0.10190484346E+01 0.  0.
     999903    2    3    3    0    0 -0.39361125610E-01 -0.10841421680E+00 -0.48389796549E-01  0.12723438454E+00  0.23325427884E-01 0.  0.
         14    1    1    2    0    0 -0.11531232088E-01 -0.21425187382E-01  0.35237038955E-02  0.24585045393E-01  0.00000000000E+00 0. -1.
     999901    1    3    3    0    0  0.50892357698E-01  0.12983940418E+00  0.44866092653E-01  0.89211057006E+00  0.88000000000E+00 0. -1.
        -11    1    4    4    0    0 -0.17491246969E-01 -0.74781918075E-01 -0.24872630317E-01  0.80729101639E-01  0.51100000000E-03 0. -1.
         11    1    4    4    0    0 -0.21869878642E-01 -0.33632298726E-01 -0.23517166231E-01  0.46505282904E-01  0.51100000000E-03 0.  1.
</event>
<event>
 8    1  0.1083484E+005  0.1043930E+01  0.7957747E-01            NaN
         13   -1    0    0    0    0  0.00000000000E+00  0.00000000000E+00  0.74505805969E-08  0.10566000000E+00  0.10566000000E+00 0.  1.
     999900   -1    0    0    0    0 -0.00000000000E+00 -0.00000000000E+00 -0.74505805969E-08  0.93827000000E+00  0.93827000000E+00 0. -1.
     999902    2    1    2    0    0  0.15170790241E-01  0.62475639164E-02 -0.17434215953E-01  0.10199897240E+01  0.10197087330E+01 0.  0.
     999903    2    3    3    0    0 -0.79936423220E-01 -0.78552987037E-01  0.59297028344E-01  0.12750767968E+00  0.13478400393E-01 0.  0.
         14    1    1    2    0    0 -0.15170790241E-01 -0.62475639164E-02  0.17434215953E-01  0.23940276049E-01  0.00000000000E+00 0.  1.
     999901    1    3    3    0    0  0.95107213461E-01  0.84800550953E-01 -0.76731244297E-01  0.89248204427E+00  0.88000000000E+00 0. -1.
        -11    1    4    4    0    0 -0.11385952538E-01 -0.92839642116E-02  0.12958034477E-01  0.19596011972E-01  0.51100000000E-03 0. -1.
         11    1    4    4    0    0 -0.68550470682E-01 -0.69269022825E-01  0.46338993867E-01  0.10791166771E+00  0.51100000000E-03 0.  1.
</event>
<event>
 8    1  0.1083484E+005  0.1043930E+01  0.7957747E-01            NaN
         13   -1    0    0    0    0  0.00000000000E+00  0.00000000000E+00  0.74505805969E-08  0.10566000000E+00  0.10566000000E+00 0. -1.
     999900   -1    0    0    0    0 -0.00000000000E+00 -0.00000000000E+00 -0.74505805969E-08  0.93827000000E+00  0.93827000000E+00 0. -1.
     999902    2    1    2    0    0  0.14818919553E-02 -0.14652189753E-01  0.17475300378E-01  0.10210767991E+01  0.10208210229E+01 0.  0.
     999903    2    3    3    0    0  0.70001191382E-01  0.53839119626E-01 -0.91849474415E-01  0.12903539858E+00  0.20371316565E-01 0.  0.
         14    1    1    2    0    0 -0.14818919553E-02  0.14652189753E-01 -0.17475300378E-01  0.22853200905E-01  0.00000000000E+00 0.  1.
     999901    1    3    3    0    0 -0.68519299427E-01 -0.68491309379E-01  0.10932477479E+00  0.89204140052E+00  0.88000000000E+00 0.  1.
        -11    1    4    4    0    0  0.91505344111E-02  0.85384931348E-02 -0.24822384634E-01  0.27803777530E-01  0.51100000000E-03 0. -1.
         11    1    4    4    0    0  0.60850656971E-01  0.45300626491E-01 -0.67027089781E-01  0.10123162105E+00  0.51100000000E-03 0.  1.
</event>
<event>
 8    1  0.1083484E+005  0.1043930E+01  0.7957747E-01            NaN
         13   -1    0    0    0    0  0.00000000000E+00  0.00000000000E+00  0.74505805969E-08  0.10566000000E+00  0.10566000000E+00 0. -1.
     999900   -1    0    0    0    0 -0.00000000000E+00 -0.00000000000E+00 -0.74505805969E-08  0.93827000000E+00  0.93827000000E+00 0. -1.
     999902    2    1    2    0    0 -0.12467075210E-01  0.13281160035E-01 -0.13585435917E-01  0.10212059765E+01  0.10209531160E+01 0.  0.
     999903    2    3    3    0    0 -0.77370496947E-02  0.87787464318E-01  0.95474693295E-01  0.13133650610E+00  0.19166636259E-01 0.  0.
         14    1    1    2    0    0  0.12467075210E-01 -0.13281160035E-01  0.13585435917E-01  0.22724023526E-01  0.00000000000E+00 0.  1.
     999901    1    3    3    0    0 -0.47300255151E-02 -0.74506304283E-01 -0.10906012921E+00  0.88986947037E+00  0.88000000000E+00 0. -1.
        -11    1    4    4    0    0 -0.61742832819E-03  0.28696645147E-01  0.44578183636E-01  0.53022205138E-01  0.51100000000E-03 0. -1.
         11    1    4    4    0    0 -0.71196213665E-02  0.59090819171E-01  0.50896509659E-01  0.78314300962E-01  0.51100000000E-03 0.  1.
</event>
<event>
 8    1  0.1083484E+005  0.1043930E+01  0.7957747E-01            NaN
         13   -1    0    0    0    0  0.00000000000E+00  0.00000000000E+00  0.74505805969E-08  0.10566000000E+00  0.10566000000E+00 0. -1.
     999900   -1    0    0    0    0 -0.00000000000E+00 -0.00000000000E+00 -0.74505805969E-08  0.93827000000E+00  0.93827000000E+00 0. -1.
     999902    2    1    2    0    0  0.16081459857E-01 -0.15339270861E-01  0.91379323049E-02  0.10199006765E+01  0.10196175663E+01 0.  0.
     999903    2    3    3    0    0  0.95669368894E-01  0.83469956832E-01 -0.22978781293E-01  0.13022153093E+00  0.17600025303E-01 0.  0.
         14    1    1    2    0    0 -0.16081459857E-01  0.15339270861E-01 -0.91379323049E-02  0.24029323513E-01  0.00000000000E+00 0.  1.
     999901    1    3    3    0    0 -0.79587909037E-01 -0.98809227693E-01  0.32116713598E-01  0.88967914555E+00  0.88000000000E+00 0. -1.
        -11    1    4    4    0    0  0.28331826872E-01  0.31369705919E-01 -0.14358151051E-01  0.44644915567E-01  0.51100000000E-03 0.  1.
         11    1    4    4    0    0  0.67337542022E-01  0.52100250913E-01 -0.86206302421E-02  0.85576615366E-01  0.51100000000E-03 0. -1.
</event>
<event>
 8    1  0.1083484E+005  0.1043930E+01  0.7957747E-01            NaN
         13   -1    0    0    0    0  0.00000000000E+00  0.00000000000E+00  0.74505805969E-08  0.10566000000E+00  0.10566000000E+00 0.  1.
     999900   -1    0    0    0    0 -0.00000000000E+00 -0.00000000000E+00 -0.74505805969E-08  0.93827000000E+00  0.93827000000E+00 0. -1.
     999902    2    1    2    0    0  0.61507854529E-02  0.22930394805E-01 -0.33601298144E-03  0.10201866205E+01  0.10199102865E+01 0.  0.
     999903    2    3    3    0    0 -0.26111370690E-01  0.12631644088E+00  0.25219202429E-01  0.13317895968E+00  0.21516974983E-01 0.  0.
         14    1    1    2    0    0 -0.61507854529E-02 -0.22930394805E-01  0.33601298144E-03  0.23743379547E-01  0.00000000000E+00 0. -1.
     999901    1    3    3    0    0  0.32262156143E-01 -0.10338604608E+00 -0.25555215411E-01  0.88700766078E+00  0.88000000000E+00 0. -1.
        -11    1    4    4    0    0  0.18253490865E-02  0.27715038147E-01  0.10235631721E-01  0.29605481190E-01  0.51100000000E-03 0.  1.
         11    1    4    4    0    0 -0.27936719777E-01  0.98601402736E-01  0.14983570708E-01  0.10357347849E+00  0.51100000000E-03 0. -1.
</event>
<event>
 8    1  0.1083484E+005  0.1043930E+01  0.7957747E-01            NaN
         13   -1    0    0    0    0  0.00000000000E+00  0.00000000000E+00  0.74505805969E-08  0.10566000000E+00  0.10566000000E+00 0.  1.
     999900   -1    0    0    0    0 -0.00000000000E+00 -0.00000000000E+00 -0.74505805969E-08  0.93827000000E+00  0.93827000000E+00 0. -1.
     999902    2    1    2    0    0 -0.19952512512E-02  0.10619621416E-01  0.20068524331E-01  0.10211373903E+01  0.10208829839E+01 0.  0.
     999903    2    3    3    0    0  0.79082056460E-01 -0.78565242804E-01 -0.61787203446E-01  0.12915766523E+00  0.20918292151E-01 0.  0.
         14    1    1    2    0    0  0.19952512512E-02 -0.10619621416E-01 -0.20068524331E-01  0.22792609666E-01  0.00000000000E+00 0. -1.
     999901    1    3    3    0    0 -0.81077307711E-01  0.89184864220E-01  0.81855727777E-01  0.89197972511E+00  0.88000000000E+00 0.  1.
        -11    1    4    4    0    0  0.72450226374E-01 -0.66568116535E-01 -0.60206706656E-01  0.11534928733E+00  0.51100000000E-03 0. -1.
         11    1    4    4    0    0  0.66318300855E-02 -0.11997126269E-01 -0.15804967906E-02  0.13808377895E-01  0.51100000000E-03 0.  1.
</event>
<event>
 8    1  0.1083484E+005  0.1043930E+01  0.7957747E-01            NaN
         13   -1    0    0    0    0  0.00000000000E+00  0.00000000000E+00  0.74505805969E-08  0.10566000000E+00  0.10566000000E+00 0. -1.
     999900   -1    0    0    0    0 -0.00000000000E+00 -0.00000000000E+00 -0.74505805969E-08  0.93827000000E+00  0.93827000000E+00 0.  1.
     999902    2    1    2    0    0 -0.48740413213E-04 -0.14065736779E-01  0.19503225261E-01  0.10198837296E+01  0.10196002151E+01 0.  0.
     999903    2    3    3    0    0 -0.74811804403E-01 -0.98587098582E-01  0.42470962663E-01  0.13238111361E+00  0.20118511063E-01 0.  0.
         14    1    1    2    0    0  0.48740413213E-04  0.14065736779E-01 -0.19503225261E-01  0.24046270446E-01  0.00000000000E+00 0.  1.
     999901    1    3    3    0    0  0.74763063990E-01  0.84521361803E-01 -0.22967737402E-01  0.88750261594E+00  0.88000000000E+00 0.  1.
        -11    1    4    4    0    0 -0.34247484396E-01 -0.61443757729E-01  0.22289344562E-01  0.73792286544E-01  0.51100000000E-03 0.  1.
         11    1    4    4    0    0 -0.40564320008E-01 -0.37143340853E-01  0.20181618101E-01  0.58588827071E-01  0.51100000000E-03 0. -1.
</event>
<event>
 8    1  0.1083484E+005  0.1043930E+01  0.7957747E-01            NaN
         13   -1    0    0    0    0  0.00000000000E+00  0.00000000000E+00  0.74505805969E-08  0.10566000000E+00  0.10566000000E+00 0. -1.
     999900   -1    0    0    0    0 -0.00000000000E+00 -0.00000000000E+00 -0.74505805969E-08  0.93827000000E+00  0.93827000000E+00 0. -1.
     999902    2    1    2    0    0  0.18179649006E-01  0.11711628239E-01 -0.10799084075E-01  0.10197580723E+01  0.10194715513E+01 0.  0.
     999903    2    3    3    0    0  0.41733108002E-01 -0.12109406929E+00 -0.99384806152E-03  0.12942764967E+00  0.18576943921E-01 0.  0.
         14    1    1    2    0    0 -0.18179649006E-01 -0.11711628239E-01  0.10799084075E-01  0.24171927744E-01  0.00000000000E+00 0. -1.
     999901    1    3    3    0    0 -0.23553458995E-01  0.13280569753E+00 -0.98052360137E-02  0.89033042258E+00  0.88000000000E+00 0. -1.
        -11    1    4    4    0    0  0.36221932927E-01 -0.78322157910E-01 -0.93863807665E-03  0.86299078831E-01  0.51100000000E-03 0. -1.
         11    1    4    4    0    0  0.55111750742E-02 -0.42771911378E-01 -0.55209984868E-04  0.43128570840E-01  0.51100000000E-03 0.  1.
</event>
<event>
 8    1  0.1083484E+005  0.1043930E+01  0.7957747E-01            NaN
         13   -1    0    0    0    0  0.00000000000E+00  0.00000000000E+00  0.74505805969E-08  0.10566000000E+00  0.10566000000E+00 0. -1.
     999900   -1    0    0    0    0 -0.00000000000E+00 -0.00000000000E+00 -0.74505805969E-08  0.93827000000E+00  0.93827000000E+00 0. -1.
     999902    2    1    2    0    0  0.13095754676E-02  0.18912864050E-01  0.14598978486E-01  0.10200021587E+01  0.10197214631E+01 0.  0.
     999903    2    3    3    0    0 -0.49308932860E-01  0.10579990954E+00  0.60707026506E-01  0.13307626322E+00  0.19973909132E-01 0.  0.
         14    1    1    2    0    0 -0.13095754676E-02 -0.18912864050E-01 -0.14598978486E-01  0.23927841259E-01  0.00000000000E+00 0.  1.
     999901    1    3    3    0    0  0.50618508328E-01 -0.86887045490E-01 -0.46108048020E-01  0.88692589552E+00  0.88000000000E+00 0. -1.
        -11    1    4    4    0    0 -0.94710681070E-02  0.42650483695E-01  0.24518268881E-01  0.50101611955E-01  0.51100000000E-03 0. -1.
         11    1    4    4    0    0 -0.39837864753E-01  0.63149425845E-01  0.36188757625E-01  0.82974651262E-01  0.51100000000E-03 0.  1.
</event>
<event>
 8    1  0.1083484E+005  0.1043930E+01  0.7957747E-01            NaN
         13   -1    0    0    0    0  0.00000000000E+00  0.00000000000E+00  0.74505805969E-08  0.10566000000E+00  0.10566000000E+00 0. -1.
     999900   -1    0    0    0    0 -0.00000000000E+00 -0.00000000000E+00 -0.74505805969E-08  0.93827000000E+00  0.93827000000E+00 0.  1.
     999902    2    1    2    0    0  0.15310441102E-01 -0.16929276445E-01 -0.76907452139E-03  0.10210914036E+01  0.10208359580E+01 0.  0.
     999903    2    3    3    0    0  0.20249732407E-01  0.10474947865E+00 -0.71328822374E-01  0.12990747535E+00  0.20140663088E-01 0.  0.
         14    1    1    2    0    0 -0.15310441102E-01  0.16929276445E-01  0.76907452139E-03  0.22838596352E-01  0.00000000000E+00 0. -1.
     999901    1    3    3    0    0 -0.49392913056E-02 -0.12167875510E+00  0.70559747852E-01  0.89118392830E+00  0.88000000000E+00 0. -1.
        -11    1    4    4    0    0  0.73066237492E-02  0.30558363015E-01 -0.10611929952E-01  0.33167370699E-01  0.51100000000E-03 0.  1.
         11    1    4    4    0    0  0.12943108658E-01  0.74191115639E-01 -0.60716892422E-01  0.96740104651E-01  0.51100000000E-03 0. -1.
</event>
<event>
 8    1  0.1085794E+005  0.1043930E+01  0.7957747E-01            NaN
         13   -1    0    0    0    0  0.00000000000E+00  0.00000000000E+00  0.74505805969E-08  0.10566000000E+00  0.10566000000E+00 0. -1.
     999900   -1    0    0    0    0 -0.00000000000E+00 -0.00000000000E+00 -0.74505805969E-08  0.93827000000E+00  0.93827000000E+00 0. -1.
     999902    2    1    2    0    0  0.21664721303E-01  0.96253208110E-02 -0.66457718697E-02  0.10193094144E+01  0.10190120260E+01 0.  0.
     999903    2    3    3    0    0 -0.12378316881E+00  0.55136401996E-02  0.17822248586E-01  0.12702544692E+00  0.21567533783E-01 0.  0.
         14    1    1    2    0    0 -0.21664721303E-01 -0.96253208110E-02  0.66457718697E-02  0.24620585565E-01  0.00000000000E+00 0. -1.
     999901    1    3    3    0    0  0.14544789011E+00  0.41116806114E-02 -0.24468020456E-01  0.89228396751E+00  0.88000000000E+00 0.  1.
        -11    1    4    4    0    0 -0.53294608558E-01 -0.82298912490E-02  0.88337337396E-02  0.54647437123E-01  0.51100000000E-03 0.  1.
         11    1    4    4    0    0 -0.70488560247E-01  0.13743531449E-01  0.89885148464E-02  0.72378009800E-01  0.51100000000E-03 0. -1.
</event>
<event>
 8    1  0.1083484E+005  0.1043930E+01  0.7957747E-01            NaN
         13   -1    0    0    0    0  0.00000000000E+00  0.00000000000E+00  0.74505805969E-08  0.10566000000E+00  0.10566000000E+00 0.  1.
     999900   -1    0    0    0    0 -0.00000000000E+00 -0.00000000000E+00 -0.74505805969E-08  0.93827000000E+00  0.93827000000E+00 0. -1.
     999902    2    1    2    0    0  0.14017461325E-01  0.59249952794E-02  0.18638456674E-01  0.10198678542E+01  0.10195839609E+01 0.  0.
     999903    2    3    3    0    0 -0.57394429123E-01  0.70346766418E-01  0.93226690092E-01  0.13149111701E+00  0.18865578921E-01 0.  0.
         14    1    1    2    0    0 -0.14017461325E-01 -0.59249952794E-02 -0.18638456674E-01  0.24062145753E-01  0.00000000000E+00 0. -1.
     999901    1    3    3    0    0  0.71411890449E-01 -0.64421771138E-01 -0.74588233418E-01  0.88837673723E+00  0.88000000000E+00 0. -1.
        -11    1    4    4    0    0 -0.96088252214E-02  0.19974425841E-01  0.31922348436E-01  0.38866497919E-01  0.51100000000E-03 0.  1.
         11    1    4    4    0    0 -0.47785603902E-01  0.50372340577E-01  0.61304341655E-01  0.92624619094E-01  0.51100000000E-03 0. -1.
</event>
<event>
 8    1  0.1083484E+005  0.1043930E+01  0.7957747E-01            NaN
         13   -1    0    0    0    0  0.00000000000E+00  0.00000000000E+00  0.74505805969E-08  0.10566000000E+00  0.10566000000E+00 0. -1.
     999900   -1    0    0    0    0 -0.00000000000E+00 -0.00000000000E+00 -0.74505805969E-08  0.93827000000E+00  0.93827000000E+00 0.  1.
     999902    2    1    2    0    0 -0.29840751384E-02 -0.18278949883E-02 -0.19473545842E-01  0.10241445283E+01  0.10239533924E+01 0.  0.
     999903    2    3    3    0    0  0.10943105810E+00 -0.69267977197E-01 -0.29462200942E-01  0.13437764862E+00  0.20399069132E-01 0.  0.
         14    1    1    2    0    0  0.29840751384E-02  0.18278949883E-02  0.19473545842E-01  0.19785471745E-01  0.00000000000E+00 0. -1.
     999901    1    3    3    0    0 -0.11241513324E+00  0.67440082208E-01  0.99886551001E-02  0.88976687964E+00  0.88000000000E+00 0.  1.
        -11    1    4    4    0    0  0.28690763289E-01 -0.12653388887E-01 -0.14809959335E-01  0.34682332172E-01  0.51100000000E-03 0.  1.
         11    1    4    4    0    0  0.80740294813E-01 -0.56614588310E-01 -0.14652241607E-01  0.99695316445E-01  0.51100000000E-03 0. -1.
</event>
<event>
 8    1  0.1083484E+005  0.1043930E+01  0.7957747E-01            NaN
         13   -1    0    0    0    0  0.00000000000E+00  0.00000000000E+00  0.74505805969E-08  0.10566000000E+00  0.10566000000E+00 0. -1.
     999900   -1    0    0    0    0 -0.00000000000E+00 -0.00000000000E+00 -0.74505805969E-08  0.93827000000E+00  0.93827000000E+00 0.  1.
     999902    2    1    2    0    0  0.78944766951E-02 -0.19573359720E-01  0.11607390650E-01  0.10198432673E+01  0.10195587865E+01 0.  0.
     999903    2    3    3    0    0  0.38715242840E-01 -0.12535763985E+00 -0.42514476187E-02  0.13283045102E+00  0.20308766952E-01 0.  0.
         14    1    1    2    0    0 -0.78944766951E-02  0.19573359720E-01 -0.11607390650E-01  0.24086732670E-01  0.00000000000E+00 0.  1.
     999901    1    3    3    0    0 -0.30820766145E-01  0.10578428013E+00  0.15858838269E-01  0.88701281631E+00  0.88000000000E+00 0.  1.
        -11    1    4    4    0    0  0.19831706871E-01 -0.67429954933E-01 -0.12350584283E-01  0.71364511298E-01  0.51100000000E-03 0. -1.
         11    1    4    4    0    0  0.18883535969E-01 -0.57927684914E-01  0.80991366640E-02  0.61465939722E-01  0.51100000000E-03 0.  1.
</event>
<event>
 8    1  0.1083484E+005  0.1043930E+01  0.7957747E-01            NaN
         13   -1    0    0    0    0  0.00000000000E+00  0.00000000000E+00  0.74505805969E-08  0.10566000000E+00  0.10566000000E+00 0.  1.
     999900   -1    0    0    0    0 -0.00000000000E+00 -0.00000000000E+00 -0.74505805969E-08  0.93827000000E+00  0.93827000000E+00 0.  1.
     999902    2    1    2    0    0  0.17877329474E-01 -0.35663142665E-02 -0.16737349253E-01  0.10191821442E+01  0.10188816353E+01 0.  0.
     999903    2    3    3    0    0 -0.53729715268E-01 -0.11544164506E+00  0.47216781360E-02  0.12895512352E+00  0.19836177090E-01 0.  0.
         14    1    1    2    0    0 -0.17877329474E-01  0.35663142665E-02  0.16737349253E-01  0.24747855798E-01  0.00000000000E+00 0.  1.
     999901    1    3    3    0    0  0.71607044742E-01  0.11187533079E+00 -0.21459027389E-01  0.89022702068E+00  0.88000000000E+00 0.  1.
        -11    1    4    4    0    0 -0.19307865241E-01 -0.51474048701E-01  0.10905285859E-01  0.56049600628E-01  0.51100000000E-03 0.  1.
         11    1    4    4    0    0 -0.34421850026E-01 -0.63967596355E-01 -0.61836077228E-02  0.72905522892E-01  0.51100000000E-03 0. -1.
</event>
<event>
 8    1  0.1083484E+005  0.1043930E+01  0.7957747E-01            NaN
         13   -1    0    0    0    0  0.00000000000E+00  0.00000000000E+00  0.74505805969E-08  0.10566000000E+00  0.10566000000E+00 0.  1.
     999900   -1    0    0    0    0 -0.00000000000E+00 -0.00000000000E+00 -0.74505805969E-08  0.93827000000E+00  0.93827000000E+00 0.  1.
     999902    2    1    2    0    0  0.78073746460E-02 -0.21035771448E-01  0.48762670723E-02  0.10209683633E+01  0.10207101264E+01 0.  0.
     999903    2    3    3    0    0  0.11402906134E-01  0.84910069524E-01  0.95902399712E-01  0.12994467906E+00  0.18670917742E-01 0.  0.
         14    1    1    2    0    0 -0.78073746460E-02  0.21035771448E-01 -0.48762670723E-02  0.22961636697E-01  0.00000000000E+00 0.  1.
     999901    1    3    3    0    0 -0.35955314877E-02 -0.10594584097E+00 -0.91026132640E-01  0.89102368425E+00  0.88000000000E+00 0.  1.
        -11    1    4    4    0    0  0.12484897561E-01  0.28045733919E-01  0.36658376459E-01  0.47817711611E-01  0.51100000000E-03 0.  1.
         11    1    4    4    0    0 -0.10819914274E-02  0.56864335606E-01  0.59244023254E-01  0.82126967444E-01  0.51100000000E-03 0. -1.
</event>
<event>
 8    1  0.1083484E+005  0.1043930E+01  0.7957747E-01            NaN
         13   -1    0    0    0    0  0.00000000000E+00  0.00000000000E+00  0.74505805969E-08  0.10566000000E+00  0.10566000000E+00 0. -1.
     999900   -1    0    0    0    0 -0.00000000000E+00 -0.00000000000E+00 -0.74505805969E-08  0.93827000000E+00  0.93827000000E+00 0. -1.
     999902    2    1    2    0    0 -0.35250443202E-02  0.20310155147E-01 -0.84048215161E-02  0.10216686127E+01  0.10214260545E+01 0.  0.
     999903    2    3    3    0    0  0.51648067142E-01 -0.37169890768E-01  0.11155644274E+00  0.12996309359E+00  0.19910855281E-01 0.  0.
         14    1    1    2    0    0  0.35250443202E-02 -0.20310155147E-01  0.84048215161E-02  0.22261387294E-01  0.00000000000E+00 0.  1.
     999901    1    3    3    0    0 -0.55173111462E-01  0.57480045915E-01 -0.11996126426E+00  0.89170551912E+00  0.88000000000E+00 0. -1.
        -11    1    4    4    0    0  0.39527099897E-01 -0.27375399776E-01  0.64910253552E-01  0.80779986856E-01  0.51100000000E-03 0. -1.
         11    1    4    4    0    0  0.12120967245E-01 -0.97944909911E-02  0.46646189189E-01  0.49183106730E-01  0.51100000000E-03 0.  1.
</event>
<event>
 8    1  0.1083484E+005  0.1043930E+01  0.7957747E-01            NaN
         13   -1    0    0    0    0  0.00000000000E+00  0.00000000000E+00  0.74505805969E-08  0.10566000000E+00  0.10566000000E+00 0. -1.
     999900   -1    0    0    0    0 -0.00000000000E+00 -0.00000000000E+00 -0.74505805969E-08  0.93827000000E+00  0.93827000000E+00 0. -1.
     999902    2    1    2    0    0  0.24097819139E-01 -0.57807444263E-03  0.32568454656E-02  0.10196062236E+01  0.10193160477E+01 0.  0.
     999903    2    3    3    0    0  0.34913608997E-01  0.18299793219E-01  0.12353227151E+00  0.13115840107E+00  0.19709427753E-01 0.  0.
         14    1    1    2    0    0 -0.24097819139E-01  0.57807444263E-03 -0.32568454656E-02  0.24323776427E-01  0.00000000000E+00 0.  1.
     999901    1    3    3    0    0 -0.10815789858E-01 -0.18877867661E-01 -0.12027542604E+00  0.88844782250E+00  0.88000000000E+00 0. -1.
        -11    1    4    4    0    0  0.29132710626E-01  0.19812991767E-01  0.82777339803E-01  0.89964540665E-01  0.51100000000E-03 0.  1.
         11    1    4    4    0    0  0.57808983707E-02 -0.15131985481E-02  0.40754931706E-01  0.41193860406E-01  0.51100000000E-03 0. -1.
</event>
<event>
 8    1  0.1083484E+005  0.1043930E+01  0.7957747E-01            NaN
         13   -1    0    0    0    0  0.00000000000E+00  0.00000000000E+00  0.74505805969E-08  0.10566000000E+00  0.10566000000E+00 0. -1.
     999900   -1    0    0    0    0 -0.00000000000E+00 -0.00000000000E+00 -0.74505805969E-08  0.93827000000E+00  0.93827000000E+00 0.  1.
     999902    2    1    2    0    0 -0.13613519993E-01  0.88038484056E-02  0.22658355899E-01  0.10160689741E+01  0.10156869219E+01 0.  0.
     999903    2    3    3    0    0  0.61017605366E-01  0.53191997322E-01 -0.92362570885E-01  0.12434596426E+00  0.19456042358E-01 0.  0.
         14    1    1    2    0    0  0.13613519993E-01 -0.88038484056E-02 -0.22658355899E-01  0.27861025921E-01  0.00000000000E+00 0.  1.
     999901    1    3    3    0    0 -0.74631125359E-01 -0.44388148916E-01  0.11502092678E+00  0.89172300982E+00  0.88000000000E+00 0.  1.
        -11    1    4    4    0    0  0.16020756770E-01  0.15853507603E-01 -0.39694674467E-01  0.45650045486E-01  0.51100000000E-03 0. -1.
         11    1    4    4    0    0  0.44996848596E-01  0.37338489719E-01 -0.52667896418E-01  0.78695918777E-01  0.51100000000E-03 0.  1.
</event>
<event>
 8    1  0.1083484E+005  0.1043930E+01  0.7957747E-01            NaN
         13   -1    0    0    0    0  0.00000000000E+00  0.00000000000E+00  0.74505805969E-08  0.10566000000E+00  0.10566000000E+00 0.  1.
     999900   -1    0    0    0    0 -0.00000000000E+00 -0.00000000000E+00 -0.74505805969E-08  0.93827000000E+00  0.93827000000E+00 0.  1.
     999902    2    1    2    0    0 -0.38471854646E-02  0.22761112503E-01 -0.53043645267E-02  0.10202444483E+01  0.10199694745E+01 0.  0.
     999903    2    3    3    0    0  0.11472473457E+00  0.56042567855E-01  0.22758866427E-01  0.13122560682E+00  0.19991491999E-01 0.  0.
         14    1    1    2    0    0  0.38471854646E-02 -0.22761112503E-01  0.53043645267E-02  0.23685551744E-01  0.00000000000E+00 0.  1.
     999901    1    3    3    0    0 -0.11857192003E+00 -0.33281455352E-01 -0.28063230954E-01  0.88901884143E+00  0.88000000000E+00 0. -1.
        -11    1    4    4    0    0  0.79553797397E-01  0.36448504246E-01  0.63208688875E-02  0.87735481116E-01  0.51100000000E-03 0. -1.
         11    1    4    4    0    0  0.35170937168E-01  0.19594063609E-01  0.16437997540E-01  0.43490125708E-01  0.51100000000E-03 0.  1.
</event>
<event>
 8    1  0.1083484E+005  0.1043930E+01  0.7957747E-01            NaN
         13   -1    0    0    0    0  0.00000000000E+00  0.00000000000E+00  0.74505805969E-08  0.10566000000E+00  0.10566000000E+00 0.  1.
     999900   -1    0    0    0    0 -0.00000000000E+00 -0.00000000000E+00 -0.74505805969E-08  0.93827000000E+00  0.93827000000E+00 0. -1.
     999902    2    1    2    0    0 -0.54607854363E-02 -0.15974962958E-01  0.17729601376E-01  0.10194482030E+01  0.10191541985E+01 0.  0.
     999903    2    3    3    0    0  0.26792974644E-01 -0.10171640878E+00  0.77770727874E-01  0.13265801506E+00  0.22040225512E-01 0.  0.
         14    1    1    2    0    0  0.54607854363E-02  0.15974962958E-01 -0.17729601376E-01  0.24481796994E-01  0.00000000000E+00 0. -1.
     999901    1    3    3    0    0 -0.32253760080E-01  0.85741445817E-01 -0.60041126498E-01  0.88679018795E+00  0.88000000000E+00 0. -1.
        -11    1    4    4    0    0  0.14825195453E-01 -0.62055285188E-01  0.33646981382E-01  0.72131999259E-01  0.51100000000E-03 0. -1.
         11    1    4    4    0    0  0.11967779190E-01 -0.39661123587E-01  0.44123746493E-01  0.60526015799E-01  0.51100000000E-03 0.  1.
</event>
<event>
 8    1  0.1083484E+005  0.1043930E+01  0.7957747E-01            NaN
         13   -1    0    0    0    0  0.00000000000E+00  0.00000000000E+00  0.74505805969E-08  0.10566000000E+00  0.10566000000E+00 0. -1.
     999900   -1    0    0    0    0 -0.00000000000E+00 -0.00000000000E+00 -0.74505805969E-08  0.93827000000E+00  0.93827000000E+00 0.  1.
     999902    2    1    2    0    0  0.18022093473E-02  0.13356268706E-01 -0.19725031206E-01  0.10200403636E+01  0.10197605742E+01 0.  0.
     999903    2    3    3    0    0 -0.11020250402E+00  0.67705023105E-01  0.40123182610E-02  0.13096089318E+00  0.20151793960E-01 0.  0.
         14    1    1    2    0    0 -0.18022093473E-02 -0.13356268706E-01  0.19725031206E-01  0.23889636421E-01  0.00000000000E+00 0. -1.
     999901    1    3    3    0    0  0.11200471337E+00 -0.54348754399E-01 -0.23737349467E-01  0.88907947040E+00  0.88000000000E+00 0. -1.
        -11    1    4    4    0    0 -0.70400974637E-01  0.31700239445E-01  0.33777304713E-02  0.77284361904E-01  0.51100000000E-03 0. -1.
         11    1    4    4    0    0 -0.39801529381E-01  0.36004783659E-01  0.63458778968E-03  0.53676531278E-01  0.51100000000E-03 0.  1.
</event>
<event>
 7    1  0.1846216E+005  0.1043930E+01  0.7957747E-01            NaN
         13   -1    0    0    0    0  0.00000000000E+00  0.00000000000E+00  0.74505805969E-08  0.10566000000E+00  0.10566000000E+00 0. -1.
     999900   -1    0    0    0    0 -0.00000000000E+00 -0.00000000000E+00 -0.74505805969E-08  0.93827000000E+00  0.93827000000E+00 0.  1.
     999903    2    1    2    0    0 -0.43312588914E-01 -0.62393872348E-01 -0.72408442429E-01  0.10663332723E+00  0.18939595437E-01 0.  0.
         14    1    1    2    0    0 -0.36250180785E-01 -0.17113745211E-01  0.28246256797E-01  0.49038830584E-01  0.00000000000E+00 0. -1.
     999901    1    1    2    0    0  0.79562769699E-01  0.79507617558E-01  0.44162185632E-01  0.88825784219E+00  0.88000000000E+00 0. -1.
        -11    1    3    3    0    0 -0.26639760252E-01 -0.27077450204E-01 -0.26290935973E-01  0.46198913095E-01  0.51100000000E-03 0.  1.
         11    1    3    3    0    0 -0.16672828662E-01 -0.35316422143E-01 -0.46117506456E-01  0.60434414130E-01  0.51100000000E-03 0. -1.
</event>
<event>
 8    1  0.1083484E+005  0.1043930E+01  0.7957747E-01            NaN
         13   -1    0    0    0    0  0.00000000000E+00  0.00000000000E+00  0.74505805969E-08  0.10566000000E+00  0.10566000000E+00 0.  1.
     999900   -1    0    0    0    0 -0.00000000000E+00 -0.00000000000E+00 -0.74505805969E-08  0.93827000000E+00  0.93827000000E+00 0. -1.
     999902    2    1    2    0    0  0.18084634261E-01 -0.70290112799E-02  0.15822984086E-01  0.10188934703E+01  0.10185858216E+01 0.  0.
     999903    2    3    3    0    0  0.55530914272E-01  0.11291001840E+00 -0.21352380704E-01  0.12919149630E+00  0.20054023541E-01 0.  0.
         14    1    1    2    0    0 -0.18084634261E-01  0.70290112799E-02 -0.15822984086E-01  0.25036529738E-01  0.00000000000E+00 0.  1.
     999901    1    3    3    0    0 -0.37446280011E-01 -0.11993902968E+00  0.37175364790E-01  0.88970197396E+00  0.88000000000E+00 0.  1.
        -11    1    4    4    0    0  0.12160533743E-01  0.46466969200E-01 -0.94845295097E-02  0.48961977376E-01  0.51100000000E-03 0. -1.
         11    1    4    4    0    0  0.43370380528E-01  0.66443049197E-01 -0.11867851194E-01  0.80229518923E-01  0.51100000000E-03 0.  1.
</event>
<event>
 8    1  0.1083484E+005  0.1043930E+01  0.7957747E-01            NaN
         13   -1    0    0    0    0  0.00000000000E+00  0.00000000000E+00  0.74505805969E-08  0.10566000000E+00  0.10566000000E+00 0. -1.
     999900   -1    0    0    0    0 -0.00000000000E+00 -0.00000000000E+00 -0.74505805969E-08  0.93827000000E+00  0.93827000000E+00 0. -1.
     999902    2    1    2    0    0 -0.14345243641E-01 -0.12385227294E-01 -0.12481817397E-01  0.10212369254E+01  0.10209847610E+01 0.  0.
     999903    2    3    3    0    0  0.92058513874E-01  0.28372230057E-01 -0.86213890152E-01  0.13083288872E+00  0.20116075680E-01 0.  0.
         14    1    1    2    0    0  0.14345243641E-01  0.12385227294E-01  0.12481817397E-01  0.22693074622E-01  0.00000000000E+00 0.  1.
     999901    1    3    3    0    0 -0.10640375752E+00 -0.40757457351E-01  0.73732072755E-01  0.89040403666E+00  0.88000000000E+00 0.  1.
        -11    1    4    4    0    0  0.75674276345E-01  0.22458228227E-01 -0.59136168231E-01  0.98632224093E-01  0.51100000000E-03 0.  1.
         11    1    4    4    0    0  0.16384237529E-01  0.59140018305E-02 -0.27077721921E-01  0.32200664628E-01  0.51100000000E-03 0. -1.
</event>
<event>
 8    1  0.1083484E+005  0.1043930E+01  0.7957747E-01            NaN
         13   -1    0    0    0    0  0.00000000000E+00  0.00000000000E+00  0.74505805969E-08  0.10566000000E+00  0.10566000000E+00 0.  1.
     999900   -1    0    0    0    0 -0.00000000000E+00 -0.00000000000E+00 -0.74505805969E-08  0.93827000000E+00  0.93827000000E+00 0.  1.
     999902    2    1    2    0    0  0.10878378404E-01 -0.10774776106E-01 -0.22869065921E-01  0.10164085703E+01  0.10160359013E+01 0.  0.
     999903    2    3    3    0    0  0.96571397008E-01 -0.53472922991E-01 -0.66896776993E-01  0.13012144722E+00  0.16462807843E-01 0.  0.
         14    1    1    2    0    0 -0.10878378404E-01  0.10774776106E-01  0.22869065921E-01  0.27521429703E-01  0.00000000000E+00 0. -1.
     999901    1    3    3    0    0 -0.85693018604E-01  0.42698146886E-01  0.44027711072E-01  0.88628712307E+00  0.88000000000E+00 0. -1.
        -11    1    4    4    0    0  0.37110665650E-01 -0.29635910053E-01 -0.26545039321E-01  0.54409456010E-01  0.51100000000E-03 0. -1.
         11    1    4    4    0    0  0.59460731357E-01 -0.23837012938E-01 -0.40351737671E-01  0.75711991213E-01  0.51100000000E-03 0.  1.
</event>
<event>
 8    1  0.1083484E+005  0.1043930E+01  0.7957747E-01            NaN
         13   -1    0    0    0    0  0.00000000000E+00  0.00000000000E+00  0.74505805969E-08  0.10566000000E+00  0.10566000000E+00 0.  1.
     999900   -1    0    0    0    0 -0.00000000000E+00 -0.00000000000E+00 -0.74505805969E-08  0.93827000000E+00  0.93827000000E+00 0. -1.
     999902    2    1    2    0    0 -0.17195736705E-01 -0.15592408127E-01  0.12910741645E-02  0.10206817006E+01  0.10204169004E+01 0.  0.
     999903    2    3    3    0    0  0.11916716936E+00 -0.27108312382E-02  0.44871689491E-01  0.12902030344E+00  0.20606002117E-01 0.  0.
         14    1    1    2    0    0  0.17195736705E-01  0.15592408127E-01 -0.12910741645E-02  0.23248299390E-01  0.00000000000E+00 0. -1.
     999901    1    3    3    0    0 -0.13636290606E+00 -0.12881576889E-01 -0.43580615327E-01  0.89166139717E+00  0.88000000000E+00 0.  1.
        -11    1    4    4    0    0  0.21714615186E-01  0.74906614163E-02  0.81322741505E-02  0.24372720919E-01  0.51100000000E-03 0. -1.
         11    1    4    4    0    0  0.97452554171E-01 -0.10201492655E-01  0.36739415341E-01  0.10464758252E+00  0.51100000000E-03 0.  1.
</event>
<event>
 8    1  0.1083484E+005  0.1043930E+01  0.7957747E-01            NaN
         13   -1    0    0    0    0  0.00000000000E+00  0.00000000000E+00  0.74505805969E-08  0.10566000000E+00  0.10566000000E+00 0. -1.
     999900   -1    0    0    0    0 -0.00000000000E+00 -0.00000000000E+00 -0.74505805969E-08  0.93827000000E+00  0.93827000000E+00 0.  1.
     999902    2    1    2    0    0  0.13717339548E-01 -0.20728567843E-01  0.12305116822E-02  0.10190431945E+01  0.10187392597E+01 0.  0.
     999903    2    3    3    0    0  0.10877429323E+00  0.51061446055E-01  0.45355891490E-01  0.12992189811E+00  0.19581230164E-01 0.  0.
         14    1    1    2    0    0 -0.13717339548E-01  0.20728567843E-01 -0.12305116822E-02  0.24886805502E-01  0.00000000000E+00 0.  1.
     999901    1    3    3    0    0 -0.95056953686E-01 -0.71790013899E-01 -0.44125379808E-01  0.88912129638E+00  0.88000000000E+00 0.  1.
        -11    1    4    4    0    0  0.61915032591E-01  0.19734521810E-01  0.19074587167E-01  0.67727569042E-01  0.51100000000E-03 0. -1.
         11    1    4    4    0    0  0.46859260644E-01  0.31326924245E-01  0.26281304323E-01  0.62194329072E-01  0.51100000000E-03 0.  1.
</event>
<event>
 8    1  0.1083484E+005  0.1043930E+01  0.7957747E-01            NaN
         13   -1    0    0    0    0  0.00000000000E+00  0.00000000000E+00  0.74505805969E-08  0.10566000000E+00  0.10566000000E+00 0. -1.
     999900   -1    0    0    0    0 -0.00000000000E+00 -0.00000000000E+00 -0.74505805969E-08  0.93827000000E+00  0.93827000000E+00 0. -1.
     999902    2    1    2    0    0 -0.18573214754E-01 -0.85937910774E-03 -0.13668598390E-01  0.10208533143E+01  0.10205924534E+01 0.  0.
     999903    2    3    3    0    0 -0.21251901823E-01 -0.48024667083E-01 -0.12039789611E+00  0.13314678472E+00  0.21780746385E-01 0.  0.
         14    1    1    2    0    0  0.18573214754E-01  0.85937910774E-03  0.13668598390E-01  0.23076685652E-01  0.00000000000E+00 0. -1.
     999901    1    3    3    0    0  0.26786870690E-02  0.47165287975E-01  0.10672929772E+00  0.88770652963E+00  0.88000000000E+00 0.  1.
        -11    1    4    4    0    0  0.37603813182E-02 -0.51680483894E-02 -0.22416821899E-01  0.23315750403E-01  0.51100000000E-03 0. -1.
         11    1    4    4    0    0 -0.25012283141E-01 -0.42856618693E-01 -0.97981074213E-01  0.10983103432E+00  0.51100000000E-03 0.  1.
</event>
<event>
 8    1  0.1083484E+005  0.1043930E+01  0.7957747E-01            NaN
         13   -1    0    0    0    0  0.00000000000E+00  0.00000000000E+00  0.74505805969E-08  0.10566000000E+00  0.10566000000E+00 0. -1.
     999900   -1    0    0    0    0 -0.00000000000E+00 -0.00000000000E+00 -0.74505805969E-08  0.93827000000E+00  0.93827000000E+00 0.  1.
     999902    2    1    2    0    0 -0.67059696461E-04  0.10107386904E-01 -0.21208146077E-01  0.10204364003E+01  0.10201659168E+01 0.  0.
     999903    2    3    3    0    0  0.25987997620E-01  0.90960103367E-02  0.12363535810E+00  0.12821471843E+00  0.19879608244E-01 0.  0.
         14    1    1    2    0    0  0.67059696461E-04 -0.10107386904E-01  0.21208146077E-01  0.23493599704E-01  0.00000000000E+00 0. -1.
     999901    1    3    3    0    0 -0.26055057316E-01  0.10113765669E-02 -0.14484350418E+00  0.89222168187E+00  0.88000000000E+00 0.  1.
        -11    1    4    4    0    0  0.20678006594E-01 -0.22682869110E-02  0.64959149533E-01  0.68210536659E-01  0.51100000000E-03 0. -1.
         11    1    4    4    0    0  0.53099910255E-02  0.11364297248E-01  0.58676208569E-01  0.60004181768E-01  0.51100000000E-03 0.  1.
</event>
<event>
 8    1  0.1083484E+005  0.1043930E+01  0.7957747E-01            NaN
         13   -1    0    0    0    0  0.00000000000E+00  0.00000000000E+00  0.74505805969E-08  0.10566000000E+00  0.10566000000E+00 0.  1.
     999900   -1    0    0    0    0 -0.00000000000E+00 -0.00000000000E+00 -0.74505805969E-08  0.93827000000E+00  0.93827000000E+00 0. -1.
     999902    2    1    2    0    0  0.68403026030E-02  0.10732942098E-01  0.19494064651E-01  0.10206490133E+01  0.10203834593E+01 0.  0.
     999903    2    3    3    0    0  0.57277126484E-01  0.50410005990E-01  0.10800292619E+00  0.13388412834E+00  0.20940148839E-01 0.  0.
         14    1    1    2    0    0 -0.68403026030E-02 -0.10732942098E-01 -0.19494064651E-01  0.23280986715E-01  0.00000000000E+00 0. -1.
     999901    1    3    3    0    0 -0.50436823881E-01 -0.39677063892E-01 -0.88508861539E-01  0.88676488495E+00  0.88000000000E+00 0. -1.
        -11    1    4    4    0    0  0.34503617994E-01  0.41493580147E-01  0.65761535025E-01  0.85070896656E-01  0.51100000000E-03 0. -1.
         11    1    4    4    0    0  0.22773508490E-01  0.89164258425E-02  0.42241391166E-01  0.48813231683E-01  0.51100000000E-03 0.  1.
</event>
<event>
 8    1  0.1083484E+005  0.1043930E+01  0.7957747E-01            NaN
         13   -1    0    0    0    0  0.00000000000E+00  0.00000000000E+00  0.74505805969E-08  0.10566000000E+00  0.10566000000E+00 0.  1.
     999900   -1    0    0    0    0 -0.00000000000E+00 -0.00000000000E+00 -0.74505805969E-08  0.93827000000E+00  0.93827000000E+00 0.  1.
     999902    2    1    2    0    0 -0.65019853502E-02  0.15463601390E-01 -0.17946884360E-01  0.10193639779E+01  0.10190679222E+01 0.  0.
     999903    2    3    3    0    0 -0.77038085582E-01 -0.48868682619E-01 -0.91926902903E-01  0.13111456064E+00  0.20431783147E-01 0.  0.
         14    1    1    2    0    0  0.65019853502E-02 -0.15463601390E-01  0.17946884360E-01  0.24566022056E-01  0.00000000000E+00 0.  1.
     999901    1    3    3    0    0  0.70536100232E-01  0.64332284009E-01  0.73980018543E-01  0.88824941731E+00  0.88000000000E+00 0. -1.
        -11    1    4    4    0    0 -0.21869838361E-01 -0.58442896638E-02 -0.15162376960E-01  0.27250767837E-01  0.51100000000E-03 0.  1.
         11    1    4    4    0    0 -0.55168247222E-01 -0.43024392956E-01 -0.76764525943E-01  0.10386379280E+00  0.51100000000E-03 0. -1.
</event>
<event>
 8    1  0.1083484E+005  0.1043930E+01  0.7957747E-01            NaN
         13   -1    0    0    0    0  0.00000000000E+00  0.00000000000E+00  0.74505805969E-08  0.10566000000E+00  0.10566000000E+00 0. -1.
     999900   -1    0    0    0    0 -0.00000000000E+00 -0.00000000000E+00 -0.74505805969E-08  0.93827000000E+00  0.93827000000E+00 0.  1.
     999902    2    1    2    0    0 -0.75236278294E-02 -0.16390926077E-01 -0.15011411129E-01  0.10204649217E+01  0.10201951022E+01 0.  0.
     999903    2    3    3    0    0 -0.54126609122E-01  0.11556243716E+00  0.29842914732E-02  0.12922568717E+00  0.20149578909E-01 0.  0.
         14    1    1    2    0    0  0.75236278294E-02  0.16390926077E-01  0.15011411129E-01  0.23465078254E-01  0.00000000000E+00 0. -1.
     999901    1    3    3    0    0  0.46602981292E-01 -0.13195336324E+00 -0.17995702603E-01  0.89123923458E+00  0.88000000000E+00 0.  1.
        -11    1    4    4    0    0 -0.53667346884E-01  0.10133743758E+00  0.53116601282E-02  0.11479518819E+00  0.51100000000E-03 0.  1.
         11    1    4    4    0    0 -0.45926223814E-03  0.14224999582E-01 -0.23273686550E-02  0.14430498978E-01  0.51100000000E-03 0. -1.
</event>
<event>
 8    1  0.1083484E+005  0.1043930E+01  0.7957747E-01            NaN
         13   -1    0    0    0    0  0.00000000000E+00  0.00000000000E+00  0.74505805969E-08  0.10566000000E+00  0.10566000000E+00 0. -1.
     999900   -1    0    0    0    0 -0.00000000000E+00 -0.00000000000E+00 -0.74505805969E-08  0.93827000000E+00  0.93827000000E+00 0.  1.
     999902    2    1    2    0    0 -0.10185408651E-01  0.13739807394E-01  0.16643891559E-01  0.10200648794E+01  0.10197856707E+01 0.  0.
     999903    2    3    3    0    0  0.95155234181E-01  0.69573399561E-01  0.54330080411E-01  0.13122614828E+00  0.19327903061E-01 0.  0.
         14    1    1    2    0    0  0.10185408651E-01 -0.13739807394E-01 -0.16643891559E-01  0.23865120634E-01  0.00000000000E+00 0.  1.
     999901    1    3    3    0    0 -0.10534064283E+00 -0.55833592167E-01 -0.37686188852E-01  0.88883873108E+00  0.88000000000E+00 0.  1.
        -11    1    4    4    0    0  0.37120053892E-01  0.38902556833E-01  0.26033119699E-01  0.59743550040E-01  0.51100000000E-03 0.  1.
         11    1    4    4    0    0  0.58035180289E-01  0.30670842728E-01  0.28296960713E-01  0.71482598242E-01  0.51100000000E-03 0. -1.
</event>
<event>
 8    1  0.1083484E+005  0.1043930E+01  0.7957747E-01            NaN
         13   -1    0    0    0    0  0.00000000000E+00  0.00000000000E+00  0.74505805969E-08  0.10566000000E+00  0.10566000000E+00 0.  1.
     999900   -1    0    0    0    0 -0.00000000000E+00 -0.00000000000E+00 -0.74505805969E-08  0.93827000000E+00  0.93827000000E+00 0. -1.
     999902    2    1    2    0    0  0.87957881421E-02  0.13477296745E-01 -0.14514059083E-01  0.10222583289E+01  0.10220285856E+01 0.  0.
     999903    2    3    3    0    0  0.32669768655E-01 -0.85378906367E-01  0.90503156179E-01  0.13019827974E+00  0.20097246855E-01 0.  0.
         14    1    1    2    0    0 -0.87957881421E-02 -0.13477296745E-01  0.14514059083E-01  0.21671671086E-01  0.00000000000E+00 0.  1.
     999901    1    3    3    0    0 -0.23873980513E-01  0.98856203112E-01 -0.10501721526E+00  0.89206004918E+00  0.88000000000E+00 0. -1.
        -11    1    4    4    0    0  0.25405895561E-01 -0.56382116000E-01  0.48258530461E-01  0.78444562700E-01  0.51100000000E-03 0.  1.
         11    1    4    4    0    0  0.72638730937E-02 -0.28996790368E-01  0.42244625718E-01  0.51753717036E-01  0.51100000000E-03 0. -1.
</event>
<event>
 8    1  0.1083484E+005  0.1043930E+01  0.7957747E-01            NaN
         13   -1    0    0    0    0  0.00000000000E+00  0.00000000000E+00  0.74505805969E-08  0.10566000000E+00  0.10566000000E+00 0.  1.
     999900   -1    0    0    0    0 -0.00000000000E+00 -0.00000000000E+00 -0.74505805969E-08  0.93827000000E+00  0.93827000000E+00 0.  1.
     999902    2    1    2    0    0 -0.20469513707E-02  0.19347809261E-01  0.12706868281E-01  0.10206922670E+01  0.10204277102E+01 0.  0.
     999903    2    3    3    0    0  0.51765401833E-02 -0.74326350339E-01 -0.10237325578E+00  0.12824032883E+00  0.20349336979E-01 0.  0.
         14    1    1    2    0    0  0.20469513707E-02 -0.19347809261E-01 -0.12706868281E-01  0.23237732992E-01  0.00000000000E+00 0. -1.
     999901    1    3    3    0    0 -0.72234915540E-02  0.93674159600E-01  0.11508012406E+00  0.89245193818E+00  0.88000000000E+00 0. -1.
        -11    1    4    4    0    0  0.94765914122E-02 -0.40104444939E-01 -0.42905074984E-01  0.59491838676E-01  0.51100000000E-03 0. -1.
         11    1    4    4    0    0 -0.43000512289E-02 -0.34221905401E-01 -0.59468180797E-01  0.68748490152E-01  0.51100000000E-03 0.  1.
</event>
<event>
 8    1  0.1083484E+005  0.1043930E+01  0.7957747E-01            NaN
         13   -1    0    0    0    0  0.00000000000E+00  0.00000000000E+00  0.74505805969E-08  0.10566000000E+00  0.10566000000E+00 0. -1.
     999900   -1    0    0    0    0 -0.00000000000E+00 -0.00000000000E+00 -0.74505805969E-08  0.93827000000E+00  0.93827000000E+00 0. -1.
     999902    2    1    2    0    0  0.10749972900E-01 -0.14246838189E-01  0.89276550612E-02  0.10239741151E+01  0.10237796399E+01 0.  0.
     999903    2    3    3    0    0 -0.74875544792E-01 -0.74999545401E-01  0.80629555713E-01  0.13483757710E+00  0.21184143268E-01 0.  0.
         14    1    1    2    0    0 -0.10749972900E-01  0.14246838189E-01 -0.89276550612E-02  0.19955884862E-01  0.00000000000E+00 0.  1.
     999901    1    3    3    0    0  0.85625517692E-01  0.60752707212E-01 -0.71701900652E-01  0.88913653804E+00  0.88000000000E+00 0. -1.
        -11    1    4    4    0    0 -0.74801082548E-01 -0.71842153436E-01  0.73787722056E-01  0.12728466525E+00  0.51100000000E-03 0. -1.
         11    1    4    4    0    0 -0.74462243655E-04 -0.31573919651E-02  0.68418336571E-02  0.75529118516E-02  0.51100000000E-03 0.  1.
</event>
<event>
 8    1  0.1083484E+005  0.1043930E+01  0.7957747E-01            NaN
         13   -1    0    0    0    0  0.00000000000E+00  0.00000000000E+00  0.74505805969E-08  0.10566000000E+00  0.10566000000E+00 0. -1.
     999900   -1    0    0    0    0 -0.00000000000E+00 -0.00000000000E+00 -0.74505805969E-08  0.93827000000E+00  0.93827000000E+00 0. -1.
     999902    2    1    2    0    0 -0.21753024111E-01 -0.78738178477E-02  0.26581055305E-02  0.10206435964E+01  0.10203779174E+01 0.  0.
     999903    2    3    3    0    0  0.12338043926E+00  0.99654637215E-02 -0.26768074089E-01  0.12809227456E+00  0.19210875885E-01 0.  0.
         14    1    1    2    0    0  0.21753024111E-01  0.78738178477E-02 -0.26581055305E-02  0.23286403554E-01  0.00000000000E+00 0.  1.
     999901    1    3    3    0    0 -0.14513346337E+00 -0.17839281569E-01  0.29426179620E-01  0.89255132189E+00  0.88000000000E+00 0.  1.
        -11    1    4    4    0    0  0.93152991390E-03  0.19516775444E-02 -0.18145631790E-02  0.28688941682E-02  0.51100000000E-03 0. -1.
         11    1    4    4    0    0  0.12244890934E+00  0.80137861771E-02 -0.24953510910E-01  0.12522338039E+00  0.51100000000E-03 0.  1.
</event>
<event>
 8    1  0.1083484E+005  0.1043930E+01  0.7957747E-01            NaN
         13   -1    0    0    0    0  0.00000000000E+00  0.00000000000E+00  0.74505805969E-08  0.10566000000E+00  0.10566000000E+00 0. -1.
     999900   -1    0    0    0    0 -0.00000000000E+00 -0.00000000000E+00 -0.74505805969E-08  0.93827000000E+00  0.93827000000E+00 0. -1.
     999902    2    1    2    0    0  0.10181328360E-02  0.16894046543E-01  0.16562584199E-01  0.10202495313E+01  0.10199746769E+01 0.  0.
     999903    2    3    3    0    0  0.55694935881E-01  0.11695994833E+00  0.22286945109E-01  0.13287390293E+00  0.19421914464E-01 0.  0.
         14    1    1    2    0    0 -0.10181328360E-02 -0.16894046543E-01 -0.16562584199E-01  0.23680468712E-01  0.00000000000E+00 0.  1.
     999901    1    3    3    0    0 -0.54676803045E-01 -0.10006590179E+00 -0.57243609100E-02  0.88737562836E+00  0.88000000000E+00 0.  1.
        -11    1    4    4    0    0 -0.12237689527E-02  0.24982526248E-02  0.19427890124E-02  0.34313884615E-02  0.51100000000E-03 0.  1.
         11    1    4    4    0    0  0.56918704834E-01  0.11446169571E+00  0.20344156096E-01  0.12944251447E+00  0.51100000000E-03 0. -1.
</event>
<event>
 7    1  0.1083484E+005  0.1043930E+01  0.7957747E-01            NaN
         13   -1    0    0    0    0  0.00000000000E+00  0.00000000000E+00  0.74505805969E-08  0.10566000000E+00  0.10566000000E+00 0.  1.
     999900   -1    0    0    0    0 -0.00000000000E+00 -0.00000000000E+00 -0.74505805969E-08  0.93827000000E+00  0.93827000000E+00 0.  1.
     999903    2    1    2    0    0 -0.75100124093E-01  0.12051983403E-01 -0.67709651041E-01  0.10372004075E+00  0.19696981125E-01 0.  0.
         14    1    1    2    0    0  0.55969639383E-01  0.19379802442E-02 -0.83026184576E-02  0.56615278621E-01  0.00000000000E+00 0. -1.
     999901    1    1    2    0    0  0.19130484710E-01 -0.13989963648E-01  0.76012269499E-01  0.88359468063E+00  0.88000000000E+00 0. -1.
        -11    1    3    3    0    0 -0.39745353245E-01 -0.12576363700E-02 -0.43030905665E-01  0.58593469920E-01  0.51100000000E-03 0.  1.
         11    1    3    3    0    0 -0.35354770848E-01  0.13309619773E-01 -0.24678745376E-01  0.45126570826E-01  0.51100000000E-03 0. -1.
</event>
<event>
 8    1  0.1083484E+005  0.1043930E+01  0.7957747E-01            NaN
         13   -1    0    0    0    0  0.00000000000E+00  0.00000000000E+00  0.74505805969E-08  0.10566000000E+00  0.10566000000E+00 0. -1.
     999900   -1    0    0    0    0 -0.00000000000E+00 -0.00000000000E+00 -0.74505805969E-08  0.93827000000E+00  0.93827000000E+00 0. -1.
     999902    2    1    2    0    0  0.36731806619E-02  0.22718782610E-01  0.65589400963E-02  0.10199997882E+01  0.10197190363E+01 0.  0.
     999903    2    3    3    0    0  0.10097399901E+00 -0.33876346136E-01 -0.69558350099E-01  0.12957050991E+00  0.24633263427E-01 0.  0.
         14    1    1    2    0    0 -0.36731806619E-02 -0.22718782610E-01 -0.65589400963E-02  0.23930211755E-01  0.00000000000E+00 0. -1.
     999901    1    3    3    0    0 -0.97300818344E-01  0.56595128746E-01  0.76117290195E-01  0.89042927833E+00  0.88000000000E+00 0.  1.
        -11    1    4    4    0    0  0.32728631600E-01  0.56807944522E-03 -0.17967916913E-01  0.37344252568E-01  0.51100000000E-03 0. -1.
         11    1    4    4    0    0  0.68245367406E-01 -0.34444425581E-01 -0.51590433186E-01  0.92226257342E-01  0.51100000000E-03 0.  1.
</event>
<event>
 8    1  0.1083484E+005  0.1043930E+01  0.7957747E-01            NaN
         13   -1    0    0    0    0  0.00000000000E+00  0.00000000000E+00  0.74505805969E-08  0.10566000000E+00  0.10566000000E+00 0. -1.
     999900   -1    0    0    0    0 -0.00000000000E+00 -0.00000000000E+00 -0.74505805969E-08  0.93827000000E+00  0.93827000000E+00 0.  1.
     999902    2    1    2    0    0 -0.31909075654E-02 -0.20261558477E-01  0.11710402144E-01  0.10203112329E+01  0.10200378256E+01 0.  0.
     999903    2    3    3    0    0  0.68365649310E-01 -0.61101245050E-01 -0.90757768861E-01  0.13054275348E+00  0.19930221379E-01 0.  0.
         14    1    1    2    0    0  0.31909075654E-02  0.20261558477E-01 -0.11710402144E-01  0.23618767143E-01  0.00000000000E+00 0. -1.
     999901    1    3    3    0    0 -0.71556556876E-01  0.40839686573E-01  0.10246817100E+00  0.88976847938E+00  0.88000000000E+00 0. -1.
        -11    1    4    4    0    0  0.49470907768E-01 -0.37122138944E-01 -0.71054721375E-01  0.94204344199E-01  0.51100000000E-03 0. -1.
         11    1    4    4    0    0  0.18894741542E-01 -0.23979106105E-01 -0.19703047485E-01  0.36338409277E-01  0.51100000000E-03 0.  1.
</event>
<event>
 8    1  0.1083484E+005  0.1043930E+01  0.7957747E-01            NaN
         13   -1    0    0    0    0  0.00000000000E+00  0.00000000000E+00  0.74505805969E-08  0.10566000000E+00  0.10566000000E+00 0.  1.
     999900   -1    0    0    0    0 -0.00000000000E+00 -0.00000000000E+00 -0.74505805969E-08  0.93827000000E+00  0.93827000000E+00 0.  1.
     999902    2    1    2    0    0 -0.33232655531E-02  0.21407338952E-01 -0.92036148664E-02  0.10203922690E+01  0.10201207565E+01 0.  0.
     999903    2    3    3    0    0 -0.21805430020E-02  0.47278338733E-01 -0.12252822317E+00  0.13274758709E+00  0.19203133199E-01 0.  0.
         14    1    1    2    0    0  0.33232655531E-02 -0.21407338952E-01  0.92036148664E-02  0.23537731019E-01  0.00000000000E+00 0. -1.
     999901    1    3    3    0    0 -0.11427225511E-02 -0.25870999781E-01  0.11332460830E+00  0.88764468189E+00  0.88000000000E+00 0. -1.
        -11    1    4    4    0    0 -0.86765876708E-02  0.32457823066E-01 -0.95531208725E-01  0.10126828928E+00  0.51100000000E-03 0.  1.
         11    1    4    4    0    0  0.64960446688E-02  0.14820515667E-01 -0.26997014441E-01  0.31479297811E-01  0.51100000000E-03 0. -1.
</event>
<event>
 8    1  0.1083484E+005  0.1043930E+01  0.7957747E-01            NaN
         13   -1    0    0    0    0  0.00000000000E+00  0.00000000000E+00  0.74505805969E-08  0.10566000000E+00  0.10566000000E+00 0. -1.
     999900   -1    0    0    0    0 -0.00000000000E+00 -0.00000000000E+00 -0.74505805969E-08  0.93827000000E+00  0.93827000000E+00 0.  1.
     999902    2    1    2    0    0 -0.21588867029E-01  0.64772622365E-02  0.75912213898E-02  0.10201463765E+01  0.10198690939E+01 0.  0.
     999903    2    3    3    0    0  0.78437237936E-01 -0.73040226703E-01 -0.66329447363E-01  0.12785017118E+00  0.21419516123E-01 0.  0.
         14    1    1    2    0    0  0.21588867029E-01 -0.64772622365E-02 -0.75912213898E-02  0.23783623523E-01  0.00000000000E+00 0. -1.
     999901    1    3    3    0    0 -0.10002610496E+00  0.79517488940E-01  0.73920668753E-01  0.89229620530E+00  0.88000000000E+00 0. -1.
        -11    1    4    4    0    0  0.73177565801E-01 -0.69371938101E-01 -0.55096497457E-01  0.11490564427E+00  0.51100000000E-03 0. -1.
         11    1    4    4    0    0  0.52596721348E-02 -0.36682886023E-02 -0.11232949907E-01  0.12944526907E-01  0.51100000000E-03 0.  1.
</event>
<event>
 8    1  0.1083484E+005  0.1043930E+01  0.7957747E-01            NaN
         13   -1    0    0    0    0  0.00000000000E+00  0.00000000000E+00  0.74505805969E-08  0.10566000000E+00  0.10566000000E+00 0.  1.
     999900   -1    0    0    0    0 -0.00000000000E+00 -0.00000000000E+00 -0.74505805969E-08  0.93827000000E+00  0.93827000000E+00 0.  1.
     999902    2    1    2    0    0  0.18827043890E-02 -0.21567045799E-01 -0.10741058265E-01  0.10197628245E+01  0.10194764175E+01 0.  0.
     999903    2    3    3    0    0  0.12644271470E+00  0.13134433871E-01 -0.20327153458E-01  0.13026224433E+00  0.19869214286E-01 0.  0.
         14    1    1    2    0    0 -0.18827043890E-02  0.21567045799E-01  0.10741058265E-01  0.24167175527E-01  0.00000000000E+00 0. -1.
     999901    1    3    3    0    0 -0.12456001031E+00 -0.34701479670E-01  0.95860951928E-02  0.88950058015E+00  0.88000000000E+00 0.  1.
        -11    1    4    4    0    0  0.11075201555E+00  0.17231655765E-01 -0.20943969310E-01  0.11402565448E+00  0.51100000000E-03 0. -1.
         11    1    4    4    0    0  0.15690699150E-01 -0.40972218938E-02  0.61681585253E-03  0.16236589847E-01  0.51100000000E-03 0.  1.
</event>
<event>
 8    1  0.1083484E+005  0.1043930E+01  0.7957747E-01            NaN
         13   -1    0    0    0    0  0.00000000000E+00  0.00000000000E+00  0.74505805969E-08  0.10566000000E+00  0.10566000000E+00 0.  1.
     999900   -1    0    0    0    0 -0.00000000000E+00 -0.00000000000E+00 -0.74505805969E-08  0.93827000000E+00  0.93827000000E+00 0. -1.
     999902    2    1    2    0    0  0.25096562398E-01 -0.85219397547E-03  0.47052902596E-02  0.10183819387E+01  0.10180614273E+01 0.  0.
     999903    2    3    3    0    0 -0.96885973360E-01 -0.25559326054E-01 -0.73828567880E-01  0.12616125510E+00  0.20635742552E-01 0.  0.
         14    1    1    2    0    0 -0.25096562398E-01  0.85219397547E-03 -0.47052902596E-02  0.25548061280E-01  0.00000000000E+00 0.  1.
     999901    1    3    3    0    0  0.12198253576E+00  0.24707132078E-01  0.78533858140E-01  0.89222068362E+00  0.88000000000E+00 0.  1.
        -11    1    4    4    0    0 -0.60766742480E-01 -0.61038274913E-02 -0.47997937301E-01  0.77678290454E-01  0.51100000000E-03 0.  1.
         11    1    4    4    0    0 -0.36119230880E-01 -0.19455498562E-01 -0.25830630579E-01  0.48482964646E-01  0.51100000000E-03 0. -1.
</event>
<event>
 8    1  0.1083484E+005  0.1043930E+01  0.7957747E-01            NaN
         13   -1    0    0    0    0  0.00000000000E+00  0.00000000000E+00  0.74505805969E-08  0.10566000000E+00  0.10566000000E+00 0.  1.
     999900   -1    0    0    0    0 -0.00000000000E+00 -0.00000000000E+00 -0.74505805969E-08  0.93827000000E+00  0.93827000000E+00 0.  1.
     999902    2    1    2    0    0  0.15818635189E-01  0.16260460754E-01  0.49663863649E-02  0.10207072354E+01  0.10204430232E+01 0.  0.
     999903    2    3    3    0    0 -0.12671780232E+00 -0.11338568308E-01  0.36033720277E-02  0.12881026810E+00  0.19827665601E-01 0.  0.
         14    1    1    2    0    0 -0.15818635189E-01 -0.16260460754E-01 -0.49663863649E-02  0.23222764622E-01  0.00000000000E+00 0.  1.
     999901    1    3    3    0    0  0.14253643751E+00  0.27599029062E-01  0.13630143372E-02  0.89189696727E+00  0.88000000000E+00 0.  1.
        -11    1    4    4    0    0 -0.24259485244E-01 -0.10113865398E-01  0.29402579373E-03  0.26289930958E-01  0.51100000000E-03 0.  1.
         11    1    4    4    0    0 -0.10245831708E+00 -0.12247029098E-02  0.33093462340E-02  0.10252033715E+00  0.51100000000E-03 0. -1.
</event>
<event>
 8    1  0.1083484E+005  0.1043930E+01  0.7957747E-01            NaN
         13   -1    0    0    0    0  0.00000000000E+00  0.00000000000E+00  0.74505805969E-08  0.10566000000E+00  0.10566000000E+00 0.  1.
     999900   -1    0    0    0    0 -0.00000000000E+00 -0.00000000000E+00 -0.74505805969E-08  0.93827000000E+00  0.93827000000E+00 0. -1.
     999902    2    1    2    0    0 -0.11913057750E-01 -0.82376421822E-02 -0.20343434181E-01  0.10189573148E+01  0.10186512525E+01 0.  0.
     999903    2    3    3    0    0  0.10501551299E+00 -0.37886657017E-01 -0.62939350817E-01  0.12970719986E+00  0.19973459058E-01 0.  0.
         14    1    1    2    0    0  0.11913057750E-01  0.82376421822E-02  0.20343434181E-01  0.24972685237E-01  0.00000000000E+00 0.  1.
     999901    1    3    3    0    0 -0.11692857074E+00  0.29649014835E-01  0.42595916637E-01  0.88925011490E+00  0.88000000000E+00 0.  1.
        -11    1    4    4    0    0  0.79263089556E-01 -0.30079798342E-01 -0.37609727078E-01  0.92747961305E-01  0.51100000000E-03 0. -1.
         11    1    4    4    0    0  0.25752423433E-01 -0.78068586751E-02 -0.25329623740E-01  0.36959238559E-01  0.51100000000E-03 0.  1.
</event>
<event>
 8    1  0.1083484E+005  0.1043930E+01  0.7957747E-01            NaN
         13   -1    0    0    0    0  0.00000000000E+00  0.00000000000E+00  0.74505805969E-08  0.10566000000E+00  0.10566000000E+00 0. -1.
     999900   -1    0    0    0    0 -0.00000000000E+00 -0.00000000000E+00 -0.74505805969E-08  0.93827000000E+00  0.93827000000E+00 0. -1.
     999902    2    1    2    0    0  0.13168900459E-01  0.97761296061E-02 -0.30391714553E-02  0.10272497958E+01  0.10271143625E+01 0.  0.
     999903    2    3    3    0    0  0.43362242832E-01 -0.77103046670E-01 -0.10142866206E+00  0.13700257111E+00  0.25627467553E-01 0.  0.
         14    1    1    2    0    0 -0.13168900459E-01 -0.97761296061E-02  0.30391714553E-02  0.16680204211E-01  0.00000000000E+00 0.  1.
     999901    1    3    3    0    0 -0.30193342373E-01  0.86879176276E-01  0.98389490605E-01  0.89024722468E+00  0.88000000000E+00 0.  1.
        -11    1    4    4    0    0  0.36610506259E-01 -0.54636442859E-01 -0.58234538257E-01  0.87846414974E-01  0.51100000000E-03 0. -1.
         11    1    4    4    0    0  0.67517365731E-02 -0.22466603812E-01 -0.43194123804E-01  0.49156156133E-01  0.51100000000E-03 0.  1.
</event>
<event>
 8    1  0.1083484E+005  0.1043930E+01  0.7957747E-01            NaN
         13   -1    0    0    0    0  0.00000000000E+00  0.00000000000E+00  0.74505805969E-08  0.10566000000E+00  0.10566000000E+00 0.  1.
     999900   -1    0    0    0    0 -0.00000000000E+00 -0.00000000000E+00 -0.74505805969E-08  0.93827000000E+00  0.93827000000E+00 0. -1.
     999902    2    1    2    0    0 -0.61373893450E-02  0.21819199901E-01 -0.92449393928E-02  0.10194511533E+01  0.10191572204E+01 0.  0.
     999903    2    3    3    0    0  0.11696660737E+00 -0.16560792970E-02 -0.51975686671E-01  0.12954576533E+00  0.19917416291E-01 0.  0.
         14    1    1    2    0    0  0.61373893450E-02 -0.21819199901E-01  0.92449393928E-02  0.24478846718E-01  0.00000000000E+00 0.  1.
     999901    1    3    3    0    0 -0.12310399672E+00  0.23475279198E-01  0.42730747278E-01  0.88990538795E+00  0.88000000000E+00 0.  1.
        -11    1    4    4    0    0  0.21537318038E-01 -0.31325640579E-02 -0.17963454738E-01  0.28224384014E-01  0.51100000000E-03 0.  1.
         11    1    4    4    0    0  0.95429289333E-01  0.14764847609E-02 -0.34012231933E-01  0.10132138132E+00  0.51100000000E-03 0. -1.
</event>
<event>
 8    1  0.1083484E+005  0.1043930E+01  0.7957747E-01            NaN
         13   -1    0    0    0    0  0.00000000000E+00  0.00000000000E+00  0.74505805969E-08  0.10566000000E+00  0.10566000000E+00 0.  1.
     999900   -1    0    0    0    0 -0.00000000000E+00 -0.00000000000E+00 -0.74505805969E-08  0.93827000000E+00  0.93827000000E+00 0.  1.
     999902    2    1    2    0    0  0.13429285780E-02 -0.23699783398E-01 -0.70650238965E-03  0.10201816877E+01  0.10199052376E+01 0.  0.
     999903    2    3    3    0    0  0.44784482204E-01 -0.11472846281E+00 -0.46783907361E-01  0.13322254757E+00  0.19779867735E-01 0.  0.
         14    1    1    2    0    0 -0.13429285780E-02  0.23699783398E-01  0.70650238965E-03  0.23748312275E-01  0.00000000000E+00 0.  1.
     999901    1    3    3    0    0 -0.43441553626E-01  0.91028679412E-01  0.46077404972E-01  0.88695914016E+00  0.88000000000E+00 0.  1.
        -11    1    4    4    0    0  0.24758582949E-01 -0.42196150901E-01 -0.12294239273E-01  0.50447121035E-01  0.51100000000E-03 0.  1.
         11    1    4    4    0    0  0.20025899255E-01 -0.72532311910E-01 -0.34489668088E-01  0.82775426533E-01  0.51100000000E-03 0. -1.
</event>
<event>
 8    1  0.1083484E+005  0.1043930E+01  0.7957747E-01            NaN
         13   -1    0    0    0    0  0.00000000000E+00  0.00000000000E+00  0.74505805969E-08  0.10566000000E+00  0.10566000000E+00 0.  1.
     999900   -1    0    0    0    0 -0.00000000000E+00 -0.00000000000E+00 -0.74505805969E-08  0.93827000000E+00  0.93827000000E+00 0. -1.
     999902    2    1    2    0    0 -0.17060417197E-01 -0.13469110232E-01  0.10490595092E-01  0.10197943966E+01  0.10195087464E+01 0.  0.
     999903    2    3    3    0    0  0.60599064949E-01 -0.64241919738E-02  0.11323228945E+00  0.13039207944E+00  0.21610786436E-01 0.  0.
         14    1    1    2    0    0  0.17060417197E-01  0.13469110232E-01 -0.10490595092E-01  0.24135603385E-01  0.00000000000E+00 0. -1.
     999901    1    3    3    0    0 -0.77659482146E-01 -0.70449182585E-02 -0.10274169436E+00  0.88940231718E+00  0.88000000000E+00 0. -1.
        -11    1    4    4    0    0  0.18361849253E-01  0.17751298614E-02  0.54815852615E-01  0.57838978318E-01  0.51100000000E-03 0.  1.
         11    1    4    4    0    0  0.42237215696E-01 -0.81993218352E-02  0.58416436837E-01  0.72553101119E-01  0.51100000000E-03 0. -1.
</event>
<event>
 8    1  0.1083484E+005  0.1043930E+01  0.7957747E-01            NaN
         13   -1    0    0    0    0  0.00000000000E+00  0.00000000000E+00  0.74505805969E-08  0.10566000000E+00  0.10566000000E+00 0.  1.
     999900   -1    0    0    0    0 -0.00000000000E+00 -0.00000000000E+00 -0.74505805969E-08  0.93827000000E+00  0.93827000000E+00 0.  1.
     999902    2    1    2    0    0 -0.33889592520E-02  0.74519501942E-02  0.34171477186E-01  0.10087916099E+01  0.10081794512E+01 0.  0.
     999903    2    3    3    0    0  0.48914721915E-01 -0.49084635116E-01 -0.91499899213E-01  0.11653304009E+00  0.20143645427E-01 0.  0.
         14    1    1    2    0    0  0.33889592520E-02 -0.74519501942E-02 -0.34171477186E-01  0.35138390111E-01  0.00000000000E+00 0. -1.
     999901    1    3    3    0    0 -0.52303681167E-01  0.56536585310E-01  0.12567137640E+00  0.89225856980E+00  0.88000000000E+00 0. -1.
        -11    1    4    4    0    0 -0.71881752479E-04 -0.71290343517E-02 -0.13876972390E-01  0.15609605423E-01  0.51100000000E-03 0.  1.
         11    1    4    4    0    0  0.48986603668E-01 -0.41955600765E-01 -0.77622926823E-01  0.10092343466E+00  0.51100000000E-03 0. -1.
</event>
<event>
 8    1  0.1083484E+005  0.1043930E+01  0.7957747E-01            NaN
         13   -1    0    0    0    0  0.00000000000E+00  0.00000000000E+00  0.74505805969E-08  0.10566000000E+00  0.10566000000E+00 0.  1.
     999900   -1    0    0    0    0 -0.00000000000E+00 -0.00000000000E+00 -0.74505805969E-08  0.93827000000E+00  0.93827000000E+00 0. -1.
     999902    2    1    2    0    0 -0.22805035578E-01 -0.42568843597E-02  0.36014507390E-02  0.10204531782E+01  0.10201830854E+01 0.  0.
     999903    2    3    3    0    0  0.82300498044E-01 -0.94881675909E-01 -0.24662905700E-01  0.12912893877E+00  0.17032894874E-01 0.  0.
         14    1    1    2    0    0  0.22805035578E-01  0.42568843597E-02 -0.36014507390E-02  0.23476821753E-01  0.00000000000E+00 0. -1.
     999901    1    3    3    0    0 -0.10510553362E+00  0.90624791549E-01  0.28264356439E-01  0.89132423948E+00  0.88000000000E+00 0. -1.
        -11    1    4    4    0    0  0.32237183430E-01 -0.46396665689E-01 -0.17070540746E-01  0.59021615235E-01  0.51100000000E-03 0. -1.
         11    1    4    4    0    0  0.50063314614E-01 -0.48485010220E-01 -0.75923649544E-02  0.70107323532E-01  0.51100000000E-03 0.  1.
</event>
<event>
 8    1  0.1083484E+005  0.1043930E+01  0.7957747E-01            NaN
         13   -1    0    0    0    0  0.00000000000E+00  0.00000000000E+00  0.74505805969E-08  0.10566000000E+00  0.10566000000E+00 0. -1.
     999900   -1    0    0    0    0 -0.00000000000E+00 -0.00000000000E+00 -0.74505805969E-08  0.93827000000E+00  0.93827000000E+00 0.  1.
     999902    2    1    2    0    0 -0.16423894521E-01  0.10925614574E-02  0.21474289130E-01  0.10168729659E+01  0.10165129343E+01 0.  0.
     999903    2    3    3    0    0  0.47971480517E-01 -0.33083847109E-01 -0.10813378297E+00  0.12439717148E+00  0.19645288774E-01 0.  0.
         14    1    1    2    0    0  0.16423894521E-01 -0.10925614574E-02 -0.21474289130E-01  0.27057034120E-01  0.00000000000E+00 0.  1.
     999901    1    3    3    0    0 -0.64395375038E-01  0.34176408566E-01  0.12960807210E+00  0.89247579440E+00  0.88000000000E+00 0. -1.
        -11    1    4    4    0    0  0.41352031656E-01 -0.21865770778E-01 -0.70851476859E-01  0.84901680478E-01  0.51100000000E-03 0.  1.
         11    1    4    4    0    0  0.66194488609E-02 -0.11218076331E-01 -0.37282306112E-01  0.39495491006E-01  0.51100000000E-03 0. -1.
</event>
<event>
 8    1  0.1083484E+005  0.1043930E+01  0.7957747E-01            NaN
         13   -1    0    0    0    0  0.00000000000E+00  0.00000000000E+00  0.74505805969E-08  0.10566000000E+00  0.10566000000E+00 0. -1.
     999900   -1    0    0    0    0 -0.00000000000E+00 -0.00000000000E+00 -0.74505805969E-08  0.93827000000E+00  0.93827000000E+00 0.  1.
     999902    2    1    2    0    0  0.20930490024E-02  0.53732524396E-02 -0.23305847208E-01  0.10199213514E+01  0.10196387339E+01 0.  0.
     999903    2    3    3    0    0 -0.58831418338E-01  0.66657925735E-01  0.90335404697E-01  0.12841591893E+00  0.20633662925E-01 0.  0.
         14    1    1    2    0    0 -0.20930490024E-02 -0.53732524396E-02  0.23305847208E-01  0.24008648650E-01  0.00000000000E+00 0. -1.
     999901    1    3    3    0    0  0.60924467341E-01 -0.61284673295E-01 -0.11364125191E+00  0.89150543242E+00  0.88000000000E+00 0.  1.
        -11    1    4    4    0    0 -0.19939614742E-01  0.27268814369E-01  0.48135380551E-01  0.58808608680E-01  0.51100000000E-03 0. -1.
         11    1    4    4    0    0 -0.38891803596E-01  0.39389111366E-01  0.42200024146E-01  0.69607310249E-01  0.51100000000E-03 0.  1.
</event>
<event>
 8    1  0.1083484E+005  0.1043930E+01  0.7957747E-01            NaN
         13   -1    0    0    0    0  0.00000000000E+00  0.00000000000E+00  0.74505805969E-08  0.10566000000E+00  0.10566000000E+00 0. -1.
     999900   -1    0    0    0    0 -0.00000000000E+00 -0.00000000000E+00 -0.74505805969E-08  0.93827000000E+00  0.93827000000E+00 0.  1.
     999902    2    1    2    0    0  0.19693557755E-01 -0.24287026028E-01 -0.74707024117E-02  0.10117817925E+01  0.10112709273E+01 0.  0.
     999903    2    3    3    0    0  0.78539616066E-01  0.87731691260E-01 -0.26947864228E-01  0.12251782077E+00  0.20472129265E-01 0.  0.
         14    1    1    2    0    0 -0.19693557755E-01  0.24287026028E-01  0.74707024117E-02  0.32148207490E-01  0.00000000000E+00 0.  1.
     999901    1    3    3    0    0 -0.58846058312E-01 -0.11201871729E+00  0.19477161816E-01  0.88926397174E+00  0.88000000000E+00 0. -1.
        -11    1    4    4    0    0  0.18910787189E-01  0.19510971108E-01  0.23815093545E-02  0.27280553028E-01  0.51100000000E-03 0. -1.
         11    1    4    4    0    0  0.59628828877E-01  0.68220720151E-01 -0.29329373582E-01  0.95237267742E-01  0.51100000000E-03 0.  1.
</event>
<event>
 8    1  0.1083484E+005  0.1043930E+01  0.7957747E-01            NaN
         13   -1    0    0    0    0  0.00000000000E+00  0.00000000000E+00  0.74505805969E-08  0.10566000000E+00  0.10566000000E+00 0. -1.
     999900   -1    0    0    0    0 -0.00000000000E+00 -0.00000000000E+00 -0.74505805969E-08  0.93827000000E+00  0.93827000000E+00 0.  1.
     999902    2    1    2    0    0  0.22956260049E-01  0.65406797576E-02  0.20585950285E-02  0.10199715322E+01  0.10196901089E+01 0.  0.
     999903    2    3    3    0    0  0.62649315712E-01 -0.11290443155E+00 -0.89099897686E-02  0.13094791992E+00  0.19890258695E-01 0.  0.
         14    1    1    2    0    0 -0.22956260049E-01 -0.65406797576E-02 -0.20585950285E-02  0.23958467827E-01  0.00000000000E+00 0.  1.
     999901    1    3    3    0    0 -0.39693055663E-01  0.11944511131E+00  0.10968584797E-01  0.88902361225E+00  0.88000000000E+00 0. -1.
        -11    1    4    4    0    0  0.81623491349E-02 -0.32489366783E-01 -0.18292950833E-02  0.33552799270E-01  0.51100000000E-03 0. -1.
         11    1    4    4    0    0  0.54486966577E-01 -0.80415064772E-01 -0.70806946853E-02  0.97395120654E-01  0.51100000000E-03 0.  1.
</event>
<event>
 8    1  0.1083484E+005  0.1043930E+01  0.7957747E-01            NaN
         13   -1    0    0    0    0  0.00000000000E+00  0.00000000000E+00  0.74505805969E-08  0.10566000000E+00  0.10566000000E+00 0.  1.
     999900   -1    0    0    0    0 -0.00000000000E+00 -0.00000000000E+00 -0.74505805969E-08  0.93827000000E+00  0.93827000000E+00 0.  1.
     999902    2    1    2    0    0  0.15072380619E-01  0.16370687661E-01  0.10732411570E-01  0.10192245202E+01  0.10189250522E+01 0.  0.
     999903    2    3    3    0    0  0.36213089769E-01  0.55705264378E-01  0.11250766096E+00  0.13223391155E+00  0.20331483972E-01 0.  0.
         14    1    1    2    0    0 -0.15072380619E-01 -0.16370687661E-01 -0.10732411570E-01  0.24705479759E-01  0.00000000000E+00 0. -1.
     999901    1    3    3    0    0 -0.21140709151E-01 -0.39334576716E-01 -0.10177524939E+00  0.88699060869E+00  0.88000000000E+00 0.  1.
        -11    1    4    4    0    0  0.23840418265E-01  0.27349549384E-01  0.43779594121E-01  0.56861914996E-01  0.51100000000E-03 0. -1.
         11    1    4    4    0    0  0.12372671504E-01  0.28355714993E-01  0.68728066839E-01  0.75371996559E-01  0.51100000000E-03 0.  1.
</event>
<event>
 8    1  0.1083484E+005  0.1043930E+01  0.7957747E-01            NaN
         13   -1    0    0    0    0  0.00000000000E+00  0.00000000000E+00  0.74505805969E-08  0.10566000000E+00  0.10566000000E+00 0.  1.
     999900   -1    0    0    0    0 -0.00000000000E+00 -0.00000000000E+00 -0.74505805969E-08  0.93827000000E+00  0.93827000000E+00 0.  1.
     999902    2    1    2    0    0 -0.92331366797E-02  0.18706667254E-01  0.10596293425E-01  0.10205318880E+01  0.10202636241E+01 0.  0.
     999903    2    3    3    0    0 -0.73080526013E-01  0.25424770841E-01  0.10629387009E+00  0.13301870596E+00  0.20209083649E-01 0.  0.
         14    1    1    2    0    0  0.92331366797E-02 -0.18706667254E-01 -0.10596293425E-01  0.23398112041E-01  0.00000000000E+00 0. -1.
     999901    1    3    3    0    0  0.63847389333E-01 -0.67181035870E-02 -0.95697576666E-01  0.88751318200E+00  0.88000000000E+00 0.  1.
        -11    1    4    4    0    0 -0.61864094050E-01  0.22385573892E-01  0.75736701803E-01  0.10032242607E+00  0.51100000000E-03 0. -1.
         11    1    4    4    0    0 -0.11216431963E-01  0.30391969497E-02  0.30557168288E-01  0.32696279894E-01  0.51100000000E-03 0.  1.
</event>
<event>
 8    1  0.1083484E+005  0.1043930E+01  0.7957747E-01            NaN
         13   -1    0    0    0    0  0.00000000000E+00  0.00000000000E+00  0.74505805969E-08  0.10566000000E+00  0.10566000000E+00 0. -1.
     999900   -1    0    0    0    0 -0.00000000000E+00 -0.00000000000E+00 -0.74505805969E-08  0.93827000000E+00  0.93827000000E+00 0. -1.
     999902    2    1    2    0    0 -0.10353386552E-01 -0.10868076355E-01 -0.18974856921E-01  0.10197359327E+01  0.10194488803E+01 0.  0.
     999903    2    3    3    0    0 -0.12620292636E-01  0.20676965861E-01 -0.12862415250E+00  0.13236724013E+00  0.19751074649E-01 0.  0.
         14    1    1    2    0    0  0.10353386552E-01  0.10868076355E-01  0.18974856921E-01  0.24194067287E-01  0.00000000000E+00 0. -1.
     999901    1    3    3    0    0  0.22669060848E-02 -0.31545042216E-01  0.10964929558E+00  0.88736869258E+00  0.88000000000E+00 0.  1.
        -11    1    4    4    0    0 -0.88240134198E-02 -0.94749565308E-03 -0.47411546331E-01  0.48237711465E-01  0.51100000000E-03 0.  1.
         11    1    4    4    0    0 -0.37962792165E-02  0.21624461514E-01 -0.81212606171E-01  0.84129528667E-01  0.51100000000E-03 0. -1.
</event>
<event>
 8    1  0.1083484E+005  0.1043930E+01  0.7957747E-01            NaN
         13   -1    0    0    0    0  0.00000000000E+00  0.00000000000E+00  0.74505805969E-08  0.10566000000E+00  0.10566000000E+00 0. -1.
     999900   -1    0    0    0    0 -0.00000000000E+00 -0.00000000000E+00 -0.74505805969E-08  0.93827000000E+00  0.93827000000E+00 0. -1.
     999902    2    1    2    0    0 -0.10141354177E-01  0.51740636101E-02 -0.20415714474E-01  0.10205543846E+01  0.10202866423E+01 0.  0.
     999903    2    3    3    0    0  0.11914717493E+00  0.30295890189E-01 -0.39082274875E-01  0.13055715402E+00  0.20096168792E-01 0.  0.
         14    1    1    2    0    0  0.10141354177E-01 -0.51740636101E-02  0.20415714474E-01  0.23375615420E-01  0.00000000000E+00 0. -1.
     999901    1    3    3    0    0 -0.12928852911E+00 -0.25121826579E-01  0.18666560401E-01  0.88999723056E+00  0.88000000000E+00 0.  1.
        -11    1    4    4    0    0  0.86844087633E-01  0.21139245290E-01 -0.18830853887E-01  0.91343447643E-01  0.51100000000E-03 0. -1.
         11    1    4    4    0    0  0.32303087296E-01  0.91566448989E-02 -0.20251420988E-01  0.39213706376E-01  0.51100000000E-03 0.  1.
</event>
<event>
 8    1  0.1083484E+005  0.1043930E+01  0.7957747E-01            NaN
         13   -1    0    0    0    0  0.00000000000E+00  0.00000000000E+00  0.74505805969E-08  0.10566000000E+00  0.10566000000E+00 0. -1.
     999900   -1    0    0    0    0 -0.00000000000E+00 -0.00000000000E+00 -0.74505805969E-08  0.93827000000E+00  0.93827000000E+00 0. -1.
     999902    2    1    2    0    0 -0.85632058402E-02 -0.19914904904E-01  0.93702303300E-02  0.10203136254E+01  0.10200402742E+01 0.  0.
     999903    2    3    3    0    0  0.52697496482E-02  0.77145050897E-01 -0.10028441329E+00  0.12810505870E+00  0.19360097534E-01 0.  0.
         14    1    1    2    0    0  0.85632058402E-02  0.19914904904E-01 -0.93702303300E-02  0.23616374574E-01  0.00000000000E+00 0.  1.
     999901    1    3    3    0    0 -0.13832955488E-01 -0.97059955801E-01  0.10965464362E+00  0.89220856673E+00  0.88000000000E+00 0.  1.
        -11    1    4    4    0    0  0.12575393002E-01  0.53385151286E-01 -0.68984631774E-01  0.88132034068E-01  0.51100000000E-03 0.  1.
         11    1    4    4    0    0 -0.73056433536E-02  0.23759899611E-01 -0.31299781512E-01  0.39973024629E-01  0.51100000000E-03 0. -1.
</event>
<event>
 8    1  0.1083484E+005  0.1043930E+01  0.7957747E-01            NaN
         13   -1    0    0    0    0  0.00000000000E+00  0.00000000000E+00  0.74505805969E-08  0.10566000000E+00  0.10566000000E+00 0. -1.
     999900   -1    0    0    0    0 -0.00000000000E+00 -0.00000000000E+00 -0.74505805969E-08  0.93827000000E+00  0.93827000000E+00 0.  1.
     999902    2    1    2    0    0 -0.30262528177E-03 -0.29612687597E-02  0.23389597058E-01  0.10203517485E+01  0.10200792894E+01 0.  0.
     999903    2    3    3    0    0 -0.11422102563E+00  0.15166848599E-01  0.61247364851E-01  0.13201665338E+00  0.20017019682E-01 0.  0.
         14    1    1    2    0    0  0.30262528177E-03  0.29612687597E-02 -0.23389597058E-01  0.23578251531E-01  0.00000000000E+00 0.  1.
     999901    1    3    3    0    0  0.11391840035E+00 -0.18128117358E-01 -0.37857767793E-01  0.88833509508E+00  0.88000000000E+00 0.  1.
        -11    1    4    4    0    0 -0.98613094387E-01  0.11449826451E-01  0.44422558560E-01  0.10876242798E+00  0.51100000000E-03 0. -1.
         11    1    4    4    0    0 -0.15607931244E-01  0.37170221480E-02  0.16824806291E-01  0.23254225403E-01  0.51100000000E-03 0.  1.
</event>
<event>
 8    1  0.1083484E+005  0.1043930E+01  0.7957747E-01            NaN
         13   -1    0    0    0    0  0.00000000000E+00  0.00000000000E+00  0.74505805969E-08  0.10566000000E+00  0.10566000000E+00 0.  1.
     999900   -1    0    0    0    0 -0.00000000000E+00 -0.00000000000E+00 -0.74505805969E-08  0.93827000000E+00  0.93827000000E+00 0. -1.
     999902    2    1    2    0    0 -0.12350149375E-01  0.59515184804E-02  0.19035536524E-01  0.10204715599E+01  0.10202018948E+01 0.  0.
     999903    2    3    3    0    0  0.11386632091E+00  0.27278951483E-01 -0.45649830847E-01  0.12886085250E+00  0.28487401095E-01 0.  0.
         14    1    1    2    0    0  0.12350149375E-01 -0.59515184804E-02 -0.19035536524E-01  0.23458440113E-01  0.00000000000E+00 0. -1.
     999901    1    3    3    0    0 -0.12621647028E+00 -0.21327433003E-01  0.64685367371E-01  0.89161070738E+00  0.88000000000E+00 0.  1.
        -11    1    4    4    0    0  0.18100421771E-01  0.12772432764E-01 -0.16763353275E-01  0.27785453767E-01  0.51100000000E-03 0. -1.
         11    1    4    4    0    0  0.95765899134E-01  0.14506518719E-01 -0.28886477573E-01  0.10107539874E+00  0.51100000000E-03 0.  1.
</event>
<event>
 8    1  0.1083484E+005  0.1043930E+01  0.7957747E-01            NaN
         13   -1    0    0    0    0  0.00000000000E+00  0.00000000000E+00  0.74505805969E-08  0.10566000000E+00  0.10566000000E+00 0. -1.
     999900   -1    0    0    0    0 -0.00000000000E+00 -0.00000000000E+00 -0.74505805969E-08  0.93827000000E+00  0.93827000000E+00 0.  1.
     999902    2    1    2    0    0  0.91047869704E-02  0.22354039181E-01  0.43104233649E-02  0.10194110285E+01  0.10191161195E+01 0.  0.
     999903    2    3    3    0    0 -0.74558866248E-02 -0.76105793792E-01 -0.10018171607E+00  0.12762226326E+00  0.20084415587E-01 0.  0.
         14    1    1    2    0    0 -0.91047869704E-02 -0.22354039181E-01 -0.43104233649E-02  0.24518971493E-01  0.00000000000E+00 0. -1.
     999901    1    3    3    0    0  0.16560673595E-01  0.98459832973E-01  0.10449213944E+00  0.89178876525E+00  0.88000000000E+00 0. -1.
        -11    1    4    4    0    0  0.61770085607E-02 -0.18895496822E-01 -0.20223657840E-01  0.28362875248E-01  0.51100000000E-03 0.  1.
         11    1    4    4    0    0 -0.13632895186E-01 -0.57210296970E-01 -0.79958058235E-01  0.99259388010E-01  0.51100000000E-03 0. -1.
</event>
<event>
 8    1  0.1083484E+005  0.1043930E+01  0.7957747E-01            NaN
         13   -1    0    0    0    0  0.00000000000E+00  0.00000000000E+00  0.74505805969E-08  0.10566000000E+00  0.10566000000E+00 0.  1.
     999900   -1    0    0    0    0 -0.00000000000E+00 -0.00000000000E+00 -0.74505805969E-08  0.93827000000E+00  0.93827000000E+00 0. -1.
     999902    2    1    2    0    0  0.48384893599E-02  0.13392325711E-01  0.18828140899E-01  0.10203235548E+01  0.10200504361E+01 0.  0.
     999903    2    3    3    0    0  0.61794608536E-01 -0.15648842359E-01  0.11465226978E+00  0.13281600401E+00  0.20772290325E-01 0.  0.
         14    1    1    2    0    0 -0.48384893599E-02 -0.13392325711E-01 -0.18828140899E-01  0.23606445242E-01  0.00000000000E+00 0.  1.
     999901    1    3    3    0    0 -0.56956119176E-01  0.29041168070E-01 -0.95824128879E-01  0.88750755075E+00  0.88000000000E+00 0. -1.
        -11    1    4    4    0    0  0.42667056218E-01 -0.13314421721E-01  0.59690170498E-01  0.74571637284E-01  0.51100000000E-03 0. -1.
         11    1    4    4    0    0  0.19127552318E-01 -0.23344206377E-02  0.54962099280E-01  0.58244366729E-01  0.51100000000E-03 0.  1.
</event>
<event>
 8    1  0.1083484E+005  0.1043930E+01  0.7957747E-01            NaN
         13   -1    0    0    0    0  0.00000000000E+00  0.00000000000E+00  0.74505805969E-08  0.10566000000E+00  0.10566000000E+00 0. -1.
     999900   -1    0    0    0    0 -0.00000000000E+00 -0.00000000000E+00 -0.74505805969E-08  0.93827000000E+00  0.93827000000E+00 0.  1.
     999902    2    1    2    0    0  0.17790445408E-02 -0.12993649747E-01 -0.19208455492E-01  0.10206713522E+01  0.10204063135E+01 0.  0.
     999903    2    3    3    0    0  0.28510841625E-02 -0.56828377614E-01  0.11455088547E+00  0.12948439434E+00  0.20167048194E-01 0.  0.
         14    1    1    2    0    0 -0.17790445408E-02  0.12993649747E-01  0.19208455492E-01  0.23258647760E-01  0.00000000000E+00 0. -1.
     999901    1    3    3    0    0 -0.10720396217E-02  0.43834727867E-01 -0.13375934096E+00  0.89118695790E+00  0.88000000000E+00 0.  1.
        -11    1    4    4    0    0  0.44370444060E-02 -0.20484618613E-01  0.23829611858E-01  0.31739856413E-01  0.51100000000E-03 0.  1.
         11    1    4    4    0    0 -0.15859602435E-02 -0.36343759001E-01  0.90721273610E-01  0.97744537928E-01  0.51100000000E-03 0. -1.
</event>
<event>
 8    1  0.1083484E+005  0.1043930E+01  0.7957747E-01            NaN
         13   -1    0    0    0    0  0.00000000000E+00  0.00000000000E+00  0.74505805969E-08  0.10566000000E+00  0.10566000000E+00 0.  1.
     999900   -1    0    0    0    0 -0.00000000000E+00 -0.00000000000E+00 -0.74505805969E-08  0.93827000000E+00  0.93827000000E+00 0. -1.
     999902    2    1    2    0    0  0.75799213361E-02 -0.47642275076E-02  0.21756841238E-01  0.10204031385E+01  0.10201318796E+01 0.  0.
     999903    2    3    3    0    0  0.99337913189E-01  0.70594212649E-01  0.46914646862E-01  0.13207249130E+00  0.19763476736E-01 0.  0.
         14    1    1    2    0    0 -0.75799213361E-02  0.47642275076E-02 -0.21756841238E-01  0.23526861496E-01  0.00000000000E+00 0. -1.
     999901    1    3    3    0    0 -0.91757991853E-01 -0.75358440157E-01 -0.25157805625E-01  0.88833064720E+00  0.88000000000E+00 0.  1.
        -11    1    4    4    0    0  0.20606359940E-01  0.25274553503E-01  0.12332800717E-01  0.34868097443E-01  0.51100000000E-03 0.  1.
         11    1    4    4    0    0  0.78731553248E-01  0.45319659147E-01  0.34581846146E-01  0.97204393861E-01  0.51100000000E-03 0. -1.
</event>
<event>
 8    1  0.1083484E+005  0.1043930E+01  0.7957747E-01            NaN
         13   -1    0    0    0    0  0.00000000000E+00  0.00000000000E+00  0.74505805969E-08  0.10566000000E+00  0.10566000000E+00 0. -1.
     999900   -1    0    0    0    0 -0.00000000000E+00 -0.00000000000E+00 -0.74505805969E-08  0.93827000000E+00  0.93827000000E+00 0.  1.
     999902    2    1    2    0    0  0.46964761136E-02  0.14680501475E-01 -0.17664222903E-01  0.10204864768E+01  0.10202171585E+01 0.  0.
     999903    2    3    3    0    0 -0.37307817063E-01 -0.11909545136E+00  0.23393187792E-01  0.12844047055E+00  0.19342013644E-01 0.  0.
         14    1    1    2    0    0 -0.46964761136E-02 -0.14680501475E-01  0.17664222903E-01  0.23443523247E-01  0.00000000000E+00 0. -1.
     999901    1    3    3    0    0  0.42004293177E-01  0.13377595284E+00 -0.41057410695E-01  0.89204600620E+00  0.88000000000E+00 0. -1.
        -11    1    4    4    0    0 -0.37192424865E-01 -0.11559257161E+00  0.19178072688E-01  0.12293485539E+00  0.51100000000E-03 0.  1.
         11    1    4    4    0    0 -0.11539219826E-03 -0.35028797562E-02  0.42151151036E-02  0.55056151593E-02  0.51100000000E-03 0. -1.
</event>
<event>
 8    1  0.1083484E+005  0.1043930E+01  0.7957747E-01            NaN
         13   -1    0    0    0    0  0.00000000000E+00  0.00000000000E+00  0.74505805969E-08  0.10566000000E+00  0.10566000000E+00 0.  1.
     999900   -1    0    0    0    0 -0.00000000000E+00 -0.00000000000E+00 -0.74505805969E-08  0.93827000000E+00  0.93827000000E+00 0.  1.
     999902    2    1    2    0    0  0.17787859599E-01 -0.69430075970E-02 -0.15371456478E-01  0.10194168407E+01  0.10191220732E+01 0.  0.
     999903    2    3    3    0    0 -0.57956705601E-01  0.11117301687E+00  0.15303534437E-01  0.12777252292E+00  0.19318386188E-01 0.  0.
         14    1    1    2    0    0 -0.17787859599E-01  0.69430075970E-02  0.15371456478E-01  0.24513159280E-01  0.00000000000E+00 0.  1.
     999901    1    3    3    0    0  0.75744565200E-01 -0.11811602446E+00 -0.30674990915E-01  0.89164431780E+00  0.88000000000E+00 0.  1.
        -11    1    4    4    0    0 -0.37106203323E-01  0.88495012145E-01  0.96184472611E-02  0.96441760396E-01  0.51100000000E-03 0.  1.
         11    1    4    4    0    0 -0.20850502278E-01  0.22678004720E-01  0.56850871760E-02  0.31330762527E-01  0.51100000000E-03 0. -1.
</event>
<event>
 8    1  0.1083484E+005  0.1043930E+01  0.7957747E-01            NaN
         13   -1    0    0    0    0  0.00000000000E+00  0.00000000000E+00  0.74505805969E-08  0.10566000000E+00  0.10566000000E+00 0.  1.
     999900   -1    0    0    0    0 -0.00000000000E+00 -0.00000000000E+00 -0.74505805969E-08  0.93827000000E+00  0.93827000000E+00 0. -1.
     999902    2    1    2    0    0  0.21766025227E-01 -0.12197384556E-01  0.24766778016E-02  0.10188567079E+01  0.10185481438E+01 0.  0.
     999903    2    3    3    0    0 -0.10579598348E+00 -0.63363019598E-02  0.67608322601E-01  0.12725783536E+00  0.19766955568E-01 0.  0.
         14    1    1    2    0    0 -0.21766025227E-01  0.12197384556E-01 -0.24766778016E-02  0.25073292108E-01  0.00000000000E+00 0. -1.
     999901    1    3    3    0    0  0.12756200870E+00 -0.58610825958E-02 -0.65131644800E-01  0.89159887254E+00  0.88000000000E+00 0. -1.
        -11    1    4    4    0    0 -0.69736604807E-01 -0.94977933549E-02  0.35311275851E-01  0.78743567685E-01  0.51100000000E-03 0. -1.
         11    1    4    4    0    0 -0.36059378669E-01  0.31614913951E-02  0.32297046751E-01  0.48514267671E-01  0.51100000000E-03 0.  1.
</event>
<event>
 8    1  0.1083484E+005  0.1043930E+01  0.7957747E-01            NaN
         13   -1    0    0    0    0  0.00000000000E+00  0.00000000000E+00  0.74505805969E-08  0.10566000000E+00  0.10566000000E+00 0.  1.
     999900   -1    0    0    0    0 -0.00000000000E+00 -0.00000000000E+00 -0.74505805969E-08  0.93827000000E+00  0.93827000000E+00 0.  1.
     999902    2    1    2    0    0  0.10256164703E-01  0.21358034621E-01  0.30868391722E-02  0.10200368392E+01  0.10197569662E+01 0.  0.
     999903    2    3    3    0    0 -0.95281963178E-01 -0.78167489229E-01  0.29412834902E-01  0.12777192092E+00  0.16484539369E-01 0.  0.
         14    1    1    2    0    0 -0.10256164703E-01 -0.21358034621E-01 -0.30868391722E-02  0.23893160808E-01  0.00000000000E+00 0.  1.
     999901    1    3    3    0    0  0.10553812788E+00  0.99525523851E-01 -0.26325995730E-01  0.89226491828E+00  0.88000000000E+00 0.  1.
        -11    1    4    4    0    0 -0.44063408133E-01 -0.27060448269E-01  0.16432102287E-01  0.54259809282E-01  0.51100000000E-03 0. -1.
         11    1    4    4    0    0 -0.51218555046E-01 -0.51107040961E-01  0.12980732615E-01  0.73512111634E-01  0.51100000000E-03 0.  1.
</event>
<event>
 8    1  0.1083484E+005  0.1043930E+01  0.7957747E-01            NaN
         13   -1    0    0    0    0  0.00000000000E+00  0.00000000000E+00  0.74505805969E-08  0.10566000000E+00  0.10566000000E+00 0.  1.
     999900   -1    0    0    0    0 -0.00000000000E+00 -0.00000000000E+00 -0.74505805969E-08  0.93827000000E+00  0.93827000000E+00 0. -1.
     999902    2    1    2    0    0 -0.22293507263E-01  0.25231138921E-02  0.45170658183E-02  0.10210439682E+01  0.10207874482E+01 0.  0.
     999903    2    3    3    0    0 -0.91160219431E-01  0.61623457806E-01 -0.70502535893E-01  0.13320196908E+00  0.25778301724E-01 0.  0.
         14    1    1    2    0    0  0.22293507263E-01 -0.25231138921E-02 -0.45170658183E-02  0.22886031840E-01  0.00000000000E+00 0.  1.
     999901    1    3    3    0    0  0.68866712168E-01 -0.59100343914E-01  0.75019601711E-01  0.88784199908E+00  0.88000000000E+00 0.  1.
        -11    1    4    4    0    0 -0.49064330873E-01  0.26136835208E-01 -0.21875790425E-01  0.59743234315E-01  0.51100000000E-03 0. -1.
         11    1    4    4    0    0 -0.42095888558E-01  0.35486622598E-01 -0.48626745468E-01  0.73458734761E-01  0.51100000000E-03 0.  1.
</event>
<event>
 8    1  0.1083484E+005  0.1043930E+01  0.7957747E-01            NaN
         13   -1    0    0    0    0  0.00000000000E+00  0.00000000000E+00  0.74505805969E-08  0.10566000000E+00  0.10566000000E+00 0.  1.
     999900   -1    0    0    0    0 -0.00000000000E+00 -0.00000000000E+00 -0.74505805969E-08  0.93827000000E+00  0.93827000000E+00 0. -1.
     999902    2    1    2    0    0 -0.16330609021E-01 -0.15907382947E-01 -0.10120936516E-01  0.10189867248E+01  0.10186813919E+01 0.  0.
     999903    2    3    3    0    0 -0.86776950598E-02 -0.97211968704E-01 -0.86642356962E-01  0.13189905687E+00  0.19104814366E-01 0.  0.
         14    1    1    2    0    0  0.16330609021E-01  0.15907382947E-01  0.10120936516E-01  0.24943275230E-01  0.00000000000E+00 0.  1.
     999901    1    3    3    0    0 -0.76529139611E-02  0.81304585756E-01  0.76521420446E-01  0.88708766790E+00  0.88000000000E+00 0. -1.
        -11    1    4    4    0    0  0.39427561804E-02 -0.87726779255E-02 -0.12650593566E-01  0.15899806378E-01  0.51100000000E-03 0. -1.
         11    1    4    4    0    0 -0.12620451240E-01 -0.88439290778E-01 -0.73991763396E-01  0.11599925049E+00  0.51100000000E-03 0.  1.
</event>
<event>
 8    1  0.1083484E+005  0.1043930E+01  0.7957747E-01            NaN
         13   -1    0    0    0    0  0.00000000000E+00  0.00000000000E+00  0.74505805969E-08  0.10566000000E+00  0.10566000000E+00 0.  1.
     999900   -1    0    0    0    0 -0.00000000000E+00 -0.00000000000E+00 -0.74505805969E-08  0.93827000000E+00  0.93827000000E+00 0.  1.
     999902    2    1    2    0    0 -0.18780522163E-01 -0.14840996725E-01  0.18385583481E-03  0.10199926443E+01  0.10197117227E+01 0.  0.
     999903    2    3    3    0    0 -0.79902417628E-01 -0.62060288281E-01 -0.83541180462E-01  0.13265086721E+00  0.19525573365E-01 0.  0.
         14    1    1    2    0    0  0.18780522163E-01  0.14840996725E-01 -0.18385583481E-03  0.23937355733E-01  0.00000000000E+00 0.  1.
     999901    1    3    3    0    0  0.61121895465E-01  0.47219291556E-01  0.83725036297E-01  0.88734177705E+00  0.88000000000E+00 0. -1.
        -11    1    4    4    0    0 -0.63284355802E-01 -0.43168347930E-01 -0.53386336816E-01  0.93374397090E-01  0.51100000000E-03 0. -1.
         11    1    4    4    0    0 -0.16618061827E-01 -0.18891940351E-01 -0.30154843647E-01  0.39276470125E-01  0.51100000000E-03 0.  1.
</event>
<event>
 8    1  0.1083484E+005  0.1043930E+01  0.7957747E-01            NaN
         13   -1    0    0    0    0  0.00000000000E+00  0.00000000000E+00  0.74505805969E-08  0.10566000000E+00  0.10566000000E+00 0.  1.
     999900   -1    0    0    0    0 -0.00000000000E+00 -0.00000000000E+00 -0.74505805969E-08  0.93827000000E+00  0.93827000000E+00 0. -1.
     999902    2    1    2    0    0 -0.21868610460E-01 -0.32564872755E-02  0.84990585697E-02  0.10202429818E+01  0.10199679736E+01 0.  0.
     999903    2    3    3    0    0  0.55856134370E-01  0.45603068285E-01  0.10641831147E+00  0.13006515004E+00  0.19812588332E-01 0.  0.
         14    1    1    2    0    0  0.21868610460E-01  0.32564872755E-02 -0.84990585697E-02  0.23687018161E-01  0.00000000000E+00 0. -1.
     999901    1    3    3    0    0 -0.77724744830E-01 -0.48859555560E-01 -0.97919252900E-01  0.89017783179E+00  0.88000000000E+00 0. -1.
        -11    1    4    4    0    0  0.47010881216E-01  0.32474974708E-01  0.93720446008E-01  0.10976534087E+00  0.51100000000E-03 0. -1.
         11    1    4    4    0    0  0.88452531541E-02  0.13128093577E-01  0.12697865461E-01  0.20299809176E-01  0.51100000000E-03 0.  1.
</event>
<event>
 8    1  0.1083484E+005  0.1043930E+01  0.7957747E-01            NaN
         13   -1    0    0    0    0  0.00000000000E+00  0.00000000000E+00  0.74505805969E-08  0.10566000000E+00  0.10566000000E+00 0. -1.
     999900   -1    0    0    0    0 -0.00000000000E+00 -0.00000000000E+00 -0.74505805969E-08  0.93827000000E+00  0.93827000000E+00 0.  1.
     999902    2    1    2    0    0 -0.13796962060E-01  0.15667702695E-01  0.11207461867E-01  0.10202352691E+01  0.10199600797E+01 0.  0.
     999903    2    3    3    0    0 -0.18941023225E-01 -0.12586352110E+00  0.30453855747E-02  0.12887441730E+00  0.19973801716E-01 0.  0.
         14    1    1    2    0    0  0.13796962060E-01 -0.15667702695E-01 -0.11207461867E-01  0.23694730877E-01  0.00000000000E+00 0.  1.
     999901    1    3    3    0    0  0.51440611641E-02  0.14153122380E+00  0.81620762928E-02  0.89136085182E+00  0.88000000000E+00 0. -1.
        -11    1    4    4    0    0 -0.12788763315E-01 -0.33615991367E-01 -0.37843383609E-02  0.36168628403E-01  0.51100000000E-03 0.  1.
         11    1    4    4    0    0 -0.61522599098E-02 -0.92247529737E-01  0.68297239356E-02  0.92705788895E-01  0.51100000000E-03 0. -1.
</event>
<event>
 8    1  0.1083484E+005  0.1043930E+01  0.7957747E-01            NaN
         13   -1    0    0    0    0  0.00000000000E+00  0.00000000000E+00  0.74505805969E-08  0.10566000000E+00  0.10566000000E+00 0. -1.
     999900   -1    0    0    0    0 -0.00000000000E+00 -0.00000000000E+00 -0.74505805969E-08  0.93827000000E+00  0.93827000000E+00 0. -1.
     999902    2    1    2    0    0 -0.38224482154E-02 -0.23426740752E-01 -0.22285519108E-02  0.10200890743E+01  0.10198104382E+01 0.  0.
     999903    2    3    3    0    0 -0.55672210031E-01 -0.58350983664E-01 -0.10171621155E+00  0.13227946921E+00  0.25444803354E-01 0.  0.
         14    1    1    2    0    0  0.38224482154E-02  0.23426740752E-01  0.22285519108E-02  0.23840925658E-01  0.00000000000E+00 0. -1.
     999901    1    3    3    0    0  0.51849761815E-01  0.34924242911E-01  0.99487659641E-01  0.88780960513E+00  0.88000000000E+00 0.  1.
        -11    1    4    4    0    0 -0.20214742579E-01 -0.21464783220E-01 -0.19208013788E-01  0.35193488757E-01  0.51100000000E-03 0.  1.
         11    1    4    4    0    0 -0.35457467452E-01 -0.36886200444E-01 -0.82508197764E-01  0.97085980453E-01  0.51100000000E-03 0. -1.
</event>
<event>
 8    1  0.1083484E+005  0.1043930E+01  0.7957747E-01            NaN
         13   -1    0    0    0    0  0.00000000000E+00  0.00000000000E+00  0.74505805969E-08  0.10566000000E+00  0.10566000000E+00 0.  1.
     999900   -1    0    0    0    0 -0.00000000000E+00 -0.00000000000E+00 -0.74505805969E-08  0.93827000000E+00  0.93827000000E+00 0. -1.
     999902    2    1    2    0    0  0.18215269461E-02 -0.70827800612E-02  0.22608164609E-01  0.10201684167E+01  0.10198916539E+01 0.  0.
     999903    2    3    3    0    0 -0.10510353785E+00  0.73391028211E-01  0.10293971418E-01  0.12996583153E+00  0.18765788742E-01 0.  0.
         14    1    1    2    0    0 -0.18215269461E-02  0.70827800612E-02 -0.22608164609E-01  0.23761583298E-01  0.00000000000E+00 0. -1.
     999901    1    3    3    0    0  0.10692506479E+00 -0.80473808272E-01  0.12314193191E-01  0.89020258518E+00  0.88000000000E+00 0. -1.
        -11    1    4    4    0    0 -0.14822301883E-01  0.16219656124E-01  0.69517912710E-02  0.23051386092E-01  0.51100000000E-03 0. -1.
         11    1    4    4    0    0 -0.90281235964E-01  0.57171372087E-01  0.33421801471E-02  0.10691444544E+00  0.51100000000E-03 0.  1.
</event>
<event>
 8    1  0.1083484E+005  0.1043930E+01  0.7957747E-01            NaN
         13   -1    0    0    0    0  0.00000000000E+00  0.00000000000E+00  0.74505805969E-08  0.10566000000E+00  0.10566000000E+00 0. -1.
     999900   -1    0    0    0    0 -0.00000000000E+00 -0.00000000000E+00 -0.74505805969E-08  0.93827000000E+00  0.93827000000E+00 0. -1.
     999902    2    1    2    0    0 -0.23295824174E-01  0.79129740650E-02  0.13570389384E-02  0.10192895427E+01  0.10189916681E+01 0.  0.
     999903    2    3    3    0    0 -0.72928371114E-01  0.10508434672E+00  0.28384328988E-01  0.13213896933E+00  0.17139715447E-01 0.  0.
         14    1    1    2    0    0  0.23295824174E-01 -0.79129740650E-02 -0.13570389384E-02  0.24640457325E-01  0.00000000000E+00 0.  1.
     999901    1    3    3    0    0  0.49632546940E-01 -0.97171372650E-01 -0.27027290050E-01  0.88715057334E+00  0.88000000000E+00 0. -1.
        -11    1    4    4    0    0 -0.12857935790E-01  0.31732344309E-01  0.77102128446E-02  0.35099525514E-01  0.51100000000E-03 0.  1.
         11    1    4    4    0    0 -0.60070435324E-01  0.73352002406E-01  0.20674116144E-01  0.97039443817E-01  0.51100000000E-03 0. -1.
</event>
<event>
 8    1  0.1083484E+005  0.1043930E+01  0.7957747E-01            NaN
         13   -1    0    0    0    0  0.00000000000E+00  0.00000000000E+00  0.74505805969E-08  0.10566000000E+00  0.10566000000E+00 0. -1.
     999900   -1    0    0    0    0 -0.00000000000E+00 -0.00000000000E+00 -0.74505805969E-08  0.93827000000E+00  0.93827000000E+00 0.  1.
     999902    2    1    2    0    0  0.79144169579E-02  0.82929513245E-02  0.20074949993E-01  0.10208125898E+01  0.10205507968E+01 0.  0.
     999903    2    3    3    0    0  0.79658303698E-01 -0.95236516741E-01  0.38736404848E-01  0.13164793353E+00  0.20377190053E-01 0.  0.
         14    1    1    2    0    0 -0.79144169579E-02 -0.82929513245E-02 -0.20074949993E-01  0.23117410207E-01  0.00000000000E+00 0.  1.
     999901    1    3    3    0    0 -0.71743886740E-01  0.10352946807E+00 -0.18661454855E-01  0.88916465626E+00  0.88000000000E+00 0. -1.
        -11    1    4    4    0    0  0.17419450186E-01 -0.95211312062E-02  0.72085033193E-02  0.21126117138E-01  0.51100000000E-03 0.  1.
         11    1    4    4    0    0  0.62238853512E-01 -0.85715385535E-01  0.31527901529E-01  0.11052181640E+00  0.51100000000E-03 0. -1.
</event>
<event>
 8    1  0.1083484E+005  0.1043930E+01  0.7957747E-01            NaN
         13   -1    0    0    0    0  0.00000000000E+00  0.00000000000E+00  0.74505805969E-08  0.10566000000E+00  0.10566000000E+00 0. -1.
     999900   -1    0    0    0    0 -0.00000000000E+00 -0.00000000000E+00 -0.74505805969E-08  0.93827000000E+00  0.93827000000E+00 0. -1.
     999902    2    1    2    0    0  0.18734766865E-01 -0.11086451570E-01 -0.44466398980E-02  0.10217112353E+01  0.10214696152E+01 0.  0.
     999903    2    3    3    0    0 -0.96437256156E-01 -0.82719688382E-01 -0.25193116297E-01  0.13107868943E+00  0.20105683093E-01 0.  0.
         14    1    1    2    0    0 -0.18734766865E-01  0.11086451570E-01  0.44466398980E-02  0.22218764689E-01  0.00000000000E+00 0.  1.
     999901    1    3    3    0    0  0.11517202302E+00  0.71633236811E-01  0.20746476399E-01  0.89063254588E+00  0.88000000000E+00 0.  1.
        -11    1    4    4    0    0 -0.67492308939E-01 -0.66890425604E-01 -0.24250034498E-01  0.98070719879E-01  0.51100000000E-03 0. -1.
         11    1    4    4    0    0 -0.28944947218E-01 -0.15829262778E-01 -0.94308179809E-03  0.33007969550E-01  0.51100000000E-03 0.  1.
</event>
<event>
 8    1  0.1083484E+005  0.1043930E+01  0.7957747E-01            NaN
         13   -1    0    0    0    0  0.00000000000E+00  0.00000000000E+00  0.74505805969E-08  0.10566000000E+00  0.10566000000E+00 0.  1.
     999900   -1    0    0    0    0 -0.00000000000E+00 -0.00000000000E+00 -0.74505805969E-08  0.93827000000E+00  0.93827000000E+00 0.  1.
     999902    2    1    2    0    0 -0.50822561365E-03 -0.12916510902E-01  0.19111654645E-01  0.10208572912E+01  0.10205965212E+01 0.  0.
     999903    2    3    3    0    0 -0.93980506153E-01 -0.14013615349E-02 -0.88463890326E-01  0.12931808077E+00  0.79376804963E-02 0.  0.
         14    1    1    2    0    0  0.50822561365E-03  0.12916510902E-01 -0.19111654645E-01  0.23072708780E-01  0.00000000000E+00 0. -1.
     999901    1    3    3    0    0  0.93472280539E-01 -0.11515149367E-01  0.10757554497E+00  0.89153921045E+00  0.88000000000E+00 0.  1.
        -11    1    4    4    0    0 -0.38019386583E-01 -0.43641781855E-02 -0.34919657799E-01  0.51808912643E-01  0.51100000000E-03 0.  1.
         11    1    4    4    0    0 -0.55961119569E-01  0.29628166506E-02 -0.53544232527E-01  0.77509168127E-01  0.51100000000E-03 0. -1.
</event>
<event>
 8    1  0.1083484E+005  0.1043930E+01  0.7957747E-01            NaN
         13   -1    0    0    0    0  0.00000000000E+00  0.00000000000E+00  0.74505805969E-08  0.10566000000E+00  0.10566000000E+00 0. -1.
     999900   -1    0    0    0    0 -0.00000000000E+00 -0.00000000000E+00 -0.74505805969E-08  0.93827000000E+00  0.93827000000E+00 0.  1.
     999902    2    1    2    0    0 -0.72503805507E-02  0.19118043136E-01 -0.51442707468E-02  0.10228460935E+01  0.10226287693E+01 0.  0.
     999903    2    3    3    0    0 -0.11340044183E-01  0.26167245886E-01 -0.12935434512E+00  0.13408596885E+00  0.20812954676E-01 0.  0.
         14    1    1    2    0    0  0.72503805507E-02 -0.19118043136E-01  0.51442707468E-02  0.21083906493E-01  0.00000000000E+00 0. -1.
     999901    1    3    3    0    0  0.40896636323E-02 -0.70492027500E-02  0.12421007437E+00  0.88876012466E+00  0.88000000000E+00 0. -1.
        -11    1    4    4    0    0 -0.10078861399E-01  0.12579809491E-01 -0.10441247529E+00  0.10565065627E+00  0.51100000000E-03 0. -1.
         11    1    4    4    0    0 -0.12611827842E-02  0.13587436395E-01 -0.24941869826E-01  0.28435312575E-01  0.51100000000E-03 0.  1.
</event>
<event>
 8    1  0.1083484E+005  0.1043930E+01  0.7957747E-01            NaN
         13   -1    0    0    0    0  0.00000000000E+00  0.00000000000E+00  0.74505805969E-08  0.10566000000E+00  0.10566000000E+00 0.  1.
     999900   -1    0    0    0    0 -0.00000000000E+00 -0.00000000000E+00 -0.74505805969E-08  0.93827000000E+00  0.93827000000E+00 0. -1.
     999902    2    1    2    0    0 -0.17302071993E-02 -0.75412631727E-02  0.21967651672E-01  0.10206396160E+01  0.10203738451E+01 0.  0.
     999903    2    3    3    0    0 -0.97583516891E-01  0.34737214859E-01 -0.74597961656E-01  0.12918000145E+00  0.19834314372E-01 0.  0.
         14    1    1    2    0    0  0.17302071993E-02  0.75412631727E-02 -0.21967651672E-01  0.23290384006E-01  0.00000000000E+00 0. -1.
     999901    1    3    3    0    0  0.95853309691E-01 -0.42278478032E-01  0.96565613328E-01  0.89145961454E+00  0.88000000000E+00 0.  1.
        -11    1    4    4    0    0 -0.38762403909E-01  0.98447777958E-02 -0.18085071145E-01  0.43895039879E-01  0.51100000000E-03 0. -1.
         11    1    4    4    0    0 -0.58821112982E-01  0.24892437063E-01 -0.56512890512E-01  0.85284961572E-01  0.51100000000E-03 0.  1.
</event>
<event>
 8    1  0.1083484E+005  0.1043930E+01  0.7957747E-01            NaN
         13   -1    0    0    0    0  0.00000000000E+00  0.00000000000E+00  0.74505805969E-08  0.10566000000E+00  0.10566000000E+00 0.  1.
     999900   -1    0    0    0    0 -0.00000000000E+00 -0.00000000000E+00 -0.74505805969E-08  0.93827000000E+00  0.93827000000E+00 0. -1.
     999902    2    1    2    0    0  0.16463850843E-01  0.11614320091E-01  0.70390898394E-02  0.10225875634E+01  0.10223648200E+01 0.  0.
     999903    2    3    3    0    0 -0.92551218203E-01 -0.42907255209E-01 -0.78278628620E-01  0.13009890767E+00  0.19784376135E-01 0.  0.
         14    1    1    2    0    0 -0.16463850843E-01 -0.11614320091E-01 -0.70390898394E-02  0.21342436635E-01  0.00000000000E+00 0. -1.
     999901    1    3    3    0    0  0.10901506905E+00  0.54521575300E-01  0.85317718460E-01  0.89248865569E+00  0.88000000000E+00 0.  1.
        -11    1    4    4    0    0 -0.39597750896E-01 -0.16413815292E-01 -0.21078877211E-01  0.47770026103E-01  0.51100000000E-03 0.  1.
         11    1    4    4    0    0 -0.52953467307E-01 -0.26493439917E-01 -0.57199751410E-01  0.82328881571E-01  0.51100000000E-03 0. -1.
</event>
<event>
 8    1  0.1083484E+005  0.1043930E+01  0.7957747E-01            NaN
         13   -1    0    0    0    0  0.00000000000E+00  0.00000000000E+00  0.74505805969E-08  0.10566000000E+00  0.10566000000E+00 0. -1.
     999900   -1    0    0    0    0 -0.00000000000E+00 -0.00000000000E+00 -0.74505805969E-08  0.93827000000E+00  0.93827000000E+00 0. -1.
     999902    2    1    2    0    0 -0.44391748090E-02  0.23122047995E-01 -0.17908664696E-02  0.10203176604E+01  0.10200444038E+01 0.  0.
     999903    2    3    3    0    0 -0.27423812334E-01 -0.71553342562E-01  0.10158555536E+00  0.12892638400E+00  0.20747074901E-01 0.  0.
         14    1    1    2    0    0  0.44391748090E-02 -0.23122047995E-01  0.17908664696E-02  0.23612339554E-01  0.00000000000E+00 0. -1.
     999901    1    3    3    0    0  0.22984637525E-01  0.94675390557E-01 -0.10337642183E+00  0.89139127645E+00  0.88000000000E+00 0. -1.
        -11    1    4    4    0    0 -0.28995693910E-01 -0.52487764495E-01  0.72149995888E-01  0.93816835987E-01  0.51100000000E-03 0. -1.
         11    1    4    4    0    0  0.15718815761E-02 -0.19065578067E-01  0.29435559477E-01  0.35109548010E-01  0.51100000000E-03 0.  1.
</event>
<event>
 8    1  0.1083484E+005  0.1043930E+01  0.7957747E-01            NaN
         13   -1    0    0    0    0  0.00000000000E+00  0.00000000000E+00  0.74505805969E-08  0.10566000000E+00  0.10566000000E+00 0.  1.
     999900   -1    0    0    0    0 -0.00000000000E+00 -0.00000000000E+00 -0.74505805969E-08  0.93827000000E+00  0.93827000000E+00 0.  1.
     999902    2    1    2    0    0  0.31925784598E-02  0.21603922809E-02  0.23524660637E-01  0.10200915959E+01  0.10198130194E+01 0.  0.
     999903    2    3    3    0    0  0.11881872801E+00 -0.44329185660E-01 -0.21284467733E-01  0.13018230541E+00  0.20283915968E-01 0.  0.
         14    1    1    2    0    0 -0.31925784598E-02 -0.21603922809E-02 -0.23524660637E-01  0.23838404101E-01  0.00000000000E+00 0. -1.
     999901    1    3    3    0    0 -0.11562614955E+00  0.46489577941E-01  0.44809128370E-01  0.88990929049E+00  0.88000000000E+00 0.  1.
        -11    1    4    4    0    0  0.49923965879E-01 -0.27428971406E-01 -0.15341139789E-01  0.58994597486E-01  0.51100000000E-03 0.  1.
         11    1    4    4    0    0  0.68894762132E-01 -0.16900214255E-01 -0.59433279438E-02  0.71187707921E-01  0.51100000000E-03 0. -1.
</event>
<event>
 8    1  0.1083484E+005  0.1043930E+01  0.7957747E-01            NaN
         13   -1    0    0    0    0  0.00000000000E+00  0.00000000000E+00  0.74505805969E-08  0.10566000000E+00  0.10566000000E+00 0. -1.
     999900   -1    0    0    0    0 -0.00000000000E+00 -0.00000000000E+00 -0.74505805969E-08  0.93827000000E+00  0.93827000000E+00 0.  1.
     999902    2    1    2    0    0 -0.18246825723E-01  0.84478176920E-02 -0.16055463782E-01  0.10181988867E+01  0.10178737067E+01 0.  0.
     999903    2    3    3    0    0 -0.83042830439E-01  0.87715699929E-02 -0.10010535704E+00  0.13182254928E+00  0.19571659672E-01 0.  0.
         14    1    1    2    0    0  0.18246825723E-01 -0.84478176920E-02  0.16055463782E-01  0.25731113267E-01  0.00000000000E+00 0. -1.
     999901    1    3    3    0    0  0.64796004716E-01 -0.32375230097E-03  0.84049893259E-01  0.88637633745E+00  0.88000000000E+00 0. -1.
        -11    1    4    4    0    0 -0.36485390254E-01  0.80731406494E-02 -0.58269579089E-01  0.69224015126E-01  0.51100000000E-03 0.  1.
         11    1    4    4    0    0 -0.46557440185E-01  0.69842934357E-03 -0.41835777952E-01  0.62598534152E-01  0.51100000000E-03 0. -1.
</event>
<event>
 8    1  0.1083484E+005  0.1043930E+01  0.7957747E-01            NaN
         13   -1    0    0    0    0  0.00000000000E+00  0.00000000000E+00  0.74505805969E-08  0.10566000000E+00  0.10566000000E+00 0.  1.
     999900   -1    0    0    0    0 -0.00000000000E+00 -0.00000000000E+00 -0.74505805969E-08  0.93827000000E+00  0.93827000000E+00 0.  1.
     999902    2    1    2    0    0 -0.25732776995E-01 -0.50299541356E-02  0.61919461789E-02  0.10169890192E+01  0.10166321108E+01 0.  0.
     999903    2    3    3    0    0  0.53054423004E-01  0.10858747820E+00  0.27427866035E-01  0.12594058721E+00  0.22421673625E-01 0.  0.
         14    1    1    2    0    0  0.25732776995E-01  0.50299541356E-02 -0.61919461789E-02  0.26940980828E-01  0.00000000000E+00 0.  1.
     999901    1    3    3    0    0 -0.78787199998E-01 -0.11361743234E+00 -0.21235919856E-01  0.89104843196E+00  0.88000000000E+00 0.  1.
        -11    1    4    4    0    0  0.30839949948E-01  0.42644865988E-01  0.18487287512E-01  0.55782865008E-01  0.51100000000E-03 0.  1.
         11    1    4    4    0    0  0.22214473055E-01  0.65942612215E-01  0.89405785236E-02  0.70157722200E-01  0.51100000000E-03 0. -1.
</event>
<event>
 8    1  0.1083484E+005  0.1043930E+01  0.7957747E-01            NaN
         13   -1    0    0    0    0  0.00000000000E+00  0.00000000000E+00  0.74505805969E-08  0.10566000000E+00  0.10566000000E+00 0. -1.
     999900   -1    0    0    0    0 -0.00000000000E+00 -0.00000000000E+00 -0.74505805969E-08  0.93827000000E+00  0.93827000000E+00 0. -1.
     999902    2    1    2    0    0 -0.15792534914E-01  0.11764873088E-01  0.11161330903E-01  0.10212939291E+01  0.10210430441E+01 0.  0.
     999903    2    3    3    0    0  0.22706816280E-01  0.10932422370E+00  0.69575890760E-01  0.13314287904E+00  0.20465489773E-01 0.  0.
         14    1    1    2    0    0  0.15792534914E-01 -0.11764873088E-01 -0.11161330903E-01  0.22636070890E-01  0.00000000000E+00 0.  1.
     999901    1    3    3    0    0 -0.38499351194E-01 -0.97559350611E-01 -0.58414559857E-01  0.88815105007E+00  0.88000000000E+00 0.  1.
        -11    1    4    4    0    0  0.11188359384E-01  0.82523166192E-01  0.43227110498E-01  0.93830147326E-01  0.51100000000E-03 0. -1.
         11    1    4    4    0    0  0.11518456896E-01  0.26801057507E-01  0.26348780262E-01  0.39312731717E-01  0.51100000000E-03 0.  1.
</event>
<event>
 8    1  0.1083484E+005  0.1043930E+01  0.7957747E-01            NaN
         13   -1    0    0    0    0  0.00000000000E+00  0.00000000000E+00  0.74505805969E-08  0.10566000000E+00  0.10566000000E+00 0. -1.
     999900   -1    0    0    0    0 -0.00000000000E+00 -0.00000000000E+00 -0.74505805969E-08  0.93827000000E+00  0.93827000000E+00 0.  1.
     999902    2    1    2    0    0  0.10254198173E-01 -0.20812719162E-01 -0.47246152753E-02  0.10202521655E+01  0.10199773729E+01 0.  0.
     999903    2    3    3    0    0  0.84429257650E-01 -0.35230037817E-02 -0.99344271153E-01  0.13190890242E+00  0.19747486520E-01 0.  0.
         14    1    1    2    0    0 -0.10254198173E-01  0.20812719162E-01  0.47246152753E-02  0.23677834542E-01  0.00000000000E+00 0.  1.
     999901    1    3    3    0    0 -0.74175059477E-01 -0.17289715380E-01  0.94619655877E-01  0.88834326304E+00  0.88000000000E+00 0.  1.
        -11    1    4    4    0    0  0.21607442963E-01  0.67241155157E-02 -0.20157626717E-01  0.30309839273E-01  0.51100000000E-03 0.  1.
         11    1    4    4    0    0  0.62821814687E-01 -0.10247119297E-01 -0.79186644436E-01  0.10159906315E+00  0.51100000000E-03 0. -1.
</event>
<event>
 8    1  0.1083484E+005  0.1043930E+01  0.7957747E-01            NaN
         13   -1    0    0    0    0  0.00000000000E+00  0.00000000000E+00  0.74505805969E-08  0.10566000000E+00  0.10566000000E+00 0.  1.
     999900   -1    0    0    0    0 -0.00000000000E+00 -0.00000000000E+00 -0.74505805969E-08  0.93827000000E+00  0.93827000000E+00 0. -1.
     999902    2    1    2    0    0  0.10954786493E-01 -0.43833264417E-02  0.20669050968E-01  0.10201301982E+01  0.10198525338E+01 0.  0.
     999903    2    3    3    0    0 -0.13597003347E-01 -0.11031493473E+00  0.68396900492E-01  0.13215370998E+00  0.20789510315E-01 0.  0.
         14    1    1    2    0    0 -0.10954786493E-01  0.43833264417E-02 -0.20669050968E-01  0.23799801800E-01  0.00000000000E+00 0.  1.
     999901    1    3    3    0    0  0.24551789840E-01  0.10593160829E+00 -0.47727849523E-01  0.88797648822E+00  0.88000000000E+00 0. -1.
        -11    1    4    4    0    0 -0.93131683067E-02 -0.15072523398E-01  0.10023231327E-01  0.20362768789E-01  0.51100000000E-03 0.  1.
         11    1    4    4    0    0 -0.42838350407E-02 -0.95242411331E-01  0.58373669164E-01  0.11179094119E+00  0.51100000000E-03 0. -1.
</event>
<event>
 8    1  0.1083484E+005  0.1043930E+01  0.7957747E-01            NaN
         13   -1    0    0    0    0  0.00000000000E+00  0.00000000000E+00  0.74505805969E-08  0.10566000000E+00  0.10566000000E+00 0. -1.
     999900   -1    0    0    0    0 -0.00000000000E+00 -0.00000000000E+00 -0.74505805969E-08  0.93827000000E+00  0.93827000000E+00 0. -1.
     999902    2    1    2    0    0  0.97913291131E-02  0.11409199953E-01  0.15084361447E-01  0.10226326309E+01  0.10224108371E+01 0.  0.
     999903    2    3    3    0    0 -0.24064515194E-01  0.87269064588E-02 -0.12659354902E+00  0.13065390741E+00  0.19729599076E-01 0.  0.
         14    1    1    2    0    0 -0.97913291131E-02 -0.11409199953E-01 -0.15084361447E-01  0.21297369078E-01  0.00000000000E+00 0.  1.
     999901    1    3    3    0    0  0.33855844307E-01  0.26822934945E-02  0.14167791046E+00  0.89197872352E+00  0.88000000000E+00 0.  1.
        -11    1    4    4    0    0 -0.13071898371E-01 -0.54956275547E-02 -0.62079478048E-01  0.63680445703E-01  0.51100000000E-03 0. -1.
         11    1    4    4    0    0 -0.10992616824E-01  0.14222534014E-01 -0.64514070970E-01  0.66973461703E-01  0.51100000000E-03 0.  1.
</event>
<event>
 8    1  0.1083484E+005  0.1043930E+01  0.7957747E-01            NaN
         13   -1    0    0    0    0  0.00000000000E+00  0.00000000000E+00  0.74505805969E-08  0.10566000000E+00  0.10566000000E+00 0.  1.
     999900   -1    0    0    0    0 -0.00000000000E+00 -0.00000000000E+00 -0.74505805969E-08  0.93827000000E+00  0.93827000000E+00 0.  1.
     999902    2    1    2    0    0 -0.81757850657E-02  0.80305361739E-02 -0.19716464185E-01  0.10211249143E+01  0.10208702262E+01 0.  0.
     999903    2    3    3    0    0 -0.60475706421E-01  0.44177422672E-01  0.10442375828E+00  0.13014081008E+00  0.20575553829E-01 0.  0.
         14    1    1    2    0    0  0.81757850657E-02 -0.80305361739E-02  0.19716464185E-01  0.22805085674E-01  0.00000000000E+00 0.  1.
     999901    1    3    3    0    0  0.52299921355E-01 -0.36146886498E-01 -0.12414022246E+00  0.89098410424E+00  0.88000000000E+00 0.  1.
        -11    1    4    4    0    0 -0.30733153124E-01  0.10344336078E-01  0.48189335321E-01  0.58086187253E-01  0.51100000000E-03 0.  1.
         11    1    4    4    0    0 -0.29742553297E-01  0.33833086594E-01  0.56234422957E-01  0.72054622832E-01  0.51100000000E-03 0. -1.
</event>
<event>
 8    1  0.1083484E+005  0.1043930E+01  0.7957747E-01            NaN
         13   -1    0    0    0    0  0.00000000000E+00  0.00000000000E+00  0.74505805969E-08  0.10566000000E+00  0.10566000000E+00 0. -1.
     999900   -1    0    0    0    0 -0.00000000000E+00 -0.00000000000E+00 -0.74505805969E-08  0.93827000000E+00  0.93827000000E+00 0.  1.
     999902    2    1    2    0    0 -0.20275823495E-01  0.11775707834E-01 -0.27391099124E-02  0.10203232417E+01  0.10200501157E+01 0.  0.
     999903    2    3    3    0    0 -0.76325088316E-01  0.10659402561E+00  0.16117941812E-01  0.13325637734E+00  0.17597404703E-01 0.  0.
         14    1    1    2    0    0  0.20275823495E-01 -0.11775707834E-01  0.27391099124E-02  0.23606758281E-01  0.00000000000E+00 0.  1.
     999901    1    3    3    0    0  0.56049264820E-01 -0.94818317776E-01 -0.18857051724E-01  0.88706686438E+00  0.88000000000E+00 0. -1.
        -11    1    4    4    0    0 -0.20557209532E-01  0.42639343078E-01  0.80407961446E-02  0.48016954979E-01  0.51100000000E-03 0. -1.
         11    1    4    4    0    0 -0.55767878784E-01  0.63954682533E-01  0.80771456674E-02  0.85239422365E-01  0.51100000000E-03 0.  1.
</event>
<event>
 8    1  0.1170898E+005  0.1043930E+01  0.7957747E-01            NaN
         13   -1    0    0    0    0  0.00000000000E+00  0.00000000000E+00  0.74505805969E-08  0.10566000000E+00  0.10566000000E+00 0.  1.
     999900   -1    0    0    0    0 -0.00000000000E+00 -0.00000000000E+00 -0.74505805969E-08  0.93827000000E+00  0.93827000000E+00 0. -1.
     999902    2    1    2    0    0  0.19194259915E-01 -0.35464027993E-03 -0.13417025906E-01  0.10205086002E+01  0.10202397959E+01 0.  0.
     999903    2    3    3    0    0  0.15037800611E-01  0.11482420619E+00 -0.59555795810E-01  0.13179479426E+00  0.20303723895E-01 0.  0.
         14    1    1    2    0    0 -0.19194259915E-01  0.35464027993E-03  0.13417025906E-01  0.23421399778E-01  0.00000000000E+00 0. -1.
     999901    1    3    3    0    0  0.41564593043E-02 -0.11517884647E+00  0.46138769905E-01  0.88871380597E+00  0.88000000000E+00 0.  1.
        -11    1    4    4    0    0  0.18662072077E-02  0.79120145361E-01 -0.35271228961E-01  0.86647566871E-01  0.51100000000E-03 0. -1.
         11    1    4    4    0    0  0.13171593403E-01  0.35704060828E-01 -0.24284566850E-01  0.45147227384E-01  0.51100000000E-03 0.  1.
</event>
<event>
 8    1  0.1083484E+005  0.1043930E+01  0.7957747E-01            NaN
         13   -1    0    0    0    0  0.00000000000E+00  0.00000000000E+00  0.74505805969E-08  0.10566000000E+00  0.10566000000E+00 0.  1.
     999900   -1    0    0    0    0 -0.00000000000E+00 -0.00000000000E+00 -0.74505805969E-08  0.93827000000E+00  0.93827000000E+00 0.  1.
     999902    2    1    2    0    0 -0.10941678610E-01  0.47860199444E-02 -0.20421112369E-01  0.10202731163E+01  0.10199988155E+01 0.  0.
     999903    2    3    3    0    0  0.18932080766E-01 -0.12654228557E+00 -0.91341998817E-02  0.12995465654E+00  0.20818391623E-01 0.  0.
         14    1    1    2    0    0  0.10941678610E-01 -0.47860199444E-02  0.20421112369E-01  0.23656883736E-01  0.00000000000E+00 0.  1.
     999901    1    3    3    0    0 -0.29873759376E-01  0.13132830552E+00 -0.11286912487E-01  0.89031845972E+00  0.88000000000E+00 0. -1.
        -11    1    4    4    0    0  0.11837060514E-01 -0.66024826040E-01  0.54469760092E-02  0.67300255006E-01  0.51100000000E-03 0. -1.
         11    1    4    4    0    0  0.70950202524E-02 -0.60517459531E-01 -0.14581175891E-01  0.62654401536E-01  0.51100000000E-03 0.  1.
</event>
<event>
 8    1  0.1083484E+005  0.1043930E+01  0.7957747E-01            NaN
         13   -1    0    0    0    0  0.00000000000E+00  0.00000000000E+00  0.74505805969E-08  0.10566000000E+00  0.10566000000E+00 0.  1.
     999900   -1    0    0    0    0 -0.00000000000E+00 -0.00000000000E+00 -0.74505805969E-08  0.93827000000E+00  0.93827000000E+00 0.  1.
     999902    2    1    2    0    0  0.70768791312E-02  0.24979883794E-01  0.62975145774E-02  0.10172141713E+01  0.10168632823E+01 0.  0.
     999903    2    3    3    0    0  0.52991238473E-01  0.11692404830E+00 -0.16399250993E-01  0.13094276765E+00  0.19944135536E-01 0.  0.
         14    1    1    2    0    0 -0.70768791312E-02 -0.24979883794E-01 -0.62975145774E-02  0.26715828688E-01  0.00000000000E+00 0.  1.
     999901    1    3    3    0    0 -0.45914359341E-01 -0.91944164502E-01  0.22696765570E-01  0.88627140366E+00  0.88000000000E+00 0. -1.
        -11    1    4    4    0    0  0.32124256006E-01  0.61368257270E-01  0.37289668112E-03  0.69270708075E-01  0.51100000000E-03 0.  1.
         11    1    4    4    0    0  0.20866982467E-01  0.55555791026E-01 -0.16772147674E-01  0.61672059577E-01  0.51100000000E-03 0. -1.
</event>
<event>
 8    1  0.1083484E+005  0.1043930E+01  0.7957747E-01            NaN
         13   -1    0    0    0    0  0.00000000000E+00  0.00000000000E+00  0.74505805969E-08  0.10566000000E+00  0.10566000000E+00 0.  1.
     999900   -1    0    0    0    0 -0.00000000000E+00 -0.00000000000E+00 -0.74505805969E-08  0.93827000000E+00  0.93827000000E+00 0. -1.
     999902    2    1    2    0    0  0.18085359954E-01 -0.11919122954E-01 -0.93224645189E-02  0.10203492010E+01  0.10200766824E+01 0.  0.
     999903    2    3    3    0    0 -0.52442983293E-01  0.64580613969E-01  0.95484636915E-01  0.12804264748E+00  0.18886013062E-01 0.  0.
         14    1    1    2    0    0 -0.18085359954E-01  0.11919122954E-01  0.93224645189E-02  0.23580798997E-01  0.00000000000E+00 0.  1.
     999901    1    3    3    0    0  0.70528343246E-01 -0.76499736922E-01 -0.10480710143E+00  0.89230655352E+00  0.88000000000E+00 0.  1.
        -11    1    4    4    0    0 -0.36375034268E-01  0.45431147407E-01  0.52843963202E-01  0.78612199057E-01  0.51100000000E-03 0. -1.
         11    1    4    4    0    0 -0.16067949024E-01  0.19149466562E-01  0.42640673714E-01  0.49430448422E-01  0.51100000000E-03 0.  1.
</event>
<event>
 8    1  0.1083484E+005  0.1043930E+01  0.7957747E-01            NaN
         13   -1    0    0    0    0  0.00000000000E+00  0.00000000000E+00  0.74505805969E-08  0.10566000000E+00  0.10566000000E+00 0. -1.
     999900   -1    0    0    0    0 -0.00000000000E+00 -0.00000000000E+00 -0.74505805969E-08  0.93827000000E+00  0.93827000000E+00 0. -1.
     999902    2    1    2    0    0  0.18443218548E-01 -0.83833814990E-02  0.12341612961E-01  0.10202076728E+01  0.10199318344E+01 0.  0.
     999903    2    3    3    0    0  0.43825523821E-01  0.52543609344E-01 -0.10829345967E+00  0.12952861706E+00  0.19201088769E-01 0.  0.
         14    1    1    2    0    0 -0.18443218548E-01  0.83833814990E-02 -0.12341612961E-01  0.23722327168E-01  0.00000000000E+00 0. -1.
     999901    1    3    3    0    0 -0.25382305273E-01 -0.60926990843E-01  0.12063507263E+00  0.89067905577E+00  0.88000000000E+00 0.  1.
        -11    1    4    4    0    0  0.10127793843E-01  0.15018516401E-01 -0.15210363218E-01  0.23658916147E-01  0.51100000000E-03 0.  1.
         11    1    4    4    0    0  0.33697729978E-01  0.37525092943E-01 -0.93083096454E-01  0.10586970092E+00  0.51100000000E-03 0. -1.
</event>
<event>
 8    1  0.1083484E+005  0.1043930E+01  0.7957747E-01            NaN
         13   -1    0    0    0    0  0.00000000000E+00  0.00000000000E+00  0.74505805969E-08  0.10566000000E+00  0.10566000000E+00 0. -1.
     999900   -1    0    0    0    0 -0.00000000000E+00 -0.00000000000E+00 -0.74505805969E-08  0.93827000000E+00  0.93827000000E+00 0.  1.
     999902    2    1    2    0    0 -0.86676940587E-02 -0.10839032541E-01 -0.20004983996E-01  0.10195822500E+01  0.10192914949E+01 0.  0.
     999903    2    3    3    0    0 -0.76643357964E-01 -0.83861481446E-02 -0.10622504586E+00  0.13275610771E+00  0.19897034107E-01 0.  0.
         14    1    1    2    0    0  0.86676940587E-02  0.10839032541E-01  0.20004983996E-01  0.24347750027E-01  0.00000000000E+00 0. -1.
     999901    1    3    3    0    0  0.67975663905E-01 -0.24528843966E-02  0.86220061866E-01  0.88682614226E+00  0.88000000000E+00 0. -1.
        -11    1    4    4    0    0 -0.49368016170E-01 -0.87673150366E-03 -0.52739267892E-01  0.72247222628E-01  0.51100000000E-03 0.  1.
         11    1    4    4    0    0 -0.27275341794E-01 -0.75094166409E-02 -0.53485777970E-01  0.60508885086E-01  0.51100000000E-03 0. -1.
</event>
<event>
 8    1  0.1083484E+005  0.1043930E+01  0.7957747E-01            NaN
         13   -1    0    0    0    0  0.00000000000E+00  0.00000000000E+00  0.74505805969E-08  0.10566000000E+00  0.10566000000E+00 0.  1.
     999900   -1    0    0    0    0 -0.00000000000E+00 -0.00000000000E+00 -0.74505805969E-08  0.93827000000E+00  0.93827000000E+00 0.  1.
     999902    2    1    2    0    0 -0.15605884224E-01  0.15851294978E-01 -0.37394495523E-02  0.10213736116E+01  0.10211245095E+01 0.  0.
     999903    2    3    3    0    0 -0.48400121438E-01 -0.11601365991E+00  0.28229953379E-01  0.13037087813E+00  0.19947294438E-01 0.  0.
         14    1    1    2    0    0  0.15605884224E-01 -0.15851294978E-01  0.37394495523E-02  0.22556388405E-01  0.00000000000E+00 0. -1.
     999901    1    3    3    0    0  0.32794237214E-01  0.13186495489E+00 -0.31969402931E-01  0.89100273347E+00  0.88000000000E+00 0. -1.
        -11    1    4    4    0    0 -0.10309451788E-01 -0.50060763654E-01  0.11349797246E-01  0.52358799378E-01  0.51100000000E-03 0.  1.
         11    1    4    4    0    0 -0.38090669650E-01 -0.65952896255E-01  0.16880156133E-01  0.78012078750E-01  0.51100000000E-03 0. -1.
</event>
<event>
 8    1  0.1083484E+005  0.1043930E+01  0.7957747E-01            NaN
         13   -1    0    0    0    0  0.00000000000E+00  0.00000000000E+00  0.74505805969E-08  0.10566000000E+00  0.10566000000E+00 0. -1.
     999900   -1    0    0    0    0 -0.00000000000E+00 -0.00000000000E+00 -0.74505805969E-08  0.93827000000E+00  0.93827000000E+00 0.  1.
     999902    2    1    2    0    0  0.28434736696E-02  0.13970197825E-01 -0.13268951411E-01  0.10244539418E+01  0.10242687939E+01 0.  0.
     999903    2    3    3    0    0  0.17777126267E-01  0.81654487612E-01  0.10309733890E+00  0.13409149285E+00  0.19182950756E-01 0.  0.
         14    1    1    2    0    0 -0.28434736696E-02 -0.13970197825E-01  0.13268951411E-01  0.19476058157E-01  0.00000000000E+00 0. -1.
     999901    1    3    3    0    0 -0.14933652597E-01 -0.67684289787E-01 -0.11636629031E+00  0.89036244900E+00  0.88000000000E+00 0.  1.
        -11    1    4    4    0    0  0.25077094480E-02  0.12107091470E-01  0.27949161764E-01  0.30566109253E-01  0.51100000000E-03 0. -1.
         11    1    4    4    0    0  0.15269416819E-01  0.69547396142E-01  0.75148177137E-01  0.10352538359E+00  0.51100000000E-03 0.  1.
</event>
<event>
 8    1  0.1083484E+005  0.1043930E+01  0.7957747E-01            NaN
         13   -1    0    0    0    0  0.00000000000E+00  0.00000000000E+00  0.74505805969E-08  0.10566000000E+00  0.10566000000E+00 0.  1.
     999900   -1    0    0    0    0 -0.00000000000E+00 -0.00000000000E+00 -0.74505805969E-08  0.93827000000E+00  0.93827000000E+00 0. -1.
     999902    2    1    2    0    0  0.15017366466E-01 -0.42896960324E-02  0.18702701740E-01  0.10195637561E+01  0.10192725538E+01 0.  0.
     999903    2    3    3    0    0  0.21096924039E-01 -0.12210367349E+00 -0.33893881454E-01  0.13013500977E+00  0.20783124965E-01 0.  0.
         14    1    1    2    0    0 -0.15017366466E-01  0.42896960324E-02 -0.18702701740E-01  0.24366243863E-01  0.00000000000E+00 0.  1.
     999901    1    3    3    0    0 -0.60795575729E-02  0.11781397746E+00  0.52596583194E-01  0.88942874637E+00  0.88000000000E+00 0.  1.
        -11    1    4    4    0    0  0.21139874554E-01 -0.62574482546E-01 -0.15795546609E-01  0.67913331355E-01  0.51100000000E-03 0.  1.
         11    1    4    4    0    0 -0.42950515149E-04 -0.59529190944E-01 -0.18098334846E-01  0.62221678412E-01  0.51100000000E-03 0. -1.
</event>
<event>
 8    1  0.1083484E+005  0.1043930E+01  0.7957747E-01            NaN
         13   -1    0    0    0    0  0.00000000000E+00  0.00000000000E+00  0.74505805969E-08  0.10566000000E+00  0.10566000000E+00 0. -1.
     999900   -1    0    0    0    0 -0.00000000000E+00 -0.00000000000E+00 -0.74505805969E-08  0.93827000000E+00  0.93827000000E+00 0. -1.
     999902    2    1    2    0    0 -0.22544155582E-02 -0.58577574238E-02 -0.22617878898E-01  0.10204573743E+01  0.10201873792E+01 0.  0.
     999903    2    3    3    0    0  0.95335444889E-01 -0.85309379445E-01 -0.14559944945E-01  0.13146847031E+00  0.26559921247E-01 0.  0.
         14    1    1    2    0    0  0.22544155582E-02  0.58577574238E-02  0.22617878898E-01  0.23472625703E-01  0.00000000000E+00 0. -1.
     999901    1    3    3    0    0 -0.97589860447E-01  0.79451622021E-01 -0.80579339534E-02  0.88898890398E+00  0.88000000000E+00 0.  1.
        -11    1    4    4    0    0  0.46487840853E-01 -0.36150603101E-01  0.59562802565E-02  0.59192261718E-01  0.51100000000E-03 0.  1.
         11    1    4    4    0    0  0.48847604036E-01 -0.49158776343E-01 -0.20516225201E-01  0.72276208597E-01  0.51100000000E-03 0. -1.
</event>
<event>
 8    1  0.1083484E+005  0.1043930E+01  0.7957747E-01            NaN
         13   -1    0    0    0    0  0.00000000000E+00  0.00000000000E+00  0.74505805969E-08  0.10566000000E+00  0.10566000000E+00 0.  1.
     999900   -1    0    0    0    0 -0.00000000000E+00 -0.00000000000E+00 -0.74505805969E-08  0.93827000000E+00  0.93827000000E+00 0. -1.
     999902    2    1    2    0    0 -0.12188262372E-01  0.18474609015E-01 -0.76261011882E-02  0.10205201231E+01  0.10202515863E+01 0.  0.
     999903    2    3    3    0    0  0.11432147561E+00  0.44766104705E-01  0.37405886910E-01  0.12994511978E+00  0.20325596303E-01 0.  0.
         14    1    1    2    0    0  0.12188262372E-01 -0.18474609015E-01  0.76261011882E-02  0.23409876916E-01  0.00000000000E+00 0. -1.
     999901    1    3    3    0    0 -0.12650973798E+00 -0.26291495690E-01 -0.45031988098E-01  0.89057500330E+00  0.88000000000E+00 0.  1.
        -11    1    4    4    0    0  0.58210146388E-01  0.12607639948E-01  0.14188772592E-01  0.61228719701E-01  0.51100000000E-03 0.  1.
         11    1    4    4    0    0  0.56111329219E-01  0.32158464757E-01  0.23217114318E-01  0.68716400084E-01  0.51100000000E-03 0. -1.
</event>
<event>
 8    1  0.1083484E+005  0.1043930E+01  0.7957747E-01            NaN
         13   -1    0    0    0    0  0.00000000000E+00  0.00000000000E+00  0.74505805969E-08  0.10566000000E+00  0.10566000000E+00 0. -1.
     999900   -1    0    0    0    0 -0.00000000000E+00 -0.00000000000E+00 -0.74505805969E-08  0.93827000000E+00  0.93827000000E+00 0. -1.
     999902    2    1    2    0    0 -0.32473773904E-02 -0.21041706936E-01  0.88820919779E-02  0.10208607467E+01  0.10206000557E+01 0.  0.
     999903    2    3    3    0    0  0.18073141445E-01  0.80287172828E-01 -0.96765987050E-01  0.12851349197E+00  0.19478008250E-01 0.  0.
         14    1    1    2    0    0  0.32473773904E-02  0.21041706936E-01 -0.88820919779E-02  0.23069253317E-01  0.00000000000E+00 0.  1.
     999901    1    3    3    0    0 -0.21320518835E-01 -0.10132887976E+00  0.10564807903E+00  0.89234725472E+00  0.88000000000E+00 0.  1.
        -11    1    4    4    0    0  0.14105355057E-01  0.54491943353E-01 -0.78737072564E-01  0.96789052318E-01  0.51100000000E-03 0.  1.
         11    1    4    4    0    0  0.39677863875E-02  0.25795229475E-01 -0.18028914486E-01  0.31724439649E-01  0.51100000000E-03 0. -1.
</event>
<event>
 8    1  0.1083484E+005  0.1043930E+01  0.7957747E-01            NaN
         13   -1    0    0    0    0  0.00000000000E+00  0.00000000000E+00  0.74505805969E-08  0.10566000000E+00  0.10566000000E+00 0. -1.
     999900   -1    0    0    0    0 -0.00000000000E+00 -0.00000000000E+00 -0.74505805969E-08  0.93827000000E+00  0.93827000000E+00 0.  1.
     999902    2    1    2    0    0  0.23088774222E-01  0.56625581969E-02  0.25351455515E-02  0.10200221974E+01  0.10197419773E+01 0.  0.
     999903    2    3    3    0    0  0.16487970991E-01  0.48963664747E-01  0.11894950393E+00  0.13127540601E+00  0.20370421837E-01 0.  0.
         14    1    1    2    0    0 -0.23088774222E-01 -0.56625581969E-02 -0.25351455515E-02  0.23907802562E-01  0.00000000000E+00 0. -1.
     999901    1    3    3    0    0  0.66008032311E-02 -0.43301106550E-01 -0.11641435838E+00  0.88874679143E+00  0.88000000000E+00 0.  1.
        -11    1    4    4    0    0  0.20179431467E-01  0.32739539393E-01  0.75186497893E-01  0.84453285788E-01  0.51100000000E-03 0. -1.
         11    1    4    4    0    0 -0.36914604765E-02  0.16224125354E-01  0.43763006037E-01  0.46822120225E-01  0.51100000000E-03 0.  1.
</event>
<event>
 8    1  0.1083484E+005  0.1043930E+01  0.7957747E-01            NaN
         13   -1    0    0    0    0  0.00000000000E+00  0.00000000000E+00  0.74505805969E-08  0.10566000000E+00  0.10566000000E+00 0.  1.
     999900   -1    0    0    0    0 -0.00000000000E+00 -0.00000000000E+00 -0.74505805969E-08  0.93827000000E+00  0.93827000000E+00 0.  1.
     999902    2    1    2    0    0  0.16762061012E-01 -0.13513859214E-02 -0.16736626896E-01  0.10202043259E+01  0.10199284087E+01 0.  0.
     999903    2    3    3    0    0  0.60718901208E-01 -0.11215252678E+00 -0.28194510981E-01  0.13209375858E+00  0.19719441660E-01 0.  0.
         14    1    1    2    0    0 -0.16762061012E-01  0.13513859214E-02  0.16736626896E-01  0.23725674135E-01  0.00000000000E+00 0.  1.
     999901    1    3    3    0    0 -0.43956840195E-01  0.11080114086E+00  0.11457884085E-01  0.88811056728E+00  0.88000000000E+00 0. -1.
        -11    1    4    4    0    0  0.36285176492E-01 -0.74465225528E-01 -0.27119674830E-01  0.87163190224E-01  0.51100000000E-03 0.  1.
         11    1    4    4    0    0  0.24433724715E-01 -0.37687301251E-01 -0.10748361511E-02  0.44930568356E-01  0.51100000000E-03 0. -1.
</event>
<event>
 8    1  0.1083484E+005  0.1043930E+01  0.7957747E-01            NaN
         13   -1    0    0    0    0  0.00000000000E+00  0.00000000000E+00  0.74505805969E-08  0.10566000000E+00  0.10566000000E+00 0.  1.
     999900   -1    0    0    0    0 -0.00000000000E+00 -0.00000000000E+00 -0.74505805969E-08  0.93827000000E+00  0.93827000000E+00 0. -1.
     999902    2    1    2    0    0 -0.36579592232E-03  0.35987886373E-02  0.23084921238E-01  0.10205633855E+01  0.10202958517E+01 0.  0.
     999903    2    3    3    0    0 -0.10855453326E-01  0.12455067416E+00  0.37872782315E-01  0.13210512963E+00  0.19664850240E-01 0.  0.
         14    1    1    2    0    0  0.36579592232E-03 -0.35987886373E-02 -0.23084921238E-01  0.23366614536E-01  0.00000000000E+00 0. -1.
     999901    1    3    3    0    0  0.10489657404E-01 -0.12095188552E+00 -0.14787861077E-01  0.88845825583E+00  0.88000000000E+00 0.  1.
        -11    1    4    4    0    0 -0.13058574917E-01  0.47410061288E-01  0.11063606296E-01  0.50407388303E-01  0.51100000000E-03 0.  1.
         11    1    4    4    0    0  0.22031215915E-02  0.77140612867E-01  0.26809176019E-01  0.81697741328E-01  0.51100000000E-03 0. -1.
</event>
<event>
 8    1  0.1083484E+005  0.1043930E+01  0.7957747E-01            NaN
         13   -1    0    0    0    0  0.00000000000E+00  0.00000000000E+00  0.74505805969E-08  0.10566000000E+00  0.10566000000E+00 0. -1.
     999900   -1    0    0    0    0 -0.00000000000E+00 -0.00000000000E+00 -0.74505805969E-08  0.93827000000E+00  0.93827000000E+00 0.  1.
     999902    2    1    2    0    0  0.10769568019E-02  0.23891641029E-01  0.32355737296E-02  0.10197962211E+01  0.10195106146E+01 0.  0.
     999903    2    3    3    0    0  0.70322696754E-01 -0.10573907691E-01 -0.10649963536E+00  0.12961384502E+00  0.20012178468E-01 0.  0.
         14    1    1    2    0    0 -0.10769568019E-02 -0.23891641029E-01 -0.32355737296E-02  0.24133778908E-01  0.00000000000E+00 0.  1.
     999901    1    3    3    0    0 -0.69245739952E-01  0.34465548721E-01  0.10973520909E+00  0.89018237607E+00  0.88000000000E+00 0. -1.
        -11    1    4    4    0    0  0.30111188536E-01 -0.63407916016E-02 -0.29442767313E-01  0.42591395624E-01  0.51100000000E-03 0.  1.
         11    1    4    4    0    0  0.40211508218E-01 -0.42331160897E-02 -0.77056868047E-01  0.87022449398E-01  0.51100000000E-03 0. -1.
</event>
<event>
 8    1  0.1083484E+005  0.1043930E+01  0.7957747E-01            NaN
         13   -1    0    0    0    0  0.00000000000E+00  0.00000000000E+00  0.74505805969E-08  0.10566000000E+00  0.10566000000E+00 0. -1.
     999900   -1    0    0    0    0 -0.00000000000E+00 -0.00000000000E+00 -0.74505805969E-08  0.93827000000E+00  0.93827000000E+00 0. -1.
     999902    2    1    2    0    0 -0.15557435541E-01  0.18745109155E-01  0.20879139042E-02  0.10194806175E+01  0.10191874005E+01 0.  0.
     999903    2    3    3    0    0 -0.56062718802E-01  0.39718893527E-01 -0.11010210615E+00  0.13118608407E+00  0.19149306323E-01 0.  0.
         14    1    1    2    0    0  0.15557435541E-01 -0.18745109155E-01 -0.20879139042E-02  0.24449382452E-01  0.00000000000E+00 0.  1.
     999901    1    3    3    0    0  0.40505283261E-01 -0.20973784372E-01  0.11219002006E+00  0.88829453348E+00  0.88000000000E+00 0.  1.
        -11    1    4    4    0    0 -0.35597370728E-02  0.17280186193E-02 -0.18813358577E-01  0.19231779906E-01  0.51100000000E-03 0.  1.
         11    1    4    4    0    0 -0.52502981730E-01  0.37990874907E-01 -0.91288747574E-01  0.11195430417E+00  0.51100000000E-03 0. -1.
</event>
<event>
 8    1  0.1083484E+005  0.1043930E+01  0.7957747E-01            NaN
         13   -1    0    0    0    0  0.00000000000E+00  0.00000000000E+00  0.74505805969E-08  0.10566000000E+00  0.10566000000E+00 0. -1.
     999900   -1    0    0    0    0 -0.00000000000E+00 -0.00000000000E+00 -0.74505805969E-08  0.93827000000E+00  0.93827000000E+00 0.  1.
     999902    2    1    2    0    0  0.14437328585E-01 -0.22673322937E-01  0.55636977845E-02  0.10164805781E+01  0.10161098833E+01 0.  0.
     999903    2    3    3    0    0 -0.74902928784E-01 -0.74727337882E-01 -0.68150697646E-01  0.12736578565E+00  0.19567881771E-01 0.  0.
         14    1    1    2    0    0 -0.14437328585E-01  0.22673322937E-01 -0.55636977845E-02  0.27449421902E-01  0.00000000000E+00 0. -1.
     999901    1    3    3    0    0  0.89340257369E-01  0.52054014944E-01  0.73714395431E-01  0.88911479245E+00  0.88000000000E+00 0. -1.
        -11    1    4    4    0    0 -0.50894531034E-02 -0.12818747357E-01 -0.13086529090E-01  0.19019494771E-01  0.51100000000E-03 0. -1.
         11    1    4    4    0    0 -0.69813475681E-01 -0.61908590525E-01 -0.55064168556E-01  0.10834629088E+00  0.51100000000E-03 0.  1.
</event>
<event>
 8    1  0.1083484E+005  0.1043930E+01  0.7957747E-01            NaN
         13   -1    0    0    0    0  0.00000000000E+00  0.00000000000E+00  0.74505805969E-08  0.10566000000E+00  0.10566000000E+00 0. -1.
     999900   -1    0    0    0    0 -0.00000000000E+00 -0.00000000000E+00 -0.74505805969E-08  0.93827000000E+00  0.93827000000E+00 0.  1.
     999902    2    1    2    0    0 -0.68380050148E-02 -0.47738607888E-02 -0.22529017849E-01  0.10199069963E+01  0.10196240368E+01 0.  0.
     999903    2    3    3    0    0  0.55747456924E-01 -0.10495811024E+00 -0.53064457521E-01  0.13148916843E+00  0.18697082758E-01 0.  0.
         14    1    1    2    0    0  0.68380050148E-02  0.47738607888E-02  0.22529017849E-01  0.24023003656E-01  0.00000000000E+00 0. -1.
     999901    1    3    3    0    0 -0.62585461939E-01  0.10018424945E+00  0.30535439672E-01  0.88841782792E+00  0.88000000000E+00 0.  1.
        -11    1    4    4    0    0  0.23786749493E-01 -0.62314714891E-01 -0.34170915685E-01  0.74945618572E-01  0.51100000000E-03 0. -1.
         11    1    4    4    0    0  0.31960707431E-01 -0.42643395347E-01 -0.18893541836E-01  0.56543549856E-01  0.51100000000E-03 0.  1.
</event>
<event>
 8    1  0.1083484E+005  0.1043930E+01  0.7957747E-01            NaN
         13   -1    0    0    0    0  0.00000000000E+00  0.00000000000E+00  0.74505805969E-08  0.10566000000E+00  0.10566000000E+00 0. -1.
     999900   -1    0    0    0    0 -0.00000000000E+00 -0.00000000000E+00 -0.74505805969E-08  0.93827000000E+00  0.93827000000E+00 0. -1.
     999902    2    1    2    0    0  0.12394255798E-01 -0.17286144184E-01  0.10351088498E-01  0.10202746964E+01  0.10200004327E+01 0.  0.
     999903    2    3    3    0    0  0.52796221406E-01  0.67479108072E-01  0.96638966556E-01  0.13108232981E+00  0.22419105941E-01 0.  0.
         14    1    1    2    0    0 -0.12394255798E-01  0.17286144184E-01 -0.10351088498E-01  0.23655303646E-01  0.00000000000E+00 0.  1.
     999901    1    3    3    0    0 -0.40401965609E-01 -0.84765252255E-01 -0.86287878058E-01  0.88919236654E+00  0.88000000000E+00 0.  1.
        -11    1    4    4    0    0  0.48091729681E-01  0.52465598071E-01  0.68185057931E-01  0.98564276951E-01  0.51100000000E-03 0. -1.
         11    1    4    4    0    0  0.47044917252E-02  0.15013510000E-01  0.28453908624E-01  0.32518052862E-01  0.51100000000E-03 0.  1.
</event>
<event>
 8    1  0.1083484E+005  0.1043930E+01  0.7957747E-01            NaN
         13   -1    0    0    0    0  0.00000000000E+00  0.00000000000E+00  0.74505805969E-08  0.10566000000E+00  0.10566000000E+00 0.  1.
     999900   -1    0    0    0    0 -0.00000000000E+00 -0.00000000000E+00 -0.74505805969E-08  0.93827000000E+00  0.93827000000E+00 0.  1.
     999902    2    1    2    0    0 -0.11464951076E-01 -0.16145764247E-01 -0.12689285715E-01  0.10204108848E+01  0.10201398066E+01 0.  0.
     999903    2    3    3    0    0 -0.76454987218E-01 -0.34070033613E-01 -0.10188279528E+00  0.13333678061E+00  0.19810624155E-01 0.  0.
         14    1    1    2    0    0  0.11464951076E-01  0.16145764247E-01  0.12689285715E-01  0.23519115167E-01  0.00000000000E+00 0.  1.
     999901    1    3    3    0    0  0.64990036142E-01  0.17924269367E-01  0.89193509564E-01  0.88707410422E+00  0.88000000000E+00 0. -1.
        -11    1    4    4    0    0 -0.91984344598E-02 -0.22264734901E-02 -0.23080888137E-01  0.24951090134E-01  0.51100000000E-03 0. -1.
         11    1    4    4    0    0 -0.67256552758E-01 -0.31843560123E-01 -0.78801907143E-01  0.10838569048E+00  0.51100000000E-03 0.  1.
</event>
<event>
 8    1  0.1083484E+005  0.1043930E+01  0.7957747E-01            NaN
         13   -1    0    0    0    0  0.00000000000E+00  0.00000000000E+00  0.74505805969E-08  0.10566000000E+00  0.10566000000E+00 0.  1.
     999900   -1    0    0    0    0 -0.00000000000E+00 -0.00000000000E+00 -0.74505805969E-08  0.93827000000E+00  0.93827000000E+00 0. -1.
     999902    2    1    2    0    0  0.20044537313E-01  0.12436480470E-01 -0.49999943343E-02  0.10198167367E+01  0.10195316214E+01 0.  0.
     999903    2    3    3    0    0 -0.81826728174E-01  0.95859157331E-01 -0.26235364294E-01  0.12976727816E+00  0.16329747512E-01 0.  0.
         14    1    1    2    0    0 -0.20044537313E-01 -0.12436480470E-01  0.49999943343E-02  0.24113263278E-01  0.00000000000E+00 0. -1.
     999901    1    3    3    0    0  0.10187126549E+00 -0.83422676861E-01  0.21235369960E-01  0.89004945856E+00  0.88000000000E+00 0.  1.
        -11    1    4    4    0    0 -0.43875112297E-01  0.39227217215E-01 -0.10221911398E-01  0.59737330398E-01  0.51100000000E-03 0.  1.
         11    1    4    4    0    0 -0.37951615877E-01  0.56631940116E-01 -0.16013452896E-01  0.70029947763E-01  0.51100000000E-03 0. -1.
</event>
<event>
 8    1  0.1083484E+005  0.1043930E+01  0.7957747E-01            NaN
         13   -1    0    0    0    0  0.00000000000E+00  0.00000000000E+00  0.74505805969E-08  0.10566000000E+00  0.10566000000E+00 0. -1.
     999900   -1    0    0    0    0 -0.00000000000E+00 -0.00000000000E+00 -0.74505805969E-08  0.93827000000E+00  0.93827000000E+00 0.  1.
     999902    2    1    2    0    0  0.20718288478E-01 -0.19854248692E-02  0.10604278712E-01  0.10205710592E+01  0.10203037032E+01 0.  0.
     999903    2    3    3    0    0  0.10122212516E+00 -0.72975914200E-01  0.42291581513E-01  0.13348335074E+00  0.21396831157E-01 0.  0.
         14    1    1    2    0    0 -0.20718288478E-01  0.19854248692E-02 -0.10604278712E-01  0.23358940823E-01  0.00000000000E+00 0.  1.
     999901    1    3    3    0    0 -0.80503836682E-01  0.70990489331E-01 -0.31687302801E-01  0.88708770843E+00  0.88000000000E+00 0.  1.
        -11    1    4    4    0    0  0.43626225805E-01 -0.19532979988E-01  0.12102112433E-01  0.49310314656E-01  0.51100000000E-03 0.  1.
         11    1    4    4    0    0  0.57595899355E-01 -0.53442934213E-01  0.30189469079E-01  0.84173036087E-01  0.51100000000E-03 0. -1.
</event>
<event>
 8    1  0.1137714E+005  0.1043930E+01  0.7957747E-01            NaN
         13   -1    0    0    0    0  0.00000000000E+00  0.00000000000E+00  0.74505805969E-08  0.10566000000E+00  0.10566000000E+00 0. -1.
     999900   -1    0    0    0    0 -0.00000000000E+00 -0.00000000000E+00 -0.74505805969E-08  0.93827000000E+00  0.93827000000E+00 0. -1.
     999902    2    1    2    0    0  0.42313999035E-02 -0.11426281288E-01 -0.21269147289E-01  0.10194179361E+01  0.10191231953E+01 0.  0.
     999903    2    3    3    0    0 -0.11843446011E+00  0.72425773388E-02  0.44964519212E-01  0.12824885111E+00  0.18622125424E-01 0.  0.
         14    1    1    2    0    0 -0.42313999035E-02  0.11426281288E-01  0.21269147289E-01  0.24512063879E-01  0.00000000000E+00 0. -1.
     999901    1    3    3    0    0  0.12266586002E+00 -0.18668858627E-01 -0.66233666500E-01  0.89116908501E+00  0.88000000000E+00 0.  1.
        -11    1    4    4    0    0 -0.89547218213E-01  0.12556472446E-01  0.29934276126E-01  0.95250676103E-01  0.51100000000E-03 0.  1.
         11    1    4    4    0    0 -0.28887241900E-01 -0.53138951074E-02  0.15030243086E-01  0.32998175010E-01  0.51100000000E-03 0. -1.
</event>
<event>
 7    1  0.1083484E+005  0.1043930E+01  0.7957747E-01            NaN
         13   -1    0    0    0    0  0.00000000000E+00  0.00000000000E+00  0.74505805969E-08  0.10566000000E+00  0.10566000000E+00 0.  1.
     999900   -1    0    0    0    0 -0.00000000000E+00 -0.00000000000E+00 -0.74505805969E-08  0.93827000000E+00  0.93827000000E+00 0. -1.
     999903    2    1    2    0    0  0.19661100232E-02 -0.10822846487E+00 -0.38037718529E-01  0.11638617755E+00  0.19534791946E-01 0.  0.
         14    1    1    2    0    0  0.33585759234E-01 -0.12162374084E-01  0.13836029701E-01  0.38306165099E-01  0.00000000000E+00 0.  1.
     999901    1    1    2    0    0 -0.35551869257E-01  0.12039083896E+00  0.24201688828E-01  0.88923765735E+00  0.88000000000E+00 0.  1.
        -11    1    3    3    0    0  0.77668668456E-02 -0.51118206749E-01 -0.10700323122E-01  0.52802966941E-01  0.51100000000E-03 0.  1.
         11    1    3    3    0    0 -0.58007568224E-02 -0.57110258122E-01 -0.27337395407E-01  0.63583210608E-01  0.51100000000E-03 0. -1.
</event>
<event>
 8    1  0.1083484E+005  0.1043930E+01  0.7957747E-01            NaN
         13   -1    0    0    0    0  0.00000000000E+00  0.00000000000E+00  0.74505805969E-08  0.10566000000E+00  0.10566000000E+00 0. -1.
     999900   -1    0    0    0    0 -0.00000000000E+00 -0.00000000000E+00 -0.74505805969E-08  0.93827000000E+00  0.93827000000E+00 0. -1.
     999902    2    1    2    0    0 -0.21844451491E-02  0.45858553031E-02 -0.23903761683E-01  0.10194924942E+01  0.10191995653E+01 0.  0.
     999903    2    3    3    0    0 -0.50749316932E-01  0.11028605973E+00 -0.46691087267E-01  0.13154523097E+00  0.19636242506E-01 0.  0.
         14    1    1    2    0    0  0.21844451491E-02 -0.45858553031E-02  0.23903761683E-01  0.24437505848E-01  0.00000000000E+00 0. -1.
     999901    1    3    3    0    0  0.48564871783E-01 -0.10570020443E+00  0.22787325584E-01  0.88794726318E+00  0.88000000000E+00 0.  1.
        -11    1    4    4    0    0 -0.30897707177E-01  0.52654857017E-01 -0.31610501797E-01  0.68750907057E-01  0.51100000000E-03 0. -1.
         11    1    4    4    0    0 -0.19851609755E-01  0.57631202716E-01 -0.15080585471E-01  0.62794323912E-01  0.51100000000E-03 0.  1.
</event>
<event>
 8    1  0.1083484E+005  0.1043930E+01  0.7957747E-01            NaN
         13   -1    0    0    0    0  0.00000000000E+00  0.00000000000E+00  0.74505805969E-08  0.10566000000E+00  0.10566000000E+00 0. -1.
     999900   -1    0    0    0    0 -0.00000000000E+00 -0.00000000000E+00 -0.74505805969E-08  0.93827000000E+00  0.93827000000E+00 0.  1.
     999902    2    1    2    0    0  0.10006742493E-02 -0.39685284807E-02  0.22137705132E-01  0.10214171469E+01  0.10211690161E+01 0.  0.
     999903    2    3    3    0    0  0.93900946125E-01 -0.64884366395E-01 -0.60147452635E-01  0.13062421526E+00  0.20435284903E-01 0.  0.
         14    1    1    2    0    0 -0.10006742493E-02  0.39685284807E-02 -0.22137705132E-01  0.22512853123E-01  0.00000000000E+00 0.  1.
     999901    1    3    3    0    0 -0.92900271876E-01  0.60915837914E-01  0.82285157767E-01  0.89079293161E+00  0.88000000000E+00 0.  1.
        -11    1    4    4    0    0  0.69584839428E-01 -0.54467712976E-01 -0.38299967652E-01  0.96311631064E-01  0.51100000000E-03 0. -1.
         11    1    4    4    0    0  0.24316106697E-01 -0.10416653418E-01 -0.21847484983E-01  0.34312584199E-01  0.51100000000E-03 0.  1.
</event>
<event>
 8    1  0.1083484E+005  0.1043930E+01  0.7957747E-01            NaN
         13   -1    0    0    0    0  0.00000000000E+00  0.00000000000E+00  0.74505805969E-08  0.10566000000E+00  0.10566000000E+00 0. -1.
     999900   -1    0    0    0    0 -0.00000000000E+00 -0.00000000000E+00 -0.74505805969E-08  0.93827000000E+00  0.93827000000E+00 0. -1.
     999902    2    1    2    0    0 -0.55273341746E-02  0.22923780050E-01 -0.31930999415E-02  0.10201340549E+01  0.10198564816E+01 0.  0.
     999903    2    3    3    0    0 -0.98424320608E-01  0.31496373651E-01 -0.79190878362E-01  0.13194544783E+00  0.21425161519E-01 0.  0.
         14    1    1    2    0    0  0.55273341746E-02 -0.22923780050E-01  0.31930999415E-02  0.23795945077E-01  0.00000000000E+00 0.  1.
     999901    1    3    3    0    0  0.92896986434E-01 -0.85725936009E-02  0.75997778421E-01  0.88818860710E+00  0.88000000000E+00 0.  1.
        -11    1    4    4    0    0 -0.46677970757E-01  0.12285836436E-01 -0.24076753908E-01  0.53941875483E-01  0.51100000000E-03 0. -1.
         11    1    4    4    0    0 -0.51746349852E-01  0.19210537215E-01 -0.55114124454E-01  0.78003572344E-01  0.51100000000E-03 0.  1.
</event>
<event>
 8    1  0.1100935E+005  0.1043930E+01  0.7957747E-01            NaN
         13   -1    0    0    0    0  0.00000000000E+00  0.00000000000E+00  0.74505805969E-08  0.10566000000E+00  0.10566000000E+00 0.  1.
     999900   -1    0    0    0    0 -0.00000000000E+00 -0.00000000000E+00 -0.74505805969E-08  0.93827000000E+00  0.93827000000E+00 0. -1.
     999902    2    1    2    0    0 -0.19166511841E-01  0.86902337834E-02 -0.11764937055E-01  0.10198200626E+01  0.10195350268E+01 0.  0.
     999903    2    3    3    0    0  0.10811745051E+00  0.63948672939E-01  0.18973901982E-01  0.12841691112E+00  0.18763747772E-01 0.  0.
         14    1    1    2    0    0  0.19166511841E-01 -0.86902337834E-02  0.11764937055E-01  0.24109937438E-01  0.00000000000E+00 0.  1.
     999901    1    3    3    0    0 -0.12728396235E+00 -0.55258439156E-01 -0.30738839037E-01  0.89140315144E+00  0.88000000000E+00 0. -1.
        -11    1    4    4    0    0  0.56956023602E-01  0.27651799151E-01  0.17411892525E-01  0.65666168940E-01  0.51100000000E-03 0. -1.
         11    1    4    4    0    0  0.51161426908E-01  0.36296873788E-01  0.15620094567E-02  0.62750742183E-01  0.51100000000E-03 0.  1.
</event>
<event>
 8    1  0.1083484E+005  0.1043930E+01  0.7957747E-01            NaN
         13   -1    0    0    0    0  0.00000000000E+00  0.00000000000E+00  0.74505805969E-08  0.10566000000E+00  0.10566000000E+00 0.  1.
     999900   -1    0    0    0    0 -0.00000000000E+00 -0.00000000000E+00 -0.74505805969E-08  0.93827000000E+00  0.93827000000E+00 0. -1.
     999902    2    1    2    0    0 -0.67743726377E-02  0.11043275852E-01  0.20523992045E-01  0.10196590232E+01  0.10193701208E+01 0.  0.
     999903    2    3    3    0    0 -0.33303116939E-01  0.10667048814E+00 -0.63541171653E-01  0.13009998087E+00  0.20020836407E-01 0.  0.
         14    1    1    2    0    0  0.67743726377E-02 -0.11043275852E-01 -0.20523992045E-01  0.24270976817E-01  0.00000000000E+00 0. -1.
     999901    1    3    3    0    0  0.26528744301E-01 -0.95627212290E-01  0.84065163698E-01  0.88955904231E+00  0.88000000000E+00 0.  1.
        -11    1    4    4    0    0 -0.14926637135E-01  0.63742508175E-01 -0.46861267974E-01  0.80511809083E-01  0.51100000000E-03 0.  1.
         11    1    4    4    0    0 -0.18376479804E-01  0.42927979966E-01 -0.16679903679E-01  0.49588171792E-01  0.51100000000E-03 0. -1.
</event>
<event>
 8    1  0.1083484E+005  0.1043930E+01  0.7957747E-01            NaN
         13   -1    0    0    0    0  0.00000000000E+00  0.00000000000E+00  0.74505805969E-08  0.10566000000E+00  0.10566000000E+00 0. -1.
     999900   -1    0    0    0    0 -0.00000000000E+00 -0.00000000000E+00 -0.74505805969E-08  0.93827000000E+00  0.93827000000E+00 0. -1.
     999902    2    1    2    0    0  0.66476711373E-02  0.13168410866E-01 -0.18899669662E-01  0.10199550946E+01  0.10196732805E+01 0.  0.
     999903    2    3    3    0    0  0.10874509393E+00 -0.57437834735E-01 -0.40794650732E-01  0.13097336482E+00  0.19110689486E-01 0.  0.
         14    1    1    2    0    0 -0.66476711373E-02 -0.13168410866E-01  0.18899669662E-01  0.23974905414E-01  0.00000000000E+00 0. -1.
     999901    1    3    3    0    0 -0.10209742279E+00  0.70606245600E-01  0.21894981069E-01  0.88898172976E+00  0.88000000000E+00 0. -1.
        -11    1    4    4    0    0  0.49554893463E-01 -0.17526869163E-01 -0.23132003978E-01  0.57430212762E-01  0.51100000000E-03 0.  1.
         11    1    4    4    0    0  0.59190200462E-01 -0.39910965572E-01 -0.17662646754E-01  0.73543152060E-01  0.51100000000E-03 0. -1.
</event>
<event>
 8    1  0.1083484E+005  0.1043930E+01  0.7957747E-01            NaN
         13   -1    0    0    0    0  0.00000000000E+00  0.00000000000E+00  0.74505805969E-08  0.10566000000E+00  0.10566000000E+00 0.  1.
     999900   -1    0    0    0    0 -0.00000000000E+00 -0.00000000000E+00 -0.74505805969E-08  0.93827000000E+00  0.93827000000E+00 0.  1.
     999902    2    1    2    0    0  0.81777881746E-02  0.20246321758E-01  0.73736187267E-02  0.10208830909E+01  0.10206229105E+01 0.  0.
     999903    2    3    3    0    0  0.68171956826E-01  0.11312955017E+00 -0.81004307892E-02  0.13382839105E+00  0.19967735285E-01 0.  0.
         14    1    1    2    0    0 -0.81777881746E-02 -0.20246321758E-01 -0.73736187267E-02  0.23046909061E-01  0.00000000000E+00 0. -1.
     999901    1    3    3    0    0 -0.59994168651E-01 -0.92883228410E-01  0.15474049516E-01  0.88705469989E+00  0.88000000000E+00 0. -1.
        -11    1    4    4    0    0  0.11615353610E-01  0.25934935577E-01 -0.92535142440E-02  0.29890232012E-01  0.51100000000E-03 0. -1.
         11    1    4    4    0    0  0.56556603216E-01  0.87194614591E-01  0.11530834547E-02  0.10393815903E+00  0.51100000000E-03 0.  1.
</event>
<event>
 8    1  0.1083484E+005  0.1043930E+01  0.7957747E-01            NaN
         13   -1    0    0    0    0  0.00000000000E+00  0.00000000000E+00  0.74505805969E-08  0.10566000000E+00  0.10566000000E+00 0. -1.
     999900   -1    0    0    0    0 -0.00000000000E+00 -0.00000000000E+00 -0.74505805969E-08  0.93827000000E+00  0.93827000000E+00 0.  1.
     999902    2    1    2    0    0  0.11904277823E-01 -0.52839582685E-02 -0.19836961767E-01  0.10201994902E+01  0.10199234592E+01 0.  0.
     999903    2    3    3    0    0  0.10627949295E-01 -0.12929400726E+00  0.78301889861E-02  0.13107318164E+00  0.16999219546E-01 0.  0.
         14    1    1    2    0    0 -0.11904277823E-01  0.52839582685E-02  0.19836961767E-01  0.23730509847E-01  0.00000000000E+00 0. -1.
     999901    1    3    3    0    0  0.12763285274E-02  0.12401004899E+00 -0.27667150753E-01  0.88912630852E+00  0.88000000000E+00 0. -1.
        -11    1    4    4    0    0  0.47997438122E-03 -0.49613239901E-01  0.10440707183E-01  0.50704767393E-01  0.51100000000E-03 0.  1.
         11    1    4    4    0    0  0.10147974914E-01 -0.79680767359E-01 -0.26105181970E-02  0.80368414243E-01  0.51100000000E-03 0. -1.
</event>
<event>
 8    1  0.1083484E+005  0.1043930E+01  0.7957747E-01            NaN
         13   -1    0    0    0    0  0.00000000000E+00  0.00000000000E+00  0.74505805969E-08  0.10566000000E+00  0.10566000000E+00 0.  1.
     999900   -1    0    0    0    0 -0.00000000000E+00 -0.00000000000E+00 -0.74505805969E-08  0.93827000000E+00  0.93827000000E+00 0.  1.
     999902    2    1    2    0    0  0.17247858092E-02  0.24405949164E-01  0.51070011459E-02  0.10189358667E+01  0.10186292719E+01 0.  0.
     999903    2    3    3    0    0 -0.74775087588E-01  0.10329859391E+00  0.26719993042E-01  0.13183756239E+00  0.20131358650E-01 0.  0.
         14    1    1    2    0    0 -0.17247858092E-02 -0.24405949164E-01 -0.51070011459E-02  0.24994133339E-01  0.00000000000E+00 0. -1.
     999901    1    3    3    0    0  0.76499873397E-01 -0.78892644744E-01 -0.21612991896E-01  0.88709830427E+00  0.88000000000E+00 0.  1.
        -11    1    4    4    0    0 -0.67165701623E-01  0.87359788935E-01  0.29188633453E-01  0.11399649837E+00  0.51100000000E-03 0. -1.
         11    1    4    4    0    0 -0.76093859652E-02  0.15938804973E-01 -0.24686404114E-02  0.17841064016E-01  0.51100000000E-03 0.  1.
</event>
<event>
 8    1  0.1083484E+005  0.1043930E+01  0.7957747E-01            NaN
         13   -1    0    0    0    0  0.00000000000E+00  0.00000000000E+00  0.74505805969E-08  0.10566000000E+00  0.10566000000E+00 0. -1.
     999900   -1    0    0    0    0 -0.00000000000E+00 -0.00000000000E+00 -0.74505805969E-08  0.93827000000E+00  0.93827000000E+00 0. -1.
     999902    2    1    2    0    0 -0.29962082193E-02  0.64229447963E-02 -0.22725132215E-01  0.10201253131E+01  0.10198475334E+01 0.  0.
     999903    2    3    3    0    0 -0.92256702242E-01 -0.47261006067E-01  0.73602942338E-01  0.12876203121E+00  0.20429531524E-01 0.  0.
         14    1    1    2    0    0  0.29962082193E-02 -0.64229447963E-02  0.22725132215E-01  0.23804686886E-01  0.00000000000E+00 0. -1.
     999901    1    3    3    0    0  0.89260494023E-01  0.53683950863E-01 -0.96328074553E-01  0.89136328190E+00  0.88000000000E+00 0. -1.
        -11    1    4    4    0    0 -0.45485855225E-01 -0.12345081935E-01  0.29496183996E-01  0.55602608436E-01  0.51100000000E-03 0.  1.
         11    1    4    4    0    0 -0.46770847017E-01 -0.34915924132E-01  0.44106758342E-01  0.73159422777E-01  0.51100000000E-03 0. -1.
</event>
<event>
 8    1  0.1083484E+005  0.1043930E+01  0.7957747E-01            NaN
         13   -1    0    0    0    0  0.00000000000E+00  0.00000000000E+00  0.74505805969E-08  0.10566000000E+00  0.10566000000E+00 0.  1.
     999900   -1    0    0    0    0 -0.00000000000E+00 -0.00000000000E+00 -0.74505805969E-08  0.93827000000E+00  0.93827000000E+00 0. -1.
     999902    2    1    2    0    0 -0.21379907065E-01  0.15106803356E-01  0.45198669224E-02  0.10173641360E+01  0.10170172270E+01 0.  0.
     999903    2    3    3    0    0  0.18351827578E-02  0.98864496041E-01  0.82448915768E-01  0.12965515883E+00  0.15332319639E-01 0.  0.
         14    1    1    2    0    0  0.21379907065E-01 -0.15106803356E-01 -0.45198669224E-02  0.26565864013E-01  0.00000000000E+00 0.  1.
     999901    1    3    3    0    0 -0.23215089823E-01 -0.83757692685E-01 -0.77929048846E-01  0.88770897716E+00  0.88000000000E+00 0. -1.
        -11    1    4    4    0    0  0.51255458437E-02  0.47636119925E-01  0.31584183445E-01  0.57387219018E-01  0.51100000000E-03 0.  1.
         11    1    4    4    0    0 -0.32903630859E-02  0.51228376116E-01  0.50864732324E-01  0.72267939808E-01  0.51100000000E-03 0. -1.
</event>
<event>
 8    1  0.1083484E+005  0.1043930E+01  0.7957747E-01            NaN
         13   -1    0    0    0    0  0.00000000000E+00  0.00000000000E+00  0.74505805969E-08  0.10566000000E+00  0.10566000000E+00 0. -1.
     999900   -1    0    0    0    0 -0.00000000000E+00 -0.00000000000E+00 -0.74505805969E-08  0.93827000000E+00  0.93827000000E+00 0.  1.
     999902    2    1    2    0    0  0.18637679076E-01 -0.11298909027E-01 -0.10031233859E-01  0.10199372078E+01  0.10196549680E+01 0.  0.
     999903    2    3    3    0    0 -0.61336479988E-01 -0.68592504020E-01 -0.91277980111E-01  0.13073562436E+00  0.17118365565E-01 0.  0.
         14    1    1    2    0    0 -0.18637679076E-01  0.11298909027E-01  0.10031233859E-01  0.23992792236E-01  0.00000000000E+00 0. -1.
     999901    1    3    3    0    0  0.79974159064E-01  0.57293594994E-01  0.81246746252E-01  0.88920158340E+00  0.88000000000E+00 0. -1.
        -11    1    4    4    0    0 -0.50412524087E-01 -0.63429155647E-01 -0.74617478884E-01  0.11014857987E+00  0.51100000000E-03 0.  1.
         11    1    4    4    0    0 -0.10923955901E-01 -0.51633483731E-02 -0.16660501227E-01  0.20587044496E-01  0.51100000000E-03 0. -1.
</event>
<event>
 8    1  0.1083484E+005  0.1043930E+01  0.7957747E-01            NaN
         13   -1    0    0    0    0  0.00000000000E+00  0.00000000000E+00  0.74505805969E-08  0.10566000000E+00  0.10566000000E+00 0.  1.
     999900   -1    0    0    0    0 -0.00000000000E+00 -0.00000000000E+00 -0.74505805969E-08  0.93827000000E+00  0.93827000000E+00 0. -1.
     999902    2    1    2    0    0 -0.12448255266E-01 -0.18639847732E-01  0.77061735315E-02  0.10202279306E+01  0.10199525687E+01 0.  0.
     999903    2    3    3    0    0 -0.51601420312E-01 -0.76531810089E-01 -0.91940917093E-01  0.13185076279E+00  0.20289575628E-01 0.  0.
         14    1    1    2    0    0  0.12448255266E-01  0.18639847732E-01 -0.77061735315E-02  0.23702069385E-01  0.00000000000E+00 0. -1.
     999901    1    3    3    0    0  0.39153165045E-01  0.57891962358E-01  0.99647090625E-01  0.88837716782E+00  0.88000000000E+00 0.  1.
        -11    1    4    4    0    0 -0.46677352224E-01 -0.58500340644E-01 -0.65438499475E-01  0.99415911204E-01  0.51100000000E-03 0.  1.
         11    1    4    4    0    0 -0.49240680882E-02 -0.18031469445E-01 -0.26502417618E-01  0.32434851588E-01  0.51100000000E-03 0. -1.
</event>
<event>
 8    1  0.1185575E+005  0.1043930E+01  0.7957747E-01            NaN
         13   -1    0    0    0    0  0.00000000000E+00  0.00000000000E+00  0.74505805969E-08  0.10566000000E+00  0.10566000000E+00 0. -1.
     999900   -1    0    0    0    0 -0.00000000000E+00 -0.00000000000E+00 -0.74505805969E-08  0.93827000000E+00  0.93827000000E+00 0. -1.
     999902    2    1    2    0    0  0.95370808261E-03  0.74808904194E-03 -0.23249966242E-01  0.10206484595E+01  0.10203828928E+01 0.  0.
     999903    2    3    3    0    0  0.11808501397E+00  0.51721069947E-01 -0.15082429862E-01  0.13138770123E+00  0.20398743650E-01 0.  0.
         14    1    1    2    0    0 -0.95370808261E-03 -0.74808904194E-03  0.23249966242E-01  0.23281540468E-01  0.00000000000E+00 0. -1.
     999901    1    3    3    0    0 -0.11713130589E+00 -0.50972980905E-01 -0.81675363805E-02  0.88926075830E+00  0.88000000000E+00 0. -1.
        -11    1    4    4    0    0  0.38351498983E-01  0.22436506963E-01  0.30184743653E-02  0.44537698947E-01  0.51100000000E-03 0.  1.
         11    1    4    4    0    0  0.79733514991E-01  0.29284562984E-01 -0.18100904227E-01  0.86850002285E-01  0.51100000000E-03 0. -1.
</event>
<event>
 8    1  0.1083484E+005  0.1043930E+01  0.7957747E-01            NaN
         13   -1    0    0    0    0  0.00000000000E+00  0.00000000000E+00  0.74505805969E-08  0.10566000000E+00  0.10566000000E+00 0. -1.
     999900   -1    0    0    0    0 -0.00000000000E+00 -0.00000000000E+00 -0.74505805969E-08  0.93827000000E+00  0.93827000000E+00 0. -1.
     999902    2    1    2    0    0  0.43295996106E-02 -0.21318949122E-02  0.23909843210E-01  0.10195379724E+01  0.10192461460E+01 0.  0.
     999903    2    3    3    0    0 -0.38573609231E-01  0.64819371035E-01  0.10640201499E+00  0.13211016364E+00  0.21029321254E-01 0.  0.
         14    1    1    2    0    0 -0.43295996106E-02  0.21318949122E-02 -0.23909843210E-01  0.24392027612E-01  0.00000000000E+00 0.  1.
     999901    1    3    3    0    0  0.42903208841E-01 -0.66951265947E-01 -0.82492171776E-01  0.88742780875E+00  0.88000000000E+00 0.  1.
        -11    1    4    4    0    0 -0.32210448689E-02  0.73352778637E-02  0.28710241853E-02  0.85255693216E-02  0.51100000000E-03 0. -1.
         11    1    4    4    0    0 -0.35352564362E-01  0.57484093171E-01  0.10353099080E+00  0.12358459431E+00  0.51100000000E-03 0.  1.
</event>
<event>
 8    1  0.1083484E+005  0.1043930E+01  0.7957747E-01            NaN
         13   -1    0    0    0    0  0.00000000000E+00  0.00000000000E+00  0.74505805969E-08  0.10566000000E+00  0.10566000000E+00 0.  1.
     999900   -1    0    0    0    0 -0.00000000000E+00 -0.00000000000E+00 -0.74505805969E-08  0.93827000000E+00  0.93827000000E+00 0.  1.
     999902    2    1    2    0    0 -0.74968018718E-02  0.97704050033E-02 -0.19729500381E-01  0.10206723983E+01  0.10204073836E+01 0.  0.
     999903    2    3    3    0    0 -0.11862788738E+00  0.11852590116E-01 -0.55879670776E-01  0.13294423692E+00  0.18400352394E-01 0.  0.
         14    1    1    2    0    0  0.74968018718E-02 -0.97704050033E-02  0.19729500381E-01  0.23257601715E-01  0.00000000000E+00 0.  1.
     999901    1    3    3    0    0  0.11113108551E+00 -0.20821851128E-02  0.36150170395E-01  0.88772816136E+00  0.88000000000E+00 0.  1.
        -11    1    4    4    0    0 -0.98629336217E-01  0.38539595464E-02 -0.41706369965E-01  0.10715540763E+00  0.51100000000E-03 0.  1.
         11    1    4    4    0    0 -0.19998551160E-01  0.79986305698E-02 -0.14173300811E-01  0.25788829295E-01  0.51100000000E-03 0. -1.
</event>
<event>
 8    1  0.1083484E+005  0.1043930E+01  0.7957747E-01            NaN
         13   -1    0    0    0    0  0.00000000000E+00  0.00000000000E+00  0.74505805969E-08  0.10566000000E+00  0.10566000000E+00 0. -1.
     999900   -1    0    0    0    0 -0.00000000000E+00 -0.00000000000E+00 -0.74505805969E-08  0.93827000000E+00  0.93827000000E+00 0. -1.
     999902    2    1    2    0    0  0.11934813560E-01  0.13808664400E-01  0.15413313306E-01  0.10200408976E+01  0.10197611208E+01 0.  0.
     999903    2    3    3    0    0 -0.23962979295E-03  0.11965169157E+00 -0.50441362025E-01  0.13117206489E+00  0.18579421060E-01 0.  0.
         14    1    1    2    0    0 -0.11934813560E-01 -0.13808664400E-01 -0.15413313306E-01  0.23889102417E-01  0.00000000000E+00 0.  1.
     999901    1    3    3    0    0  0.12174443353E-01 -0.10584302717E+00  0.65854675330E-01  0.88886883269E+00  0.88000000000E+00 0.  1.
        -11    1    4    4    0    0 -0.88069685808E-02  0.81490216271E-01 -0.34693163741E-01  0.89006150208E-01  0.51100000000E-03 0.  1.
         11    1    4    4    0    0  0.85673387879E-02  0.38161475298E-01 -0.15748198284E-01  0.42165914682E-01  0.51100000000E-03 0. -1.
</event>
<event>
 8    1  0.1083484E+005  0.1043930E+01  0.7957747E-01            NaN
         13   -1    0    0    0    0  0.00000000000E+00  0.00000000000E+00  0.74505805969E-08  0.10566000000E+00  0.10566000000E+00 0.  1.
     999900   -1    0    0    0    0 -0.00000000000E+00 -0.00000000000E+00 -0.74505805969E-08  0.93827000000E+00  0.93827000000E+00 0.  1.
     999902    2    1    2    0    0  0.19940150133E-01  0.31173053142E-02  0.12450048715E-01  0.10202164829E+01  0.10199408518E+01 0.  0.
     999903    2    3    3    0    0 -0.34580824872E-01  0.37566207444E-01 -0.11626136504E+00  0.12851816419E+00  0.19828266113E-01 0.  0.
         14    1    1    2    0    0 -0.19940150133E-01 -0.31173053142E-02 -0.12450048715E-01  0.23713517090E-01  0.00000000000E+00 0.  1.
     999901    1    3    3    0    0  0.54520975005E-01 -0.34448902130E-01  0.12871141375E+00  0.89169831872E+00  0.88000000000E+00 0. -1.
        -11    1    4    4    0    0  0.24680978762E-02  0.22691907878E-02 -0.10354787760E-01  0.10896030677E-01  0.51100000000E-03 0.  1.
         11    1    4    4    0    0 -0.37048922748E-01  0.35297016656E-01 -0.10590657728E+00  0.11762213352E+00  0.51100000000E-03 0. -1.
</event>
<event>
 8    1  0.1083484E+005  0.1043930E+01  0.7957747E-01            NaN
         13   -1    0    0    0    0  0.00000000000E+00  0.00000000000E+00  0.74505805969E-08  0.10566000000E+00  0.10566000000E+00 0. -1.
     999900   -1    0    0    0    0 -0.00000000000E+00 -0.00000000000E+00 -0.74505805969E-08  0.93827000000E+00  0.93827000000E+00 0. -1.
     999902    2    1    2    0    0 -0.15272906841E-01  0.16454356778E-01  0.65760077231E-02  0.10205365946E+01  0.10202684399E+01 0.  0.
     999903    2    3    3    0    0  0.10623075433E+00 -0.23162170636E-01 -0.65620173191E-01  0.12837915472E+00  0.18808001599E-01 0.  0.
         14    1    1    2    0    0  0.15272906841E-01 -0.16454356778E-01 -0.65760077231E-02  0.23393405437E-01  0.00000000000E+00 0.  1.
     999901    1    3    3    0    0 -0.12150366117E+00  0.39616527415E-01  0.72196180914E-01  0.89215743984E+00  0.88000000000E+00 0.  1.
        -11    1    4    4    0    0  0.60628321293E-01 -0.60835977776E-02 -0.43640960137E-01  0.74950637271E-01  0.51100000000E-03 0.  1.
         11    1    4    4    0    0  0.45602433037E-01 -0.17078572859E-01 -0.21979213053E-01  0.53428517453E-01  0.51100000000E-03 0. -1.
</event>
<event>
 8    1  0.1083484E+005  0.1043930E+01  0.7957747E-01            NaN
         13   -1    0    0    0    0  0.00000000000E+00  0.00000000000E+00  0.74505805969E-08  0.10566000000E+00  0.10566000000E+00 0. -1.
     999900   -1    0    0    0    0 -0.00000000000E+00 -0.00000000000E+00 -0.74505805969E-08  0.93827000000E+00  0.93827000000E+00 0.  1.
     999902    2    1    2    0    0  0.15780982646E-01 -0.20842321326E-02 -0.17453740771E-01  0.10203076271E+01  0.10200341354E+01 0.  0.
     999903    2    3    3    0    0 -0.11989209187E-01  0.12750667111E+00  0.99635012572E-02  0.12996123889E+00  0.19722067354E-01 0.  0.
         14    1    1    2    0    0 -0.15780982646E-01  0.20842321326E-02  0.17453740771E-01  0.23622372949E-01  0.00000000000E+00 0. -1.
     999901    1    3    3    0    0  0.27770191833E-01 -0.12959090324E+00 -0.27417242028E-01  0.89034638816E+00  0.88000000000E+00 0.  1.
        -11    1    4    4    0    0  0.20473243424E-02  0.17865747589E-01 -0.43307902044E-02  0.18503873613E-01  0.51100000000E-03 0. -1.
         11    1    4    4    0    0 -0.14036533529E-01  0.10964092352E+00  0.14294291462E-01  0.11145736527E+00  0.51100000000E-03 0.  1.
</event>
<event>
 8    1  0.1083484E+005  0.1043930E+01  0.7957747E-01            NaN
         13   -1    0    0    0    0  0.00000000000E+00  0.00000000000E+00  0.74505805969E-08  0.10566000000E+00  0.10566000000E+00 0.  1.
     999900   -1    0    0    0    0 -0.00000000000E+00 -0.00000000000E+00 -0.74505805969E-08  0.93827000000E+00  0.93827000000E+00 0.  1.
     999902    2    1    2    0    0 -0.25814418304E-02  0.23681454662E-01  0.14539554068E-02  0.10200639336E+01  0.10197847026E+01 0.  0.
     999903    2    3    3    0    0  0.41620136704E-01 -0.85714815694E-01  0.83878516629E-01  0.12837164827E+00  0.19089502828E-01 0.  0.
         14    1    1    2    0    0  0.25814418304E-02 -0.23681454662E-01 -0.14539554068E-02  0.23866066353E-01  0.00000000000E+00 0.  1.
     999901    1    3    3    0    0 -0.44201578535E-01  0.10939627036E+00 -0.82424561222E-01  0.89169228538E+00  0.88000000000E+00 0.  1.
        -11    1    4    4    0    0  0.30145404691E-01 -0.40409355544E-01  0.42152850663E-01  0.65717466320E-01  0.51100000000E-03 0.  1.
         11    1    4    4    0    0  0.11474732013E-01 -0.45305460150E-01  0.41725665966E-01  0.62654181947E-01  0.51100000000E-03 0. -1.
</event>
<event>
 7    1  0.1083484E+005  0.1043930E+01  0.7957747E-01            NaN
         13   -1    0    0    0    0  0.00000000000E+00  0.00000000000E+00  0.74505805969E-08  0.10566000000E+00  0.10566000000E+00 0.  1.
     999900   -1    0    0    0    0 -0.00000000000E+00 -0.00000000000E+00 -0.74505805969E-08  0.93827000000E+00  0.93827000000E+00 0. -1.
     999902    2    1    2    0    0 -0.11625212861E-01  0.18504716590E-01 -0.38390166482E-02  0.10217419816E+01  0.10215010371E+01 0.  0.
         14    1    1    2    0    0  0.11625212861E-01 -0.18504716590E-01  0.38390166482E-02  0.22188018365E-01  0.00000000000E+00 0.  1.
     999901    1    3    3    0    0  0.46890064299E-01  0.69993931550E-02  0.11494106957E+00  0.88874018650E+00  0.88000000000E+00 0.  1.
        -11    1    3    3    0    0 -0.23133460744E-01  0.24395638686E-02 -0.43757575715E-01  0.49559005552E-01  0.51100000000E-03 0. -1.
         11    1    3    3    0    0 -0.35381816416E-01  0.90657595659E-02 -0.75022510504E-01  0.83442789579E-01  0.51100000000E-03 0.  1.
</event>
<event>
 8    1  0.1083484E+005  0.1043930E+01  0.7957747E-01            NaN
         13   -1    0    0    0    0  0.00000000000E+00  0.00000000000E+00  0.74505805969E-08  0.10566000000E+00  0.10566000000E+00 0. -1.
     999900   -1    0    0    0    0 -0.00000000000E+00 -0.00000000000E+00 -0.74505805969E-08  0.93827000000E+00  0.93827000000E+00 0. -1.
     999902    2    1    2    0    0 -0.54786958394E-02 -0.22602703269E-01 -0.87633347701E-02  0.10190765427E+01  0.10187734319E+01 0.  0.
     999903    2    3    3    0    0  0.89488651839E-01 -0.63867007913E-01 -0.68521750328E-01  0.13099287086E+00  0.19408463139E-01 0.  0.
         14    1    1    2    0    0  0.54786958394E-02  0.22602703269E-01  0.87633347701E-02  0.24853457294E-01  0.00000000000E+00 0. -1.
     999901    1    3    3    0    0 -0.94967347678E-01  0.41264304644E-01  0.59758415558E-01  0.88808367184E+00  0.88000000000E+00 0.  1.
        -11    1    4    4    0    0  0.36825200530E-01 -0.33921911119E-01 -0.22409680232E-01  0.54856597936E-01  0.51100000000E-03 0. -1.
         11    1    4    4    0    0  0.52663451309E-01 -0.29945096794E-01 -0.46112070096E-01  0.76136272928E-01  0.51100000000E-03 0.  1.
</event>
<event>
 8    1  0.1083484E+005  0.1043930E+01  0.7957747E-01            NaN
         13   -1    0    0    0    0  0.00000000000E+00  0.00000000000E+00  0.74505805969E-08  0.10566000000E+00  0.10566000000E+00 0. -1.
     999900   -1    0    0    0    0 -0.00000000000E+00 -0.00000000000E+00 -0.74505805969E-08  0.93827000000E+00  0.93827000000E+00 0.  1.
     999902    2    1    2    0    0  0.86247981998E-02  0.59505924020E-02  0.21738797912E-01  0.10197976145E+01  0.10195120414E+01 0.  0.
     999903    2    3    3    0    0 -0.72144521753E-01 -0.17868718215E-01  0.10689155513E+00  0.13168611552E+00  0.19781439624E-01 0.  0.
         14    1    1    2    0    0 -0.86247981998E-02 -0.59505924020E-02 -0.21738797912E-01  0.24132385472E-01  0.00000000000E+00 0.  1.
     999901    1    3    3    0    0  0.80769319953E-01  0.23819310617E-01 -0.85152757219E-01  0.88811149901E+00  0.88000000000E+00 0. -1.
        -11    1    4    4    0    0 -0.36245073796E-01 -0.93653696625E-02  0.36910988818E-01  0.52574687255E-01  0.51100000000E-03 0.  1.
         11    1    4    4    0    0 -0.35899447957E-01 -0.85033485527E-02  0.69980566312E-01  0.79111428268E-01  0.51100000000E-03 0. -1.
</event>
<event>
 8    1  0.1083484E+005  0.1043930E+01  0.7957747E-01            NaN
         13   -1    0    0    0    0  0.00000000000E+00  0.00000000000E+00  0.74505805969E-08  0.10566000000E+00  0.10566000000E+00 0.  1.
     999900   -1    0    0    0    0 -0.00000000000E+00 -0.00000000000E+00 -0.74505805969E-08  0.93827000000E+00  0.93827000000E+00 0.  1.
     999902    2    1    2    0    0  0.50887478657E-02  0.12881174280E-01  0.19451083715E-01  0.10200518790E+01  0.10197723624E+01 0.  0.
     999903    2    3    3    0    0 -0.68438050402E-01 -0.51412521651E-01 -0.92343947640E-01  0.12761812881E+00  0.20783840145E-01 0.  0.
         14    1    1    2    0    0 -0.50887478657E-02 -0.12881174280E-01 -0.19451083715E-01  0.23878121019E-01  0.00000000000E+00 0.  1.
     999901    1    3    3    0    0  0.73526798267E-01  0.64293695932E-01  0.11179503136E+00  0.89243375017E+00  0.88000000000E+00 0. -1.
        -11    1    4    4    0    0 -0.48908068379E-01 -0.35611561131E-01 -0.77902681426E-01  0.98637068758E-01  0.51100000000E-03 0. -1.
         11    1    4    4    0    0 -0.19529982023E-01 -0.15800960520E-01 -0.14441266214E-01  0.28981060057E-01  0.51100000000E-03 0.  1.
</event>
<event>
 8    1  0.1083484E+005  0.1043930E+01  0.7957747E-01            NaN
         13   -1    0    0    0    0  0.00000000000E+00  0.00000000000E+00  0.74505805969E-08  0.10566000000E+00  0.10566000000E+00 0. -1.
     999900   -1    0    0    0    0 -0.00000000000E+00 -0.00000000000E+00 -0.74505805969E-08  0.93827000000E+00  0.93827000000E+00 0. -1.
     999902    2    1    2    0    0  0.11324481970E-01 -0.10795506974E-01  0.17512992356E-01  0.10204461382E+01  0.10201758815E+01 0.  0.
     999903    2    3    3    0    0 -0.78736016664E-01  0.63575269037E-01 -0.75596024137E-01  0.12785933870E+00  0.19800921015E-01 0.  0.
         14    1    1    2    0    0 -0.11324481970E-01  0.10795506974E-01 -0.17512992356E-01  0.23483861777E-01  0.00000000000E+00 0.  1.
     999901    1    3    3    0    0  0.90060498633E-01 -0.74370776012E-01  0.93109016493E-01  0.89258679953E+00  0.88000000000E+00 0.  1.
        -11    1    4    4    0    0 -0.26046929486E-01  0.30819053100E-01 -0.37273624717E-01  0.54934877721E-01  0.51100000000E-03 0.  1.
         11    1    4    4    0    0 -0.52689087177E-01  0.32756215937E-01 -0.38322399419E-01  0.72924460974E-01  0.51100000000E-03 0. -1.
</event>
<event>
 8    1  0.1083484E+005  0.1043930E+01  0.7957747E-01            NaN
         13   -1    0    0    0    0  0.00000000000E+00  0.00000000000E+00  0.74505805969E-08  0.10566000000E+00  0.10566000000E+00 0.  1.
     999900   -1    0    0    0    0 -0.00000000000E+00 -0.00000000000E+00 -0.74505805969E-08  0.93827000000E+00  0.93827000000E+00 0.  1.
     999902    2    1    2    0    0 -0.17564961992E-01  0.62089278242E-02 -0.17310272047E-01  0.10184992274E+01  0.10181816891E+01 0.  0.
     999903    2    3    3    0    0 -0.10579875812E+00  0.69665028362E-01 -0.29394191295E-01  0.13173099359E+00  0.21034324147E-01 0.  0.
         14    1    1    2    0    0  0.17564961992E-01 -0.62089278242E-02  0.17310272047E-01  0.25430772557E-01  0.00000000000E+00 0. -1.
     999901    1    3    3    0    0  0.88233796130E-01 -0.63456100538E-01  0.12083919248E-01  0.88676823386E+00  0.88000000000E+00 0.  1.
        -11    1    4    4    0    0 -0.18328925241E-01  0.21492984942E-01 -0.10250154088E-01  0.30053696645E-01  0.51100000000E-03 0.  1.
         11    1    4    4    0    0 -0.87469832881E-01  0.48172043420E-01 -0.19144037207E-01  0.10167729694E+00  0.51100000000E-03 0. -1.
</event>
<event>
 8    1  0.1083484E+005  0.1043930E+01  0.7957747E-01            NaN
         13   -1    0    0    0    0  0.00000000000E+00  0.00000000000E+00  0.74505805969E-08  0.10566000000E+00  0.10566000000E+00 0.  1.
     999900   -1    0    0    0    0 -0.00000000000E+00 -0.00000000000E+00 -0.74505805969E-08  0.93827000000E+00  0.93827000000E+00 0. -1.
     999902    2    1    2    0    0 -0.37538406911E-02 -0.24996150329E-02 -0.23507780020E-01  0.10199935191E+01  0.10197126183E+01 0.  0.
     999903    2    3    3    0    0 -0.10440961861E+00  0.45423588639E-01  0.57705495863E-01  0.12925011317E+00  0.20273051978E-01 0.  0.
         14    1    1    2    0    0  0.37538406911E-02  0.24996150329E-02  0.23507780020E-01  0.23936480875E-01  0.00000000000E+00 0.  1.
     999901    1    3    3    0    0  0.10065577792E+00 -0.47923203672E-01 -0.81213275883E-01  0.89074340596E+00  0.88000000000E+00 0. -1.
        -11    1    4    4    0    0 -0.35496342508E-01  0.25122942793E-01  0.26455276459E-01  0.50904767552E-01  0.51100000000E-03 0.  1.
         11    1    4    4    0    0 -0.68913276107E-01  0.20300645846E-01  0.31250219405E-01  0.78345345614E-01  0.51100000000E-03 0. -1.
</event>
<event>
 8    1  0.1083484E+005  0.1043930E+01  0.7957747E-01            NaN
         13   -1    0    0    0    0  0.00000000000E+00  0.00000000000E+00  0.74505805969E-08  0.10566000000E+00  0.10566000000E+00 0. -1.
     999900   -1    0    0    0    0 -0.00000000000E+00 -0.00000000000E+00 -0.74505805969E-08  0.93827000000E+00  0.93827000000E+00 0.  1.
     999902    2    1    2    0    0  0.21606181061E-01  0.14476154198E-02 -0.96996257639E-02  0.10202022654E+01  0.10199262997E+01 0.  0.
     999903    2    3    3    0    0  0.86945241754E-01 -0.76535147143E-01 -0.61915577310E-01  0.13280325157E+00  0.19648437640E-01 0.  0.
         14    1    1    2    0    0 -0.21606181061E-01 -0.14476154198E-02  0.96996257639E-02  0.23727734625E-01  0.00000000000E+00 0. -1.
     999901    1    3    3    0    0 -0.65339060693E-01  0.77982762562E-01  0.52215951546E-01  0.88739901381E+00  0.88000000000E+00 0. -1.
        -11    1    4    4    0    0  0.54418043105E-01 -0.56270291642E-01 -0.49030987115E-01  0.92368652450E-01  0.51100000000E-03 0. -1.
         11    1    4    4    0    0  0.32527198649E-01 -0.20264855501E-01 -0.12884590195E-01  0.40434599119E-01  0.51100000000E-03 0.  1.
</event>
<event>
 8    1  0.1083484E+005  0.1043930E+01  0.7957747E-01            NaN
         13   -1    0    0    0    0  0.00000000000E+00  0.00000000000E+00  0.74505805969E-08  0.10566000000E+00  0.10566000000E+00 0.  1.
     999900   -1    0    0    0    0 -0.00000000000E+00 -0.00000000000E+00 -0.74505805969E-08  0.93827000000E+00  0.93827000000E+00 0. -1.
     999902    2    1    2    0    0 -0.12424410546E-02  0.16464046106E-01  0.16327625017E-01  0.10207093236E+01  0.10204451595E+01 0.  0.
     999903    2    3    3    0    0  0.35497112204E-01  0.34139081958E-01 -0.11813998349E+00  0.12956189505E+00  0.20092462713E-01 0.  0.
         14    1    1    2    0    0  0.12424410546E-02 -0.16464046106E-01 -0.16327625017E-01  0.23220676403E-01  0.00000000000E+00 0. -1.
     999901    1    3    3    0    0 -0.36739553259E-01 -0.17675035853E-01  0.13446760851E+00  0.89114742855E+00  0.88000000000E+00 0.  1.
        -11    1    4    4    0    0  0.12941954595E-01  0.26090601579E-01 -0.68917884942E-01  0.74820783646E-01  0.51100000000E-03 0.  1.
         11    1    4    4    0    0  0.22555157609E-01  0.80484803793E-02 -0.49222098550E-01  0.54741111405E-01  0.51100000000E-03 0. -1.
</event>
<event>
 8    1  0.1083484E+005  0.1043930E+01  0.7957747E-01            NaN
         13   -1    0    0    0    0  0.00000000000E+00  0.00000000000E+00  0.74505805969E-08  0.10566000000E+00  0.10566000000E+00 0.  1.
     999900   -1    0    0    0    0 -0.00000000000E+00 -0.00000000000E+00 -0.74505805969E-08  0.93827000000E+00  0.93827000000E+00 0. -1.
     999902    2    1    2    0    0 -0.10459871758E-01  0.18926155152E-01 -0.10639769948E-01  0.10198299384E+01  0.10195451389E+01 0.  0.
     999903    2    3    3    0    0  0.76820492772E-02  0.12923114783E+00  0.19318420111E-01  0.13225244099E+00  0.18915690356E-01 0.  0.
         14    1    1    2    0    0  0.10459871758E-01 -0.18926155152E-01  0.10639769948E-01  0.24100061630E-01  0.00000000000E+00 0.  1.
     999901    1    3    3    0    0 -0.18141921035E-01 -0.11030499268E+00 -0.29958190060E-01  0.88757749738E+00  0.88000000000E+00 0.  1.
        -11    1    4    4    0    0  0.79633949698E-02  0.44953000786E-01 -0.56217809648E-03  0.45659228031E-01  0.51100000000E-03 0.  1.
         11    1    4    4    0    0 -0.28134569262E-03  0.84278147041E-01  0.19880598208E-01  0.86593212957E-01  0.51100000000E-03 0. -1.
</event>
<event>
 8    1  0.1083484E+005  0.1043930E+01  0.7957747E-01            NaN
         13   -1    0    0    0    0  0.00000000000E+00  0.00000000000E+00  0.74505805969E-08  0.10566000000E+00  0.10566000000E+00 0.  1.
     999900   -1    0    0    0    0 -0.00000000000E+00 -0.00000000000E+00 -0.74505805969E-08  0.93827000000E+00  0.93827000000E+00 0.  1.
     999902    2    1    2    0    0  0.19971225661E-01 -0.15158696421E-01  0.18830232550E-02  0.10187867761E+01  0.10184764668E+01 0.  0.
     999903    2    3    3    0    0  0.84226983794E-01 -0.62553815182E-01  0.77548277531E-01  0.13193823748E+00  0.19667195268E-01 0.  0.
         14    1    1    2    0    0 -0.19971225661E-01  0.15158696421E-01 -0.18830232550E-02  0.25143223902E-01  0.00000000000E+00 0.  1.
     999901    1    3    3    0    0 -0.64255758133E-01  0.47395118761E-01 -0.75665254276E-01  0.88684853861E+00  0.88000000000E+00 0. -1.
        -11    1    4    4    0    0  0.25554705947E-01 -0.87783117169E-02  0.22510640402E-01  0.35172315888E-01  0.51100000000E-03 0.  1.
         11    1    4    4    0    0  0.58672277847E-01 -0.53775503465E-01  0.55037637129E-01  0.96765921597E-01  0.51100000000E-03 0. -1.
</event>
<event>
 8    1  0.1083484E+005  0.1043930E+01  0.7957747E-01            NaN
         13   -1    0    0    0    0  0.00000000000E+00  0.00000000000E+00  0.74505805969E-08  0.10566000000E+00  0.10566000000E+00 0. -1.
     999900   -1    0    0    0    0 -0.00000000000E+00 -0.00000000000E+00 -0.74505805969E-08  0.93827000000E+00  0.93827000000E+00 0.  1.
     999902    2    1    2    0    0  0.52019337618E-02 -0.22423066314E-01  0.19996288344E-02  0.10208247510E+01  0.10205632365E+01 0.  0.
     999903    2    3    3    0    0  0.32359422409E-01 -0.11836001619E+00  0.49347407129E-01  0.13392946985E+00  0.21111860475E-01 0.  0.
         14    1    1    2    0    0 -0.52019337618E-02  0.22423066314E-01 -0.19996288344E-02  0.23105249041E-01  0.00000000000E+00 0. -1.
     999901    1    3    3    0    0 -0.27157488647E-01  0.95936949879E-01 -0.47347778294E-01  0.88689528111E+00  0.88000000000E+00 0.  1.
        -11    1    4    4    0    0  0.11749905792E-01 -0.74587878805E-01  0.23543578433E-01  0.79094710046E-01  0.51100000000E-03 0.  1.
         11    1    4    4    0    0  0.20609516617E-01 -0.43772137387E-01  0.25803828696E-01  0.54834759806E-01  0.51100000000E-03 0. -1.
</event>
<event>
 8    1  0.1083484E+005  0.1043930E+01  0.7957747E-01            NaN
         13   -1    0    0    0    0  0.00000000000E+00  0.00000000000E+00  0.74505805969E-08  0.10566000000E+00  0.10566000000E+00 0.  1.
     999900   -1    0    0    0    0 -0.00000000000E+00 -0.00000000000E+00 -0.74505805969E-08  0.93827000000E+00  0.93827000000E+00 0.  1.
     999902    2    1    2    0    0 -0.21179340273E-01  0.59692105533E-02 -0.86978940835E-02  0.10202688654E+01  0.10199944649E+01 0.  0.
     999903    2    3    3    0    0  0.31648777772E-01  0.11674647257E+00 -0.46147038510E-01  0.13096304047E+00  0.19758158151E-01 0.  0.
         14    1    1    2    0    0  0.21179340273E-01 -0.59692105533E-02  0.86978940835E-02  0.23661134599E-01  0.00000000000E+00 0.  1.
     999901    1    3    3    0    0 -0.52828118045E-01 -0.11077726202E+00  0.37449144427E-01  0.88930582493E+00  0.88000000000E+00 0. -1.
        -11    1    4    4    0    0  0.15831191962E-01  0.28070392187E-01 -0.15929294393E-01  0.35952428253E-01  0.51100000000E-03 0.  1.
         11    1    4    4    0    0  0.15817585811E-01  0.88676080385E-01 -0.30217744118E-01  0.95010612217E-01  0.51100000000E-03 0. -1.
</event>
<event>
 8    1  0.1083484E+005  0.1043930E+01  0.7957747E-01            NaN
         13   -1    0    0    0    0  0.00000000000E+00  0.00000000000E+00  0.74505805969E-08  0.10566000000E+00  0.10566000000E+00 0.  1.
     999900   -1    0    0    0    0 -0.00000000000E+00 -0.00000000000E+00 -0.74505805969E-08  0.93827000000E+00  0.93827000000E+00 0.  1.
     999902    2    1    2    0    0 -0.97639408172E-02  0.16086363476E-02  0.22399125900E-01  0.10194423890E+01  0.10191482431E+01 0.  0.
     999903    2    3    3    0    0  0.12028786950E+00  0.39183484892E-01  0.94284705244E-02  0.12899666887E+00  0.23382204447E-01 0.  0.
         14    1    1    2    0    0  0.97639408172E-02 -0.16086363476E-02 -0.22399125900E-01  0.24487610995E-01  0.00000000000E+00 0. -1.
     999901    1    3    3    0    0 -0.13005181032E+00 -0.37574848544E-01  0.12970655375E-01  0.89044572014E+00  0.88000000000E+00 0. -1.
        -11    1    4    4    0    0  0.14402179504E-01  0.11309386053E-01  0.65812837363E-02  0.19465338527E-01  0.51100000000E-03 0. -1.
         11    1    4    4    0    0  0.10588569000E+00  0.27874098839E-01  0.28471867880E-02  0.10953133034E+00  0.51100000000E-03 0.  1.
</event>
<event>
 8    1  0.1083484E+005  0.1043930E+01  0.7957747E-01            NaN
         13   -1    0    0    0    0  0.00000000000E+00  0.00000000000E+00  0.74505805969E-08  0.10566000000E+00  0.10566000000E+00 0. -1.
     999900   -1    0    0    0    0 -0.00000000000E+00 -0.00000000000E+00 -0.74505805969E-08  0.93827000000E+00  0.93827000000E+00 0. -1.
     999902    2    1    2    0    0 -0.23806217323E-01 -0.14399385257E-02 -0.30720118306E-03  0.10200782961E+01  0.10197994050E+01 0.  0.
     999903    2    3    3    0    0  0.10197545102E+00 -0.73981383097E-01 -0.10838342101E-01  0.12811742577E+00  0.20600181352E-01 0.  0.
         14    1    1    2    0    0  0.23806217323E-01  0.14399385257E-02  0.30720118306E-03  0.23851703896E-01  0.00000000000E+00 0. -1.
     999901    1    3    3    0    0 -0.12578166834E+00  0.72541444572E-01  0.10531140918E-01  0.89196087033E+00  0.88000000000E+00 0.  1.
        -11    1    4    4    0    0  0.23657458221E-01 -0.26520373845E-01 -0.83280015549E-02  0.36505099497E-01  0.51100000000E-03 0. -1.
         11    1    4    4    0    0  0.78317992798E-01 -0.47461009252E-01 -0.25103405462E-02  0.91612326277E-01  0.51100000000E-03 0.  1.
</event>
<event>
 7    1  0.1168494E+005  0.1043930E+01  0.7957747E-01            NaN
         13   -1    0    0    0    0  0.00000000000E+00  0.00000000000E+00  0.74505805969E-08  0.10566000000E+00  0.10566000000E+00 0. -1.
     999900   -1    0    0    0    0 -0.00000000000E+00 -0.00000000000E+00 -0.74505805969E-08  0.93827000000E+00  0.93827000000E+00 0.  1.
     999903    2    1    2    0    0 -0.18684017158E-01  0.33848167968E-01  0.10165875696E+00  0.11060474498E+00  0.20102631010E-01 0.  0.
         14    1    1    2    0    0  0.41743445613E-01  0.16415379249E-01  0.51245175321E-02  0.45146878159E-01  0.00000000000E+00 0. -1.
     999901    1    1    2    0    0 -0.23059428455E-01 -0.50263547217E-01 -0.10678327449E+00  0.88817837686E+00  0.88000000000E+00 0.  1.
        -11    1    3    3    0    0  0.30247142196E-02  0.10548445897E-01  0.35823354581E-01  0.37469887395E-01  0.51100000000E-03 0. -1.
         11    1    3    3    0    0 -0.21708731378E-01  0.23299722071E-01  0.65835402375E-01  0.73134857582E-01  0.51100000000E-03 0.  1.
</event>
<event>
 8    1  0.1083484E+005  0.1043930E+01  0.7957747E-01            NaN
         13   -1    0    0    0    0  0.00000000000E+00  0.00000000000E+00  0.74505805969E-08  0.10566000000E+00  0.10566000000E+00 0.  1.
     999900   -1    0    0    0    0 -0.00000000000E+00 -0.00000000000E+00 -0.74505805969E-08  0.93827000000E+00  0.93827000000E+00 0. -1.
     999902    2    1    2    0    0 -0.10908115154E-01 -0.15479388886E-01 -0.14331453666E-01  0.10201815470E+01  0.10199050935E+01 0.  0.
     999903    2    3    3    0    0 -0.12816042070E+00 -0.20905105446E-01  0.12085722935E-01  0.13199496255E+00  0.20358992353E-01 0.  0.
         14    1    1    2    0    0  0.10908115154E-01  0.15479388886E-01  0.14331453666E-01  0.23748453016E-01  0.00000000000E+00 0. -1.
     999901    1    3    3    0    0  0.11725230555E+00  0.54257165595E-02 -0.26417176601E-01  0.88818658444E+00  0.88000000000E+00 0. -1.
        -11    1    4    4    0    0 -0.10694096809E+00 -0.12589037114E-01  0.38272610050E-02  0.10774861279E+00  0.51100000000E-03 0.  1.
         11    1    4    4    0    0 -0.21219452614E-01 -0.83160683316E-02  0.82584619299E-02  0.24246349750E-01  0.51100000000E-03 0. -1.
</event>
<event>
 8    1  0.1083484E+005  0.1043930E+01  0.7957747E-01            NaN
         13   -1    0    0    0    0  0.00000000000E+00  0.00000000000E+00  0.74505805969E-08  0.10566000000E+00  0.10566000000E+00 0. -1.
     999900   -1    0    0    0    0 -0.00000000000E+00 -0.00000000000E+00 -0.74505805969E-08  0.93827000000E+00  0.93827000000E+00 0.  1.
     999902    2    1    2    0    0  0.22318410161E-01 -0.62083541667E-02  0.90700961059E-02  0.10190518623E+01  0.10187481417E+01 0.  0.
     999903    2    3    3    0    0  0.90669642464E-03  0.92958536105E-01  0.87997985558E-01  0.12971382454E+00  0.20974252847E-01 0.  0.
         14    1    1    2    0    0 -0.22318410161E-01  0.62083541667E-02 -0.90700961059E-02  0.24878137731E-01  0.00000000000E+00 0.  1.
     999901    1    3    3    0    0  0.21411713737E-01 -0.99166890272E-01 -0.78927889452E-01  0.88933803773E+00  0.88000000000E+00 0.  1.
        -11    1    4    4    0    0  0.71577686584E-02  0.20128920876E-01  0.27500622741E-01  0.34827467320E-01  0.51100000000E-03 0. -1.
         11    1    4    4    0    0 -0.62510722337E-02  0.72829615229E-01  0.60497362817E-01  0.94886357224E-01  0.51100000000E-03 0.  1.
</event>
<event>
 8    1  0.1083484E+005  0.1043930E+01  0.7957747E-01            NaN
         13   -1    0    0    0    0  0.00000000000E+00  0.00000000000E+00  0.74505805969E-08  0.10566000000E+00  0.10566000000E+00 0.  1.
     999900   -1    0    0    0    0 -0.00000000000E+00 -0.00000000000E+00 -0.74505805969E-08  0.93827000000E+00  0.93827000000E+00 0.  1.
     999902    2    1    2    0    0 -0.14933375779E-01  0.86498627683E-02  0.16149374784E-01  0.10202946844E+01  0.10200208894E+01 0.  0.
     999903    2    3    3    0    0  0.79305769092E-01  0.99190737794E-01  0.22827251875E-01  0.13061875433E+00  0.20296996829E-01 0.  0.
         14    1    1    2    0    0  0.14933375779E-01 -0.86498627683E-02 -0.16149374784E-01  0.23635315610E-01  0.00000000000E+00 0. -1.
     999901    1    3    3    0    0 -0.94239144872E-01 -0.90540875026E-01 -0.66778770902E-02  0.88967593005E+00  0.88000000000E+00 0.  1.
        -11    1    4    4    0    0  0.69411968107E-01  0.73739011174E-01  0.16897794178E-01  0.10267063677E+00  0.51100000000E-03 0. -1.
         11    1    4    4    0    0  0.98938009850E-02  0.25451726620E-01  0.59294576968E-02  0.27948117566E-01  0.51100000000E-03 0.  1.
</event>
<event>
 8    1  0.1083484E+005  0.1043930E+01  0.7957747E-01            NaN
         13   -1    0    0    0    0  0.00000000000E+00  0.00000000000E+00  0.74505805969E-08  0.10566000000E+00  0.10566000000E+00 0. -1.
     999900   -1    0    0    0    0 -0.00000000000E+00 -0.00000000000E+00 -0.74505805969E-08  0.93827000000E+00  0.93827000000E+00 0. -1.
     999902    2    1    2    0    0  0.82512954151E-02 -0.18704957639E-01  0.12444771153E-01  0.10199960984E+01  0.10197152588E+01 0.  0.
     999903    2    3    3    0    0  0.11224111621E+00  0.60735334670E-01  0.17567283737E-01  0.13030464459E+00  0.19591883481E-01 0.  0.
         14    1    1    2    0    0 -0.82512954151E-02  0.18704957639E-01 -0.12444771153E-01  0.23933901591E-01  0.00000000000E+00 0.  1.
     999901    1    3    3    0    0 -0.10398982079E+00 -0.79440292309E-01 -0.51225125841E-02  0.88969145382E+00  0.88000000000E+00 0. -1.
        -11    1    4    4    0    0  0.40546498652E-01  0.29077766195E-01 -0.38896055667E-03  0.49899373254E-01  0.51100000000E-03 0. -1.
         11    1    4    4    0    0  0.71694617554E-01  0.31657568475E-01  0.17956244293E-01  0.80405271333E-01  0.51100000000E-03 0.  1.
</event>
<event>
 8    1  0.1083484E+005  0.1043930E+01  0.7957747E-01            NaN
         13   -1    0    0    0    0  0.00000000000E+00  0.00000000000E+00  0.74505805969E-08  0.10566000000E+00  0.10566000000E+00 0.  1.
     999900   -1    0    0    0    0 -0.00000000000E+00 -0.00000000000E+00 -0.74505805969E-08  0.93827000000E+00  0.93827000000E+00 0. -1.
     999902    2    1    2    0    0  0.11998707564E-01  0.27563144572E-02 -0.19812668862E-01  0.10206038752E+01  0.10203372785E+01 0.  0.
     999903    2    3    3    0    0 -0.99139531896E-01  0.52252416168E-01 -0.64974577987E-01  0.13108649456E+00  0.20075146115E-01 0.  0.
         14    1    1    2    0    0 -0.11998707564E-01 -0.27563144572E-02  0.19812668862E-01  0.23326124840E-01  0.00000000000E+00 0.  1.
     999901    1    3    3    0    0  0.11113823946E+00 -0.49496101711E-01  0.45161909124E-01  0.88951738060E+00  0.88000000000E+00 0.  1.
        -11    1    4    4    0    0 -0.47354583454E-01  0.29941369536E-01 -0.42752133028E-01  0.70476578970E-01  0.51100000000E-03 0. -1.
         11    1    4    4    0    0 -0.51784948441E-01  0.22311046632E-01 -0.22222444958E-01  0.60609915590E-01  0.51100000000E-03 0.  1.
</event>
<event>
 8    1  0.1083484E+005  0.1043930E+01  0.7957747E-01            NaN
         13   -1    0    0    0    0  0.00000000000E+00  0.00000000000E+00  0.74505805969E-08  0.10566000000E+00  0.10566000000E+00 0.  1.
     999900   -1    0    0    0    0 -0.00000000000E+00 -0.00000000000E+00 -0.74505805969E-08  0.93827000000E+00  0.93827000000E+00 0.  1.
     999902    2    1    2    0    0  0.26362026641E-01  0.22723753268E-02 -0.25754472273E-01  0.10070055775E+01  0.10063283858E+01 0.  0.
     999903    2    3    3    0    0  0.55571014998E-01  0.60691680255E-01 -0.88356204555E-01  0.12236725753E+00  0.19882380960E-01 0.  0.
         14    1    1    2    0    0 -0.26362026641E-01 -0.22723753268E-02  0.25754472273E-01  0.36924422545E-01  0.00000000000E+00 0.  1.
     999901    1    3    3    0    0 -0.29208988357E-01 -0.58419304928E-01  0.62601732283E-01  0.88463831992E+00  0.88000000000E+00 0. -1.
        -11    1    4    4    0    0  0.22625418876E-01  0.16693541458E-01 -0.19313590423E-01  0.34115389515E-01  0.51100000000E-03 0. -1.
         11    1    4    4    0    0  0.32945596122E-01  0.43998138797E-01 -0.69042614132E-01  0.88251868018E-01  0.51100000000E-03 0.  1.
</event>
<event>
 8    1  0.1083484E+005  0.1043930E+01  0.7957747E-01            NaN
         13   -1    0    0    0    0  0.00000000000E+00  0.00000000000E+00  0.74505805969E-08  0.10566000000E+00  0.10566000000E+00 0.  1.
     999900   -1    0    0    0    0 -0.00000000000E+00 -0.00000000000E+00 -0.74505805969E-08  0.93827000000E+00  0.93827000000E+00 0. -1.
     999902    2    1    2    0    0 -0.18911456434E-01  0.18047083127E-01  0.34782129087E-02  0.10175588347E+01  0.10172170583E+01 0.  0.
     999903    2    3    3    0    0  0.33227766180E-01  0.10816590884E+00 -0.59257009771E-01  0.12920326994E+00  0.19445911582E-01 0.  0.
         14    1    1    2    0    0  0.18911456434E-01 -0.18047083127E-01 -0.34782129087E-02  0.26371165293E-01  0.00000000000E+00 0.  1.
     999901    1    3    3    0    0 -0.52139222615E-01 -0.90118825710E-01  0.62735222680E-01  0.88835556476E+00  0.88000000000E+00 0. -1.
        -11    1    4    4    0    0  0.95545882024E-02  0.12530275012E-01 -0.12643591601E-01  0.20209390816E-01  0.51100000000E-03 0.  1.
         11    1    4    4    0    0  0.23673177978E-01  0.95635633825E-01 -0.46613418170E-01  0.10899387913E+00  0.51100000000E-03 0. -1.
</event>
<event>
 8    1  0.1083484E+005  0.1043930E+01  0.7957747E-01            NaN
         13   -1    0    0    0    0  0.00000000000E+00  0.00000000000E+00  0.74505805969E-08  0.10566000000E+00  0.10566000000E+00 0. -1.
     999900   -1    0    0    0    0 -0.00000000000E+00 -0.00000000000E+00 -0.74505805969E-08  0.93827000000E+00  0.93827000000E+00 0.  1.
     999902    2    1    2    0    0 -0.17619480867E-01  0.87217765446E-02  0.12258770823E-01  0.10207612073E+01  0.10204982359E+01 0.  0.
     999903    2    3    3    0    0  0.10923124611E+00 -0.48407323337E-01  0.44872301761E-01  0.12923527759E+00  0.20334685336E-01 0.  0.
         14    1    1    2    0    0  0.17619480867E-01 -0.87217765446E-02 -0.12258770823E-01  0.23168792679E-01  0.00000000000E+00 0. -1.
     999901    1    3    3    0    0 -0.12685072698E+00  0.57129099881E-01 -0.32613530938E-01  0.89152592973E+00  0.88000000000E+00 0.  1.
        -11    1    4    4    0    0  0.99036020808E-01 -0.41417769470E-01  0.33563210001E-01  0.11247362016E+00  0.51100000000E-03 0. -1.
         11    1    4    4    0    0  0.10195225305E-01 -0.69895538670E-02  0.11309091759E-01  0.16761657427E-01  0.51100000000E-03 0.  1.
</event>
<event>
 8    1  0.1083484E+005  0.1043930E+01  0.7957747E-01            NaN
         13   -1    0    0    0    0  0.00000000000E+00  0.00000000000E+00  0.74505805969E-08  0.10566000000E+00  0.10566000000E+00 0. -1.
     999900   -1    0    0    0    0 -0.00000000000E+00 -0.00000000000E+00 -0.74505805969E-08  0.93827000000E+00  0.93827000000E+00 0.  1.
     999902    2    1    2    0    0  0.25766874796E-02 -0.26710022075E-02 -0.24421717545E-01  0.10192278977E+01  0.10189285125E+01 0.  0.
     999903    2    3    3    0    0  0.43407872667E-01  0.10144918284E+00 -0.67855306143E-01  0.13108676293E+00  0.20080257373E-01 0.  0.
         14    1    1    2    0    0 -0.25766874796E-02  0.26710022075E-02  0.24421717545E-01  0.24702102320E-01  0.00000000000E+00 0. -1.
     999901    1    3    3    0    0 -0.40831185188E-01 -0.10412018504E+00  0.43433588598E-01  0.88814113475E+00  0.88000000000E+00 0. -1.
        -11    1    4    4    0    0  0.11168586700E-01  0.26681493394E-01 -0.79545199879E-02  0.30002915323E-01  0.51100000000E-03 0.  1.
         11    1    4    4    0    0  0.32239285968E-01  0.74767689441E-01 -0.59900786155E-01  0.10108384761E+00  0.51100000000E-03 0. -1.
</event>
<event>
 8    1  0.1083484E+005  0.1043930E+01  0.7957747E-01            NaN
         13   -1    0    0    0    0  0.00000000000E+00  0.00000000000E+00  0.74505805969E-08  0.10566000000E+00  0.10566000000E+00 0.  1.
     999900   -1    0    0    0    0 -0.00000000000E+00 -0.00000000000E+00 -0.74505805969E-08  0.93827000000E+00  0.93827000000E+00 0.  1.
     999902    2    1    2    0    0 -0.16981745232E-01 -0.13681551783E-01 -0.86507948689E-02  0.10204693781E+01  0.10201996622E+01 0.  0.
     999903    2    3    3    0    0 -0.83145068399E-01 -0.82555964714E-01 -0.61213052572E-01  0.13374277925E+00  0.20285548729E-01 0.  0.
         14    1    1    2    0    0  0.16981745232E-01  0.13681551783E-01  0.86507948689E-02  0.23460621948E-01  0.00000000000E+00 0.  1.
     999901    1    3    3    0    0  0.66163323166E-01  0.68874412931E-01  0.52562257703E-01  0.88672659880E+00  0.88000000000E+00 0. -1.
        -11    1    4    4    0    0 -0.46926605735E-01 -0.53089299832E-01 -0.46630357315E-01  0.84824710002E-01  0.51100000000E-03 0. -1.
         11    1    4    4    0    0 -0.36218462664E-01 -0.29466664882E-01 -0.14582695257E-01  0.48918069248E-01  0.51100000000E-03 0.  1.
</event>
<event>
 8    1  0.1083484E+005  0.1043930E+01  0.7957747E-01            NaN
         13   -1    0    0    0    0  0.00000000000E+00  0.00000000000E+00  0.74505805969E-08  0.10566000000E+00  0.10566000000E+00 0.  1.
     999900   -1    0    0    0    0 -0.00000000000E+00 -0.00000000000E+00 -0.74505805969E-08  0.93827000000E+00  0.93827000000E+00 0. -1.
     999902    2    1    2    0    0  0.13328821572E-02  0.59897914722E-02 -0.23118837022E-01  0.10200106605E+01  0.10197301666E+01 0.  0.
     999903    2    3    3    0    0  0.47880034604E-01  0.11248016372E+00 -0.45551231508E-01  0.13208608651E+00  0.20676910142E-01 0.  0.
         14    1    1    2    0    0 -0.13328821572E-02 -0.59897914722E-02  0.23118837022E-01  0.23919339497E-01  0.00000000000E+00 0.  1.
     999901    1    3    3    0    0 -0.46547152447E-01 -0.10649037225E+00  0.22432394486E-01  0.88792457400E+00  0.88000000000E+00 0. -1.
        -11    1    4    4    0    0  0.36174844642E-01  0.59376728355E-01 -0.27793101632E-01  0.74879455623E-01  0.51100000000E-03 0. -1.
         11    1    4    4    0    0  0.11705189962E-01  0.53103435364E-01 -0.17758129876E-01  0.57206630885E-01  0.51100000000E-03 0.  1.
</event>
<event>
 8    1  0.1083484E+005  0.1043930E+01  0.7957747E-01            NaN
         13   -1    0    0    0    0  0.00000000000E+00  0.00000000000E+00  0.74505805969E-08  0.10566000000E+00  0.10566000000E+00 0.  1.
     999900   -1    0    0    0    0 -0.00000000000E+00 -0.00000000000E+00 -0.74505805969E-08  0.93827000000E+00  0.93827000000E+00 0.  1.
     999902    2    1    2    0    0  0.20567328482E-01  0.98929835069E-02 -0.56740301545E-02  0.10204123313E+01  0.10201412868E+01 0.  0.
     999903    2    3    3    0    0  0.10752851084E+00 -0.43423135546E-01 -0.61498445309E-01  0.13276306434E+00  0.19900329929E-01 0.  0.
         14    1    1    2    0    0 -0.20567328482E-01 -0.98929835069E-02  0.56740301545E-02  0.23517668714E-01  0.00000000000E+00 0. -1.
     999901    1    3    3    0    0 -0.86961182363E-01  0.53316119053E-01  0.55824415155E-01  0.88764926695E+00  0.88000000000E+00 0.  1.
        -11    1    4    4    0    0  0.86874769915E-01 -0.28736246651E-01 -0.54336309149E-01  0.10642223984E+00  0.51100000000E-03 0.  1.
         11    1    4    4    0    0  0.20653740930E-01 -0.14686888896E-01 -0.71621361605E-02  0.26340824498E-01  0.51100000000E-03 0. -1.
</event>
<event>
 8    1  0.1083484E+005  0.1043930E+01  0.7957747E-01            NaN
         13   -1    0    0    0    0  0.00000000000E+00  0.00000000000E+00  0.74505805969E-08  0.10566000000E+00  0.10566000000E+00 0.  1.
     999900   -1    0    0    0    0 -0.00000000000E+00 -0.00000000000E+00 -0.74505805969E-08  0.93827000000E+00  0.93827000000E+00 0. -1.
     999902    2    1    2    0    0 -0.12564150617E-01  0.77384878387E-02 -0.13698214081E-01  0.10237958712E+01  0.10235978716E+01 0.  0.
     999903    2    3    3    0    0  0.90327604835E-01 -0.46458940348E-01  0.80539684540E-01  0.13115660691E+00  0.19947566690E-01 0.  0.
         14    1    1    2    0    0  0.12564150617E-01 -0.77384878387E-02  0.13698214081E-01  0.20134128831E-01  0.00000000000E+00 0.  1.
     999901    1    3    3    0    0 -0.10289175545E+00  0.54197428187E-01 -0.94237898621E-01  0.89263926426E+00  0.88000000000E+00 0. -1.
        -11    1    4    4    0    0  0.66725372417E-01 -0.24066905711E-01  0.53459823920E-01  0.88824012346E-01  0.51100000000E-03 0. -1.
         11    1    4    4    0    0  0.23602232417E-01 -0.22392034638E-01  0.27079860620E-01  0.42332594563E-01  0.51100000000E-03 0.  1.
</event>
<event>
 8    1  0.1083484E+005  0.1043930E+01  0.7957747E-01            NaN
         13   -1    0    0    0    0  0.00000000000E+00  0.00000000000E+00  0.74505805969E-08  0.10566000000E+00  0.10566000000E+00 0.  1.
     999900   -1    0    0    0    0 -0.00000000000E+00 -0.00000000000E+00 -0.74505805969E-08  0.93827000000E+00  0.93827000000E+00 0. -1.
     999902    2    1    2    0    0  0.10424084174E-01 -0.44822946218E-02 -0.20309527074E-01  0.10206656628E+01  0.10204004929E+01 0.  0.
     999903    2    3    3    0    0  0.70068663898E-01 -0.26787684490E-01  0.10298474910E+00  0.12979166224E+00  0.24755188156E-01 0.  0.
         14    1    1    2    0    0 -0.10424084174E-01  0.44822946218E-02  0.20309527074E-01  0.23264337212E-01  0.00000000000E+00 0.  1.
     999901    1    3    3    0    0 -0.59644579725E-01  0.22305389868E-01 -0.12329427617E+00  0.89087400054E+00  0.88000000000E+00 0.  1.
        -11    1    4    4    0    0  0.68850135109E-01 -0.21912578067E-01  0.87350232706E-01  0.11336148577E+00  0.51100000000E-03 0. -1.
         11    1    4    4    0    0  0.12185287894E-02 -0.48751064233E-02  0.15634516393E-01  0.16430176471E-01  0.51100000000E-03 0.  1.
</event>
<event>
 8    1  0.1083484E+005  0.1043930E+01  0.7957747E-01            NaN
         13   -1    0    0    0    0  0.00000000000E+00  0.00000000000E+00  0.74505805969E-08  0.10566000000E+00  0.10566000000E+00 0.  1.
     999900   -1    0    0    0    0 -0.00000000000E+00 -0.00000000000E+00 -0.74505805969E-08  0.93827000000E+00  0.93827000000E+00 0.  1.
     999902    2    1    2    0    0 -0.20236825127E-01 -0.61660132427E-03  0.11874275127E-01  0.10204585770E+01  0.10201886098E+01 0.  0.
     999903    2    3    3    0    0 -0.63420449368E-02 -0.10486109194E+00 -0.73913241332E-01  0.13005446833E+00  0.20369765576E-01 0.  0.
         14    1    1    2    0    0  0.20236825127E-01  0.61660132427E-03 -0.11874275127E-01  0.23471423012E-01  0.00000000000E+00 0.  1.
     999901    1    3    3    0    0 -0.13894780190E-01  0.10424449062E+00  0.85787516459E-01  0.89040410866E+00  0.88000000000E+00 0. -1.
        -11    1    4    4    0    0 -0.52333718177E-02 -0.82471709947E-01 -0.47165624704E-01  0.95151607432E-01  0.51100000000E-03 0.  1.
         11    1    4    4    0    0 -0.11086731192E-02 -0.22389381998E-01 -0.26747616629E-01  0.34902860895E-01  0.51100000000E-03 0. -1.
</event>
<event>
 8    1  0.1083484E+005  0.1043930E+01  0.7957747E-01            NaN
         13   -1    0    0    0    0  0.00000000000E+00  0.00000000000E+00  0.74505805969E-08  0.10566000000E+00  0.10566000000E+00 0.  1.
     999900   -1    0    0    0    0 -0.00000000000E+00 -0.00000000000E+00 -0.74505805969E-08  0.93827000000E+00  0.93827000000E+00 0. -1.
     999902    2    1    2    0    0 -0.19073016965E-01  0.10301077753E-01  0.84942978090E-02  0.10206481342E+01  0.10203825599E+01 0.  0.
     999903    2    3    3    0    0  0.10329698868E+00 -0.81694627086E-02  0.75843105015E-01  0.12944027913E+00  0.16297278616E-01 0.  0.
         14    1    1    2    0    0  0.19073016965E-01 -0.10301077753E-01 -0.84942978090E-02  0.23281865782E-01  0.00000000000E+00 0. -1.
     999901    1    3    3    0    0 -0.12237000565E+00  0.18470540461E-01 -0.67348807206E-01  0.89120785509E+00  0.88000000000E+00 0. -1.
        -11    1    4    4    0    0  0.50803924035E-01  0.15634657565E-02  0.29686889833E-01  0.58864723489E-01  0.51100000000E-03 0. -1.
         11    1    4    4    0    0  0.52493064646E-01 -0.97329284651E-02  0.46156215182E-01  0.70575555636E-01  0.51100000000E-03 0.  1.
</event>
<event>
 8    1  0.1083484E+005  0.1043930E+01  0.7957747E-01            NaN
         13   -1    0    0    0    0  0.00000000000E+00  0.00000000000E+00  0.74505805969E-08  0.10566000000E+00  0.10566000000E+00 0.  1.
     999900   -1    0    0    0    0 -0.00000000000E+00 -0.00000000000E+00 -0.74505805969E-08  0.93827000000E+00  0.93827000000E+00 0. -1.
     999902    2    1    2    0    0  0.96595151536E-02  0.18567008170E-01  0.13703392398E-01  0.10189135456E+01  0.10186063963E+01 0.  0.
     999903    2    3    3    0    0  0.60763276978E-01  0.10524389509E+00  0.48517448663E-01  0.13249575718E+00  0.20802152837E-01 0.  0.
         14    1    1    2    0    0 -0.96595151536E-02 -0.18567008170E-01 -0.13703392398E-01  0.25016454357E-01  0.00000000000E+00 0. -1.
     999901    1    3    3    0    0 -0.51103761824E-01 -0.86676886917E-01 -0.34814056264E-01  0.88641778847E+00  0.88000000000E+00 0. -1.
        -11    1    4    4    0    0  0.53130574076E-01  0.10056186841E+00  0.41365453969E-01  0.12102441564E+00  0.51100000000E-03 0.  1.
         11    1    4    4    0    0  0.76327029018E-02  0.46820266804E-02  0.71519946938E-02  0.11471341531E-01  0.51100000000E-03 0. -1.
</event>
<event>
 8    1  0.1083484E+005  0.1043930E+01  0.7957747E-01            NaN
         13   -1    0    0    0    0  0.00000000000E+00  0.00000000000E+00  0.74505805969E-08  0.10566000000E+00  0.10566000000E+00 0.  1.
     999900   -1    0    0    0    0 -0.00000000000E+00 -0.00000000000E+00 -0.74505805969E-08  0.93827000000E+00  0.93827000000E+00 0. -1.
     999902    2    1    2    0    0  0.35087202447E-02  0.16005812875E-01 -0.17625320405E-01  0.10198644835E+01  0.10195805097E+01 0.  0.
     999903    2    3    3    0    0  0.47467582176E-01  0.56743617106E-01  0.10434113086E+00  0.12943325908E+00  0.19821390672E-01 0.  0.
         14    1    1    2    0    0 -0.35087202447E-02 -0.16005812875E-01  0.17625320405E-01  0.24065516469E-01  0.00000000000E+00 0.  1.
     999901    1    3    3    0    0 -0.43958861931E-01 -0.40737804230E-01 -0.12196645126E+00  0.89043122445E+00  0.88000000000E+00 0. -1.
        -11    1    4    4    0    0  0.21220182175E-01  0.16657053928E-01  0.51227542639E-01  0.57898841291E-01  0.51100000000E-03 0. -1.
         11    1    4    4    0    0  0.26247400001E-01  0.40086563178E-01  0.53113588221E-01  0.71534417793E-01  0.51100000000E-03 0.  1.
</event>
<event>
 8    1  0.1083484E+005  0.1043930E+01  0.7957747E-01            NaN
         13   -1    0    0    0    0  0.00000000000E+00  0.00000000000E+00  0.74505805969E-08  0.10566000000E+00  0.10566000000E+00 0. -1.
     999900   -1    0    0    0    0 -0.00000000000E+00 -0.00000000000E+00 -0.74505805969E-08  0.93827000000E+00  0.93827000000E+00 0.  1.
     999902    2    1    2    0    0  0.70222635961E-02  0.10932788291E-01  0.13307450424E-01  0.10253309064E+01  0.10251622025E+01 0.  0.
     999903    2    3    3    0    0 -0.37603280712E-01  0.10062197231E+00  0.82406717918E-01  0.13695581800E+00  0.20669806290E-01 0.  0.
         14    1    1    2    0    0 -0.70222635961E-02 -0.10932788291E-01 -0.13307450424E-01  0.18599093596E-01  0.00000000000E+00 0. -1.
     999901    1    3    3    0    0  0.44625544308E-01 -0.89689184023E-01 -0.69099267494E-01  0.88837508841E+00  0.88000000000E+00 0.  1.
        -11    1    4    4    0    0 -0.30371913761E-01  0.87889490660E-01  0.61732308097E-01  0.11161610412E+00  0.51100000000E-03 0.  1.
         11    1    4    4    0    0 -0.72313669511E-02  0.12732481655E-01  0.20674409821E-01  0.25339713880E-01  0.51100000000E-03 0. -1.
</event>
<event>
 8    1  0.1083484E+005  0.1043930E+01  0.7957747E-01            NaN
         13   -1    0    0    0    0  0.00000000000E+00  0.00000000000E+00  0.74505805969E-08  0.10566000000E+00  0.10566000000E+00 0. -1.
     999900   -1    0    0    0    0 -0.00000000000E+00 -0.00000000000E+00 -0.74505805969E-08  0.93827000000E+00  0.93827000000E+00 0. -1.
     999902    2    1    2    0    0 -0.13890603937E-01 -0.81862346943E-03 -0.18250479139E-01  0.10209800760E+01  0.10207221055E+01 0.  0.
     999903    2    3    3    0    0  0.75340937885E-01 -0.10480864049E+00  0.51822847159E-03  0.13017793408E+00  0.16879511762E-01 0.  0.
         14    1    1    2    0    0  0.13890603937E-01  0.81862346943E-03  0.18250479139E-01  0.22949923985E-01  0.00000000000E+00 0. -1.
     999901    1    3    3    0    0 -0.89231541822E-01  0.10399001702E+00 -0.18768707611E-01  0.89080214194E+00  0.88000000000E+00 0.  1.
        -11    1    4    4    0    0  0.19985445127E-01 -0.30316451920E-01  0.75900589626E-02  0.37099533555E-01  0.51100000000E-03 0. -1.
         11    1    4    4    0    0  0.55355492758E-01 -0.74492188568E-01 -0.70718304910E-02  0.93078400522E-01  0.51100000000E-03 0.  1.
</event>
<event>
 8    1  0.1083484E+005  0.1043930E+01  0.7957747E-01            NaN
         13   -1    0    0    0    0  0.00000000000E+00  0.00000000000E+00  0.74505805969E-08  0.10566000000E+00  0.10566000000E+00 0. -1.
     999900   -1    0    0    0    0 -0.00000000000E+00 -0.00000000000E+00 -0.74505805969E-08  0.93827000000E+00  0.93827000000E+00 0. -1.
     999902    2    1    2    0    0  0.36472350998E-02  0.59332128979E-02  0.22860783255E-01  0.10200318672E+01  0.10197518764E+01 0.  0.
     999903    2    3    3    0    0  0.47734865708E-01 -0.11868616650E+00 -0.38477344120E-02  0.12975828354E+00  0.21386527615E-01 0.  0.
         14    1    1    2    0    0 -0.36472350998E-02 -0.59332128979E-02 -0.22860783255E-01  0.23898132777E-01  0.00000000000E+00 0.  1.
     999901    1    3    3    0    0 -0.44087630608E-01  0.12461937940E+00  0.26708517667E-01  0.89027358369E+00  0.88000000000E+00 0.  1.
        -11    1    4    4    0    0  0.18358488834E-01 -0.34460914617E-01  0.77308831897E-02  0.39807240854E-01  0.51100000000E-03 0. -1.
         11    1    4    4    0    0  0.29376376874E-01 -0.84225251884E-01 -0.11578617602E-01  0.89951042683E-01  0.51100000000E-03 0.  1.
</event>
<event>
 8    1  0.1083484E+005  0.1043930E+01  0.7957747E-01            NaN
         13   -1    0    0    0    0  0.00000000000E+00  0.00000000000E+00  0.74505805969E-08  0.10566000000E+00  0.10566000000E+00 0.  1.
     999900   -1    0    0    0    0 -0.00000000000E+00 -0.00000000000E+00 -0.74505805969E-08  0.93827000000E+00  0.93827000000E+00 0.  1.
     999902    2    1    2    0    0 -0.14597120065E-01  0.18169460016E-01  0.82940208514E-02  0.10191914476E+01  0.10188911674E+01 0.  0.
     999903    2    3    3    0    0  0.35561134932E-01  0.12380382739E+00  0.16952142080E-01  0.13141364143E+00  0.19753177921E-01 0.  0.
         14    1    1    2    0    0  0.14597120065E-01 -0.18169460016E-01 -0.82940208514E-02  0.24738552370E-01  0.00000000000E+00 0. -1.
     999901    1    3    3    0    0 -0.50158254997E-01 -0.10563436738E+00 -0.86581212287E-02  0.88777780620E+00  0.88000000000E+00 0.  1.
        -11    1    4    4    0    0  0.19861504884E-01  0.51416075629E-01  0.15766152028E-01  0.57331709203E-01  0.51100000000E-03 0.  1.
         11    1    4    4    0    0  0.15699630049E-01  0.72387751765E-01  0.11859900515E-02  0.74081932228E-01  0.51100000000E-03 0. -1.
</event>
<event>
 8    1  0.1083484E+005  0.1043930E+01  0.7957747E-01            NaN
         13   -1    0    0    0    0  0.00000000000E+00  0.00000000000E+00  0.74505805969E-08  0.10566000000E+00  0.10566000000E+00 0. -1.
     999900   -1    0    0    0    0 -0.00000000000E+00 -0.00000000000E+00 -0.74505805969E-08  0.93827000000E+00  0.93827000000E+00 0. -1.
     999902    2    1    2    0    0 -0.58290243686E-02 -0.19196752872E-01  0.11755748006E-01  0.10206772484E+01  0.10204123455E+01 0.  0.
     999903    2    3    3    0    0  0.27942978150E-01 -0.35697716497E-01 -0.12030733047E+00  0.13002945794E+00  0.19459423844E-01 0.  0.
         14    1    1    2    0    0  0.58290243686E-02  0.19196752872E-01 -0.11755748006E-01  0.23252751602E-01  0.00000000000E+00 0.  1.
     999901    1    3    3    0    0 -0.33772002519E-01  0.16500963625E-01  0.13206307847E+00  0.89064779046E+00  0.88000000000E+00 0.  1.
        -11    1    4    4    0    0  0.64789623434E-02  0.20962452629E-03 -0.88740310499E-02  0.11001383711E-01  0.51100000000E-03 0.  1.
         11    1    4    4    0    0  0.21464015807E-01 -0.35907341023E-01 -0.11143329942E+00  0.11902807423E+00  0.51100000000E-03 0. -1.
</event>
<event>
 8    1  0.1083484E+005  0.1043930E+01  0.7957747E-01            NaN
         13   -1    0    0    0    0  0.00000000000E+00  0.00000000000E+00  0.74505805969E-08  0.10566000000E+00  0.10566000000E+00 0.  1.
     999900   -1    0    0    0    0 -0.00000000000E+00 -0.00000000000E+00 -0.74505805969E-08  0.93827000000E+00  0.93827000000E+00 0. -1.
     999902    2    1    2    0    0 -0.43677207410E-02 -0.21305642571E-01  0.78935367667E-02  0.10207931179E+01  0.10205308786E+01 0.  0.
     999903    2    3    3    0    0  0.75907575934E-01  0.66360526791E-01  0.79432286886E-01  0.12992428735E+00  0.20128403898E-01 0.  0.
         14    1    1    2    0    0  0.43677207410E-02  0.21305642571E-01 -0.78935367667E-02  0.23136882083E-01  0.00000000000E+00 0.  1.
     999901    1    3    3    0    0 -0.80275296675E-01 -0.87666169362E-01 -0.71538750119E-01  0.89086883057E+00  0.88000000000E+00 0. -1.
        -11    1    4    4    0    0  0.37533944683E-01  0.41658788424E-01  0.34280513975E-01  0.65724169191E-01  0.51100000000E-03 0. -1.
         11    1    4    4    0    0  0.38373631251E-01  0.24701738367E-01  0.45151772911E-01  0.64200118160E-01  0.51100000000E-03 0.  1.
</event>
<event>
 8    1  0.1083484E+005  0.1043930E+01  0.7957747E-01            NaN
         13   -1    0    0    0    0  0.00000000000E+00  0.00000000000E+00  0.74505805969E-08  0.10566000000E+00  0.10566000000E+00 0. -1.
     999900   -1    0    0    0    0 -0.00000000000E+00 -0.00000000000E+00 -0.74505805969E-08  0.93827000000E+00  0.93827000000E+00 0. -1.
     999902    2    1    2    0    0  0.53268238136E-02  0.13470640386E-01  0.19155912379E-01  0.10199137100E+01  0.10196309105E+01 0.  0.
     999903    2    3    3    0    0  0.10303804676E+00 -0.44955345512E-01  0.64902939752E-01  0.13140154387E+00  0.20399803264E-01 0.  0.
         14    1    1    2    0    0 -0.53268238136E-02 -0.13470640386E-01 -0.19155912379E-01  0.24016289960E-01  0.00000000000E+00 0.  1.
     999901    1    3    3    0    0 -0.97711222945E-01  0.58425985898E-01 -0.45747027372E-01  0.88851216617E+00  0.88000000000E+00 0. -1.
        -11    1    4    4    0    0  0.28522354758E-01 -0.22344363246E-01  0.17553867809E-01  0.40264061965E-01  0.51100000000E-03 0. -1.
         11    1    4    4    0    0  0.74515692000E-01 -0.22610982266E-01  0.47349071942E-01  0.91137481906E-01  0.51100000000E-03 0.  1.
</event>
<event>
 8    1  0.1083484E+005  0.1043930E+01  0.7957747E-01            NaN
         13   -1    0    0    0    0  0.00000000000E+00  0.00000000000E+00  0.74505805969E-08  0.10566000000E+00  0.10566000000E+00 0. -1.
     999900   -1    0    0    0    0 -0.00000000000E+00 -0.00000000000E+00 -0.74505805969E-08  0.93827000000E+00  0.93827000000E+00 0.  1.
     999902    2    1    2    0    0  0.18527903815E-01  0.21414842075E-02  0.12679684347E-01  0.10213768723E+01  0.10211278430E+01 0.  0.
     999903    2    3    3    0    0  0.10017663900E+00  0.44165600735E-01 -0.71854435548E-01  0.13256949172E+00  0.20631309641E-01 0.  0.
         14    1    1    2    0    0 -0.18527903815E-01 -0.21414842075E-02 -0.12679684347E-01  0.22553127711E-01  0.00000000000E+00 0.  1.
     999901    1    3    3    0    0 -0.81648735184E-01 -0.42024116528E-01  0.84534119896E-01  0.88880738057E+00  0.88000000000E+00 0.  1.
        -11    1    4    4    0    0  0.63002558447E-01  0.38397066372E-01 -0.47967201709E-01  0.88004378514E-01  0.51100000000E-03 0. -1.
         11    1    4    4    0    0  0.37174080552E-01  0.57685343636E-02 -0.23887233839E-01  0.44565113206E-01  0.51100000000E-03 0.  1.
</event>
<event>
 8    1  0.1083484E+005  0.1043930E+01  0.7957747E-01            NaN
         13   -1    0    0    0    0  0.00000000000E+00  0.00000000000E+00  0.74505805969E-08  0.10566000000E+00  0.10566000000E+00 0. -1.
     999900   -1    0    0    0    0 -0.00000000000E+00 -0.00000000000E+00 -0.74505805969E-08  0.93827000000E+00  0.93827000000E+00 0. -1.
     999902    2    1    2    0    0 -0.42871898341E-02  0.62374628837E-02 -0.22193073891E-01  0.10204817918E+01  0.10202123646E+01 0.  0.
     999903    2    3    3    0    0  0.76644786162E-01 -0.94966476440E-01 -0.42609478592E-01  0.13075764821E+00  0.19721561968E-01 0.  0.
         14    1    1    2    0    0  0.42871898341E-02 -0.62374628837E-02  0.22193073891E-01  0.23448208218E-01  0.00000000000E+00 0. -1.
     999901    1    3    3    0    0 -0.80931975996E-01  0.10120393932E+00  0.20416404701E-01  0.88972414357E+00  0.88000000000E+00 0.  1.
        -11    1    4    4    0    0  0.38708113906E-01 -0.56693248704E-01 -0.32386389264E-01  0.75905084555E-01  0.51100000000E-03 0. -1.
         11    1    4    4    0    0  0.37936672255E-01 -0.38273227737E-01 -0.10223089328E-01  0.54852563655E-01  0.51100000000E-03 0.  1.
</event>
<event>
 7    1  0.1083484E+005  0.1043930E+01  0.7957747E-01            NaN
         13   -1    0    0    0    0  0.00000000000E+00  0.00000000000E+00  0.74505805969E-08  0.10566000000E+00  0.10566000000E+00 0.  1.
     999900   -1    0    0    0    0 -0.00000000000E+00 -0.00000000000E+00 -0.74505805969E-08  0.93827000000E+00  0.93827000000E+00 0.  1.
     999902    2    1    2    0    0  0.54974342063E-02  0.19808978293E-02 -0.23093852915E-01  0.10201083338E+01  0.10198301529E+01 0.  0.
         14    1    1    2    0    0 -0.54974342063E-02 -0.19808978293E-02  0.23093852915E-01  0.23821666221E-01  0.00000000000E+00 0.  1.
     999901    1    3    3    0    0  0.26722647861E-01  0.21723881456E-01  0.10667380096E+00  0.88711066206E+00  0.88000000000E+00 0. -1.
        -11    1    3    3    0    0 -0.56361542116E-02 -0.58645641965E-02 -0.41718046656E-01  0.42506656953E-01  0.51100000000E-03 0.  1.
         11    1    3    3    0    0 -0.15589059443E-01 -0.13878419430E-01 -0.88049607221E-01  0.90491014764E-01  0.51100000000E-03 0. -1.
</event>
<event>
 8    1  0.1083484E+005  0.1043930E+01  0.7957747E-01            NaN
         13   -1    0    0    0    0  0.00000000000E+00  0.00000000000E+00  0.74505805969E-08  0.10566000000E+00  0.10566000000E+00 0.  1.
     999900   -1    0    0    0    0 -0.00000000000E+00 -0.00000000000E+00 -0.74505805969E-08  0.93827000000E+00  0.93827000000E+00 0.  1.
     999902    2    1    2    0    0  0.13085077616E-01 -0.78733258323E-02 -0.18203997154E-01  0.10201688126E+01  0.10198920590E+01 0.  0.
     999903    2    3    3    0    0  0.58637259400E-01 -0.11664876539E+00 -0.10869449273E-02  0.13213723036E+00  0.20342161685E-01 0.  0.
         14    1    1    2    0    0 -0.13085077616E-01  0.78733258323E-02  0.18203997154E-01  0.23761187433E-01  0.00000000000E+00 0.  1.
     999901    1    3    3    0    0 -0.45552181784E-01  0.10877543956E+00 -0.17117052226E-01  0.88803158220E+00  0.88000000000E+00 0. -1.
        -11    1    4    4    0    0  0.33699013337E-01 -0.86213161200E-01  0.26866760088E-02  0.92605680241E-01  0.51100000000E-03 0. -1.
         11    1    4    4    0    0  0.24938246063E-01 -0.30435604188E-01 -0.37736209361E-02  0.39531550121E-01  0.51100000000E-03 0.  1.
</event>
<event>
 8    1  0.1083484E+005  0.1043930E+01  0.7957747E-01            NaN
         13   -1    0    0    0    0  0.00000000000E+00  0.00000000000E+00  0.74505805969E-08  0.10566000000E+00  0.10566000000E+00 0. -1.
     999900   -1    0    0    0    0 -0.00000000000E+00 -0.00000000000E+00 -0.74505805969E-08  0.93827000000E+00  0.93827000000E+00 0. -1.
     999902    2    1    2    0    0  0.83068283383E-02  0.68571851930E-02 -0.19502753276E-01  0.10216503732E+01  0.10214074130E+01 0.  0.
     999903    2    3    3    0    0 -0.99450078710E-01 -0.77769027925E-02  0.79933079899E-01  0.12939861921E+00  0.20097438110E-01 0.  0.
         14    1    1    2    0    0 -0.83068283383E-02 -0.68571851930E-02  0.19502753276E-01  0.22279626818E-01  0.00000000000E+00 0. -1.
     999901    1    3    3    0    0  0.10775690705E+00  0.14634087986E-01 -0.99435833176E-01  0.89225175397E+00  0.88000000000E+00 0.  1.
        -11    1    4    4    0    0 -0.12304501127E-01 -0.12337988163E-02  0.24782350704E-02  0.12622431524E-01  0.51100000000E-03 0.  1.
         11    1    4    4    0    0 -0.87145577583E-01 -0.65431039762E-02  0.77454844829E-01  0.11677618769E+00  0.51100000000E-03 0. -1.
</event>
<event>
 8    1  0.1083484E+005  0.1043930E+01  0.7957747E-01            NaN
         13   -1    0    0    0    0  0.00000000000E+00  0.00000000000E+00  0.74505805969E-08  0.10566000000E+00  0.10566000000E+00 0. -1.
     999900   -1    0    0    0    0 -0.00000000000E+00 -0.00000000000E+00 -0.74505805969E-08  0.93827000000E+00  0.93827000000E+00 0.  1.
     999902    2    1    2    0    0 -0.15252136350E-04 -0.11680619231E-01  0.20269842689E-01  0.10205354788E+01  0.10202672983E+01 0.  0.
     999903    2    3    3    0    0 -0.28327044842E-01  0.71873536052E-01  0.10520222249E+00  0.13205567399E+00  0.20074032010E-01 0.  0.
         14    1    1    2    0    0  0.15252136350E-04  0.11680619231E-01 -0.20269842689E-01  0.23394521172E-01  0.00000000000E+00 0.  1.
     999901    1    3    3    0    0  0.28311792706E-01 -0.83554155283E-01 -0.84932379801E-01  0.88847980484E+00  0.88000000000E+00 0.  1.
        -11    1    4    4    0    0 -0.21740560325E-01  0.58096463381E-01  0.69135817455E-01  0.92886346665E-01  0.51100000000E-03 0. -1.
         11    1    4    4    0    0 -0.65864845165E-02  0.13777072671E-01  0.36066405035E-01  0.39169327321E-01  0.51100000000E-03 0.  1.
</event>
<event>
 8    1  0.1083484E+005  0.1043930E+01  0.7957747E-01            NaN
         13   -1    0    0    0    0  0.00000000000E+00  0.00000000000E+00  0.74505805969E-08  0.10566000000E+00  0.10566000000E+00 0.  1.
     999900   -1    0    0    0    0 -0.00000000000E+00 -0.00000000000E+00 -0.74505805969E-08  0.93827000000E+00  0.93827000000E+00 0.  1.
     999902    2    1    2    0    0  0.20538143136E-01  0.92137512708E-02 -0.86868148434E-02  0.10198018155E+01  0.10195163430E+01 0.  0.
     999903    2    3    3    0    0 -0.10264657155E+00 -0.14105008941E-02  0.73690567909E-01  0.12734824142E+00  0.15778676434E-01 0.  0.
         14    1    1    2    0    0 -0.20538143136E-01 -0.92137512708E-02  0.86868148434E-02  0.24128184516E-01  0.00000000000E+00 0.  1.
     999901    1    3    3    0    0  0.12318471469E+00  0.10624252165E-01 -0.82377382753E-01  0.89245357406E+00  0.88000000000E+00 0. -1.
        -11    1    4    4    0    0 -0.75582791971E-01 -0.79689441321E-02  0.54560554662E-01  0.93559487807E-01  0.51100000000E-03 0.  1.
         11    1    4    4    0    0 -0.27063779582E-01  0.65584432380E-02  0.19130013247E-01  0.33788753615E-01  0.51100000000E-03 0. -1.
</event>
<event>
 8    1  0.1083484E+005  0.1043930E+01  0.7957747E-01            NaN
         13   -1    0    0    0    0  0.00000000000E+00  0.00000000000E+00  0.74505805969E-08  0.10566000000E+00  0.10566000000E+00 0. -1.
     999900   -1    0    0    0    0 -0.00000000000E+00 -0.00000000000E+00 -0.74505805969E-08  0.93827000000E+00  0.93827000000E+00 0.  1.
     999902    2    1    2    0    0  0.60685453174E-02  0.12567765432E-01 -0.18992806882E-01  0.10203608956E+01  0.10200886503E+01 0.  0.
     999903    2    3    3    0    0 -0.20626118795E-02  0.77034422798E-01 -0.10728995064E+00  0.13355852118E+00  0.19702497516E-01 0.  0.
         14    1    1    2    0    0 -0.60685453174E-02 -0.12567765432E-01  0.18992806882E-01  0.23569104426E-01  0.00000000000E+00 0. -1.
     999901    1    3    3    0    0  0.81311571968E-02 -0.64466657367E-01  0.88297143759E-01  0.88680237439E+00  0.88000000000E+00 0. -1.
        -11    1    4    4    0    0 -0.90206134691E-02  0.44183957374E-01 -0.71014178723E-01  0.84124124110E-01  0.51100000000E-03 0. -1.
         11    1    4    4    0    0  0.69580015897E-02  0.32850465424E-01 -0.36275771918E-01  0.49434397073E-01  0.51100000000E-03 0.  1.
</event>
<event>
 8    1  0.1083484E+005  0.1043930E+01  0.7957747E-01            NaN
         13   -1    0    0    0    0  0.00000000000E+00  0.00000000000E+00  0.74505805969E-08  0.10566000000E+00  0.10566000000E+00 0.  1.
     999900   -1    0    0    0    0 -0.00000000000E+00 -0.00000000000E+00 -0.74505805969E-08  0.93827000000E+00  0.93827000000E+00 0.  1.
     999902    2    1    2    0    0 -0.22825989210E-01 -0.25721344693E-02  0.76078847706E-02  0.10197324470E+01  0.10194453109E+01 0.  0.
     999903    2    3    3    0    0  0.65889977730E-01 -0.38879938131E-01 -0.10059820257E+00  0.12793799945E+00  0.19874470755E-01 0.  0.
         14    1    1    2    0    0  0.22825989210E-01  0.25721344693E-02 -0.76078847706E-02  0.24197552972E-01  0.00000000000E+00 0. -1.
     999901    1    3    3    0    0 -0.88715966940E-01  0.36307803662E-01  0.10820608734E+00  0.89179444758E+00  0.88000000000E+00 0. -1.
        -11    1    4    4    0    0  0.48510844050E-01 -0.22526649099E-01 -0.56554149522E-01  0.77842050713E-01  0.51100000000E-03 0. -1.
         11    1    4    4    0    0  0.17379133681E-01 -0.16353289032E-01 -0.44044053049E-01  0.50095948735E-01  0.51100000000E-03 0.  1.
</event>
<event>
 8    1  0.1083484E+005  0.1043930E+01  0.7957747E-01            NaN
         13   -1    0    0    0    0  0.00000000000E+00  0.00000000000E+00  0.74505805969E-08  0.10566000000E+00  0.10566000000E+00 0.  1.
     999900   -1    0    0    0    0 -0.00000000000E+00 -0.00000000000E+00 -0.74505805969E-08  0.93827000000E+00  0.93827000000E+00 0.  1.
     999902    2    1    2    0    0  0.78009306888E-02  0.24643498166E-01 -0.72160009189E-03  0.10180712060E+01  0.10177427490E+01 0.  0.
     999903    2    3    3    0    0 -0.48017821981E-01 -0.95768370548E-01  0.63302567510E-01  0.12581908617E+00  0.18599337756E-01 0.  0.
         14    1    1    2    0    0 -0.78009306888E-02 -0.24643498166E-01  0.72160009189E-03  0.25858794019E-01  0.00000000000E+00 0.  1.
     999901    1    3    3    0    0  0.55818752669E-01  0.12041186871E+00 -0.64024167602E-01  0.89225211981E+00  0.88000000000E+00 0.  1.
        -11    1    4    4    0    0 -0.33007346842E-01 -0.49082762019E-01  0.40822285995E-01  0.71870178989E-01  0.51100000000E-03 0. -1.
         11    1    4    4    0    0 -0.15010475138E-01 -0.46685608529E-01  0.22480281516E-01  0.53948907177E-01  0.51100000000E-03 0.  1.
</event>
<event>
 8    1  0.1083484E+005  0.1043930E+01  0.7957747E-01            NaN
         13   -1    0    0    0    0  0.00000000000E+00  0.00000000000E+00  0.74505805969E-08  0.10566000000E+00  0.10566000000E+00 0. -1.
     999900   -1    0    0    0    0 -0.00000000000E+00 -0.00000000000E+00 -0.74505805969E-08  0.93827000000E+00  0.93827000000E+00 0.  1.
     999902    2    1    2    0    0 -0.60824881293E-02  0.94841411534E-02 -0.21186977209E-01  0.10199334669E+01  0.10196511381E+01 0.  0.
     999903    2    3    3    0    0  0.39906231176E-01  0.11352547852E+00  0.45248348311E-01  0.13012831150E+00  0.20135115342E-01 0.  0.
         14    1    1    2    0    0  0.60824881293E-02 -0.94841411534E-02  0.21186977209E-01  0.23996533052E-01  0.00000000000E+00 0. -1.
     999901    1    3    3    0    0 -0.45988719305E-01 -0.10404133736E+00 -0.66435325519E-01  0.88980515545E+00  0.88000000000E+00 0. -1.
        -11    1    4    4    0    0  0.26894477114E-01  0.91700832317E-01  0.28622983593E-01  0.99759169291E-01  0.51100000000E-03 0. -1.
         11    1    4    4    0    0  0.13011754061E-01  0.21824646201E-01  0.16625364718E-01  0.30369142210E-01  0.51100000000E-03 0.  1.
</event>
<event>
 8    1  0.1083484E+005  0.1043930E+01  0.7957747E-01            NaN
         13   -1    0    0    0    0  0.00000000000E+00  0.00000000000E+00  0.74505805969E-08  0.10566000000E+00  0.10566000000E+00 0.  1.
     999900   -1    0    0    0    0 -0.00000000000E+00 -0.00000000000E+00 -0.74505805969E-08  0.93827000000E+00  0.93827000000E+00 0. -1.
     999902    2    1    2    0    0 -0.33489556392E-02 -0.18964733569E-01 -0.13907565586E-01  0.10201750636E+01  0.10198984574E+01 0.  0.
     999903    2    3    3    0    0 -0.21053942146E-01 -0.10822767229E+00  0.69034008340E-01  0.13160281360E+00  0.19927586659E-01 0.  0.
         14    1    1    2    0    0  0.33489556392E-02  0.18964733569E-01  0.13907565586E-01  0.23754936409E-01  0.00000000000E+00 0.  1.
     999901    1    3    3    0    0  0.17704986507E-01  0.89262938720E-01 -0.82941573926E-01  0.88857225000E+00  0.88000000000E+00 0. -1.
        -11    1    4    4    0    0 -0.11122938989E-01 -0.20365838252E-01  0.19069175188E-01  0.30039668820E-01  0.51100000000E-03 0.  1.
         11    1    4    4    0    0 -0.99310031574E-02 -0.87861834037E-01  0.49964833152E-01  0.10156314478E+00  0.51100000000E-03 0. -1.
</event>
<event>
 8    1  0.1083484E+005  0.1043930E+01  0.7957747E-01            NaN
         13   -1    0    0    0    0  0.00000000000E+00  0.00000000000E+00  0.74505805969E-08  0.10566000000E+00  0.10566000000E+00 0. -1.
     999900   -1    0    0    0    0 -0.00000000000E+00 -0.00000000000E+00 -0.74505805969E-08  0.93827000000E+00  0.93827000000E+00 0.  1.
     999902    2    1    2    0    0 -0.23887463329E-02 -0.34095264804E-02  0.23043226362E-01  0.10205137394E+01  0.10202450544E+01 0.  0.
     999903    2    3    3    0    0  0.72498944066E-01  0.21925437894E-01  0.10659122917E+00  0.13302836184E+00  0.24454717344E-01 0.  0.
         14    1    1    2    0    0  0.23887463329E-02  0.34095264804E-02 -0.23043226362E-01  0.23416260612E-01  0.00000000000E+00 0. -1.
     999901    1    3    3    0    0 -0.74887690398E-01 -0.25334964374E-01 -0.83548002806E-01  0.88748537755E+00  0.88000000000E+00 0.  1.
        -11    1    4    4    0    0  0.35871063400E-01  0.13204700714E-01  0.73728290169E-01  0.83049498509E-01  0.51100000000E-03 0.  1.
         11    1    4    4    0    0  0.36627880665E-01  0.87207371800E-02  0.32862938999E-01  0.49978863328E-01  0.51100000000E-03 0. -1.
</event>
<event>
 8    1  0.1083484E+005  0.1043930E+01  0.7957747E-01            NaN
         13   -1    0    0    0    0  0.00000000000E+00  0.00000000000E+00  0.74505805969E-08  0.10566000000E+00  0.10566000000E+00 0.  1.
     999900   -1    0    0    0    0 -0.00000000000E+00 -0.00000000000E+00 -0.74505805969E-08  0.93827000000E+00  0.93827000000E+00 0.  1.
     999902    2    1    2    0    0 -0.46319036170E-02 -0.12810604779E-01  0.20124574874E-01  0.10196284643E+01  0.10193388252E+01 0.  0.
     999903    2    3    3    0    0  0.10444895402E+00  0.72258288800E-01 -0.87847057680E-03  0.12857488669E+00  0.19997136836E-01 0.  0.
         14    1    1    2    0    0  0.46319036170E-02  0.12810604779E-01 -0.20124574874E-01  0.24301535749E-01  0.00000000000E+00 0. -1.
     999901    1    3    3    0    0 -0.10908085764E+00 -0.85068893579E-01  0.21003045451E-01  0.89105357756E+00  0.88000000000E+00 0.  1.
        -11    1    4    4    0    0  0.27976005547E-01  0.30353995829E-01  0.19139406826E-02  0.41327306217E-01  0.51100000000E-03 0. -1.
         11    1    4    4    0    0  0.76472948473E-01  0.41904292971E-01 -0.27924112593E-02  0.87247580478E-01  0.51100000000E-03 0.  1.
</event>
<event>
 7    1  0.1083484E+005  0.1043930E+01  0.7957747E-01            NaN
         13   -1    0    0    0    0  0.00000000000E+00  0.00000000000E+00  0.74505805969E-08  0.10566000000E+00  0.10566000000E+00 0. -1.
     999900   -1    0    0    0    0 -0.00000000000E+00 -0.00000000000E+00 -0.74505805969E-08  0.93827000000E+00  0.93827000000E+00 0.  1.
     999903    2    1    2    0    0 -0.46496922667E-01 -0.34193468278E-02 -0.79394227919E-01  0.94199726086E-01  0.19912036999E-01 0.  0.
         14    1    1    2    0    0  0.29008062990E-02 -0.20475022811E-01 -0.54429689082E-01  0.58225701282E-01  0.00000000000E+00 0.  1.
     999901    1    1    2    0    0  0.43596116368E-01  0.23894369639E-01  0.13382391700E+00  0.89150457263E+00  0.88000000000E+00 0. -1.
        -11    1    3    3    0    0 -0.10427981916E-01 -0.57194432796E-02 -0.34896389468E-01  0.36871044969E-01  0.51100000000E-03 0.  1.
         11    1    3    3    0    0 -0.36068940752E-01  0.23000964518E-02 -0.44497838452E-01  0.57328681116E-01  0.51100000000E-03 0. -1.
</event>
<event>
 8    1  0.1083484E+005  0.1043930E+01  0.7957747E-01            NaN
         13   -1    0    0    0    0  0.00000000000E+00  0.00000000000E+00  0.74505805969E-08  0.10566000000E+00  0.10566000000E+00 0.  1.
     999900   -1    0    0    0    0 -0.00000000000E+00 -0.00000000000E+00 -0.74505805969E-08  0.93827000000E+00  0.93827000000E+00 0.  1.
     999902    2    1    2    0    0 -0.21610808863E-01  0.10814099454E-01  0.81732735380E-02  0.10184197235E+01  0.10181001714E+01 0.  0.
     999903    2    3    3    0    0  0.64645145879E-01 -0.10649538438E+00  0.90170349143E-02  0.12645430004E+00  0.19726157761E-01 0.  0.
         14    1    1    2    0    0  0.21610808863E-01 -0.10814099454E-01 -0.81732735380E-02  0.25510276498E-01  0.00000000000E+00 0. -1.
     999901    1    3    3    0    0 -0.86255954741E-01  0.11730948383E+00 -0.84376137636E-03  0.89196542347E+00  0.88000000000E+00 0.  1.
        -11    1    4    4    0    0  0.53643121787E-01 -0.97187975977E-01  0.12225578836E-01  0.11168174913E+00  0.51100000000E-03 0.  1.
         11    1    4    4    0    0  0.11002024092E-01 -0.93074083983E-02 -0.32085439217E-02  0.14772550907E-01  0.51100000000E-03 0. -1.
</event>
<event>
 8    1  0.1083484E+005  0.1043930E+01  0.7957747E-01            NaN
         13   -1    0    0    0    0  0.00000000000E+00  0.00000000000E+00  0.74505805969E-08  0.10566000000E+00  0.10566000000E+00 0. -1.
     999900   -1    0    0    0    0 -0.00000000000E+00 -0.00000000000E+00 -0.74505805969E-08  0.93827000000E+00  0.93827000000E+00 0. -1.
     999902    2    1    2    0    0  0.20860730160E-01  0.99119617817E-02  0.42163793832E-02  0.10204524596E+01  0.10201823501E+01 0.  0.
     999903    2    3    3    0    0 -0.92484861449E-01 -0.79825179329E-01 -0.32246341271E-01  0.12791141983E+00  0.19899646884E-01 0.  0.
         14    1    1    2    0    0 -0.20860730160E-01 -0.99119617817E-02 -0.42163793832E-02  0.23477540422E-01  0.00000000000E+00 0. -1.
     999901    1    3    3    0    0  0.11334559161E+00  0.89737141110E-01  0.36462720655E-01  0.89254103975E+00  0.88000000000E+00 0. -1.
        -11    1    4    4    0    0 -0.37850096604E-01 -0.45084405024E-01 -0.12062295169E-01  0.60091542459E-01  0.51100000000E-03 0. -1.
         11    1    4    4    0    0 -0.54634764846E-01 -0.34740774304E-01 -0.20184046103E-01  0.67819877374E-01  0.51100000000E-03 0.  1.
</event>
<event>
 8    1  0.1083484E+005  0.1043930E+01  0.7957747E-01            NaN
         13   -1    0    0    0    0  0.00000000000E+00  0.00000000000E+00  0.74505805969E-08  0.10566000000E+00  0.10566000000E+00 0.  1.
     999900   -1    0    0    0    0 -0.00000000000E+00 -0.00000000000E+00 -0.74505805969E-08  0.93827000000E+00  0.93827000000E+00 0. -1.
     999902    2    1    2    0    0 -0.87743975371E-02  0.66249442649E-02  0.21093698174E-01  0.10201429438E+01  0.10198655803E+01 0.  0.
     999903    2    3    3    0    0 -0.62384554556E-01 -0.46557674891E-01 -0.10056523315E+00  0.12856942724E+00  0.18901898374E-01 0.  0.
         14    1    1    2    0    0  0.87743975371E-02 -0.66249442649E-02 -0.21093698174E-01  0.23787056172E-01  0.00000000000E+00 0. -1.
     999901    1    3    3    0    0  0.53610157019E-01  0.53182619156E-01  0.12165893133E+00  0.89157351659E+00  0.88000000000E+00 0.  1.
        -11    1    4    4    0    0 -0.18309270446E-01 -0.99641945654E-02 -0.40573071258E-01  0.45617428576E-01  0.51100000000E-03 0. -1.
         11    1    4    4    0    0 -0.44075284110E-01 -0.36593480326E-01 -0.59992161896E-01  0.82951998660E-01  0.51100000000E-03 0.  1.
</event>
<event>
 8    1  0.1083484E+005  0.1043930E+01  0.7957747E-01            NaN
         13   -1    0    0    0    0  0.00000000000E+00  0.00000000000E+00  0.74505805969E-08  0.10566000000E+00  0.10566000000E+00 0. -1.
     999900   -1    0    0    0    0 -0.00000000000E+00 -0.00000000000E+00 -0.74505805969E-08  0.93827000000E+00  0.93827000000E+00 0. -1.
     999902    2    1    2    0    0 -0.17768709065E-01 -0.19187352780E-01 -0.65395823544E-02  0.10169735969E+01  0.10166162743E+01 0.  0.
     999903    2    3    3    0    0 -0.64316156331E-01  0.83823871810E-01  0.66516036219E-01  0.12674042488E+00  0.21811528440E-01 0.  0.
         14    1    1    2    0    0  0.17768709065E-01  0.19187352780E-01  0.65395823544E-02  0.26956403060E-01  0.00000000000E+00 0.  1.
     999901    1    3    3    0    0  0.46547447266E-01 -0.10301122459E+00 -0.73055618574E-01  0.89023317206E+00  0.88000000000E+00 0. -1.
        -11    1    4    4    0    0 -0.34515939273E-01  0.58026766474E-01  0.49931156552E-01  0.83975217814E-01  0.51100000000E-03 0. -1.
         11    1    4    4    0    0 -0.29800217058E-01  0.25797105336E-01  0.16584879667E-01  0.42765207061E-01  0.51100000000E-03 0.  1.
</event>
<event>
 8    1  0.1083484E+005  0.1043930E+01  0.7957747E-01            NaN
         13   -1    0    0    0    0  0.00000000000E+00  0.00000000000E+00  0.74505805969E-08  0.10566000000E+00  0.10566000000E+00 0. -1.
     999900   -1    0    0    0    0 -0.00000000000E+00 -0.00000000000E+00 -0.74505805969E-08  0.93827000000E+00  0.93827000000E+00 0. -1.
     999902    2    1    2    0    0  0.10096171712E-01  0.21244367503E-01 -0.47665126951E-02  0.10199305109E+01  0.10196481116E+01 0.  0.
     999903    2    3    3    0    0  0.11631846994E+00  0.38557498467E-01  0.43282689305E-01  0.13207261295E+00  0.23518434471E-01 0.  0.
         14    1    1    2    0    0 -0.10096171712E-01 -0.21244367503E-01  0.47665126951E-02  0.23999489101E-01  0.00000000000E+00 0.  1.
     999901    1    3    3    0    0 -0.10622229823E+00 -0.17313130963E-01 -0.48049202001E-01  0.88785789795E+00  0.88000000000E+00 0. -1.
        -11    1    4    4    0    0  0.67588058890E-01  0.15417885184E-01  0.14128708291E-01  0.70751243149E-01  0.51100000000E-03 0.  1.
         11    1    4    4    0    0  0.48730411048E-01  0.23139613283E-01  0.29153981015E-01  0.61321369797E-01  0.51100000000E-03 0. -1.
</event>
<event>
 8    1  0.1083484E+005  0.1043930E+01  0.7957747E-01            NaN
         13   -1    0    0    0    0  0.00000000000E+00  0.00000000000E+00  0.74505805969E-08  0.10566000000E+00  0.10566000000E+00 0. -1.
     999900   -1    0    0    0    0 -0.00000000000E+00 -0.00000000000E+00 -0.74505805969E-08  0.93827000000E+00  0.93827000000E+00 0. -1.
     999902    2    1    2    0    0 -0.35450223046E-02 -0.13495518724E-01 -0.18969681558E-01  0.10203812203E+01  0.10201094498E+01 0.  0.
     999903    2    3    3    0    0 -0.96551142501E-01  0.18641684284E-01  0.81305796012E-01  0.12923695045E+00  0.20540725060E-01 0.  0.
         14    1    1    2    0    0  0.35450223046E-02  0.13495518724E-01  0.18969681558E-01  0.23548779739E-01  0.00000000000E+00 0.  1.
     999901    1    3    3    0    0  0.93006120196E-01 -0.32137203007E-01 -0.10027547757E+00  0.89114426981E+00  0.88000000000E+00 0. -1.
        -11    1    4    4    0    0 -0.54417149313E-01  0.20768967134E-01  0.45945046240E-01  0.74187495780E-01  0.51100000000E-03 0.  1.
         11    1    4    4    0    0 -0.42133993188E-01 -0.21272828500E-02  0.35360749772E-01  0.55049454672E-01  0.51100000000E-03 0. -1.
</event>
<event>
 8    1  0.1083484E+005  0.1043930E+01  0.7957747E-01            NaN
         13   -1    0    0    0    0  0.00000000000E+00  0.00000000000E+00  0.74505805969E-08  0.10566000000E+00  0.10566000000E+00 0. -1.
     999900   -1    0    0    0    0 -0.00000000000E+00 -0.00000000000E+00 -0.74505805969E-08  0.93827000000E+00  0.93827000000E+00 0.  1.
     999902    2    1    2    0    0  0.58547624843E-02 -0.11024151284E-01  0.20752024556E-01  0.10197131324E+01  0.10194255322E+01 0.  0.
     999903    2    3    3    0    0  0.66886051555E-01  0.65899039771E-01 -0.84715365452E-01  0.12799267957E+00  0.19723223465E-01 0.  0.
         14    1    1    2    0    0 -0.58547624843E-02  0.11024151284E-01 -0.20752024556E-01  0.24216867644E-01  0.00000000000E+00 0.  1.
     999901    1    3    3    0    0 -0.61031289071E-01 -0.76923191054E-01  0.10546739001E+00  0.89172045279E+00  0.88000000000E+00 0. -1.
        -11    1    4    4    0    0  0.52359401136E-01  0.39502882033E-01 -0.61997729608E-01  0.90254995284E-01  0.51100000000E-03 0. -1.
         11    1    4    4    0    0  0.14526650419E-01  0.26396157738E-01 -0.22717635844E-01  0.37737684283E-01  0.51100000000E-03 0.  1.
</event>
<event>
 8    1  0.1083484E+005  0.1043930E+01  0.7957747E-01            NaN
         13   -1    0    0    0    0  0.00000000000E+00  0.00000000000E+00  0.74505805969E-08  0.10566000000E+00  0.10566000000E+00 0.  1.
     999900   -1    0    0    0    0 -0.00000000000E+00 -0.00000000000E+00 -0.74505805969E-08  0.93827000000E+00  0.93827000000E+00 0.  1.
     999902    2    1    2    0    0  0.12662469720E-01  0.13391427814E-01  0.14657286718E-01  0.10203820801E+01  0.10201103297E+01 0.  0.
     999903    2    3    3    0    0 -0.10123442485E+00  0.40736834977E-01  0.69473308621E-01  0.13092996213E+00  0.20204352817E-01 0.  0.
         14    1    1    2    0    0 -0.12662469720E-01 -0.13391427814E-01 -0.14657286718E-01  0.23547919913E-01  0.00000000000E+00 0. -1.
     999901    1    3    3    0    0  0.11389689457E+00 -0.27345407163E-01 -0.54816021904E-01  0.88945211796E+00  0.88000000000E+00 0. -1.
        -11    1    4    4    0    0 -0.80059412776E-01  0.37808583357E-01  0.62729018392E-01  0.10850893705E+00  0.51100000000E-03 0. -1.
         11    1    4    4    0    0 -0.21175012076E-01  0.29282516199E-02  0.67442902289E-02  0.22421025081E-01  0.51100000000E-03 0.  1.
</event>
<event>
 8    1  0.1083484E+005  0.1043930E+01  0.7957747E-01            NaN
         13   -1    0    0    0    0  0.00000000000E+00  0.00000000000E+00  0.74505805969E-08  0.10566000000E+00  0.10566000000E+00 0. -1.
     999900   -1    0    0    0    0 -0.00000000000E+00 -0.00000000000E+00 -0.74505805969E-08  0.93827000000E+00  0.93827000000E+00 0.  1.
     999902    2    1    2    0    0  0.97913851005E-02 -0.11990112280E-01  0.17458969705E-01  0.10205965554E+01  0.10203297894E+01 0.  0.
     999903    2    3    3    0    0  0.10826094019E+00  0.52317249882E-01 -0.46553644264E-01  0.13046774175E+00  0.19926465756E-01 0.  0.
         14    1    1    2    0    0 -0.97913851005E-02  0.11990112280E-01 -0.17458969705E-01  0.23333444620E-01  0.00000000000E+00 0.  1.
     999901    1    3    3    0    0 -0.98469555087E-01 -0.64307362162E-01  0.64012613969E-01  0.89012881363E+00  0.88000000000E+00 0.  1.
        -11    1    4    4    0    0  0.69239997111E-01  0.40956184737E-01 -0.37825810488E-01  0.88896790314E-01  0.51100000000E-03 0.  1.
         11    1    4    4    0    0  0.39020943077E-01  0.11361065145E-01 -0.87278337762E-02  0.41570951435E-01  0.51100000000E-03 0. -1.
</event>
<event>
 8    1  0.1083484E+005  0.1043930E+01  0.7957747E-01            NaN
         13   -1    0    0    0    0  0.00000000000E+00  0.00000000000E+00  0.74505805969E-08  0.10566000000E+00  0.10566000000E+00 0.  1.
     999900   -1    0    0    0    0 -0.00000000000E+00 -0.00000000000E+00 -0.74505805969E-08  0.93827000000E+00  0.93827000000E+00 0.  1.
     999902    2    1    2    0    0  0.17355856092E-01 -0.11985991469E-01 -0.10842524792E-01  0.10202139701E+01  0.10199382798E+01 0.  0.
     999903    2    3    3    0    0 -0.15048374561E-01  0.10999636400E+00 -0.63669921735E-01  0.12964086072E+00  0.20669788722E-01 0.  0.
         14    1    1    2    0    0 -0.17355856092E-01  0.11985991469E-01  0.10842524792E-01  0.23716029938E-01  0.00000000000E+00 0.  1.
     999901    1    3    3    0    0  0.32404230652E-01 -0.12198235547E+00  0.52827396943E-01  0.89057310934E+00  0.88000000000E+00 0. -1.
        -11    1    4    4    0    0 -0.77654791450E-02  0.56490201377E-01 -0.20826956882E-01  0.60708061836E-01  0.51100000000E-03 0.  1.
         11    1    4    4    0    0 -0.72828954158E-02  0.53506162620E-01 -0.42842964853E-01  0.68932798887E-01  0.51100000000E-03 0. -1.
</event>
<event>
 8    1  0.1083484E+005  0.1043930E+01  0.7957747E-01            NaN
         13   -1    0    0    0    0  0.00000000000E+00  0.00000000000E+00  0.74505805969E-08  0.10566000000E+00  0.10566000000E+00 0.  1.
     999900   -1    0    0    0    0 -0.00000000000E+00 -0.00000000000E+00 -0.74505805969E-08  0.93827000000E+00  0.93827000000E+00 0.  1.
     999902    2    1    2    0    0 -0.52595576104E-03  0.12946358818E-01 -0.21781859029E-01  0.10185856867E+01  0.10182703309E+01 0.  0.
     999903    2    3    3    0    0  0.91456160476E-01 -0.19805936695E-01 -0.85414205188E-01  0.13090190397E+00  0.32912271229E-01 0.  0.
         14    1    1    2    0    0  0.52595576104E-03 -0.12946358818E-01  0.21781859029E-01  0.25344313344E-01  0.00000000000E+00 0.  1.
     999901    1    3    3    0    0 -0.91982116237E-01  0.32752295513E-01  0.63632346158E-01  0.88768378269E+00  0.88000000000E+00 0.  1.
        -11    1    4    4    0    0  0.36411776761E-01 -0.24171426621E-01 -0.42543027789E-01  0.60993816787E-01  0.51100000000E-03 0. -1.
         11    1    4    4    0    0  0.55044383715E-01  0.43654899267E-02 -0.42871177399E-01  0.69908087182E-01  0.51100000000E-03 0.  1.
</event>
<event>
 8    1  0.1083484E+005  0.1043930E+01  0.7957747E-01            NaN
         13   -1    0    0    0    0  0.00000000000E+00  0.00000000000E+00  0.74505805969E-08  0.10566000000E+00  0.10566000000E+00 0.  1.
     999900   -1    0    0    0    0 -0.00000000000E+00 -0.00000000000E+00 -0.74505805969E-08  0.93827000000E+00  0.93827000000E+00 0.  1.
     999902    2    1    2    0    0  0.20150055654E-01 -0.12104686759E-01 -0.24014936271E-02  0.10203013023E+01  0.10200276624E+01 0.  0.
     999903    2    3    3    0    0  0.42837253213E-01 -0.32485587518E-01  0.11856573874E+00  0.13150258414E+00  0.18567487018E-01 0.  0.
         14    1    1    2    0    0 -0.20150055654E-01  0.12104686759E-01  0.24014936271E-02  0.23628697722E-01  0.00000000000E+00 0. -1.
     999901    1    3    3    0    0 -0.22687197559E-01  0.20380900759E-01 -0.12096723237E+00  0.88879871813E+00  0.88000000000E+00 0.  1.
        -11    1    4    4    0    0  0.74765852812E-02 -0.16391926166E-01  0.37539429156E-01  0.41642099289E-01  0.51100000000E-03 0. -1.
         11    1    4    4    0    0  0.35360667932E-01 -0.16093661352E-01  0.81026309586E-01  0.89860484855E-01  0.51100000000E-03 0.  1.
</event>
<event>
 8    1  0.1083484E+005  0.1043930E+01  0.7957747E-01            NaN
         13   -1    0    0    0    0  0.00000000000E+00  0.00000000000E+00  0.74505805969E-08  0.10566000000E+00  0.10566000000E+00 0.  1.
     999900   -1    0    0    0    0 -0.00000000000E+00 -0.00000000000E+00 -0.74505805969E-08  0.93827000000E+00  0.93827000000E+00 0. -1.
     999902    2    1    2    0    0  0.58008877263E-02 -0.21627760611E-01  0.45154637083E-02  0.10210870637E+01  0.10208315198E+01 0.  0.
     999903    2    3    3    0    0 -0.91833845144E-01  0.63407801827E-01  0.62784235053E-01  0.12970676456E+00  0.20687681213E-01 0.  0.
         14    1    1    2    0    0 -0.58008877263E-02  0.21627760611E-01 -0.45154637083E-02  0.22842936325E-01  0.00000000000E+00 0. -1.
     999901    1    3    3    0    0  0.97634732871E-01 -0.85035562438E-01 -0.58268771345E-01  0.89138029912E+00  0.88000000000E+00 0. -1.
        -11    1    4    4    0    0 -0.64157548903E-01  0.37733730361E-01  0.50722088392E-01  0.90072286859E-01  0.51100000000E-03 0. -1.
         11    1    4    4    0    0 -0.27676296242E-01  0.25674071465E-01  0.12062146661E-01  0.39634477698E-01  0.51100000000E-03 0.  1.
</event>
<event>
 8    1  0.1083484E+005  0.1043930E+01  0.7957747E-01            NaN
         13   -1    0    0    0    0  0.00000000000E+00  0.00000000000E+00  0.74505805969E-08  0.10566000000E+00  0.10566000000E+00 0.  1.
     999900   -1    0    0    0    0 -0.00000000000E+00 -0.00000000000E+00 -0.74505805969E-08  0.93827000000E+00  0.93827000000E+00 0.  1.
     999902    2    1    2    0    0  0.17945564171E-01  0.59476985913E-02  0.11447500363E-01  0.10218287861E+01  0.10215897437E+01 0.  0.
     999903    2    3    3    0    0  0.54597201215E-01  0.81743474366E-01 -0.86321123975E-01  0.13242052998E+00  0.20518536347E-01 0.  0.
         14    1    1    2    0    0 -0.17945564171E-01 -0.59476985913E-02 -0.11447500363E-01  0.22101213915E-01  0.00000000000E+00 0. -1.
     999901    1    3    3    0    0 -0.36651637044E-01 -0.75795775775E-01  0.97768624338E-01  0.88940825611E+00  0.88000000000E+00 0.  1.
        -11    1    4    4    0    0  0.68358389563E-02  0.44255842810E-02 -0.14289423569E-01  0.16454884910E-01  0.51100000000E-03 0. -1.
         11    1    4    4    0    0  0.47761362259E-01  0.77317890085E-01 -0.72031700406E-01  0.11596564507E+00  0.51100000000E-03 0.  1.
</event>
<event>
 8    1  0.1083484E+005  0.1043930E+01  0.7957747E-01            NaN
         13   -1    0    0    0    0  0.00000000000E+00  0.00000000000E+00  0.74505805969E-08  0.10566000000E+00  0.10566000000E+00 0.  1.
     999900   -1    0    0    0    0 -0.00000000000E+00 -0.00000000000E+00 -0.74505805969E-08  0.93827000000E+00  0.93827000000E+00 0.  1.
     999902    2    1    2    0    0  0.44332325343E-02 -0.97821385970E-02 -0.21312138783E-01  0.10200647314E+01  0.10197855192E+01 0.  0.
     999903    2    3    3    0    0  0.10594724416E+00  0.29634145417E-01  0.64626349207E-01  0.12919764719E+00  0.20309256659E-01 0.  0.
         14    1    1    2    0    0 -0.44332325343E-02  0.97821385970E-02  0.21312138783E-01  0.23865268609E-01  0.00000000000E+00 0.  1.
     999901    1    3    3    0    0 -0.10151401163E+00 -0.39416284014E-01 -0.85938487991E-01  0.89086708421E+00  0.88000000000E+00 0.  1.
        -11    1    4    4    0    0  0.77101664364E-01  0.30449471553E-01  0.50444767061E-01  0.97040056732E-01  0.51100000000E-03 0. -1.
         11    1    4    4    0    0  0.28845579799E-01 -0.81532613590E-03  0.14181582146E-01  0.32157590454E-01  0.51100000000E-03 0.  1.
</event>
<event>
 8    1  0.1083484E+005  0.1043930E+01  0.7957747E-01            NaN
         13   -1    0    0    0    0  0.00000000000E+00  0.00000000000E+00  0.74505805969E-08  0.10566000000E+00  0.10566000000E+00 0. -1.
     999900   -1    0    0    0    0 -0.00000000000E+00 -0.00000000000E+00 -0.74505805969E-08  0.93827000000E+00  0.93827000000E+00 0. -1.
     999902    2    1    2    0    0 -0.17173130023E-01  0.77785942614E-02  0.25948234487E-01  0.10118561197E+01  0.10113476520E+01 0.  0.
     999903    2    3    3    0    0  0.98361573713E-01 -0.46997321574E-01  0.51880694093E-01  0.12223757158E+00  0.19148630976E-01 0.  0.
         14    1    1    2    0    0  0.17173130023E-01 -0.77785942614E-02 -0.25948234487E-01  0.32073880284E-01  0.00000000000E+00 0.  1.
     999901    1    3    3    0    0 -0.11553470374E+00  0.54775915835E-01 -0.25932459605E-01  0.88961854813E+00  0.88000000000E+00 0. -1.
        -11    1    4    4    0    0  0.33758617238E-01 -0.13236959192E-01  0.27007782758E-01  0.45216620583E-01  0.51100000000E-03 0. -1.
         11    1    4    4    0    0  0.64602956475E-01 -0.33760362381E-01  0.24872911335E-01  0.77020950999E-01  0.51100000000E-03 0.  1.
</event>
<event>
 8    1  0.1318260E+005  0.1043930E+01  0.7957747E-01            NaN
         13   -1    0    0    0    0  0.00000000000E+00  0.00000000000E+00  0.74505805969E-08  0.10566000000E+00  0.10566000000E+00 0. -1.
     999900   -1    0    0    0    0 -0.00000000000E+00 -0.00000000000E+00 -0.74505805969E-08  0.93827000000E+00  0.93827000000E+00 0.  1.
     999902    2    1    2    0    0  0.12433360774E-01 -0.99322164595E-02  0.17377993749E-01  0.10203666375E+01  0.10200945265E+01 0.  0.
     999903    2    3    3    0    0  0.21566951876E-01  0.90130627035E-01  0.91192942013E-01  0.13157833781E+00  0.20200073409E-01 0.  0.
         14    1    1    2    0    0 -0.12433360774E-01  0.99322164595E-02 -0.17377993749E-01  0.23563362465E-01  0.00000000000E+00 0.  1.
     999901    1    3    3    0    0 -0.91335911021E-02 -0.10006284349E+00 -0.73814948264E-01  0.88878829972E+00  0.88000000000E+00 0.  1.
        -11    1    4    4    0    0  0.22657578965E-01  0.52324138711E-01  0.54241094773E-01  0.78699039762E-01  0.51100000000E-03 0. -1.
         11    1    4    4    0    0 -0.10906270893E-02  0.37806488324E-01  0.36951847240E-01  0.52879298051E-01  0.51100000000E-03 0.  1.
</event>
<event>
 8    1  0.1083484E+005  0.1043930E+01  0.7957747E-01            NaN
         13   -1    0    0    0    0  0.00000000000E+00  0.00000000000E+00  0.74505805969E-08  0.10566000000E+00  0.10566000000E+00 0. -1.
     999900   -1    0    0    0    0 -0.00000000000E+00 -0.00000000000E+00 -0.74505805969E-08  0.93827000000E+00  0.93827000000E+00 0. -1.
     999902    2    1    2    0    0 -0.11261140251E-01  0.10196055916E-01 -0.17329438062E-01  0.10208847779E+01  0.10206246360E+01 0.  0.
     999903    2    3    3    0    0 -0.22268386678E-01 -0.98173584702E-01 -0.82563335838E-01  0.13177252412E+00  0.20331254515E-01 0.  0.
         14    1    1    2    0    0  0.11261140251E-01 -0.10196055916E-01  0.17329438062E-01  0.23045222054E-01  0.00000000000E+00 0. -1.
     999901    1    3    3    0    0  0.11007246428E-01  0.10836964062E+00  0.65233897777E-01  0.88911225382E+00  0.88000000000E+00 0.  1.
        -11    1    4    4    0    0 -0.25172227607E-01 -0.77363866855E-01 -0.69696287257E-01  0.10712909276E+00  0.51100000000E-03 0. -1.
         11    1    4    4    0    0  0.29038409290E-02 -0.20809717847E-01 -0.12867048581E-01  0.24643431360E-01  0.51100000000E-03 0.  1.
</event>
<event>
 8    1  0.1083484E+005  0.1043930E+01  0.7957747E-01            NaN
         13   -1    0    0    0    0  0.00000000000E+00  0.00000000000E+00  0.74505805969E-08  0.10566000000E+00  0.10566000000E+00 0. -1.
     999900   -1    0    0    0    0 -0.00000000000E+00 -0.00000000000E+00 -0.74505805969E-08  0.93827000000E+00  0.93827000000E+00 0.  1.
     999902    2    1    2    0    0  0.40746475691E-02 -0.56103609608E-02  0.23212773226E-01  0.10197037386E+01  0.10194159125E+01 0.  0.
     999903    2    3    3    0    0 -0.79412145875E-01 -0.73517222981E-01 -0.68110189454E-01  0.12845670764E+00  0.12290518448E-01 0.  0.
         14    1    1    2    0    0 -0.40746475691E-02  0.56103609608E-02 -0.23212773226E-01  0.24226261449E-01  0.00000000000E+00 0.  1.
     999901    1    3    3    0    0  0.83486793445E-01  0.67906862020E-01  0.91322962681E-01  0.89124703091E+00  0.88000000000E+00 0. -1.
        -11    1    4    4    0    0 -0.70515127622E-01 -0.59745161814E-01 -0.55980222004E-01  0.10805514315E+00  0.51100000000E-03 0.  1.
         11    1    4    4    0    0 -0.88970182536E-02 -0.13772061167E-01 -0.12129967451E-01  0.20401564498E-01  0.51100000000E-03 0. -1.
</event>
<event>
 8    1  0.1083484E+005  0.1043930E+01  0.7957747E-01            NaN
         13   -1    0    0    0    0  0.00000000000E+00  0.00000000000E+00  0.74505805969E-08  0.10566000000E+00  0.10566000000E+00 0. -1.
     999900   -1    0    0    0    0 -0.00000000000E+00 -0.00000000000E+00 -0.74505805969E-08  0.93827000000E+00  0.93827000000E+00 0.  1.
     999902    2    1    2    0    0  0.18375120991E-01  0.61452863179E-02 -0.11733717477E-01  0.10212785157E+01  0.10210272851E+01 0.  0.
     999903    2    3    3    0    0 -0.22732211507E-01  0.12528263199E+00  0.25871088611E-01  0.13150458859E+00  0.20289215775E-01 0.  0.
         14    1    1    2    0    0 -0.18375120991E-01 -0.61452863179E-02  0.11733717477E-01  0.22651484305E-01  0.00000000000E+00 0. -1.
     999901    1    3    3    0    0  0.41107332499E-01 -0.11913734567E+00 -0.37604806088E-01  0.88977392711E+00  0.88000000000E+00 0.  1.
        -11    1    4    4    0    0 -0.15660652495E-01  0.35000788737E-01  0.89240375632E-02  0.39372716647E-01  0.51100000000E-03 0. -1.
         11    1    4    4    0    0 -0.70715590128E-02  0.90281843248E-01  0.16947051048E-01  0.92131871941E-01  0.51100000000E-03 0.  1.
</event>
<event>
 8    1  0.1083484E+005  0.1043930E+01  0.7957747E-01            NaN
         13   -1    0    0    0    0  0.00000000000E+00  0.00000000000E+00  0.74505805969E-08  0.10566000000E+00  0.10566000000E+00 0. -1.
     999900   -1    0    0    0    0 -0.00000000000E+00 -0.00000000000E+00 -0.74505805969E-08  0.93827000000E+00  0.93827000000E+00 0. -1.
     999902    2    1    2    0    0 -0.22723229513E-01  0.11235569050E-02  0.70191057240E-02  0.10201208550E+01  0.10198429700E+01 0.  0.
     999903    2    3    3    0    0 -0.11661839145E+00 -0.92339593758E-02 -0.59230022305E-01  0.13258915049E+00  0.19661435723E-01 0.  0.
         14    1    1    2    0    0  0.22723229513E-01 -0.11235569050E-02 -0.70191057240E-02  0.23809144983E-01  0.00000000000E+00 0.  1.
     999901    1    3    3    0    0  0.93895161937E-01  0.10357516281E-01  0.66249128029E-01  0.88753170453E+00  0.88000000000E+00 0.  1.
        -11    1    4    4    0    0 -0.92932569082E-01 -0.15198207771E-01 -0.45918916189E-01  0.10476762811E+00  0.51100000000E-03 0. -1.
         11    1    4    4    0    0 -0.23685822368E-01  0.59642483956E-02 -0.13311106116E-01  0.27821522374E-01  0.51100000000E-03 0.  1.
</event>
<event>
 8    1  0.1083484E+005  0.1043930E+01  0.7957747E-01            NaN
         13   -1    0    0    0    0  0.00000000000E+00  0.00000000000E+00  0.74505805969E-08  0.10566000000E+00  0.10566000000E+00 0.  1.
     999900   -1    0    0    0    0 -0.00000000000E+00 -0.00000000000E+00 -0.74505805969E-08  0.93827000000E+00  0.93827000000E+00 0. -1.
     999902    2    1    2    0    0  0.37737122910E-03  0.11786820159E-01 -0.17643022379E-01  0.10227086010E+01  0.10224884032E+01 0.  0.
     999903    2    3    3    0    0  0.59243885595E-01  0.10681555081E+00 -0.54058253089E-01  0.13489004112E+00  0.18805015083E-01 0.  0.
         14    1    1    2    0    0 -0.37737122910E-03 -0.11786820159E-01  0.17643022379E-01  0.21221399039E-01  0.00000000000E+00 0.  1.
     999901    1    3    3    0    0 -0.58866514365E-01 -0.95028730652E-01  0.36415230710E-01  0.88781855984E+00  0.88000000000E+00 0.  1.
        -11    1    4    4    0    0  0.15955148835E-01  0.35611928711E-01 -0.26283751820E-01  0.47051811565E-01  0.51100000000E-03 0. -1.
         11    1    4    4    0    0  0.43288736760E-01  0.71203622100E-01 -0.27774501269E-01  0.87838229559E-01  0.51100000000E-03 0.  1.
</event>
<event>
 8    1  0.1083484E+005  0.1043930E+01  0.7957747E-01            NaN
         13   -1    0    0    0    0  0.00000000000E+00  0.00000000000E+00  0.74505805969E-08  0.10566000000E+00  0.10566000000E+00 0.  1.
     999900   -1    0    0    0    0 -0.00000000000E+00 -0.00000000000E+00 -0.74505805969E-08  0.93827000000E+00  0.93827000000E+00 0.  1.
     999902    2    1    2    0    0 -0.15360357012E-02  0.17802445822E-01 -0.13786974919E-01  0.10213608361E+01  0.10211114485E+01 0.  0.
     999903    2    3    3    0    0  0.20281724847E-01  0.46629186451E-01 -0.12248008381E+00  0.13393693085E+00  0.18764357778E-01 0.  0.
         14    1    1    2    0    0  0.15360357012E-02 -0.17802445822E-01  0.13786974919E-01  0.22569163927E-01  0.00000000000E+00 0.  1.
     999901    1    3    3    0    0 -0.21817760548E-01 -0.28826740629E-01  0.10869310889E+00  0.88742390523E+00  0.88000000000E+00 0. -1.
        -11    1    4    4    0    0 -0.11988925406E-02  0.15115359750E-01 -0.24779220267E-01  0.29054815810E-01  0.51100000000E-03 0.  1.
         11    1    4    4    0    0  0.21480617387E-01  0.31513826701E-01 -0.97700863541E-01  0.10488211504E+00  0.51100000000E-03 0. -1.
</event>
<event>
 8    1  0.1083484E+005  0.1043930E+01  0.7957747E-01            NaN
         13   -1    0    0    0    0  0.00000000000E+00  0.00000000000E+00  0.74505805969E-08  0.10566000000E+00  0.10566000000E+00 0. -1.
     999900   -1    0    0    0    0 -0.00000000000E+00 -0.00000000000E+00 -0.74505805969E-08  0.93827000000E+00  0.93827000000E+00 0. -1.
     999902    2    1    2    0    0 -0.68950942475E-02  0.15002696620E-01 -0.15969630833E-01  0.10209593156E+01  0.10207008729E+01 0.  0.
     999903    2    3    3    0    0  0.79783051223E-02  0.63579562448E-01  0.11127373692E+00  0.13035738182E+00  0.22476395445E-01 0.  0.
         14    1    1    2    0    0  0.68950942475E-02 -0.15002696620E-01  0.15969630833E-01  0.22970684350E-01  0.00000000000E+00 0. -1.
     999901    1    3    3    0    0 -0.14873399370E-01 -0.48576865828E-01 -0.12724336776E+00  0.89060193383E+00  0.88000000000E+00 0. -1.
        -11    1    4    4    0    0  0.14648735018E-01  0.41981137414E-01  0.63714130258E-01  0.77696543370E-01  0.51100000000E-03 0.  1.
         11    1    4    4    0    0 -0.66704298960E-02  0.21598425034E-01  0.47559606667E-01  0.52660838450E-01  0.51100000000E-03 0. -1.
</event>
<event>
 8    1  0.1083484E+005  0.1043930E+01  0.7957747E-01            NaN
         13   -1    0    0    0    0  0.00000000000E+00  0.00000000000E+00  0.74505805969E-08  0.10566000000E+00  0.10566000000E+00 0. -1.
     999900   -1    0    0    0    0 -0.00000000000E+00 -0.00000000000E+00 -0.74505805969E-08  0.93827000000E+00  0.93827000000E+00 0.  1.
     999902    2    1    2    0    0  0.12198782433E-01  0.12886129997E-01 -0.16891732033E-01  0.10194311582E+01  0.10191367391E+01 0.  0.
     999903    2    3    3    0    0 -0.39783817168E-01 -0.98326786802E-01  0.66833908702E-01  0.12697360377E+00  0.20115058779E-01 0.  0.
         14    1    1    2    0    0 -0.12198782433E-01 -0.12886129997E-01  0.16891732033E-01  0.24498841814E-01  0.00000000000E+00 0. -1.
     999901    1    3    3    0    0  0.51982599601E-01  0.11121291680E+00 -0.83725640735E-01  0.89245755442E+00  0.88000000000E+00 0. -1.
        -11    1    4    4    0    0 -0.17339882561E-01 -0.20128457120E-01  0.17783664820E-01  0.31974148444E-01  0.51100000000E-03 0.  1.
         11    1    4    4    0    0 -0.22443934607E-01 -0.78198329681E-01  0.49050243882E-01  0.94999455322E-01  0.51100000000E-03 0. -1.
</event>
<event>
 8    1  0.1083484E+005  0.1043930E+01  0.7957747E-01            NaN
         13   -1    0    0    0    0  0.00000000000E+00  0.00000000000E+00  0.74505805969E-08  0.10566000000E+00  0.10566000000E+00 0. -1.
     999900   -1    0    0    0    0 -0.00000000000E+00 -0.00000000000E+00 -0.74505805969E-08  0.93827000000E+00  0.93827000000E+00 0. -1.
     999902    2    1    2    0    0  0.50763289559E-02 -0.22959144429E-01  0.49624364973E-02  0.10198984124E+01  0.10196152482E+01 0.  0.
     999903    2    3    3    0    0 -0.12104492310E+00 -0.26706304842E-01 -0.34018258557E-01  0.13004443219E+00  0.19728464252E-01 0.  0.
         14    1    1    2    0    0 -0.50763289559E-02  0.22959144429E-01 -0.49624364973E-02  0.24031587642E-01  0.00000000000E+00 0. -1.
     999901    1    3    3    0    0  0.12612125206E+00  0.37471604125E-02  0.38980695054E-01  0.88985398017E+00  0.88000000000E+00 0.  1.
        -11    1    4    4    0    0 -0.22847290113E-01 -0.12982645021E-01 -0.90263035003E-02  0.27789980445E-01  0.51100000000E-03 0.  1.
         11    1    4    4    0    0 -0.98197632989E-01 -0.13723659821E-01 -0.24991955056E-01  0.10225445175E+00  0.51100000000E-03 0. -1.
</event>
<event>
 8    1  0.1083484E+005  0.1043930E+01  0.7957747E-01            NaN
         13   -1    0    0    0    0  0.00000000000E+00  0.00000000000E+00  0.74505805969E-08  0.10566000000E+00  0.10566000000E+00 0.  1.
     999900   -1    0    0    0    0 -0.00000000000E+00 -0.00000000000E+00 -0.74505805969E-08  0.93827000000E+00  0.93827000000E+00 0.  1.
     999902    2    1    2    0    0 -0.58043134940E-02 -0.22320682100E-01 -0.63831602823E-02  0.10199999428E+01  0.10197191945E+01 0.  0.
     999903    2    3    3    0    0  0.16963474056E-01  0.11757278770E+00 -0.42215977553E-01  0.12793910075E+00  0.21796900685E-01 0.  0.
         14    1    1    2    0    0  0.58043134940E-02  0.22320682100E-01  0.63831602823E-02  0.23930057245E-01  0.00000000000E+00 0.  1.
     999901    1    3    3    0    0 -0.22767787550E-01 -0.13989346980E+00  0.35832817271E-01  0.89206084200E+00  0.88000000000E+00 0. -1.
        -11    1    4    4    0    0  0.41549839889E-02  0.37083482748E-01 -0.28532649197E-02  0.37427941786E-01  0.51100000000E-03 0.  1.
         11    1    4    4    0    0  0.12808490067E-01  0.80489304957E-01 -0.39362712633E-01  0.90511158964E-01  0.51100000000E-03 0. -1.
</event>
<event>
 8    1  0.1083484E+005  0.1043930E+01  0.7957747E-01            NaN
         13   -1    0    0    0    0  0.00000000000E+00  0.00000000000E+00  0.74505805969E-08  0.10566000000E+00  0.10566000000E+00 0.  1.
     999900   -1    0    0    0    0 -0.00000000000E+00 -0.00000000000E+00 -0.74505805969E-08  0.93827000000E+00  0.93827000000E+00 0.  1.
     999902    2    1    2    0    0 -0.11532070460E-01 -0.20347516508E-01 -0.14838895120E-01  0.10162315725E+01  0.10158540279E+01 0.  0.
     999903    2    3    3    0    0 -0.17386210519E-01  0.30392484926E-01  0.11805410131E+00  0.12478927645E+00  0.20238804932E-01 0.  0.
         14    1    1    2    0    0  0.11532070460E-01  0.20347516508E-01  0.14838895120E-01  0.27698427492E-01  0.00000000000E+00 0.  1.
     999901    1    3    3    0    0  0.58541400594E-02 -0.50740001434E-01 -0.13289299643E+00  0.89144229606E+00  0.88000000000E+00 0.  1.
        -11    1    4    4    0    0 -0.18413553242E-01  0.27077829328E-01  0.78194503476E-01  0.84775640835E-01  0.51100000000E-03 0. -1.
         11    1    4    4    0    0  0.10273427227E-02  0.33146555975E-02  0.39859597832E-01  0.40013635615E-01  0.51100000000E-03 0.  1.
</event>
<event>
 8    1  0.1083484E+005  0.1043930E+01  0.7957747E-01            NaN
         13   -1    0    0    0    0  0.00000000000E+00  0.00000000000E+00  0.74505805969E-08  0.10566000000E+00  0.10566000000E+00 0.  1.
     999900   -1    0    0    0    0 -0.00000000000E+00 -0.00000000000E+00 -0.74505805969E-08  0.93827000000E+00  0.93827000000E+00 0.  1.
     999902    2    1    2    0    0 -0.17802244278E-01  0.15368653274E-01  0.66188226956E-02  0.10194979674E+01  0.10192051713E+01 0.  0.
     999903    2    3    3    0    0  0.69457053424E-01  0.76640588564E-01  0.76845502883E-01  0.13028470740E+00  0.19256468600E-01 0.  0.
         14    1    1    2    0    0  0.17802244278E-01 -0.15368653274E-01 -0.66188226956E-02  0.24432032634E-01  0.00000000000E+00 0.  1.
     999901    1    3    3    0    0 -0.87259297702E-01 -0.61271935290E-01 -0.70226680188E-01  0.88921325997E+00  0.88000000000E+00 0.  1.
        -11    1    4    4    0    0  0.54864285944E-01  0.49456450145E-01  0.59756300465E-01  0.95011088297E-01  0.51100000000E-03 0.  1.
         11    1    4    4    0    0  0.14592767481E-01  0.27184138419E-01  0.17089202419E-01  0.35273619103E-01  0.51100000000E-03 0. -1.
</event>
<event>
 8    1  0.1083484E+005  0.1043930E+01  0.7957747E-01            NaN
         13   -1    0    0    0    0  0.00000000000E+00  0.00000000000E+00  0.74505805969E-08  0.10566000000E+00  0.10566000000E+00 0. -1.
     999900   -1    0    0    0    0 -0.00000000000E+00 -0.00000000000E+00 -0.74505805969E-08  0.93827000000E+00  0.93827000000E+00 0.  1.
     999902    2    1    2    0    0 -0.22571061398E-01 -0.47096258110E-02 -0.77880415971E-02  0.10195930532E+01  0.10193025592E+01 0.  0.
     999903    2    3    3    0    0  0.32959801296E-01 -0.93717032412E-02  0.12222006270E+00  0.12829763704E+00  0.18664474782E-01 0.  0.
         14    1    1    2    0    0  0.22571061398E-01  0.47096258110E-02  0.77880415971E-02  0.24336946806E-01  0.00000000000E+00 0. -1.
     999901    1    3    3    0    0 -0.55530862695E-01  0.46620774302E-02 -0.13000810430E+00  0.89129541616E+00  0.88000000000E+00 0.  1.
        -11    1    4    4    0    0  0.30451931416E-01 -0.15928567716E-02  0.88891111700E-01  0.93977381214E-01  0.51100000000E-03 0.  1.
         11    1    4    4    0    0  0.25078698805E-02 -0.77788464696E-02  0.33328951004E-01  0.34320255823E-01  0.51100000000E-03 0. -1.
</event>
<event>
 8    1  0.1083484E+005  0.1043930E+01  0.7957747E-01            NaN
         13   -1    0    0    0    0  0.00000000000E+00  0.00000000000E+00  0.74505805969E-08  0.10566000000E+00  0.10566000000E+00 0.  1.
     999900   -1    0    0    0    0 -0.00000000000E+00 -0.00000000000E+00 -0.74505805969E-08  0.93827000000E+00  0.93827000000E+00 0.  1.
     999902    2    1    2    0    0 -0.16077310773E-02  0.17171172162E-01 -0.11525249105E-01  0.10231871622E+01  0.10229768832E+01 0.  0.
     999903    2    3    3    0    0 -0.10069510400E+00 -0.58325263894E-01  0.58319361052E-01  0.13167368004E+00  0.19886421544E-01 0.  0.
         14    1    1    2    0    0  0.16077310773E-02 -0.17171172162E-01  0.11525249105E-01  0.20742837790E-01  0.00000000000E+00 0. -1.
     999901    1    3    3    0    0  0.99087372927E-01  0.75496436056E-01 -0.69844610157E-01  0.89151348217E+00  0.88000000000E+00 0.  1.
        -11    1    4    4    0    0 -0.79425472200E-01 -0.50403096636E-01  0.38889534711E-01  0.10179162449E+00  0.51100000000E-03 0.  1.
         11    1    4    4    0    0 -0.21269631805E-01 -0.79221672582E-02  0.19429826341E-01  0.29882055549E-01  0.51100000000E-03 0. -1.
</event>
<event>
 8    1  0.1083484E+005  0.1043930E+01  0.7957747E-01            NaN
         13   -1    0    0    0    0  0.00000000000E+00  0.00000000000E+00  0.74505805969E-08  0.10566000000E+00  0.10566000000E+00 0. -1.
     999900   -1    0    0    0    0 -0.00000000000E+00 -0.00000000000E+00 -0.74505805969E-08  0.93827000000E+00  0.93827000000E+00 0. -1.
     999902    2    1    2    0    0  0.10059073092E-01 -0.94420798723E-02 -0.17563954482E-01  0.10215954904E+01  0.10213513184E+01 0.  0.
     999903    2    3    3    0    0 -0.42148243178E-01  0.41478369853E-01  0.11268299449E+00  0.12902461710E+00  0.21282974494E-01 0.  0.
         14    1    1    2    0    0 -0.10059073092E-01  0.94420798723E-02  0.17563954482E-01  0.22334509639E-01  0.00000000000E+00 0.  1.
     999901    1    3    3    0    0  0.52207316270E-01 -0.50920449726E-01 -0.13024694897E+00  0.89257087326E+00  0.88000000000E+00 0. -1.
        -11    1    4    4    0    0 -0.26489571891E-01  0.13830497860E-01  0.67129161621E-01  0.73481736173E-01  0.51100000000E-03 0.  1.
         11    1    4    4    0    0 -0.15658671286E-01  0.27647871993E-01  0.45553832866E-01  0.55542880930E-01  0.51100000000E-03 0. -1.
</event>
<event>
 8    1  0.1083484E+005  0.1043930E+01  0.7957747E-01            NaN
         13   -1    0    0    0    0  0.00000000000E+00  0.00000000000E+00  0.74505805969E-08  0.10566000000E+00  0.10566000000E+00 0.  1.
     999900   -1    0    0    0    0 -0.00000000000E+00 -0.00000000000E+00 -0.74505805969E-08  0.93827000000E+00  0.93827000000E+00 0.  1.
     999902    2    1    2    0    0 -0.24429644478E-02 -0.99737440402E-02  0.21175270583E-01  0.10203962853E+01  0.10201248665E+01 0.  0.
     999903    2    3    3    0    0  0.44547369635E-01  0.76672991632E-01  0.95057060638E-01  0.13181636921E+00  0.21828756872E-01 0.  0.
         14    1    1    2    0    0  0.24429644478E-02  0.99737440402E-02 -0.21175270583E-01  0.23533714746E-01  0.00000000000E+00 0.  1.
     999901    1    3    3    0    0 -0.46990334082E-01 -0.86646735673E-01 -0.73881790055E-01  0.88857991605E+00  0.88000000000E+00 0.  1.
        -11    1    4    4    0    0  0.26050237123E-01  0.45238992819E-01  0.70976679546E-01  0.88108634570E-01  0.51100000000E-03 0.  1.
         11    1    4    4    0    0  0.18497132512E-01  0.31433998813E-01  0.24080381092E-01  0.43707734637E-01  0.51100000000E-03 0. -1.
</event>
<event>
 8    1  0.1083484E+005  0.1043930E+01  0.7957747E-01            NaN
         13   -1    0    0    0    0  0.00000000000E+00  0.00000000000E+00  0.74505805969E-08  0.10566000000E+00  0.10566000000E+00 0. -1.
     999900   -1    0    0    0    0 -0.00000000000E+00 -0.00000000000E+00 -0.74505805969E-08  0.93827000000E+00  0.93827000000E+00 0. -1.
     999902    2    1    2    0    0 -0.22157542755E-01  0.93170285220E-02  0.58849153962E-03  0.10198860809E+01  0.10196026226E+01 0.  0.
     999903    2    3    3    0    0 -0.12300951398E-01 -0.11718092332E+00 -0.49726241414E-01  0.12936350595E+00  0.19481668088E-01 0.  0.
         14    1    1    2    0    0  0.22157542755E-01 -0.93170285220E-02 -0.58849153962E-03  0.24043919059E-01  0.00000000000E+00 0.  1.
     999901    1    3    3    0    0 -0.98565913579E-02  0.12649795184E+00  0.50314732953E-01  0.89052257499E+00  0.88000000000E+00 0.  1.
        -11    1    4    4    0    0  0.23861507127E-03 -0.80690467221E-01 -0.30648713526E-01  0.86316934603E-01  0.51100000000E-03 0.  1.
         11    1    4    4    0    0 -0.12539566469E-01 -0.36490456099E-01 -0.19077527887E-01  0.43046571349E-01  0.51100000000E-03 0. -1.
</event>
<event>
 8    1  0.1083484E+005  0.1043930E+01  0.7957747E-01            NaN
         13   -1    0    0    0    0  0.00000000000E+00  0.00000000000E+00  0.74505805969E-08  0.10566000000E+00  0.10566000000E+00 0.  1.
     999900   -1    0    0    0    0 -0.00000000000E+00 -0.00000000000E+00 -0.74505805969E-08  0.93827000000E+00  0.93827000000E+00 0.  1.
     999902    2    1    2    0    0 -0.12601277760E-01  0.15189600090E-01 -0.13693755347E-01  0.10199084454E+01  0.10196255204E+01 0.  0.
     999903    2    3    3    0    0 -0.86761806962E-01  0.97498687867E-01 -0.16066830753E-01  0.13295850229E+00  0.19652353468E-01 0.  0.
         14    1    1    2    0    0  0.12601277760E-01 -0.15189600090E-01  0.13693755347E-01  0.24021554645E-01  0.00000000000E+00 0. -1.
     999901    1    3    3    0    0  0.74160529202E-01 -0.82309087778E-01  0.23730754066E-02  0.88694994307E+00  0.88000000000E+00 0. -1.
        -11    1    4    4    0    0 -0.50942203215E-01  0.52775820501E-01  0.34308358181E-03  0.73353760130E-01  0.51100000000E-03 0. -1.
         11    1    4    4    0    0 -0.35819603747E-01  0.44722867366E-01 -0.16409914335E-01  0.59604742156E-01  0.51100000000E-03 0.  1.
</event>
<event>
 8    1  0.1083484E+005  0.1043930E+01  0.7957747E-01            NaN
         13   -1    0    0    0    0  0.00000000000E+00  0.00000000000E+00  0.74505805969E-08  0.10566000000E+00  0.10566000000E+00 0. -1.
     999900   -1    0    0    0    0 -0.00000000000E+00 -0.00000000000E+00 -0.74505805969E-08  0.93827000000E+00  0.93827000000E+00 0.  1.
     999902    2    1    2    0    0 -0.15678742396E-01  0.10982649736E-01 -0.12360429542E-01  0.10211435616E+01  0.10208892945E+01 0.  0.
     999903    2    3    3    0    0 -0.11287463890E+00  0.43765948974E-01  0.52080471706E-01  0.13284495368E+00  0.16711187558E-01 0.  0.
         14    1    1    2    0    0  0.15678742396E-01 -0.10982649736E-01  0.12360429542E-01  0.22786438441E-01  0.00000000000E+00 0. -1.
     999901    1    3    3    0    0  0.97195896501E-01 -0.32783299238E-01 -0.64440901248E-01  0.88829860788E+00  0.88000000000E+00 0.  1.
        -11    1    4    4    0    0 -0.59129528396E-01  0.14049389276E-01  0.24794006317E-01  0.65640615000E-01  0.51100000000E-03 0.  1.
         11    1    4    4    0    0 -0.53745110501E-01  0.29716559698E-01  0.27286465389E-01  0.67204338681E-01  0.51100000000E-03 0. -1.
</event>
<event>
 8    1  0.1083484E+005  0.1043930E+01  0.7957747E-01            NaN
         13   -1    0    0    0    0  0.00000000000E+00  0.00000000000E+00  0.74505805969E-08  0.10566000000E+00  0.10566000000E+00 0.  1.
     999900   -1    0    0    0    0 -0.00000000000E+00 -0.00000000000E+00 -0.74505805969E-08  0.93827000000E+00  0.93827000000E+00 0. -1.
     999902    2    1    2    0    0  0.75917720218E-02  0.25697855083E-02  0.22527275517E-01  0.10200193969E+01  0.10197391103E+01 0.  0.
     999903    2    3    3    0    0  0.48428063910E-01 -0.11250964997E+00 -0.37884938076E-01  0.12953609284E+00  0.18456221252E-01 0.  0.
         14    1    1    2    0    0 -0.75917720218E-02 -0.25697855083E-02 -0.22527275517E-01  0.23910603134E-01  0.00000000000E+00 0. -1.
     999901    1    3    3    0    0 -0.40836291888E-01  0.11507943548E+00  0.60412213594E-01  0.89048330403E+00  0.88000000000E+00 0.  1.
        -11    1    4    4    0    0  0.21101019698E-01 -0.70368499876E-01 -0.19083461107E-01  0.75904007904E-01  0.51100000000E-03 0.  1.
         11    1    4    4    0    0  0.27327044212E-01 -0.42141150098E-01 -0.18801476970E-01  0.53632084932E-01  0.51100000000E-03 0. -1.
</event>
<event>
 8    1  0.1083484E+005  0.1043930E+01  0.7957747E-01            NaN
         13   -1    0    0    0    0  0.00000000000E+00  0.00000000000E+00  0.74505805969E-08  0.10566000000E+00  0.10566000000E+00 0.  1.
     999900   -1    0    0    0    0 -0.00000000000E+00 -0.00000000000E+00 -0.74505805969E-08  0.93827000000E+00  0.93827000000E+00 0.  1.
     999902    2    1    2    0    0 -0.17748517228E-01 -0.13472019942E-01  0.70172118953E-02  0.10205687833E+01  0.10203013745E+01 0.  0.
     999903    2    3    3    0    0 -0.65953817622E-01 -0.87893838147E-01 -0.71615615303E-01  0.13262425823E+00  0.19625612643E-01 0.  0.
         14    1    1    2    0    0  0.17748517228E-01  0.13472019942E-01 -0.70172118953E-02  0.23361216747E-01  0.00000000000E+00 0. -1.
     999901    1    3    3    0    0  0.48205300394E-01  0.74421818206E-01  0.78632827199E-01  0.88794452503E+00  0.88000000000E+00 0. -1.
        -11    1    4    4    0    0 -0.42666939400E-01 -0.60569453262E-01 -0.37265683957E-01  0.82934424144E-01  0.51100000000E-03 0. -1.
         11    1    4    4    0    0 -0.23286878222E-01 -0.27324384885E-01 -0.34349931346E-01  0.49689834083E-01  0.51100000000E-03 0.  1.
</event>
<event>
 8    1  0.1083484E+005  0.1043930E+01  0.7957747E-01            NaN
         13   -1    0    0    0    0  0.00000000000E+00  0.00000000000E+00  0.74505805969E-08  0.10566000000E+00  0.10566000000E+00 0.  1.
     999900   -1    0    0    0    0 -0.00000000000E+00 -0.00000000000E+00 -0.74505805969E-08  0.93827000000E+00  0.93827000000E+00 0. -1.
     999902    2    1    2    0    0  0.57606232776E-02 -0.82817164589E-02 -0.21613730068E-01  0.10200778526E+01  0.10197989510E+01 0.  0.
     999903    2    3    3    0    0  0.32417951208E-01  0.70510121473E-01  0.99726324917E-01  0.12786589583E+00  0.19538337828E-01 0.  0.
         14    1    1    2    0    0 -0.57606232776E-02  0.82817164589E-02  0.21613730068E-01  0.23852147398E-01  0.00000000000E+00 0.  1.
     999901    1    3    3    0    0 -0.26657327930E-01 -0.78791837932E-01 -0.12134005499E+00  0.89221195677E+00  0.88000000000E+00 0. -1.
        -11    1    4    4    0    0 -0.12140886637E-02  0.72145379232E-02  0.42437237153E-02  0.84731269730E-02  0.51100000000E-03 0. -1.
         11    1    4    4    0    0  0.33632039872E-01  0.63295583549E-01  0.95482601202E-01  0.11939276886E+00  0.51100000000E-03 0.  1.
</event>
<event>
 8    1  0.1083484E+005  0.1043930E+01  0.7957747E-01            NaN
         13   -1    0    0    0    0  0.00000000000E+00  0.00000000000E+00  0.74505805969E-08  0.10566000000E+00  0.10566000000E+00 0.  1.
     999900   -1    0    0    0    0 -0.00000000000E+00 -0.00000000000E+00 -0.74505805969E-08  0.93827000000E+00  0.93827000000E+00 0.  1.
     999902    2    1    2    0    0  0.22917409036E-01 -0.31576713742E-02 -0.45420004027E-02  0.10203544132E+01  0.10200820164E+01 0.  0.
     999903    2    3    3    0    0 -0.14106347646E-01  0.11359843103E+00  0.57557651429E-01  0.12970346430E+00  0.20162163494E-01 0.  0.
         14    1    1    2    0    0 -0.22917409036E-01  0.31576713742E-02  0.45420004027E-02  0.23575586802E-01  0.00000000000E+00 0. -1.
     999901    1    3    3    0    0  0.37023756681E-01 -0.11675610241E+00 -0.62099651832E-01  0.89065094889E+00  0.88000000000E+00 0.  1.
        -11    1    4    4    0    0  0.48731933685E-02  0.20326343432E-01  0.79673820197E-02  0.22375177053E-01  0.51100000000E-03 0.  1.
         11    1    4    4    0    0 -0.18979541014E-01  0.93272087603E-01  0.49590269410E-01  0.10732828725E+00  0.51100000000E-03 0. -1.
</event>
<event>
 8    1  0.1083484E+005  0.1043930E+01  0.7957747E-01            NaN
         13   -1    0    0    0    0  0.00000000000E+00  0.00000000000E+00  0.74505805969E-08  0.10566000000E+00  0.10566000000E+00 0.  1.
     999900   -1    0    0    0    0 -0.00000000000E+00 -0.00000000000E+00 -0.74505805969E-08  0.93827000000E+00  0.93827000000E+00 0.  1.
     999902    2    1    2    0    0 -0.19726289062E-01 -0.73060363615E-02  0.10186950064E-01  0.10205573964E+01  0.10202897239E+01 0.  0.
     999903    2    3    3    0    0 -0.29424075696E-01  0.62655140283E-01 -0.10804264475E+00  0.12984596704E+00  0.19882636598E-01 0.  0.
         14    1    1    2    0    0  0.19726289062E-01  0.73060363615E-02 -0.10186950064E-01  0.23372603600E-01  0.00000000000E+00 0.  1.
     999901    1    3    3    0    0  0.96977866345E-02 -0.69961176644E-01  0.11822959481E+00  0.89071142936E+00  0.88000000000E+00 0. -1.
        -11    1    4    4    0    0  0.11344809002E-03  0.18536612695E-01 -0.22401946226E-01  0.29081389176E-01  0.51100000000E-03 0. -1.
         11    1    4    4    0    0 -0.29537523786E-01  0.44118527588E-01 -0.85640698521E-01  0.10076457786E+00  0.51100000000E-03 0.  1.
</event>
<event>
 8    1  0.1083484E+005  0.1043930E+01  0.7957747E-01            NaN
         13   -1    0    0    0    0  0.00000000000E+00  0.00000000000E+00  0.74505805969E-08  0.10566000000E+00  0.10566000000E+00 0. -1.
     999900   -1    0    0    0    0 -0.00000000000E+00 -0.00000000000E+00 -0.74505805969E-08  0.93827000000E+00  0.93827000000E+00 0.  1.
     999902    2    1    2    0    0 -0.45431446964E-02  0.26451472561E-02  0.23430786915E-01  0.10199166965E+01  0.10196339682E+01 0.  0.
     999903    2    3    3    0    0 -0.19117618808E-01 -0.87843921419E-01  0.94979777627E-01  0.13226814845E+00  0.19790580028E-01 0.  0.
         14    1    1    2    0    0  0.45431446964E-02 -0.26451472561E-02 -0.23430786915E-01  0.24013303462E-01  0.00000000000E+00 0.  1.
     999901    1    3    3    0    0  0.14574474112E-01  0.90489068675E-01 -0.71548990712E-01  0.88764854808E+00  0.88000000000E+00 0. -1.
        -11    1    4    4    0    0 -0.89341120373E-02 -0.54182702189E-01  0.44185637515E-01  0.70485567729E-01  0.51100000000E-03 0.  1.
         11    1    4    4    0    0 -0.10183506771E-01 -0.33661219229E-01  0.50794140112E-01  0.61782580724E-01  0.51100000000E-03 0. -1.
</event>
<event>
 8    1  0.1083484E+005  0.1043930E+01  0.7957747E-01            NaN
         13   -1    0    0    0    0  0.00000000000E+00  0.00000000000E+00  0.74505805969E-08  0.10566000000E+00  0.10566000000E+00 0. -1.
     999900   -1    0    0    0    0 -0.00000000000E+00 -0.00000000000E+00 -0.74505805969E-08  0.93827000000E+00  0.93827000000E+00 0.  1.
     999902    2    1    2    0    0 -0.12035269347E-01 -0.11753921760E-01  0.10299560075E-01  0.10242048049E+01  0.10240148432E+01 0.  0.
     999903    2    3    3    0    0  0.42447632907E-02  0.80652742808E-01 -0.10235021326E+00  0.13207588899E+00  0.21109035044E-01 0.  0.
         14    1    1    2    0    0  0.12035269347E-01  0.11753921760E-01 -0.10299560075E-01  0.19725195125E-01  0.00000000000E+00 0.  1.
     999901    1    3    3    0    0 -0.16280032638E-01 -0.92406664568E-01  0.11264977334E+00  0.89212891588E+00  0.88000000000E+00 0. -1.
        -11    1    4    4    0    0  0.84155363556E-02  0.15997099442E-01 -0.29311058015E-01  0.34440204495E-01  0.51100000000E-03 0. -1.
         11    1    4    4    0    0 -0.41707730649E-02  0.64655643366E-01 -0.73039155248E-01  0.97635684498E-01  0.51100000000E-03 0.  1.
</event>
<event>
 8    1  0.1083484E+005  0.1043930E+01  0.7957747E-01            NaN
         13   -1    0    0    0    0  0.00000000000E+00  0.00000000000E+00  0.74505805969E-08  0.10566000000E+00  0.10566000000E+00 0. -1.
     999900   -1    0    0    0    0 -0.00000000000E+00 -0.00000000000E+00 -0.74505805969E-08  0.93827000000E+00  0.93827000000E+00 0.  1.
     999902    2    1    2    0    0  0.25988804236E-01 -0.35251561853E-03 -0.42821016229E-02  0.10175884244E+01  0.10172474246E+01 0.  0.
     999903    2    3    3    0    0  0.58434636468E-01  0.10926685021E+00 -0.32458020801E-01  0.12974664802E+00  0.20659580446E-01 0.  0.
         14    1    1    2    0    0 -0.25988804236E-01  0.35251561853E-03  0.42821016229E-02  0.26341575640E-01  0.00000000000E+00 0. -1.
     999901    1    3    3    0    0 -0.32445832232E-01 -0.10961936583E+00  0.28175919178E-01  0.88784177634E+00  0.88000000000E+00 0. -1.
        -11    1    4    4    0    0  0.34775716666E-01  0.81734747011E-01 -0.28187181095E-01  0.93191725157E-01  0.51100000000E-03 0. -1.
         11    1    4    4    0    0  0.23658919802E-01  0.27532103198E-01 -0.42708397057E-02  0.36554922863E-01  0.51100000000E-03 0.  1.
</event>
<event>
 8    1  0.1083484E+005  0.1043930E+01  0.7957747E-01            NaN
         13   -1    0    0    0    0  0.00000000000E+00  0.00000000000E+00  0.74505805969E-08  0.10566000000E+00  0.10566000000E+00 0.  1.
     999900   -1    0    0    0    0 -0.00000000000E+00 -0.00000000000E+00 -0.74505805969E-08  0.93827000000E+00  0.93827000000E+00 0. -1.
     999902    2    1    2    0    0 -0.12766272754E-01  0.17050740594E-01 -0.10784801987E-01  0.10200549622E+01  0.10197755187E+01 0.  0.
     999903    2    3    3    0    0 -0.26491070925E-01 -0.12271871788E+00  0.18213457751E-01  0.12844699306E+00  0.20130559556E-01 0.  0.
         14    1    1    2    0    0  0.12766272754E-01 -0.17050740594E-01  0.10784801987E-01  0.23875037774E-01  0.00000000000E+00 0.  1.
     999901    1    3    3    0    0  0.13724798171E-01  0.13976945847E+00 -0.28998259737E-01  0.89160796916E+00  0.88000000000E+00 0.  1.
        -11    1    4    4    0    0  0.83238986414E-03 -0.40055135139E-01  0.47284830887E-02  0.40345091365E-01  0.51100000000E-03 0. -1.
         11    1    4    4    0    0 -0.27323460789E-01 -0.82663582737E-01  0.13484974662E-01  0.88101901699E-01  0.51100000000E-03 0.  1.
</event>
<event>
 8    1  0.1083484E+005  0.1043930E+01  0.7957747E-01            NaN
         13   -1    0    0    0    0  0.00000000000E+00  0.00000000000E+00  0.74505805969E-08  0.10566000000E+00  0.10566000000E+00 0.  1.
     999900   -1    0    0    0    0 -0.00000000000E+00 -0.00000000000E+00 -0.74505805969E-08  0.93827000000E+00  0.93827000000E+00 0.  1.
     999902    2    1    2    0    0 -0.64446725965E-02  0.19815116767E-01 -0.10448293264E-01  0.10206203563E+01  0.10203541406E+01 0.  0.
     999903    2    3    3    0    0  0.10200161728E+00  0.50957156424E-01  0.60612058710E-01  0.13057541471E+00  0.19368932512E-01 0.  0.
         14    1    1    2    0    0  0.64446725965E-02 -0.19815116767E-01  0.10448293264E-01  0.23309643702E-01  0.00000000000E+00 0. -1.
     999901    1    3    3    0    0 -0.10844628988E+00 -0.31142039657E-01 -0.71060351974E-01  0.89004494159E+00  0.88000000000E+00 0.  1.
        -11    1    4    4    0    0  0.67176012498E-01  0.30431274865E-01  0.48890078887E-01  0.88482654117E-01  0.51100000000E-03 0.  1.
         11    1    4    4    0    0  0.34825604785E-01  0.20525881559E-01  0.11721979823E-01  0.42092760593E-01  0.51100000000E-03 0. -1.
</event>
<event>
 8    1  0.1083484E+005  0.1043930E+01  0.7957747E-01            NaN
         13   -1    0    0    0    0  0.00000000000E+00  0.00000000000E+00  0.74505805969E-08  0.10566000000E+00  0.10566000000E+00 0. -1.
     999900   -1    0    0    0    0 -0.00000000000E+00 -0.00000000000E+00 -0.74505805969E-08  0.93827000000E+00  0.93827000000E+00 0.  1.
     999902    2    1    2    0    0 -0.15067633038E-01  0.87512926694E-02  0.17073919430E-01  0.10195345616E+01  0.10192426526E+01 0.  0.
     999903    2    3    3    0    0 -0.47348144404E-01  0.59152044859E-01 -0.10231851781E+00  0.12945769904E+00  0.23439401976E-01 0.  0.
         14    1    1    2    0    0  0.15067633038E-01 -0.87512926694E-02 -0.17073919430E-01  0.24395438374E-01  0.00000000000E+00 0.  1.
     999901    1    3    3    0    0  0.32280511366E-01 -0.50400752189E-01  0.11939243724E+00  0.89007686258E+00  0.88000000000E+00 0. -1.
        -11    1    4    4    0    0 -0.41398595162E-01  0.40170640843E-01 -0.86810233884E-01  0.10422956344E+00  0.51100000000E-03 0. -1.
         11    1    4    4    0    0 -0.59495492415E-02  0.18981404016E-01 -0.15508283928E-01  0.25228135602E-01  0.51100000000E-03 0.  1.
</event>
<event>
 8    1  0.1083484E+005  0.1043930E+01  0.7957747E-01            NaN
         13   -1    0    0    0    0  0.00000000000E+00  0.00000000000E+00  0.74505805969E-08  0.10566000000E+00  0.10566000000E+00 0.  1.
     999900   -1    0    0    0    0 -0.00000000000E+00 -0.00000000000E+00 -0.74505805969E-08  0.93827000000E+00  0.93827000000E+00 0.  1.
     999902    2    1    2    0    0 -0.12215630085E-01  0.11496508542E-01 -0.17782592720E-01  0.10194838974E+01  0.10191907600E+01 0.  0.
     999903    2    3    3    0    0  0.10899189852E+00 -0.60235791355E-01 -0.23190482645E-01  0.12826785566E+00  0.20180679064E-01 0.  0.
         14    1    1    2    0    0  0.12215630085E-01 -0.11496508542E-01  0.17782592720E-01  0.24446102571E-01  0.00000000000E+00 0.  1.
     999901    1    3    3    0    0 -0.12120752860E+00  0.71732299897E-01  0.54078899248E-02  0.89121604177E+00  0.88000000000E+00 0. -1.
        -11    1    4    4    0    0  0.43967279650E-01 -0.29077655312E-01 -0.64462093316E-03  0.52719146194E-01  0.51100000000E-03 0. -1.
         11    1    4    4    0    0  0.65024618866E-01 -0.31158136043E-01 -0.22545861712E-01  0.75548709464E-01  0.51100000000E-03 0.  1.
</event>
<event>
 8    1  0.1083484E+005  0.1043930E+01  0.7957747E-01            NaN
         13   -1    0    0    0    0  0.00000000000E+00  0.00000000000E+00  0.74505805969E-08  0.10566000000E+00  0.10566000000E+00 0. -1.
     999900   -1    0    0    0    0 -0.00000000000E+00 -0.00000000000E+00 -0.74505805969E-08  0.93827000000E+00  0.93827000000E+00 0.  1.
     999902    2    1    2    0    0 -0.24218246714E-01  0.66660331270E-03 -0.40975308388E-02  0.10193585207E+01  0.10190623319E+01 0.  0.
     999903    2    3    3    0    0  0.75716831294E-01  0.99493269091E-01  0.18588622059E-01  0.12791677210E+00  0.19626884112E-01 0.  0.
         14    1    1    2    0    0  0.24218246714E-01 -0.66660331270E-03  0.40975308388E-02  0.24571479256E-01  0.00000000000E+00 0. -1.
     999901    1    3    3    0    0 -0.99935078007E-01 -0.98826665778E-01 -0.22686152898E-01  0.89144174864E+00  0.88000000000E+00 0.  1.
        -11    1    4    4    0    0  0.24502417204E-01  0.44181915564E-01  0.13837855086E-01  0.52384706414E-01  0.51100000000E-03 0. -1.
         11    1    4    4    0    0  0.51214414090E-01  0.55311353527E-01  0.47507669731E-02  0.75532065689E-01  0.51100000000E-03 0.  1.
</event>
<event>
 8    1  0.1083484E+005  0.1043930E+01  0.7957747E-01            NaN
         13   -1    0    0    0    0  0.00000000000E+00  0.00000000000E+00  0.74505805969E-08  0.10566000000E+00  0.10566000000E+00 0.  1.
     999900   -1    0    0    0    0 -0.00000000000E+00 -0.00000000000E+00 -0.74505805969E-08  0.93827000000E+00  0.93827000000E+00 0. -1.
     999902    2    1    2    0    0 -0.20565100751E-01  0.51697254850E-02  0.84203655028E-02  0.10211143916E+01  0.10208594657E+01 0.  0.
     999903    2    3    3    0    0  0.84190963490E-01  0.35889148346E-01  0.90925625930E-01  0.13053894062E+00  0.19919745576E-01 0.  0.
         14    1    1    2    0    0  0.20565100751E-01 -0.51697254850E-02 -0.84203655028E-02  0.22815608379E-01  0.00000000000E+00 0. -1.
     999901    1    3    3    0    0 -0.10475606424E+00 -0.30719422862E-01 -0.82505260427E-01  0.89057545101E+00  0.88000000000E+00 0. -1.
        -11    1    4    4    0    0  0.50296464494E-01  0.15866298474E-01  0.40135775551E-01  0.66276808673E-01  0.51100000000E-03 0.  1.
         11    1    4    4    0    0  0.33894498996E-01  0.20022849873E-01  0.50789850379E-01  0.64262131942E-01  0.51100000000E-03 0. -1.
</event>
<event>
 8    1  0.1083484E+005  0.1043930E+01  0.7957747E-01            NaN
         13   -1    0    0    0    0  0.00000000000E+00  0.00000000000E+00  0.74505805969E-08  0.10566000000E+00  0.10566000000E+00 0. -1.
     999900   -1    0    0    0    0 -0.00000000000E+00 -0.00000000000E+00 -0.74505805969E-08  0.93827000000E+00  0.93827000000E+00 0.  1.
     999902    2    1    2    0    0 -0.12150046547E-01  0.10917192663E-01  0.17024141851E-01  0.10203369898E+01  0.10200641855E+01 0.  0.
     999903    2    3    3    0    0 -0.24800321559E-01  0.22685632434E-01  0.12740096770E+00  0.13327353694E+00  0.20028360103E-01 0.  0.
         14    1    1    2    0    0  0.12150046547E-01 -0.10917192663E-01 -0.17024141851E-01  0.23593010246E-01  0.00000000000E+00 0.  1.
     999901    1    3    3    0    0  0.12650275012E-01 -0.11768439771E-01 -0.11037682585E+00  0.88706345281E+00  0.88000000000E+00 0.  1.
        -11    1    4    4    0    0 -0.15121956662E-01  0.15864510115E-01  0.45349590230E-01  0.50370653256E-01  0.51100000000E-03 0. -1.
         11    1    4    4    0    0 -0.96783648971E-02  0.68211223190E-02  0.82051377473E-01  0.82902883684E-01  0.51100000000E-03 0.  1.
</event>
<event>
 8    1  0.1083484E+005  0.1043930E+01  0.7957747E-01            NaN
         13   -1    0    0    0    0  0.00000000000E+00  0.00000000000E+00  0.74505805969E-08  0.10566000000E+00  0.10566000000E+00 0. -1.
     999900   -1    0    0    0    0 -0.00000000000E+00 -0.00000000000E+00 -0.74505805969E-08  0.93827000000E+00  0.93827000000E+00 0.  1.
     999902    2    1    2    0    0 -0.18766355395E-01 -0.13700837239E-01 -0.60281734052E-02  0.10199252523E+01  0.10196427278E+01 0.  0.
     999903    2    3    3    0    0 -0.82096346182E-01 -0.10183966653E+00 -0.13920812299E-01  0.13322268963E+00  0.21056312168E-01 0.  0.
         14    1    1    2    0    0  0.18766355395E-01  0.13700837239E-01  0.60281734052E-02  0.24004747666E-01  0.00000000000E+00 0. -1.
     999901    1    3    3    0    0  0.63329990787E-01  0.88138829286E-01  0.78926388936E-02  0.88670256271E+00  0.88000000000E+00 0. -1.
        -11    1    4    4    0    0 -0.78695570453E-01 -0.87287103987E-01 -0.11729017869E-01  0.11810953523E+00  0.51100000000E-03 0.  1.
         11    1    4    4    0    0 -0.34007757296E-02 -0.14552562539E-01 -0.21917944297E-02  0.15113154397E-01  0.51100000000E-03 0. -1.
</event>
<event>
 8    1  0.1083484E+005  0.1043930E+01  0.7957747E-01            NaN
         13   -1    0    0    0    0  0.00000000000E+00  0.00000000000E+00  0.74505805969E-08  0.10566000000E+00  0.10566000000E+00 0. -1.
     999900   -1    0    0    0    0 -0.00000000000E+00 -0.00000000000E+00 -0.74505805969E-08  0.93827000000E+00  0.93827000000E+00 0.  1.
     999902    2    1    2    0    0  0.40939312196E-02  0.99957831771E-02 -0.20264576066E-01  0.10209663549E+01  0.10207080723E+01 0.  0.
     999903    2    3    3    0    0 -0.82404593922E-02 -0.75447161335E-01 -0.10696441441E+00  0.13250167020E+00  0.18844822355E-01 0.  0.
         14    1    1    2    0    0 -0.40939312196E-02 -0.99957831771E-02  0.20264576066E-01  0.22963645122E-01  0.00000000000E+00 0. -1.
     999901    1    3    3    0    0  0.12334390612E-01  0.85442944512E-01  0.86699838346E-01  0.88846468468E+00  0.88000000000E+00 0. -1.
        -11    1    4    4    0    0 -0.72975943640E-02 -0.24924859184E-01 -0.24042284696E-01  0.35394859278E-01  0.51100000000E-03 0.  1.
         11    1    4    4    0    0 -0.94286502816E-03 -0.50522302151E-01 -0.82922129716E-01  0.97106810918E-01  0.51100000000E-03 0. -1.
</event>
<event>
 8    1  0.1083484E+005  0.1043930E+01  0.7957747E-01            NaN
         13   -1    0    0    0    0  0.00000000000E+00  0.00000000000E+00  0.74505805969E-08  0.10566000000E+00  0.10566000000E+00 0. -1.
     999900   -1    0    0    0    0 -0.00000000000E+00 -0.00000000000E+00 -0.74505805969E-08  0.93827000000E+00  0.93827000000E+00 0.  1.
     999902    2    1    2    0    0  0.16267216682E-01  0.17269861310E-01 -0.13073046825E-03  0.10202047489E+01  0.10199288417E+01 0.  0.
     999903    2    3    3    0    0 -0.12638388450E+00 -0.64021229010E-02  0.70786247901E-02  0.12837423010E+00  0.20395160821E-01 0.  0.
         14    1    1    2    0    0 -0.16267216682E-01 -0.17269861310E-01  0.13073046825E-03  0.23725251077E-01  0.00000000000E+00 0.  1.
     999901    1    3    3    0    0  0.14265110118E+00  0.23671984211E-01 -0.72093552584E-02  0.89183051883E+00  0.88000000000E+00 0.  1.
        -11    1    4    4    0    0 -0.43442000411E-01 -0.40261928732E-02 -0.70665605581E-02  0.44199717509E-01  0.51100000000E-03 0.  1.
         11    1    4    4    0    0 -0.82941884090E-01 -0.23759300278E-02  0.14145185348E-01  0.84174512588E-01  0.51100000000E-03 0. -1.
</event>
<event>
 8    1  0.1083484E+005  0.1043930E+01  0.7957747E-01            NaN
         13   -1    0    0    0    0  0.00000000000E+00  0.00000000000E+00  0.74505805969E-08  0.10566000000E+00  0.10566000000E+00 0. -1.
     999900   -1    0    0    0    0 -0.00000000000E+00 -0.00000000000E+00 -0.74505805969E-08  0.93827000000E+00  0.93827000000E+00 0.  1.
     999902    2    1    2    0    0 -0.22447117186E-01  0.89815622969E-02 -0.21639168142E-02  0.10196560620E+01  0.10193670883E+01 0.  0.
     999903    2    3    3    0    0  0.11611269654E+00  0.13895884805E-01  0.46820003150E-01  0.12745518943E+00  0.19428296514E-01 0.  0.
         14    1    1    2    0    0  0.22447117186E-01 -0.89815622969E-02  0.21639168142E-02  0.24273938025E-01  0.00000000000E+00 0. -1.
     999901    1    3    3    0    0 -0.13855981373E+00 -0.49143225084E-02 -0.48983919964E-01  0.89220087254E+00  0.88000000000E+00 0. -1.
        -11    1    4    4    0    0  0.48519838849E-01  0.15005807703E-01  0.23270210880E-01  0.55866921001E-01  0.51100000000E-03 0.  1.
         11    1    4    4    0    0  0.67592857696E-01 -0.11099228980E-02  0.23549792270E-01  0.71588268434E-01  0.51100000000E-03 0. -1.
</event>
<event>
 8    1  0.1083484E+005  0.1043930E+01  0.7957747E-01            NaN
         13   -1    0    0    0    0  0.00000000000E+00  0.00000000000E+00  0.74505805969E-08  0.10566000000E+00  0.10566000000E+00 0. -1.
     999900   -1    0    0    0    0 -0.00000000000E+00 -0.00000000000E+00 -0.74505805969E-08  0.93827000000E+00  0.93827000000E+00 0. -1.
     999902    2    1    2    0    0  0.17463842311E-01 -0.85200109408E-02  0.13176037871E-01  0.10204526844E+01  0.10201825801E+01 0.  0.
     999903    2    3    3    0    0  0.41345295947E-01 -0.93783422104E-01  0.82585144741E-01  0.13328990494E+00  0.21003068070E-01 0.  0.
         14    1    1    2    0    0 -0.17463842311E-01  0.85200109408E-02 -0.13176037871E-01  0.23477315619E-01  0.00000000000E+00 0.  1.
     999901    1    3    3    0    0 -0.23881453636E-01  0.85263411164E-01 -0.69409106870E-01  0.88716277944E+00  0.88000000000E+00 0. -1.
        -11    1    4    4    0    0  0.34882174319E-01 -0.57130150578E-01  0.46977704565E-01  0.81778885034E-01  0.51100000000E-03 0.  1.
         11    1    4    4    0    0  0.64631216277E-02 -0.36653271527E-01  0.35607440176E-01  0.51511019905E-01  0.51100000000E-03 0. -1.
</event>
<event>
 8    1  0.1083484E+005  0.1043930E+01  0.7957747E-01            NaN
         13   -1    0    0    0    0  0.00000000000E+00  0.00000000000E+00  0.74505805969E-08  0.10566000000E+00  0.10566000000E+00 0.  1.
     999900   -1    0    0    0    0 -0.00000000000E+00 -0.00000000000E+00 -0.74505805969E-08  0.93827000000E+00  0.93827000000E+00 0.  1.
     999902    2    1    2    0    0 -0.15409146990E-01 -0.17092827322E-01  0.62410398100E-02  0.10200855639E+01  0.10198068447E+01 0.  0.
     999903    2    3    3    0    0 -0.12424398342E+00 -0.36052431186E-01 -0.22119521575E-01  0.13272497783E+00  0.19756044483E-01 0.  0.
         14    1    1    2    0    0  0.15409146990E-01  0.17092827322E-01 -0.62410398100E-02  0.23844436138E-01  0.00000000000E+00 0. -1.
     999901    1    3    3    0    0  0.10883483643E+00  0.18959603864E-01  0.28360561385E-01  0.88736058603E+00  0.88000000000E+00 0.  1.
        -11    1    4    4    0    0 -0.47728940786E-01 -0.13356696183E-01  0.11884492485E-02  0.49579498324E-01  0.51100000000E-03 0. -1.
         11    1    4    4    0    0 -0.76515042639E-01 -0.22695735003E-01 -0.23307970823E-01  0.83145479506E-01  0.51100000000E-03 0.  1.
</event>
<event>
 8    1  0.1083484E+005  0.1043930E+01  0.7957747E-01            NaN
         13   -1    0    0    0    0  0.00000000000E+00  0.00000000000E+00  0.74505805969E-08  0.10566000000E+00  0.10566000000E+00 0. -1.
     999900   -1    0    0    0    0 -0.00000000000E+00 -0.00000000000E+00 -0.74505805969E-08  0.93827000000E+00  0.93827000000E+00 0.  1.
     999902    2    1    2    0    0  0.17159384131E-01  0.16186123635E-01  0.96319209628E-03  0.10203214676E+01  0.10200483001E+01 0.  0.
     999903    2    3    3    0    0 -0.10955256462E+00  0.64168471312E-01  0.17600440890E-01  0.12979632946E+00  0.20443935456E-01 0.  0.
         14    1    1    2    0    0 -0.17159384131E-01 -0.16186123635E-01 -0.96319209628E-03  0.23608532379E-01  0.00000000000E+00 0. -1.
     999901    1    3    3    0    0  0.12671194875E+00 -0.47982347677E-01 -0.16637248794E-01  0.89052513816E+00  0.88000000000E+00 0.  1.
        -11    1    4    4    0    0 -0.74264689233E-01  0.51401870234E-01  0.18765180510E-01  0.92248520048E-01  0.51100000000E-03 0. -1.
         11    1    4    4    0    0 -0.35287875387E-01  0.12766601078E-01 -0.11647396203E-02  0.37547809414E-01  0.51100000000E-03 0.  1.
</event>
<event>
 8    1  0.1083484E+005  0.1043930E+01  0.7957747E-01            NaN
         13   -1    0    0    0    0  0.00000000000E+00  0.00000000000E+00  0.74505805969E-08  0.10566000000E+00  0.10566000000E+00 0. -1.
     999900   -1    0    0    0    0 -0.00000000000E+00 -0.00000000000E+00 -0.74505805969E-08  0.93827000000E+00  0.93827000000E+00 0. -1.
     999902    2    1    2    0    0 -0.71827749801E-02 -0.48950418643E-02 -0.22282259279E-01  0.10200123753E+01  0.10197319222E+01 0.  0.
     999903    2    3    3    0    0 -0.10742625781E+00  0.14884932395E-01 -0.73514906696E-01  0.13262024814E+00  0.20535983831E-01 0.  0.
         14    1    1    2    0    0  0.71827749801E-02  0.48950418643E-02  0.22282259279E-01  0.23917624670E-01  0.00000000000E+00 0. -1.
     999901    1    3    3    0    0  0.10024348283E+00 -0.19779974260E-01  0.51232647417E-01  0.88739212719E+00  0.88000000000E+00 0.  1.
        -11    1    4    4    0    0 -0.76502801614E-01  0.17702428331E-01 -0.59637108223E-01  0.98604768758E-01  0.51100000000E-03 0.  1.
         11    1    4    4    0    0 -0.30923456194E-01 -0.28174959360E-02 -0.13877798473E-01  0.34015479385E-01  0.51100000000E-03 0. -1.
</event>
<event>
 8    1  0.1083484E+005  0.1043930E+01  0.7957747E-01            NaN
         13   -1    0    0    0    0  0.00000000000E+00  0.00000000000E+00  0.74505805969E-08  0.10566000000E+00  0.10566000000E+00 0.  1.
     999900   -1    0    0    0    0 -0.00000000000E+00 -0.00000000000E+00 -0.74505805969E-08  0.93827000000E+00  0.93827000000E+00 0. -1.
     999902    2    1    2    0    0  0.93708947804E-02 -0.20466543910E-01  0.64675938293E-02  0.10205094351E+01  0.10202406502E+01 0.  0.
     999903    2    3    3    0    0 -0.12452841870E+00  0.26691847342E-01  0.62779953422E-02  0.12913242401E+00  0.20395782066E-01 0.  0.
         14    1    1    2    0    0 -0.93708947804E-02  0.20466543910E-01 -0.64675938293E-02  0.23420564864E-01  0.00000000000E+00 0.  1.
     999901    1    3    3    0    0  0.13389931348E+00 -0.47158391252E-01  0.18959848707E-03  0.89137701113E+00  0.88000000000E+00 0.  1.
        -11    1    4    4    0    0 -0.52802105643E-01  0.93998304106E-02 -0.72403702080E-02  0.54121190432E-01  0.51100000000E-03 0. -1.
         11    1    4    4    0    0 -0.71726313059E-01  0.17292016931E-01  0.13518365550E-01  0.75011233577E-01  0.51100000000E-03 0.  1.
</event>
<event>
 8    1  0.1083484E+005  0.1043930E+01  0.7957747E-01            NaN
         13   -1    0    0    0    0  0.00000000000E+00  0.00000000000E+00  0.74505805969E-08  0.10566000000E+00  0.10566000000E+00 0. -1.
     999900   -1    0    0    0    0 -0.00000000000E+00 -0.00000000000E+00 -0.74505805969E-08  0.93827000000E+00  0.93827000000E+00 0. -1.
     999902    2    1    2    0    0 -0.12895722041E-01  0.69653124736E-02  0.25321936285E-01  0.10146722543E+01  0.10142503478E+01 0.  0.
     999903    2    3    3    0    0 -0.64688937439E-01  0.40998130364E-01  0.98816036812E-01  0.12943660622E+00  0.33521941757E-01 0.  0.
         14    1    1    2    0    0  0.12895722041E-01 -0.69653124736E-02 -0.25321936285E-01  0.29257745676E-01  0.00000000000E+00 0.  1.
     999901    1    3    3    0    0  0.51793215398E-01 -0.34032817890E-01 -0.73494100527E-01  0.88523564810E+00  0.88000000000E+00 0. -1.
        -11    1    4    4    0    0 -0.40173839234E-01  0.21650171289E-01  0.32179796005E-01  0.55843241915E-01  0.51100000000E-03 0.  1.
         11    1    4    4    0    0 -0.24515098205E-01  0.19347959075E-01  0.66636240807E-01  0.73593364309E-01  0.51100000000E-03 0. -1.
</event>
<event>
 8    1  0.1083484E+005  0.1043930E+01  0.7957747E-01            NaN
         13   -1    0    0    0    0  0.00000000000E+00  0.00000000000E+00  0.74505805969E-08  0.10566000000E+00  0.10566000000E+00 0.  1.
     999900   -1    0    0    0    0 -0.00000000000E+00 -0.00000000000E+00 -0.74505805969E-08  0.93827000000E+00  0.93827000000E+00 0. -1.
     999902    2    1    2    0    0  0.75301409971E-02  0.21815171023E-01 -0.22301409729E-02  0.10207442665E+01  0.10204809059E+01 0.  0.
     999903    2    3    3    0    0  0.46852696007E-01  0.90591138249E-01  0.82968954587E-01  0.13308707877E+00  0.20649301652E-01 0.  0.
         14    1    1    2    0    0 -0.75301409971E-02 -0.21815171023E-01  0.22301409729E-02  0.23185733522E-01  0.00000000000E+00 0. -1.
     999901    1    3    3    0    0 -0.39322555010E-01 -0.68775967226E-01 -0.85199095560E-01  0.88765718771E+00  0.88000000000E+00 0. -1.
        -11    1    4    4    0    0  0.43923257482E-01  0.68540478360E-01  0.60178363683E-01  0.10123609188E+00  0.51100000000E-03 0. -1.
         11    1    4    4    0    0  0.29294385258E-02  0.22050659889E-01  0.22790590904E-01  0.31850986898E-01  0.51100000000E-03 0.  1.
</event>
<event>
 8    1  0.1083484E+005  0.1043930E+01  0.7957747E-01            NaN
         13   -1    0    0    0    0  0.00000000000E+00  0.00000000000E+00  0.74505805969E-08  0.10566000000E+00  0.10566000000E+00 0. -1.
     999900   -1    0    0    0    0 -0.00000000000E+00 -0.00000000000E+00 -0.74505805969E-08  0.93827000000E+00  0.93827000000E+00 0. -1.
     999902    2    1    2    0    0 -0.20811106545E-02 -0.23149194833E-01 -0.45196909219E-02  0.10202520810E+01  0.10199772865E+01 0.  0.
     999903    2    3    3    0    0 -0.56485496037E-01 -0.11848384162E+00 -0.12786114225E-01  0.13339421989E+00  0.20037494714E-01 0.  0.
         14    1    1    2    0    0  0.20811106545E-02  0.23149194833E-01  0.45196909219E-02  0.23677919018E-01  0.00000000000E+00 0.  1.
     999901    1    3    3    0    0  0.54404385382E-01  0.95334646791E-01  0.82664233034E-02  0.88685786109E+00  0.88000000000E+00 0.  1.
        -11    1    4    4    0    0 -0.47859000756E-01 -0.86558248352E-01 -0.32106607081E-02  0.98961526738E-01  0.51100000000E-03 0.  1.
         11    1    4    4    0    0 -0.86264952810E-02 -0.31925593273E-01 -0.95754535172E-02  0.34432693152E-01  0.51100000000E-03 0. -1.
</event>
<event>
 8    1  0.1083484E+005  0.1043930E+01  0.7957747E-01            NaN
         13   -1    0    0    0    0  0.00000000000E+00  0.00000000000E+00  0.74505805969E-08  0.10566000000E+00  0.10566000000E+00 0. -1.
     999900   -1    0    0    0    0 -0.00000000000E+00 -0.00000000000E+00 -0.74505805969E-08  0.93827000000E+00  0.93827000000E+00 0.  1.
     999902    2    1    2    0    0 -0.20962029694E-02 -0.11895466457E-01  0.19583008946E-01  0.10209215140E+01  0.10206622102E+01 0.  0.
     999903    2    3    3    0    0  0.87957557420E-01 -0.85567235605E-01  0.47301772855E-01  0.13283056189E+00  0.18660566451E-01 0.  0.
         14    1    1    2    0    0  0.20962029694E-02  0.11895466457E-01 -0.19583008946E-01  0.23008486011E-01  0.00000000000E+00 0.  1.
     999901    1    3    3    0    0 -0.90053760389E-01  0.73671769148E-01 -0.27718763909E-01  0.88809095210E+00  0.88000000000E+00 0.  1.
        -11    1    4    4    0    0  0.60423558382E-01 -0.61359728713E-01  0.24047699043E-01  0.89412391006E-01  0.51100000000E-03 0.  1.
         11    1    4    4    0    0  0.27533999038E-01 -0.24207506892E-01  0.23254073812E-01  0.43418170883E-01  0.51100000000E-03 0. -1.
</event>
<event>
 8    1  0.1083484E+005  0.1043930E+01  0.7957747E-01            NaN
         13   -1    0    0    0    0  0.00000000000E+00  0.00000000000E+00  0.74505805969E-08  0.10566000000E+00  0.10566000000E+00 0. -1.
     999900   -1    0    0    0    0 -0.00000000000E+00 -0.00000000000E+00 -0.74505805969E-08  0.93827000000E+00  0.93827000000E+00 0. -1.
     999902    2    1    2    0    0  0.12622857140E-01  0.70365203553E-02 -0.15223180481E-01  0.10229396602E+01  0.10227242806E+01 0.  0.
     999903    2    3    3    0    0  0.11819892439E-01 -0.11693032334E+00 -0.59366363943E-01  0.13315483018E+00  0.19835152052E-01 0.  0.
         14    1    1    2    0    0 -0.12622857140E-01 -0.70365203553E-02  0.15223180481E-01  0.20990339803E-01  0.00000000000E+00 0. -1.
     999901    1    3    3    0    0  0.80296470056E-03  0.12396684370E+00  0.44143183462E-01  0.88978483002E+00  0.88000000000E+00 0. -1.
        -11    1    4    4    0    0 -0.27257752168E-04 -0.46990754900E-01 -0.33230077474E-01  0.57555459854E-01  0.51100000000E-03 0. -1.
         11    1    4    4    0    0  0.11847150191E-01 -0.69939568444E-01 -0.26136286468E-01  0.75599370322E-01  0.51100000000E-03 0.  1.
</event>
<event>
 8    1  0.1083484E+005  0.1043930E+01  0.7957747E-01            NaN
         13   -1    0    0    0    0  0.00000000000E+00  0.00000000000E+00  0.74505805969E-08  0.10566000000E+00  0.10566000000E+00 0. -1.
     999900   -1    0    0    0    0 -0.00000000000E+00 -0.00000000000E+00 -0.74505805969E-08  0.93827000000E+00  0.93827000000E+00 0. -1.
     999902    2    1    2    0    0  0.10688230494E-01  0.12723937440E-01  0.17316545238E-01  0.10199300085E+01  0.10196475972E+01 0.  0.
     999903    2    3    3    0    0  0.81391186833E-01 -0.32012942073E-01 -0.93026642588E-01  0.12910122832E+00  0.19073991927E-01 0.  0.
         14    1    1    2    0    0 -0.10688230494E-01 -0.12723937440E-01 -0.17316545238E-01  0.23999991543E-01  0.00000000000E+00 0.  1.
     999901    1    3    3    0    0 -0.70702956339E-01  0.44736879512E-01  0.11034318783E+00  0.89082878014E+00  0.88000000000E+00 0.  1.
        -11    1    4    4    0    0  0.36319214060E-01 -0.67119223033E-02 -0.29976725011E-01  0.47571003504E-01  0.51100000000E-03 0.  1.
         11    1    4    4    0    0  0.45071972773E-01 -0.25301019769E-01 -0.63049917576E-01  0.81530224815E-01  0.51100000000E-03 0. -1.
</event>
<event>
 8    1  0.1083484E+005  0.1043930E+01  0.7957747E-01            NaN
         13   -1    0    0    0    0  0.00000000000E+00  0.00000000000E+00  0.74505805969E-08  0.10566000000E+00  0.10566000000E+00 0.  1.
     999900   -1    0    0    0    0 -0.00000000000E+00 -0.00000000000E+00 -0.74505805969E-08  0.93827000000E+00  0.93827000000E+00 0.  1.
     999902    2    1    2    0    0  0.11224495575E-01 -0.43425234278E-02  0.20573769035E-01  0.10200945897E+01  0.10198160840E+01 0.  0.
     999903    2    3    3    0    0 -0.26696400029E-01 -0.12574448896E+00 -0.83454272729E-02  0.13048076819E+00  0.20765606931E-01 0.  0.
         14    1    1    2    0    0 -0.11224495575E-01  0.43425234278E-02 -0.20573769035E-01  0.23835410274E-01  0.00000000000E+00 0. -1.
     999901    1    3    3    0    0  0.37920895603E-01  0.12140196553E+00  0.28919196308E-01  0.88961382154E+00  0.88000000000E+00 0.  1.
        -11    1    4    4    0    0 -0.15350959475E-01 -0.10625524121E+00 -0.10226756516E-01  0.10784561146E+00  0.51100000000E-03 0.  1.
         11    1    4    4    0    0 -0.11345440553E-01 -0.19489247755E-01  0.18813292434E-02  0.22635156729E-01  0.51100000000E-03 0. -1.
</event>
<event>
 8    1  0.1083484E+005  0.1043930E+01  0.7957747E-01            NaN
         13   -1    0    0    0    0  0.00000000000E+00  0.00000000000E+00  0.74505805969E-08  0.10566000000E+00  0.10566000000E+00 0. -1.
     999900   -1    0    0    0    0 -0.00000000000E+00 -0.00000000000E+00 -0.74505805969E-08  0.93827000000E+00  0.93827000000E+00 0. -1.
     999902    2    1    2    0    0  0.21084712088E-01  0.30846390925E-02 -0.11858009405E-01  0.10195436827E+01  0.10192519946E+01 0.  0.
     999903    2    3    3    0    0 -0.68460939476E-01 -0.46970956885E-01 -0.97251682058E-01  0.12947847967E+00  0.20337551700E-01 0.  0.
         14    1    1    2    0    0 -0.21084712088E-01 -0.30846390925E-02  0.11858009405E-01  0.24386317254E-01  0.00000000000E+00 0. -1.
     999901    1    3    3    0    0  0.89545651565E-01  0.50055595977E-01  0.85393672653E-01  0.89006520308E+00  0.88000000000E+00 0. -1.
        -11    1    4    4    0    0 -0.59222300966E-01 -0.46761139281E-01 -0.80482973485E-01  0.11032522477E+00  0.51100000000E-03 0.  1.
         11    1    4    4    0    0 -0.92386385103E-02 -0.20981760387E-03 -0.16768708572E-01  0.19153254897E-01  0.51100000000E-03 0. -1.
</event>
<event>
 8    1  0.1083484E+005  0.1043930E+01  0.7957747E-01            NaN
         13   -1    0    0    0    0  0.00000000000E+00  0.00000000000E+00  0.74505805969E-08  0.10566000000E+00  0.10566000000E+00 0.  1.
     999900   -1    0    0    0    0 -0.00000000000E+00 -0.00000000000E+00 -0.74505805969E-08  0.93827000000E+00  0.93827000000E+00 0. -1.
     999902    2    1    2    0    0  0.56430559372E-02 -0.10750728038E-01 -0.22744366491E-01  0.10181476719E+01  0.10178211795E+01 0.  0.
     999903    2    3    3    0    0  0.26062240863E-01  0.96596860018E-01  0.74133746198E-01  0.12611302210E+00  0.19962170579E-01 0.  0.
         14    1    1    2    0    0 -0.56430559372E-02  0.10750728038E-01  0.22744366491E-01  0.25782328071E-01  0.00000000000E+00 0.  1.
     999901    1    3    3    0    0 -0.20419184926E-01 -0.10734758806E+00 -0.96878112689E-01  0.89203464983E+00  0.88000000000E+00 0. -1.
        -11    1    4    4    0    0  0.19826674963E-01  0.88560831351E-01  0.71652655055E-01  0.11563080034E+00  0.51100000000E-03 0. -1.
         11    1    4    4    0    0  0.62355658996E-02  0.80360286669E-02  0.24810911431E-02  0.10482221763E-01  0.51100000000E-03 0.  1.
</event>
<event>
 8    1  0.1083484E+005  0.1043930E+01  0.7957747E-01            NaN
         13   -1    0    0    0    0  0.00000000000E+00  0.00000000000E+00  0.74505805969E-08  0.10566000000E+00  0.10566000000E+00 0. -1.
     999900   -1    0    0    0    0 -0.00000000000E+00 -0.00000000000E+00 -0.74505805969E-08  0.93827000000E+00  0.93827000000E+00 0. -1.
     999902    2    1    2    0    0 -0.10605703877E-01 -0.10924205285E-01  0.18874644214E-01  0.10196798163E+01  0.10193914147E+01 0.  0.
     999903    2    3    3    0    0 -0.10687903407E+00 -0.24991017340E-01 -0.67235680793E-01  0.13013981304E+00  0.19184767234E-01 0.  0.
         14    1    1    2    0    0  0.10605703877E-01  0.10924205285E-01 -0.18874644214E-01  0.24250183711E-01  0.00000000000E+00 0.  1.
     999901    1    3    3    0    0  0.96273330198E-01  0.14066812055E-01  0.86110325007E-01  0.88954000325E+00  0.88000000000E+00 0. -1.
        -11    1    4    4    0    0 -0.23687783658E-01 -0.10147702674E-01 -0.23984788715E-01  0.35208211753E-01  0.51100000000E-03 0.  1.
         11    1    4    4    0    0 -0.83191250416E-01 -0.14843314666E-01 -0.43250892078E-01  0.94931601286E-01  0.51100000000E-03 0. -1.
</event>
<event>
 8    1  0.1083484E+005  0.1043930E+01  0.7957747E-01            NaN
         13   -1    0    0    0    0  0.00000000000E+00  0.00000000000E+00  0.74505805969E-08  0.10566000000E+00  0.10566000000E+00 0. -1.
     999900   -1    0    0    0    0 -0.00000000000E+00 -0.00000000000E+00 -0.74505805969E-08  0.93827000000E+00  0.93827000000E+00 0. -1.
     999902    2    1    2    0    0  0.18992823786E-01  0.10985139144E-01  0.80746844972E-02  0.10205504969E+01  0.10202826645E+01 0.  0.
     999903    2    3    3    0    0 -0.40273980205E-01 -0.93358913283E-01 -0.76001542774E-01  0.12843556742E+00  0.19534080581E-01 0.  0.
         14    1    1    2    0    0 -0.18992823786E-01 -0.10985139144E-01 -0.80746844972E-02  0.23379503141E-01  0.00000000000E+00 0.  1.
     999901    1    3    3    0    0  0.59266803991E-01  0.10434405243E+00  0.84076227271E-01  0.89211492944E+00  0.88000000000E+00 0. -1.
        -11    1    4    4    0    0 -0.86091760593E-02 -0.31803051034E-01 -0.34573871067E-01  0.47761549902E-01  0.51100000000E-03 0. -1.
         11    1    4    4    0    0 -0.31664804145E-01 -0.61555862249E-01 -0.41427671706E-01  0.80674017520E-01  0.51100000000E-03 0.  1.
</event>
<event>
 8    1  0.1083484E+005  0.1043930E+01  0.7957747E-01            NaN
         13   -1    0    0    0    0  0.00000000000E+00  0.00000000000E+00  0.74505805969E-08  0.10566000000E+00  0.10566000000E+00 0.  1.
     999900   -1    0    0    0    0 -0.00000000000E+00 -0.00000000000E+00 -0.74505805969E-08  0.93827000000E+00  0.93827000000E+00 0. -1.
     999902    2    1    2    0    0  0.15577656613E-01 -0.28207040943E-02 -0.18295408773E-01  0.10197361632E+01  0.10194491163E+01 0.  0.
     999903    2    3    3    0    0  0.12146518856E+00 -0.37455194109E-01  0.26961506869E-01  0.13155830616E+00  0.20590810314E-01 0.  0.
         14    1    1    2    0    0 -0.15577656613E-01  0.28207040943E-02  0.18295408773E-01  0.24193836804E-01  0.00000000000E+00 0.  1.
     999901    1    3    3    0    0 -0.10588753194E+00  0.34634490015E-01 -0.45256915642E-01  0.88817785704E+00  0.88000000000E+00 0. -1.
        -11    1    4    4    0    0  0.41489350067E-01 -0.20380698308E-01  0.29288532647E-02  0.46320387898E-01  0.51100000000E-03 0. -1.
         11    1    4    4    0    0  0.79975838490E-01 -0.17074495801E-01  0.24032653604E-01  0.85237918260E-01  0.51100000000E-03 0.  1.
</event>
<event>
 8    1  0.1083484E+005  0.1043930E+01  0.7957747E-01            NaN
         13   -1    0    0    0    0  0.00000000000E+00  0.00000000000E+00  0.74505805969E-08  0.10566000000E+00  0.10566000000E+00 0. -1.
     999900   -1    0    0    0    0 -0.00000000000E+00 -0.00000000000E+00 -0.74505805969E-08  0.93827000000E+00  0.93827000000E+00 0.  1.
     999902    2    1    2    0    0 -0.11904823653E-01 -0.18751201945E-01  0.63515301243E-02  0.10208286075E+01  0.10205671813E+01 0.  0.
     999903    2    3    3    0    0  0.89125369173E-01  0.10577049763E-01  0.92511970284E-01  0.13038441067E+00  0.19657682701E-01 0.  0.
         14    1    1    2    0    0  0.11904823653E-01  0.18751201945E-01 -0.63515301243E-02  0.23101392501E-01  0.00000000000E+00 0.  1.
     999901    1    3    3    0    0 -0.10103019283E+00 -0.29328251708E-01 -0.86160440159E-01  0.89044419682E+00  0.88000000000E+00 0.  1.
        -11    1    4    4    0    0  0.47262783231E-01  0.76720967789E-02  0.62762238275E-01  0.78942963093E-01  0.51100000000E-03 0. -1.
         11    1    4    4    0    0  0.41862585942E-01  0.29049529842E-02  0.29749732009E-01  0.51441447581E-01  0.51100000000E-03 0.  1.
</event>
<event>
 8    1  0.1083484E+005  0.1043930E+01  0.7957747E-01            NaN
         13   -1    0    0    0    0  0.00000000000E+00  0.00000000000E+00  0.74505805969E-08  0.10566000000E+00  0.10566000000E+00 0. -1.
     999900   -1    0    0    0    0 -0.00000000000E+00 -0.00000000000E+00 -0.74505805969E-08  0.93827000000E+00  0.93827000000E+00 0.  1.
     999902    2    1    2    0    0 -0.68470620969E-02  0.22290639439E-01 -0.61990151912E-03  0.10206032097E+01  0.10203365977E+01 0.  0.
     999903    2    3    3    0    0 -0.96418187599E-01 -0.61875516303E-01  0.57591358125E-01  0.13015642354E+00  0.22335703286E-01 0.  0.
         14    1    1    2    0    0  0.68470620969E-02 -0.22290639439E-01  0.61990151912E-03  0.23326790261E-01  0.00000000000E+00 0.  1.
     999901    1    3    3    0    0  0.89571125502E-01  0.84166155743E-01 -0.58211259644E-01  0.89044678620E+00  0.88000000000E+00 0. -1.
        -11    1    4    4    0    0 -0.55878593521E-01 -0.43041608636E-01  0.45169418383E-01  0.83758789186E-01  0.51100000000E-03 0. -1.
         11    1    4    4    0    0 -0.40539594078E-01 -0.18833907667E-01  0.12421939742E-01  0.46397634358E-01  0.51100000000E-03 0.  1.
</event>
<event>
 8    1  0.1083484E+005  0.1043930E+01  0.7957747E-01            NaN
         13   -1    0    0    0    0  0.00000000000E+00  0.00000000000E+00  0.74505805969E-08  0.10566000000E+00  0.10566000000E+00 0.  1.
     999900   -1    0    0    0    0 -0.00000000000E+00 -0.00000000000E+00 -0.74505805969E-08  0.93827000000E+00  0.93827000000E+00 0. -1.
     999902    2    1    2    0    0 -0.16107998823E-01 -0.17642814356E-01 -0.28560787191E-02  0.10198697899E+01  0.10195859427E+01 0.  0.
     999903    2    3    3    0    0  0.10062533190E+00 -0.55215864402E-01  0.56129603298E-01  0.12941051779E+00  0.20549954932E-01 0.  0.
         14    1    1    2    0    0  0.16107998823E-01  0.17642814356E-01  0.28560787191E-02  0.24060210102E-01  0.00000000000E+00 0. -1.
     999901    1    3    3    0    0 -0.11673333072E+00  0.37573050046E-01 -0.58985682017E-01  0.89045927210E+00  0.88000000000E+00 0.  1.
        -11    1    4    4    0    0  0.64330604084E-01 -0.29837620705E-01  0.44124492926E-01  0.83522106224E-01  0.51100000000E-03 0. -1.
         11    1    4    4    0    0  0.36294727816E-01 -0.25378243697E-01  0.12005110373E-01  0.45888411570E-01  0.51100000000E-03 0.  1.
</event>
<event>
 8    1  0.1083484E+005  0.1043930E+01  0.7957747E-01            NaN
         13   -1    0    0    0    0  0.00000000000E+00  0.00000000000E+00  0.74505805969E-08  0.10566000000E+00  0.10566000000E+00 0. -1.
     999900   -1    0    0    0    0 -0.00000000000E+00 -0.00000000000E+00 -0.74505805969E-08  0.93827000000E+00  0.93827000000E+00 0.  1.
     999902    2    1    2    0    0 -0.23306834890E-01 -0.60705121661E-02  0.12767551906E-02  0.10198117543E+01  0.10195265198E+01 0.  0.
     999903    2    3    3    0    0 -0.45855583546E-01 -0.95079007675E-01  0.76576759709E-01  0.13183593877E+00  0.19338106942E-01 0.  0.
         14    1    1    2    0    0  0.23306834890E-01  0.60705121661E-02 -0.12767551906E-02  0.24118245674E-01  0.00000000000E+00 0.  1.
     999901    1    3    3    0    0  0.22548748656E-01  0.89008495509E-01 -0.75300004518E-01  0.88797581556E+00  0.88000000000E+00 0.  1.
        -11    1    4    4    0    0 -0.11924323590E-01 -0.15096014008E-01  0.22014778615E-01  0.29240224528E-01  0.51100000000E-03 0.  1.
         11    1    4    4    0    0 -0.33931259956E-01 -0.79982993667E-01  0.54561981094E-01  0.10259571424E+00  0.51100000000E-03 0. -1.
</event>
<event>
 8    1  0.1083484E+005  0.1043930E+01  0.7957747E-01            NaN
         13   -1    0    0    0    0  0.00000000000E+00  0.00000000000E+00  0.74505805969E-08  0.10566000000E+00  0.10566000000E+00 0. -1.
     999900   -1    0    0    0    0 -0.00000000000E+00 -0.00000000000E+00 -0.74505805969E-08  0.93827000000E+00  0.93827000000E+00 0. -1.
     999902    2    1    2    0    0  0.10288006471E-01 -0.41126593854E-02  0.21659639364E-01  0.10196010662E+01  0.10193107657E+01 0.  0.
     999903    2    3    3    0    0  0.54572688843E-01 -0.27372009312E-01  0.11656149233E+00  0.13308626530E+00  0.19949116683E-01 0.  0.
         14    1    1    2    0    0 -0.10288006471E-01  0.41126593854E-02 -0.21659639364E-01  0.24328933839E-01  0.00000000000E+00 0.  1.
     999901    1    3    3    0    0 -0.44284682372E-01  0.23259349926E-01 -0.94901852962E-01  0.88651480086E+00  0.88000000000E+00 0. -1.
        -11    1    4    4    0    0  0.15233763894E-01 -0.13527773257E-01  0.23497785641E-01  0.31104264382E-01  0.51100000000E-03 0. -1.
         11    1    4    4    0    0  0.39338924949E-01 -0.13844236055E-01  0.93063706685E-01  0.10198200092E+00  0.51100000000E-03 0.  1.
</event>
<event>
 8    1  0.1083484E+005  0.1043930E+01  0.7957747E-01            NaN
         13   -1    0    0    0    0  0.00000000000E+00  0.00000000000E+00  0.74505805969E-08  0.10566000000E+00  0.10566000000E+00 0. -1.
     999900   -1    0    0    0    0 -0.00000000000E+00 -0.00000000000E+00 -0.74505805969E-08  0.93827000000E+00  0.93827000000E+00 0. -1.
     999902    2    1    2    0    0  0.17654839895E-01  0.51252604778E-03  0.10183554802E-01  0.10235422379E+01  0.10233391676E+01 0.  0.
     999903    2    3    3    0    0 -0.19781117990E-01 -0.12993974992E+00 -0.56635041751E-02  0.13299724942E+00  0.19507994169E-01 0.  0.
         14    1    1    2    0    0 -0.17654839895E-01 -0.51252604778E-03 -0.10183554802E-01  0.20387762091E-01  0.00000000000E+00 0.  1.
     999901    1    3    3    0    0  0.37435957885E-01  0.13045227596E+00  0.15847058977E-01  0.89054498849E+00  0.88000000000E+00 0.  1.
        -11    1    4    4    0    0 -0.19299610970E-02 -0.27111998337E-01 -0.88262940148E-02  0.28582333541E-01  0.51100000000E-03 0. -1.
         11    1    4    4    0    0 -0.17851156893E-01 -0.10282775158E+00  0.31627898396E-02  0.10441491588E+00  0.51100000000E-03 0.  1.
</event>
<event>
 7    1  0.1083484E+005  0.1043930E+01  0.7957747E-01            NaN
         13   -1    0    0    0    0  0.00000000000E+00  0.00000000000E+00  0.74505805969E-08  0.10566000000E+00  0.10566000000E+00 0.  1.
     999900   -1    0    0    0    0 -0.00000000000E+00 -0.00000000000E+00 -0.74505805969E-08  0.93827000000E+00  0.93827000000E+00 0.  1.
     999903    2    1    2    0    0  0.60274753219E-01  0.80421885198E-01 -0.34525465011E-01  0.10794422268E+00  0.18953152304E-01 0.  0.
         14    1    1    2    0    0 -0.10445508161E-01  0.43979589719E-01  0.18678369003E-02  0.45241593333E-01  0.00000000000E+00 0.  1.
     999901    1    1    2    0    0 -0.49829245057E-01 -0.12440147492E+00  0.32657628111E-01  0.89074418398E+00  0.88000000000E+00 0. -1.
        -11    1    3    3    0    0  0.35568703636E-01  0.33762719054E-01 -0.11685570326E-01  0.50416937146E-01  0.51100000000E-03 0.  1.
         11    1    3    3    0    0  0.24706049583E-01  0.46659166144E-01 -0.22839894685E-01  0.57527285539E-01  0.51100000000E-03 0. -1.
</event>
<event>
 8    1  0.1083484E+005  0.1043930E+01  0.7957747E-01            NaN
         13   -1    0    0    0    0  0.00000000000E+00  0.00000000000E+00  0.74505805969E-08  0.10566000000E+00  0.10566000000E+00 0. -1.
     999900   -1    0    0    0    0 -0.00000000000E+00 -0.00000000000E+00 -0.74505805969E-08  0.93827000000E+00  0.93827000000E+00 0.  1.
     999902    2    1    2    0    0 -0.22047913675E-01  0.11654720911E-01 -0.91102673067E-02  0.10173792940E+01  0.10170327861E+01 0.  0.
     999903    2    3    3    0    0  0.56103335090E-01  0.57772541030E-01 -0.97825708430E-01  0.12827586894E+00  0.19989462668E-01 0.  0.
         14    1    1    2    0    0  0.22047913675E-01 -0.11654720911E-01  0.91102673067E-02  0.26550705966E-01  0.00000000000E+00 0.  1.
     999901    1    3    3    0    0 -0.78151248764E-01 -0.46117820119E-01  0.88715441123E-01  0.88910342509E+00  0.88000000000E+00 0. -1.
        -11    1    4    4    0    0  0.15796012052E-01  0.14378039252E-01 -0.13661554586E-01  0.25360228788E-01  0.51100000000E-03 0.  1.
         11    1    4    4    0    0  0.40307323038E-01  0.43394501778E-01 -0.84164153844E-01  0.10291564015E+00  0.51100000000E-03 0. -1.
</event>
<event>
 8    1  0.1083484E+005  0.1043930E+01  0.7957747E-01            NaN
         13   -1    0    0    0    0  0.00000000000E+00  0.00000000000E+00  0.74505805969E-08  0.10566000000E+00  0.10566000000E+00 0.  1.
     999900   -1    0    0    0    0 -0.00000000000E+00 -0.00000000000E+00 -0.74505805969E-08  0.93827000000E+00  0.93827000000E+00 0.  1.
     999902    2    1    2    0    0 -0.81953145602E-02 -0.11193330611E-02 -0.22381400063E-01  0.10200690873E+01  0.10197899782E+01 0.  0.
     999903    2    3    3    0    0  0.40330276776E-01  0.29323034143E-02 -0.12472883441E+00  0.13280016181E+00  0.21058756255E-01 0.  0.
         14    1    1    2    0    0  0.81953145602E-02  0.11193330611E-02  0.22381400063E-01  0.23860912724E-01  0.00000000000E+00 0.  1.
     999901    1    3    3    0    0 -0.48525591336E-01 -0.40516364754E-02  0.10234743435E+00  0.88726892546E+00  0.88000000000E+00 0. -1.
        -11    1    4    4    0    0  0.23899804502E-01 -0.67337248257E-02 -0.87708499019E-01  0.91156928570E-01  0.51100000000E-03 0. -1.
         11    1    4    4    0    0  0.16430472274E-01  0.96660282400E-02 -0.37020335396E-01  0.41643233243E-01  0.51100000000E-03 0.  1.
</event>
<event>
 8    1  0.1083484E+005  0.1043930E+01  0.7957747E-01            NaN
         13   -1    0    0    0    0  0.00000000000E+00  0.00000000000E+00  0.74505805969E-08  0.10566000000E+00  0.10566000000E+00 0. -1.
     999900   -1    0    0    0    0 -0.00000000000E+00 -0.00000000000E+00 -0.74505805969E-08  0.93827000000E+00  0.93827000000E+00 0.  1.
     999902    2    1    2    0    0  0.12921191714E-01  0.13611507118E-01  0.14083593698E-01  0.10204656029E+01  0.10201957992E+01 0.  0.
     999903    2    3    3    0    0  0.57043764958E-02 -0.20799206860E-01 -0.12543828201E+00  0.12878038181E+00  0.19608090857E-01 0.  0.
         14    1    1    2    0    0 -0.12921191714E-01 -0.13611507118E-01 -0.14083593698E-01  0.23464397132E-01  0.00000000000E+00 0.  1.
     999901    1    3    3    0    0  0.72168152185E-02  0.34410713978E-01  0.13952187571E+00  0.89168522106E+00  0.88000000000E+00 0. -1.
        -11    1    4    4    0    0  0.22285990350E-02 -0.42451838803E-02 -0.82305985303E-01  0.82447101693E-01  0.51100000000E-03 0.  1.
         11    1    4    4    0    0  0.34757774607E-02 -0.16554022979E-01 -0.43132296708E-01  0.46333280113E-01  0.51100000000E-03 0. -1.
</event>
<event>
 8    1  0.1083484E+005  0.1043930E+01  0.7957747E-01            NaN
         13   -1    0    0    0    0  0.00000000000E+00  0.00000000000E+00  0.74505805969E-08  0.10566000000E+00  0.10566000000E+00 0. -1.
     999900   -1    0    0    0    0 -0.00000000000E+00 -0.00000000000E+00 -0.74505805969E-08  0.93827000000E+00  0.93827000000E+00 0. -1.
     999902    2    1    2    0    0 -0.25400894418E-02 -0.19318975878E-01  0.14044270576E-01  0.10199109155E+01  0.10196280494E+01 0.  0.
     999903    2    3    3    0    0 -0.74148323928E-01  0.71233141371E-01 -0.74047492622E-01  0.12800980893E+00  0.18202902204E-01 0.  0.
         14    1    1    2    0    0  0.25400894418E-02  0.19318975878E-01 -0.14044270576E-01  0.24019084482E-01  0.00000000000E+00 0. -1.
     999901    1    3    3    0    0  0.71608234486E-01 -0.90552117248E-01  0.88091763198E-01  0.89190110659E+00  0.88000000000E+00 0.  1.
        -11    1    4    4    0    0 -0.44081826076E-01  0.29892970143E-01 -0.39454082314E-01  0.66284860914E-01  0.51100000000E-03 0. -1.
         11    1    4    4    0    0 -0.30066497853E-01  0.41340171228E-01 -0.34593410308E-01  0.61724948019E-01  0.51100000000E-03 0.  1.
</event>
<event>
 8    1  0.1083484E+005  0.1043930E+01  0.7957747E-01            NaN
         13   -1    0    0    0    0  0.00000000000E+00  0.00000000000E+00  0.74505805969E-08  0.10566000000E+00  0.10566000000E+00 0. -1.
     999900   -1    0    0    0    0 -0.00000000000E+00 -0.00000000000E+00 -0.74505805969E-08  0.93827000000E+00  0.93827000000E+00 0.  1.
     999902    2    1    2    0    0 -0.46157666544E-02  0.37666456483E-02 -0.22829033810E-01  0.10203364054E+01  0.10200635875E+01 0.  0.
     999903    2    3    3    0    0 -0.95337655535E-01  0.41994135001E-01 -0.80278701710E-01  0.13298514102E+00  0.19687606409E-01 0.  0.
         14    1    1    2    0    0  0.46157666544E-02 -0.37666456483E-02  0.22829033810E-01  0.23593594596E-01  0.00000000000E+00 0. -1.
     999901    1    3    3    0    0  0.90721888881E-01 -0.38227489353E-01  0.57449667900E-01  0.88735126439E+00  0.88000000000E+00 0. -1.
        -11    1    4    4    0    0 -0.47811976583E-01  0.31605371857E-01 -0.41305795654E-01  0.70649235739E-01  0.51100000000E-03 0. -1.
         11    1    4    4    0    0 -0.47525678953E-01  0.10388763145E-01 -0.38972906056E-01  0.62335905280E-01  0.51100000000E-03 0.  1.
</event>
<event>
 8    1  0.1083484E+005  0.1043930E+01  0.7957747E-01            NaN
         13   -1    0    0    0    0  0.00000000000E+00  0.00000000000E+00  0.74505805969E-08  0.10566000000E+00  0.10566000000E+00 0. -1.
     999900   -1    0    0    0    0 -0.00000000000E+00 -0.00000000000E+00 -0.74505805969E-08  0.93827000000E+00  0.93827000000E+00 0.  1.
     999902    2    1    2    0    0  0.17999146944E-01  0.17868196110E-01  0.82539970911E-02  0.10172584760E+01  0.10169087653E+01 0.  0.
     999903    2    3    3    0    0 -0.42278158266E-02  0.47620349336E-02 -0.12495285138E+00  0.12685975983E+00  0.20967407825E-01 0.  0.
         14    1    1    2    0    0 -0.17999146944E-01 -0.17868196110E-01 -0.82539970911E-02  0.26671523970E-01  0.00000000000E+00 0.  1.
     999901    1    3    3    0    0  0.22226962771E-01  0.13106161176E-01  0.13320684848E+00  0.89039871620E+00  0.88000000000E+00 0. -1.
        -11    1    4    4    0    0  0.63654156925E-02  0.45822455538E-02 -0.89752447178E-01  0.90095939901E-01  0.51100000000E-03 0.  1.
         11    1    4    4    0    0 -0.10593231519E-01  0.17978937979E-03 -0.35200404207E-01  0.36763819926E-01  0.51100000000E-03 0. -1.
</event>
<event>
 8    1  0.1083484E+005  0.1043930E+01  0.7957747E-01            NaN
         13   -1    0    0    0    0  0.00000000000E+00  0.00000000000E+00  0.74505805969E-08  0.10566000000E+00  0.10566000000E+00 0.  1.
     999900   -1    0    0    0    0 -0.00000000000E+00 -0.00000000000E+00 -0.74505805969E-08  0.93827000000E+00  0.93827000000E+00 0. -1.
     999902    2    1    2    0    0  0.16668507705E-01 -0.13760279342E-01 -0.56390932289E-02  0.10215920545E+01  0.10213478066E+01 0.  0.
     999903    2    3    3    0    0 -0.11197816785E-01 -0.38382286805E-01 -0.12514660443E+00  0.13273614912E+00  0.18937308246E-01 0.  0.
         14    1    1    2    0    0 -0.16668507705E-01  0.13760279342E-01  0.56390932289E-02  0.22337945499E-01  0.00000000000E+00 0.  1.
     999901    1    3    3    0    0  0.27866324489E-01  0.24622007463E-01  0.11950751120E+00  0.88885590538E+00  0.88000000000E+00 0.  1.
        -11    1    4    4    0    0 -0.23516141933E-02 -0.34462358805E-01 -0.96915603974E-01  0.10288867614E+00  0.51100000000E-03 0. -1.
         11    1    4    4    0    0 -0.88462025912E-02 -0.39199279995E-02 -0.28231000452E-01  0.29847472980E-01  0.51100000000E-03 0.  1.
</event>
<event>
 8    1  0.1083484E+005  0.1043930E+01  0.7957747E-01            NaN
         13   -1    0    0    0    0  0.00000000000E+00  0.00000000000E+00  0.74505805969E-08  0.10566000000E+00  0.10566000000E+00 0. -1.
     999900   -1    0    0    0    0 -0.00000000000E+00 -0.00000000000E+00 -0.74505805969E-08  0.93827000000E+00  0.93827000000E+00 0.  1.
     999902    2    1    2    0    0 -0.54613886124E-02 -0.18043019456E-02  0.25620514750E-01  0.10176718004E+01  0.10173329840E+01 0.  0.
     999903    2    3    3    0    0  0.46466668026E-02  0.15240209123E-01  0.12875281868E+00  0.13142749983E+00  0.21024840272E-01 0.  0.
         14    1    1    2    0    0  0.54613886124E-02  0.18043019456E-02 -0.25620514750E-01  0.26258199617E-01  0.00000000000E+00 0.  1.
     999901    1    3    3    0    0 -0.10108055415E-01 -0.17044511068E-01 -0.10313230393E+00  0.88624430055E+00  0.88000000000E+00 0.  1.
        -11    1    4    4    0    0  0.92985104988E-05  0.75610718637E-02  0.11329303589E+00  0.11354621524E+00  0.51100000000E-03 0.  1.
         11    1    4    4    0    0  0.46373682921E-02  0.76791372590E-02  0.15459782792E-01  0.17881284593E-01  0.51100000000E-03 0. -1.
</event>
<event>
 8    1  0.1083484E+005  0.1043930E+01  0.7957747E-01            NaN
         13   -1    0    0    0    0  0.00000000000E+00  0.00000000000E+00  0.74505805969E-08  0.10566000000E+00  0.10566000000E+00 0. -1.
     999900   -1    0    0    0    0 -0.00000000000E+00 -0.00000000000E+00 -0.74505805969E-08  0.93827000000E+00  0.93827000000E+00 0. -1.
     999902    2    1    2    0    0  0.11656146815E-01  0.98320258276E-02 -0.18475904927E-01  0.10199739245E+01  0.10196925581E+01 0.  0.
     999903    2    3    3    0    0 -0.33558695865E-01 -0.36796940922E-01 -0.12096507947E+00  0.13164815462E+00  0.14781246038E-01 0.  0.
         14    1    1    2    0    0 -0.11656146815E-01 -0.98320258276E-02  0.18475904927E-01  0.23956075499E-01  0.00000000000E+00 0. -1.
     999901    1    3    3    0    0  0.45214842680E-01  0.46628966749E-01  0.10248917454E+00  0.88832576988E+00  0.88000000000E+00 0.  1.
        -11    1    4    4    0    0 -0.12010827495E-01 -0.16838621090E-01 -0.68055778101E-01  0.71131211091E-01  0.51100000000E-03 0.  1.
         11    1    4    4    0    0 -0.21547868370E-01 -0.19958319832E-01 -0.52909301367E-01  0.60516943527E-01  0.51100000000E-03 0. -1.
</event>
<event>
 8    1  0.1083484E+005  0.1043930E+01  0.7957747E-01            NaN
         13   -1    0    0    0    0  0.00000000000E+00  0.00000000000E+00  0.74505805969E-08  0.10566000000E+00  0.10566000000E+00 0. -1.
     999900   -1    0    0    0    0 -0.00000000000E+00 -0.00000000000E+00 -0.74505805969E-08  0.93827000000E+00  0.93827000000E+00 0.  1.
     999902    2    1    2    0    0 -0.99007371382E-02 -0.15131989581E-01  0.14705217218E-01  0.10206223807E+01  0.10203562117E+01 0.  0.
     999903    2    3    3    0    0 -0.11408571841E+00 -0.64534534293E-01 -0.58844037488E-02  0.13286168420E+00  0.20912763066E-01 0.  0.
         14    1    1    2    0    0  0.99007371382E-02  0.15131989581E-01 -0.14705217218E-01  0.23307619312E-01  0.00000000000E+00 0.  1.
     999901    1    3    3    0    0  0.10418498127E+00  0.49402544712E-01  0.20589620967E-01  0.88776069649E+00  0.88000000000E+00 0. -1.
        -11    1    4    4    0    0 -0.89989007881E-01 -0.57291658210E-01  0.13053149169E-02  0.10668795906E+00  0.51100000000E-03 0. -1.
         11    1    4    4    0    0 -0.24096710525E-01 -0.72428760831E-02 -0.71897186657E-02  0.26173725138E-01  0.51100000000E-03 0.  1.
</event>
<event>
 8    1  0.1083484E+005  0.1043930E+01  0.7957747E-01            NaN
         13   -1    0    0    0    0  0.00000000000E+00  0.00000000000E+00  0.74505805969E-08  0.10566000000E+00  0.10566000000E+00 0. -1.
     999900   -1    0    0    0    0 -0.00000000000E+00 -0.00000000000E+00 -0.74505805969E-08  0.93827000000E+00  0.93827000000E+00 0. -1.
     999902    2    1    2    0    0 -0.96368388035E-02  0.18363543236E-02 -0.23036206477E-01  0.10188918757E+01  0.10185841873E+01 0.  0.
     999903    2    3    3    0    0 -0.96512148853E-01  0.41373161068E-02  0.82405204316E-01  0.12834681506E+00  0.18723647567E-01 0.  0.
         14    1    1    2    0    0  0.96368388035E-02 -0.18363543236E-02  0.23036206477E-01  0.25038124295E-01  0.00000000000E+00 0. -1.
     999901    1    3    3    0    0  0.86875310049E-01 -0.23009617832E-02 -0.10544141079E+00  0.89054506064E+00  0.88000000000E+00 0. -1.
        -11    1    4    4    0    0 -0.70443413129E-01  0.82445832632E-02  0.68089600863E-01  0.98319390118E-01  0.51100000000E-03 0. -1.
         11    1    4    4    0    0 -0.26068735724E-01 -0.41072671564E-02  0.14315603453E-01  0.30027424947E-01  0.51100000000E-03 0.  1.
</event>
<event>
 8    1  0.1083484E+005  0.1043930E+01  0.7957747E-01            NaN
         13   -1    0    0    0    0  0.00000000000E+00  0.00000000000E+00  0.74505805969E-08  0.10566000000E+00  0.10566000000E+00 0.  1.
     999900   -1    0    0    0    0 -0.00000000000E+00 -0.00000000000E+00 -0.74505805969E-08  0.93827000000E+00  0.93827000000E+00 0. -1.
     999902    2    1    2    0    0  0.15333103931E-01 -0.41844969348E-03 -0.18551940698E-01  0.10198581559E+01  0.10195740309E+01 0.  0.
     999903    2    3    3    0    0  0.31953957598E-01 -0.12146710709E+00  0.27006300087E-01  0.13024892506E+00  0.21450611271E-01 0.  0.
         14    1    1    2    0    0 -0.15333103931E-01  0.41844969348E-03  0.18551940698E-01  0.24071844134E-01  0.00000000000E+00 0.  1.
     999901    1    3    3    0    0 -0.16620853666E-01  0.12104865740E+00 -0.45558240785E-01  0.88960923081E+00  0.88000000000E+00 0. -1.
        -11    1    4    4    0    0  0.16045950242E-01 -0.56382296198E-01  0.23488921245E-01  0.63153989470E-01  0.51100000000E-03 0.  1.
         11    1    4    4    0    0  0.15908007355E-01 -0.65084810892E-01  0.35173788417E-02  0.67094935589E-01  0.51100000000E-03 0. -1.
</event>
<event>
 8    1  0.1083484E+005  0.1043930E+01  0.7957747E-01            NaN
         13   -1    0    0    0    0  0.00000000000E+00  0.00000000000E+00  0.74505805969E-08  0.10566000000E+00  0.10566000000E+00 0.  1.
     999900   -1    0    0    0    0 -0.00000000000E+00 -0.00000000000E+00 -0.74505805969E-08  0.93827000000E+00  0.93827000000E+00 0. -1.
     999902    2    1    2    0    0  0.17074714934E-01 -0.96045896164E-02  0.12427725745E-01  0.10207299483E+01  0.10204662586E+01 0.  0.
     999903    2    3    3    0    0 -0.71673625441E-01 -0.24425836947E-01  0.10520713108E+00  0.13128969997E+00  0.20849815176E-01 0.  0.
         14    1    1    2    0    0 -0.17074714934E-01  0.96045896164E-02 -0.12427725745E-01  0.23200051702E-01  0.00000000000E+00 0. -1.
     999901    1    3    3    0    0  0.88748340375E-01  0.14821247331E-01 -0.92779405339E-01  0.88944024833E+00  0.88000000000E+00 0. -1.
        -11    1    4    4    0    0 -0.28197720557E-01 -0.17388915154E-01  0.33365167187E-01  0.47021073119E-01  0.51100000000E-03 0.  1.
         11    1    4    4    0    0 -0.43475904883E-01 -0.70369217935E-02  0.71841963897E-01  0.84268626851E-01  0.51100000000E-03 0. -1.
</event>
<event>
 8    1  0.1083484E+005  0.1043930E+01  0.7957747E-01            NaN
         13   -1    0    0    0    0  0.00000000000E+00  0.00000000000E+00  0.74505805969E-08  0.10566000000E+00  0.10566000000E+00 0. -1.
     999900   -1    0    0    0    0 -0.00000000000E+00 -0.00000000000E+00 -0.74505805969E-08  0.93827000000E+00  0.93827000000E+00 0. -1.
     999902    2    1    2    0    0  0.58138812216E-03 -0.30965022556E-02 -0.24380872155E-01  0.10193464025E+01  0.10190499178E+01 0.  0.
     999903    2    3    3    0    0 -0.13144693694E-01  0.56831880326E-01  0.11096949294E+00  0.12687817468E+00  0.19524273426E-01 0.  0.
         14    1    1    2    0    0 -0.58138812216E-03  0.30965022556E-02  0.24380872155E-01  0.24583597487E-01  0.00000000000E+00 0. -1.
     999901    1    3    3    0    0  0.13726081816E-01 -0.59928382581E-01 -0.13535036510E+00  0.89246822783E+00  0.88000000000E+00 0. -1.
        -11    1    4    4    0    0 -0.14228229159E-01  0.21650214075E-01  0.54289054885E-01  0.60155937993E-01  0.51100000000E-03 0.  1.
         11    1    4    4    0    0  0.10835354646E-02  0.35181666251E-01  0.56680438056E-01  0.66722236687E-01  0.51100000000E-03 0. -1.
</event>
<event>
 8    1  0.1083484E+005  0.1043930E+01  0.7957747E-01            NaN
         13   -1    0    0    0    0  0.00000000000E+00  0.00000000000E+00  0.74505805969E-08  0.10566000000E+00  0.10566000000E+00 0. -1.
     999900   -1    0    0    0    0 -0.00000000000E+00 -0.00000000000E+00 -0.74505805969E-08  0.93827000000E+00  0.93827000000E+00 0. -1.
     999902    2    1    2    0    0  0.90185025702E-02  0.36971750879E-02  0.21225622322E-01  0.10205734263E+01  0.10203061251E+01 0.  0.
     999903    2    3    3    0    0  0.82505459857E-01  0.93749406665E-01 -0.34643285342E-01  0.13117415030E+00  0.20258290415E-01 0.  0.
         14    1    1    2    0    0 -0.90185025702E-02 -0.36971750879E-02 -0.21225622322E-01  0.23356573704E-01  0.00000000000E+00 0.  1.
     999901    1    3    3    0    0 -0.73486957287E-01 -0.90052231577E-01  0.55868907664E-01  0.88939927600E+00  0.88000000000E+00 0.  1.
        -11    1    4    4    0    0  0.52603592357E-01  0.44531760330E-01 -0.18526407466E-01  0.71370193369E-01  0.51100000000E-03 0. -1.
         11    1    4    4    0    0  0.29901867500E-01  0.49217646335E-01 -0.16116877876E-01  0.59803956928E-01  0.51100000000E-03 0.  1.
</event>
<event>
 8    1  0.1083484E+005  0.1043930E+01  0.7957747E-01            NaN
         13   -1    0    0    0    0  0.00000000000E+00  0.00000000000E+00  0.74505805969E-08  0.10566000000E+00  0.10566000000E+00 0. -1.
     999900   -1    0    0    0    0 -0.00000000000E+00 -0.00000000000E+00 -0.74505805969E-08  0.93827000000E+00  0.93827000000E+00 0. -1.
     999902    2    1    2    0    0 -0.40885761095E-02 -0.11441685214E-01  0.22145415577E-01  0.10186703871E+01  0.10183571620E+01 0.  0.
     999903    2    3    3    0    0 -0.64157153187E-01 -0.85213509848E-01 -0.69399004771E-01  0.12882158138E+00  0.20032358828E-01 0.  0.
         14    1    1    2    0    0  0.40885761095E-02  0.11441685214E-01 -0.22145415577E-01  0.25259612947E-01  0.00000000000E+00 0.  1.
     999901    1    3    3    0    0  0.60068577077E-01  0.73771824634E-01  0.91544420348E-01  0.88984880567E+00  0.88000000000E+00 0.  1.
        -11    1    4    4    0    0 -0.36164382213E-01 -0.49779446280E-01 -0.28174405496E-01  0.67675062311E-01  0.51100000000E-03 0. -1.
         11    1    4    4    0    0 -0.27992770974E-01 -0.35434063568E-01 -0.41224599276E-01  0.61146519068E-01  0.51100000000E-03 0.  1.
</event>
<event>
 8    1  0.1083484E+005  0.1043930E+01  0.7957747E-01            NaN
         13   -1    0    0    0    0  0.00000000000E+00  0.00000000000E+00  0.74505805969E-08  0.10566000000E+00  0.10566000000E+00 0.  1.
     999900   -1    0    0    0    0 -0.00000000000E+00 -0.00000000000E+00 -0.74505805969E-08  0.93827000000E+00  0.93827000000E+00 0.  1.
     999902    2    1    2    0    0  0.84114475479E-02 -0.12203197681E-01  0.17296234903E-01  0.10211521549E+01  0.10208980818E+01 0.  0.
     999903    2    3    3    0    0 -0.47285737993E-01  0.39792509631E-01 -0.11135905769E+00  0.12853918486E+00  0.17380951469E-01 0.  0.
         14    1    1    2    0    0 -0.84114475479E-02  0.12203197681E-01 -0.17296234903E-01  0.22777845054E-01  0.00000000000E+00 0. -1.
     999901    1    3    3    0    0  0.55697185541E-01 -0.51995707312E-01  0.12865529259E+00  0.89261297009E+00  0.88000000000E+00 0. -1.
        -11    1    4    4    0    0 -0.43450004958E-01  0.41366087003E-01 -0.10314611027E+00  0.11932492309E+00  0.51100000000E-03 0. -1.
         11    1    4    4    0    0 -0.38357330352E-02 -0.15735773720E-02 -0.82129474192E-02  0.92142617704E-02  0.51100000000E-03 0.  1.
</event>
<event>
 8    1  0.1083484E+005  0.1043930E+01  0.7957747E-01            NaN
         13   -1    0    0    0    0  0.00000000000E+00  0.00000000000E+00  0.74505805969E-08  0.10566000000E+00  0.10566000000E+00 0.  1.
     999900   -1    0    0    0    0 -0.00000000000E+00 -0.00000000000E+00 -0.74505805969E-08  0.93827000000E+00  0.93827000000E+00 0.  1.
     999902    2    1    2    0    0  0.11981850187E-01 -0.16162564390E-01 -0.12049339761E-01  0.10204783517E+01  0.10202088445E+01 0.  0.
     999903    2    3    3    0    0  0.12172025950E+00 -0.34202062562E-01 -0.36708325721E-01  0.13313624876E+00  0.19802951854E-01 0.  0.
         14    1    1    2    0    0 -0.11981850187E-01  0.16162564390E-01  0.12049339761E-01  0.23451648348E-01  0.00000000000E+00 0.  1.
     999901    1    3    3    0    0 -0.10973840931E+00  0.18039498172E-01  0.24658985960E-01  0.88734210289E+00  0.88000000000E+00 0. -1.
        -11    1    4    4    0    0  0.70424768147E-01 -0.23156796752E-01 -0.11867743875E-01  0.75079888586E-01  0.51100000000E-03 0.  1.
         11    1    4    4    0    0  0.51295491348E-01 -0.11045265810E-01 -0.24840581846E-01  0.58056360176E-01  0.51100000000E-03 0. -1.
</event>
<event>
 8    1  0.1083484E+005  0.1043930E+01  0.7957747E-01            NaN
         13   -1    0    0    0    0  0.00000000000E+00  0.00000000000E+00  0.74505805969E-08  0.10566000000E+00  0.10566000000E+00 0. -1.
     999900   -1    0    0    0    0 -0.00000000000E+00 -0.00000000000E+00 -0.74505805969E-08  0.93827000000E+00  0.93827000000E+00 0.  1.
     999902    2    1    2    0    0  0.51529654334E-02 -0.16460142321E-01 -0.15468180057E-01  0.10207620495E+01  0.10204990973E+01 0.  0.
     999903    2    3    3    0    0 -0.26259248855E-01  0.97133542531E-01  0.76886652646E-01  0.12811448879E+00  0.19423996701E-01 0.  0.
         14    1    1    2    0    0 -0.51529654334E-02  0.16460142321E-01  0.15468180057E-01  0.23167950541E-01  0.00000000000E+00 0.  1.
     999901    1    3    3    0    0  0.31412214289E-01 -0.11359368485E+00 -0.92354832703E-01  0.89264756067E+00  0.88000000000E+00 0.  1.
        -11    1    4    4    0    0 -0.11824688734E-01  0.19699801252E-01  0.24052749405E-01  0.33267120524E-01  0.51100000000E-03 0. -1.
         11    1    4    4    0    0 -0.14434560122E-01  0.77433741279E-01  0.52833903241E-01  0.94847368266E-01  0.51100000000E-03 0.  1.
</event>
<event>
 8    1  0.1083484E+005  0.1043930E+01  0.7957747E-01            NaN
         13   -1    0    0    0    0  0.00000000000E+00  0.00000000000E+00  0.74505805969E-08  0.10566000000E+00  0.10566000000E+00 0. -1.
     999900   -1    0    0    0    0 -0.00000000000E+00 -0.00000000000E+00 -0.74505805969E-08  0.93827000000E+00  0.93827000000E+00 0. -1.
     999902    2    1    2    0    0  0.17997807164E-01  0.21868010097E-01  0.31230064843E-02  0.10154364201E+01  0.10150365703E+01 0.  0.
     999903    2    3    3    0    0  0.39220473954E-01 -0.75316263369E-01 -0.89651201516E-01  0.12498583846E+00  0.19321924803E-01 0.  0.
         14    1    1    2    0    0 -0.17997807164E-01 -0.21868010097E-01 -0.31230064843E-02  0.28493579940E-01  0.00000000000E+00 0.  1.
     999901    1    3    3    0    0 -0.21222666790E-01  0.97184273466E-01  0.92774208001E-01  0.89045058160E+00  0.88000000000E+00 0.  1.
        -11    1    4    4    0    0  0.28194230363E-01 -0.61800884668E-01 -0.60268181532E-01  0.90811776757E-01  0.51100000000E-03 0.  1.
         11    1    4    4    0    0  0.11026243591E-01 -0.13515378701E-01 -0.29383019984E-01  0.34174061707E-01  0.51100000000E-03 0. -1.
</event>
<event>
 8    1  0.1083484E+005  0.1043930E+01  0.7957747E-01            NaN
         13   -1    0    0    0    0  0.00000000000E+00  0.00000000000E+00  0.74505805969E-08  0.10566000000E+00  0.10566000000E+00 0. -1.
     999900   -1    0    0    0    0 -0.00000000000E+00 -0.00000000000E+00 -0.74505805969E-08  0.93827000000E+00  0.93827000000E+00 0. -1.
     999902    2    1    2    0    0  0.30667843584E-01 -0.15706456444E-01  0.10784298323E-01  0.10078258383E+01  0.10071789363E+01 0.  0.
     999903    2    3    3    0    0  0.68382943548E-01 -0.45253058210E-01 -0.86851593414E-01  0.12113073971E+00  0.20134313488E-01 0.  0.
         14    1    1    2    0    0 -0.30667843584E-01  0.15706456444E-01 -0.10784298323E-01  0.36104161733E-01  0.00000000000E+00 0.  1.
     999901    1    3    3    0    0 -0.37715099963E-01  0.29546601767E-01  0.97635891737E-01  0.88669509855E+00  0.88000000000E+00 0.  1.
        -11    1    4    4    0    0  0.34906422285E-01 -0.33458488201E-01 -0.42964205543E-01  0.64684718662E-01  0.51100000000E-03 0. -1.
         11    1    4    4    0    0  0.33476521263E-01 -0.11794570010E-01 -0.43887387871E-01  0.56446021053E-01  0.51100000000E-03 0.  1.
</event>
<event>
 8    1  0.1083484E+005  0.1043930E+01  0.7957747E-01            NaN
         13   -1    0    0    0    0  0.00000000000E+00  0.00000000000E+00  0.74505805969E-08  0.10566000000E+00  0.10566000000E+00 0. -1.
     999900   -1    0    0    0    0 -0.00000000000E+00 -0.00000000000E+00 -0.74505805969E-08  0.93827000000E+00  0.93827000000E+00 0.  1.
     999902    2    1    2    0    0 -0.28280114298E-02  0.11192845764E-01  0.22673805197E-01  0.10184863586E+01  0.10181684948E+01 0.  0.
     999903    2    3    3    0    0  0.85878974442E-01 -0.34809662480E-01  0.89861787922E-01  0.13028627691E+00  0.17676599509E-01 0.  0.
         14    1    1    2    0    0  0.28280114298E-02 -0.11192845764E-01 -0.22673805197E-01  0.25443641388E-01  0.00000000000E+00 0.  1.
     999901    1    3    3    0    0 -0.88706985872E-01  0.46002508244E-01 -0.67187982725E-01  0.88820008170E+00  0.88000000000E+00 0.  1.
        -11    1    4    4    0    0  0.55999556447E-01 -0.19973578574E-01  0.68334748669E-01  0.90580313314E-01  0.51100000000E-03 0. -1.
         11    1    4    4    0    0  0.29879417995E-01 -0.14836083906E-01  0.21527039253E-01  0.39705963600E-01  0.51100000000E-03 0.  1.
</event>
<event>
 8    1  0.1083484E+005  0.1043930E+01  0.7957747E-01            NaN
         13   -1    0    0    0    0  0.00000000000E+00  0.00000000000E+00  0.74505805969E-08  0.10566000000E+00  0.10566000000E+00 0. -1.
     999900   -1    0    0    0    0 -0.00000000000E+00 -0.00000000000E+00 -0.74505805969E-08  0.93827000000E+00  0.93827000000E+00 0.  1.
     999902    2    1    2    0    0 -0.10719534513E-01  0.15819439059E-01  0.22575334880E-02  0.10246878710E+01  0.10245071856E+01 0.  0.
     999903    2    3    3    0    0  0.92222150335E-01  0.58617899388E-01 -0.76068126872E-01  0.13420283024E+00  0.16824285352E-01 0.  0.
         14    1    1    2    0    0  0.10719534513E-01 -0.15819439059E-01 -0.22575334880E-02  0.19242129034E-01  0.00000000000E+00 0. -1.
     999901    1    3    3    0    0 -0.10294168485E+00 -0.42798460329E-01  0.78325660360E-01  0.89048504073E+00  0.88000000000E+00 0. -1.
        -11    1    4    4    0    0  0.60172129503E-01  0.42186702317E-01 -0.42108492480E-01  0.84698224782E-01  0.51100000000E-03 0. -1.
         11    1    4    4    0    0  0.32050020832E-01  0.16431197071E-01 -0.33959634392E-01  0.49504605458E-01  0.51100000000E-03 0.  1.
</event>
<event>
 8    1  0.1083484E+005  0.1043930E+01  0.7957747E-01            NaN
         13   -1    0    0    0    0  0.00000000000E+00  0.00000000000E+00  0.74505805969E-08  0.10566000000E+00  0.10566000000E+00 0. -1.
     999900   -1    0    0    0    0 -0.00000000000E+00 -0.00000000000E+00 -0.74505805969E-08  0.93827000000E+00  0.93827000000E+00 0. -1.
     999902    2    1    2    0    0 -0.81013585969E-02  0.19814629745E-02 -0.21465479213E-01  0.10209012136E+01  0.10206414468E+01 0.  0.
     999903    2    3    3    0    0  0.15395981326E-01 -0.99325383584E-01  0.78500657132E-01  0.12915661417E+00  0.20408570464E-01 0.  0.
         14    1    1    2    0    0  0.81013585969E-02 -0.19814629745E-02  0.21465479213E-01  0.23028786431E-01  0.00000000000E+00 0. -1.
     999901    1    3    3    0    0 -0.23497339923E-01  0.10130684656E+00 -0.99966136345E-01  0.89174459940E+00  0.88000000000E+00 0. -1.
        -11    1    4    4    0    0  0.11480699207E-01 -0.86765587721E-01  0.58724536497E-01  0.10539879494E+00  0.51100000000E-03 0. -1.
         11    1    4    4    0    0  0.39152821195E-02 -0.12559795864E-01  0.19776120635E-01  0.23757819230E-01  0.51100000000E-03 0.  1.
</event>
<event>
 8    1  0.1083484E+005  0.1043930E+01  0.7957747E-01            NaN
         13   -1    0    0    0    0  0.00000000000E+00  0.00000000000E+00  0.74505805969E-08  0.10566000000E+00  0.10566000000E+00 0. -1.
     999900   -1    0    0    0    0 -0.00000000000E+00 -0.00000000000E+00 -0.74505805969E-08  0.93827000000E+00  0.93827000000E+00 0.  1.
     999902    2    1    2    0    0  0.13817195095E-01  0.29238170296E-02  0.19010157699E-01  0.10202477349E+01  0.10199728383E+01 0.  0.
     999903    2    3    3    0    0  0.42088296449E-01  0.12231400099E+00  0.12295308728E-01  0.13171053227E+00  0.21548785485E-01 0.  0.
         14    1    1    2    0    0 -0.13817195095E-01 -0.29238170296E-02 -0.19010157699E-01  0.23682265138E-01  0.00000000000E+00 0.  1.
     999901    1    3    3    0    0 -0.28271101354E-01 -0.11939018396E+00  0.67148489710E-02  0.88853720260E+00  0.88000000000E+00 0.  1.
        -11    1    4    4    0    0  0.70072995024E-02  0.32240275746E-01  0.11801229306E-01  0.35043797748E-01  0.51100000000E-03 0. -1.
         11    1    4    4    0    0  0.35080996947E-01  0.90073725249E-01  0.49407942271E-03  0.96666734519E-01  0.51100000000E-03 0.  1.
</event>
<event>
 8    1  0.1083484E+005  0.1043930E+01  0.7957747E-01            NaN
         13   -1    0    0    0    0  0.00000000000E+00  0.00000000000E+00  0.74505805969E-08  0.10566000000E+00  0.10566000000E+00 0.  1.
     999900   -1    0    0    0    0 -0.00000000000E+00 -0.00000000000E+00 -0.74505805969E-08  0.93827000000E+00  0.93827000000E+00 0. -1.
     999902    2    1    2    0    0 -0.10766139780E-01 -0.32236399127E-02 -0.21324372496E-01  0.10198254261E+01  0.10195405187E+01 0.  0.
     999903    2    3    3    0    0 -0.33537693542E-02 -0.12829006789E+00 -0.12788104772E-01  0.13091068188E+00  0.22460670470E-01 0.  0.
         14    1    1    2    0    0  0.10766139780E-01  0.32236399127E-02  0.21324372496E-01  0.24104573890E-01  0.00000000000E+00 0.  1.
     999901    1    3    3    0    0 -0.74123704259E-02  0.12506642798E+00 -0.85362677243E-02  0.88891474423E+00  0.88000000000E+00 0.  1.
        -11    1    4    4    0    0 -0.71490645364E-02 -0.59589009512E-01  0.37764873987E-02  0.60137194451E-01  0.51100000000E-03 0.  1.
         11    1    4    4    0    0  0.37952951822E-02 -0.68701058380E-01 -0.16564592171E-01  0.70773487429E-01  0.51100000000E-03 0. -1.
</event>
<event>
 8    1  0.1083484E+005  0.1043930E+01  0.7957747E-01            NaN
         13   -1    0    0    0    0  0.00000000000E+00  0.00000000000E+00  0.74505805969E-08  0.10566000000E+00  0.10566000000E+00 0. -1.
     999900   -1    0    0    0    0 -0.00000000000E+00 -0.00000000000E+00 -0.74505805969E-08  0.93827000000E+00  0.93827000000E+00 0.  1.
     999902    2    1    2    0    0 -0.32034707610E-01 -0.14608946423E-02  0.20629812466E-02  0.10117957100E+01  0.10112852941E+01 0.  0.
     999903    2    3    3    0    0  0.28706602702E-03  0.91528694569E-01 -0.77810603722E-01  0.12271104002E+00  0.25018492232E-01 0.  0.
         14    1    1    2    0    0  0.32034707610E-01  0.14608946423E-02 -0.20629812466E-02  0.32134290041E-01  0.00000000000E+00 0.  1.
     999901    1    3    3    0    0 -0.32321773637E-01 -0.92989589211E-01  0.79873584969E-01  0.88908466994E+00  0.88000000000E+00 0. -1.
        -11    1    4    4    0    0  0.77652718851E-02  0.47018244477E-01 -0.27108702706E-01  0.54828438283E-01  0.51100000000E-03 0. -1.
         11    1    4    4    0    0 -0.74782058581E-02  0.44510450092E-01 -0.50701901017E-01  0.67882601732E-01  0.51100000000E-03 0.  1.
</event>
<event>
 8    1  0.1083484E+005  0.1043930E+01  0.7957747E-01            NaN
         13   -1    0    0    0    0  0.00000000000E+00  0.00000000000E+00  0.74505805969E-08  0.10566000000E+00  0.10566000000E+00 0.  1.
     999900   -1    0    0    0    0 -0.00000000000E+00 -0.00000000000E+00 -0.74505805969E-08  0.93827000000E+00  0.93827000000E+00 0.  1.
     999902    2    1    2    0    0 -0.12684316594E-02 -0.15051149887E-01  0.17992395096E-01  0.10204380373E+01  0.10201675919E+01 0.  0.
     999903    2    3    3    0    0 -0.35626217429E-01  0.21755202851E-02  0.12653352272E+00  0.13293683051E+00  0.19685229912E-01 0.  0.
         14    1    1    2    0    0  0.12684316594E-02  0.15051149887E-01 -0.17992395096E-01  0.23491962734E-01  0.00000000000E+00 0. -1.
     999901    1    3    3    0    0  0.34357785770E-01 -0.17226670172E-01 -0.10854112763E+00  0.88750120676E+00  0.88000000000E+00 0.  1.
        -11    1    4    4    0    0 -0.63558063093E-02  0.37380553955E-02  0.56979516874E-01  0.57456903817E-01  0.51100000000E-03 0.  1.
         11    1    4    4    0    0 -0.29270411120E-01 -0.15625351104E-02  0.69554005848E-01  0.75479926693E-01  0.51100000000E-03 0. -1.
</event>
<event>
 8    1  0.1083484E+005  0.1043930E+01  0.7957747E-01            NaN
         13   -1    0    0    0    0  0.00000000000E+00  0.00000000000E+00  0.74505805969E-08  0.10566000000E+00  0.10566000000E+00 0.  1.
     999900   -1    0    0    0    0 -0.00000000000E+00 -0.00000000000E+00 -0.74505805969E-08  0.93827000000E+00  0.93827000000E+00 0.  1.
     999902    2    1    2    0    0 -0.91895087096E-02 -0.36060294046E-02  0.21441672111E-01  0.10203250043E+01  0.10200519196E+01 0.  0.
     999903    2    3    3    0    0 -0.59646545410E-01  0.11418129044E+00 -0.63532797841E-02  0.13061026092E+00  0.20581511761E-01 0.  0.
         14    1    1    2    0    0  0.91895087096E-02  0.36060294046E-02 -0.21441672111E-01  0.23604995685E-01  0.00000000000E+00 0. -1.
     999901    1    3    3    0    0  0.50457036701E-01 -0.11778731985E+00  0.27794951895E-01  0.88971474340E+00  0.88000000000E+00 0. -1.
        -11    1    4    4    0    0 -0.14070081328E-01  0.12507411225E-01 -0.34736953481E-02  0.19150201161E-01  0.51100000000E-03 0. -1.
         11    1    4    4    0    0 -0.45576464082E-01  0.10167387922E+00 -0.28795844360E-02  0.11146005976E+00  0.51100000000E-03 0.  1.
</event>
<event>
 8    1  0.1083484E+005  0.1043930E+01  0.7957747E-01            NaN
         13   -1    0    0    0    0  0.00000000000E+00  0.00000000000E+00  0.74505805969E-08  0.10566000000E+00  0.10566000000E+00 0.  1.
     999900   -1    0    0    0    0 -0.00000000000E+00 -0.00000000000E+00 -0.74505805969E-08  0.93827000000E+00  0.93827000000E+00 0.  1.
     999902    2    1    2    0    0  0.19608207693E-01  0.12290709767E-01 -0.56537678769E-02  0.10201075642E+01  0.10198293652E+01 0.  0.
     999903    2    3    3    0    0 -0.58112021769E-01 -0.76849910500E-01 -0.83179136411E-01  0.12881823576E+00  0.19810434438E-01 0.  0.
         14    1    1    2    0    0 -0.19608207693E-01 -0.12290709767E-01  0.56537678769E-02  0.23822435785E-01  0.00000000000E+00 0. -1.
     999901    1    3    3    0    0  0.77720229461E-01  0.89140620268E-01  0.77525368534E-01  0.89128932845E+00  0.88000000000E+00 0.  1.
        -11    1    4    4    0    0 -0.45709890704E-01 -0.70793118893E-01 -0.74698910867E-01  0.11261104829E+00  0.51100000000E-03 0.  1.
         11    1    4    4    0    0 -0.12402131065E-01 -0.60567916069E-02 -0.84802255443E-02  0.16207187473E-01  0.51100000000E-03 0. -1.
</event>
<event>
 8    1  0.1083484E+005  0.1043930E+01  0.7957747E-01            NaN
         13   -1    0    0    0    0  0.00000000000E+00  0.00000000000E+00  0.74505805969E-08  0.10566000000E+00  0.10566000000E+00 0. -1.
     999900   -1    0    0    0    0 -0.00000000000E+00 -0.00000000000E+00 -0.74505805969E-08  0.93827000000E+00  0.93827000000E+00 0.  1.
     999902    2    1    2    0    0 -0.10559858604E-03 -0.23262262679E-01 -0.34665594368E-02  0.10204106239E+01  0.10201395397E+01 0.  0.
     999903    2    3    3    0    0 -0.38580982949E-01 -0.12591529225E+00 -0.10894371372E-01  0.13357739719E+00  0.19521286911E-01 0.  0.
         14    1    1    2    0    0  0.10559858604E-03  0.23262262679E-01  0.34665594368E-02  0.23519376062E-01  0.00000000000E+00 0.  1.
     999901    1    3    3    0    0  0.38475384362E-01  0.10265302958E+00  0.74278119355E-02  0.88683322675E+00  0.88000000000E+00 0. -1.
        -11    1    4    4    0    0 -0.24511085405E-01 -0.47550811805E-01 -0.34191302364E-02  0.53608064539E-01  0.51100000000E-03 0. -1.
         11    1    4    4    0    0 -0.14069897543E-01 -0.78364480449E-01 -0.74752411359E-02  0.79969332647E-01  0.51100000000E-03 0.  1.
</event>
<event>
 8    1  0.1083484E+005  0.1043930E+01  0.7957747E-01            NaN
         13   -1    0    0    0    0  0.00000000000E+00  0.00000000000E+00  0.74505805969E-08  0.10566000000E+00  0.10566000000E+00 0. -1.
     999900   -1    0    0    0    0 -0.00000000000E+00 -0.00000000000E+00 -0.74505805969E-08  0.93827000000E+00  0.93827000000E+00 0. -1.
     999902    2    1    2    0    0  0.10553071131E-03 -0.23021304122E-01  0.33346832637E-03  0.10209060390E+01  0.10206463823E+01 0.  0.
     999903    2    3    3    0    0  0.76255506249E-01 -0.13584013815E-01  0.10431034407E+00  0.13146853588E+00  0.20097273013E-01 0.  0.
         14    1    1    2    0    0 -0.10553071131E-03  0.23021304122E-01 -0.33346832637E-03  0.23023961026E-01  0.00000000000E+00 0. -1.
     999901    1    3    3    0    0 -0.76149975537E-01 -0.94372903064E-02 -0.10397687574E+00  0.88943750309E+00  0.88000000000E+00 0.  1.
        -11    1    4    4    0    0  0.11278949492E-01 -0.65327945839E-02  0.87988684676E-02  0.15734462623E-01  0.51100000000E-03 0.  1.
         11    1    4    4    0    0  0.64976556756E-01 -0.70512192313E-02  0.95511475599E-01  0.11573407326E+00  0.51100000000E-03 0. -1.
</event>
<event>
 8    1  0.1083484E+005  0.1043930E+01  0.7957747E-01            NaN
         13   -1    0    0    0    0  0.00000000000E+00  0.00000000000E+00  0.74505805969E-08  0.10566000000E+00  0.10566000000E+00 0.  1.
     999900   -1    0    0    0    0 -0.00000000000E+00 -0.00000000000E+00 -0.74505805969E-08  0.93827000000E+00  0.93827000000E+00 0.  1.
     999902    2    1    2    0    0 -0.66387990217E-04 -0.46582739246E-02  0.23111328634E-01  0.10203537952E+01  0.10200813839E+01 0.  0.
     999903    2    3    3    0    0  0.90417254525E-01 -0.66732352112E-01  0.66819922826E-01  0.13246251694E+00  0.21282142091E-01 0.  0.
         14    1    1    2    0    0  0.66387990217E-04  0.46582739246E-02 -0.23111328634E-01  0.23576204837E-01  0.00000000000E+00 0. -1.
     999901    1    3    3    0    0 -0.90483642516E-01  0.62074078188E-01 -0.43708594193E-01  0.88789127823E+00  0.88000000000E+00 0.  1.
        -11    1    4    4    0    0  0.21082075021E-01 -0.27573850646E-01  0.18898924175E-01  0.39524695857E-01  0.51100000000E-03 0. -1.
         11    1    4    4    0    0  0.69335179504E-01 -0.39158501466E-01  0.47920998652E-01  0.92937821078E-01  0.51100000000E-03 0.  1.
</event>
<event>
 8    1  0.1083484E+005  0.1043930E+01  0.7957747E-01            NaN
         13   -1    0    0    0    0  0.00000000000E+00  0.00000000000E+00  0.74505805969E-08  0.10566000000E+00  0.10566000000E+00 0.  1.
     999900   -1    0    0    0    0 -0.00000000000E+00 -0.00000000000E+00 -0.74505805969E-08  0.93827000000E+00  0.93827000000E+00 0. -1.
     999902    2    1    2    0    0 -0.13002632040E-02  0.22748886501E-01 -0.57601927350E-02  0.10204271844E+01  0.10201564862E+01 0.  0.
     999903    2    3    3    0    0 -0.36105473770E-01  0.91345549341E-01 -0.87817792640E-01  0.13326859961E+00  0.20023494149E-01 0.  0.
         14    1    1    2    0    0  0.13002632040E-02 -0.22748886501E-01  0.57601927350E-02  0.23502815614E-01  0.00000000000E+00 0.  1.
     999901    1    3    3    0    0  0.34805210566E-01 -0.68596662839E-01  0.82057599905E-01  0.88715858477E+00  0.88000000000E+00 0.  1.
        -11    1    4    4    0    0 -0.10393420257E-01  0.28271172863E-01 -0.15340167547E-01  0.33806275468E-01  0.51100000000E-03 0. -1.
         11    1    4    4    0    0 -0.25712053513E-01  0.63074376478E-01 -0.72477625093E-01  0.99462324144E-01  0.51100000000E-03 0.  1.
</event>
<event>
 8    1  0.1083484E+005  0.1043930E+01  0.7957747E-01            NaN
         13   -1    0    0    0    0  0.00000000000E+00  0.00000000000E+00  0.74505805969E-08  0.10566000000E+00  0.10566000000E+00 0.  1.
     999900   -1    0    0    0    0 -0.00000000000E+00 -0.00000000000E+00 -0.74505805969E-08  0.93827000000E+00  0.93827000000E+00 0.  1.
     999902    2    1    2    0    0 -0.25984229075E-02  0.17906228574E-01  0.23313034502E-01  0.10144192833E+01  0.10139899407E+01 0.  0.
     999903    2    3    3    0    0 -0.12881272814E-01  0.11210959638E+00 -0.52795169420E-01  0.12606548540E+00  0.19253257000E-01 0.  0.
         14    1    1    2    0    0  0.25984229075E-02 -0.17906228574E-01 -0.23313034502E-01  0.29510716715E-01  0.00000000000E+00 0. -1.
     999901    1    3    3    0    0  0.10282849906E-01 -0.94203367809E-01  0.76108203922E-01  0.88835379788E+00  0.88000000000E+00 0.  1.
        -11    1    4    4    0    0 -0.12891361837E-01  0.87154524812E-01 -0.49014330714E-01  0.10082045498E+00  0.51100000000E-03 0. -1.
         11    1    4    4    0    0  0.10089022960E-04  0.24955071571E-01 -0.37808387065E-02  0.25245030426E-01  0.51100000000E-03 0.  1.
</event>
<event>
 8    1  0.1083484E+005  0.1043930E+01  0.7957747E-01            NaN
         13   -1    0    0    0    0  0.00000000000E+00  0.00000000000E+00  0.74505805969E-08  0.10566000000E+00  0.10566000000E+00 0.  1.
     999900   -1    0    0    0    0 -0.00000000000E+00 -0.00000000000E+00 -0.74505805969E-08  0.93827000000E+00  0.93827000000E+00 0. -1.
     999902    2    1    2    0    0  0.18687527100E-01 -0.12175790214E-01  0.72402654541E-02  0.10204801603E+01  0.10202106952E+01 0.  0.
     999903    2    3    3    0    0 -0.34291391387E-01 -0.15093491594E-01  0.12453597371E+00  0.13111321584E+00  0.16665941608E-01 0.  0.
         14    1    1    2    0    0 -0.18687527100E-01  0.12175790214E-01 -0.72402654541E-02  0.23449839665E-01  0.00000000000E+00 0.  1.
     999901    1    3    3    0    0  0.52978918487E-01  0.29177013802E-02 -0.11729570825E+00  0.88936694449E+00  0.88000000000E+00 0. -1.
        -11    1    4    4    0    0 -0.19125147696E-02  0.29892510831E-02  0.70103368902E-02  0.78739620964E-02  0.51100000000E-03 0. -1.
         11    1    4    4    0    0 -0.32378876617E-01 -0.18082742677E-01  0.11752563681E+00  0.12323925374E+00  0.51100000000E-03 0.  1.
</event>
<event>
 8    1  0.1083484E+005  0.1043930E+01  0.7957747E-01            NaN
         13   -1    0    0    0    0  0.00000000000E+00  0.00000000000E+00  0.74505805969E-08  0.10566000000E+00  0.10566000000E+00 0.  1.
     999900   -1    0    0    0    0 -0.00000000000E+00 -0.00000000000E+00 -0.74505805969E-08  0.93827000000E+00  0.93827000000E+00 0. -1.
     999902    2    1    2    0    0 -0.10621523564E-01 -0.69819179213E-02 -0.20020748479E-01  0.10202151458E+01  0.10199394832E+01 0.  0.
     999903    2    3    3    0    0  0.10405624562E+00 -0.66811737121E-01  0.31987516919E-01  0.12924070301E+00  0.19709074203E-01 0.  0.
         14    1    1    2    0    0  0.10621523564E-01  0.69819179213E-02  0.20020748479E-01  0.23714854213E-01  0.00000000000E+00 0.  1.
     999901    1    3    3    0    0 -0.11467776919E+00  0.59829819199E-01 -0.52008265398E-01  0.89097444278E+00  0.88000000000E+00 0.  1.
        -11    1    4    4    0    0  0.31961648395E-01 -0.10726787047E-01  0.57453374679E-02  0.34203522510E-01  0.51100000000E-03 0.  1.
         11    1    4    4    0    0  0.72094597227E-01 -0.56084950074E-01  0.26242179451E-01  0.95037180501E-01  0.51100000000E-03 0. -1.
</event>
<event>
 8    1  0.1083484E+005  0.1043930E+01  0.7957747E-01            NaN
         13   -1    0    0    0    0  0.00000000000E+00  0.00000000000E+00  0.74505805969E-08  0.10566000000E+00  0.10566000000E+00 0. -1.
     999900   -1    0    0    0    0 -0.00000000000E+00 -0.00000000000E+00 -0.74505805969E-08  0.93827000000E+00  0.93827000000E+00 0.  1.
     999902    2    1    2    0    0 -0.98286196786E-02 -0.84170834128E-02 -0.20676044232E-01  0.10195384469E+01  0.10192466320E+01 0.  0.
     999903    2    3    3    0    0 -0.11556801118E+00  0.32458702263E-01  0.46303866113E-01  0.12974186499E+00  0.16714393605E-01 0.  0.
         14    1    1    2    0    0  0.98286196786E-02  0.84170834128E-02  0.20676044232E-01  0.24391553109E-01  0.00000000000E+00 0. -1.
     999901    1    3    3    0    0  0.10573939150E+00 -0.40875785676E-01 -0.66979910346E-01  0.88979658190E+00  0.88000000000E+00 0.  1.
        -11    1    4    4    0    0 -0.10477002354E+00  0.25643645925E-01  0.45077300872E-01  0.11690414271E+00  0.51100000000E-03 0. -1.
         11    1    4    4    0    0 -0.10797987642E-01  0.68150563377E-02  0.12265652417E-02  0.12837722278E-01  0.51100000000E-03 0.  1.
</event>
<event>
 8    1  0.1083484E+005  0.1043930E+01  0.7957747E-01            NaN
         13   -1    0    0    0    0  0.00000000000E+00  0.00000000000E+00  0.74505805969E-08  0.10566000000E+00  0.10566000000E+00 0.  1.
     999900   -1    0    0    0    0 -0.00000000000E+00 -0.00000000000E+00 -0.74505805969E-08  0.93827000000E+00  0.93827000000E+00 0. -1.
     999902    2    1    2    0    0 -0.15490330414E-01  0.11538327610E-01  0.12056381343E-01  0.10211607297E+01  0.10209068499E+01 0.  0.
     999903    2    3    3    0    0 -0.12078344820E+00  0.47832170129E-01  0.26368725488E-01  0.13402560645E+00  0.19773609710E-01 0.  0.
         14    1    1    2    0    0  0.15490330414E-01 -0.11538327610E-01 -0.12056381343E-01  0.22769270332E-01  0.00000000000E+00 0. -1.
     999901    1    3    3    0    0  0.10529311779E+00 -0.36293842519E-01 -0.14312344144E-01  0.88713512322E+00  0.88000000000E+00 0.  1.
        -11    1    4    4    0    0 -0.20224827396E-01  0.89507421587E-02 -0.28906621329E-02  0.22310904888E-01  0.51100000000E-03 0. -1.
         11    1    4    4    0    0 -0.10055862081E+00  0.38881427970E-01  0.29259387621E-01  0.11171470156E+00  0.51100000000E-03 0.  1.
</event>
<event>
 8    1  0.1083484E+005  0.1043930E+01  0.7957747E-01            NaN
         13   -1    0    0    0    0  0.00000000000E+00  0.00000000000E+00  0.74505805969E-08  0.10566000000E+00  0.10566000000E+00 0.  1.
     999900   -1    0    0    0    0 -0.00000000000E+00 -0.00000000000E+00 -0.74505805969E-08  0.93827000000E+00  0.93827000000E+00 0.  1.
     999902    2    1    2    0    0  0.56120158298E-02  0.96914749105E-02 -0.19885071717E-01  0.10211081796E+01  0.10208531133E+01 0.  0.
     999903    2    3    3    0    0 -0.91239888388E-01 -0.87823741944E-01  0.19022614181E-01  0.12959075586E+00  0.19853898169E-01 0.  0.
         14    1    1    2    0    0 -0.56120158298E-02 -0.96914749105E-02  0.19885071717E-01  0.22821820366E-01  0.00000000000E+00 0.  1.
     999901    1    3    3    0    0  0.96851904217E-01  0.97515216854E-01 -0.38907685898E-01  0.89151742377E+00  0.88000000000E+00 0.  1.
        -11    1    4    4    0    0 -0.25334108808E-01 -0.37202053587E-01  0.46361413936E-02  0.45250025284E-01  0.51100000000E-03 0. -1.
         11    1    4    4    0    0 -0.65905779579E-01 -0.50621688356E-01  0.14386472788E-01  0.84340730577E-01  0.51100000000E-03 0.  1.
</event>
<event>
 8    1  0.1083484E+005  0.1043930E+01  0.7957747E-01            NaN
         13   -1    0    0    0    0  0.00000000000E+00  0.00000000000E+00  0.74505805969E-08  0.10566000000E+00  0.10566000000E+00 0.  1.
     999900   -1    0    0    0    0 -0.00000000000E+00 -0.00000000000E+00 -0.74505805969E-08  0.93827000000E+00  0.93827000000E+00 0.  1.
     999902    2    1    2    0    0  0.10138275475E-01 -0.18418903669E-01  0.11089824005E-01  0.10201597489E+01  0.10198827817E+01 0.  0.
     999903    2    3    3    0    0  0.12186760034E+00 -0.47367427595E-01 -0.80216178049E-03  0.13254334615E+00  0.21718884290E-01 0.  0.
         14    1    1    2    0    0 -0.10138275475E-01  0.18418903669E-01 -0.11089824005E-01  0.23770251123E-01  0.00000000000E+00 0. -1.
     999901    1    3    3    0    0 -0.11172932486E+00  0.28948523926E-01  0.11891985785E-01  0.88761640273E+00  0.88000000000E+00 0.  1.
        -11    1    4    4    0    0  0.62298401317E-01 -0.22879570534E-01  0.10367922198E-01  0.67173808037E-01  0.51100000000E-03 0.  1.
         11    1    4    4    0    0  0.59569199022E-01 -0.24487857061E-01 -0.11170083978E-01  0.65369538109E-01  0.51100000000E-03 0. -1.
</event>
<event>
 8    1  0.1083484E+005  0.1043930E+01  0.7957747E-01            NaN
         13   -1    0    0    0    0  0.00000000000E+00  0.00000000000E+00  0.74505805969E-08  0.10566000000E+00  0.10566000000E+00 0.  1.
     999900   -1    0    0    0    0 -0.00000000000E+00 -0.00000000000E+00 -0.74505805969E-08  0.93827000000E+00  0.93827000000E+00 0. -1.
     999902    2    1    2    0    0  0.18727212606E-01  0.15485078780E-01  0.12989927263E-01  0.10163757922E+01  0.10160022227E+01 0.  0.
     999903    2    3    3    0    0 -0.52902421964E-01  0.70808730166E-01  0.90850804374E-01  0.12831395476E+00  0.19951436348E-01 0.  0.
         14    1    1    2    0    0 -0.18727212606E-01 -0.15485078780E-01 -0.12989927263E-01  0.27554207793E-01  0.00000000000E+00 0. -1.
     999901    1    3    3    0    0  0.71629634570E-01 -0.55323651386E-01 -0.77860877112E-01  0.88806183745E+00  0.88000000000E+00 0. -1.
        -11    1    4    4    0    0 -0.11554240175E-01  0.27374960880E-01  0.39030103277E-01  0.49056080479E-01  0.51100000000E-03 0. -1.
         11    1    4    4    0    0 -0.41348181789E-01  0.43433769286E-01  0.51820701098E-01  0.79257874277E-01  0.51100000000E-03 0.  1.
</event>
<event>
 8    1  0.1083484E+005  0.1043930E+01  0.7957747E-01            NaN
         13   -1    0    0    0    0  0.00000000000E+00  0.00000000000E+00  0.74505805969E-08  0.10566000000E+00  0.10566000000E+00 0. -1.
     999900   -1    0    0    0    0 -0.00000000000E+00 -0.00000000000E+00 -0.74505805969E-08  0.93827000000E+00  0.93827000000E+00 0.  1.
     999902    2    1    2    0    0 -0.23694364936E-01  0.26061563655E-02  0.73927936865E-03  0.10200812786E+01  0.10198024580E+01 0.  0.
     999903    2    3    3    0    0 -0.39307496927E-01 -0.11500663723E+00  0.44587664031E-01  0.13103728642E+00  0.20275717700E-01 0.  0.
         14    1    1    2    0    0  0.23694364936E-01 -0.26061563655E-02 -0.73927936865E-03  0.23848721448E-01  0.00000000000E+00 0. -1.
     999901    1    3    3    0    0  0.15613131991E-01  0.11761279359E+00 -0.43848384662E-01  0.88904399213E+00  0.88000000000E+00 0.  1.
        -11    1    4    4    0    0 -0.36139607277E-02 -0.18416593426E-01  0.14602762136E-01  0.23785151010E-01  0.51100000000E-03 0. -1.
         11    1    4    4    0    0 -0.35693536199E-01 -0.96590043799E-01  0.29984901895E-01  0.10725213541E+00  0.51100000000E-03 0.  1.
</event>
<event>
 8    1  0.1083484E+005  0.1043930E+01  0.7957747E-01            NaN
         13   -1    0    0    0    0  0.00000000000E+00  0.00000000000E+00  0.74505805969E-08  0.10566000000E+00  0.10566000000E+00 0. -1.
     999900   -1    0    0    0    0 -0.00000000000E+00 -0.00000000000E+00 -0.74505805969E-08  0.93827000000E+00  0.93827000000E+00 0. -1.
     999902    2    1    2    0    0  0.22466113802E-01  0.60195731047E-02  0.24145083446E-02  0.10205464293E+01  0.10202785026E+01 0.  0.
     999903    2    3    3    0    0  0.43599739707E-01 -0.99918388104E-01 -0.69880930976E-01  0.13099816620E+00  0.19812961698E-01 0.  0.
         14    1    1    2    0    0 -0.22466113802E-01 -0.60195731047E-02 -0.24145083446E-02  0.23383570734E-01  0.00000000000E+00 0.  1.
     999901    1    3    3    0    0 -0.21133625905E-01  0.10593796121E+00  0.72295439320E-01  0.88954826306E+00  0.88000000000E+00 0.  1.
        -11    1    4    4    0    0  0.34935900716E-01 -0.81343444925E-01 -0.46845109682E-01  0.10015986528E+00  0.51100000000E-03 0.  1.
         11    1    4    4    0    0  0.86638389907E-02 -0.18574943179E-01 -0.23035821294E-01  0.30838300924E-01  0.51100000000E-03 0. -1.
</event>
<event>
 8    1  0.1083484E+005  0.1043930E+01  0.7957747E-01            NaN
         13   -1    0    0    0    0  0.00000000000E+00  0.00000000000E+00  0.74505805969E-08  0.10566000000E+00  0.10566000000E+00 0.  1.
     999900   -1    0    0    0    0 -0.00000000000E+00 -0.00000000000E+00 -0.74505805969E-08  0.93827000000E+00  0.93827000000E+00 0.  1.
     999902    2    1    2    0    0 -0.17281810705E-01 -0.46061442316E-02  0.14041159742E-01  0.10211916686E+01  0.10209384861E+01 0.  0.
     999903    2    3    3    0    0  0.58225797268E-01  0.11220488094E+00  0.24604329837E-01  0.13020469061E+00  0.19175756500E-01 0.  0.
         14    1    1    2    0    0  0.17281810705E-01  0.46061442316E-02 -0.14041159742E-01  0.22738331355E-01  0.00000000000E+00 0. -1.
     999901    1    3    3    0    0 -0.75507607973E-01 -0.11681102517E+00 -0.10563170096E-01  0.89098697803E+00  0.88000000000E+00 0.  1.
        -11    1    4    4    0    0  0.85394680734E-02  0.29145975135E-01  0.14993340799E-03  0.30375878301E-01  0.51100000000E-03 0. -1.
         11    1    4    4    0    0  0.49686329195E-01  0.83058905800E-01  0.24454396429E-01  0.99828812310E-01  0.51100000000E-03 0.  1.
</event>
<event>
 8    1  0.1083484E+005  0.1043930E+01  0.7957747E-01            NaN
         13   -1    0    0    0    0  0.00000000000E+00  0.00000000000E+00  0.74505805969E-08  0.10566000000E+00  0.10566000000E+00 0. -1.
     999900   -1    0    0    0    0 -0.00000000000E+00 -0.00000000000E+00 -0.74505805969E-08  0.93827000000E+00  0.93827000000E+00 0. -1.
     999902    2    1    2    0    0 -0.55777533573E-02  0.22253115477E-01 -0.53027677393E-02  0.10203836239E+01  0.10201119096E+01 0.  0.
     999903    2    3    3    0    0  0.72384666699E-01 -0.39341321177E-01  0.97118732280E-01  0.12888927327E+00  0.19827180319E-01 0.  0.
         14    1    1    2    0    0  0.55777533573E-02 -0.22253115477E-01  0.53027677393E-02  0.23546376083E-01  0.00000000000E+00 0.  1.
     999901    1    3    3    0    0 -0.77962420056E-01  0.61594436654E-01 -0.10242150002E+00  0.89149435065E+00  0.88000000000E+00 0. -1.
        -11    1    4    4    0    0  0.64867854691E-01 -0.38525126912E-01  0.78949985897E-01  0.10920341281E+00  0.51100000000E-03 0.  1.
         11    1    4    4    0    0  0.75168120083E-02 -0.81619426560E-03  0.18168746383E-01  0.19685860458E-01  0.51100000000E-03 0. -1.
</event>
<event>
 8    1  0.1083484E+005  0.1043930E+01  0.7957747E-01            NaN
         13   -1    0    0    0    0  0.00000000000E+00  0.00000000000E+00  0.74505805969E-08  0.10566000000E+00  0.10566000000E+00 0.  1.
     999900   -1    0    0    0    0 -0.00000000000E+00 -0.00000000000E+00 -0.74505805969E-08  0.93827000000E+00  0.93827000000E+00 0.  1.
     999902    2    1    2    0    0 -0.15898392445E-01  0.13317984714E-01  0.30653874394E-02  0.10229651676E+01  0.10227503165E+01 0.  0.
     999903    2    3    3    0    0  0.63173376551E-01  0.74253378539E-01 -0.88008541420E-01  0.13265065718E+00  0.18607895045E-01 0.  0.
         14    1    1    2    0    0  0.15898392445E-01 -0.13317984714E-01 -0.30653874394E-02  0.20964832442E-01  0.00000000000E+00 0. -1.
     999901    1    3    3    0    0 -0.79071768996E-01 -0.60935393825E-01  0.91073928859E-01  0.89031451038E+00  0.88000000000E+00 0. -1.
        -11    1    4    4    0    0  0.21070348571E-01  0.28382086205E-01 -0.43798108481E-01  0.56285325208E-01  0.51100000000E-03 0. -1.
         11    1    4    4    0    0  0.42103027981E-01  0.45871292334E-01 -0.44210432938E-01  0.76365331971E-01  0.51100000000E-03 0.  1.
</event>
<event>
 8    1  0.1083484E+005  0.1043930E+01  0.7957747E-01            NaN
         13   -1    0    0    0    0  0.00000000000E+00  0.00000000000E+00  0.74505805969E-08  0.10566000000E+00  0.10566000000E+00 0. -1.
     999900   -1    0    0    0    0 -0.00000000000E+00 -0.00000000000E+00 -0.74505805969E-08  0.93827000000E+00  0.93827000000E+00 0. -1.
     999902    2    1    2    0    0 -0.20148874356E-01  0.12368933879E-02 -0.79765977171E-02  0.10222243981E+01  0.10219939270E+01 0.  0.
     999903    2    3    3    0    0  0.11736001569E+00  0.57684170386E-02 -0.52924475883E-01  0.13040068160E+00  0.19917070451E-01 0.  0.
         14    1    1    2    0    0  0.20148874356E-01 -0.12368933879E-02  0.79765977171E-02  0.21705601909E-01  0.00000000000E+00 0. -1.
     999901    1    3    3    0    0 -0.13750889005E+00 -0.45315236507E-02  0.44947878166E-01  0.89182371649E+00  0.88000000000E+00 0.  1.
        -11    1    4    4    0    0  0.89808804403E-01  0.12548910911E-01 -0.42746316121E-01  0.10025270658E+00  0.51100000000E-03 0.  1.
         11    1    4    4    0    0  0.27551211289E-01 -0.67804938723E-02 -0.10178159762E-01  0.30147975020E-01  0.51100000000E-03 0. -1.
</event>
<event>
 8    1  0.1083484E+005  0.1043930E+01  0.7957747E-01            NaN
         13   -1    0    0    0    0  0.00000000000E+00  0.00000000000E+00  0.74505805969E-08  0.10566000000E+00  0.10566000000E+00 0.  1.
     999900   -1    0    0    0    0 -0.00000000000E+00 -0.00000000000E+00 -0.74505805969E-08  0.93827000000E+00  0.93827000000E+00 0.  1.
     999902    2    1    2    0    0  0.19887609969E-01 -0.60035146932E-02  0.11971068888E-01  0.10199536427E+01  0.10196717940E+01 0.  0.
     999903    2    3    3    0    0 -0.71458497949E-02  0.11758285545E+00  0.51031322132E-01  0.13004909601E+00  0.20779327943E-01 0.  0.
         14    1    1    2    0    0 -0.19887609969E-01  0.60035146932E-02 -0.11971068888E-01  0.23976357298E-01  0.00000000000E+00 0. -1.
     999901    1    3    3    0    0  0.27033459764E-01 -0.12358637015E+00 -0.39060253244E-01  0.88990454669E+00  0.88000000000E+00 0.  1.
        -11    1    4    4    0    0  0.48162145870E-02  0.78221183061E-01  0.36039814123E-01  0.86260528201E-01  0.51100000000E-03 0. -1.
         11    1    4    4    0    0 -0.11962064382E-01  0.39361672392E-01  0.14991508009E-01  0.43788567813E-01  0.51100000000E-03 0.  1.
</event>
<event>
 8    1  0.1083484E+005  0.1043930E+01  0.7957747E-01            NaN
         13   -1    0    0    0    0  0.00000000000E+00  0.00000000000E+00  0.74505805969E-08  0.10566000000E+00  0.10566000000E+00 0.  1.
     999900   -1    0    0    0    0 -0.00000000000E+00 -0.00000000000E+00 -0.74505805969E-08  0.93827000000E+00  0.93827000000E+00 0. -1.
     999902    2    1    2    0    0  0.25916581087E-02 -0.16096268544E-01 -0.17686661326E-01  0.10198753842E+01  0.10195916706E+01 0.  0.
     999903    2    3    3    0    0 -0.11601426647E+00 -0.19158467791E-01  0.49692724174E-01  0.12936051963E+00  0.20938488259E-01 0.  0.
         14    1    1    2    0    0 -0.25916581087E-02  0.16096268544E-01  0.17686661326E-01  0.24054615807E-01  0.00000000000E+00 0.  1.
     999901    1    3    3    0    0  0.11860592458E+00  0.30621992469E-02 -0.67379385499E-01  0.89051486456E+00  0.88000000000E+00 0. -1.
        -11    1    4    4    0    0 -0.66004929786E-01 -0.12631984056E-01  0.17223014526E-01  0.69376589190E-01  0.51100000000E-03 0. -1.
         11    1    4    4    0    0 -0.50009336687E-01 -0.65264837349E-02  0.32469709648E-01  0.59983930444E-01  0.51100000000E-03 0.  1.
</event>
<event>
 8    1  0.1083484E+005  0.1043930E+01  0.7957747E-01            NaN
         13   -1    0    0    0    0  0.00000000000E+00  0.00000000000E+00  0.74505805969E-08  0.10566000000E+00  0.10566000000E+00 0.  1.
     999900   -1    0    0    0    0 -0.00000000000E+00 -0.00000000000E+00 -0.74505805969E-08  0.93827000000E+00  0.93827000000E+00 0. -1.
     999902    2    1    2    0    0  0.13105914476E-01  0.17065612920E-01  0.10528588000E-01  0.10199748063E+01  0.10196934609E+01 0.  0.
     999903    2    3    3    0    0 -0.66941313896E-02  0.79255237579E-03  0.12991698680E+00  0.13154335479E+00  0.19488232263E-01 0.  0.
         14    1    1    2    0    0 -0.13105914476E-01 -0.17065612920E-01 -0.10528588000E-01  0.23955193672E-01  0.00000000000E+00 0. -1.
     999901    1    3    3    0    0  0.19800045866E-01  0.16273060544E-01 -0.11938839880E+00  0.88843145154E+00  0.88000000000E+00 0. -1.
        -11    1    4    4    0    0 -0.10835405217E-01  0.69159213028E-02  0.93433425555E-01  0.94314909243E-01  0.51100000000E-03 0.  1.
         11    1    4    4    0    0  0.41412738272E-02 -0.61233689270E-02  0.36483561241E-01  0.37228445546E-01  0.51100000000E-03 0. -1.
</event>
<event>
 8    1  0.1083484E+005  0.1043930E+01  0.7957747E-01            NaN
         13   -1    0    0    0    0  0.00000000000E+00  0.00000000000E+00  0.74505805969E-08  0.10566000000E+00  0.10566000000E+00 0. -1.
     999900   -1    0    0    0    0 -0.00000000000E+00 -0.00000000000E+00 -0.74505805969E-08  0.93827000000E+00  0.93827000000E+00 0. -1.
     999902    2    1    2    0    0 -0.16819773067E-01  0.19348702798E-01 -0.19422882695E-02  0.10182191161E+01  0.10178944537E+01 0.  0.
     999903    2    3    3    0    0  0.11993889244E+00  0.28481567151E-01 -0.25195944331E-01  0.12730549836E+00  0.19373092513E-01 0.  0.
         14    1    1    2    0    0  0.16819773067E-01 -0.19348702798E-01  0.19422882695E-02  0.25710883876E-01  0.00000000000E+00 0. -1.
     999901    1    3    3    0    0 -0.13675866551E+00 -0.91328643526E-02  0.23253656061E-01  0.89091361777E+00  0.88000000000E+00 0.  1.
        -11    1    4    4    0    0  0.87865842224E-01  0.12603802635E-01 -0.14447382614E-01  0.89934698843E-01  0.51100000000E-03 0.  1.
         11    1    4    4    0    0  0.32073050218E-01  0.15877764516E-01 -0.10748561716E-01  0.37370799514E-01  0.51100000000E-03 0. -1.
</event>
<event>
 8    1  0.1083484E+005  0.1043930E+01  0.7957747E-01            NaN
         13   -1    0    0    0    0  0.00000000000E+00  0.00000000000E+00  0.74505805969E-08  0.10566000000E+00  0.10566000000E+00 0.  1.
     999900   -1    0    0    0    0 -0.00000000000E+00 -0.00000000000E+00 -0.74505805969E-08  0.93827000000E+00  0.93827000000E+00 0.  1.
     999902    2    1    2    0    0  0.30007371055E-02  0.17743961548E-01 -0.16651030991E-01  0.10194124669E+01  0.10191175930E+01 0.  0.
     999903    2    3    3    0    0  0.74654354417E-01 -0.10121490972E+00  0.12878368907E-01  0.12803295214E+00  0.20220135150E-01 0.  0.
         14    1    1    2    0    0 -0.30007371055E-02 -0.17743961548E-01  0.16651030991E-01  0.24517533066E-01  0.00000000000E+00 0.  1.
     999901    1    3    3    0    0 -0.71653617312E-01  0.11895887127E+00 -0.29529399898E-01  0.89137951479E+00  0.88000000000E+00 0.  1.
        -11    1    4    4    0    0  0.44188873211E-01 -0.45867022901E-01  0.73829409819E-03  0.63696518780E-01  0.51100000000E-03 0.  1.
         11    1    4    4    0    0  0.30465481206E-01 -0.55347886822E-01  0.12140074808E-01  0.64336433365E-01  0.51100000000E-03 0. -1.
</event>
<event>
 8    1  0.1083484E+005  0.1043930E+01  0.7957747E-01            NaN
         13   -1    0    0    0    0  0.00000000000E+00  0.00000000000E+00  0.74505805969E-08  0.10566000000E+00  0.10566000000E+00 0.  1.
     999900   -1    0    0    0    0 -0.00000000000E+00 -0.00000000000E+00 -0.74505805969E-08  0.93827000000E+00  0.93827000000E+00 0.  1.
     999902    2    1    2    0    0  0.31963153306E-02 -0.31934695709E-01 -0.53916034950E-02  0.10113860204E+01  0.10108622911E+01 0.  0.
     999903    2    3    3    0    0 -0.48464216577E-01  0.53896723339E-01 -0.95035275239E-01  0.12117715110E+00  0.19964000939E-01 0.  0.
         14    1    1    2    0    0 -0.31963153306E-02  0.31934695709E-01  0.53916034950E-02  0.32543979627E-01  0.00000000000E+00 0.  1.
     999901    1    3    3    0    0  0.51660531907E-01 -0.85831419047E-01  0.89643671744E-01  0.89020886928E+00  0.88000000000E+00 0. -1.
        -11    1    4    4    0    0 -0.36619108192E-01  0.27605972562E-01 -0.51557546506E-01  0.69003554464E-01  0.51100000000E-03 0.  1.
         11    1    4    4    0    0 -0.11845108385E-01  0.26290750777E-01 -0.43477728732E-01  0.52173596634E-01  0.51100000000E-03 0. -1.
</event>
<event>
 8    1  0.1083484E+005  0.1043930E+01  0.7957747E-01            NaN
         13   -1    0    0    0    0  0.00000000000E+00  0.00000000000E+00  0.74505805969E-08  0.10566000000E+00  0.10566000000E+00 0.  1.
     999900   -1    0    0    0    0 -0.00000000000E+00 -0.00000000000E+00 -0.74505805969E-08  0.93827000000E+00  0.93827000000E+00 0.  1.
     999902    2    1    2    0    0 -0.82027872709E-02 -0.87375875688E-02 -0.20912925494E-01  0.10198264399E+01  0.10195415568E+01 0.  0.
     999903    2    3    3    0    0 -0.79795647179E-02  0.17627059322E-01  0.12454521326E+00  0.12749622383E+00  0.19219528359E-01 0.  0.
         14    1    1    2    0    0  0.82027872709E-02  0.87375875688E-02  0.20912925494E-01  0.24103560075E-01  0.00000000000E+00 0.  1.
     999901    1    3    3    0    0 -0.22322255298E-03 -0.26364646891E-01 -0.14545813875E+00  0.89233021610E+00  0.88000000000E+00 0.  1.
        -11    1    4    4    0    0 -0.12410812412E-01  0.16260119490E-01  0.11570644161E+00  0.11750175105E+00  0.51100000000E-03 0. -1.
         11    1    4    4    0    0  0.44312476945E-02  0.13669398316E-02  0.88387716539E-02  0.99944727717E-02  0.51100000000E-03 0.  1.
</event>
<event>
 8    1  0.1083484E+005  0.1043930E+01  0.7957747E-01            NaN
         13   -1    0    0    0    0  0.00000000000E+00  0.00000000000E+00  0.74505805969E-08  0.10566000000E+00  0.10566000000E+00 0. -1.
     999900   -1    0    0    0    0 -0.00000000000E+00 -0.00000000000E+00 -0.74505805969E-08  0.93827000000E+00  0.93827000000E+00 0. -1.
     999902    2    1    2    0    0 -0.18110808684E-01 -0.54458642916E-02  0.14792274893E-01  0.10199202056E+01  0.10196375609E+01 0.  0.
     999903    2    3    3    0    0  0.71635650039E-01  0.10381575201E+00  0.15374975604E-01  0.12863300883E+00  0.20017101790E-01 0.  0.
         14    1    1    2    0    0  0.18110808684E-01  0.54458642916E-02 -0.14792274893E-01  0.24009794367E-01  0.00000000000E+00 0.  1.
     999901    1    3    3    0    0 -0.89746458723E-01 -0.10926161630E+00 -0.58270071101E-03  0.89128719681E+00  0.88000000000E+00 0. -1.
        -11    1    4    4    0    0  0.36816636346E-01  0.59934547770E-01 -0.72836392175E-03  0.70344910002E-01  0.51100000000E-03 0.  1.
         11    1    4    4    0    0  0.34819013694E-01  0.43881204236E-01  0.16103339525E-01  0.58288098825E-01  0.51100000000E-03 0. -1.
</event>
<event>
 8    1  0.1083484E+005  0.1043930E+01  0.7957747E-01            NaN
         13   -1    0    0    0    0  0.00000000000E+00  0.00000000000E+00  0.74505805969E-08  0.10566000000E+00  0.10566000000E+00 0. -1.
     999900   -1    0    0    0    0 -0.00000000000E+00 -0.00000000000E+00 -0.74505805969E-08  0.93827000000E+00  0.93827000000E+00 0. -1.
     999902    2    1    2    0    0  0.86756811269E-03  0.23227888822E-01 -0.37058407300E-04  0.10206858853E+01  0.10204211815E+01 0.  0.
     999903    2    3    3    0    0  0.79050754681E-01 -0.11789165907E-01  0.10189754834E+00  0.13066932996E+00  0.17417152063E-01 0.  0.
         14    1    1    2    0    0 -0.86756811269E-03 -0.23227888822E-01  0.37058407300E-04  0.23244114672E-01  0.00000000000E+00 0.  1.
     999901    1    3    3    0    0 -0.78183186569E-01  0.35017054728E-01 -0.10193460674E+00  0.89001655537E+00  0.88000000000E+00 0. -1.
        -11    1    4    4    0    0  0.33919750120E-01 -0.13795656332E-01  0.45911353291E-01  0.58728043249E-01  0.51100000000E-03 0.  1.
         11    1    4    4    0    0  0.45131004561E-01  0.20064904257E-02  0.55986195045E-01  0.71941286707E-01  0.51100000000E-03 0. -1.
</event>
<event>
 8    1  0.1083484E+005  0.1043930E+01  0.7957747E-01            NaN
         13   -1    0    0    0    0  0.00000000000E+00  0.00000000000E+00  0.74505805969E-08  0.10566000000E+00  0.10566000000E+00 0.  1.
     999900   -1    0    0    0    0 -0.00000000000E+00 -0.00000000000E+00 -0.74505805969E-08  0.93827000000E+00  0.93827000000E+00 0.  1.
     999902    2    1    2    0    0 -0.15176619106E-01 -0.12682140283E-01  0.11282963361E-01  0.10211600261E+01  0.10209061304E+01 0.  0.
     999903    2    3    3    0    0  0.62754626570E-01  0.76113206871E-01  0.82895033965E-01  0.13038161291E+00  0.19910171098E-01 0.  0.
         14    1    1    2    0    0  0.15176619106E-01  0.12682140283E-01 -0.11282963361E-01  0.22769973910E-01  0.00000000000E+00 0. -1.
     999901    1    3    3    0    0 -0.77931245677E-01 -0.88795347154E-01 -0.71612070603E-01  0.89077841318E+00  0.88000000000E+00 0.  1.
        -11    1    4    4    0    0  0.19949154835E-01  0.38306519039E-01  0.30502061132E-01  0.52877169306E-01  0.51100000000E-03 0. -1.
         11    1    4    4    0    0  0.42805471735E-01  0.37806687832E-01  0.52392972832E-01  0.77504443605E-01  0.51100000000E-03 0.  1.
</event>
<event>
 8    1  0.1083484E+005  0.1043930E+01  0.7957747E-01            NaN
         13   -1    0    0    0    0  0.00000000000E+00  0.00000000000E+00  0.74505805969E-08  0.10566000000E+00  0.10566000000E+00 0. -1.
     999900   -1    0    0    0    0 -0.00000000000E+00 -0.00000000000E+00 -0.74505805969E-08  0.93827000000E+00  0.93827000000E+00 0. -1.
     999902    2    1    2    0    0  0.81768119407E-02  0.70394903459E-02  0.21264561932E-01  0.10200847432E+01  0.10198060046E+01 0.  0.
     999903    2    3    3    0    0  0.96233688937E-01  0.56145901524E-01  0.69536519759E-01  0.13301336212E+00  0.21069925941E-01 0.  0.
         14    1    1    2    0    0 -0.81768119407E-02 -0.70394903459E-02 -0.21264561932E-01  0.23845256803E-01  0.00000000000E+00 0.  1.
     999901    1    3    3    0    0 -0.88056876996E-01 -0.49106411178E-01 -0.48271957827E-01  0.88707138107E+00  0.88000000000E+00 0. -1.
        -11    1    4    4    0    0  0.25916994154E-01  0.26076084146E-01  0.25738265733E-01  0.44881757923E-01  0.51100000000E-03 0.  1.
         11    1    4    4    0    0  0.70316694783E-01  0.30069817378E-01  0.43798254026E-01  0.88131604201E-01  0.51100000000E-03 0. -1.
</event>
<event>
 8    1  0.1083484E+005  0.1043930E+01  0.7957747E-01            NaN
         13   -1    0    0    0    0  0.00000000000E+00  0.00000000000E+00  0.74505805969E-08  0.10566000000E+00  0.10566000000E+00 0. -1.
     999900   -1    0    0    0    0 -0.00000000000E+00 -0.00000000000E+00 -0.74505805969E-08  0.93827000000E+00  0.93827000000E+00 0. -1.
     999902    2    1    2    0    0  0.11996458754E-01  0.19189021607E-01 -0.79131236184E-02  0.10199560329E+01  0.10196742411E+01 0.  0.
     999903    2    3    3    0    0 -0.60888436424E-01 -0.11006491392E+00 -0.74007879987E-02  0.12753289880E+00  0.19702325960E-01 0.  0.
         14    1    1    2    0    0 -0.11996458754E-01 -0.19189021607E-01  0.79131236184E-02  0.23973967095E-01  0.00000000000E+00 0. -1.
     999901    1    3    3    0    0  0.72884895178E-01  0.12925393552E+00 -0.51233561974E-03  0.89242313410E+00  0.88000000000E+00 0.  1.
        -11    1    4    4    0    0 -0.17583991843E-02 -0.14213546220E-01 -0.39110246843E-02  0.14855103464E-01  0.51100000000E-03 0. -1.
         11    1    4    4    0    0 -0.59130037240E-01 -0.95851367697E-01 -0.34897633144E-02  0.11267779534E+00  0.51100000000E-03 0.  1.
</event>
<event>
 8    1  0.1083484E+005  0.1043930E+01  0.7957747E-01            NaN
         13   -1    0    0    0    0  0.00000000000E+00  0.00000000000E+00  0.74505805969E-08  0.10566000000E+00  0.10566000000E+00 0.  1.
     999900   -1    0    0    0    0 -0.00000000000E+00 -0.00000000000E+00 -0.74505805969E-08  0.93827000000E+00  0.93827000000E+00 0. -1.
     999902    2    1    2    0    0 -0.21499153979E-01 -0.16163180291E-03  0.73270072966E-02  0.10212160223E+01  0.10209633879E+01 0.  0.
     999903    2    3    3    0    0 -0.12915351792E+00  0.24992332190E-01 -0.10113816014E-01  0.13412731970E+00  0.24137124005E-01 0.  0.
         14    1    1    2    0    0  0.21499153979E-01  0.16163180291E-03 -0.73270072966E-02  0.22713977692E-01  0.00000000000E+00 0.  1.
     999901    1    3    3    0    0  0.10765436394E+00 -0.25153963993E-01  0.17440823311E-01  0.88708870261E+00  0.88000000000E+00 0. -1.
        -11    1    4    4    0    0 -0.52069299882E-01  0.19600111283E-01 -0.11617561147E-01  0.56838413071E-01  0.51100000000E-03 0. -1.
         11    1    4    4    0    0 -0.77084218040E-01  0.53922209073E-02  0.15037451329E-02  0.77288906627E-01  0.51100000000E-03 0.  1.
</event>
<event>
 8    1  0.1083484E+005  0.1043930E+01  0.7957747E-01            NaN
         13   -1    0    0    0    0  0.00000000000E+00  0.00000000000E+00  0.74505805969E-08  0.10566000000E+00  0.10566000000E+00 0. -1.
     999900   -1    0    0    0    0 -0.00000000000E+00 -0.00000000000E+00 -0.74505805969E-08  0.93827000000E+00  0.93827000000E+00 0.  1.
     999902    2    1    2    0    0  0.17615948314E-02 -0.18514001484E-01  0.15139780977E-01  0.10199490818E+01  0.10196671247E+01 0.  0.
     999903    2    3    3    0    0 -0.59568431739E-01  0.10801151953E+00 -0.26714721535E-01  0.12780454255E+00  0.20135499426E-01 0.  0.
         14    1    1    2    0    0 -0.17615948314E-02  0.18514001484E-01 -0.15139780977E-01  0.23980918150E-01  0.00000000000E+00 0.  1.
     999901    1    3    3    0    0  0.61330026570E-01 -0.12652552102E+00  0.41854502512E-01  0.89214453930E+00  0.88000000000E+00 0.  1.
        -11    1    4    4    0    0 -0.34321030583E-01  0.62981443777E-01 -0.25618561692E-01  0.76165393879E-01  0.51100000000E-03 0. -1.
         11    1    4    4    0    0 -0.25247401156E-01  0.45030075756E-01 -0.10961598426E-02  0.51639148668E-01  0.51100000000E-03 0.  1.
</event>
<event>
 8    1  0.1083484E+005  0.1043930E+01  0.7957747E-01            NaN
         13   -1    0    0    0    0  0.00000000000E+00  0.00000000000E+00  0.74505805969E-08  0.10566000000E+00  0.10566000000E+00 0. -1.
     999900   -1    0    0    0    0 -0.00000000000E+00 -0.00000000000E+00 -0.74505805969E-08  0.93827000000E+00  0.93827000000E+00 0.  1.
     999902    2    1    2    0    0  0.16639730182E-01  0.16139503127E-01  0.74463690378E-02  0.10195822569E+01  0.10192915020E+01 0.  0.
     999903    2    3    3    0    0 -0.50005225362E-01  0.11154656876E+00  0.43457312237E-01  0.13118997514E+00  0.19470799299E-01 0.  0.
         14    1    1    2    0    0 -0.16639730182E-01 -0.16139503127E-01 -0.74463690378E-02  0.24347743090E-01  0.00000000000E+00 0. -1.
     999901    1    3    3    0    0  0.66644955544E-01 -0.95407065634E-01 -0.36010943200E-01  0.88839228177E+00  0.88000000000E+00 0. -1.
        -11    1    4    4    0    0 -0.15051733962E-01  0.41913515130E-01  0.25170121116E-01  0.51157536725E-01  0.51100000000E-03 0.  1.
         11    1    4    4    0    0 -0.34953491400E-01  0.69633053632E-01  0.18287191122E-01  0.80032438419E-01  0.51100000000E-03 0. -1.
</event>
<event>
 8    1  0.1083484E+005  0.1043930E+01  0.7957747E-01            NaN
         13   -1    0    0    0    0  0.00000000000E+00  0.00000000000E+00  0.74505805969E-08  0.10566000000E+00  0.10566000000E+00 0. -1.
     999900   -1    0    0    0    0 -0.00000000000E+00 -0.00000000000E+00 -0.74505805969E-08  0.93827000000E+00  0.93827000000E+00 0.  1.
     999902    2    1    2    0    0 -0.17830025931E-01 -0.17415384759E-01  0.10839531390E-03  0.10190057708E+01  0.10187009099E+01 0.  0.
     999903    2    3    3    0    0  0.12002751724E+00 -0.48334385598E-02  0.37425681203E-01  0.12740295150E+00  0.20021573706E-01 0.  0.
         14    1    1    2    0    0  0.17830025931E-01  0.17415384759E-01 -0.10839531390E-03  0.24924229186E-01  0.00000000000E+00 0.  1.
     999901    1    3    3    0    0 -0.13785754317E+00 -0.12581946199E-01 -0.37317285889E-01  0.89160281931E+00  0.88000000000E+00 0.  1.
        -11    1    4    4    0    0  0.41231654884E-01 -0.74591250612E-02  0.20988509837E-01  0.46866476050E-01  0.51100000000E-03 0. -1.
         11    1    4    4    0    0  0.78795862360E-01  0.26256865014E-02  0.16437171366E-01  0.80536475451E-01  0.51100000000E-03 0.  1.
</event>
<event>
 8    1  0.1083484E+005  0.1043930E+01  0.7957747E-01            NaN
         13   -1    0    0    0    0  0.00000000000E+00  0.00000000000E+00  0.74505805969E-08  0.10566000000E+00  0.10566000000E+00 0.  1.
     999900   -1    0    0    0    0 -0.00000000000E+00 -0.00000000000E+00 -0.74505805969E-08  0.93827000000E+00  0.93827000000E+00 0. -1.
     999902    2    1    2    0    0  0.41064243541E-02 -0.12199357751E-02  0.23299955871E-01  0.10202395186E+01  0.10199644290E+01 0.  0.
     999903    2    3    3    0    0 -0.63223096514E-01 -0.85252245112E-01  0.76000496242E-01  0.13211112681E+00  0.20301949857E-01 0.  0.
         14    1    1    2    0    0 -0.41064243541E-02  0.12199357751E-02 -0.23299955871E-01  0.23690481377E-01  0.00000000000E+00 0. -1.
     999901    1    3    3    0    0  0.67329520868E-01  0.84032309337E-01 -0.52700540371E-01  0.88812839182E+00  0.88000000000E+00 0. -1.
        -11    1    4    4    0    0 -0.94680150379E-02 -0.24506111400E-01  0.25153339156E-01  0.36375051841E-01  0.51100000000E-03 0.  1.
         11    1    4    4    0    0 -0.53755081476E-01 -0.60746133712E-01  0.50847157086E-01  0.95736074967E-01  0.51100000000E-03 0. -1.
</event>
<event>
 8    1  0.1083484E+005  0.1043930E+01  0.7957747E-01            NaN
         13   -1    0    0    0    0  0.00000000000E+00  0.00000000000E+00  0.74505805969E-08  0.10566000000E+00  0.10566000000E+00 0.  1.
     999900   -1    0    0    0    0 -0.00000000000E+00 -0.00000000000E+00 -0.74505805969E-08  0.93827000000E+00  0.93827000000E+00 0.  1.
     999902    2    1    2    0    0 -0.15100225781E-01 -0.27555756477E-02  0.17399616460E-01  0.10207274857E+01  0.10204637394E+01 0.  0.
     999903    2    3    3    0    0 -0.57188677223E-01 -0.11263957814E+00 -0.33468379457E-01  0.13143929579E+00  0.14068997443E-01 0.  0.
         14    1    1    2    0    0  0.15100225781E-01  0.27555756477E-02 -0.17399616460E-01  0.23202514276E-01  0.00000000000E+00 0. -1.
     999901    1    3    3    0    0  0.42088451442E-01  0.10988400249E+00  0.50867995917E-01  0.88928818993E+00  0.88000000000E+00 0. -1.
        -11    1    4    4    0    0 -0.13289845809E-01 -0.37966411082E-01 -0.67576136165E-02  0.40792092798E-01  0.51100000000E-03 0.  1.
         11    1    4    4    0    0 -0.43898831414E-01 -0.74673167054E-01 -0.26710765841E-01  0.90647202991E-01  0.51100000000E-03 0. -1.
</event>
<event>
 8    1  0.1083484E+005  0.1043930E+01  0.7957747E-01            NaN
         13   -1    0    0    0    0  0.00000000000E+00  0.00000000000E+00  0.74505805969E-08  0.10566000000E+00  0.10566000000E+00 0. -1.
     999900   -1    0    0    0    0 -0.00000000000E+00 -0.00000000000E+00 -0.74505805969E-08  0.93827000000E+00  0.93827000000E+00 0.  1.
     999902    2    1    2    0    0 -0.20580642556E-01  0.13501095129E-01  0.12142194903E-01  0.10164841385E+01  0.10161135411E+01 0.  0.
     999903    2    3    3    0    0 -0.63335719025E-01  0.10171417840E+00 -0.43737777257E-01  0.12927947443E+00  0.21047611677E-01 0.  0.
         14    1    1    2    0    0  0.20580642556E-01 -0.13501095129E-01 -0.12142194903E-01  0.27445861523E-01  0.00000000000E+00 0.  1.
     999901    1    3    3    0    0  0.42755076469E-01 -0.88213083268E-01  0.55879972160E-01  0.88720466405E+00  0.88000000000E+00 0. -1.
        -11    1    4    4    0    0 -0.11378636803E-01  0.13260764171E-01  0.67196800823E-03  0.17493824736E-01  0.51100000000E-03 0. -1.
         11    1    4    4    0    0 -0.51957082222E-01  0.88453414226E-01 -0.44409745265E-01  0.11178564969E+00  0.51100000000E-03 0.  1.
</event>
<event>
 8    1  0.1251016E+005  0.1043930E+01  0.7957747E-01            NaN
         13   -1    0    0    0    0  0.00000000000E+00  0.00000000000E+00  0.74505805969E-08  0.10566000000E+00  0.10566000000E+00 0.  1.
     999900   -1    0    0    0    0 -0.00000000000E+00 -0.00000000000E+00 -0.74505805969E-08  0.93827000000E+00  0.93827000000E+00 0.  1.
     999902    2    1    2    0    0 -0.12773286332E-01 -0.18292974804E-01 -0.81354441234E-02  0.10201818375E+01  0.10199053909E+01 0.  0.
     999903    2    3    3    0    0 -0.40467613832E-01  0.95046261963E-01 -0.76361522274E-01  0.12986304285E+00  0.19023883218E-01 0.  0.
         14    1    1    2    0    0  0.12773286332E-01  0.18292974804E-01  0.81354441234E-02  0.23748162497E-01  0.00000000000E+00 0. -1.
     999901    1    3    3    0    0  0.27694327500E-01 -0.11333923677E+00  0.68226078150E-01  0.89031879465E+00  0.88000000000E+00 0. -1.
        -11    1    4    4    0    0 -0.24214903329E-01  0.33311197717E-01 -0.28936925676E-01  0.50334920534E-01  0.51100000000E-03 0. -1.
         11    1    4    4    0    0 -0.16252710503E-01  0.61735064247E-01 -0.47424596598E-01  0.79528122320E-01  0.51100000000E-03 0.  1.
</event>
<event>
 8    1  0.1083484E+005  0.1043930E+01  0.7957747E-01            NaN
         13   -1    0    0    0    0  0.00000000000E+00  0.00000000000E+00  0.74505805969E-08  0.10566000000E+00  0.10566000000E+00 0. -1.
     999900   -1    0    0    0    0 -0.00000000000E+00 -0.00000000000E+00 -0.74505805969E-08  0.93827000000E+00  0.93827000000E+00 0.  1.
     999902    2    1    2    0    0  0.79018342954E-02 -0.62453047844E-02 -0.21875107174E-01  0.10198475763E+01  0.10195631985E+01 0.  0.
     999903    2    3    3    0    0 -0.50526012931E-01  0.63422483570E-01 -0.10169478558E+00  0.13156913171E+00  0.19832236390E-01 0.  0.
         14    1    1    2    0    0 -0.79018342954E-02  0.62453047844E-02  0.21875107174E-01  0.24082423694E-01  0.00000000000E+00 0. -1.
     999901    1    3    3    0    0  0.58427847227E-01 -0.69667788355E-01  0.79819678409E-01  0.88827844459E+00  0.88000000000E+00 0.  1.
        -11    1    4    4    0    0 -0.21783121276E-01  0.35183537707E-01 -0.37920341162E-01  0.56130197692E-01  0.51100000000E-03 0.  1.
         11    1    4    4    0    0 -0.28742891655E-01  0.28238945864E-01 -0.63774444421E-01  0.75438934022E-01  0.51100000000E-03 0. -1.
</event>
<event>
 8    1  0.1083484E+005  0.1043930E+01  0.7957747E-01            NaN
         13   -1    0    0    0    0  0.00000000000E+00  0.00000000000E+00  0.74505805969E-08  0.10566000000E+00  0.10566000000E+00 0. -1.
     999900   -1    0    0    0    0 -0.00000000000E+00 -0.00000000000E+00 -0.74505805969E-08  0.93827000000E+00  0.93827000000E+00 0. -1.
     999902    2    1    2    0    0  0.16977609676E-01 -0.52158762360E-02 -0.16090949710E-01  0.10199641231E+01  0.10196825237E+01 0.  0.
     999903    2    3    3    0    0 -0.63414936877E-01  0.11057508127E+00 -0.56216888774E-02  0.12868408131E+00  0.16723832719E-01 0.  0.
         14    1    1    2    0    0 -0.16977609676E-01  0.52158762360E-02  0.16090949710E-01  0.23965876946E-01  0.00000000000E+00 0. -1.
     999901    1    3    3    0    0  0.80392546553E-01 -0.11579095751E+00 -0.10469260833E-01  0.89128004174E+00  0.88000000000E+00 0.  1.
        -11    1    4    4    0    0 -0.23233592642E-01  0.54334786499E-01 -0.72806838014E-02  0.59542743710E-01  0.51100000000E-03 0.  1.
         11    1    4    4    0    0 -0.40181344235E-01  0.56240294771E-01  0.16589949240E-02  0.69141337604E-01  0.51100000000E-03 0. -1.
</event>
<event>
 8    1  0.1083484E+005  0.1043930E+01  0.7957747E-01            NaN
         13   -1    0    0    0    0  0.00000000000E+00  0.00000000000E+00  0.74505805969E-08  0.10566000000E+00  0.10566000000E+00 0. -1.
     999900   -1    0    0    0    0 -0.00000000000E+00 -0.00000000000E+00 -0.74505805969E-08  0.93827000000E+00  0.93827000000E+00 0.  1.
     999902    2    1    2    0    0 -0.10698046987E-01  0.10170363922E-01 -0.19569435506E-01  0.10194178129E+01  0.10191230691E+01 0.  0.
     999903    2    3    3    0    0 -0.83928629784E-02  0.59661124885E-01 -0.11652797304E+00  0.13270725847E+00  0.20063847572E-01 0.  0.
         14    1    1    2    0    0  0.10698046987E-01 -0.10170363922E-01  0.19569435506E-01  0.24512187125E-01  0.00000000000E+00 0. -1.
     999901    1    3    3    0    0 -0.23051840090E-02 -0.49490760963E-01  0.96958537529E-01  0.88671055441E+00  0.88000000000E+00 0. -1.
        -11    1    4    4    0    0  0.54496960318E-03  0.74766423532E-02 -0.32748221739E-01  0.33599171431E-01  0.51100000000E-03 0.  1.
         11    1    4    4    0    0 -0.89378325816E-02  0.52184482532E-01 -0.83779751296E-01  0.99108087039E-01  0.51100000000E-03 0. -1.
</event>
<event>
 8    1  0.1083484E+005  0.1043930E+01  0.7957747E-01            NaN
         13   -1    0    0    0    0  0.00000000000E+00  0.00000000000E+00  0.74505805969E-08  0.10566000000E+00  0.10566000000E+00 0.  1.
     999900   -1    0    0    0    0 -0.00000000000E+00 -0.00000000000E+00 -0.74505805969E-08  0.93827000000E+00  0.93827000000E+00 0.  1.
     999902    2    1    2    0    0  0.34409598698E-02  0.66042535199E-05  0.22282566899E-01  0.10213833143E+01  0.10211344288E+01 0.  0.
     999903    2    3    3    0    0  0.16255840377E-01  0.97394348769E-01  0.87595881236E-01  0.13351259005E+00  0.20066434030E-01 0.  0.
         14    1    1    2    0    0 -0.34409598698E-02 -0.66042535199E-05 -0.22282566899E-01  0.22546685700E-01  0.00000000000E+00 0. -1.
     999901    1    3    3    0    0 -0.12814880507E-01 -0.97387744516E-01 -0.65313314337E-01  0.88787072425E+00  0.88000000000E+00 0.  1.
        -11    1    4    4    0    0  0.19617258146E-01  0.74215326651E-01  0.60853009748E-01  0.97959692953E-01  0.51100000000E-03 0. -1.
         11    1    4    4    0    0 -0.33614177695E-02  0.23179022118E-01  0.26742871489E-01  0.35552897101E-01  0.51100000000E-03 0.  1.
</event>
<event>
 8    1  0.1083484E+005  0.1043930E+01  0.7957747E-01            NaN
         13   -1    0    0    0    0  0.00000000000E+00  0.00000000000E+00  0.74505805969E-08  0.10566000000E+00  0.10566000000E+00 0.  1.
     999900   -1    0    0    0    0 -0.00000000000E+00 -0.00000000000E+00 -0.74505805969E-08  0.93827000000E+00  0.93827000000E+00 0.  1.
     999902    2    1    2    0    0 -0.16186072417E-02  0.13675224597E-01  0.18573606941E-01  0.10208083536E+01  0.10205464635E+01 0.  0.
     999903    2    3    3    0    0  0.10840220078E+00  0.88264269090E-02  0.72750811663E-01  0.13229090383E+00  0.19474590997E-01 0.  0.
         14    1    1    2    0    0  0.16186072417E-02 -0.13675224597E-01 -0.18573606941E-01  0.23121646394E-01  0.00000000000E+00 0.  1.
     999901    1    3    3    0    0 -0.11002080802E+00  0.48487976880E-02 -0.54177204723E-01  0.88851744977E+00  0.88000000000E+00 0. -1.
        -11    1    4    4    0    0  0.45921535013E-01  0.13385814822E-01  0.30792295092E-01  0.56889313358E-01  0.51100000000E-03 0. -1.
         11    1    4    4    0    0  0.62480665764E-01 -0.45593879133E-02  0.41958516572E-01  0.75401590477E-01  0.51100000000E-03 0.  1.
</event>
<event>
 8    1  0.1083484E+005  0.1043930E+01  0.7957747E-01            NaN
         13   -1    0    0    0    0  0.00000000000E+00  0.00000000000E+00  0.74505805969E-08  0.10566000000E+00  0.10566000000E+00 0. -1.
     999900   -1    0    0    0    0 -0.00000000000E+00 -0.00000000000E+00 -0.74505805969E-08  0.93827000000E+00  0.93827000000E+00 0.  1.
     999902    2    1    2    0    0 -0.20720960805E-01 -0.18475982379E-02 -0.68166268226E-02  0.10220384894E+01  0.10218040103E+01 0.  0.
     999903    2    3    3    0    0  0.11490383950E+00  0.29331119036E-01  0.47773027272E-01  0.12943206480E+00  0.20178959043E-01 0.  0.
         14    1    1    2    0    0  0.20720960805E-01  0.18475982379E-02  0.68166268226E-02  0.21891510618E-01  0.00000000000E+00 0.  1.
     999901    1    3    3    0    0 -0.13562480031E+00 -0.31178717273E-01 -0.54589654094E-01  0.89260642458E+00  0.88000000000E+00 0.  1.
        -11    1    4    4    0    0  0.10976131431E+00  0.28948715602E-01  0.49679103215E-01  0.12391064793E+00  0.51100000000E-03 0. -1.
         11    1    4    4    0    0  0.51425251923E-02  0.38240343338E-03 -0.19060759430E-02  0.55214168689E-02  0.51100000000E-03 0.  1.
</event>
<event>
 8    1  0.1083484E+005  0.1043930E+01  0.7957747E-01            NaN
         13   -1    0    0    0    0  0.00000000000E+00  0.00000000000E+00  0.74505805969E-08  0.10566000000E+00  0.10566000000E+00 0. -1.
     999900   -1    0    0    0    0 -0.00000000000E+00 -0.00000000000E+00 -0.74505805969E-08  0.93827000000E+00  0.93827000000E+00 0. -1.
     999902    2    1    2    0    0 -0.22411883650E-01  0.58603691369E-02  0.17015009287E-02  0.10207021813E+01  0.10204378528E+01 0.  0.
     999903    2    3    3    0    0  0.27980075640E-01 -0.60363316752E-01 -0.10945722539E+00  0.12981431600E+00  0.21077424125E-01 0.  0.
         14    1    1    2    0    0  0.22411883650E-01 -0.58603691369E-02 -0.17015009287E-02  0.23227818679E-01  0.00000000000E+00 0. -1.
     999901    1    3    3    0    0 -0.50391959291E-01  0.66223685889E-01  0.11115872632E+00  0.89088786532E+00  0.88000000000E+00 0.  1.
        -11    1    4    4    0    0  0.47623521429E-02 -0.93121458318E-02 -0.35400428922E-01  0.36916765118E-01  0.51100000000E-03 0. -1.
         11    1    4    4    0    0  0.23217723497E-01 -0.51051170920E-01 -0.74056796465E-01  0.92897550885E-01  0.51100000000E-03 0.  1.
</event>
<event>
 8    1  0.1083484E+005  0.1043930E+01  0.7957747E-01            NaN
         13   -1    0    0    0    0  0.00000000000E+00  0.00000000000E+00  0.74505805969E-08  0.10566000000E+00  0.10566000000E+00 0. -1.
     999900   -1    0    0    0    0 -0.00000000000E+00 -0.00000000000E+00 -0.74505805969E-08  0.93827000000E+00  0.93827000000E+00 0. -1.
     999902    2    1    2    0    0  0.20349225850E-01  0.47471376592E-02  0.93693249675E-02  0.10210299878E+01  0.10207731508E+01 0.  0.
     999903    2    3    3    0    0  0.21398070129E-01 -0.95947661730E-01 -0.84180539244E-01  0.13036050937E+00  0.15609869309E-01 0.  0.
         14    1    1    2    0    0 -0.20349225850E-01 -0.47471376592E-02 -0.93693249675E-02  0.22900012205E-01  0.00000000000E+00 0. -1.
     999901    1    3    3    0    0 -0.10488442792E-02  0.10069479939E+00  0.93549864212E-01  0.89066947842E+00  0.88000000000E+00 0.  1.
        -11    1    4    4    0    0  0.83971161161E-04 -0.18911139530E-01 -0.22502602874E-01  0.29398409933E-01  0.51100000000E-03 0.  1.
         11    1    4    4    0    0  0.21314098968E-01 -0.77036522199E-01 -0.61677936370E-01  0.10096209944E+00  0.51100000000E-03 0. -1.
</event>
<event>
 8    1  0.1083484E+005  0.1043930E+01  0.7957747E-01            NaN
         13   -1    0    0    0    0  0.00000000000E+00  0.00000000000E+00  0.74505805969E-08  0.10566000000E+00  0.10566000000E+00 0.  1.
     999900   -1    0    0    0    0 -0.00000000000E+00 -0.00000000000E+00 -0.74505805969E-08  0.93827000000E+00  0.93827000000E+00 0.  1.
     999902    2    1    2    0    0  0.18888648566E-01  0.12665396322E-02  0.90532908975E-02  0.10229455476E+01  0.10227302900E+01 0.  0.
     999903    2    3    3    0    0  0.36085469207E-01  0.61420406839E-01  0.11250243177E+00  0.13467985359E+00  0.20180147258E-01 0.  0.
         14    1    1    2    0    0 -0.18888648566E-01 -0.12665396322E-02 -0.90532908975E-02  0.20984452420E-01  0.00000000000E+00 0.  1.
     999901    1    3    3    0    0 -0.17196820641E-01 -0.60153867207E-01 -0.10344914087E+00  0.88826569399E+00  0.88000000000E+00 0.  1.
        -11    1    4    4    0    0  0.32720269249E-01  0.39755032122E-01  0.70565850375E-01  0.87354902317E-01  0.51100000000E-03 0.  1.
         11    1    4    4    0    0  0.33651999585E-02  0.21665374717E-01  0.41936581395E-01  0.47324951268E-01  0.51100000000E-03 0. -1.
</event>
<event>
 8    1  0.1083484E+005  0.1043930E+01  0.7957747E-01            NaN
         13   -1    0    0    0    0  0.00000000000E+00  0.00000000000E+00  0.74505805969E-08  0.10566000000E+00  0.10566000000E+00 0.  1.
     999900   -1    0    0    0    0 -0.00000000000E+00 -0.00000000000E+00 -0.74505805969E-08  0.93827000000E+00  0.93827000000E+00 0.  1.
     999902    2    1    2    0    0  0.64817717565E-02  0.23874066055E-01  0.78401585736E-03  0.10191792611E+01  0.10188786813E+01 0.  0.
     999903    2    3    3    0    0  0.12211437177E+00 -0.19042192235E-04 -0.41092824442E-01  0.13030612698E+00  0.19471680779E-01 0.  0.
         14    1    1    2    0    0 -0.64817717565E-02 -0.23874066055E-01 -0.78401585736E-03  0.24750738897E-01  0.00000000000E+00 0. -1.
     999901    1    3    3    0    0 -0.11563260002E+00  0.23893108247E-01  0.41876840299E-01  0.88887313412E+00  0.88000000000E+00 0.  1.
        -11    1    4    4    0    0  0.81474163577E-01 -0.89517115213E-02 -0.29427674028E-01  0.87088584725E-01  0.51100000000E-03 0. -1.
         11    1    4    4    0    0  0.40640208196E-01  0.89326693291E-02 -0.11665150414E-01  0.43217542257E-01  0.51100000000E-03 0.  1.
</event>
<event>
 8    1  0.1083484E+005  0.1043930E+01  0.7957747E-01            NaN
         13   -1    0    0    0    0  0.00000000000E+00  0.00000000000E+00  0.74505805969E-08  0.10566000000E+00  0.10566000000E+00 0.  1.
     999900   -1    0    0    0    0 -0.00000000000E+00 -0.00000000000E+00 -0.74505805969E-08  0.93827000000E+00  0.93827000000E+00 0. -1.
     999902    2    1    2    0    0  0.21221536146E-01 -0.10325091594E-01  0.38801566132E-02  0.10200131288E+01  0.10197326935E+01 0.  0.
     999903    2    3    3    0    0  0.63357837908E-01  0.10697821531E+00  0.34928011555E-01  0.13068782103E+00  0.20019650336E-01 0.  0.
         14    1    1    2    0    0 -0.21221536146E-01  0.10325091594E-01 -0.38801566132E-02  0.23916871204E-01  0.00000000000E+00 0. -1.
     999901    1    3    3    0    0 -0.42136301762E-01 -0.11730330690E+00 -0.31047854941E-01  0.88932530777E+00  0.88000000000E+00 0.  1.
        -11    1    4    4    0    0  0.41859822684E-01  0.72354848824E-01  0.13616061226E-01  0.84694315912E-01  0.51100000000E-03 0. -1.
         11    1    4    4    0    0  0.21498015224E-01  0.34623366484E-01  0.21311950328E-01  0.45993505118E-01  0.51100000000E-03 0.  1.
</event>
<event>
 8    1  0.1083484E+005  0.1043930E+01  0.7957747E-01            NaN
         13   -1    0    0    0    0  0.00000000000E+00  0.00000000000E+00  0.74505805969E-08  0.10566000000E+00  0.10566000000E+00 0.  1.
     999900   -1    0    0    0    0 -0.00000000000E+00 -0.00000000000E+00 -0.74505805969E-08  0.93827000000E+00  0.93827000000E+00 0. -1.
     999902    2    1    2    0    0  0.73106539021E-02 -0.21475308844E-01  0.69328116652E-02  0.10202087347E+01  0.10199329213E+01 0.  0.
     999903    2    3    3    0    0  0.12568729122E+00 -0.32172453337E-01 -0.17923308570E-01  0.13187023846E+00  0.15367266352E-01 0.  0.
         14    1    1    2    0    0 -0.73106539021E-02  0.21475308844E-01 -0.69328116652E-02  0.23721265312E-01  0.00000000000E+00 0.  1.
     999901    1    3    3    0    0 -0.11837663731E+00  0.10697144493E-01  0.24856120235E-01  0.88833849622E+00  0.88000000000E+00 0. -1.
        -11    1    4    4    0    0  0.71935217796E-01 -0.26203655536E-01 -0.10727498349E-01  0.77308779997E-01  0.51100000000E-03 0. -1.
         11    1    4    4    0    0  0.53752073420E-01 -0.59687978008E-02 -0.71958102213E-02  0.54561458465E-01  0.51100000000E-03 0.  1.
</event>
<event>
 8    1  0.1083484E+005  0.1043930E+01  0.7957747E-01            NaN
         13   -1    0    0    0    0  0.00000000000E+00  0.00000000000E+00  0.74505805969E-08  0.10566000000E+00  0.10566000000E+00 0. -1.
     999900   -1    0    0    0    0 -0.00000000000E+00 -0.00000000000E+00 -0.74505805969E-08  0.93827000000E+00  0.93827000000E+00 0.  1.
     999902    2    1    2    0    0  0.18942101005E-01 -0.46590842203E-02  0.11898561858E-01  0.10210807980E+01  0.10208251124E+01 0.  0.
     999903    2    3    3    0    0 -0.11367824365E+00 -0.72411435744E-03  0.59469252620E-01  0.12986443237E+00  0.20122409557E-01 0.  0.
         14    1    1    2    0    0 -0.18942101005E-01  0.46590842203E-02 -0.11898561858E-01  0.22849201968E-01  0.00000000000E+00 0. -1.
     999901    1    3    3    0    0  0.13262034466E+00 -0.39349698629E-02 -0.47570690762E-01  0.89121636566E+00  0.88000000000E+00 0. -1.
        -11    1    4    4    0    0 -0.94623472297E-01 -0.60776638824E-03  0.40363859666E-01  0.10287600876E+00  0.51100000000E-03 0. -1.
         11    1    4    4    0    0 -0.19054771354E-01 -0.11634796919E-03  0.19105392954E-01  0.26988423614E-01  0.51100000000E-03 0.  1.
</event>
<event>
 8    1  0.1083484E+005  0.1043930E+01  0.7957747E-01            NaN
         13   -1    0    0    0    0  0.00000000000E+00  0.00000000000E+00  0.74505805969E-08  0.10566000000E+00  0.10566000000E+00 0. -1.
     999900   -1    0    0    0    0 -0.00000000000E+00 -0.00000000000E+00 -0.74505805969E-08  0.93827000000E+00  0.93827000000E+00 0. -1.
     999902    2    1    2    0    0  0.23174134124E-01  0.28320071402E-02 -0.20126643893E-02  0.10204968701E+01  0.10202277934E+01 0.  0.
     999903    2    3    3    0    0  0.56054410816E-01 -0.11224831741E+00 -0.35005578934E-01  0.13178255941E+00  0.19986762467E-01 0.  0.
         14    1    1    2    0    0 -0.23174134124E-01 -0.28320071402E-02  0.20126643893E-02  0.23433129855E-01  0.00000000000E+00 0.  1.
     999901    1    3    3    0    0 -0.32880276692E-01  0.11508032455E+00  0.32992914545E-01  0.88871431073E+00  0.88000000000E+00 0.  1.
        -11    1    4    4    0    0  0.37956505489E-01 -0.87280817690E-01 -0.19077933990E-01  0.97071448593E-01  0.51100000000E-03 0. -1.
         11    1    4    4    0    0  0.18097905327E-01 -0.24967499724E-01 -0.15927644944E-01  0.34711110817E-01  0.51100000000E-03 0.  1.
</event>
<event>
 8    1  0.1083484E+005  0.1043930E+01  0.7957747E-01            NaN
         13   -1    0    0    0    0  0.00000000000E+00  0.00000000000E+00  0.74505805969E-08  0.10566000000E+00  0.10566000000E+00 0.  1.
     999900   -1    0    0    0    0 -0.00000000000E+00 -0.00000000000E+00 -0.74505805969E-08  0.93827000000E+00  0.93827000000E+00 0. -1.
     999902    2    1    2    0    0 -0.63135261155E-02 -0.19261515972E-01  0.10928758279E-01  0.10209016617E+01  0.10206419051E+01 0.  0.
     999903    2    3    3    0    0 -0.11447613542E+00 -0.28596366797E-01 -0.55146567106E-01  0.13177161598E+00  0.20001928387E-01 0.  0.
         14    1    1    2    0    0  0.63135261155E-02  0.19261515972E-01 -0.10928758279E-01  0.23028338348E-01  0.00000000000E+00 0. -1.
     999901    1    3    3    0    0  0.10816260931E+00  0.93348508255E-02  0.66075325385E-01  0.88913004567E+00  0.88000000000E+00 0.  1.
        -11    1    4    4    0    0 -0.33343588613E-01  0.42824101907E-03 -0.12388720358E-01  0.35576956096E-01  0.51100000000E-03 0.  1.
         11    1    4    4    0    0 -0.81132546809E-01 -0.29024607816E-01 -0.42757846748E-01  0.96194659884E-01  0.51100000000E-03 0. -1.
</event>
<event>
 8    1  0.1083484E+005  0.1043930E+01  0.7957747E-01            NaN
         13   -1    0    0    0    0  0.00000000000E+00  0.00000000000E+00  0.74505805969E-08  0.10566000000E+00  0.10566000000E+00 0. -1.
     999900   -1    0    0    0    0 -0.00000000000E+00 -0.00000000000E+00 -0.74505805969E-08  0.93827000000E+00  0.93827000000E+00 0. -1.
     999902    2    1    2    0    0 -0.48115262395E-02 -0.16770789484E-01 -0.15216078497E-01  0.10207796391E+01  0.10205170907E+01 0.  0.
     999903    2    3    3    0    0  0.76553012490E-01  0.65882269783E-02  0.10169897366E+00  0.12902016412E+00  0.19993825262E-01 0.  0.
         14    1    1    2    0    0  0.48115262395E-02  0.16770789484E-01  0.15216078497E-01  0.23150360894E-01  0.00000000000E+00 0. -1.
     999901    1    3    3    0    0 -0.81364538729E-01 -0.23359016463E-01 -0.11691505216E+00  0.89175947499E+00  0.88000000000E+00 0. -1.
        -11    1    4    4    0    0  0.40631548161E-01 -0.54356287152E-02  0.60154459227E-01  0.72796214540E-01  0.51100000000E-03 0. -1.
         11    1    4    4    0    0  0.35921464329E-01  0.12023855693E-01  0.41544514436E-01  0.56223949577E-01  0.51100000000E-03 0.  1.
</event>
<event>
 8    1  0.1083484E+005  0.1043930E+01  0.7957747E-01            NaN
         13   -1    0    0    0    0  0.00000000000E+00  0.00000000000E+00  0.74505805969E-08  0.10566000000E+00  0.10566000000E+00 0.  1.
     999900   -1    0    0    0    0 -0.00000000000E+00 -0.00000000000E+00 -0.74505805969E-08  0.93827000000E+00  0.93827000000E+00 0.  1.
     999902    2    1    2    0    0 -0.73429303661E-02  0.13583913227E-01 -0.19761599530E-01  0.10188508824E+01  0.10185421731E+01 0.  0.
     999903    2    3    3    0    0 -0.60572200262E-01 -0.18884288775E-01 -0.11363962886E+00  0.13166396650E+00  0.19895401947E-01 0.  0.
         14    1    1    2    0    0  0.73429303661E-02 -0.13583913227E-01  0.19761599530E-01  0.25079117626E-01  0.00000000000E+00 0.  1.
     999901    1    3    3    0    0  0.53229269895E-01  0.32468202002E-01  0.93878029332E-01  0.88718691588E+00  0.88000000000E+00 0. -1.
        -11    1    4    4    0    0 -0.34871726359E-01 -0.34925161691E-02 -0.74854802261E-01  0.82654325422E-01  0.51100000000E-03 0. -1.
         11    1    4    4    0    0 -0.25700473903E-01 -0.15391772606E-01 -0.38784826600E-01  0.49009641074E-01  0.51100000000E-03 0.  1.
</event>
<event>
 8    1  0.1083484E+005  0.1043930E+01  0.7957747E-01            NaN
         13   -1    0    0    0    0  0.00000000000E+00  0.00000000000E+00  0.74505805969E-08  0.10566000000E+00  0.10566000000E+00 0.  1.
     999900   -1    0    0    0    0 -0.00000000000E+00 -0.00000000000E+00 -0.74505805969E-08  0.93827000000E+00  0.93827000000E+00 0. -1.
     999902    2    1    2    0    0 -0.14284540557E-01 -0.15413161179E-01  0.12846975428E-01  0.10192995633E+01  0.10190019339E+01 0.  0.
     999903    2    3    3    0    0 -0.69371223527E-01 -0.10553487204E+00  0.34679280338E-01  0.13271447713E+00  0.21459358887E-01 0.  0.
         14    1    1    2    0    0  0.14284540557E-01  0.15413161179E-01 -0.12846975428E-01  0.24630436742E-01  0.00000000000E+00 0. -1.
     999901    1    3    3    0    0  0.55086682970E-01  0.90121710865E-01 -0.21832304910E-01  0.88658508613E+00  0.88000000000E+00 0. -1.
        -11    1    4    4    0    0 -0.29583239663E-01 -0.64385101505E-01  0.18710567296E-01  0.73286805186E-01  0.51100000000E-03 0. -1.
         11    1    4    4    0    0 -0.39787983864E-01 -0.41149770539E-01  0.15968713041E-01  0.59427671943E-01  0.51100000000E-03 0.  1.
</event>
<event>
 8    1  0.1083484E+005  0.1043930E+01  0.7957747E-01            NaN
         13   -1    0    0    0    0  0.00000000000E+00  0.00000000000E+00  0.74505805969E-08  0.10566000000E+00  0.10566000000E+00 0.  1.
     999900   -1    0    0    0    0 -0.00000000000E+00 -0.00000000000E+00 -0.74505805969E-08  0.93827000000E+00  0.93827000000E+00 0. -1.
     999902    2    1    2    0    0 -0.24072078105E-01 -0.73011226732E-03  0.23919197433E-02  0.10197283619E+01  0.10194411276E+01 0.  0.
     999903    2    3    3    0    0  0.18306125362E-01 -0.11144645825E+00 -0.60247892860E-01  0.12957232638E+00  0.20093578230E-01 0.  0.
         14    1    1    2    0    0  0.24072078105E-01  0.73011226732E-03 -0.23919197433E-02  0.24201638132E-01  0.00000000000E+00 0. -1.
     999901    1    3    3    0    0 -0.42378203467E-01  0.11071634598E+00  0.62639812603E-01  0.89015603549E+00  0.88000000000E+00 0.  1.
        -11    1    4    4    0    0  0.73263742183E-03 -0.53126634846E-01 -0.21132254297E-01  0.57182247073E-01  0.51100000000E-03 0. -1.
         11    1    4    4    0    0  0.17573487940E-01 -0.58319823406E-01 -0.39115638563E-01  0.72390079305E-01  0.51100000000E-03 0.  1.
</event>
<event>
 8    1  0.1083484E+005  0.1043930E+01  0.7957747E-01            NaN
         13   -1    0    0    0    0  0.00000000000E+00  0.00000000000E+00  0.74505805969E-08  0.10566000000E+00  0.10566000000E+00 0. -1.
     999900   -1    0    0    0    0 -0.00000000000E+00 -0.00000000000E+00 -0.74505805969E-08  0.93827000000E+00  0.93827000000E+00 0. -1.
     999902    2    1    2    0    0  0.15234791092E-01  0.85233365053E-02 -0.16236387621E-01  0.10200895636E+01  0.10198109390E+01 0.  0.
     999903    2    3    3    0    0 -0.67648508297E-01 -0.10045444911E+00  0.35326999194E-01  0.12801076555E+00  0.21710416933E-01 0.  0.
         14    1    1    2    0    0 -0.15234791092E-01 -0.85233365053E-02  0.16236387621E-01  0.23840436401E-01  0.00000000000E+00 0.  1.
     999901    1    3    3    0    0  0.82883299389E-01  0.10897778561E+00 -0.51563386815E-01  0.89207879805E+00  0.88000000000E+00 0.  1.
        -11    1    4    4    0    0 -0.19926713519E-01 -0.31001225533E-01  0.21338151914E-01  0.42587882599E-01  0.51100000000E-03 0. -1.
         11    1    4    4    0    0 -0.47721794778E-01 -0.69453223575E-01  0.13988847280E-01  0.85422882947E-01  0.51100000000E-03 0.  1.
</event>
<event>
 8    1  0.1083484E+005  0.1043930E+01  0.7957747E-01            NaN
         13   -1    0    0    0    0  0.00000000000E+00  0.00000000000E+00  0.74505805969E-08  0.10566000000E+00  0.10566000000E+00 0. -1.
     999900   -1    0    0    0    0 -0.00000000000E+00 -0.00000000000E+00 -0.74505805969E-08  0.93827000000E+00  0.93827000000E+00 0. -1.
     999902    2    1    2    0    0 -0.12703134305E-01 -0.18055253497E-01 -0.90453028294E-02  0.10200725210E+01  0.10197934932E+01 0.  0.
     999903    2    3    3    0    0 -0.28493523637E-02  0.33626430301E-01  0.12247392025E+00  0.12874463550E+00  0.20891730556E-01 0.  0.
         14    1    1    2    0    0  0.12703134305E-01  0.18055253497E-01  0.90453028294E-02  0.23857478980E-01  0.00000000000E+00 0. -1.
     999901    1    3    3    0    0 -0.98537819415E-02 -0.51681683799E-01 -0.13151922308E+00  0.89132788552E+00  0.88000000000E+00 0. -1.
        -11    1    4    4    0    0 -0.81117042276E-02  0.20950838732E-01  0.47808762895E-01  0.52826852259E-01  0.51100000000E-03 0. -1.
         11    1    4    4    0    0  0.52623518639E-02  0.12675591569E-01  0.74665157356E-01  0.75917783244E-01  0.51100000000E-03 0.  1.
</event>
<event>
 8    1  0.1083484E+005  0.1043930E+01  0.7957747E-01            NaN
         13   -1    0    0    0    0  0.00000000000E+00  0.00000000000E+00  0.74505805969E-08  0.10566000000E+00  0.10566000000E+00 0.  1.
     999900   -1    0    0    0    0 -0.00000000000E+00 -0.00000000000E+00 -0.74505805969E-08  0.93827000000E+00  0.93827000000E+00 0. -1.
     999902    2    1    2    0    0  0.14924279432E-02 -0.23839122883E-01  0.80297197400E-03  0.10200307137E+01  0.10197506955E+01 0.  0.
     999903    2    3    3    0    0 -0.12130622273E+00 -0.46111511740E-01 -0.86674248073E-02  0.13117456319E+00  0.17034394228E-01 0.  0.
         14    1    1    2    0    0 -0.14924279432E-02  0.23839122883E-01 -0.80297197400E-03  0.23899286286E-01  0.00000000000E+00 0.  1.
     999901    1    3    3    0    0  0.12279865067E+00  0.22272388857E-01  0.94703967813E-02  0.88885615053E+00  0.88000000000E+00 0.  1.
        -11    1    4    4    0    0 -0.98488404102E-01 -0.32755851390E-01 -0.16158443329E-02  0.10380647194E+00  0.51100000000E-03 0.  1.
         11    1    4    4    0    0 -0.22817818629E-01 -0.13355660349E-01 -0.70515804745E-02  0.27368091247E-01  0.51100000000E-03 0. -1.
</event>
<event>
 8    1  0.1083484E+005  0.1043930E+01  0.7957747E-01            NaN
         13   -1    0    0    0    0  0.00000000000E+00  0.00000000000E+00  0.74505805969E-08  0.10566000000E+00  0.10566000000E+00 0. -1.
     999900   -1    0    0    0    0 -0.00000000000E+00 -0.00000000000E+00 -0.74505805969E-08  0.93827000000E+00  0.93827000000E+00 0.  1.
     999902    2    1    2    0    0 -0.20727463869E-01 -0.58830384291E-02 -0.13157586554E-01  0.10186840105E+01  0.10183711275E+01 0.  0.
     999903    2    3    3    0    0  0.12035446095E+00  0.48307650393E-02 -0.35635165715E-01  0.12709882860E+00  0.19383359783E-01 0.  0.
         14    1    1    2    0    0  0.20727463869E-01  0.58830384291E-02  0.13157586554E-01  0.25245989454E-01  0.00000000000E+00 0. -1.
     999901    1    3    3    0    0 -0.14108192481E+00 -0.10713803468E-01  0.22477579161E-01  0.89158518194E+00  0.88000000000E+00 0. -1.
        -11    1    4    4    0    0  0.42956693197E-01 -0.39846350945E-02 -0.20396612022E-01  0.47722507376E-01  0.51100000000E-03 0.  1.
         11    1    4    4    0    0  0.77397767748E-01  0.88154001339E-02 -0.15238553693E-01  0.79376321227E-01  0.51100000000E-03 0. -1.
</event>
<event>
 8    1  0.1083484E+005  0.1043930E+01  0.7957747E-01            NaN
         13   -1    0    0    0    0  0.00000000000E+00  0.00000000000E+00  0.74505805969E-08  0.10566000000E+00  0.10566000000E+00 0. -1.
     999900   -1    0    0    0    0 -0.00000000000E+00 -0.00000000000E+00 -0.74505805969E-08  0.93827000000E+00  0.93827000000E+00 0.  1.
     999902    2    1    2    0    0  0.23194597094E-01  0.64630162027E-02  0.13426429914E-02  0.10198143909E+01  0.10195292194E+01 0.  0.
     999903    2    3    3    0    0 -0.13990796048E-01  0.11709147010E+00 -0.52130308200E-01  0.13049961827E+00  0.20160024625E-01 0.  0.
         14    1    1    2    0    0 -0.23194597094E-01 -0.64630162027E-02 -0.13426429914E-02  0.24115609115E-01  0.00000000000E+00 0.  1.
     999901    1    3    3    0    0  0.37185393141E-01 -0.11062845390E+00  0.53472951192E-01  0.88931477261E+00  0.88000000000E+00 0. -1.
        -11    1    4    4    0    0 -0.72182696312E-02  0.86233927939E-01 -0.28728952477E-01  0.91181179942E-01  0.51100000000E-03 0. -1.
         11    1    4    4    0    0 -0.67725264165E-02  0.30857542159E-01 -0.23401355724E-01  0.39318438332E-01  0.51100000000E-03 0.  1.
</event>
<event>
 8    1  0.1083484E+005  0.1043930E+01  0.7957747E-01            NaN
         13   -1    0    0    0    0  0.00000000000E+00  0.00000000000E+00  0.74505805969E-08  0.10566000000E+00  0.10566000000E+00 0.  1.
     999900   -1    0    0    0    0 -0.00000000000E+00 -0.00000000000E+00 -0.74505805969E-08  0.93827000000E+00  0.93827000000E+00 0.  1.
     999902    2    1    2    0    0 -0.16774436958E-01 -0.13667185713E-01  0.90076226518E-02  0.10204926161E+01  0.10202234405E+01 0.  0.
     999903    2    3    3    0    0  0.59562829095E-01 -0.55914414472E-01  0.10056099790E+00  0.13145143194E+00  0.22199376248E-01 0.  0.
         14    1    1    2    0    0  0.16774436958E-01  0.13667185713E-01 -0.90076226518E-02  0.23437383950E-01  0.00000000000E+00 0. -1.
     999901    1    3    3    0    0 -0.76337266052E-01  0.42247228759E-01 -0.91553375243E-01  0.88904118411E+00  0.88000000000E+00 0.  1.
        -11    1    4    4    0    0  0.42759161111E-01 -0.27133978484E-01  0.68635013326E-01  0.85297273241E-01  0.51100000000E-03 0.  1.
         11    1    4    4    0    0  0.16803667984E-01 -0.28780435988E-01  0.31925984570E-01  0.46154158698E-01  0.51100000000E-03 0. -1.
</event>
<event>
 8    1  0.1083484E+005  0.1043930E+01  0.7957747E-01            NaN
         13   -1    0    0    0    0  0.00000000000E+00  0.00000000000E+00  0.74505805969E-08  0.10566000000E+00  0.10566000000E+00 0. -1.
     999900   -1    0    0    0    0 -0.00000000000E+00 -0.00000000000E+00 -0.74505805969E-08  0.93827000000E+00  0.93827000000E+00 0. -1.
     999902    2    1    2    0    0 -0.11566291597E-01  0.20490037234E-01  0.15138668630E-02  0.10203522028E+01  0.10200797544E+01 0.  0.
     999903    2    3    3    0    0 -0.10899875160E-01 -0.10507217274E+00 -0.69412039029E-01  0.12861412647E+00  0.23761178469E-01 0.  0.
         14    1    1    2    0    0  0.11566291597E-01 -0.20490037234E-01 -0.15138668630E-02  0.23577797184E-01  0.00000000000E+00 0. -1.
     999901    1    3    3    0    0 -0.66641643705E-03  0.12556220997E+00  0.70925905892E-01  0.89173807635E+00  0.88000000000E+00 0.  1.
        -11    1    4    4    0    0 -0.55238619512E-02 -0.75024903654E-01 -0.36145657859E-01  0.83462679817E-01  0.51100000000E-03 0.  1.
         11    1    4    4    0    0 -0.53760132087E-02 -0.30047269085E-01 -0.33266381171E-01  0.45151446651E-01  0.51100000000E-03 0. -1.
</event>
<event>
 8    1  0.1083484E+005  0.1043930E+01  0.7957747E-01            NaN
         13   -1    0    0    0    0  0.00000000000E+00  0.00000000000E+00  0.74505805969E-08  0.10566000000E+00  0.10566000000E+00 0.  1.
     999900   -1    0    0    0    0 -0.00000000000E+00 -0.00000000000E+00 -0.74505805969E-08  0.93827000000E+00  0.93827000000E+00 0.  1.
     999902    2    1    2    0    0 -0.22326340062E-01  0.42691866711E-02  0.58094914714E-02  0.10204685080E+01  0.10201987719E+01 0.  0.
     999903    2    3    3    0    0  0.73251613900E-01  0.55831956713E-01  0.89332214714E-01  0.12986763790E+00  0.20058725249E-01 0.  0.
         14    1    1    2    0    0  0.22326340062E-01 -0.42691866711E-02 -0.58094914714E-02  0.23461491993E-01  0.00000000000E+00 0. -1.
     999901    1    3    3    0    0 -0.95577953962E-01 -0.51562770042E-01 -0.83522723242E-01  0.89060087011E+00  0.88000000000E+00 0.  1.
        -11    1    4    4    0    0  0.48658988802E-01  0.42763248908E-01  0.50811644973E-01  0.82331506936E-01  0.51100000000E-03 0. -1.
         11    1    4    4    0    0  0.24592625098E-01  0.13068707805E-01  0.38520569741E-01  0.47536130964E-01  0.51100000000E-03 0.  1.
</event>
<event>
 8    1  0.1083484E+005  0.1043930E+01  0.7957747E-01            NaN
         13   -1    0    0    0    0  0.00000000000E+00  0.00000000000E+00  0.74505805969E-08  0.10566000000E+00  0.10566000000E+00 0.  1.
     999900   -1    0    0    0    0 -0.00000000000E+00 -0.00000000000E+00 -0.74505805969E-08  0.93827000000E+00  0.93827000000E+00 0. -1.
     999902    2    1    2    0    0 -0.23125185478E-01  0.43746741172E-02  0.69003868446E-02  0.10194039462E+01  0.10191088647E+01 0.  0.
     999903    2    3    3    0    0 -0.78933840582E-01 -0.15492400540E-01  0.10304917569E+00  0.13218700753E+00  0.19588432492E-01 0.  0.
         14    1    1    2    0    0  0.23125185478E-01 -0.43746741172E-02 -0.69003868446E-02  0.24526053813E-01  0.00000000000E+00 0. -1.
     999901    1    3    3    0    0  0.55808655103E-01  0.19867074657E-01 -0.96148788841E-01  0.88721693865E+00  0.88000000000E+00 0.  1.
        -11    1    4    4    0    0 -0.54161650429E-01 -0.14071711988E-01  0.57023401812E-01  0.79896351172E-01  0.51100000000E-03 0.  1.
         11    1    4    4    0    0 -0.24772190153E-01 -0.14206885516E-02  0.46025773873E-01  0.52290656360E-01  0.51100000000E-03 0. -1.
</event>
<event>
 8    1  0.1083484E+005  0.1043930E+01  0.7957747E-01            NaN
         13   -1    0    0    0    0  0.00000000000E+00  0.00000000000E+00  0.74505805969E-08  0.10566000000E+00  0.10566000000E+00 0.  1.
     999900   -1    0    0    0    0 -0.00000000000E+00 -0.00000000000E+00 -0.74505805969E-08  0.93827000000E+00  0.93827000000E+00 0.  1.
     999902    2    1    2    0    0 -0.19393881259E-01  0.14919826540E-01  0.57374984515E-02  0.10187974963E+01  0.10184874549E+01 0.  0.
     999903    2    3    3    0    0  0.51644842399E-01  0.44110125770E-01 -0.10697812272E+00  0.12829012120E+00  0.20028567492E-01 0.  0.
         14    1    1    2    0    0  0.19393881259E-01 -0.14919826540E-01 -0.57374984515E-02  0.25132503710E-01  0.00000000000E+00 0. -1.
     999901    1    3    3    0    0 -0.71038723658E-01 -0.29190299230E-01  0.11271562117E+00  0.89050737509E+00  0.88000000000E+00 0. -1.
        -11    1    4    4    0    0  0.39841092438E-01  0.36484152687E-01 -0.97058991635E-01  0.11108156923E+00  0.51100000000E-03 0.  1.
         11    1    4    4    0    0  0.11803749961E-01  0.76259730829E-02 -0.99191310846E-02  0.17208551975E-01  0.51100000000E-03 0. -1.
</event>
<event>
 8    1  0.1083484E+005  0.1043930E+01  0.7957747E-01            NaN
         13   -1    0    0    0    0  0.00000000000E+00  0.00000000000E+00  0.74505805969E-08  0.10566000000E+00  0.10566000000E+00 0. -1.
     999900   -1    0    0    0    0 -0.00000000000E+00 -0.00000000000E+00 -0.74505805969E-08  0.93827000000E+00  0.93827000000E+00 0. -1.
     999902    2    1    2    0    0  0.18104588150E-02  0.17578284361E-01  0.20663044928E-01  0.10167411187E+01  0.10163775220E+01 0.  0.
     999903    2    3    3    0    0  0.51341992621E-01  0.92864491799E-01 -0.68344689320E-01  0.12767207601E+00  0.19218438801E-01 0.  0.
         14    1    1    2    0    0 -0.18104588150E-02 -0.17578284361E-01 -0.20663044928E-01  0.27188881329E-01  0.00000000000E+00 0. -1.
     999901    1    3    3    0    0 -0.49531533806E-01 -0.75286207438E-01  0.89007734248E-01  0.88906904267E+00  0.88000000000E+00 0.  1.
        -11    1    4    4    0    0  0.10189247296E-01  0.64362635017E-02 -0.64584007677E-02  0.13682774200E-01  0.51100000000E-03 0. -1.
         11    1    4    4    0    0  0.41152745325E-01  0.86428228297E-01 -0.61886288552E-01  0.11398930181E+00  0.51100000000E-03 0.  1.
</event>
<event>
 8    1  0.1083484E+005  0.1043930E+01  0.7957747E-01            NaN
         13   -1    0    0    0    0  0.00000000000E+00  0.00000000000E+00  0.74505805969E-08  0.10566000000E+00  0.10566000000E+00 0.  1.
     999900   -1    0    0    0    0 -0.00000000000E+00 -0.00000000000E+00 -0.74505805969E-08  0.93827000000E+00  0.93827000000E+00 0.  1.
     999902    2    1    2    0    0  0.51665506658E-02 -0.14346479453E-01  0.18012524699E-01  0.10203298779E+01  0.10200569072E+01 0.  0.
     999903    2    3    3    0    0  0.93684492979E-01  0.85801206160E-01 -0.14493051160E-01  0.12964385154E+00  0.21420749433E-01 0.  0.
         14    1    1    2    0    0 -0.51665506658E-02  0.14346479453E-01 -0.18012524699E-01  0.23600122129E-01  0.00000000000E+00 0. -1.
     999901    1    3    3    0    0 -0.88517942313E-01 -0.10014768561E+00  0.32505575859E-01  0.89068602633E+00  0.88000000000E+00 0. -1.
        -11    1    4    4    0    0  0.22772441536E-01  0.97102295485E-02 -0.12695232912E-02  0.24794061019E-01  0.51100000000E-03 0. -1.
         11    1    4    4    0    0  0.70912051442E-01  0.76090976611E-01 -0.13223527869E-01  0.10484979052E+00  0.51100000000E-03 0.  1.
</event>
<event>
 8    1  0.1083484E+005  0.1043930E+01  0.7957747E-01            NaN
         13   -1    0    0    0    0  0.00000000000E+00  0.00000000000E+00  0.74505805969E-08  0.10566000000E+00  0.10566000000E+00 0.  1.
     999900   -1    0    0    0    0 -0.00000000000E+00 -0.00000000000E+00 -0.74505805969E-08  0.93827000000E+00  0.93827000000E+00 0. -1.
     999902    2    1    2    0    0  0.19048211006E-01  0.40634697092E-02 -0.13084743695E-01  0.10204660565E+01  0.10201962633E+01 0.  0.
     999903    2    3    3    0    0  0.54636237569E-01 -0.11723036040E+00  0.10128139873E-01  0.13113060861E+00  0.19094015825E-01 0.  0.
         14    1    1    2    0    0 -0.19048211006E-01 -0.40634697092E-02  0.13084743695E-01  0.23463943534E-01  0.00000000000E+00 0.  1.
     999901    1    3    3    0    0 -0.35588026562E-01  0.12129383011E+00 -0.23212883567E-01  0.88933544786E+00  0.88000000000E+00 0. -1.
        -11    1    4    4    0    0  0.53553363301E-02 -0.26282296652E-01  0.66023072757E-02  0.27627709403E-01  0.51100000000E-03 0. -1.
         11    1    4    4    0    0  0.49280901238E-01 -0.90948063750E-01  0.35258325968E-02  0.10350289920E+00  0.51100000000E-03 0.  1.
</event>
<event>
 8    1  0.1083484E+005  0.1043930E+01  0.7957747E-01            NaN
         13   -1    0    0    0    0  0.00000000000E+00  0.00000000000E+00  0.74505805969E-08  0.10566000000E+00  0.10566000000E+00 0. -1.
     999900   -1    0    0    0    0 -0.00000000000E+00 -0.00000000000E+00 -0.74505805969E-08  0.93827000000E+00  0.93827000000E+00 0. -1.
     999902    2    1    2    0    0  0.21995616070E-01  0.59823960915E-03  0.87905445590E-02  0.10202353025E+01  0.10199601138E+01 0.  0.
     999903    2    3    3    0    0  0.45479294428E-01  0.41853748903E-02  0.12289919548E+00  0.13255003455E+00  0.19478599172E-01 0.  0.
         14    1    1    2    0    0 -0.21995616070E-01 -0.59823960915E-03 -0.87905445590E-02  0.23694697520E-01  0.00000000000E+00 0.  1.
     999901    1    3    3    0    0 -0.23483678357E-01 -0.35871352812E-02 -0.11410865092E+00  0.88768526793E+00  0.88000000000E+00 0. -1.
        -11    1    4    4    0    0  0.24112639199E-01 -0.92245667546E-03  0.39375499025E-01  0.46183994413E-01  0.51100000000E-03 0. -1.
         11    1    4    4    0    0  0.21366655228E-01  0.51078315658E-02  0.83523696450E-01  0.86366040136E-01  0.51100000000E-03 0.  1.
</event>
<event>
 8    1  0.1083484E+005  0.1043930E+01  0.7957747E-01            NaN
         13   -1    0    0    0    0  0.00000000000E+00  0.00000000000E+00  0.74505805969E-08  0.10566000000E+00  0.10566000000E+00 0.  1.
     999900   -1    0    0    0    0 -0.00000000000E+00 -0.00000000000E+00 -0.74505805969E-08  0.93827000000E+00  0.93827000000E+00 0. -1.
     999902    2    1    2    0    0 -0.18590389789E-01 -0.12664283355E-01  0.31601355109E-02  0.10212149582E+01  0.10209622999E+01 0.  0.
     999903    2    3    3    0    0  0.59913520354E-01 -0.11505435364E+00  0.11354806198E-01  0.13176920778E+00  0.20175685396E-01 0.  0.
         14    1    1    2    0    0  0.18590389789E-01  0.12664283355E-01 -0.31601355109E-02  0.22715041753E-01  0.00000000000E+00 0. -1.
     999901    1    3    3    0    0 -0.78503910142E-01  0.10239007029E+00 -0.81946706866E-02  0.88944575047E+00  0.88000000000E+00 0. -1.
        -11    1    4    4    0    0  0.39921399950E-01 -0.88422764789E-01  0.14726833624E-02  0.97029549232E-01  0.51100000000E-03 0.  1.
         11    1    4    4    0    0  0.19992120404E-01 -0.26631588854E-01  0.98821228352E-02  0.34739658545E-01  0.51100000000E-03 0. -1.
</event>
<event>
 8    1  0.1392824E+005  0.1043930E+01  0.7957747E-01            NaN
         13   -1    0    0    0    0  0.00000000000E+00  0.00000000000E+00  0.74505805969E-08  0.10566000000E+00  0.10566000000E+00 0.  1.
     999900   -1    0    0    0    0 -0.00000000000E+00 -0.00000000000E+00 -0.74505805969E-08  0.93827000000E+00  0.93827000000E+00 0. -1.
     999902    2    1    2    0    0  0.11006425711E-01  0.10165176340E-01  0.18408597664E-01  0.10201950324E+01  0.10199188965E+01 0.  0.
     999903    2    3    3    0    0 -0.13956118478E-01  0.39957432167E-01  0.12265643675E+00  0.13318977932E+00  0.30059045376E-01 0.  0.
         14    1    1    2    0    0 -0.11006425711E-01 -0.10165176340E-01 -0.18408597664E-01  0.23734967557E-01  0.00000000000E+00 0. -1.
     999901    1    3    3    0    0  0.24962544189E-01 -0.29792255827E-01 -0.10424783909E+00  0.88700525313E+00  0.88000000000E+00 0. -1.
        -11    1    4    4    0    0  0.87788691374E-02  0.10591459065E-01  0.45889556419E-01  0.47909916070E-01  0.51100000000E-03 0.  1.
         11    1    4    4    0    0 -0.22734987615E-01  0.29365973102E-01  0.76766880335E-01  0.85279863247E-01  0.51100000000E-03 0. -1.
</event>
<event>
 8    1  0.1083484E+005  0.1043930E+01  0.7957747E-01            NaN
         13   -1    0    0    0    0  0.00000000000E+00  0.00000000000E+00  0.74505805969E-08  0.10566000000E+00  0.10566000000E+00 0. -1.
     999900   -1    0    0    0    0 -0.00000000000E+00 -0.00000000000E+00 -0.74505805969E-08  0.93827000000E+00  0.93827000000E+00 0.  1.
     999902    2    1    2    0    0  0.16666144937E-02  0.24229667439E-01  0.30634009543E-02  0.10194506452E+01  0.10191567000E+01 0.  0.
     999903    2    3    3    0    0 -0.27203103886E-01 -0.55979435349E-01 -0.11013130657E+00  0.12811456790E+00  0.20266518630E-01 0.  0.
         14    1    1    2    0    0 -0.16666144937E-02 -0.24229667439E-01 -0.30634009543E-02  0.24479354842E-01  0.00000000000E+00 0. -1.
     999901    1    3    3    0    0  0.28869718380E-01  0.80209102788E-01  0.11319470753E+00  0.89133607726E+00  0.88000000000E+00 0. -1.
        -11    1    4    4    0    0 -0.29162082594E-02 -0.39146553383E-02 -0.24556837728E-01  0.25042527772E-01  0.51100000000E-03 0. -1.
         11    1    4    4    0    0 -0.24286895627E-01 -0.52064780011E-01 -0.85574468846E-01  0.10307204013E+00  0.51100000000E-03 0.  1.
</event>
<event>
 8    1  0.1083484E+005  0.1043930E+01  0.7957747E-01            NaN
         13   -1    0    0    0    0  0.00000000000E+00  0.00000000000E+00  0.74505805969E-08  0.10566000000E+00  0.10566000000E+00 0.  1.
     999900   -1    0    0    0    0 -0.00000000000E+00 -0.00000000000E+00 -0.74505805969E-08  0.93827000000E+00  0.93827000000E+00 0. -1.
     999902    2    1    2    0    0  0.19995591810E-01 -0.12579179510E-01  0.30712499398E-02  0.10201079089E+01  0.10198297180E+01 0.  0.
     999903    2    3    3    0    0 -0.10707857165E+00 -0.67612390932E-01  0.15547366886E-01  0.12919144205E+00  0.20284283783E-01 0.  0.
         14    1    1    2    0    0 -0.19995591810E-01  0.12579179510E-01 -0.30712499398E-02  0.23822091117E-01  0.00000000000E+00 0.  1.
     999901    1    3    3    0    0  0.12707416346E+00  0.55033211422E-01 -0.12476116947E-01  0.89091646683E+00  0.88000000000E+00 0. -1.
        -11    1    4    4    0    0 -0.27226301532E-01 -0.19152799964E-01 -0.46783405508E-02  0.33619179539E-01  0.51100000000E-03 0. -1.
         11    1    4    4    0    0 -0.79852270115E-01 -0.48459590969E-01  0.20225707437E-01  0.95572262512E-01  0.51100000000E-03 0.  1.
</event>
<event>
 8    1  0.1083484E+005  0.1043930E+01  0.7957747E-01            NaN
         13   -1    0    0    0    0  0.00000000000E+00  0.00000000000E+00  0.74505805969E-08  0.10566000000E+00  0.10566000000E+00 0. -1.
     999900   -1    0    0    0    0 -0.00000000000E+00 -0.00000000000E+00 -0.74505805969E-08  0.93827000000E+00  0.93827000000E+00 0.  1.
     999902    2    1    2    0    0  0.77586687836E-02  0.16420722128E-02 -0.21339361908E-01  0.10211646380E+01  0.10209108463E+01 0.  0.
     999903    2    3    3    0    0  0.10595533510E-01  0.82451374943E-01  0.97261692111E-01  0.12953444487E+00  0.20219819352E-01 0.  0.
         14    1    1    2    0    0 -0.77586687836E-02 -0.16420722128E-02  0.21339361908E-01  0.22765362046E-01  0.00000000000E+00 0. -1.
     999901    1    3    3    0    0 -0.28368647266E-02 -0.80809302730E-01 -0.11860105402E+00  0.89163019309E+00  0.88000000000E+00 0.  1.
        -11    1    4    4    0    0  0.63192578997E-02  0.93199657788E-02  0.69344628666E-02  0.13234148207E-01  0.51100000000E-03 0.  1.
         11    1    4    4    0    0  0.42762756105E-02  0.73131409164E-01  0.90327229244E-01  0.11630029666E+00  0.51100000000E-03 0. -1.
</event>
<event>
 8    1  0.1083484E+005  0.1043930E+01  0.7957747E-01            NaN
         13   -1    0    0    0    0  0.00000000000E+00  0.00000000000E+00  0.74505805969E-08  0.10566000000E+00  0.10566000000E+00 0.  1.
     999900   -1    0    0    0    0 -0.00000000000E+00 -0.00000000000E+00 -0.74505805969E-08  0.93827000000E+00  0.93827000000E+00 0.  1.
     999902    2    1    2    0    0  0.13538153044E-01  0.52335375996E-02 -0.18528571087E-01  0.10203932320E+01  0.10201217419E+01 0.  0.
     999903    2    3    3    0    0  0.81821925859E-01  0.10118140163E+00  0.10903556764E-01  0.13206057107E+00  0.19713023435E-01 0.  0.
         14    1    1    2    0    0 -0.13538153044E-01 -0.52335375996E-02  0.18528571087E-01  0.23536768049E-01  0.00000000000E+00 0.  1.
     999901    1    3    3    0    0 -0.68283772816E-01 -0.95947864033E-01 -0.29432127852E-01  0.88833266088E+00  0.88000000000E+00 0.  1.
        -11    1    4    4    0    0  0.56163304858E-01  0.63262229916E-01  0.15633017894E-01  0.86029523513E-01  0.51100000000E-03 0.  1.
         11    1    4    4    0    0  0.25658621002E-01  0.37919171717E-01 -0.47294611292E-02  0.46031047554E-01  0.51100000000E-03 0. -1.
</event>
<event>
 8    1  0.1083484E+005  0.1043930E+01  0.7957747E-01            NaN
         13   -1    0    0    0    0  0.00000000000E+00  0.00000000000E+00  0.74505805969E-08  0.10566000000E+00  0.10566000000E+00 0.  1.
     999900   -1    0    0    0    0 -0.00000000000E+00 -0.00000000000E+00 -0.74505805969E-08  0.93827000000E+00  0.93827000000E+00 0.  1.
     999902    2    1    2    0    0  0.12299715107E-01  0.92082625456E-02  0.15829876501E-01  0.10218696265E+01  0.10216314763E+01 0.  0.
     999903    2    3    3    0    0  0.22606763522E-01 -0.64839543333E-01 -0.10856555942E+00  0.12998200053E+00  0.19839547193E-01 0.  0.
         14    1    1    2    0    0 -0.12299715107E-01 -0.92082625456E-02 -0.15829876501E-01  0.22060373543E-01  0.00000000000E+00 0. -1.
     999901    1    3    3    0    0 -0.10307048416E-01  0.74047805879E-01  0.12439543592E+00  0.89188762593E+00  0.88000000000E+00 0. -1.
        -11    1    4    4    0    0  0.48604355358E-02 -0.42690221551E-01 -0.69035268596E-01  0.81315486107E-01  0.51100000000E-03 0. -1.
         11    1    4    4    0    0  0.17746327987E-01 -0.22149321783E-01 -0.39530290825E-01  0.48666514424E-01  0.51100000000E-03 0.  1.
</event>
<event>
 8    1  0.1083484E+005  0.1043930E+01  0.7957747E-01            NaN
         13   -1    0    0    0    0  0.00000000000E+00  0.00000000000E+00  0.74505805969E-08  0.10566000000E+00  0.10566000000E+00 0. -1.
     999900   -1    0    0    0    0 -0.00000000000E+00 -0.00000000000E+00 -0.74505805969E-08  0.93827000000E+00  0.93827000000E+00 0. -1.
     999902    2    1    2    0    0  0.82186317663E-02 -0.22130039081E-01 -0.44790009650E-02  0.10199019750E+01  0.10196188957E+01 0.  0.
     999903    2    3    3    0    0 -0.47309043493E-01  0.11647176771E+00 -0.42151806992E-03  0.12731570645E+00  0.20131894086E-01 0.  0.
         14    1    1    2    0    0 -0.82186317663E-02  0.22130039081E-01  0.44790009650E-02  0.24028025044E-01  0.00000000000E+00 0. -1.
     999901    1    3    3    0    0  0.55527675260E-01 -0.13860180680E+00 -0.40574828951E-02  0.89258626851E+00  0.88000000000E+00 0.  1.
        -11    1    4    4    0    0 -0.15558401061E-01  0.39099888797E-01  0.93535061358E-02  0.43111649766E-01  0.51100000000E-03 0.  1.
         11    1    4    4    0    0 -0.31750642433E-01  0.77371878918E-01 -0.97750242057E-02  0.84204056680E-01  0.51100000000E-03 0. -1.
</event>
<event>
 8    1  0.1083484E+005  0.1043930E+01  0.7957747E-01            NaN
         13   -1    0    0    0    0  0.00000000000E+00  0.00000000000E+00  0.74505805969E-08  0.10566000000E+00  0.10566000000E+00 0. -1.
     999900   -1    0    0    0    0 -0.00000000000E+00 -0.00000000000E+00 -0.74505805969E-08  0.93827000000E+00  0.93827000000E+00 0. -1.
     999902    2    1    2    0    0 -0.71658924321E-02  0.24174037698E-02  0.21000514970E-01  0.10216092589E+01  0.10213653912E+01 0.  0.
     999903    2    3    3    0    0 -0.10559504265E+00  0.76224723652E-01 -0.15859915391E-01  0.13228675865E+00  0.16962549038E-01 0.  0.
         14    1    1    2    0    0  0.71658924321E-02 -0.24174037698E-02 -0.21000514970E-01  0.22320741125E-01  0.00000000000E+00 0.  1.
     999901    1    3    3    0    0  0.98429150218E-01 -0.73807319882E-01  0.36860430361E-01  0.88932250023E+00  0.88000000000E+00 0.  1.
        -11    1    4    4    0    0 -0.53075756790E-01  0.29609430226E-01 -0.12030464922E-01  0.61957626845E-01  0.51100000000E-03 0. -1.
         11    1    4    4    0    0 -0.52519285860E-01  0.46615293426E-01 -0.38294504694E-02  0.70329131805E-01  0.51100000000E-03 0.  1.
</event>
<event>
 8    1  0.1083484E+005  0.1043930E+01  0.7957747E-01            NaN
         13   -1    0    0    0    0  0.00000000000E+00  0.00000000000E+00  0.74505805969E-08  0.10566000000E+00  0.10566000000E+00 0.  1.
     999900   -1    0    0    0    0 -0.00000000000E+00 -0.00000000000E+00 -0.74505805969E-08  0.93827000000E+00  0.93827000000E+00 0. -1.
     999902    2    1    2    0    0 -0.15093705960E-01 -0.16053050588E-01 -0.10762675112E-02  0.10218692034E+01  0.10216310441E+01 0.  0.
     999903    2    3    3    0    0 -0.80224837401E-01  0.91984920743E-01  0.47193387664E-01  0.13156351036E+00  0.13582755206E-01 0.  0.
         14    1    1    2    0    0  0.15093705960E-01  0.16053050588E-01  0.10762675112E-02  0.22060796553E-01  0.00000000000E+00 0. -1.
     999901    1    3    3    0    0  0.65131131441E-01 -0.10803797133E+00 -0.48269655175E-01  0.89030569309E+00  0.88000000000E+00 0. -1.
        -11    1    4    4    0    0 -0.88665945874E-02  0.14985396947E-01  0.30787055463E-02  0.17689493211E-01  0.51100000000E-03 0. -1.
         11    1    4    4    0    0 -0.71358242814E-01  0.76999523796E-01  0.44114682117E-01  0.11387401715E+00  0.51100000000E-03 0.  1.
</event>
<event>
 8    1  0.1083484E+005  0.1043930E+01  0.7957747E-01            NaN
         13   -1    0    0    0    0  0.00000000000E+00  0.00000000000E+00  0.74505805969E-08  0.10566000000E+00  0.10566000000E+00 0. -1.
     999900   -1    0    0    0    0 -0.00000000000E+00 -0.00000000000E+00 -0.74505805969E-08  0.93827000000E+00  0.93827000000E+00 0.  1.
     999902    2    1    2    0    0 -0.21629136961E-01  0.36146695396E-03  0.96050196156E-02  0.10202613155E+01  0.10199867378E+01 0.  0.
     999903    2    3    3    0    0 -0.35781307410E-01  0.93367870955E-01 -0.81419027576E-01  0.13057830888E+00  0.20585806052E-01 0.  0.
         14    1    1    2    0    0  0.21629136961E-01 -0.36146695396E-03 -0.96050196156E-02  0.23668684498E-01  0.00000000000E+00 0. -1.
     999901    1    3    3    0    0  0.14152170449E-01 -0.93006404001E-01  0.91024047191E-01  0.88968300663E+00  0.88000000000E+00 0. -1.
        -11    1    4    4    0    0 -0.26870791562E-01  0.58608454649E-01 -0.40452353135E-01  0.76115993002E-01  0.51100000000E-03 0. -1.
         11    1    4    4    0    0 -0.89105158480E-02  0.34759416306E-01 -0.40966674441E-01  0.54462315874E-01  0.51100000000E-03 0.  1.
</event>
<event>
 8    1  0.1083484E+005  0.1043930E+01  0.7957747E-01            NaN
         13   -1    0    0    0    0  0.00000000000E+00  0.00000000000E+00  0.74505805969E-08  0.10566000000E+00  0.10566000000E+00 0.  1.
     999900   -1    0    0    0    0 -0.00000000000E+00 -0.00000000000E+00 -0.74505805969E-08  0.93827000000E+00  0.93827000000E+00 0. -1.
     999902    2    1    2    0    0 -0.14667791168E-01  0.10556524863E-01  0.15243947381E-01  0.10202876176E+01  0.10200136569E+01 0.  0.
     999903    2    3    3    0    0 -0.44826546078E-01  0.54980659609E-01  0.11130252687E+00  0.13343345542E+00  0.19594447476E-01 0.  0.
         14    1    1    2    0    0  0.14667791168E-01 -0.10556524863E-01 -0.15243947381E-01  0.23642382424E-01  0.00000000000E+00 0. -1.
     999901    1    3    3    0    0  0.30158754910E-01 -0.44424134746E-01 -0.96058579492E-01  0.88685416216E+00  0.88000000000E+00 0. -1.
        -11    1    4    4    0    0 -0.32914413857E-01  0.25421022253E-01  0.66914766254E-01  0.78787271026E-01  0.51100000000E-03 0.  1.
         11    1    4    4    0    0 -0.11912132220E-01  0.29559637357E-01  0.44387760618E-01  0.54646184390E-01  0.51100000000E-03 0. -1.
</event>
<event>
 8    1  0.1083484E+005  0.1043930E+01  0.7957747E-01            NaN
         13   -1    0    0    0    0  0.00000000000E+00  0.00000000000E+00  0.74505805969E-08  0.10566000000E+00  0.10566000000E+00 0. -1.
     999900   -1    0    0    0    0 -0.00000000000E+00 -0.00000000000E+00 -0.74505805969E-08  0.93827000000E+00  0.93827000000E+00 0. -1.
     999902    2    1    2    0    0 -0.22811479239E-01 -0.69759460493E-02 -0.30226775250E-02  0.10198849592E+01  0.10196014741E+01 0.  0.
     999903    2    3    3    0    0 -0.78588006348E-01  0.86463892296E-01 -0.56704110697E-01  0.13155859988E+00  0.20981649605E-01 0.  0.
         14    1    1    2    0    0  0.22811479239E-01  0.69759460493E-02  0.30226775250E-02  0.24045040815E-01  0.00000000000E+00 0.  1.
     999901    1    3    3    0    0  0.55776527109E-01 -0.93439838345E-01  0.53681433172E-01  0.88832635930E+00  0.88000000000E+00 0.  1.
        -11    1    4    4    0    0 -0.71914046342E-01  0.72349288122E-01 -0.42730046920E-01  0.11059913012E+00  0.51100000000E-03 0.  1.
         11    1    4    4    0    0 -0.66739600063E-02  0.14114604174E-01 -0.13974063777E-01  0.20959469760E-01  0.51100000000E-03 0. -1.
</event>
<event>
 8    1  0.1083484E+005  0.1043930E+01  0.7957747E-01            NaN
         13   -1    0    0    0    0  0.00000000000E+00  0.00000000000E+00  0.74505805969E-08  0.10566000000E+00  0.10566000000E+00 0. -1.
     999900   -1    0    0    0    0 -0.00000000000E+00 -0.00000000000E+00 -0.74505805969E-08  0.93827000000E+00  0.93827000000E+00 0.  1.
     999902    2    1    2    0    0 -0.16053317596E-01  0.29805049051E-02 -0.19286078913E-01  0.10186605470E+01  0.10183470748E+01 0.  0.
     999903    2    3    3    0    0  0.10246191909E-01 -0.27939359125E-01 -0.12626461189E+00  0.13125302578E+00  0.19975292809E-01 0.  0.
         14    1    1    2    0    0  0.16053317596E-01 -0.29805049051E-02  0.19286078913E-01  0.25269453004E-01  0.00000000000E+00 0. -1.
     999901    1    3    3    0    0 -0.26299509505E-01  0.30919864031E-01  0.10697853298E+00  0.88740752122E+00  0.88000000000E+00 0. -1.
        -11    1    4    4    0    0  0.10009479207E-01 -0.12682861817E-01 -0.96046083239E-01  0.97396898742E-01  0.51100000000E-03 0.  1.
         11    1    4    4    0    0  0.23671270260E-03 -0.15256497308E-01 -0.30218528654E-01  0.33856127038E-01  0.51100000000E-03 0. -1.
</event>
<event>
 8    1  0.1083484E+005  0.1043930E+01  0.7957747E-01            NaN
         13   -1    0    0    0    0  0.00000000000E+00  0.00000000000E+00  0.74505805969E-08  0.10566000000E+00  0.10566000000E+00 0. -1.
     999900   -1    0    0    0    0 -0.00000000000E+00 -0.00000000000E+00 -0.74505805969E-08  0.93827000000E+00  0.93827000000E+00 0.  1.
     999902    2    1    2    0    0  0.12610062083E-01  0.20102297368E-01 -0.23057189475E-02  0.10200881803E+01  0.10198095230E+01 0.  0.
     999903    2    3    3    0    0  0.10634466861E+00 -0.22432842833E-01 -0.71112738231E-01  0.13142073943E+00  0.20049145484E-01 0.  0.
         14    1    1    2    0    0 -0.12610062083E-01 -0.20102297368E-01  0.23057189475E-02  0.23841819668E-01  0.00000000000E+00 0.  1.
     999901    1    3    3    0    0 -0.93734606528E-01  0.42535140202E-01  0.68807019284E-01  0.88866744090E+00  0.88000000000E+00 0.  1.
        -11    1    4    4    0    0  0.26531213066E-01 -0.41860198690E-02 -0.28331500473E-01  0.39043092464E-01  0.51100000000E-03 0.  1.
         11    1    4    4    0    0  0.79813455544E-01 -0.18246822964E-01 -0.42781237759E-01  0.92377646968E-01  0.51100000000E-03 0. -1.
</event>
<event>
 8    1  0.1083484E+005  0.1043930E+01  0.7957747E-01            NaN
         13   -1    0    0    0    0  0.00000000000E+00  0.00000000000E+00  0.74505805969E-08  0.10566000000E+00  0.10566000000E+00 0.  1.
     999900   -1    0    0    0    0 -0.00000000000E+00 -0.00000000000E+00 -0.74505805969E-08  0.93827000000E+00  0.93827000000E+00 0.  1.
     999902    2    1    2    0    0  0.72934740330E-02  0.93059420066E-02  0.20798732000E-01  0.10200054818E+01  0.10197248650E+01 0.  0.
     999903    2    3    3    0    0  0.83604203237E-01  0.98416870042E-01  0.20101207367E-01  0.13221914968E+00  0.20057464880E-01 0.  0.
         14    1    1    2    0    0 -0.72934740330E-02 -0.93059420066E-02 -0.20798732000E-01  0.23924518238E-01  0.00000000000E+00 0. -1.
     999901    1    3    3    0    0 -0.76310729204E-01 -0.89110928036E-01  0.69752463269E-03  0.88778633208E+00  0.88000000000E+00 0. -1.
        -11    1    4    4    0    0  0.35287385383E-01  0.56889240250E-01  0.90636313566E-02  0.67557351619E-01  0.51100000000E-03 0.  1.
         11    1    4    4    0    0  0.48316817853E-01  0.41527629793E-01  0.11037576011E-01  0.64661798064E-01  0.51100000000E-03 0. -1.
</event>
<event>
 8    1  0.1083484E+005  0.1043930E+01  0.7957747E-01            NaN
         13   -1    0    0    0    0  0.00000000000E+00  0.00000000000E+00  0.74505805969E-08  0.10566000000E+00  0.10566000000E+00 0.  1.
     999900   -1    0    0    0    0 -0.00000000000E+00 -0.00000000000E+00 -0.74505805969E-08  0.93827000000E+00  0.93827000000E+00 0. -1.
     999902    2    1    2    0    0  0.44133676002E-02  0.21864887462E-01 -0.67576189517E-02  0.10206229939E+01  0.10203568392E+01 0.  0.
     999903    2    3    3    0    0  0.12505516090E+00 -0.26710660140E-01  0.19306915253E-01  0.13068289143E+00  0.18788520513E-01 0.  0.
         14    1    1    2    0    0 -0.44133676002E-02 -0.21864887462E-01  0.67576189517E-02  0.23307006054E-01  0.00000000000E+00 0.  1.
     999901    1    3    3    0    0 -0.12064179330E+00  0.48575547601E-01 -0.26064534205E-01  0.88994010251E+00  0.88000000000E+00 0.  1.
        -11    1    4    4    0    0  0.41175149788E-01 -0.14721207996E-02  0.11272552119E-02  0.41220042758E-01  0.51100000000E-03 0.  1.
         11    1    4    4    0    0  0.83880011117E-01 -0.25238539340E-01  0.18179660041E-01  0.89462848676E-01  0.51100000000E-03 0. -1.
</event>
<event>
 8    1  0.1083484E+005  0.1043930E+01  0.7957747E-01            NaN
         13   -1    0    0    0    0  0.00000000000E+00  0.00000000000E+00  0.74505805969E-08  0.10566000000E+00  0.10566000000E+00 0. -1.
     999900   -1    0    0    0    0 -0.00000000000E+00 -0.00000000000E+00 -0.74505805969E-08  0.93827000000E+00  0.93827000000E+00 0. -1.
     999902    2    1    2    0    0  0.68848213692E-02 -0.16679055950E-01  0.15516047615E-01  0.10201321134E+01  0.10198544942E+01 0.  0.
     999903    2    3    3    0    0 -0.11376416952E+00  0.50825164371E-01  0.28078022561E-01  0.12925007746E+00  0.19792007757E-01 0.  0.
         14    1    1    2    0    0 -0.68848213692E-02  0.16679055950E-01 -0.15516047615E-01  0.23797886593E-01  0.00000000000E+00 0.  1.
     999901    1    3    3    0    0  0.12064899089E+00 -0.67504220322E-01 -0.12561974946E-01  0.89088203595E+00  0.88000000000E+00 0. -1.
        -11    1    4    4    0    0 -0.70466769023E-01  0.33182092525E-01  0.77811707703E-02  0.78277867501E-01  0.51100000000E-03 0.  1.
         11    1    4    4    0    0 -0.43297400500E-01  0.17643071847E-01  0.20296851790E-01  0.50972209956E-01  0.51100000000E-03 0. -1.
</event>
<event>
 8    1  0.1083484E+005  0.1043930E+01  0.7957747E-01            NaN
         13   -1    0    0    0    0  0.00000000000E+00  0.00000000000E+00  0.74505805969E-08  0.10566000000E+00  0.10566000000E+00 0.  1.
     999900   -1    0    0    0    0 -0.00000000000E+00 -0.00000000000E+00 -0.74505805969E-08  0.93827000000E+00  0.93827000000E+00 0.  1.
     999902    2    1    2    0    0  0.16118388081E-01 -0.11511385114E-01 -0.13477769010E-01  0.10199724400E+01  0.10196910384E+01 0.  0.
     999903    2    3    3    0    0  0.10802019828E+00  0.51473333559E-01  0.48828686907E-01  0.13076205327E+00  0.19914984430E-01 0.  0.
         14    1    1    2    0    0 -0.16118388081E-01  0.11511385114E-01  0.13477769010E-01  0.23957559956E-01  0.00000000000E+00 0.  1.
     999901    1    3    3    0    0 -0.91901810201E-01 -0.62984718673E-01 -0.62306455917E-01  0.88921038678E+00  0.88000000000E+00 0. -1.
        -11    1    4    4    0    0  0.92578761572E-01  0.41185059187E-01  0.48153971189E-01  0.11218779905E+00  0.51100000000E-03 0. -1.
         11    1    4    4    0    0  0.15441436710E-01  0.10288274373E-01  0.67471571781E-03  0.18574254212E-01  0.51100000000E-03 0.  1.
</event>
<event>
 8    1  0.1083484E+005  0.1043930E+01  0.7957747E-01            NaN
         13   -1    0    0    0    0  0.00000000000E+00  0.00000000000E+00  0.74505805969E-08  0.10566000000E+00  0.10566000000E+00 0.  1.
     999900   -1    0    0    0    0 -0.00000000000E+00 -0.00000000000E+00 -0.74505805969E-08  0.93827000000E+00  0.93827000000E+00 0.  1.
     999902    2    1    2    0    0  0.14264457625E-01  0.10098426367E-01 -0.17415402850E-01  0.10192571562E+01  0.10189584884E+01 0.  0.
     999903    2    3    3    0    0 -0.87000053359E-01  0.54446990084E-01  0.73324857882E-01  0.12771069568E+00  0.20000074848E-01 0.  0.
         14    1    1    2    0    0 -0.14264457625E-01 -0.10098426367E-01  0.17415402850E-01  0.24672843834E-01  0.00000000000E+00 0. -1.
     999901    1    3    3    0    0  0.10126451098E+00 -0.44348563718E-01 -0.90740260732E-01  0.89154646049E+00  0.88000000000E+00 0.  1.
        -11    1    4    4    0    0 -0.70663986759E-01  0.34781658218E-01  0.51619580340E-01  0.94170085317E-01  0.51100000000E-03 0.  1.
         11    1    4    4    0    0 -0.16336066600E-01  0.19665331866E-01  0.21705277541E-01  0.33540610363E-01  0.51100000000E-03 0. -1.
</event>
<event>
 8    1  0.1083484E+005  0.1043930E+01  0.7957747E-01            NaN
         13   -1    0    0    0    0  0.00000000000E+00  0.00000000000E+00  0.74505805969E-08  0.10566000000E+00  0.10566000000E+00 0.  1.
     999900   -1    0    0    0    0 -0.00000000000E+00 -0.00000000000E+00 -0.74505805969E-08  0.93827000000E+00  0.93827000000E+00 0. -1.
     999902    2    1    2    0    0 -0.46163978610E-02  0.38054837203E-02  0.11320082951E-01  0.10311262071E+01  0.10310467098E+01 0.  0.
     999903    2    3    3    0    0 -0.10992080606E+00 -0.14832819309E-01 -0.82630549529E-01  0.13968741159E+00  0.19549145975E-01 0.  0.
         14    1    1    2    0    0  0.46163978610E-02 -0.38054837203E-02 -0.11320082951E-01  0.12803792937E-01  0.00000000000E+00 0. -1.
     999901    1    3    3    0    0  0.10530440820E+00  0.18638303030E-01  0.93950632480E-01  0.89143879547E+00  0.88000000000E+00 0.  1.
        -11    1    4    4    0    0 -0.83858772050E-01 -0.41982491152E-02 -0.55938971921E-01  0.10089275814E+00  0.51100000000E-03 0.  1.
         11    1    4    4    0    0 -0.26062034010E-01 -0.10634570194E-01 -0.26691577608E-01  0.38794653448E-01  0.51100000000E-03 0. -1.
</event>
<event>
 8    1  0.1083484E+005  0.1043930E+01  0.7957747E-01            NaN
         13   -1    0    0    0    0  0.00000000000E+00  0.00000000000E+00  0.74505805969E-08  0.10566000000E+00  0.10566000000E+00 0.  1.
     999900   -1    0    0    0    0 -0.00000000000E+00 -0.00000000000E+00 -0.74505805969E-08  0.93827000000E+00  0.93827000000E+00 0. -1.
     999902    2    1    2    0    0  0.90689311197E-02  0.22047003991E-01 -0.11061945366E-01  0.10176491604E+01  0.10173097518E+01 0.  0.
     999903    2    3    3    0    0  0.36687990013E-02  0.82907026229E-01  0.96654508702E-01  0.12897827741E+00  0.20156063785E-01 0.  0.
         14    1    1    2    0    0 -0.90689311197E-02 -0.22047003991E-01  0.11061945366E-01  0.26280839635E-01  0.00000000000E+00 0.  1.
     999901    1    3    3    0    0  0.54001321184E-02 -0.60860022238E-01 -0.10771645407E+00  0.88867088295E+00  0.88000000000E+00 0. -1.
        -11    1    4    4    0    0 -0.51023065583E-02  0.10238040330E-01  0.77928456226E-02  0.13850652183E-01  0.51100000000E-03 0.  1.
         11    1    4    4    0    0  0.87711055596E-02  0.72668985899E-01  0.88861663079E-01  0.11512762523E+00  0.51100000000E-03 0. -1.
</event>
<event>
 8    1  0.1083484E+005  0.1043930E+01  0.7957747E-01            NaN
         13   -1    0    0    0    0  0.00000000000E+00  0.00000000000E+00  0.74505805969E-08  0.10566000000E+00  0.10566000000E+00 0. -1.
     999900   -1    0    0    0    0 -0.00000000000E+00 -0.00000000000E+00 -0.74505805969E-08  0.93827000000E+00  0.93827000000E+00 0.  1.
     999902    2    1    2    0    0  0.14784927565E-01 -0.17693730136E-01 -0.39541223057E-02  0.10205356149E+01  0.10202674375E+01 0.  0.
     999903    2    3    3    0    0  0.94861461002E-01 -0.61881640352E-01  0.67434210004E-01  0.13292020464E+00  0.17098945150E-01 0.  0.
         14    1    1    2    0    0 -0.14784927565E-01  0.17693730136E-01  0.39541223057E-02  0.23394385062E-01  0.00000000000E+00 0. -1.
     999901    1    3    3    0    0 -0.80076533438E-01  0.44187910217E-01 -0.71388332310E-01  0.88761541030E+00  0.88000000000E+00 0.  1.
        -11    1    4    4    0    0  0.71114786634E-01 -0.37085118209E-01  0.46853247018E-01  0.92887602767E-01  0.51100000000E-03 0. -1.
         11    1    4    4    0    0  0.23746674368E-01 -0.24796522143E-01  0.20580962987E-01  0.40032601869E-01  0.51100000000E-03 0.  1.
</event>
<event>
 8    1  0.1083484E+005  0.1043930E+01  0.7957747E-01            NaN
         13   -1    0    0    0    0  0.00000000000E+00  0.00000000000E+00  0.74505805969E-08  0.10566000000E+00  0.10566000000E+00 0. -1.
     999900   -1    0    0    0    0 -0.00000000000E+00 -0.00000000000E+00 -0.74505805969E-08  0.93827000000E+00  0.93827000000E+00 0. -1.
     999902    2    1    2    0    0  0.23398275696E-01 -0.46452669049E-04 -0.37682575113E-02  0.10202301851E+01  0.10199548761E+01 0.  0.
     999903    2    3    3    0    0 -0.52365556443E-01  0.67209791627E-02  0.11582902818E+00  0.12888879865E+00  0.20214736800E-01 0.  0.
         14    1    1    2    0    0 -0.23398275696E-01  0.46452669049E-04  0.37682575113E-02  0.23699814937E-01  0.00000000000E+00 0.  1.
     999901    1    3    3    0    0  0.75763832139E-01 -0.67674318318E-02 -0.11959728570E+00  0.89134138642E+00  0.88000000000E+00 0. -1.
        -11    1    4    4    0    0 -0.19894071872E-01 -0.41785619800E-02  0.60375282796E-01  0.63707694744E-01  0.51100000000E-03 0.  1.
         11    1    4    4    0    0 -0.32471484571E-01  0.10899541143E-01  0.55453745388E-01  0.65181103902E-01  0.51100000000E-03 0. -1.
</event>
<event>
 8    1  0.1083484E+005  0.1043930E+01  0.7957747E-01            NaN
         13   -1    0    0    0    0  0.00000000000E+00  0.00000000000E+00  0.74505805969E-08  0.10566000000E+00  0.10566000000E+00 0. -1.
     999900   -1    0    0    0    0 -0.00000000000E+00 -0.00000000000E+00 -0.74505805969E-08  0.93827000000E+00  0.93827000000E+00 0. -1.
     999902    2    1    2    0    0  0.15370262362E-01  0.13399811098E-02 -0.18282225448E-01  0.10200076196E+01  0.10197270536E+01 0.  0.
     999903    2    3    3    0    0 -0.10032219687E+00  0.26109260167E-01 -0.76410060514E-01  0.13018903841E+00  0.19090618709E-01 0.  0.
         14    1    1    2    0    0 -0.15370262362E-01 -0.13399811098E-02  0.18282225448E-01  0.23922380353E-01  0.00000000000E+00 0. -1.
     999901    1    3    3    0    0  0.11569245923E+00 -0.24769279057E-01  0.58127835067E-01  0.88981858124E+00  0.88000000000E+00 0. -1.
        -11    1    4    4    0    0 -0.81494351480E-01  0.25530578401E-01 -0.69537847900E-01  0.11013134508E+00  0.51100000000E-03 0. -1.
         11    1    4    4    0    0 -0.18827845390E-01  0.57868176537E-03 -0.68722126140E-02  0.20057693332E-01  0.51100000000E-03 0.  1.
</event>
<event>
 8    1  0.1083484E+005  0.1043930E+01  0.7957747E-01            NaN
         13   -1    0    0    0    0  0.00000000000E+00  0.00000000000E+00  0.74505805969E-08  0.10566000000E+00  0.10566000000E+00 0. -1.
     999900   -1    0    0    0    0 -0.00000000000E+00 -0.00000000000E+00 -0.74505805969E-08  0.93827000000E+00  0.93827000000E+00 0. -1.
     999902    2    1    2    0    0  0.17080550311E-01  0.10198618545E-01  0.12655984775E-01  0.10203518116E+01  0.10200793540E+01 0.  0.
     999903    2    3    3    0    0  0.70314656278E-01 -0.83197920738E-01  0.71608740914E-01  0.13185183349E+00  0.19774966915E-01 0.  0.
         14    1    1    2    0    0 -0.17080550311E-01 -0.10198618545E-01 -0.12655984775E-01  0.23578188433E-01  0.00000000000E+00 0. -1.
     999901    1    3    3    0    0 -0.53234105967E-01  0.93396539283E-01 -0.58952756139E-01  0.88849997808E+00  0.88000000000E+00 0. -1.
        -11    1    4    4    0    0  0.56826723853E-01 -0.75016871937E-01  0.55301606509E-01  0.10915739289E+00  0.51100000000E-03 0. -1.
         11    1    4    4    0    0  0.13487932425E-01 -0.81810488006E-02  0.16307134405E-01  0.22694440599E-01  0.51100000000E-03 0.  1.
</event>
<event>
 8    1  0.1083484E+005  0.1043930E+01  0.7957747E-01            NaN
         13   -1    0    0    0    0  0.00000000000E+00  0.00000000000E+00  0.74505805969E-08  0.10566000000E+00  0.10566000000E+00 0. -1.
     999900   -1    0    0    0    0 -0.00000000000E+00 -0.00000000000E+00 -0.74505805969E-08  0.93827000000E+00  0.93827000000E+00 0. -1.
     999902    2    1    2    0    0  0.18551712275E-01  0.14921727780E-01 -0.11828001964E-02  0.10200925714E+01  0.10198140179E+01 0.  0.
     999903    2    3    3    0    0 -0.96143974121E-01  0.84893765636E-01  0.39965721692E-02  0.12988023013E+00  0.20057078223E-01 0.  0.
         14    1    1    2    0    0 -0.18551712275E-01 -0.14921727780E-01  0.11828001964E-02  0.23837428648E-01  0.00000000000E+00 0.  1.
     999901    1    3    3    0    0  0.11469568640E+00 -0.69972037856E-01 -0.51793723656E-02  0.89021234122E+00  0.88000000000E+00 0.  1.
        -11    1    4    4    0    0 -0.25602614523E-01  0.35043217036E-01  0.27928516352E-02  0.43492321988E-01  0.51100000000E-03 0. -1.
         11    1    4    4    0    0 -0.70541359598E-01  0.49850548600E-01  0.12037205340E-02  0.86387908145E-01  0.51100000000E-03 0.  1.
</event>
<event>
 8    1  0.1083484E+005  0.1043930E+01  0.7957747E-01            NaN
         13   -1    0    0    0    0  0.00000000000E+00  0.00000000000E+00  0.74505805969E-08  0.10566000000E+00  0.10566000000E+00 0. -1.
     999900   -1    0    0    0    0 -0.00000000000E+00 -0.00000000000E+00 -0.74505805969E-08  0.93827000000E+00  0.93827000000E+00 0.  1.
     999902    2    1    2    0    0  0.20676859785E-01 -0.46900849681E-02 -0.50661562007E-02  0.10221310237E+01  0.10218985440E+01 0.  0.
     999903    2    3    3    0    0  0.10823040087E+00 -0.74125624168E-01  0.21838916707E-01  0.13465662996E+00  0.21143364851E-01 0.  0.
         14    1    1    2    0    0 -0.20676859785E-01  0.46900849681E-02  0.50661562007E-02  0.21798976265E-01  0.00000000000E+00 0.  1.
     999901    1    3    3    0    0 -0.87553541089E-01  0.69435539200E-01 -0.26905072908E-01  0.88747439378E+00  0.88000000000E+00 0. -1.
        -11    1    4    4    0    0  0.21485132273E-01 -0.12564511182E-01  0.12555079817E-01  0.27881337849E-01  0.51100000000E-03 0.  1.
         11    1    4    4    0    0  0.86745268601E-01 -0.61561112986E-01  0.92838368903E-02  0.10677529211E+00  0.51100000000E-03 0. -1.
</event>
<event>
 8    1  0.1083484E+005  0.1043930E+01  0.7957747E-01            NaN
         13   -1    0    0    0    0  0.00000000000E+00  0.00000000000E+00  0.74505805969E-08  0.10566000000E+00  0.10566000000E+00 0. -1.
     999900   -1    0    0    0    0 -0.00000000000E+00 -0.00000000000E+00 -0.74505805969E-08  0.93827000000E+00  0.93827000000E+00 0. -1.
     999902    2    1    2    0    0 -0.23368318368E-02  0.26918879894E-01  0.44498430390E-02  0.10165459174E+01  0.10161770093E+01 0.  0.
     999903    2    3    3    0    0  0.79168181848E-01 -0.18912569001E-01 -0.94375690396E-01  0.12609093535E+00  0.19153766128E-01 0.  0.
         14    1    1    2    0    0  0.23368318368E-02 -0.26918879894E-01 -0.44498430390E-02  0.27384082618E-01  0.00000000000E+00 0. -1.
     999901    1    3    3    0    0 -0.81505013685E-01  0.45831448895E-01  0.98825533435E-01  0.89045498203E+00  0.88000000000E+00 0.  1.
        -11    1    4    4    0    0  0.18748758452E-02  0.30124888491E-03 -0.94820508569E-02  0.96838174176E-02  0.51100000000E-03 0. -1.
         11    1    4    4    0    0  0.77293306003E-01 -0.19213817886E-01 -0.84893639539E-01  0.11640711793E+00  0.51100000000E-03 0.  1.
</event>
<event>
 8    1  0.1083484E+005  0.1043930E+01  0.7957747E-01            NaN
         13   -1    0    0    0    0  0.00000000000E+00  0.00000000000E+00  0.74505805969E-08  0.10566000000E+00  0.10566000000E+00 0. -1.
     999900   -1    0    0    0    0 -0.00000000000E+00 -0.00000000000E+00 -0.74505805969E-08  0.93827000000E+00  0.93827000000E+00 0.  1.
     999902    2    1    2    0    0 -0.44875217914E-02  0.15502344517E-01 -0.17881220335E-01  0.10198426884E+01  0.10195581938E+01 0.  0.
     999903    2    3    3    0    0  0.24838911166E-01 -0.12466594480E+00 -0.63119928672E-02  0.12819195187E+00  0.15322074619E-01 0.  0.
         14    1    1    2    0    0  0.44875217914E-02 -0.15502344517E-01  0.17881220335E-01  0.24087311557E-01  0.00000000000E+00 0. -1.
     999901    1    3    3    0    0 -0.29326432958E-01  0.14016828932E+00 -0.11569227468E-01  0.89165073657E+00  0.88000000000E+00 0.  1.
        -11    1    4    4    0    0  0.11197004847E-01 -0.83360418911E-01  0.78272916062E-03  0.84114244599E-01  0.51100000000E-03 0.  1.
         11    1    4    4    0    0  0.13641906319E-01 -0.41305525889E-01 -0.70947220278E-02  0.44077707275E-01  0.51100000000E-03 0. -1.
</event>
<event>
 8    1  0.1083484E+005  0.1043930E+01  0.7957747E-01            NaN
         13   -1    0    0    0    0  0.00000000000E+00  0.00000000000E+00  0.74505805969E-08  0.10566000000E+00  0.10566000000E+00 0.  1.
     999900   -1    0    0    0    0 -0.00000000000E+00 -0.00000000000E+00 -0.74505805969E-08  0.93827000000E+00  0.93827000000E+00 0.  1.
     999902    2    1    2    0    0  0.52925520409E-02 -0.16757388498E-01 -0.15647257419E-01  0.10204000650E+01  0.10201287344E+01 0.  0.
     999903    2    3    3    0    0 -0.42307886152E-02  0.48881962033E-01  0.11652914031E+00  0.12806054527E+00  0.20325278071E-01 0.  0.
         14    1    1    2    0    0 -0.52925520409E-02  0.16757388498E-01  0.15647257419E-01  0.23529935000E-01  0.00000000000E+00 0.  1.
     999901    1    3    3    0    0  0.95233406561E-02 -0.65639350532E-01 -0.13217639773E+00  0.89233951973E+00  0.88000000000E+00 0.  1.
        -11    1    4    4    0    0 -0.39180341487E-02  0.37955932608E-02  0.38553773943E-02  0.66994459207E-02  0.51100000000E-03 0.  1.
         11    1    4    4    0    0 -0.31275446656E-03  0.45086368773E-01  0.11267376292E+00  0.12136109935E+00  0.51100000000E-03 0. -1.
</event>
<event>
 8    1  0.1083484E+005  0.1043930E+01  0.7957747E-01            NaN
         13   -1    0    0    0    0  0.00000000000E+00  0.00000000000E+00  0.74505805969E-08  0.10566000000E+00  0.10566000000E+00 0.  1.
     999900   -1    0    0    0    0 -0.00000000000E+00 -0.00000000000E+00 -0.74505805969E-08  0.93827000000E+00  0.93827000000E+00 0. -1.
     999902    2    1    2    0    0 -0.16226540312E-01  0.66287622547E-02 -0.14456388216E-01  0.10212093429E+01  0.10209565582E+01 0.  0.
     999903    2    3    3    0    0  0.28869756697E-01  0.87388964200E-01 -0.93572534046E-01  0.13283146678E+00  0.20447139728E-01 0.  0.
         14    1    1    2    0    0  0.16226540312E-01 -0.66287622547E-02  0.14456388216E-01  0.22720657116E-01  0.00000000000E+00 0. -1.
     999901    1    3    3    0    0 -0.45096297009E-01 -0.80760201945E-01  0.79116145830E-01  0.88837787611E+00  0.88000000000E+00 0.  1.
        -11    1    4    4    0    0  0.94170017889E-02  0.49904119688E-01 -0.40213955380E-01  0.64780586697E-01  0.51100000000E-03 0.  1.
         11    1    4    4    0    0  0.19452754908E-01  0.37484844512E-01 -0.53358578666E-01  0.68050880082E-01  0.51100000000E-03 0. -1.
</event>
<event>
 8    1  0.1083484E+005  0.1043930E+01  0.7957747E-01            NaN
         13   -1    0    0    0    0  0.00000000000E+00  0.00000000000E+00  0.74505805969E-08  0.10566000000E+00  0.10566000000E+00 0.  1.
     999900   -1    0    0    0    0 -0.00000000000E+00 -0.00000000000E+00 -0.74505805969E-08  0.93827000000E+00  0.93827000000E+00 0.  1.
     999902    2    1    2    0    0 -0.16330931177E-01 -0.62690292207E-02  0.17832067717E-01  0.10189503547E+01  0.10186441197E+01 0.  0.
     999903    2    3    3    0    0  0.21326059987E-01  0.56087803210E-01 -0.10971797334E+00  0.12677579974E+00  0.20818915044E-01 0.  0.
         14    1    1    2    0    0  0.16330931177E-01  0.62690292207E-02 -0.17832067717E-01  0.24979645304E-01  0.00000000000E+00 0.  1.
     999901    1    3    3    0    0 -0.37656991163E-01 -0.62356832430E-01  0.12755004105E+00  0.89217455495E+00  0.88000000000E+00 0. -1.
        -11    1    4    4    0    0  0.51431952155E-02  0.27819329553E-01 -0.33263645717E-01  0.43670342353E-01  0.51100000000E-03 0.  1.
         11    1    4    4    0    0  0.16182864771E-01  0.28268473656E-01 -0.76454327620E-01  0.83105457389E-01  0.51100000000E-03 0. -1.
</event>
<event>
 8    1  0.1083484E+005  0.1043930E+01  0.7957747E-01            NaN
         13   -1    0    0    0    0  0.00000000000E+00  0.00000000000E+00  0.74505805969E-08  0.10566000000E+00  0.10566000000E+00 0. -1.
     999900   -1    0    0    0    0 -0.00000000000E+00 -0.00000000000E+00 -0.74505805969E-08  0.93827000000E+00  0.93827000000E+00 0. -1.
     999902    2    1    2    0    0  0.20634821445E-01 -0.45123904330E-02 -0.11205968849E-01  0.10200190974E+01  0.10197388038E+01 0.  0.
     999903    2    3    3    0    0  0.89744671647E-01  0.48848943582E-01 -0.82438167332E-01  0.13283386905E+00  0.20210392289E-01 0.  0.
         14    1    1    2    0    0 -0.20634821445E-01  0.45123904330E-02  0.11205968849E-01  0.23910902562E-01  0.00000000000E+00 0. -1.
     999901    1    3    3    0    0 -0.69109850201E-01 -0.53361334015E-01  0.71232198484E-01  0.88718522838E+00  0.88000000000E+00 0.  1.
        -11    1    4    4    0    0  0.79387116943E-01  0.36164077466E-01 -0.74044394509E-01  0.11442459663E+00  0.51100000000E-03 0. -1.
         11    1    4    4    0    0  0.10357554703E-01  0.12684866116E-01 -0.83937728235E-02  0.18409272420E-01  0.51100000000E-03 0.  1.
</event>
<event>
 8    1  0.1083484E+005  0.1043930E+01  0.7957747E-01            NaN
         13   -1    0    0    0    0  0.00000000000E+00  0.00000000000E+00  0.74505805969E-08  0.10566000000E+00  0.10566000000E+00 0.  1.
     999900   -1    0    0    0    0 -0.00000000000E+00 -0.00000000000E+00 -0.74505805969E-08  0.93827000000E+00  0.93827000000E+00 0.  1.
     999902    2    1    2    0    0  0.18155060781E-01  0.67468070676E-02 -0.89711210476E-02  0.10225850556E+01  0.10223622593E+01 0.  0.
     999903    2    3    3    0    0 -0.75205438495E-01  0.73706597719E-01  0.75533042285E-01  0.13110272265E+00  0.19853535758E-01 0.  0.
         14    1    1    2    0    0 -0.18155060781E-01 -0.67468070676E-02  0.89711210476E-02  0.21344944376E-01  0.00000000000E+00 0.  1.
     999901    1    3    3    0    0  0.93360499276E-01 -0.66959790651E-01 -0.84504163332E-01  0.89148233298E+00  0.88000000000E+00 0.  1.
        -11    1    4    4    0    0 -0.59282313895E-01  0.47573105942E-01  0.59633654583E-01  0.96612768461E-01  0.51100000000E-03 0.  1.
         11    1    4    4    0    0 -0.15923124600E-01  0.26133491777E-01  0.15899387702E-01  0.34489954186E-01  0.51100000000E-03 0. -1.
</event>
<event>
 8    1  0.1083484E+005  0.1043930E+01  0.7957747E-01            NaN
         13   -1    0    0    0    0  0.00000000000E+00  0.00000000000E+00  0.74505805969E-08  0.10566000000E+00  0.10566000000E+00 0.  1.
     999900   -1    0    0    0    0 -0.00000000000E+00 -0.00000000000E+00 -0.74505805969E-08  0.93827000000E+00  0.93827000000E+00 0. -1.
     999902    2    1    2    0    0  0.22012529905E-01  0.85308066210E-02  0.10973896984E-02  0.10202967523E+01  0.10200230058E+01 0.  0.
     999903    2    3    3    0    0 -0.61228907655E-01 -0.67363367464E-01  0.88925928719E-01  0.12877955397E+00  0.19737028987E-01 0.  0.
         14    1    1    2    0    0 -0.22012529905E-01 -0.85308066210E-02 -0.10973896984E-02  0.23633247737E-01  0.00000000000E+00 0.  1.
     999901    1    3    3    0    0  0.83241437560E-01  0.75894174085E-01 -0.87828539021E-01  0.89151719829E+00  0.88000000000E+00 0.  1.
        -11    1    4    4    0    0 -0.38273120487E-01 -0.51803627084E-01  0.70428926819E-01  0.95440779465E-01  0.51100000000E-03 0.  1.
         11    1    4    4    0    0 -0.22955787168E-01 -0.15559740380E-01  0.18497001900E-01  0.33338774505E-01  0.51100000000E-03 0. -1.
</event>
<event>
 8    1  0.1083484E+005  0.1043930E+01  0.7957747E-01            NaN
         13   -1    0    0    0    0  0.00000000000E+00  0.00000000000E+00  0.74505805969E-08  0.10566000000E+00  0.10566000000E+00 0. -1.
     999900   -1    0    0    0    0 -0.00000000000E+00 -0.00000000000E+00 -0.74505805969E-08  0.93827000000E+00  0.93827000000E+00 0.  1.
     999902    2    1    2    0    0 -0.28787269666E-02 -0.82688547193E-02  0.21680073931E-01  0.10205486691E+01  0.10202807944E+01 0.  0.
     999903    2    3    3    0    0  0.26528606982E-01 -0.96787148026E-01  0.85469253354E-01  0.13332302763E+00  0.19962900971E-01 0.  0.
         14    1    1    2    0    0  0.28787269666E-02  0.82688547193E-02 -0.21680073931E-01  0.23381330864E-01  0.00000000000E+00 0.  1.
     999901    1    3    3    0    0 -0.29407333949E-01  0.88518293307E-01 -0.63789179423E-01  0.88722564151E+00  0.88000000000E+00 0.  1.
        -11    1    4    4    0    0  0.16081863477E-01 -0.25474819233E-01  0.28147595306E-01  0.41232765980E-01  0.51100000000E-03 0.  1.
         11    1    4    4    0    0  0.10446743505E-01 -0.71312328793E-01  0.57321658048E-01  0.92090261647E-01  0.51100000000E-03 0. -1.
</event>
<event>
 8    1  0.1083484E+005  0.1043930E+01  0.7957747E-01            NaN
         13   -1    0    0    0    0  0.00000000000E+00  0.00000000000E+00  0.74505805969E-08  0.10566000000E+00  0.10566000000E+00 0. -1.
     999900   -1    0    0    0    0 -0.00000000000E+00 -0.00000000000E+00 -0.74505805969E-08  0.93827000000E+00  0.93827000000E+00 0.  1.
     999902    2    1    2    0    0  0.27901436767E-03 -0.17643992009E-01  0.16030377455E-01  0.10200896706E+01  0.10198110486E+01 0.  0.
     999903    2    3    3    0    0  0.69771815501E-01  0.63666950317E-01  0.88094905771E-01  0.13068874023E+00  0.19931071228E-01 0.  0.
         14    1    1    2    0    0 -0.27901436767E-03  0.17643992009E-01 -0.16030377455E-01  0.23840329368E-01  0.00000000000E+00 0.  1.
     999901    1    3    3    0    0 -0.69492801133E-01 -0.81310942325E-01 -0.72064528315E-01  0.88940093040E+00  0.88000000000E+00 0.  1.
        -11    1    4    4    0    0  0.39892568788E-01  0.35456989762E-01  0.36200204450E-01  0.64492876279E-01  0.51100000000E-03 0.  1.
         11    1    4    4    0    0  0.29879246713E-01  0.28209960555E-01  0.51894701320E-01  0.66195863955E-01  0.51100000000E-03 0. -1.
</event>
<event>
 8    1  0.1083484E+005  0.1043930E+01  0.7957747E-01            NaN
         13   -1    0    0    0    0  0.00000000000E+00  0.00000000000E+00  0.74505805969E-08  0.10566000000E+00  0.10566000000E+00 0.  1.
     999900   -1    0    0    0    0 -0.00000000000E+00 -0.00000000000E+00 -0.74505805969E-08  0.93827000000E+00  0.93827000000E+00 0.  1.
     999902    2    1    2    0    0  0.22665638871E-01 -0.94744002926E-02 -0.13425235384E-02  0.10193271990E+01  0.10190302453E+01 0.  0.
     999903    2    3    3    0    0 -0.11602906114E+00  0.21219237469E-01 -0.44647236081E-01  0.12688469817E+00  0.13905102344E-01 0.  0.
         14    1    1    2    0    0 -0.22665638871E-01  0.94744002926E-02  0.13425235384E-02  0.24602800975E-01  0.00000000000E+00 0.  1.
     999901    1    3    3    0    0  0.13869470001E+00 -0.30693637762E-01  0.43304712543E-01  0.89244250086E+00  0.88000000000E+00 0. -1.
        -11    1    4    4    0    0 -0.76565041080E-01  0.76407080147E-02 -0.31232473500E-01  0.83044051301E-01  0.51100000000E-03 0.  1.
         11    1    4    4    0    0 -0.39464020061E-01  0.13578529455E-01 -0.13414762581E-01  0.43840646866E-01  0.51100000000E-03 0. -1.
</event>
<event>
 8    1  0.1083484E+005  0.1043930E+01  0.7957747E-01            NaN
         13   -1    0    0    0    0  0.00000000000E+00  0.00000000000E+00  0.74505805969E-08  0.10566000000E+00  0.10566000000E+00 0. -1.
     999900   -1    0    0    0    0 -0.00000000000E+00 -0.00000000000E+00 -0.74505805969E-08  0.93827000000E+00  0.93827000000E+00 0.  1.
     999902    2    1    2    0    0  0.10344565207E-01  0.44041410654E-02 -0.33714348464E-01  0.10083903914E+01  0.10077639196E+01 0.  0.
     999903    2    3    3    0    0  0.51748682243E-01  0.10724399952E+00 -0.68492412813E-02  0.12102796747E+00  0.20534245959E-01 0.  0.
         14    1    1    2    0    0 -0.10344565207E-01 -0.44041410654E-02  0.33714348464E-01  0.35539608611E-01  0.00000000000E+00 0. -1.
     999901    1    3    3    0    0 -0.41404117036E-01 -0.10283985846E+00 -0.26865107183E-01  0.88736242392E+00  0.88000000000E+00 0.  1.
        -11    1    4    4    0    0  0.26723194751E-01  0.53953587609E-01  0.67895062976E-02  0.60592716315E-01  0.51100000000E-03 0. -1.
         11    1    4    4    0    0  0.25025487492E-01  0.53290411912E-01 -0.13638747579E-01  0.60435251158E-01  0.51100000000E-03 0.  1.
</event>
<event>
 8    1  0.1083484E+005  0.1043930E+01  0.7957747E-01            NaN
         13   -1    0    0    0    0  0.00000000000E+00  0.00000000000E+00  0.74505805969E-08  0.10566000000E+00  0.10566000000E+00 0.  1.
     999900   -1    0    0    0    0 -0.00000000000E+00 -0.00000000000E+00 -0.74505805969E-08  0.93827000000E+00  0.93827000000E+00 0.  1.
     999902    2    1    2    0    0 -0.20256575002E-01 -0.61896435942E-02 -0.90511951781E-02  0.10208960109E+01  0.10206361254E+01 0.  0.
     999903    2    3    3    0    0  0.10103095600E+00 -0.46611001052E-01  0.61798927064E-01  0.12883979569E+00  0.20018643268E-01 0.  0.
         14    1    1    2    0    0  0.20256575002E-01  0.61896435942E-02  0.90511951781E-02  0.23033989076E-01  0.00000000000E+00 0. -1.
     999901    1    3    3    0    0 -0.12128753100E+00  0.40421357458E-01 -0.70850122242E-01  0.89205621523E+00  0.88000000000E+00 0.  1.
        -11    1    4    4    0    0  0.43235127134E-01 -0.30447309802E-01  0.25609936214E-01  0.58757508851E-01  0.51100000000E-03 0.  1.
         11    1    4    4    0    0  0.57795828865E-01 -0.16163691250E-01  0.36188990849E-01  0.70082286840E-01  0.51100000000E-03 0. -1.
</event>
<event>
 8    1  0.1083484E+005  0.1043930E+01  0.7957747E-01            NaN
         13   -1    0    0    0    0  0.00000000000E+00  0.00000000000E+00  0.74505805969E-08  0.10566000000E+00  0.10566000000E+00 0. -1.
     999900   -1    0    0    0    0 -0.00000000000E+00 -0.00000000000E+00 -0.74505805969E-08  0.93827000000E+00  0.93827000000E+00 0. -1.
     999902    2    1    2    0    0  0.73321386282E-02  0.21619404812E-01 -0.28698645834E-02  0.10209214137E+01  0.10206621076E+01 0.  0.
     999903    2    3    3    0    0  0.90875782926E-01  0.95721401275E-01 -0.98405394194E-02  0.13383672963E+00  0.19860498428E-01 0.  0.
         14    1    1    2    0    0 -0.73321386282E-02 -0.21619404812E-01  0.28698645834E-02  0.23008586311E-01  0.00000000000E+00 0.  1.
     999901    1    3    3    0    0 -0.83543644298E-01 -0.74101996463E-01  0.69706748360E-02  0.88708468406E+00  0.88000000000E+00 0.  1.
        -11    1    4    4    0    0  0.21098174040E-01  0.33433765132E-01 -0.76777973045E-02  0.40276038673E-01  0.51100000000E-03 0. -1.
         11    1    4    4    0    0  0.69777608886E-01  0.62287636143E-01 -0.21627421149E-02  0.93560690958E-01  0.51100000000E-03 0.  1.
</event>
<event>
 8    1  0.1083484E+005  0.1043930E+01  0.7957747E-01            NaN
         13   -1    0    0    0    0  0.00000000000E+00  0.00000000000E+00  0.74505805969E-08  0.10566000000E+00  0.10566000000E+00 0. -1.
     999900   -1    0    0    0    0 -0.00000000000E+00 -0.00000000000E+00 -0.74505805969E-08  0.93827000000E+00  0.93827000000E+00 0.  1.
     999902    2    1    2    0    0 -0.98204388374E-02 -0.22106481065E-01 -0.86321315133E-03  0.10197249869E+01  0.10194376715E+01 0.  0.
     999903    2    3    3    0    0 -0.13910980014E-01  0.50135800304E-01 -0.11656099150E+00  0.12920735332E+00  0.20024024944E-01 0.  0.
         14    1    1    2    0    0  0.98204388374E-02  0.22106481065E-01  0.86321315133E-03  0.24205013138E-01  0.00000000000E+00 0.  1.
     999901    1    3    3    0    0  0.40905411771E-02 -0.72242281369E-01  0.11569777835E+00  0.89051763355E+00  0.88000000000E+00 0. -1.
        -11    1    4    4    0    0  0.45755786089E-02  0.42246069920E-02 -0.13652129512E-01  0.15014159486E-01  0.51100000000E-03 0. -1.
         11    1    4    4    0    0 -0.18486558623E-01  0.45911193312E-01 -0.10290886198E+00  0.11419319383E+00  0.51100000000E-03 0.  1.
</event>
<event>
 8    1  0.1083484E+005  0.1043930E+01  0.7957747E-01            NaN
         13   -1    0    0    0    0  0.00000000000E+00  0.00000000000E+00  0.74505805969E-08  0.10566000000E+00  0.10566000000E+00 0.  1.
     999900   -1    0    0    0    0 -0.00000000000E+00 -0.00000000000E+00 -0.74505805969E-08  0.93827000000E+00  0.93827000000E+00 0. -1.
     999902    2    1    2    0    0 -0.99090409468E-02 -0.12786673873E-01  0.16616661310E-01  0.10207394512E+01  0.10204759799E+01 0.  0.
     999903    2    3    3    0    0 -0.25577446882E-01 -0.12802900514E+00  0.16859581472E-01  0.13308729360E+00  0.19553779252E-01 0.  0.
         14    1    1    2    0    0  0.99090409468E-02  0.12786673873E-01 -0.16616661310E-01  0.23190548814E-01  0.00000000000E+00 0. -1.
     999901    1    3    3    0    0  0.15668405935E-01  0.11524233127E+00 -0.24292016258E-03  0.88765215759E+00  0.88000000000E+00 0.  1.
        -11    1    4    4    0    0 -0.18161845118E-01 -0.45177279092E-01  0.33079957150E-02  0.48806179126E-01  0.51100000000E-03 0. -1.
         11    1    4    4    0    0 -0.74156017641E-02 -0.82851726050E-01  0.13551585757E-01  0.84281114471E-01  0.51100000000E-03 0.  1.
</event>
<event>
 8    1  0.1083484E+005  0.1043930E+01  0.7957747E-01            NaN
         13   -1    0    0    0    0  0.00000000000E+00  0.00000000000E+00  0.74505805969E-08  0.10566000000E+00  0.10566000000E+00 0. -1.
     999900   -1    0    0    0    0 -0.00000000000E+00 -0.00000000000E+00 -0.74505805969E-08  0.93827000000E+00  0.93827000000E+00 0.  1.
     999902    2    1    2    0    0  0.21045186811E-01 -0.10457235406E-01  0.20512472999E-02  0.10203405686E+01  0.10200678480E+01 0.  0.
     999903    2    3    3    0    0  0.19711089780E-01 -0.52195932124E-01 -0.11698479776E+00  0.13134479880E+00  0.21285461600E-01 0.  0.
         14    1    1    2    0    0 -0.21045186811E-01  0.10457235406E-01 -0.20512472999E-02  0.23589431442E-01  0.00000000000E+00 0.  1.
     999901    1    3    3    0    0  0.13340970314E-02  0.41738696718E-01  0.11903604506E+00  0.88899576975E+00  0.88000000000E+00 0. -1.
        -11    1    4    4    0    0  0.15030797580E-02 -0.18879223508E-01 -0.59566418294E-01  0.62506828734E-01  0.51100000000E-03 0. -1.
         11    1    4    4    0    0  0.18208010022E-01 -0.33316708615E-01 -0.57418379465E-01  0.68837970070E-01  0.51100000000E-03 0.  1.
</event>
<event>
 8    1  0.1083484E+005  0.1043930E+01  0.7957747E-01            NaN
         13   -1    0    0    0    0  0.00000000000E+00  0.00000000000E+00  0.74505805969E-08  0.10566000000E+00  0.10566000000E+00 0.  1.
     999900   -1    0    0    0    0 -0.00000000000E+00 -0.00000000000E+00 -0.74505805969E-08  0.93827000000E+00  0.93827000000E+00 0. -1.
     999902    2    1    2    0    0 -0.97679507708E-02  0.21718716996E-01  0.71809549675E-02  0.10190566881E+01  0.10187530868E+01 0.  0.
     999903    2    3    3    0    0  0.11520706402E+00  0.17971592242E-01 -0.49900256301E-01  0.12838780466E+00  0.19943597445E-01 0.  0.
         14    1    1    2    0    0  0.97679507708E-02 -0.21718716996E-01 -0.71809549675E-02  0.24873311891E-01  0.00000000000E+00 0. -1.
     999901    1    3    3    0    0 -0.12497501479E+00  0.37471247538E-02  0.57081211268E-01  0.89066888345E+00  0.88000000000E+00 0.  1.
        -11    1    4    4    0    0  0.74311300140E-02  0.58458589955E-02 -0.69062042585E-02  0.11719749952E-01  0.51100000000E-03 0.  1.
         11    1    4    4    0    0  0.10777593400E+00  0.12125733246E-01 -0.42994052042E-01  0.11666805471E+00  0.51100000000E-03 0. -1.
</event>
<event>
 8    1  0.1083484E+005  0.1043930E+01  0.7957747E-01            NaN
         13   -1    0    0    0    0  0.00000000000E+00  0.00000000000E+00  0.74505805969E-08  0.10566000000E+00  0.10566000000E+00 0. -1.
     999900   -1    0    0    0    0 -0.00000000000E+00 -0.00000000000E+00 -0.74505805969E-08  0.93827000000E+00  0.93827000000E+00 0. -1.
     999902    2    1    2    0    0  0.40688885926E-02 -0.10278095989E-01  0.20931715546E-01  0.10202586708E+01  0.10199840310E+01 0.  0.
     999903    2    3    3    0    0 -0.23233587047E-01  0.12538985285E+00  0.48498906082E-02  0.12929860287E+00  0.20789240001E-01 0.  0.
         14    1    1    2    0    0 -0.40688885926E-02  0.10278095989E-01 -0.20931715546E-01  0.23671329224E-01  0.00000000000E+00 0.  1.
     999901    1    3    3    0    0  0.27302475640E-01 -0.13566794884E+00  0.16081824938E-01  0.89096006791E+00  0.88000000000E+00 0.  1.
        -11    1    4    4    0    0 -0.26267712115E-01  0.92649372079E-01  0.26132809891E-02  0.96337890806E-01  0.51100000000E-03 0.  1.
         11    1    4    4    0    0  0.30341250678E-02  0.32740480768E-01  0.22366096191E-02  0.32960712059E-01  0.51100000000E-03 0. -1.
</event>
<event>
 8    1  0.1083484E+005  0.1043930E+01  0.7957747E-01            NaN
         13   -1    0    0    0    0  0.00000000000E+00  0.00000000000E+00  0.74505805969E-08  0.10566000000E+00  0.10566000000E+00 0.  1.
     999900   -1    0    0    0    0 -0.00000000000E+00 -0.00000000000E+00 -0.74505805969E-08  0.93827000000E+00  0.93827000000E+00 0.  1.
     999902    2    1    2    0    0 -0.20486945828E-01 -0.29090752728E-02  0.72579154593E-02  0.10220015936E+01  0.10217663150E+01 0.  0.
     999903    2    3    3    0    0  0.17189595700E-01 -0.94602903086E-01 -0.87297696047E-01  0.13140177133E+00  0.20008655672E-01 0.  0.
         14    1    1    2    0    0  0.20486945828E-01  0.29090752728E-02 -0.72579154593E-02  0.21928406352E-01  0.00000000000E+00 0. -1.
     999901    1    3    3    0    0 -0.37676541528E-01  0.91693827813E-01  0.94555611506E-01  0.89059982232E+00  0.88000000000E+00 0. -1.
        -11    1    4    4    0    0  0.32772233711E-02 -0.37892306202E-01 -0.22583496556E-01  0.44236212542E-01  0.51100000000E-03 0.  1.
         11    1    4    4    0    0  0.13912372329E-01 -0.56710596884E-01 -0.64714199490E-01  0.87165558791E-01  0.51100000000E-03 0. -1.
</event>
<event>
 8    1  0.1083484E+005  0.1043930E+01  0.7957747E-01            NaN
         13   -1    0    0    0    0  0.00000000000E+00  0.00000000000E+00  0.74505805969E-08  0.10566000000E+00  0.10566000000E+00 0.  1.
     999900   -1    0    0    0    0 -0.00000000000E+00 -0.00000000000E+00 -0.74505805969E-08  0.93827000000E+00  0.93827000000E+00 0.  1.
     999902    2    1    2    0    0  0.17754294375E-01  0.15119337700E-01 -0.41573532550E-02  0.10202425998E+01  0.10199675826E+01 0.  0.
     999903    2    3    3    0    0  0.10944156155E+00  0.12994105565E-01 -0.71683678502E-01  0.13290338837E+00  0.19454015109E-01 0.  0.
         14    1    1    2    0    0 -0.17754294375E-01 -0.15119337700E-01  0.41573532550E-02  0.23687400181E-01  0.00000000000E+00 0. -1.
     999901    1    3    3    0    0 -0.91687267171E-01  0.21252321348E-02  0.67526325247E-01  0.88733921145E+00  0.88000000000E+00 0. -1.
        -11    1    4    4    0    0  0.27071225497E-01  0.62183801667E-02 -0.27899559505E-01  0.39372148067E-01  0.51100000000E-03 0. -1.
         11    1    4    4    0    0  0.82370336049E-01  0.67757253983E-02 -0.43784118996E-01  0.93531240304E-01  0.51100000000E-03 0.  1.
</event>
<event>
 8    1  0.1083484E+005  0.1043930E+01  0.7957747E-01            NaN
         13   -1    0    0    0    0  0.00000000000E+00  0.00000000000E+00  0.74505805969E-08  0.10566000000E+00  0.10566000000E+00 0. -1.
     999900   -1    0    0    0    0 -0.00000000000E+00 -0.00000000000E+00 -0.74505805969E-08  0.93827000000E+00  0.93827000000E+00 0.  1.
     999902    2    1    2    0    0  0.14572862058E-01  0.15504761276E-01 -0.49818305429E-02  0.10220762917E+01  0.10218426305E+01 0.  0.
     999903    2    3    3    0    0 -0.77505345477E-01 -0.12791413115E-01  0.10213173279E+00  0.13036311739E+00  0.19823034761E-01 0.  0.
         14    1    1    2    0    0 -0.14572862058E-01 -0.15504761276E-01  0.49818305429E-02  0.21853708297E-01  0.00000000000E+00 0. -1.
     999901    1    3    3    0    0  0.92078207535E-01  0.28296174391E-01 -0.10711356333E+00  0.89171317431E+00  0.88000000000E+00 0.  1.
        -11    1    4    4    0    0 -0.46656146540E-01  0.21979316473E-02  0.59516117395E-01  0.75657493114E-01  0.51100000000E-03 0.  1.
         11    1    4    4    0    0 -0.30849198937E-01 -0.14989344762E-01  0.42615615393E-01  0.54705624279E-01  0.51100000000E-03 0. -1.
</event>
<event>
 8    1  0.1083484E+005  0.1043930E+01  0.7957747E-01            NaN
         13   -1    0    0    0    0  0.00000000000E+00  0.00000000000E+00  0.74505805969E-08  0.10566000000E+00  0.10566000000E+00 0. -1.
     999900   -1    0    0    0    0 -0.00000000000E+00 -0.00000000000E+00 -0.74505805969E-08  0.93827000000E+00  0.93827000000E+00 0. -1.
     999902    2    1    2    0    0 -0.12669299523E-01  0.59975972348E-02  0.39077056684E-02  0.10293782823E+01  0.10292754227E+01 0.  0.
     999903    2    3    3    0    0 -0.51536904949E-01 -0.32119385091E-01 -0.12330547438E+00  0.13856585076E+00  0.17565520664E-01 0.  0.
         14    1    1    2    0    0  0.12669299523E-01 -0.59975972348E-02 -0.39077056684E-02  0.14551717651E-01  0.00000000000E+00 0. -1.
     999901    1    3    3    0    0  0.38867605426E-01  0.38116982326E-01  0.12721318004E+00  0.89081243159E+00  0.88000000000E+00 0.  1.
        -11    1    4    4    0    0 -0.37119473713E-01 -0.13211812347E-01 -0.78923052185E-01  0.88212904960E-01  0.51100000000E-03 0. -1.
         11    1    4    4    0    0 -0.14417431235E-01 -0.18907572744E-01 -0.44382422190E-01  0.50352945802E-01  0.51100000000E-03 0.  1.
</event>
<event>
 8    1  0.1083484E+005  0.1043930E+01  0.7957747E-01            NaN
         13   -1    0    0    0    0  0.00000000000E+00  0.00000000000E+00  0.74505805969E-08  0.10566000000E+00  0.10566000000E+00 0.  1.
     999900   -1    0    0    0    0 -0.00000000000E+00 -0.00000000000E+00 -0.74505805969E-08  0.93827000000E+00  0.93827000000E+00 0. -1.
     999902    2    1    2    0    0  0.28682696386E-02  0.15200550691E-01  0.19075877096E-01  0.10193704235E+01  0.10190745250E+01 0.  0.
     999903    2    3    3    0    0  0.63426077905E-01  0.11245003341E+00  0.22488288468E-01  0.13193797276E+00  0.15297979100E-01 0.  0.
         14    1    1    2    0    0 -0.28682696386E-02 -0.15200550691E-01 -0.19075877096E-01  0.24559576524E-01  0.00000000000E+00 0. -1.
     999901    1    3    3    0    0 -0.60557808267E-01 -0.97249482723E-01 -0.34124113720E-02  0.88743245072E+00  0.88000000000E+00 0. -1.
        -11    1    4    4    0    0  0.39879630895E-01  0.55198676669E-01  0.12079799315E-01  0.69162573252E-01  0.51100000000E-03 0. -1.
         11    1    4    4    0    0  0.23546447010E-01  0.57251356746E-01  0.10408489153E-01  0.62775399509E-01  0.51100000000E-03 0.  1.
</event>
<event>
 8    1  0.1199613E+005  0.1043930E+01  0.7957747E-01            NaN
         13   -1    0    0    0    0  0.00000000000E+00  0.00000000000E+00  0.74505805969E-08  0.10566000000E+00  0.10566000000E+00 0. -1.
     999900   -1    0    0    0    0 -0.00000000000E+00 -0.00000000000E+00 -0.74505805969E-08  0.93827000000E+00  0.93827000000E+00 0. -1.
     999902    2    1    2    0    0  0.11430010267E-01 -0.15832673771E-01 -0.12638882110E-01  0.10206693028E+01  0.10204042168E+01 0.  0.
     999903    2    3    3    0    0  0.19215343009E-02 -0.47437474504E-01  0.11967104235E+00  0.13016652871E+00  0.19187509940E-01 0.  0.
         14    1    1    2    0    0 -0.11430010267E-01  0.15832673771E-01  0.12638882110E-01  0.23260697205E-01  0.00000000000E+00 0. -1.
     999901    1    3    3    0    0  0.95084759664E-02  0.31604800733E-01 -0.13230992446E+00  0.89050277409E+00  0.88000000000E+00 0. -1.
        -11    1    4    4    0    0 -0.64415309415E-02 -0.24283490682E-01  0.75813898202E-01  0.79869828610E-01  0.51100000000E-03 0.  1.
         11    1    4    4    0    0  0.83630652424E-02 -0.23153983822E-01  0.43857144147E-01  0.50296700099E-01  0.51100000000E-03 0. -1.
</event>
<event>
 8    1  0.1083484E+005  0.1043930E+01  0.7957747E-01            NaN
         13   -1    0    0    0    0  0.00000000000E+00  0.00000000000E+00  0.74505805969E-08  0.10566000000E+00  0.10566000000E+00 0. -1.
     999900   -1    0    0    0    0 -0.00000000000E+00 -0.00000000000E+00 -0.74505805969E-08  0.93827000000E+00  0.93827000000E+00 0. -1.
     999902    2    1    2    0    0 -0.16428205512E-01  0.15219512417E-01 -0.74194216155E-02  0.10203383211E+01  0.10200655480E+01 0.  0.
     999903    2    3    3    0    0 -0.12570169404E+00  0.39359083903E-01 -0.71256939376E-02  0.13325123382E+00  0.18843100311E-01 0.  0.
         14    1    1    2    0    0  0.16428205512E-01 -0.15219512417E-01  0.74194216155E-02  0.23591678865E-01  0.00000000000E+00 0. -1.
     999901    1    3    3    0    0  0.10927348853E+00 -0.24139571487E-01 -0.29372767790E-03  0.88708708732E+00  0.88000000000E+00 0. -1.
        -11    1    4    4    0    0 -0.60678713758E-01  0.17184205218E-01  0.58380103478E-02  0.63336772085E-01  0.51100000000E-03 0.  1.
         11    1    4    4    0    0 -0.65022980285E-01  0.22174878686E-01 -0.12963704285E-01  0.69914461734E-01  0.51100000000E-03 0. -1.
</event>
<event>
 8    1  0.1083484E+005  0.1043930E+01  0.7957747E-01            NaN
         13   -1    0    0    0    0  0.00000000000E+00  0.00000000000E+00  0.74505805969E-08  0.10566000000E+00  0.10566000000E+00 0.  1.
     999900   -1    0    0    0    0 -0.00000000000E+00 -0.00000000000E+00 -0.74505805969E-08  0.93827000000E+00  0.93827000000E+00 0.  1.
     999902    2    1    2    0    0 -0.26130624560E-02  0.14338055355E-01 -0.19529269140E-01  0.10195619824E+01  0.10192707372E+01 0.  0.
     999903    2    3    3    0    0  0.47787424369E-01  0.26288173568E-01  0.11410559685E+00  0.12796717996E+00  0.19514249054E-01 0.  0.
         14    1    1    2    0    0  0.26130624560E-02 -0.14338055355E-01  0.19529269140E-01  0.24368017562E-01  0.00000000000E+00 0. -1.
     999901    1    3    3    0    0 -0.50400486825E-01 -0.11950118213E-01 -0.13363486599E+00  0.89159480248E+00  0.88000000000E+00 0.  1.
        -11    1    4    4    0    0  0.11759475183E-01  0.16398468480E-01  0.47204335935E-01  0.51339122286E-01  0.51100000000E-03 0.  1.
         11    1    4    4    0    0  0.36027949186E-01  0.98897050876E-02  0.66901260919E-01  0.76628057673E-01  0.51100000000E-03 0. -1.
</event>
<event>
 8    1  0.1083484E+005  0.1043930E+01  0.7957747E-01            NaN
         13   -1    0    0    0    0  0.00000000000E+00  0.00000000000E+00  0.74505805969E-08  0.10566000000E+00  0.10566000000E+00 0. -1.
     999900   -1    0    0    0    0 -0.00000000000E+00 -0.00000000000E+00 -0.74505805969E-08  0.93827000000E+00  0.93827000000E+00 0. -1.
     999902    2    1    2    0    0  0.23474543249E-01 -0.38505223563E-02  0.20580729396E-02  0.10200528903E+01  0.10197733977E+01 0.  0.
     999903    2    3    3    0    0  0.89110194657E-01 -0.66646564635E-01  0.69866967218E-01  0.13278211551E+00  0.19165221672E-01 0.  0.
         14    1    1    2    0    0 -0.23474543249E-01  0.38505223563E-02 -0.20580729396E-02  0.23877109695E-01  0.00000000000E+00 0.  1.
     999901    1    3    3    0    0 -0.65635651408E-01  0.62796042279E-01 -0.67808894278E-01  0.88727077479E+00  0.88000000000E+00 0.  1.
        -11    1    4    4    0    0  0.70072389543E-01 -0.56315917158E-01  0.63943976047E-01  0.11032096580E+00  0.51100000000E-03 0.  1.
         11    1    4    4    0    0  0.19037805113E-01 -0.10330647477E-01  0.59229911708E-02  0.22461149709E-01  0.51100000000E-03 0. -1.
</event>
<event>
 8    1  0.1083484E+005  0.1043930E+01  0.7957747E-01            NaN
         13   -1    0    0    0    0  0.00000000000E+00  0.00000000000E+00  0.74505805969E-08  0.10566000000E+00  0.10566000000E+00 0. -1.
     999900   -1    0    0    0    0 -0.00000000000E+00 -0.00000000000E+00 -0.74505805969E-08  0.93827000000E+00  0.93827000000E+00 0. -1.
     999902    2    1    2    0    0 -0.16540550032E-01  0.37156323578E-02 -0.16420932739E-01  0.10203282469E+01  0.10200552380E+01 0.  0.
     999903    2    3    3    0    0 -0.91931108986E-01  0.56283782244E-01  0.71763117621E-01  0.13115808682E+00  0.20815997350E-01 0.  0.
         14    1    1    2    0    0  0.16540550032E-01 -0.37156323578E-02  0.16420932739E-01  0.23601753138E-01  0.00000000000E+00 0. -1.
     999901    1    3    3    0    0  0.75390558954E-01 -0.52568149886E-01 -0.88184050360E-01  0.88917016004E+00  0.88000000000E+00 0.  1.
        -11    1    4    4    0    0 -0.14810978109E-01  0.17955193912E-02  0.13984722215E-01  0.20455379215E-01  0.51100000000E-03 0.  1.
         11    1    4    4    0    0 -0.77120130877E-01  0.54488262853E-01  0.57778395407E-01  0.11070270761E+00  0.51100000000E-03 0. -1.
</event>
<event>
 8    1  0.1083484E+005  0.1043930E+01  0.7957747E-01            NaN
         13   -1    0    0    0    0  0.00000000000E+00  0.00000000000E+00  0.74505805969E-08  0.10566000000E+00  0.10566000000E+00 0. -1.
     999900   -1    0    0    0    0 -0.00000000000E+00 -0.00000000000E+00 -0.74505805969E-08  0.93827000000E+00  0.93827000000E+00 0.  1.
     999902    2    1    2    0    0  0.46791147702E-02  0.22803903301E-01 -0.41074207238E-02  0.10202914081E+01  0.10200175364E+01 0.  0.
     999903    2    3    3    0    0  0.10308284961E+00  0.60238884779E-01  0.53125822881E-01  0.13216961634E+00  0.19790333599E-01 0.  0.
         14    1    1    2    0    0 -0.46791147702E-02 -0.22803903301E-01  0.41074207238E-02  0.23638591874E-01  0.00000000000E+00 0.  1.
     999901    1    3    3    0    0 -0.98403734839E-01 -0.37434981478E-01 -0.57233243605E-01  0.88812179178E+00  0.88000000000E+00 0.  1.
        -11    1    4    4    0    0  0.22472294525E-01  0.21303679097E-01  0.83581482327E-02  0.32077570469E-01  0.51100000000E-03 0.  1.
         11    1    4    4    0    0  0.80610555085E-01  0.38935205682E-01  0.44767674648E-01  0.10009204587E+00  0.51100000000E-03 0. -1.
</event>
<event>
 8    1  0.1083484E+005  0.1043930E+01  0.7957747E-01            NaN
         13   -1    0    0    0    0  0.00000000000E+00  0.00000000000E+00  0.74505805969E-08  0.10566000000E+00  0.10566000000E+00 0. -1.
     999900   -1    0    0    0    0 -0.00000000000E+00 -0.00000000000E+00 -0.74505805969E-08  0.93827000000E+00  0.93827000000E+00 0. -1.
     999902    2    1    2    0    0 -0.17264796720E-01 -0.15397900362E-01  0.33897688601E-02  0.10205492585E+01  0.10202813974E+01 0.  0.
     999903    2    3    3    0    0 -0.33008591057E-01 -0.12756398212E+00 -0.19919141271E-02  0.13327361953E+00  0.19893549761E-01 0.  0.
         14    1    1    2    0    0  0.17264796720E-01  0.15397900362E-01 -0.33897688601E-02  0.23380741525E-01  0.00000000000E+00 0. -1.
     999901    1    3    3    0    0  0.15743794338E-01  0.11216608176E+00  0.53816829872E-02  0.88727563895E+00  0.88000000000E+00 0. -1.
        -11    1    4    4    0    0 -0.19658563927E-01 -0.86159686238E-01 -0.10324795300E-01  0.88976475472E-01  0.51100000000E-03 0. -1.
         11    1    4    4    0    0 -0.13350027130E-01 -0.41404295883E-01  0.83328811732E-02  0.44297144056E-01  0.51100000000E-03 0.  1.
</event>
<event>
 8    1  0.1083484E+005  0.1043930E+01  0.7957747E-01            NaN
         13   -1    0    0    0    0  0.00000000000E+00  0.00000000000E+00  0.74505805969E-08  0.10566000000E+00  0.10566000000E+00 0. -1.
     999900   -1    0    0    0    0 -0.00000000000E+00 -0.00000000000E+00 -0.74505805969E-08  0.93827000000E+00  0.93827000000E+00 0. -1.
     999902    2    1    2    0    0  0.17618850094E-01 -0.30703136179E-02  0.15555532959E-01  0.10202271455E+01  0.10199517651E+01 0.  0.
     999903    2    3    3    0    0  0.95122876372E-02  0.12833518083E+00  0.76633698530E-02  0.13039828189E+00  0.19610773283E-01 0.  0.
         14    1    1    2    0    0 -0.17618850094E-01  0.30703136179E-02 -0.15555532959E-01  0.23702854470E-01  0.00000000000E+00 0.  1.
     999901    1    3    3    0    0  0.81065624572E-02 -0.13140549445E+00  0.78921631064E-02  0.88982886364E+00  0.88000000000E+00 0. -1.
        -11    1    4    4    0    0 -0.38179636535E-02  0.76479726601E-01  0.26892761971E-02  0.76623878490E-01  0.51100000000E-03 0.  1.
         11    1    4    4    0    0  0.13330251291E-01  0.51855454226E-01  0.49740936558E-02  0.53774403402E-01  0.51100000000E-03 0. -1.
</event>
<event>
 7    1  0.1083484E+005  0.1043930E+01  0.7957747E-01            NaN
         13   -1    0    0    0    0  0.00000000000E+00  0.00000000000E+00  0.74505805969E-08  0.10566000000E+00  0.10566000000E+00 0. -1.
     999900   -1    0    0    0    0 -0.00000000000E+00 -0.00000000000E+00 -0.74505805969E-08  0.93827000000E+00  0.93827000000E+00 0. -1.
     999902    2    1    2    0    0 -0.40202995300E-02  0.20688417471E-01 -0.10772175506E-01  0.10202611768E+01  0.10199865959E+01 0.  0.
         14    1    1    2    0    0  0.40202995300E-02 -0.20688417471E-01  0.10772175506E-01  0.23668823184E-01  0.00000000000E+00 0.  1.
     999901    1    3    3    0    0  0.65784329588E-01  0.51173158418E-01 -0.10903652726E+00  0.89063754381E+00  0.88000000000E+00 0. -1.
        -11    1    3    3    0    0 -0.12169846325E-01 -0.30207815084E-02  0.44247625956E-01  0.45992866884E-01  0.51100000000E-03 0.  1.
         11    1    3    3    0    0 -0.57634782793E-01 -0.27463959439E-01  0.54016725799E-01  0.83630766125E-01  0.51100000000E-03 0. -1.
</event>
<event>
 8    1  0.1083484E+005  0.1043930E+01  0.7957747E-01            NaN
         13   -1    0    0    0    0  0.00000000000E+00  0.00000000000E+00  0.74505805969E-08  0.10566000000E+00  0.10566000000E+00 0.  1.
     999900   -1    0    0    0    0 -0.00000000000E+00 -0.00000000000E+00 -0.74505805969E-08  0.93827000000E+00  0.93827000000E+00 0.  1.
     999902    2    1    2    0    0 -0.12630444859E-01 -0.16507669150E-02 -0.19264866402E-01  0.10208348004E+01  0.10205735159E+01 0.  0.
     999903    2    3    3    0    0  0.72374968146E-01  0.18238448905E-01 -0.10791899351E+00  0.13208227272E+00  0.15114250673E-01 0.  0.
         14    1    1    2    0    0  0.12630444859E-01  0.16507669150E-02  0.19264866402E-01  0.23095199636E-01  0.00000000000E+00 0.  1.
     999901    1    3    3    0    0 -0.85005413006E-01 -0.19889215820E-01  0.88654127107E-01  0.88875252765E+00  0.88000000000E+00 0. -1.
        -11    1    4    4    0    0  0.36366829202E-01  0.10858690246E-01 -0.42029922785E-01  0.56632437263E-01  0.51100000000E-03 0.  1.
         11    1    4    4    0    0  0.36008138945E-01  0.73797586584E-02 -0.65889070724E-01  0.75449835454E-01  0.51100000000E-03 0. -1.
</event>
<event>
 8    1  0.1083484E+005  0.1043930E+01  0.7957747E-01            NaN
         13   -1    0    0    0    0  0.00000000000E+00  0.00000000000E+00  0.74505805969E-08  0.10566000000E+00  0.10566000000E+00 0. -1.
     999900   -1    0    0    0    0 -0.00000000000E+00 -0.00000000000E+00 -0.74505805969E-08  0.93827000000E+00  0.93827000000E+00 0. -1.
     999902    2    1    2    0    0  0.71719415595E-02 -0.17979280334E-02  0.20224088409E-01  0.10223966992E+01  0.10221699113E+01 0.  0.
     999903    2    3    3    0    0 -0.11816352145E+00  0.21744830137E-01 -0.47338965748E-01  0.13064112393E+00  0.19765377475E-01 0.  0.
         14    1    1    2    0    0 -0.71719415595E-02  0.17979280334E-02 -0.20224088409E-01  0.21533300790E-01  0.00000000000E+00 0.  1.
     999901    1    3    3    0    0  0.12533546300E+00 -0.23542758170E-01  0.67563054157E-01  0.89175557528E+00  0.88000000000E+00 0.  1.
        -11    1    4    4    0    0 -0.98038464827E-02  0.75974014355E-02 -0.61773035367E-02  0.13865645113E-01  0.51100000000E-03 0. -1.
         11    1    4    4    0    0 -0.10835967496E+00  0.14147428701E-01 -0.41161662211E-01  0.11677547882E+00  0.51100000000E-03 0.  1.
</event>
<event>
 8    1  0.1083484E+005  0.1043930E+01  0.7957747E-01            NaN
         13   -1    0    0    0    0  0.00000000000E+00  0.00000000000E+00  0.74505805969E-08  0.10566000000E+00  0.10566000000E+00 0. -1.
     999900   -1    0    0    0    0 -0.00000000000E+00 -0.00000000000E+00 -0.74505805969E-08  0.93827000000E+00  0.93827000000E+00 0. -1.
     999902    2    1    2    0    0  0.76652051575E-02 -0.16282210687E-01 -0.14708361756E-01  0.10206877613E+01  0.10204231007E+01 0.  0.
     999903    2    3    3    0    0  0.12176099150E+00 -0.25712923499E-01  0.38413561020E-01  0.13168341625E+00  0.19442915433E-01 0.  0.
         14    1    1    2    0    0 -0.76652051575E-02  0.16282210687E-01  0.14708361756E-01  0.23242238715E-01  0.00000000000E+00 0.  1.
     999901    1    3    3    0    0 -0.11409578634E+00  0.94307128123E-02 -0.53121922776E-01  0.88900434503E+00  0.88000000000E+00 0.  1.
        -11    1    4    4    0    0  0.69596716070E-01 -0.22951020555E-01  0.17039054288E-01  0.75239901144E-01  0.51100000000E-03 0.  1.
         11    1    4    4    0    0  0.52164275428E-01 -0.27619029440E-02  0.21374506733E-01  0.56443515109E-01  0.51100000000E-03 0. -1.
</event>
<event>
 8    1  0.1083484E+005  0.1043930E+01  0.7957747E-01            NaN
         13   -1    0    0    0    0  0.00000000000E+00  0.00000000000E+00  0.74505805969E-08  0.10566000000E+00  0.10566000000E+00 0.  1.
     999900   -1    0    0    0    0 -0.00000000000E+00 -0.00000000000E+00 -0.74505805969E-08  0.93827000000E+00  0.93827000000E+00 0.  1.
     999902    2    1    2    0    0  0.97852015677E-02 -0.10240845895E-01 -0.19155825297E-01  0.10201062569E+01  0.10198280269E+01 0.  0.
     999903    2    3    3    0    0  0.32374326926E-01  0.11455767905E+00  0.44833223688E-01  0.12871434597E+00  0.19641945901E-01 0.  0.
         14    1    1    2    0    0 -0.97852015677E-02  0.10240845895E-01  0.19155825297E-01  0.23823743140E-01  0.00000000000E+00 0.  1.
     999901    1    3    3    0    0 -0.22589125359E-01 -0.12479852494E+00 -0.63989048985E-01  0.89139191089E+00  0.88000000000E+00 0. -1.
        -11    1    4    4    0    0  0.16450655285E-01  0.82341227449E-01  0.24741837813E-01  0.87539256659E-01  0.51100000000E-03 0. -1.
         11    1    4    4    0    0  0.15923671642E-01  0.32216451601E-01  0.20091385874E-01  0.41175089310E-01  0.51100000000E-03 0.  1.
</event>
<event>
 8    1  0.1083484E+005  0.1043930E+01  0.7957747E-01            NaN
         13   -1    0    0    0    0  0.00000000000E+00  0.00000000000E+00  0.74505805969E-08  0.10566000000E+00  0.10566000000E+00 0. -1.
     999900   -1    0    0    0    0 -0.00000000000E+00 -0.00000000000E+00 -0.74505805969E-08  0.93827000000E+00  0.93827000000E+00 0.  1.
     999902    2    1    2    0    0  0.22158470335E-01  0.40721372213E-02 -0.33770160888E-02  0.10211487721E+01  0.10208946225E+01 0.  0.
     999903    2    3    3    0    0 -0.47613022151E-01  0.36812663174E-01  0.11338409860E+00  0.13009705576E+00  0.21145166186E-01 0.  0.
         14    1    1    2    0    0 -0.22158470335E-01 -0.40721372213E-02  0.33770160888E-02  0.22781227948E-01  0.00000000000E+00 0.  1.
     999901    1    3    3    0    0  0.69771492487E-01 -0.32740525953E-01 -0.11676111469E+00  0.89105171629E+00  0.88000000000E+00 0. -1.
        -11    1    4    4    0    0 -0.59184016702E-02  0.48973611473E-02  0.38083662814E-02  0.85893189061E-02  0.51100000000E-03 0.  1.
         11    1    4    4    0    0 -0.41694620481E-01  0.31915302027E-01  0.10957573232E+00  0.12150773685E+00  0.51100000000E-03 0. -1.
</event>
<event>
 8    1  0.1083484E+005  0.1043930E+01  0.7957747E-01            NaN
         13   -1    0    0    0    0  0.00000000000E+00  0.00000000000E+00  0.74505805969E-08  0.10566000000E+00  0.10566000000E+00 0.  1.
     999900   -1    0    0    0    0 -0.00000000000E+00 -0.00000000000E+00 -0.74505805969E-08  0.93827000000E+00  0.93827000000E+00 0. -1.
     999902    2    1    2    0    0 -0.18437939787E-02 -0.12843497949E-01 -0.18446079283E-01  0.10213775532E+01  0.10211285391E+01 0.  0.
     999903    2    3    3    0    0 -0.10748693993E-01 -0.12886402011E+00  0.22712176045E-01  0.13276399220E+00  0.19722185069E-01 0.  0.
         14    1    1    2    0    0  0.18437939787E-02  0.12843497949E-01  0.18446079283E-01  0.22552446801E-01  0.00000000000E+00 0.  1.
     999901    1    3    3    0    0  0.89049000143E-02  0.11602052216E+00 -0.41158255328E-01  0.88861356100E+00  0.88000000000E+00 0. -1.
        -11    1    4    4    0    0 -0.12623694877E-01 -0.11781703453E+00  0.25501818333E-01  0.12120567296E+00  0.51100000000E-03 0. -1.
         11    1    4    4    0    0  0.18750008842E-02 -0.11046985573E-01 -0.27896422875E-02  0.11558319240E-01  0.51100000000E-03 0.  1.
</event>
<event>
 8    1  0.1083484E+005  0.1043930E+01  0.7957747E-01            NaN
         13   -1    0    0    0    0  0.00000000000E+00  0.00000000000E+00  0.74505805969E-08  0.10566000000E+00  0.10566000000E+00 0.  1.
     999900   -1    0    0    0    0 -0.00000000000E+00 -0.00000000000E+00 -0.74505805969E-08  0.93827000000E+00  0.93827000000E+00 0. -1.
     999902    2    1    2    0    0 -0.15877215150E-01 -0.10989895599E-01 -0.16329842157E-01  0.10186411188E+01  0.10183271584E+01 0.  0.
     999903    2    3    3    0    0  0.59171371945E-01  0.86686868116E-01  0.66738532312E-01  0.12618753716E+00  0.21293155646E-01 0.  0.
         14    1    1    2    0    0  0.15877215150E-01  0.10989895599E-01  0.16329842157E-01  0.25288881174E-01  0.00000000000E+00 0.  1.
     999901    1    3    3    0    0 -0.75048587095E-01 -0.97676763714E-01 -0.83068374468E-01  0.89245358167E+00  0.88000000000E+00 0. -1.
        -11    1    4    4    0    0  0.40021535862E-01  0.41353640413E-01  0.40886328988E-01  0.70596033368E-01  0.51100000000E-03 0.  1.
         11    1    4    4    0    0  0.19149836082E-01  0.45333227703E-01  0.25852203324E-01  0.55591503790E-01  0.51100000000E-03 0. -1.
</event>
<event>
 8    1  0.1083484E+005  0.1043930E+01  0.7957747E-01            NaN
         13   -1    0    0    0    0  0.00000000000E+00  0.00000000000E+00  0.74505805969E-08  0.10566000000E+00  0.10566000000E+00 0.  1.
     999900   -1    0    0    0    0 -0.00000000000E+00 -0.00000000000E+00 -0.74505805969E-08  0.93827000000E+00  0.93827000000E+00 0. -1.
     999902    2    1    2    0    0 -0.33406765454E-03 -0.13664406620E-01 -0.20671779146E-01  0.10191479488E+01  0.10188465986E+01 0.  0.
     999903    2    3    3    0    0 -0.58457130392E-01 -0.32670987342E-01  0.10711486424E+00  0.12781806217E+00  0.19473915084E-01 0.  0.
         14    1    1    2    0    0  0.33406765454E-03  0.13664406620E-01  0.20671779146E-01  0.24782051217E-01  0.00000000000E+00 0.  1.
     999901    1    3    3    0    0  0.58123062737E-01  0.19006580721E-01 -0.12778664339E+00  0.89132988661E+00  0.88000000000E+00 0. -1.
        -11    1    4    4    0    0 -0.47139557393E-01 -0.34176945519E-01  0.87114346220E-01  0.10478249813E+00  0.51100000000E-03 0.  1.
         11    1    4    4    0    0 -0.11317572999E-01  0.15059581771E-02  0.20000518023E-01  0.23035564043E-01  0.51100000000E-03 0. -1.
</event>
<event>
 8    1  0.1083484E+005  0.1043930E+01  0.7957747E-01            NaN
         13   -1    0    0    0    0  0.00000000000E+00  0.00000000000E+00  0.74505805969E-08  0.10566000000E+00  0.10566000000E+00 0.  1.
     999900   -1    0    0    0    0 -0.00000000000E+00 -0.00000000000E+00 -0.74505805969E-08  0.93827000000E+00  0.93827000000E+00 0. -1.
     999902    2    1    2    0    0 -0.16857521062E-01 -0.14517318620E-01 -0.92046236019E-02  0.10198540026E+01  0.10195697783E+01 0.  0.
     999903    2    3    3    0    0 -0.69967710467E-01  0.10740710253E+00 -0.32915470704E-02  0.12984208065E+00  0.20405034769E-01 0.  0.
         14    1    1    2    0    0  0.16857521062E-01  0.14517318620E-01  0.92046236019E-02  0.24075997423E-01  0.00000000000E+00 0.  1.
     999901    1    3    3    0    0  0.53110189406E-01 -0.12192442115E+00 -0.59130765315E-02  0.89001192192E+00  0.88000000000E+00 0. -1.
        -11    1    4    4    0    0 -0.31149110560E-01  0.39748397664E-01 -0.10233026656E-01  0.51528420906E-01  0.51100000000E-03 0. -1.
         11    1    4    4    0    0 -0.38818599907E-01  0.67658704868E-01  0.69414795853E-02  0.78313659747E-01  0.51100000000E-03 0.  1.
</event>
<event>
 7    1  0.1083484E+005  0.1043930E+01  0.7957747E-01            NaN
         13   -1    0    0    0    0  0.00000000000E+00  0.00000000000E+00  0.74505805969E-08  0.10566000000E+00  0.10566000000E+00 0.  1.
     999900   -1    0    0    0    0 -0.00000000000E+00 -0.00000000000E+00 -0.74505805969E-08  0.93827000000E+00  0.93827000000E+00 0. -1.
     999902    2    1    2    0    0 -0.87512343109E-02  0.20029654694E-01 -0.97350012120E-02  0.10200021623E+01  0.10197214667E+01 0.  0.
         14    1    1    2    0    0  0.87512343109E-02 -0.20029654694E-01  0.97350012120E-02  0.23927837715E-01  0.00000000000E+00 0.  1.
     999901    1    3    3    0    0 -0.12635976127E+00  0.42657343669E-01  0.92513724889E-02  0.89009663865E+00  0.88000000000E+00 0. -1.
        -11    1    3    3    0    0  0.62119353251E-01 -0.34514262803E-01 -0.17247507234E-01  0.73128558115E-01  0.51100000000E-03 0. -1.
         11    1    3    3    0    0  0.55489173711E-01  0.11886573828E-01 -0.17388664671E-02  0.56776965523E-01  0.51100000000E-03 0.  1.
</event>
<event>
 8    1  0.1083484E+005  0.1043930E+01  0.7957747E-01            NaN
         13   -1    0    0    0    0  0.00000000000E+00  0.00000000000E+00  0.74505805969E-08  0.10566000000E+00  0.10566000000E+00 0. -1.
     999900   -1    0    0    0    0 -0.00000000000E+00 -0.00000000000E+00 -0.74505805969E-08  0.93827000000E+00  0.93827000000E+00 0. -1.
     999902    2    1    2    0    0 -0.11819217780E-01 -0.42264819459E-02 -0.20004945787E-01  0.10203131646E+01  0.10200398026E+01 0.  0.
     999903    2    3    3    0    0  0.63347346701E-01  0.97844612822E-01  0.50207456197E-01  0.12846211078E+00  0.19881414829E-01 0.  0.
         14    1    1    2    0    0  0.11819217780E-01  0.42264819459E-02  0.20004945787E-01  0.23616835404E-01  0.00000000000E+00 0. -1.
     999901    1    3    3    0    0 -0.75166564481E-01 -0.10207109477E+00 -0.70212401984E-01  0.89185105382E+00  0.88000000000E+00 0.  1.
        -11    1    4    4    0    0  0.43867293951E-01  0.79468052842E-01  0.32799060005E-01  0.96517098793E-01  0.51100000000E-03 0. -1.
         11    1    4    4    0    0  0.19480052749E-01  0.18376559980E-01  0.17408396191E-01  0.31945011986E-01  0.51100000000E-03 0.  1.
</event>
<event>
 8    1  0.1083484E+005  0.1043930E+01  0.7957747E-01            NaN
         13   -1    0    0    0    0  0.00000000000E+00  0.00000000000E+00  0.74505805969E-08  0.10566000000E+00  0.10566000000E+00 0.  1.
     999900   -1    0    0    0    0 -0.00000000000E+00 -0.00000000000E+00 -0.74505805969E-08  0.93827000000E+00  0.93827000000E+00 0. -1.
     999902    2    1    2    0    0 -0.66048639739E-02 -0.10150937699E-01 -0.19677927937E-01  0.10208240135E+01  0.10205624821E+01 0.  0.
     999903    2    3    3    0    0  0.30728376049E-01  0.26774847389E-01 -0.12481602640E+00  0.13301136200E+00  0.21256914810E-01 0.  0.
         14    1    1    2    0    0  0.66048639739E-02  0.10150937699E-01  0.19677927937E-01  0.23105986501E-01  0.00000000000E+00 0.  1.
     999901    1    3    3    0    0 -0.37333240023E-01 -0.36925785088E-01  0.10513809846E+00  0.88781265150E+00  0.88000000000E+00 0.  1.
        -11    1    4    4    0    0  0.13904257549E-01  0.84165809540E-02 -0.80954857803E-01  0.82571891924E-01  0.51100000000E-03 0.  1.
         11    1    4    4    0    0  0.16824118500E-01  0.18358266435E-01 -0.43861168597E-01  0.50439470075E-01  0.51100000000E-03 0. -1.
</event>
<event>
 8    1  0.1083484E+005  0.1043930E+01  0.7957747E-01            NaN
         13   -1    0    0    0    0  0.00000000000E+00  0.00000000000E+00  0.74505805969E-08  0.10566000000E+00  0.10566000000E+00 0. -1.
     999900   -1    0    0    0    0 -0.00000000000E+00 -0.00000000000E+00 -0.74505805969E-08  0.93827000000E+00  0.93827000000E+00 0. -1.
     999902    2    1    2    0    0 -0.13352973545E-01  0.23987886440E-01 -0.49832549156E-02  0.10160274297E+01  0.10156442214E+01 0.  0.
     999903    2    3    3    0    0 -0.89219623871E-01 -0.82210006219E-02 -0.89474830915E-01  0.12814681419E+00  0.19701129000E-01 0.  0.
         14    1    1    2    0    0  0.13352973545E-01 -0.23987886440E-01  0.49832549156E-02  0.27902570274E-01  0.00000000000E+00 0.  1.
     999901    1    3    3    0    0  0.75866650326E-01  0.32208887061E-01  0.84491575999E-01  0.88788061554E+00  0.88000000000E+00 0.  1.
        -11    1    4    4    0    0 -0.15197657908E-01  0.22623855136E-02 -0.71948252394E-02  0.16973916028E-01  0.51100000000E-03 0. -1.
         11    1    4    4    0    0 -0.74021965963E-01 -0.10483386135E-01 -0.82280005675E-01  0.11117289816E+00  0.51100000000E-03 0.  1.
</event>
<event>
 8    1  0.1083484E+005  0.1043930E+01  0.7957747E-01            NaN
         13   -1    0    0    0    0  0.00000000000E+00  0.00000000000E+00  0.74505805969E-08  0.10566000000E+00  0.10566000000E+00 0. -1.
     999900   -1    0    0    0    0 -0.00000000000E+00 -0.00000000000E+00 -0.74505805969E-08  0.93827000000E+00  0.93827000000E+00 0.  1.
     999902    2    1    2    0    0 -0.17069609459E-01 -0.15451905539E-01 -0.12959443550E-01  0.10175087940E+01  0.10171657022E+01 0.  0.
     999903    2    3    3    0    0 -0.11835311145E+00 -0.50225680313E-01  0.15463881611E-01  0.13056153024E+00  0.16646428828E-01 0.  0.
         14    1    1    2    0    0  0.17069609459E-01  0.15451905539E-01  0.12959443550E-01  0.26421206048E-01  0.00000000000E+00 0. -1.
     999901    1    3    3    0    0  0.10128350199E+00  0.34773774774E-01 -0.28423325162E-01  0.88694726371E+00  0.88000000000E+00 0.  1.
        -11    1    4    4    0    0 -0.56669990819E-01 -0.27015202021E-01  0.15445934116E-01  0.64654056341E-01  0.51100000000E-03 0.  1.
         11    1    4    4    0    0 -0.61683120629E-01 -0.23210478291E-01  0.17947495352E-04  0.65907473902E-01  0.51100000000E-03 0. -1.
</event>
<event>
 8    1  0.1083484E+005  0.1043930E+01  0.7957747E-01            NaN
         13   -1    0    0    0    0  0.00000000000E+00  0.00000000000E+00  0.74505805969E-08  0.10566000000E+00  0.10566000000E+00 0.  1.
     999900   -1    0    0    0    0 -0.00000000000E+00 -0.00000000000E+00 -0.74505805969E-08  0.93827000000E+00  0.93827000000E+00 0.  1.
     999902    2    1    2    0    0 -0.16201249689E-01  0.40313408000E-02  0.16129763132E-01  0.10207157488E+01  0.10204517325E+01 0.  0.
     999903    2    3    3    0    0 -0.36630170782E-01 -0.44824352706E-02 -0.12272616457E+00  0.12955314082E+00  0.18985341420E-01 0.  0.
         14    1    1    2    0    0  0.16201249689E-01 -0.40313408000E-02 -0.16129763132E-01  0.23214251201E-01  0.00000000000E+00 0. -1.
     999901    1    3    3    0    0  0.20428921092E-01  0.85137760706E-02  0.13885592770E+00  0.89116260798E+00  0.88000000000E+00 0. -1.
        -11    1    4    4    0    0 -0.19082760946E-01 -0.11801377824E-01 -0.63648662569E-01  0.67489537350E-01  0.51100000000E-03 0.  1.
         11    1    4    4    0    0 -0.17547409836E-01  0.73189425534E-02 -0.59077502002E-01  0.62063603471E-01  0.51100000000E-03 0. -1.
</event>
<event>
 8    1  0.1083484E+005  0.1043930E+01  0.7957747E-01            NaN
         13   -1    0    0    0    0  0.00000000000E+00  0.00000000000E+00  0.74505805969E-08  0.10566000000E+00  0.10566000000E+00 0. -1.
     999900   -1    0    0    0    0 -0.00000000000E+00 -0.00000000000E+00 -0.74505805969E-08  0.93827000000E+00  0.93827000000E+00 0.  1.
     999902    2    1    2    0    0 -0.22300885737E-01 -0.31394418220E-02 -0.81634719410E-02  0.10199752954E+01  0.10196939616E+01 0.  0.
     999903    2    3    3    0    0  0.26793852742E-01 -0.11183679278E+00  0.56354654712E-01  0.12958886459E+00  0.19800200852E-01 0.  0.
         14    1    1    2    0    0  0.22300885737E-01  0.31394418220E-02  0.81634719410E-02  0.23954704627E-01  0.00000000000E+00 0. -1.
     999901    1    3    3    0    0 -0.49094738479E-01  0.10869735096E+00 -0.64518126653E-01  0.89038643078E+00  0.88000000000E+00 0. -1.
        -11    1    4    4    0    0  0.28497234902E-01 -0.94343668722E-01  0.43088943589E-01  0.10756271847E+00  0.51100000000E-03 0.  1.
         11    1    4    4    0    0 -0.17033821602E-02 -0.17493124061E-01  0.13265711123E-01  0.22026146118E-01  0.51100000000E-03 0. -1.
</event>
<event>
 8    1  0.1083484E+005  0.1043930E+01  0.7957747E-01            NaN
         13   -1    0    0    0    0  0.00000000000E+00  0.00000000000E+00  0.74505805969E-08  0.10566000000E+00  0.10566000000E+00 0. -1.
     999900   -1    0    0    0    0 -0.00000000000E+00 -0.00000000000E+00 -0.74505805969E-08  0.93827000000E+00  0.93827000000E+00 0.  1.
     999902    2    1    2    0    0 -0.17389172721E-01  0.15568203520E-01 -0.12486395136E-02  0.10205566949E+01  0.10202890062E+01 0.  0.
     999903    2    3    3    0    0 -0.49250279356E-01 -0.96138854608E-01 -0.69960366090E-01  0.13026747322E+00  0.20171573375E-01 0.  0.
         14    1    1    2    0    0  0.17389172721E-01 -0.15568203520E-01  0.12486395136E-02  0.23373305059E-01  0.00000000000E+00 0. -1.
     999901    1    3    3    0    0  0.31861106635E-01  0.11170705813E+00  0.68711726576E-01  0.89028922173E+00  0.88000000000E+00 0.  1.
        -11    1    4    4    0    0 -0.22071224113E-01 -0.64418846216E-01 -0.42296221611E-01  0.80163321820E-01  0.51100000000E-03 0. -1.
         11    1    4    4    0    0 -0.27179055243E-01 -0.31720008392E-01 -0.27664144479E-01  0.50104151395E-01  0.51100000000E-03 0.  1.
</event>
<event>
 8    1  0.1083484E+005  0.1043930E+01  0.7957747E-01            NaN
         13   -1    0    0    0    0  0.00000000000E+00  0.00000000000E+00  0.74505805969E-08  0.10566000000E+00  0.10566000000E+00 0. -1.
     999900   -1    0    0    0    0 -0.00000000000E+00 -0.00000000000E+00 -0.74505805969E-08  0.93827000000E+00  0.93827000000E+00 0.  1.
     999902    2    1    2    0    0 -0.68603474436E-02 -0.34933828939E-02  0.20895600503E-01  0.10216613177E+01  0.10214185987E+01 0.  0.
     999903    2    3    3    0    0  0.92089794544E-01 -0.83549194874E-01 -0.35160427012E-01  0.13073913150E+00  0.19886343447E-01 0.  0.
         14    1    1    2    0    0  0.68603474436E-02  0.34933828939E-02 -0.20895600503E-01  0.22268682302E-01  0.00000000000E+00 0.  1.
     999901    1    3    3    0    0 -0.98950141987E-01  0.80055811980E-01  0.56056027515E-01  0.89092218619E+00  0.88000000000E+00 0. -1.
        -11    1    4    4    0    0  0.47410906903E-01 -0.47985419652E-01 -0.28546918525E-01  0.73250134954E-01  0.51100000000E-03 0.  1.
         11    1    4    4    0    0  0.44678887641E-01 -0.35563775222E-01 -0.66135084869E-02  0.57488996550E-01  0.51100000000E-03 0. -1.
</event>
<event>
 8    1  0.1083484E+005  0.1043930E+01  0.7957747E-01            NaN
         13   -1    0    0    0    0  0.00000000000E+00  0.00000000000E+00  0.74505805969E-08  0.10566000000E+00  0.10566000000E+00 0. -1.
     999900   -1    0    0    0    0 -0.00000000000E+00 -0.00000000000E+00 -0.74505805969E-08  0.93827000000E+00  0.93827000000E+00 0.  1.
     999902    2    1    2    0    0 -0.90911020163E-02 -0.87621379782E-02 -0.18942964819E-01  0.10211646950E+01  0.10209109046E+01 0.  0.
     999903    2    3    3    0    0 -0.65589483091E-01  0.65015229852E-01  0.88744469830E-01  0.12974349785E+00  0.20708305167E-01 0.  0.
         14    1    1    2    0    0  0.90911020163E-02  0.87621379782E-02  0.18942964819E-01  0.22765305049E-01  0.00000000000E+00 0. -1.
     999901    1    3    3    0    0  0.56498381075E-01 -0.73777367830E-01 -0.10768743465E+00  0.89142119711E+00  0.88000000000E+00 0.  1.
        -11    1    4    4    0    0 -0.44154181999E-02  0.36063303884E-02  0.14585339338E-01  0.15668273081E-01  0.51100000000E-03 0.  1.
         11    1    4    4    0    0 -0.61174064891E-01  0.61408899464E-01  0.74159130492E-01  0.11407522476E+00  0.51100000000E-03 0. -1.
</event>
<event>
 8    1  0.1083484E+005  0.1043930E+01  0.7957747E-01            NaN
         13   -1    0    0    0    0  0.00000000000E+00  0.00000000000E+00  0.74505805969E-08  0.10566000000E+00  0.10566000000E+00 0. -1.
     999900   -1    0    0    0    0 -0.00000000000E+00 -0.00000000000E+00 -0.74505805969E-08  0.93827000000E+00  0.93827000000E+00 0.  1.
     999902    2    1    2    0    0  0.18848038682E-01  0.83053497208E-02 -0.11222275171E-01  0.10204743641E+01  0.10202047642E+01 0.  0.
     999903    2    3    3    0    0  0.11223393613E+00 -0.50330595250E-01  0.43362161831E-01  0.13191454019E+00  0.19787460595E-01 0.  0.
         14    1    1    2    0    0 -0.18848038682E-01 -0.83053497208E-02  0.11222275171E-01  0.23455635915E-01  0.00000000000E+00 0.  1.
     999901    1    3    3    0    0 -0.93385897447E-01  0.58635944971E-01 -0.54584437001E-01  0.88855982390E+00  0.88000000000E+00 0.  1.
        -11    1    4    4    0    0  0.63607051933E-01 -0.31196805730E-01  0.14860901200E-01  0.72389261972E-01  0.51100000000E-03 0. -1.
         11    1    4    4    0    0  0.48626884196E-01 -0.19133789520E-01  0.28501260630E-01  0.59525278215E-01  0.51100000000E-03 0.  1.
</event>
<event>
 8    1  0.1083484E+005  0.1043930E+01  0.7957747E-01            NaN
         13   -1    0    0    0    0  0.00000000000E+00  0.00000000000E+00  0.74505805969E-08  0.10566000000E+00  0.10566000000E+00 0.  1.
     999900   -1    0    0    0    0 -0.00000000000E+00 -0.00000000000E+00 -0.74505805969E-08  0.93827000000E+00  0.93827000000E+00 0. -1.
     999902    2    1    2    0    0 -0.18127347923E-01  0.36902295686E-02  0.15448869507E-01  0.10198284211E+01  0.10195435853E+01 0.  0.
     999903    2    3    3    0    0  0.10309573896E+00  0.74096240279E-01  0.96397236875E-02  0.12871350745E+00  0.18848302617E-01 0.  0.
         14    1    1    2    0    0  0.18127347923E-01 -0.36902295686E-02 -0.15448869507E-01  0.24101578911E-01  0.00000000000E+00 0. -1.
     999901    1    3    3    0    0 -0.12122308688E+00 -0.70406010710E-01  0.58091458197E-02  0.89111491364E+00  0.88000000000E+00 0.  1.
        -11    1    4    4    0    0  0.22757686628E-01  0.20954473139E-01  0.95785656680E-02  0.32388459155E-01  0.51100000000E-03 0. -1.
         11    1    4    4    0    0  0.80338052332E-01  0.53141767140E-01  0.61158019416E-04  0.96325048293E-01  0.51100000000E-03 0.  1.
</event>
<event>
 8    1  0.1083484E+005  0.1043930E+01  0.7957747E-01            NaN
         13   -1    0    0    0    0  0.00000000000E+00  0.00000000000E+00  0.74505805969E-08  0.10566000000E+00  0.10566000000E+00 0.  1.
     999900   -1    0    0    0    0 -0.00000000000E+00 -0.00000000000E+00 -0.74505805969E-08  0.93827000000E+00  0.93827000000E+00 0.  1.
     999902    2    1    2    0    0  0.20881211997E-02 -0.41672062501E-02 -0.23640402067E-01  0.10198344720E+01  0.10195497810E+01 0.  0.
     999903    2    3    3    0    0 -0.16344225368E-02 -0.76230552434E-01  0.10076187155E+00  0.12816025525E+00  0.21408591906E-01 0.  0.
         14    1    1    2    0    0 -0.20881211997E-02  0.41672062501E-02  0.23640402067E-01  0.24095527966E-01  0.00000000000E+00 0.  1.
     999901    1    3    3    0    0  0.37225437365E-02  0.72063346184E-01 -0.12440227361E+00  0.89167421678E+00  0.88000000000E+00 0.  1.
        -11    1    4    4    0    0  0.81306221581E-02 -0.16065274980E-01  0.19050476906E-01  0.26217968423E-01  0.51100000000E-03 0.  1.
         11    1    4    4    0    0 -0.97650446949E-02 -0.60165277454E-01  0.81711394639E-01  0.10194228683E+00  0.51100000000E-03 0. -1.
</event>
<event>
 8    1  0.1083484E+005  0.1043930E+01  0.7957747E-01            NaN
         13   -1    0    0    0    0  0.00000000000E+00  0.00000000000E+00  0.74505805969E-08  0.10566000000E+00  0.10566000000E+00 0.  1.
     999900   -1    0    0    0    0 -0.00000000000E+00 -0.00000000000E+00 -0.74505805969E-08  0.93827000000E+00  0.93827000000E+00 0. -1.
     999902    2    1    2    0    0  0.13648402249E-01 -0.19478989404E-01 -0.17055690207E-02  0.10200842692E+01  0.10198055194E+01 0.  0.
     999903    2    3    3    0    0  0.63270886177E-01 -0.59836106891E-02  0.11299876972E+00  0.13115142500E+00  0.19823362107E-01 0.  0.
         14    1    1    2    0    0 -0.13648402249E-01  0.19478989404E-01  0.17055690207E-02  0.23845730809E-01  0.00000000000E+00 0.  1.
     999901    1    3    3    0    0 -0.49622483928E-01 -0.13495378715E-01 -0.11470433875E+00  0.88893284419E+00  0.88000000000E+00 0. -1.
        -11    1    4    4    0    0  0.59681160930E-01 -0.55977200628E-02  0.91783216995E-01  0.10962479411E+00  0.51100000000E-03 0.  1.
         11    1    4    4    0    0  0.35897252464E-02 -0.38589062631E-03  0.21215552729E-01  0.21526630891E-01  0.51100000000E-03 0. -1.
</event>
<event>
 8    1  0.1083484E+005  0.1043930E+01  0.7957747E-01            NaN
         13   -1    0    0    0    0  0.00000000000E+00  0.00000000000E+00  0.74505805969E-08  0.10566000000E+00  0.10566000000E+00 0.  1.
     999900   -1    0    0    0    0 -0.00000000000E+00 -0.00000000000E+00 -0.74505805969E-08  0.93827000000E+00  0.93827000000E+00 0.  1.
     999902    2    1    2    0    0  0.10028132138E-01  0.20569680722E-01 -0.88469776770E-02  0.10193954486E+01  0.10191001601E+01 0.  0.
     999903    2    3    3    0    0  0.11817856535E+00 -0.48183161174E-01 -0.14575097057E-01  0.13009444171E+00  0.20599514093E-01 0.  0.
         14    1    1    2    0    0 -0.10028132138E-01 -0.20569680722E-01  0.88469776770E-02  0.24534551417E-01  0.00000000000E+00 0. -1.
     999901    1    3    3    0    0 -0.10815043321E+00  0.68752841897E-01  0.57281193800E-02  0.88930100687E+00  0.88000000000E+00 0.  1.
        -11    1    4    4    0    0  0.53031517673E-01 -0.15173599750E-01 -0.14594583406E-01  0.57059994583E-01  0.51100000000E-03 0.  1.
         11    1    4    4    0    0  0.65147047677E-01 -0.33009561424E-01  0.19486348907E-04  0.73034447128E-01  0.51100000000E-03 0. -1.
</event>
<event>
 8    1  0.1083484E+005  0.1043930E+01  0.7957747E-01            NaN
         13   -1    0    0    0    0  0.00000000000E+00  0.00000000000E+00  0.74505805969E-08  0.10566000000E+00  0.10566000000E+00 0. -1.
     999900   -1    0    0    0    0 -0.00000000000E+00 -0.00000000000E+00 -0.74505805969E-08  0.93827000000E+00  0.93827000000E+00 0.  1.
     999902    2    1    2    0    0 -0.14028279574E-01  0.16305836619E-01 -0.10133023596E-01  0.10201528870E+01  0.10198757580E+01 0.  0.
     999903    2    3    3    0    0  0.11383270675E+00 -0.53695421061E-01 -0.16456339726E-01  0.12813910222E+00  0.17542378192E-01 0.  0.
         14    1    1    2    0    0  0.14028279574E-01 -0.16305836619E-01  0.10133023596E-01  0.23777113005E-01  0.00000000000E+00 0. -1.
     999901    1    3    3    0    0 -0.12786098632E+00  0.70001257681E-01  0.63233161303E-02  0.89201378477E+00  0.88000000000E+00 0. -1.
        -11    1    4    4    0    0  0.20340686134E-01 -0.16969336121E-01 -0.10411964186E-02  0.26515035202E-01  0.51100000000E-03 0.  1.
         11    1    4    4    0    0  0.93492020612E-01 -0.36726084941E-01 -0.15415143308E-01  0.10162406702E+00  0.51100000000E-03 0. -1.
</event>
<event>
 8    1  0.1083484E+005  0.1043930E+01  0.7957747E-01            NaN
         13   -1    0    0    0    0  0.00000000000E+00  0.00000000000E+00  0.74505805969E-08  0.10566000000E+00  0.10566000000E+00 0. -1.
     999900   -1    0    0    0    0 -0.00000000000E+00 -0.00000000000E+00 -0.74505805969E-08  0.93827000000E+00  0.93827000000E+00 0.  1.
     999902    2    1    2    0    0 -0.15683169773E-01  0.48960217027E-04 -0.18781890514E-01  0.10194611704E+01  0.10191674810E+01 0.  0.
     999903    2    3    3    0    0  0.10563987604E+00  0.69882339405E-01 -0.46370183856E-02  0.12828438675E+00  0.19800433684E-01 0.  0.
         14    1    1    2    0    0  0.15683169773E-01 -0.48960217027E-04  0.18781890514E-01  0.24468829610E-01  0.00000000000E+00 0. -1.
     999901    1    3    3    0    0 -0.12132304581E+00 -0.69833379188E-01 -0.14144872128E-01  0.89117678364E+00  0.88000000000E+00 0.  1.
        -11    1    4    4    0    0  0.69919259529E-01  0.37817757564E-01  0.36210433358E-02  0.79575490675E-01  0.51100000000E-03 0. -1.
         11    1    4    4    0    0  0.35720616509E-01  0.32064581841E-01 -0.82580617213E-02  0.48708896074E-01  0.51100000000E-03 0.  1.
</event>
<event>
 8    1  0.1083484E+005  0.1043930E+01  0.7957747E-01            NaN
         13   -1    0    0    0    0  0.00000000000E+00  0.00000000000E+00  0.74505805969E-08  0.10566000000E+00  0.10566000000E+00 0.  1.
     999900   -1    0    0    0    0 -0.00000000000E+00 -0.00000000000E+00 -0.74505805969E-08  0.93827000000E+00  0.93827000000E+00 0. -1.
     999902    2    1    2    0    0 -0.13517366486E-01 -0.31115505339E-02 -0.19597635836E-01  0.10199202463E+01  0.10196376025E+01 0.  0.
     999903    2    3    3    0    0  0.73784871752E-01 -0.85722006782E-01 -0.60629986858E-01  0.13080280628E+00  0.25316182126E-01 0.  0.
         14    1    1    2    0    0  0.13517366486E-01  0.31115505339E-02  0.19597635836E-01  0.24009753722E-01  0.00000000000E+00 0.  1.
     999901    1    3    3    0    0 -0.87302238238E-01  0.82610456248E-01  0.41032351022E-01  0.88911744000E+00  0.88000000000E+00 0.  1.
        -11    1    4    4    0    0  0.27640989426E-01 -0.17658687076E-01 -0.24701623315E-01  0.41064398706E-01  0.51100000000E-03 0.  1.
         11    1    4    4    0    0  0.46143882326E-01 -0.68063319706E-01 -0.35928363543E-01  0.89738407571E-01  0.51100000000E-03 0. -1.
</event>
<event>
 8    1  0.1083484E+005  0.1043930E+01  0.7957747E-01            NaN
         13   -1    0    0    0    0  0.00000000000E+00  0.00000000000E+00  0.74505805969E-08  0.10566000000E+00  0.10566000000E+00 0.  1.
     999900   -1    0    0    0    0 -0.00000000000E+00 -0.00000000000E+00 -0.74505805969E-08  0.93827000000E+00  0.93827000000E+00 0.  1.
     999902    2    1    2    0    0 -0.11185851643E-01  0.19803390175E-01  0.59237691493E-02  0.10204270517E+01  0.10201563504E+01 0.  0.
     999903    2    3    3    0    0 -0.55277383647E-01 -0.49718026359E-01 -0.10431749378E+00  0.12973606900E+00  0.20538666031E-01 0.  0.
         14    1    1    2    0    0  0.11185851643E-01 -0.19803390175E-01 -0.59237691493E-02  0.23502948333E-01  0.00000000000E+00 0. -1.
     999901    1    3    3    0    0  0.44091532004E-01  0.69521416534E-01  0.11024126293E+00  0.89069098267E+00  0.88000000000E+00 0. -1.
        -11    1    4    4    0    0 -0.21670580554E-01 -0.33016282058E-01 -0.56849835377E-01  0.69223217534E-01  0.51100000000E-03 0.  1.
         11    1    4    4    0    0 -0.33606803093E-01 -0.16701744301E-01 -0.47467658407E-01  0.60512851466E-01  0.51100000000E-03 0. -1.
</event>
<event>
 8    1  0.1083484E+005  0.1043930E+01  0.7957747E-01            NaN
         13   -1    0    0    0    0  0.00000000000E+00  0.00000000000E+00  0.74505805969E-08  0.10566000000E+00  0.10566000000E+00 0.  1.
     999900   -1    0    0    0    0 -0.00000000000E+00 -0.00000000000E+00 -0.74505805969E-08  0.93827000000E+00  0.93827000000E+00 0. -1.
     999902    2    1    2    0    0  0.80242659137E-02 -0.33730371964E-02  0.21575922841E-01  0.10206644317E+01  0.10203992333E+01 0.  0.
     999903    2    3    3    0    0 -0.73209509653E-01  0.45738520834E-01 -0.92590284818E-01  0.12822687397E+00  0.20433447401E-01 0.  0.
         14    1    1    2    0    0 -0.80242659137E-02  0.33730371964E-02 -0.21575922841E-01  0.23265568332E-01  0.00000000000E+00 0. -1.
     999901    1    3    3    0    0  0.81233775567E-01 -0.49111558031E-01  0.11416620766E+00  0.89243755770E+00  0.88000000000E+00 0.  1.
        -11    1    4    4    0    0 -0.64250011263E-01  0.34526047387E-01 -0.67844198543E-01  0.99615301497E-01  0.51100000000E-03 0. -1.
         11    1    4    4    0    0 -0.89594983903E-02  0.11212473448E-01 -0.24746086275E-01  0.28611572469E-01  0.51100000000E-03 0.  1.
</event>
<event>
 8    1  0.1083484E+005  0.1043930E+01  0.7957747E-01            NaN
         13   -1    0    0    0    0  0.00000000000E+00  0.00000000000E+00  0.74505805969E-08  0.10566000000E+00  0.10566000000E+00 0.  1.
     999900   -1    0    0    0    0 -0.00000000000E+00 -0.00000000000E+00 -0.74505805969E-08  0.93827000000E+00  0.93827000000E+00 0.  1.
     999902    2    1    2    0    0  0.13474044860E-01 -0.30734200288E-02 -0.18950152106E-01  0.10204757027E+01  0.10202061340E+01 0.  0.
     999903    2    3    3    0    0 -0.27027936598E-01 -0.11550406276E+00  0.49343343361E-01  0.12977650466E+00  0.18316051883E-01 0.  0.
         14    1    1    2    0    0 -0.13474044860E-01  0.30734200288E-02  0.18950152106E-01  0.23454297270E-01  0.00000000000E+00 0.  1.
     999901    1    3    3    0    0  0.40501981458E-01  0.11243064273E+00 -0.68293495467E-01  0.89069919807E+00  0.88000000000E+00 0. -1.
        -11    1    4    4    0    0 -0.11432059655E-01 -0.61499589350E-01  0.16593393655E-01  0.64718570072E-01  0.51100000000E-03 0.  1.
         11    1    4    4    0    0 -0.15595876943E-01 -0.54004473407E-01  0.32749949706E-01  0.65057934584E-01  0.51100000000E-03 0. -1.
</event>
<event>
 8    1  0.1083484E+005  0.1043930E+01  0.7957747E-01            NaN
         13   -1    0    0    0    0  0.00000000000E+00  0.00000000000E+00  0.74505805969E-08  0.10566000000E+00  0.10566000000E+00 0. -1.
     999900   -1    0    0    0    0 -0.00000000000E+00 -0.00000000000E+00 -0.74505805969E-08  0.93827000000E+00  0.93827000000E+00 0.  1.
     999902    2    1    2    0    0  0.64638463219E-03 -0.16971423699E-01  0.17057628388E-01  0.10198590689E+01  0.10195749658E+01 0.  0.
     999903    2    3    3    0    0  0.31079545276E-01 -0.11691228202E+00 -0.46878992052E-01  0.13137595495E+00  0.20678051671E-01 0.  0.
         14    1    1    2    0    0 -0.64638463219E-03  0.16971423699E-01 -0.17057628388E-01  0.24070931052E-01  0.00000000000E+00 0.  1.
     999901    1    3    3    0    0 -0.30433160644E-01  0.99940858323E-01  0.63936620440E-01  0.88848311400E+00  0.88000000000E+00 0.  1.
        -11    1    4    4    0    0  0.51938667741E-02 -0.33894067096E-01 -0.43392549438E-02  0.34566953740E-01  0.51100000000E-03 0.  1.
         11    1    4    4    0    0  0.25885678502E-01 -0.83018214925E-01 -0.42539737108E-01  0.96809001209E-01  0.51100000000E-03 0. -1.
</event>
<event>
 8    1  0.1083484E+005  0.1043930E+01  0.7957747E-01            NaN
         13   -1    0    0    0    0  0.00000000000E+00  0.00000000000E+00  0.74505805969E-08  0.10566000000E+00  0.10566000000E+00 0. -1.
     999900   -1    0    0    0    0 -0.00000000000E+00 -0.00000000000E+00 -0.74505805969E-08  0.93827000000E+00  0.93827000000E+00 0. -1.
     999902    2    1    2    0    0  0.14576656577E-01 -0.18911160502E-01 -0.11805942355E-01  0.10172937243E+01  0.10169449495E+01 0.  0.
     999903    2    3    3    0    0 -0.33188498103E-02  0.99111712251E-01 -0.76724654706E-01  0.12686456549E+00  0.19333883916E-01 0.  0.
         14    1    1    2    0    0 -0.14576656577E-01  0.18911160502E-01  0.11805942355E-01  0.26636275704E-01  0.00000000000E+00 0. -1.
     999901    1    3    3    0    0  0.17895506388E-01 -0.11802287275E+00  0.64918712352E-01  0.89042915881E+00  0.88000000000E+00 0. -1.
        -11    1    4    4    0    0 -0.50246842110E-02  0.42515209626E-01 -0.22077659894E-01  0.48171305654E-01  0.51100000000E-03 0.  1.
         11    1    4    4    0    0  0.17058344007E-02  0.56596502625E-01 -0.54646994812E-01  0.78693259835E-01  0.51100000000E-03 0. -1.
</event>
<event>
 8    1  0.1083484E+005  0.1043930E+01  0.7957747E-01            NaN
         13   -1    0    0    0    0  0.00000000000E+00  0.00000000000E+00  0.74505805969E-08  0.10566000000E+00  0.10566000000E+00 0.  1.
     999900   -1    0    0    0    0 -0.00000000000E+00 -0.00000000000E+00 -0.74505805969E-08  0.93827000000E+00  0.93827000000E+00 0. -1.
     999902    2    1    2    0    0 -0.14726717227E-01 -0.17966647055E-01 -0.52347204162E-02  0.10201165814E+01  0.10198385955E+01 0.  0.
     999903    2    3    3    0    0  0.98445751700E-01  0.37895583856E-01  0.69681035654E-01  0.12796134433E+00  0.19774165165E-01 0.  0.
         14    1    1    2    0    0  0.14726717227E-01  0.17966647055E-01  0.52347204162E-02  0.23813418581E-01  0.00000000000E+00 0. -1.
     999901    1    3    3    0    0 -0.11317246893E+00 -0.55862230912E-01 -0.74915756071E-01  0.89215523709E+00  0.88000000000E+00 0. -1.
        -11    1    4    4    0    0  0.15950313535E-01 -0.78803743550E-03  0.13495363434E-01  0.20914575303E-01  0.51100000000E-03 0. -1.
         11    1    4    4    0    0  0.82495438165E-01  0.38683621292E-01  0.56185672220E-01  0.10704676902E+00  0.51100000000E-03 0.  1.
</event>
<event>
 8    1  0.1083484E+005  0.1043930E+01  0.7957747E-01            NaN
         13   -1    0    0    0    0  0.00000000000E+00  0.00000000000E+00  0.74505805969E-08  0.10566000000E+00  0.10566000000E+00 0. -1.
     999900   -1    0    0    0    0 -0.00000000000E+00 -0.00000000000E+00 -0.74505805969E-08  0.93827000000E+00  0.93827000000E+00 0. -1.
     999902    2    1    2    0    0  0.75699011774E-02 -0.13081988892E-01  0.18594036602E-01  0.10199679459E+01  0.10196864375E+01 0.  0.
     999903    2    3    3    0    0  0.74000393087E-02 -0.12745172826E+00 -0.24448262971E-01  0.13152374078E+00  0.20051763221E-01 0.  0.
         14    1    1    2    0    0 -0.75699011774E-02  0.13081988892E-01 -0.18594036602E-01  0.23962054051E-01  0.00000000000E+00 0.  1.
     999901    1    3    3    0    0  0.16986186871E-03  0.11436973937E+00  0.43042299573E-01  0.88844420516E+00  0.88000000000E+00 0.  1.
        -11    1    4    4    0    0  0.23953054321E-02 -0.64508594980E-02 -0.57529839916E-02  0.89838200218E-02  0.51100000000E-03 0.  1.
         11    1    4    4    0    0  0.50047338766E-02 -0.12100086877E+00 -0.18695278979E-01  0.12253992076E+00  0.51100000000E-03 0. -1.
</event>
<event>
 8    1  0.1083484E+005  0.1043930E+01  0.7957747E-01            NaN
         13   -1    0    0    0    0  0.00000000000E+00  0.00000000000E+00  0.74505805969E-08  0.10566000000E+00  0.10566000000E+00 0. -1.
     999900   -1    0    0    0    0 -0.00000000000E+00 -0.00000000000E+00 -0.74505805969E-08  0.93827000000E+00  0.93827000000E+00 0.  1.
     999902    2    1    2    0    0 -0.10631643898E-01  0.34615508753E-02  0.20968447520E-01  0.10201667936E+01  0.10198899925E+01 0.  0.
     999903    2    3    3    0    0 -0.11828304539E+00 -0.43528089482E-01 -0.29509073006E-01  0.13092845063E+00  0.19644347662E-01 0.  0.
         14    1    1    2    0    0  0.10631643898E-01 -0.34615508753E-02 -0.20968447520E-01  0.23763206388E-01  0.00000000000E+00 0.  1.
     999901    1    3    3    0    0  0.10765140149E+00  0.46989640357E-01  0.50477520526E-01  0.88923834298E+00  0.88000000000E+00 0.  1.
        -11    1    4    4    0    0 -0.73451820368E-01 -0.25285909248E-01 -0.27755270291E-01  0.82493413506E-01  0.51100000000E-03 0.  1.
         11    1    4    4    0    0 -0.44831225022E-01 -0.18242180233E-01 -0.17538027145E-02  0.48435037128E-01  0.51100000000E-03 0. -1.
</event>
<event>
 8    1  0.1083484E+005  0.1043930E+01  0.7957747E-01            NaN
         13   -1    0    0    0    0  0.00000000000E+00  0.00000000000E+00  0.74505805969E-08  0.10566000000E+00  0.10566000000E+00 0.  1.
     999900   -1    0    0    0    0 -0.00000000000E+00 -0.00000000000E+00 -0.74505805969E-08  0.93827000000E+00  0.93827000000E+00 0.  1.
     999902    2    1    2    0    0 -0.25268987688E-02 -0.24646478056E-01  0.36378601134E-02  0.10188886717E+01  0.10185809036E+01 0.  0.
     999903    2    3    3    0    0  0.10254298694E+00  0.14718751917E-02 -0.75251508588E-01  0.12875082743E+00  0.19918720655E-01 0.  0.
         14    1    1    2    0    0  0.25268987688E-02  0.24646478056E-01 -0.36378601134E-02  0.25041328323E-01  0.00000000000E+00 0. -1.
     999901    1    3    3    0    0 -0.10506988571E+00 -0.26118353248E-01  0.78889368701E-01  0.89013784424E+00  0.88000000000E+00 0. -1.
        -11    1    4    4    0    0  0.39994998668E-02 -0.34104362455E-02 -0.70461359041E-02  0.88054657315E-02  0.51100000000E-03 0. -1.
         11    1    4    4    0    0  0.98543487076E-01  0.48823114373E-02 -0.68205372684E-01  0.11994536170E+00  0.51100000000E-03 0.  1.
</event>
<event>
 8    1  0.1083484E+005  0.1043930E+01  0.7957747E-01            NaN
         13   -1    0    0    0    0  0.00000000000E+00  0.00000000000E+00  0.74505805969E-08  0.10566000000E+00  0.10566000000E+00 0.  1.
     999900   -1    0    0    0    0 -0.00000000000E+00 -0.00000000000E+00 -0.74505805969E-08  0.93827000000E+00  0.93827000000E+00 0. -1.
     999902    2    1    2    0    0  0.13474248130E-01 -0.17335717575E-01 -0.93262847138E-02  0.10200749785E+01  0.10197960088E+01 0.  0.
     999903    2    3    3    0    0 -0.31236383750E-01  0.60189845771E-01  0.10667466575E+00  0.12796205170E+00  0.19906610915E-01 0.  0.
         14    1    1    2    0    0 -0.13474248130E-01  0.17335717575E-01  0.93262847138E-02  0.23855021548E-01  0.00000000000E+00 0. -1.
     999901    1    3    3    0    0  0.44710631880E-01 -0.77525563346E-01 -0.11600095046E+00  0.89211292676E+00  0.88000000000E+00 0. -1.
        -11    1    4    4    0    0 -0.14429243243E-01  0.14637492903E-01  0.44937250137E-01  0.49417373766E-01  0.51100000000E-03 0. -1.
         11    1    4    4    0    0 -0.16807140507E-01  0.45552352868E-01  0.61737415611E-01  0.78544677930E-01  0.51100000000E-03 0.  1.
</event>
<event>
 8    1  0.1083484E+005  0.1043930E+01  0.7957747E-01            NaN
         13   -1    0    0    0    0  0.00000000000E+00  0.00000000000E+00  0.74505805969E-08  0.10566000000E+00  0.10566000000E+00 0.  1.
     999900   -1    0    0    0    0 -0.00000000000E+00 -0.00000000000E+00 -0.74505805969E-08  0.93827000000E+00  0.93827000000E+00 0. -1.
     999902    2    1    2    0    0 -0.22228124808E-01 -0.52051384132E-02  0.89162308491E-02  0.10194211818E+01  0.10191265200E+01 0.  0.
     999903    2    3    3    0    0 -0.14359286552E-01 -0.55495661928E-03  0.12878412311E+00  0.13124785725E+00  0.20836328357E-01 0.  0.
         14    1    1    2    0    0  0.22228124808E-01  0.52051384132E-02 -0.89162308491E-02  0.24508818228E-01  0.00000000000E+00 0. -1.
     999901    1    3    3    0    0 -0.78688382555E-02 -0.46501817939E-02 -0.11986789226E+00  0.88817332453E+00  0.88000000000E+00 0. -1.
        -11    1    4    4    0    0 -0.49987621181E-02 -0.10328416309E-01  0.68965403377E-01  0.69915318709E-01  0.51100000000E-03 0. -1.
         11    1    4    4    0    0 -0.93605244342E-02  0.97734596897E-02  0.59818719732E-01  0.61332538536E-01  0.51100000000E-03 0.  1.
</event>
<event>
 8    1  0.1083484E+005  0.1043930E+01  0.7957747E-01            NaN
         13   -1    0    0    0    0  0.00000000000E+00  0.00000000000E+00  0.74505805969E-08  0.10566000000E+00  0.10566000000E+00 0.  1.
     999900   -1    0    0    0    0 -0.00000000000E+00 -0.00000000000E+00 -0.74505805969E-08  0.93827000000E+00  0.93827000000E+00 0.  1.
     999902    2    1    2    0    0 -0.23788834959E-01  0.18318201503E-02  0.25984493225E-02  0.10199296631E+01  0.10196472436E+01 0.  0.
     999903    2    3    3    0    0 -0.81025158892E-01  0.72065259920E-01 -0.72105238919E-01  0.13212936240E+00  0.22372413092E-01 0.  0.
         14    1    1    2    0    0  0.23788834959E-01 -0.18318201503E-02 -0.25984493225E-02  0.24000336928E-01  0.00000000000E+00 0.  1.
     999901    1    3    3    0    0  0.57236323933E-01 -0.70233439770E-01  0.74703688242E-01  0.88780030067E+00  0.88000000000E+00 0. -1.
        -11    1    4    4    0    0 -0.25280681920E-01  0.37156989327E-01 -0.29574235344E-01  0.53801963267E-01  0.51100000000E-03 0. -1.
         11    1    4    4    0    0 -0.55744476972E-01  0.34908270593E-01 -0.42531003575E-01  0.78327399132E-01  0.51100000000E-03 0.  1.
</event>
<event>
 8    1  0.1083484E+005  0.1043930E+01  0.7957747E-01            NaN
         13   -1    0    0    0    0  0.00000000000E+00  0.00000000000E+00  0.74505805969E-08  0.10566000000E+00  0.10566000000E+00 0. -1.
     999900   -1    0    0    0    0 -0.00000000000E+00 -0.00000000000E+00 -0.74505805969E-08  0.93827000000E+00  0.93827000000E+00 0.  1.
     999902    2    1    2    0    0  0.77215093157E-02  0.27451431325E-03  0.22465067064E-01  0.10201733946E+01  0.10198967490E+01 0.  0.
     999903    2    3    3    0    0 -0.39595926850E-01 -0.30886307373E-01 -0.11559973907E+00  0.12760864773E+00  0.19971627277E-01 0.  0.
         14    1    1    2    0    0 -0.77215093157E-02 -0.27451431325E-03 -0.22465067064E-01  0.23756605447E-01  0.00000000000E+00 0.  1.
     999901    1    3    3    0    0  0.47317436166E-01  0.31160821686E-01  0.13806480614E+00  0.89256474682E+00  0.88000000000E+00 0. -1.
        -11    1    4    4    0    0 -0.15834772600E-01 -0.11215418507E-01 -0.69334901398E-01  0.72000800749E-01  0.51100000000E-03 0.  1.
         11    1    4    4    0    0 -0.23761154250E-01 -0.19670888866E-01 -0.46264837674E-01  0.55607846983E-01  0.51100000000E-03 0. -1.
</event>
<event>
 8    1  0.1083484E+005  0.1043930E+01  0.7957747E-01            NaN
         13   -1    0    0    0    0  0.00000000000E+00  0.00000000000E+00  0.74505805969E-08  0.10566000000E+00  0.10566000000E+00 0.  1.
     999900   -1    0    0    0    0 -0.00000000000E+00 -0.00000000000E+00 -0.74505805969E-08  0.93827000000E+00  0.93827000000E+00 0.  1.
     999902    2    1    2    0    0 -0.87676372129E-03 -0.22441145118E-01  0.64131935055E-02  0.10205739995E+01  0.10203067116E+01 0.  0.
     999903    2    3    3    0    0 -0.84475782676E-01  0.93756868209E-01  0.17902295281E-01  0.12893350370E+00  0.19412573391E-01 0.  0.
         14    1    1    2    0    0  0.87676372129E-03  0.22441145118E-01 -0.64131935055E-02  0.23356000509E-01  0.00000000000E+00 0.  1.
     999901    1    3    3    0    0  0.83599018955E-01 -0.11619801333E+00 -0.11489101775E-01  0.89164049579E+00  0.88000000000E+00 0. -1.
        -11    1    4    4    0    0 -0.25143741533E-01  0.20476619250E-01 -0.22696865199E-02  0.32510187204E-01  0.51100000000E-03 0.  1.
         11    1    4    4    0    0 -0.59332041143E-01  0.73280248959E-01  0.20171981801E-01  0.96423316498E-01  0.51100000000E-03 0. -1.
</event>
<event>
 8    1  0.1083484E+005  0.1043930E+01  0.7957747E-01            NaN
         13   -1    0    0    0    0  0.00000000000E+00  0.00000000000E+00  0.74505805969E-08  0.10566000000E+00  0.10566000000E+00 0. -1.
     999900   -1    0    0    0    0 -0.00000000000E+00 -0.00000000000E+00 -0.74505805969E-08  0.93827000000E+00  0.93827000000E+00 0.  1.
     999902    2    1    2    0    0 -0.75757807108E-03 -0.10662586821E-01 -0.20762076295E-01  0.10205777304E+01  0.10203105289E+01 0.  0.
     999903    2    3    3    0    0 -0.70767876052E-01 -0.44356093330E-01  0.96695451844E-01  0.12938024102E+00  0.20339150981E-01 0.  0.
         14    1    1    2    0    0  0.75757807108E-03  0.10662586821E-01  0.20762076295E-01  0.23352269576E-01  0.00000000000E+00 0. -1.
     999901    1    3    3    0    0  0.70010297981E-01  0.33693506509E-01 -0.11745752814E+00  0.89119748940E+00  0.88000000000E+00 0.  1.
        -11    1    4    4    0    0 -0.45211161591E-01 -0.21773484305E-01  0.44752877552E-01  0.67239980081E-01  0.51100000000E-03 0.  1.
         11    1    4    4    0    0 -0.25556714462E-01 -0.22582609024E-01  0.51942574292E-01  0.62140260938E-01  0.51100000000E-03 0. -1.
</event>
<event>
 8    1  0.1083484E+005  0.1043930E+01  0.7957747E-01            NaN
         13   -1    0    0    0    0  0.00000000000E+00  0.00000000000E+00  0.74505805969E-08  0.10566000000E+00  0.10566000000E+00 0.  1.
     999900   -1    0    0    0    0 -0.00000000000E+00 -0.00000000000E+00 -0.74505805969E-08  0.93827000000E+00  0.93827000000E+00 0.  1.
     999902    2    1    2    0    0 -0.16241457207E-01 -0.55531299881E-02  0.16442838855E-01  0.10201604999E+01  0.10198835504E+01 0.  0.
     999903    2    3    3    0    0  0.10782420001E-01  0.39157311147E-02  0.13018141769E+00  0.13237876233E+00  0.21103119975E-01 0.  0.
         14    1    1    2    0    0  0.16241457207E-01  0.55531299881E-02 -0.16442838855E-01  0.23769500089E-01  0.00000000000E+00 0. -1.
     999901    1    3    3    0    0 -0.27023877208E-01 -0.94688611028E-02 -0.11373857883E+00  0.88778173758E+00  0.88000000000E+00 0.  1.
        -11    1    4    4    0    0  0.10255683638E-01  0.12042279807E-01  0.89174118743E-01  0.90567544542E-01  0.51100000000E-03 0. -1.
         11    1    4    4    0    0  0.52673636275E-03 -0.81265486927E-02  0.41007298946E-01  0.41811217786E-01  0.51100000000E-03 0.  1.
</event>
<event>
 8    1  0.1083484E+005  0.1043930E+01  0.7957747E-01            NaN
         13   -1    0    0    0    0  0.00000000000E+00  0.00000000000E+00  0.74505805969E-08  0.10566000000E+00  0.10566000000E+00 0.  1.
     999900   -1    0    0    0    0 -0.00000000000E+00 -0.00000000000E+00 -0.74505805969E-08  0.93827000000E+00  0.93827000000E+00 0. -1.
     999902    2    1    2    0    0  0.17194798891E-01 -0.15821853096E-01 -0.48458347228E-02  0.10200663402E+01  0.10197871661E+01 0.  0.
     999903    2    3    3    0    0  0.25384780543E-01 -0.12059254718E+00 -0.45850231955E-01  0.13286549783E+00  0.19080021573E-01 0.  0.
         14    1    1    2    0    0 -0.17194798891E-01  0.15821853096E-01  0.48458347228E-02  0.23863659788E-01  0.00000000000E+00 0.  1.
     999901    1    3    3    0    0 -0.81899816511E-02  0.10477069409E+00  0.41004397232E-01  0.88720084239E+00  0.88000000000E+00 0.  1.
        -11    1    4    4    0    0  0.12447389998E-01 -0.94992308658E-01 -0.31996863484E-01  0.10100760672E+00  0.51100000000E-03 0.  1.
         11    1    4    4    0    0  0.12937390545E-01 -0.25600238523E-01 -0.13853368471E-01  0.31857891103E-01  0.51100000000E-03 0. -1.
</event>
<event>
 8    1  0.1083484E+005  0.1043930E+01  0.7957747E-01            NaN
         13   -1    0    0    0    0  0.00000000000E+00  0.00000000000E+00  0.74505805969E-08  0.10566000000E+00  0.10566000000E+00 0. -1.
     999900   -1    0    0    0    0 -0.00000000000E+00 -0.00000000000E+00 -0.74505805969E-08  0.93827000000E+00  0.93827000000E+00 0. -1.
     999902    2    1    2    0    0 -0.14883113749E-01  0.15395434821E-01  0.10582123229E-01  0.10200446945E+01  0.10197650077E+01 0.  0.
     999903    2    3    3    0    0  0.70026296559E-02 -0.10450336152E+00 -0.70642361618E-01  0.12793924999E+00  0.20201956382E-01 0.  0.
         14    1    1    2    0    0  0.14883113749E-01 -0.15395434821E-01 -0.10582123229E-01  0.23885305530E-01  0.00000000000E+00 0. -1.
     999901    1    3    3    0    0 -0.21885743405E-01  0.11989879634E+00  0.81224484848E-01  0.89210544448E+00  0.88000000000E+00 0.  1.
        -11    1    4    4    0    0 -0.61053752198E-02 -0.29227554801E-01 -0.24914704712E-01  0.38891248348E-01  0.51100000000E-03 0.  1.
         11    1    4    4    0    0  0.13108004876E-01 -0.75275806723E-01 -0.45727656907E-01  0.89048001644E-01  0.51100000000E-03 0. -1.
</event>
<event>
 8    1  0.1083484E+005  0.1043930E+01  0.7957747E-01            NaN
         13   -1    0    0    0    0  0.00000000000E+00  0.00000000000E+00  0.74505805969E-08  0.10566000000E+00  0.10566000000E+00 0.  1.
     999900   -1    0    0    0    0 -0.00000000000E+00 -0.00000000000E+00 -0.74505805969E-08  0.93827000000E+00  0.93827000000E+00 0. -1.
     999902    2    1    2    0    0 -0.21619161673E-01 -0.38640353472E-02 -0.10597396780E-01  0.10195450920E+01  0.10192534380E+01 0.  0.
     999903    2    3    3    0    0 -0.93259704432E-01  0.48440214029E-01  0.75343518771E-01  0.13092034394E+00  0.20485698183E-01 0.  0.
         14    1    1    2    0    0  0.21619161673E-01  0.38640353472E-02  0.10597396780E-01  0.24384908019E-01  0.00000000000E+00 0.  1.
     999901    1    3    3    0    0  0.71640542759E-01 -0.52304249376E-01 -0.85940915550E-01  0.88862474804E+00  0.88000000000E+00 0. -1.
        -11    1    4    4    0    0 -0.33464545748E-01  0.81965168287E-02  0.30602034253E-01  0.46084751618E-01  0.51100000000E-03 0.  1.
         11    1    4    4    0    0 -0.59795158684E-01  0.40243697200E-01  0.44741484517E-01  0.84835592319E-01  0.51100000000E-03 0. -1.
</event>
<event>
 8    1  0.1083484E+005  0.1043930E+01  0.7957747E-01            NaN
         13   -1    0    0    0    0  0.00000000000E+00  0.00000000000E+00  0.74505805969E-08  0.10566000000E+00  0.10566000000E+00 0.  1.
     999900   -1    0    0    0    0 -0.00000000000E+00 -0.00000000000E+00 -0.74505805969E-08  0.93827000000E+00  0.93827000000E+00 0. -1.
     999902    2    1    2    0    0  0.81431658672E-02  0.15557660518E-02  0.22297567010E-01  0.10201410729E+01  0.10198636652E+01 0.  0.
     999903    2    3    3    0    0 -0.33721891187E-01  0.23974997497E-01 -0.11918002215E+00  0.12757667008E+00  0.18972680835E-01 0.  0.
         14    1    1    2    0    0 -0.81431658672E-02 -0.15557660518E-02 -0.22297567010E-01  0.23788927108E-01  0.00000000000E+00 0. -1.
     999901    1    3    3    0    0  0.41865057054E-01 -0.22419231445E-01  0.14147758916E+00  0.89256440282E+00  0.88000000000E+00 0.  1.
        -11    1    4    4    0    0 -0.76686660650E-02 -0.25047634012E-02 -0.16301081387E-01  0.18195292092E-01  0.51100000000E-03 0. -1.
         11    1    4    4    0    0 -0.26053225122E-01  0.26479760898E-01 -0.10287894076E+00  0.10938137798E+00  0.51100000000E-03 0.  1.
</event>
<event>
 8    1  0.1083484E+005  0.1043930E+01  0.7957747E-01            NaN
         13   -1    0    0    0    0  0.00000000000E+00  0.00000000000E+00  0.74505805969E-08  0.10566000000E+00  0.10566000000E+00 0. -1.
     999900   -1    0    0    0    0 -0.00000000000E+00 -0.00000000000E+00 -0.74505805969E-08  0.93827000000E+00  0.93827000000E+00 0.  1.
     999902    2    1    2    0    0 -0.92375697327E-02  0.19513849453E-01  0.10726837538E-01  0.10198221577E+01  0.10195371721E+01 0.  0.
     999903    2    3    3    0    0 -0.53378686134E-01 -0.10985441825E+00  0.35914160605E-01  0.12891307815E+00  0.20284906811E-01 0.  0.
         14    1    1    2    0    0  0.92375697327E-02 -0.19513849453E-01 -0.10726837538E-01  0.24107842264E-01  0.00000000000E+00 0.  1.
     999901    1    3    3    0    0  0.44141116402E-01  0.12936826770E+00 -0.25187323066E-01  0.89090907959E+00  0.88000000000E+00 0.  1.
        -11    1    4    4    0    0 -0.80251172091E-02 -0.36515209614E-01  0.14145304560E-01  0.39976415565E-01  0.51100000000E-03 0. -1.
         11    1    4    4    0    0 -0.45353568925E-01 -0.73339208634E-01  0.21768856045E-01  0.88936662585E-01  0.51100000000E-03 0.  1.
</event>
<event>
 8    1  0.1083484E+005  0.1043930E+01  0.7957747E-01            NaN
         13   -1    0    0    0    0  0.00000000000E+00  0.00000000000E+00  0.74505805969E-08  0.10566000000E+00  0.10566000000E+00 0.  1.
     999900   -1    0    0    0    0 -0.00000000000E+00 -0.00000000000E+00 -0.74505805969E-08  0.93827000000E+00  0.93827000000E+00 0. -1.
     999902    2    1    2    0    0  0.18187038698E-01  0.15674997618E-01 -0.56102906474E-02  0.10192733723E+01  0.10189751019E+01 0.  0.
     999903    2    3    3    0    0 -0.11171506465E+00 -0.53277138986E-01 -0.19735873713E-01  0.12695701268E+00  0.20245225381E-01 0.  0.
         14    1    1    2    0    0 -0.18187038698E-01 -0.15674997618E-01  0.56102906474E-02  0.24656627670E-01  0.00000000000E+00 0.  1.
     999901    1    3    3    0    0  0.12990210334E+00  0.68952136604E-01  0.14125583066E-01  0.89231635965E+00  0.88000000000E+00 0.  1.
        -11    1    4    4    0    0 -0.82318759758E-01 -0.39871676547E-01 -0.23464991148E-01  0.94429845544E-01  0.51100000000E-03 0. -1.
         11    1    4    4    0    0 -0.29396304889E-01 -0.13405462439E-01  0.37291174349E-02  0.32527167140E-01  0.51100000000E-03 0.  1.
</event>
<event>
 8    1  0.1083484E+005  0.1043930E+01  0.7957747E-01            NaN
         13   -1    0    0    0    0  0.00000000000E+00  0.00000000000E+00  0.74505805969E-08  0.10566000000E+00  0.10566000000E+00 0. -1.
     999900   -1    0    0    0    0 -0.00000000000E+00 -0.00000000000E+00 -0.74505805969E-08  0.93827000000E+00  0.93827000000E+00 0.  1.
     999902    2    1    2    0    0 -0.14638409580E-01  0.45793549602E-02  0.19595253540E-01  0.10190457180E+01  0.10187418456E+01 0.  0.
     999903    2    3    3    0    0 -0.60080645035E-01 -0.15500167279E-01  0.11522362203E+00  0.13247199363E+00  0.20552540694E-01 0.  0.
         14    1    1    2    0    0  0.14638409580E-01 -0.45793549602E-02 -0.19595253540E-01  0.24884281950E-01  0.00000000000E+00 0.  1.
     999901    1    3    3    0    0  0.45442235455E-01  0.20079522240E-01 -0.95628368488E-01  0.88657372442E+00  0.88000000000E+00 0.  1.
        -11    1    4    4    0    0 -0.52352795337E-01 -0.13887609876E-01  0.81678709945E-01  0.98006906220E-01  0.51100000000E-03 0. -1.
         11    1    4    4    0    0 -0.77278496983E-02 -0.16125574035E-02  0.33544912083E-01  0.34465087407E-01  0.51100000000E-03 0.  1.
</event>
<event>
 8    1  0.1083484E+005  0.1043930E+01  0.7957747E-01            NaN
         13   -1    0    0    0    0  0.00000000000E+00  0.00000000000E+00  0.74505805969E-08  0.10566000000E+00  0.10566000000E+00 0.  1.
     999900   -1    0    0    0    0 -0.00000000000E+00 -0.00000000000E+00 -0.74505805969E-08  0.93827000000E+00  0.93827000000E+00 0. -1.
     999902    2    1    2    0    0  0.54027503027E-03 -0.24043061652E-01  0.83024392968E-03  0.10198665419E+01  0.10195826172E+01 0.  0.
     999903    2    3    3    0    0 -0.12300712203E+00 -0.31605064735E-01  0.23621269026E-01  0.13091177700E+00  0.21220198428E-01 0.  0.
         14    1    1    2    0    0 -0.54027503027E-03  0.24043061652E-01 -0.83024392968E-03  0.24063458099E-01  0.00000000000E+00 0.  1.
     999901    1    3    3    0    0  0.12354739706E+00  0.75620030837E-02 -0.22791025097E-01  0.88895476490E+00  0.88000000000E+00 0. -1.
        -11    1    4    4    0    0 -0.55586843728E-01 -0.21715359417E-01  0.31653036948E-02  0.59763988310E-01  0.51100000000E-03 0. -1.
         11    1    4    4    0    0 -0.67420278299E-01 -0.98897053183E-02  0.20455965332E-01  0.71147788693E-01  0.51100000000E-03 0.  1.
</event>
<event>
 8    1  0.1083484E+005  0.1043930E+01  0.7957747E-01            NaN
         13   -1    0    0    0    0  0.00000000000E+00  0.00000000000E+00  0.74505805969E-08  0.10566000000E+00  0.10566000000E+00 0. -1.
     999900   -1    0    0    0    0 -0.00000000000E+00 -0.00000000000E+00 -0.74505805969E-08  0.93827000000E+00  0.93827000000E+00 0.  1.
     999902    2    1    2    0    0  0.24680619460E-01 -0.89101267796E-02  0.50107440589E-02  0.10172161292E+01  0.10168652923E+01 0.  0.
     999903    2    3    3    0    0 -0.12196482543E+00 -0.17596732566E-01  0.66216805440E-02  0.12503736981E+00  0.20135380729E-01 0.  0.
         14    1    1    2    0    0 -0.24680619460E-01  0.89101267796E-02 -0.50107440589E-02  0.26713870783E-01  0.00000000000E+00 0. -1.
     999901    1    3    3    0    0  0.14664544489E+00  0.86866057861E-02 -0.16109364852E-02  0.89217875941E+00  0.88000000000E+00 0.  1.
        -11    1    4    4    0    0 -0.64078894973E-01 -0.22513195162E-04  0.76175018794E-02  0.64532106301E-01  0.51100000000E-03 0. -1.
         11    1    4    4    0    0 -0.57885930453E-01 -0.17574219370E-01 -0.99582133541E-03  0.60505263506E-01  0.51100000000E-03 0.  1.
</event>
<event>
 8    1  0.1083484E+005  0.1043930E+01  0.7957747E-01            NaN
         13   -1    0    0    0    0  0.00000000000E+00  0.00000000000E+00  0.74505805969E-08  0.10566000000E+00  0.10566000000E+00 0. -1.
     999900   -1    0    0    0    0 -0.00000000000E+00 -0.00000000000E+00 -0.74505805969E-08  0.93827000000E+00  0.93827000000E+00 0.  1.
     999902    2    1    2    0    0  0.15635135829E-01 -0.17116463418E-01  0.25752900866E-02  0.10206048438E+01  0.10203382695E+01 0.  0.
     999903    2    3    3    0    0 -0.83149555947E-01 -0.25363710146E-01  0.94674985603E-01  0.13026289471E+00  0.21163704619E-01 0.  0.
         14    1    1    2    0    0 -0.15635135829E-01  0.17116463418E-01 -0.25752900866E-02  0.23325156191E-01  0.00000000000E+00 0.  1.
     999901    1    3    3    0    0  0.98784691775E-01  0.82472467285E-02 -0.92099695517E-01  0.89034194910E+00  0.88000000000E+00 0.  1.
        -11    1    4    4    0    0 -0.32964676383E-01 -0.71997233631E-02  0.51700463491E-01  0.61739006727E-01  0.51100000000E-03 0.  1.
         11    1    4    4    0    0 -0.50184879564E-01 -0.18163986783E-01  0.42974522113E-01  0.68523887985E-01  0.51100000000E-03 0. -1.
</event>
<event>
 8    1  0.1083484E+005  0.1043930E+01  0.7957747E-01            NaN
         13   -1    0    0    0    0  0.00000000000E+00  0.00000000000E+00  0.74505805969E-08  0.10566000000E+00  0.10566000000E+00 0.  1.
     999900   -1    0    0    0    0 -0.00000000000E+00 -0.00000000000E+00 -0.74505805969E-08  0.93827000000E+00  0.93827000000E+00 0. -1.
     999902    2    1    2    0    0 -0.41309223476E-02  0.87615934846E-02  0.21190037336E-01  0.10206309073E+01  0.10203649353E+01 0.  0.
     999903    2    3    3    0    0 -0.37788083360E-01  0.31969161198E-01  0.12288906621E+00  0.13383099288E+00  0.18948497319E-01 0.  0.
         14    1    1    2    0    0  0.41309223476E-02 -0.87615934846E-02 -0.21190037336E-01  0.23299092732E-01  0.00000000000E+00 0. -1.
     999901    1    3    3    0    0  0.33657161013E-01 -0.23207567714E-01 -0.10169902887E+00  0.88679991439E+00  0.88000000000E+00 0. -1.
        -11    1    4    4    0    0 -0.30999065643E-01  0.14635700636E-01  0.83361416447E-01  0.90136189607E-01  0.51100000000E-03 0.  1.
         11    1    4    4    0    0 -0.67890177172E-02  0.17333460562E-01  0.39527649759E-01  0.43694803273E-01  0.51100000000E-03 0. -1.
</event>
<event>
 8    1  0.1083484E+005  0.1043930E+01  0.7957747E-01            NaN
         13   -1    0    0    0    0  0.00000000000E+00  0.00000000000E+00  0.74505805969E-08  0.10566000000E+00  0.10566000000E+00 0. -1.
     999900   -1    0    0    0    0 -0.00000000000E+00 -0.00000000000E+00 -0.74505805969E-08  0.93827000000E+00  0.93827000000E+00 0.  1.
     999902    2    1    2    0    0 -0.21759370480E-03 -0.11510159427E-01  0.21420766308E-01  0.10196116870E+01  0.10193216430E+01 0.  0.
     999903    2    3    3    0    0 -0.39468521261E-02 -0.25616379736E-01 -0.12321155733E+00  0.12768601643E+00  0.21233331791E-01 0.  0.
         14    1    1    2    0    0  0.21759370480E-03  0.11510159427E-01 -0.21420766308E-01  0.24318312982E-01  0.00000000000E+00 0.  1.
     999901    1    3    3    0    0  0.37292584213E-02  0.14106220308E-01  0.14463232364E+00  0.89192567059E+00  0.88000000000E+00 0. -1.
        -11    1    4    4    0    0 -0.84799399565E-02 -0.20000732717E-01 -0.55713113805E-01  0.59800926930E-01  0.51100000000E-03 0. -1.
         11    1    4    4    0    0  0.45330878304E-02 -0.56156470184E-02 -0.67498443524E-01  0.67885089496E-01  0.51100000000E-03 0.  1.
</event>
<event>
 8    1  0.1083484E+005  0.1043930E+01  0.7957747E-01            NaN
         13   -1    0    0    0    0  0.00000000000E+00  0.00000000000E+00  0.74505805969E-08  0.10566000000E+00  0.10566000000E+00 0.  1.
     999900   -1    0    0    0    0 -0.00000000000E+00 -0.00000000000E+00 -0.74505805969E-08  0.93827000000E+00  0.93827000000E+00 0. -1.
     999902    2    1    2    0    0 -0.10349302001E-01 -0.22058007931E-01  0.88454897219E-02  0.10180088416E+01  0.10176787779E+01 0.  0.
     999903    2    3    3    0    0 -0.74778751620E-01 -0.33840989540E-01  0.99963581699E-01  0.13088286443E+00  0.20013302297E-01 0.  0.
         14    1    1    2    0    0  0.10349302001E-01  0.22058007931E-01 -0.88454897219E-02  0.25921158427E-01  0.00000000000E+00 0. -1.
     999901    1    3    3    0    0  0.64429449619E-01  0.11782981610E-01 -0.91118091977E-01  0.88712597714E+00  0.88000000000E+00 0. -1.
        -11    1    4    4    0    0 -0.41232487061E-01 -0.15281172138E-01  0.67922567769E-01  0.80915811462E-01  0.51100000000E-03 0.  1.
         11    1    4    4    0    0 -0.33546264558E-01 -0.18559817402E-01  0.32041013930E-01  0.49967052970E-01  0.51100000000E-03 0. -1.
</event>
<event>
 8    1  0.1083484E+005  0.1043930E+01  0.7957747E-01            NaN
         13   -1    0    0    0    0  0.00000000000E+00  0.00000000000E+00  0.74505805969E-08  0.10566000000E+00  0.10566000000E+00 0.  1.
     999900   -1    0    0    0    0 -0.00000000000E+00 -0.00000000000E+00 -0.74505805969E-08  0.93827000000E+00  0.93827000000E+00 0. -1.
     999902    2    1    2    0    0  0.22128264803E-01  0.46401227731E-02 -0.79273274986E-02  0.10199710066E+01  0.10196895709E+01 0.  0.
     999903    2    3    3    0    0 -0.73642546127E-02  0.56256735012E-01 -0.11680039669E+00  0.13127115371E+00  0.19254367026E-01 0.  0.
         14    1    1    2    0    0 -0.22128264803E-01 -0.46401227731E-02  0.79273274986E-02  0.23958993380E-01  0.00000000000E+00 0.  1.
     999901    1    3    3    0    0  0.29492519415E-01 -0.51616612239E-01  0.10887306919E+00  0.88869985291E+00  0.88000000000E+00 0.  1.
        -11    1    4    4    0    0 -0.47682073734E-02  0.36582139052E-01 -0.94324414161E-01  0.10128348793E+00  0.51100000000E-03 0.  1.
         11    1    4    4    0    0 -0.25960472393E-02  0.19674595960E-01 -0.22475982530E-01  0.29987665784E-01  0.51100000000E-03 0. -1.
</event>
<event>
 8    1  0.1083484E+005  0.1043930E+01  0.7957747E-01            NaN
         13   -1    0    0    0    0  0.00000000000E+00  0.00000000000E+00  0.74505805969E-08  0.10566000000E+00  0.10566000000E+00 0. -1.
     999900   -1    0    0    0    0 -0.00000000000E+00 -0.00000000000E+00 -0.74505805969E-08  0.93827000000E+00  0.93827000000E+00 0. -1.
     999902    2    1    2    0    0  0.15402807747E-01 -0.59514387205E-02  0.15539094918E-01  0.10212555743E+01  0.10210038288E+01 0.  0.
     999903    2    3    3    0    0  0.10518057424E+00 -0.71808588371E-01 -0.32371432179E-01  0.13294671467E+00  0.20186449874E-01 0.  0.
         14    1    1    2    0    0 -0.15402807747E-01  0.59514387205E-02 -0.15539094918E-01  0.22674425686E-01  0.00000000000E+00 0.  1.
     999901    1    3    3    0    0 -0.89777766494E-01  0.65857149651E-01  0.47910527097E-01  0.88830885964E+00  0.88000000000E+00 0. -1.
        -11    1    4    4    0    0  0.60052255479E-01 -0.33594665171E-01 -0.91657540408E-02  0.69420076953E-01  0.51100000000E-03 0.  1.
         11    1    4    4    0    0  0.45128318761E-01 -0.38213923201E-01 -0.23205678138E-01  0.63526637716E-01  0.51100000000E-03 0. -1.
</event>
<event>
 8    1  0.1083484E+005  0.1043930E+01  0.7957747E-01            NaN
         13   -1    0    0    0    0  0.00000000000E+00  0.00000000000E+00  0.74505805969E-08  0.10566000000E+00  0.10566000000E+00 0. -1.
     999900   -1    0    0    0    0 -0.00000000000E+00 -0.00000000000E+00 -0.74505805969E-08  0.93827000000E+00  0.93827000000E+00 0.  1.
     999902    2    1    2    0    0 -0.24775208549E-01 -0.10960076781E-01 -0.27370184736E-02  0.10167008702E+01  0.10163361815E+01 0.  0.
     999903    2    3    3    0    0 -0.10753645072E+00  0.59234863020E-01 -0.34831250379E-01  0.12945412179E+00  0.21732381699E-01 0.  0.
         14    1    1    2    0    0  0.24775208549E-01  0.10960076781E-01  0.27370184736E-02  0.27229129840E-01  0.00000000000E+00 0. -1.
     999901    1    3    3    0    0  0.82761242169E-01 -0.70194939801E-01  0.32094231905E-01  0.88724674837E+00  0.88000000000E+00 0. -1.
        -11    1    4    4    0    0 -0.36569507020E-01  0.31400773071E-01 -0.95597621204E-02  0.49142522991E-01  0.51100000000E-03 0. -1.
         11    1    4    4    0    0 -0.70966943699E-01  0.27834089949E-01 -0.25271488259E-01  0.80311598795E-01  0.51100000000E-03 0.  1.
</event>
<event>
 8    1  0.1083484E+005  0.1043930E+01  0.7957747E-01            NaN
         13   -1    0    0    0    0  0.00000000000E+00  0.00000000000E+00  0.74505805969E-08  0.10566000000E+00  0.10566000000E+00 0.  1.
     999900   -1    0    0    0    0 -0.00000000000E+00 -0.00000000000E+00 -0.74505805969E-08  0.93827000000E+00  0.93827000000E+00 0. -1.
     999902    2    1    2    0    0 -0.13474652922E-01  0.73226699886E-02 -0.17771506460E-01  0.10204563082E+01  0.10201862882E+01 0.  0.
     999903    2    3    3    0    0  0.10460287546E+00  0.48940210506E-01 -0.57182847984E-01  0.13072175435E+00  0.21940674528E-01 0.  0.
         14    1    1    2    0    0  0.13474652922E-01 -0.73226699886E-02  0.17771506460E-01  0.23473691848E-01  0.00000000000E+00 0. -1.
     999901    1    3    3    0    0 -0.11807752838E+00 -0.41617540517E-01  0.39411341524E-01  0.88973455380E+00  0.88000000000E+00 0. -1.
        -11    1    4    4    0    0  0.17035031174E-01  0.12442449958E-01 -0.19202800931E-01  0.28530957444E-01  0.51100000000E-03 0.  1.
         11    1    4    4    0    0  0.87567844283E-01  0.36497760548E-01 -0.37980047053E-01  0.10219079691E+00  0.51100000000E-03 0. -1.
</event>
<event>
 8    1  0.1083484E+005  0.1043930E+01  0.7957747E-01            NaN
         13   -1    0    0    0    0  0.00000000000E+00  0.00000000000E+00  0.74505805969E-08  0.10566000000E+00  0.10566000000E+00 0. -1.
     999900   -1    0    0    0    0 -0.00000000000E+00 -0.00000000000E+00 -0.74505805969E-08  0.93827000000E+00  0.93827000000E+00 0. -1.
     999902    2    1    2    0    0 -0.14515179731E-01  0.13126747536E-01 -0.13198097299E-01  0.10203250913E+01  0.10200520086E+01 0.  0.
     999903    2    3    3    0    0 -0.10091864555E+00  0.58351727279E-01 -0.62315872446E-01  0.13357630299E+00  0.19231839875E-01 0.  0.
         14    1    1    2    0    0  0.14515179731E-01 -0.13126747536E-01  0.13198097299E-01  0.23604908723E-01  0.00000000000E+00 0.  1.
     999901    1    3    3    0    0  0.86403465819E-01 -0.45224979743E-01  0.49117775146E-01  0.88674878829E+00  0.88000000000E+00 0.  1.
        -11    1    4    4    0    0 -0.70887502723E-01  0.36743210832E-01 -0.33113603940E-01  0.86439999257E-01  0.51100000000E-03 0. -1.
         11    1    4    4    0    0 -0.30031142827E-01  0.21608516446E-01 -0.29202268505E-01  0.47136303731E-01  0.51100000000E-03 0.  1.
</event>
<event>
 8    1  0.1083484E+005  0.1043930E+01  0.7957747E-01            NaN
         13   -1    0    0    0    0  0.00000000000E+00  0.00000000000E+00  0.74505805969E-08  0.10566000000E+00  0.10566000000E+00 0.  1.
     999900   -1    0    0    0    0 -0.00000000000E+00 -0.00000000000E+00 -0.74505805969E-08  0.93827000000E+00  0.93827000000E+00 0. -1.
     999902    2    1    2    0    0 -0.49049366277E-02  0.22665837309E-01 -0.31351711528E-03  0.10207373961E+01  0.10204738776E+01 0.  0.
     999903    2    3    3    0    0 -0.11445594803E+00 -0.38640930582E-01 -0.46162083613E-01  0.13064636986E+00  0.18553987112E-01 0.  0.
         14    1    1    2    0    0  0.49049366277E-02 -0.22665837309E-01  0.31351711528E-03  0.23192603934E-01  0.00000000000E+00 0. -1.
     999901    1    3    3    0    0  0.10955101140E+00  0.61306767891E-01  0.45848566498E-01  0.89009102621E+00  0.88000000000E+00 0. -1.
        -11    1    4    4    0    0 -0.66376813970E-01 -0.31402239470E-01 -0.31068538706E-01  0.79733915587E-01  0.51100000000E-03 0. -1.
         11    1    4    4    0    0 -0.48079134060E-01 -0.72386911121E-02 -0.15093544908E-01  0.50912454270E-01  0.51100000000E-03 0.  1.
</event>
<event>
 8    1  0.1083484E+005  0.1043930E+01  0.7957747E-01            NaN
         13   -1    0    0    0    0  0.00000000000E+00  0.00000000000E+00  0.74505805969E-08  0.10566000000E+00  0.10566000000E+00 0.  1.
     999900   -1    0    0    0    0 -0.00000000000E+00 -0.00000000000E+00 -0.74505805969E-08  0.93827000000E+00  0.93827000000E+00 0.  1.
     999902    2    1    2    0    0 -0.50382669234E-02 -0.96422116205E-02 -0.20333904412E-01  0.10208686894E+01  0.10206081799E+01 0.  0.
     999903    2    3    3    0    0  0.63697705767E-01  0.84352813869E-01 -0.75512331655E-01  0.13148443183E+00  0.20328518244E-01 0.  0.
         14    1    1    2    0    0  0.50382669234E-02  0.96422116205E-02  0.20333904412E-01  0.23061310612E-01  0.00000000000E+00 0.  1.
     999901    1    3    3    0    0 -0.68735972691E-01 -0.93995025490E-01  0.55178427244E-01  0.88938425756E+00  0.88000000000E+00 0. -1.
        -11    1    4    4    0    0  0.48166559634E-01  0.57923335436E-01 -0.63601281150E-01  0.98592668794E-01  0.51100000000E-03 0. -1.
         11    1    4    4    0    0  0.15531146134E-01  0.26429478434E-01 -0.11911050505E-01  0.32891763036E-01  0.51100000000E-03 0.  1.
</event>
<event>
 8    1  0.1083484E+005  0.1043930E+01  0.7957747E-01            NaN
         13   -1    0    0    0    0  0.00000000000E+00  0.00000000000E+00  0.74505805969E-08  0.10566000000E+00  0.10566000000E+00 0.  1.
     999900   -1    0    0    0    0 -0.00000000000E+00 -0.00000000000E+00 -0.74505805969E-08  0.93827000000E+00  0.93827000000E+00 0.  1.
     999902    2    1    2    0    0 -0.18253121035E-01  0.10503823643E-01 -0.13452543180E-01  0.10189404491E+01  0.10186339681E+01 0.  0.
     999903    2    3    3    0    0 -0.97544230367E-01  0.56760721327E-01 -0.66669613899E-01  0.13256646634E+00  0.19808438056E-01 0.  0.
         14    1    1    2    0    0  0.18253121035E-01 -0.10503823643E-01  0.13452543180E-01  0.24989550949E-01  0.00000000000E+00 0.  1.
     999901    1    3    3    0    0  0.79291109332E-01 -0.46256897685E-01  0.53217070718E-01  0.88637398271E+00  0.88000000000E+00 0. -1.
        -11    1    4    4    0    0 -0.20650316495E-01  0.32855301536E-02 -0.12594286695E-01  0.24415311960E-01  0.51100000000E-03 0. -1.
         11    1    4    4    0    0 -0.76893913872E-01  0.53475191174E-01 -0.54075327203E-01  0.10815115438E+00  0.51100000000E-03 0.  1.
</event>
<event>
 8    1  0.1083484E+005  0.1043930E+01  0.7957747E-01            NaN
         13   -1    0    0    0    0  0.00000000000E+00  0.00000000000E+00  0.74505805969E-08  0.10566000000E+00  0.10566000000E+00 0. -1.
     999900   -1    0    0    0    0 -0.00000000000E+00 -0.00000000000E+00 -0.74505805969E-08  0.93827000000E+00  0.93827000000E+00 0. -1.
     999902    2    1    2    0    0  0.23481225279E-01  0.12812151668E-02 -0.98568678001E-02  0.10184316217E+01  0.10181123714E+01 0.  0.
     999903    2    3    3    0    0 -0.10291365079E+00  0.70317176281E-01  0.76560321321E-02  0.12655252099E+00  0.20523180608E-01 0.  0.
         14    1    1    2    0    0 -0.23481225279E-01 -0.12812151668E-02  0.98568678001E-02  0.25498378296E-01  0.00000000000E+00 0. -1.
     999901    1    3    3    0    0  0.12639487607E+00 -0.69035961115E-01 -0.17512899932E-01  0.89187910071E+00  0.88000000000E+00 0. -1.
        -11    1    4    4    0    0 -0.68904437104E-01  0.43252629447E-01  0.14229003180E-01  0.82591386108E-01  0.51100000000E-03 0. -1.
         11    1    4    4    0    0 -0.34009213686E-01  0.27064546835E-01 -0.65729710483E-02  0.43961134884E-01  0.51100000000E-03 0.  1.
</event>
<event>
 8    1  0.1083484E+005  0.1043930E+01  0.7957747E-01            NaN
         13   -1    0    0    0    0  0.00000000000E+00  0.00000000000E+00  0.74505805969E-08  0.10566000000E+00  0.10566000000E+00 0.  1.
     999900   -1    0    0    0    0 -0.00000000000E+00 -0.00000000000E+00 -0.74505805969E-08  0.93827000000E+00  0.93827000000E+00 0. -1.
     999902    2    1    2    0    0 -0.84379926236E-02  0.15995883714E-01 -0.15838008068E-01  0.10198902306E+01  0.10196068712E+01 0.  0.
     999903    2    3    3    0    0 -0.25597557678E-01  0.11462551239E+00 -0.59443470603E-01  0.13314128599E+00  0.19970798371E-01 0.  0.
         14    1    1    2    0    0  0.84379926236E-02 -0.15995883714E-01  0.15838008068E-01  0.24039769443E-01  0.00000000000E+00 0.  1.
     999901    1    3    3    0    0  0.17159565054E-01 -0.98629628678E-01  0.43605462535E-01  0.88674894457E+00  0.88000000000E+00 0.  1.
        -11    1    4    4    0    0 -0.13509009464E-01  0.76380265936E-01 -0.48794198499E-01  0.91638274151E-01  0.51100000000E-03 0. -1.
         11    1    4    4    0    0 -0.12088548214E-01  0.38245246457E-01 -0.10649272104E-01  0.41503011840E-01  0.51100000000E-03 0.  1.
</event>
<event>
 8    1  0.1124430E+005  0.1043930E+01  0.7957747E-01            NaN
         13   -1    0    0    0    0  0.00000000000E+00  0.00000000000E+00  0.74505805969E-08  0.10566000000E+00  0.10566000000E+00 0.  1.
     999900   -1    0    0    0    0 -0.00000000000E+00 -0.00000000000E+00 -0.74505805969E-08  0.93827000000E+00  0.93827000000E+00 0. -1.
     999902    2    1    2    0    0 -0.10369624887E-01 -0.19984076223E-01 -0.77913804062E-02  0.10201056840E+01  0.10198274406E+01 0.  0.
     999903    2    3    3    0    0 -0.26616570052E-01 -0.12221324257E+00  0.40959059625E-01  0.13269857842E+00  0.16933685018E-01 0.  0.
         14    1    1    2    0    0  0.10369624887E-01  0.19984076223E-01  0.77913804062E-02  0.23824315969E-01  0.00000000000E+00 0.  1.
     999901    1    3    3    0    0  0.16246945165E-01  0.10222916635E+00 -0.48750440031E-01  0.88740710561E+00  0.88000000000E+00 0. -1.
        -11    1    4    4    0    0 -0.14069741086E-01 -0.46420903236E-01  0.23559043613E-01  0.53927242915E-01  0.51100000000E-03 0. -1.
         11    1    4    4    0    0 -0.12546828966E-01 -0.75792339338E-01  0.17400016011E-01  0.78771335508E-01  0.51100000000E-03 0.  1.
</event>
<event>
 8    1  0.1159701E+005  0.1043930E+01  0.7957747E-01            NaN
         13   -1    0    0    0    0  0.00000000000E+00  0.00000000000E+00  0.74505805969E-08  0.10566000000E+00  0.10566000000E+00 0.  1.
     999900   -1    0    0    0    0 -0.00000000000E+00 -0.00000000000E+00 -0.74505805969E-08  0.93827000000E+00  0.93827000000E+00 0. -1.
     999902    2    1    2    0    0  0.11895479337E-01  0.23772439763E-01  0.43247187438E-03  0.10173439444E+01  0.10169965009E+01 0.  0.
     999903    2    3    3    0    0  0.12727746672E-02  0.11976338637E+00 -0.48601412769E-01  0.13070341660E+00  0.19400956615E-01 0.  0.
         14    1    1    2    0    0 -0.11895479337E-01 -0.23772439763E-01 -0.43247187438E-03  0.26586055609E-01  0.00000000000E+00 0. -1.
     999901    1    3    3    0    0  0.10622704670E-01 -0.95990946603E-01  0.49033884643E-01  0.88664052779E+00  0.88000000000E+00 0.  1.
        -11    1    4    4    0    0  0.15346117850E-02  0.58820650728E-01 -0.13497350128E-01  0.60371049079E-01  0.51100000000E-03 0.  1.
         11    1    4    4    0    0 -0.26183711777E-03  0.60942735638E-01 -0.35104062641E-01  0.70332367518E-01  0.51100000000E-03 0. -1.
</event>
<event>
 8    1  0.1083484E+005  0.1043930E+01  0.7957747E-01            NaN
         13   -1    0    0    0    0  0.00000000000E+00  0.00000000000E+00  0.74505805969E-08  0.10566000000E+00  0.10566000000E+00 0.  1.
     999900   -1    0    0    0    0 -0.00000000000E+00 -0.00000000000E+00 -0.74505805969E-08  0.93827000000E+00  0.93827000000E+00 0. -1.
     999902    2    1    2    0    0 -0.10053384970E-01  0.91891214288E-02 -0.23526739366E-01  0.10167451151E+01  0.10163816267E+01 0.  0.
     999903    2    3    3    0    0  0.11910778228E+00  0.37876190903E-01 -0.29890902200E-02  0.12661739948E+00  0.20043990471E-01 0.  0.
         14    1    1    2    0    0  0.10053384970E-01 -0.91891214288E-02  0.23526739366E-01  0.27184884903E-01  0.00000000000E+00 0.  1.
     999901    1    3    3    0    0 -0.12916116725E+00 -0.28687069474E-01 -0.20537649146E-01  0.89012771562E+00  0.88000000000E+00 0. -1.
        -11    1    4    4    0    0  0.35661142638E-01  0.19830144965E-01  0.37246853169E-02  0.40976653661E-01  0.51100000000E-03 0. -1.
         11    1    4    4    0    0  0.83446639640E-01  0.18046045937E-01 -0.67137755369E-02  0.85640745817E-01  0.51100000000E-03 0.  1.
</event>
<event>
 8    1  0.1083484E+005  0.1043930E+01  0.7957747E-01            NaN
         13   -1    0    0    0    0  0.00000000000E+00  0.00000000000E+00  0.74505805969E-08  0.10566000000E+00  0.10566000000E+00 0. -1.
     999900   -1    0    0    0    0 -0.00000000000E+00 -0.00000000000E+00 -0.74505805969E-08  0.93827000000E+00  0.93827000000E+00 0. -1.
     999902    2    1    2    0    0  0.51391706006E-02  0.21584529271E-01 -0.13273992493E-01  0.10180745972E+01  0.10177462275E+01 0.  0.
     999903    2    3    3    0    0 -0.12882224314E-01  0.11134047655E+00 -0.68573516928E-01  0.13159902608E+00  0.73022613158E-02 0.  0.
         14    1    1    2    0    0 -0.51391706006E-02 -0.21584529271E-01  0.13273992493E-01  0.25855402821E-01  0.00000000000E+00 0.  1.
     999901    1    3    3    0    0  0.18021394915E-01 -0.89755947280E-01  0.55299524435E-01  0.88647557110E+00  0.88000000000E+00 0.  1.
        -11    1    4    4    0    0 -0.84959316188E-02  0.43134850160E-01 -0.26186927083E-01  0.51174333640E-01  0.51100000000E-03 0. -1.
         11    1    4    4    0    0 -0.43862926953E-02  0.68205626391E-01 -0.42386589844E-01  0.80424692444E-01  0.51100000000E-03 0.  1.
</event>
<event>
 8    1  0.1083484E+005  0.1043930E+01  0.7957747E-01            NaN
         13   -1    0    0    0    0  0.00000000000E+00  0.00000000000E+00  0.74505805969E-08  0.10566000000E+00  0.10566000000E+00 0. -1.
     999900   -1    0    0    0    0 -0.00000000000E+00 -0.00000000000E+00 -0.74505805969E-08  0.93827000000E+00  0.93827000000E+00 0.  1.
     999902    2    1    2    0    0  0.13614244485E-01 -0.13756867631E-01  0.12058527653E-01  0.10211263347E+01  0.10208716787E+01 0.  0.
     999903    2    3    3    0    0  0.60480370391E-01 -0.47904816970E-01  0.10776149577E+00  0.13404033310E+00  0.20038069658E-01 0.  0.
         14    1    1    2    0    0 -0.13614244485E-01  0.13756867631E-01 -0.12058527653E-01  0.22803665255E-01  0.00000000000E+00 0.  1.
     999901    1    3    3    0    0 -0.46866125906E-01  0.34147949339E-01 -0.95702968121E-01  0.88708600164E+00  0.88000000000E+00 0.  1.
        -11    1    4    4    0    0  0.42554676494E-01 -0.21207877525E-01  0.64903779874E-01  0.80457667898E-01  0.51100000000E-03 0. -1.
         11    1    4    4    0    0  0.17925693896E-01 -0.26696939445E-01  0.42857715900E-01  0.53582665206E-01  0.51100000000E-03 0.  1.
</event>
<event>
 8    1  0.1083484E+005  0.1043930E+01  0.7957747E-01            NaN
         13   -1    0    0    0    0  0.00000000000E+00  0.00000000000E+00  0.74505805969E-08  0.10566000000E+00  0.10566000000E+00 0.  1.
     999900   -1    0    0    0    0 -0.00000000000E+00 -0.00000000000E+00 -0.74505805969E-08  0.93827000000E+00  0.93827000000E+00 0.  1.
     999902    2    1    2    0    0  0.22169885448E-01  0.63350159845E-02 -0.78032814159E-03  0.10208595609E+01  0.10205988428E+01 0.  0.
     999903    2    3    3    0    0 -0.11420593156E+00 -0.54562518653E-01  0.31841900609E-02  0.12826637776E+00  0.20544131818E-01 0.  0.
         14    1    1    2    0    0 -0.22169885448E-01 -0.63350159845E-02  0.78032814159E-03  0.23070439101E-01  0.00000000000E+00 0. -1.
     999901    1    3    3    0    0  0.13637581700E+00  0.60897534637E-01 -0.39645182025E-02  0.89259318314E+00  0.88000000000E+00 0.  1.
        -11    1    4    4    0    0 -0.89802327926E-01 -0.46166597863E-01  0.10276492373E-01  0.10149719344E+00  0.51100000000E-03 0. -1.
         11    1    4    4    0    0 -0.24403603629E-01 -0.83959207892E-02 -0.70923023118E-02  0.26769184318E-01  0.51100000000E-03 0.  1.
</event>
<event>
 8    1  0.1083484E+005  0.1043930E+01  0.7957747E-01            NaN
         13   -1    0    0    0    0  0.00000000000E+00  0.00000000000E+00  0.74505805969E-08  0.10566000000E+00  0.10566000000E+00 0. -1.
     999900   -1    0    0    0    0 -0.00000000000E+00 -0.00000000000E+00 -0.74505805969E-08  0.93827000000E+00  0.93827000000E+00 0.  1.
     999902    2    1    2    0    0  0.71181359888E-02 -0.95210769175E-03 -0.22415793686E-01  0.10203918995E+01  0.10201203784E+01 0.  0.
     999903    2    3    3    0    0  0.10052509876E+00 -0.82215275947E-01  0.28513603844E-05  0.13144243026E+00  0.20309243818E-01 0.  0.
         14    1    1    2    0    0 -0.71181359888E-02  0.95210769175E-03  0.22415793686E-01  0.23538100509E-01  0.00000000000E+00 0. -1.
     999901    1    3    3    0    0 -0.93406962766E-01  0.81263168256E-01 -0.22418645046E-01  0.88894946924E+00  0.88000000000E+00 0.  1.
        -11    1    4    4    0    0  0.56275211169E-01 -0.56002668218E-01 -0.62005816695E-02  0.79636088388E-01  0.51100000000E-03 0.  1.
         11    1    4    4    0    0  0.44249887586E-01 -0.26212607730E-01  0.62034330299E-02  0.51806341868E-01  0.51100000000E-03 0. -1.
</event>
<event>
 8    1  0.1083484E+005  0.1043930E+01  0.7957747E-01            NaN
         13   -1    0    0    0    0  0.00000000000E+00  0.00000000000E+00  0.74505805969E-08  0.10566000000E+00  0.10566000000E+00 0. -1.
     999900   -1    0    0    0    0 -0.00000000000E+00 -0.00000000000E+00 -0.74505805969E-08  0.93827000000E+00  0.93827000000E+00 0. -1.
     999902    2    1    2    0    0 -0.52484829059E-02  0.18696098449E-01 -0.11776337618E-01  0.10212193682E+01  0.10209668090E+01 0.  0.
     999903    2    3    3    0    0 -0.10961366300E+00  0.48753896937E-01  0.52355499747E-01  0.13222642410E+00  0.18725151325E-01 0.  0.
         14    1    1    2    0    0  0.52484829059E-02 -0.18696098449E-01  0.11776337618E-01  0.22710631822E-01  0.00000000000E+00 0. -1.
     999901    1    3    3    0    0  0.10436518010E+00 -0.30057798487E-01 -0.64131837364E-01  0.88899294408E+00  0.88000000000E+00 0. -1.
        -11    1    4    4    0    0 -0.11064442151E-01  0.11611049642E-01  0.82914304207E-02  0.18062316942E-01  0.51100000000E-03 0. -1.
         11    1    4    4    0    0 -0.98549220851E-01  0.37142847294E-01  0.44064069326E-01  0.11416410715E+00  0.51100000000E-03 0.  1.
</event>
<event>
 8    1  0.1083484E+005  0.1043930E+01  0.7957747E-01            NaN
         13   -1    0    0    0    0  0.00000000000E+00  0.00000000000E+00  0.74505805969E-08  0.10566000000E+00  0.10566000000E+00 0. -1.
     999900   -1    0    0    0    0 -0.00000000000E+00 -0.00000000000E+00 -0.74505805969E-08  0.93827000000E+00  0.93827000000E+00 0. -1.
     999902    2    1    2    0    0  0.74459627648E-02 -0.11864584579E-01 -0.18590647824E-01  0.10206529101E+01  0.10203874460E+01 0.  0.
     999903    2    3    3    0    0 -0.93302247489E-01  0.77518564531E-01  0.37786653097E-01  0.12862266997E+00  0.20038034922E-01 0.  0.
         14    1    1    2    0    0 -0.74459627648E-02  0.11864584579E-01  0.18590647824E-01  0.23277089922E-01  0.00000000000E+00 0. -1.
     999901    1    3    3    0    0  0.10074821025E+00 -0.89383149109E-01 -0.56377300922E-01  0.89203024011E+00  0.88000000000E+00 0. -1.
        -11    1    4    4    0    0 -0.59918173274E-01  0.56011358035E-01  0.16884005589E-01  0.83742405525E-01  0.51100000000E-03 0.  1.
         11    1    4    4    0    0 -0.33384074215E-01  0.21507206496E-01  0.20902647508E-01  0.44880264441E-01  0.51100000000E-03 0. -1.
</event>
<event>
 8    1  0.1083484E+005  0.1043930E+01  0.7957747E-01            NaN
         13   -1    0    0    0    0  0.00000000000E+00  0.00000000000E+00  0.74505805969E-08  0.10566000000E+00  0.10566000000E+00 0. -1.
     999900   -1    0    0    0    0 -0.00000000000E+00 -0.00000000000E+00 -0.74505805969E-08  0.93827000000E+00  0.93827000000E+00 0. -1.
     999902    2    1    2    0    0  0.32625461175E-02 -0.73037735973E-02  0.24339259494E-01  0.10183099128E+01  0.10179875685E+01 0.  0.
     999903    2    3    3    0    0  0.12023688955E+00 -0.28285668938E-01 -0.29864891570E-01  0.12866879023E+00  0.20168221448E-01 0.  0.
         14    1    1    2    0    0 -0.32625461175E-02  0.73037735973E-02 -0.24339259494E-01  0.25620087210E-01  0.00000000000E+00 0.  1.
     999901    1    3    3    0    0 -0.11697434343E+00  0.20981895340E-01  0.54204151064E-01  0.88964112256E+00  0.88000000000E+00 0.  1.
        -11    1    4    4    0    0  0.38196721148E-01 -0.17526892141E-01 -0.53423360593E-02  0.42367241238E-01  0.51100000000E-03 0. -1.
         11    1    4    4    0    0  0.82040168399E-01 -0.10758776796E-01 -0.24522555511E-01  0.86301548994E-01  0.51100000000E-03 0.  1.
</event>
<event>
 8    1  0.1083484E+005  0.1043930E+01  0.7957747E-01            NaN
         13   -1    0    0    0    0  0.00000000000E+00  0.00000000000E+00  0.74505805969E-08  0.10566000000E+00  0.10566000000E+00 0.  1.
     999900   -1    0    0    0    0 -0.00000000000E+00 -0.00000000000E+00 -0.74505805969E-08  0.93827000000E+00  0.93827000000E+00 0. -1.
     999902    2    1    2    0    0 -0.13727215102E-01  0.24562373344E-01 -0.25350331749E-01  0.10060567121E+01  0.10053435840E+01 0.  0.
     999903    2    3    3    0    0  0.47266337110E-01 -0.71940247682E-01  0.71231599349E-01  0.11344199189E+00  0.19637691233E-01 0.  0.
         14    1    1    2    0    0  0.13727215102E-01 -0.24562373344E-01  0.25350331749E-01  0.37873287929E-01  0.00000000000E+00 0.  1.
     999901    1    3    3    0    0 -0.60993552212E-01  0.96502621026E-01 -0.96581931098E-01  0.89261472019E+00  0.88000000000E+00 0. -1.
        -11    1    4    4    0    0  0.48077893101E-01 -0.67783158491E-01  0.63411414854E-01  0.10453376983E+00  0.51100000000E-03 0. -1.
         11    1    4    4    0    0 -0.81155599149E-03 -0.41570891909E-02  0.78201844945E-02  0.89082220558E-02  0.51100000000E-03 0.  1.
</event>
<event>
 8    1  0.1083484E+005  0.1043930E+01  0.7957747E-01            NaN
         13   -1    0    0    0    0  0.00000000000E+00  0.00000000000E+00  0.74505805969E-08  0.10566000000E+00  0.10566000000E+00 0. -1.
     999900   -1    0    0    0    0 -0.00000000000E+00 -0.00000000000E+00 -0.74505805969E-08  0.93827000000E+00  0.93827000000E+00 0.  1.
     999902    2    1    2    0    0  0.19744492509E-01 -0.14288717203E-01  0.20816407728E-02  0.10194688951E+01  0.10191753934E+01 0.  0.
     999903    2    3    3    0    0 -0.22364436498E-01 -0.68123771383E-01 -0.10673876253E+00  0.13013585562E+00  0.20029010106E-01 0.  0.
         14    1    1    2    0    0 -0.19744492509E-01  0.14288717203E-01 -0.20816407728E-02  0.24461104883E-01  0.00000000000E+00 0.  1.
     999901    1    3    3    0    0  0.42108929008E-01  0.53835054180E-01  0.10882040330E+00  0.88933303949E+00  0.88000000000E+00 0. -1.
        -11    1    4    4    0    0 -0.25031270026E-01 -0.52551510073E-01 -0.89318913526E-01  0.10661310953E+00  0.51100000000E-03 0.  1.
         11    1    4    4    0    0  0.26668335283E-02 -0.15572261311E-01 -0.17419849001E-01  0.23522746090E-01  0.51100000000E-03 0. -1.
</event>
<event>
 8    1  0.1083484E+005  0.1043930E+01  0.7957747E-01            NaN
         13   -1    0    0    0    0  0.00000000000E+00  0.00000000000E+00  0.74505805969E-08  0.10566000000E+00  0.10566000000E+00 0. -1.
     999900   -1    0    0    0    0 -0.00000000000E+00 -0.00000000000E+00 -0.74505805969E-08  0.93827000000E+00  0.93827000000E+00 0.  1.
     999902    2    1    2    0    0 -0.13956138826E-01 -0.18332729675E-01 -0.96357524996E-03  0.10208694001E+01  0.10206089069E+01 0.  0.
     999903    2    3    3    0    0  0.11545678440E-01 -0.11682032449E+00 -0.59500484030E-01  0.13307622677E+00  0.19715060895E-01 0.  0.
         14    1    1    2    0    0  0.13956138826E-01  0.18332729675E-01  0.96357524996E-03  0.23060599852E-01  0.00000000000E+00 0. -1.
     999901    1    3    3    0    0 -0.25501817266E-01  0.98487594813E-01  0.58536908780E-01  0.88779317338E+00  0.88000000000E+00 0.  1.
        -11    1    4    4    0    0 -0.27383612290E-02 -0.54946161085E-01 -0.21482108710E-01  0.59062012798E-01  0.51100000000E-03 0. -1.
         11    1    4    4    0    0  0.14284039669E-01 -0.61874163403E-01 -0.38018375320E-01  0.74014213967E-01  0.51100000000E-03 0.  1.
</event>
<event>
 8    1  0.1083484E+005  0.1043930E+01  0.7957747E-01            NaN
         13   -1    0    0    0    0  0.00000000000E+00  0.00000000000E+00  0.74505805969E-08  0.10566000000E+00  0.10566000000E+00 0. -1.
     999900   -1    0    0    0    0 -0.00000000000E+00 -0.00000000000E+00 -0.74505805969E-08  0.93827000000E+00  0.93827000000E+00 0. -1.
     999902    2    1    2    0    0 -0.19185237475E-01  0.13530382029E-01  0.26498312087E-02  0.10203044592E+01  0.10200308933E+01 0.  0.
     999903    2    3    3    0    0  0.33988946708E-01 -0.36920356018E-01 -0.11744954739E+00  0.12912735466E+00  0.19003061698E-01 0.  0.
         14    1    1    2    0    0  0.19185237475E-01 -0.13530382029E-01 -0.26498312087E-02  0.23625540846E-01  0.00000000000E+00 0.  1.
     999901    1    3    3    0    0 -0.53174184183E-01  0.50450738047E-01  0.12009937859E+00  0.89117710449E+00  0.88000000000E+00 0.  1.
        -11    1    4    4    0    0  0.16538963868E-01 -0.23820462431E-01 -0.86673934336E-01  0.91397941829E-01  0.51100000000E-03 0. -1.
         11    1    4    4    0    0  0.17449982840E-01 -0.13099893587E-01 -0.30775613050E-01  0.37729412833E-01  0.51100000000E-03 0.  1.
</event>
<event>
 8    1  0.1083484E+005  0.1043930E+01  0.7957747E-01            NaN
         13   -1    0    0    0    0  0.00000000000E+00  0.00000000000E+00  0.74505805969E-08  0.10566000000E+00  0.10566000000E+00 0.  1.
     999900   -1    0    0    0    0 -0.00000000000E+00 -0.00000000000E+00 -0.74505805969E-08  0.93827000000E+00  0.93827000000E+00 0. -1.
     999902    2    1    2    0    0  0.92507515140E-02  0.15167835203E-01  0.16207344877E-01  0.10198817640E+01  0.10195982026E+01 0.  0.
     999903    2    3    3    0    0  0.72450854952E-01  0.31005099085E-01 -0.10143405487E+00  0.12966573910E+00  0.17717049852E-01 0.  0.
         14    1    1    2    0    0 -0.92507515140E-02 -0.15167835203E-01 -0.16207344877E-01  0.24048236032E-01  0.00000000000E+00 0. -1.
     999901    1    3    3    0    0 -0.63200103438E-01 -0.15837263883E-01  0.11764139975E+00  0.89021602487E+00  0.88000000000E+00 0.  1.
        -11    1    4    4    0    0  0.45317006237E-02  0.77119385349E-02 -0.11894031329E-01  0.14890916989E-01  0.51100000000E-03 0. -1.
         11    1    4    4    0    0  0.67919154328E-01  0.23293160550E-01 -0.89540023542E-01  0.11477482211E+00  0.51100000000E-03 0.  1.
</event>
<event>
 8    1  0.1083484E+005  0.1043930E+01  0.7957747E-01            NaN
         13   -1    0    0    0    0  0.00000000000E+00  0.00000000000E+00  0.74505805969E-08  0.10566000000E+00  0.10566000000E+00 0. -1.
     999900   -1    0    0    0    0 -0.00000000000E+00 -0.00000000000E+00 -0.74505805969E-08  0.93827000000E+00  0.93827000000E+00 0. -1.
     999902    2    1    2    0    0  0.23069460082E-01  0.37074531435E-02  0.22903859724E-02  0.10204525413E+01  0.10201824337E+01 0.  0.
     999903    2    3    3    0    0 -0.96335638731E-01  0.82702713459E-01 -0.64108998377E-02  0.12883965384E+00  0.20934723842E-01 0.  0.
         14    1    1    2    0    0 -0.23069460082E-01 -0.37074531435E-02 -0.22903859724E-02  0.23477458661E-01  0.00000000000E+00 0.  1.
     999901    1    3    3    0    0  0.11940509881E+00 -0.78995260316E-01  0.87012858101E-02  0.89161288750E+00  0.88000000000E+00 0.  1.
        -11    1    4    4    0    0 -0.12657464856E-01  0.95598460081E-02  0.60898017784E-02  0.16998496374E-01  0.51100000000E-03 0. -1.
         11    1    4    4    0    0 -0.83678173875E-01  0.73142867451E-01 -0.12500701616E-01  0.11184115747E+00  0.51100000000E-03 0.  1.
</event>
<event>
 8    1  0.1083484E+005  0.1043930E+01  0.7957747E-01            NaN
         13   -1    0    0    0    0  0.00000000000E+00  0.00000000000E+00  0.74505805969E-08  0.10566000000E+00  0.10566000000E+00 0.  1.
     999900   -1    0    0    0    0 -0.00000000000E+00 -0.00000000000E+00 -0.74505805969E-08  0.93827000000E+00  0.93827000000E+00 0. -1.
     999902    2    1    2    0    0  0.58390642719E-02 -0.22437084217E-01 -0.25850496737E-02  0.10206019075E+01  0.10203352653E+01 0.  0.
     999903    2    3    3    0    0  0.45289802909E-01 -0.57442986616E-01  0.10816382367E+00  0.13209355807E+00  0.19960770929E-01 0.  0.
         14    1    1    2    0    0 -0.58390642719E-02  0.22437084217E-01  0.25850496737E-02  0.23328092540E-01  0.00000000000E+00 0. -1.
     999901    1    3    3    0    0 -0.39450738637E-01  0.35005902399E-01 -0.11074887334E+00  0.88850834939E+00  0.88000000000E+00 0. -1.
        -11    1    4    4    0    0  0.86816310364E-02 -0.28798290525E-02  0.21218567142E-01  0.23111746913E-01  0.51100000000E-03 0.  1.
         11    1    4    4    0    0  0.36608171872E-01 -0.54563157564E-01  0.86945256523E-01  0.10898181116E+00  0.51100000000E-03 0. -1.
</event>
<event>
 8    1  0.1083484E+005  0.1043930E+01  0.7957747E-01            NaN
         13   -1    0    0    0    0  0.00000000000E+00  0.00000000000E+00  0.74505805969E-08  0.10566000000E+00  0.10566000000E+00 0.  1.
     999900   -1    0    0    0    0 -0.00000000000E+00 -0.00000000000E+00 -0.74505805969E-08  0.93827000000E+00  0.93827000000E+00 0. -1.
     999902    2    1    2    0    0 -0.17897112954E-01 -0.11930596582E-01  0.11824089960E-01  0.10193850435E+01  0.10190895015E+01 0.  0.
     999903    2    3    3    0    0 -0.80749042310E-01  0.22303343471E-02  0.10291733656E+00  0.13234001838E+00  0.19912811858E-01 0.  0.
         14    1    1    2    0    0  0.17897112954E-01  0.11930596582E-01 -0.11824089960E-01  0.24544956514E-01  0.00000000000E+00 0. -1.
     999901    1    3    3    0    0  0.62851929356E-01 -0.14160930929E-01 -0.91093246596E-01  0.88704502511E+00  0.88000000000E+00 0. -1.
        -11    1    4    4    0    0 -0.29240871802E-01 -0.80086524478E-02  0.43693888742E-01  0.53184435055E-01  0.51100000000E-03 0.  1.
         11    1    4    4    0    0 -0.51508170508E-01  0.10238986795E-01  0.59223447814E-01  0.79155583326E-01  0.51100000000E-03 0. -1.
</event>
<event>
 8    1  0.1083484E+005  0.1043930E+01  0.7957747E-01            NaN
         13   -1    0    0    0    0  0.00000000000E+00  0.00000000000E+00  0.74505805969E-08  0.10566000000E+00  0.10566000000E+00 0. -1.
     999900   -1    0    0    0    0 -0.00000000000E+00 -0.00000000000E+00 -0.74505805969E-08  0.93827000000E+00  0.93827000000E+00 0.  1.
     999902    2    1    2    0    0 -0.16843625832E-01  0.10610469333E-01  0.12558281956E-01  0.10203927904E+01  0.10201212901E+01 0.  0.
     999903    2    3    3    0    0  0.71714701809E-01 -0.58470061248E-01 -0.85990076759E-01  0.12779743072E+00  0.19394418762E-01 0.  0.
         14    1    1    2    0    0  0.16843625832E-01 -0.10610469333E-01 -0.12558281956E-01  0.23537209612E-01  0.00000000000E+00 0.  1.
     999901    1    3    3    0    0 -0.88558327642E-01  0.69080530580E-01  0.98548358715E-01  0.89259535967E+00  0.88000000000E+00 0. -1.
        -11    1    4    4    0    0  0.56735584429E-01 -0.53650526446E-01 -0.77010021530E-01  0.10967274076E+00  0.51100000000E-03 0. -1.
         11    1    4    4    0    0  0.14979117380E-01 -0.48195348018E-02 -0.89800552288E-02  0.18124689959E-01  0.51100000000E-03 0.  1.
</event>
<event>
 8    1  0.1083484E+005  0.1043930E+01  0.7957747E-01            NaN
         13   -1    0    0    0    0  0.00000000000E+00  0.00000000000E+00  0.74505805969E-08  0.10566000000E+00  0.10566000000E+00 0.  1.
     999900   -1    0    0    0    0 -0.00000000000E+00 -0.00000000000E+00 -0.74505805969E-08  0.93827000000E+00  0.93827000000E+00 0. -1.
     999902    2    1    2    0    0  0.84703133268E-02 -0.19240297479E-01 -0.88078418350E-02  0.10211371649E+01  0.10208827534E+01 0.  0.
     999903    2    3    3    0    0 -0.12198027353E+00 -0.11965315844E-01  0.42096697212E-01  0.13003585018E+00  0.10716086109E-01 0.  0.
         14    1    1    2    0    0 -0.84703133268E-02  0.19240297479E-01  0.88078418350E-02  0.22792835118E-01  0.00000000000E+00 0.  1.
     999901    1    3    3    0    0  0.13045058686E+00 -0.72749816348E-02 -0.50904539047E-01  0.89110131470E+00  0.88000000000E+00 0.  1.
        -11    1    4    4    0    0 -0.49129196957E-01 -0.10079418215E-01  0.17407998973E-01  0.53090227109E-01  0.51100000000E-03 0. -1.
         11    1    4    4    0    0 -0.72851076575E-01 -0.18858976288E-02  0.24688698239E-01  0.76945623071E-01  0.51100000000E-03 0.  1.
</event>
<event>
 8    1  0.1083484E+005  0.1043930E+01  0.7957747E-01            NaN
         13   -1    0    0    0    0  0.00000000000E+00  0.00000000000E+00  0.74505805969E-08  0.10566000000E+00  0.10566000000E+00 0.  1.
     999900   -1    0    0    0    0 -0.00000000000E+00 -0.00000000000E+00 -0.74505805969E-08  0.93827000000E+00  0.93827000000E+00 0.  1.
     999902    2    1    2    0    0 -0.37111886594E-02 -0.13354035382E-01 -0.19361662390E-01  0.10201187180E+01  0.10198407825E+01 0.  0.
     999903    2    3    3    0    0  0.39335439886E-01  0.10112399057E+00 -0.69295081934E-01  0.13025829236E+00  0.19800910267E-01 0.  0.
         14    1    1    2    0    0  0.37111886594E-02  0.13354035382E-01  0.19361662390E-01  0.23811282048E-01  0.00000000000E+00 0.  1.
     999901    1    3    3    0    0 -0.43046628546E-01 -0.11447802595E+00  0.49933419544E-01  0.88986042560E+00  0.88000000000E+00 0. -1.
        -11    1    4    4    0    0  0.30721169842E-01  0.77325810572E-01 -0.42632286776E-01  0.93492482339E-01  0.51100000000E-03 0. -1.
         11    1    4    4    0    0  0.86142700439E-02  0.23798179998E-01 -0.26662795157E-01  0.36765810017E-01  0.51100000000E-03 0.  1.
</event>
<event>
 8    1  0.1083484E+005  0.1043930E+01  0.7957747E-01            NaN
         13   -1    0    0    0    0  0.00000000000E+00  0.00000000000E+00  0.74505805969E-08  0.10566000000E+00  0.10566000000E+00 0. -1.
     999900   -1    0    0    0    0 -0.00000000000E+00 -0.00000000000E+00 -0.74505805969E-08  0.93827000000E+00  0.93827000000E+00 0.  1.
     999902    2    1    2    0    0  0.24860414864E-02  0.43689811091E-02  0.23219642895E-01  0.10201724704E+01  0.10198958030E+01 0.  0.
     999903    2    3    3    0    0  0.63395839731E-01  0.86784257132E-01  0.75428098464E-01  0.13268838370E+00  0.19138164770E-01 0.  0.
         14    1    1    2    0    0 -0.24860414864E-02 -0.43689811091E-02 -0.23219642895E-01  0.23757529635E-01  0.00000000000E+00 0.  1.
     999901    1    3    3    0    0 -0.60909798245E-01 -0.82415276023E-01 -0.52208455569E-01  0.88748408666E+00  0.88000000000E+00 0.  1.
        -11    1    4    4    0    0  0.47432786380E-01  0.52357918639E-01  0.55373521566E-01  0.89764741851E-01  0.51100000000E-03 0. -1.
         11    1    4    4    0    0  0.15963053352E-01  0.34426338493E-01  0.20054576898E-01  0.42923641852E-01  0.51100000000E-03 0.  1.
</event>
<event>
 8    1  0.1083484E+005  0.1043930E+01  0.7957747E-01            NaN
         13   -1    0    0    0    0  0.00000000000E+00  0.00000000000E+00  0.74505805969E-08  0.10566000000E+00  0.10566000000E+00 0.  1.
     999900   -1    0    0    0    0 -0.00000000000E+00 -0.00000000000E+00 -0.74505805969E-08  0.93827000000E+00  0.93827000000E+00 0.  1.
     999902    2    1    2    0    0 -0.85096464026E-02 -0.19875911912E-01 -0.59837654802E-02  0.10214962886E+01  0.10212499186E+01 0.  0.
     999903    2    3    3    0    0 -0.12262103723E+00 -0.10246391368E-01 -0.46988880814E-01  0.13312949690E+00  0.19354604554E-01 0.  0.
         14    1    1    2    0    0  0.85096464026E-02  0.19875911912E-01  0.59837654802E-02  0.22433711364E-01  0.00000000000E+00 0.  1.
     999901    1    3    3    0    0  0.11411139082E+00 -0.96295205442E-02  0.41005115333E-01  0.88836679174E+00  0.88000000000E+00 0. -1.
        -11    1    4    4    0    0 -0.97507644281E-01 -0.67039557110E-03 -0.39644684810E-01  0.10526230227E+00  0.51100000000E-03 0. -1.
         11    1    4    4    0    0 -0.25113392945E-01 -0.95759957964E-02 -0.73441960039E-02  0.27867194632E-01  0.51100000000E-03 0.  1.
</event>
<event>
 8    1  0.1083484E+005  0.1043930E+01  0.7957747E-01            NaN
         13   -1    0    0    0    0  0.00000000000E+00  0.00000000000E+00  0.74505805969E-08  0.10566000000E+00  0.10566000000E+00 0. -1.
     999900   -1    0    0    0    0 -0.00000000000E+00 -0.00000000000E+00 -0.74505805969E-08  0.93827000000E+00  0.93827000000E+00 0.  1.
     999902    2    1    2    0    0 -0.78683955766E-02  0.19631133495E-01 -0.16562629529E-01  0.10170671307E+01  0.10167123165E+01 0.  0.
     999903    2    3    3    0    0 -0.11779904863E+00  0.46957730534E-01 -0.21222491690E-01  0.12979422694E+00  0.17734229059E-01 0.  0.
         14    1    1    2    0    0  0.78683955766E-02 -0.19631133495E-01  0.16562629529E-01  0.26862869322E-01  0.00000000000E+00 0. -1.
     999901    1    3    3    0    0  0.10993065305E+00 -0.27326597039E-01  0.46598621601E-02  0.88727290373E+00  0.88000000000E+00 0.  1.
        -11    1    4    4    0    0 -0.71851294057E-01  0.24817472091E-01 -0.20695989869E-01  0.78785154035E-01  0.51100000000E-03 0.  1.
         11    1    4    4    0    0 -0.45947754569E-01  0.22140258443E-01 -0.52650182067E-03  0.51009072909E-01  0.51100000000E-03 0. -1.
</event>
<event>
 8    1  0.1083484E+005  0.1043930E+01  0.7957747E-01            NaN
         13   -1    0    0    0    0  0.00000000000E+00  0.00000000000E+00  0.74505805969E-08  0.10566000000E+00  0.10566000000E+00 0.  1.
     999900   -1    0    0    0    0 -0.00000000000E+00 -0.00000000000E+00 -0.74505805969E-08  0.93827000000E+00  0.93827000000E+00 0. -1.
     999902    2    1    2    0    0  0.14885038044E-01 -0.13516532037E-01 -0.48758211388E-02  0.10232410023E+01  0.10230318246E+01 0.  0.
     999903    2    3    3    0    0 -0.11014819416E+00  0.57798933939E-02 -0.69281680547E-01  0.13186354241E+00  0.20542899375E-01 0.  0.
         14    1    1    2    0    0 -0.14885038044E-01  0.13516532037E-01  0.48758211388E-02  0.20688997744E-01  0.00000000000E+00 0.  1.
     999901    1    3    3    0    0  0.12503323220E+00 -0.19296425431E-01  0.64405859409E-01  0.89137745984E+00  0.88000000000E+00 0.  1.
        -11    1    4    4    0    0 -0.40597129551E-01  0.10536711978E-01 -0.19872717818E-01  0.46414817263E-01  0.51100000000E-03 0. -1.
         11    1    4    4    0    0 -0.69551064606E-01 -0.47568185843E-02 -0.49408962729E-01  0.85448725150E-01  0.51100000000E-03 0.  1.
</event>
<event>
 8    1  0.1083484E+005  0.1043930E+01  0.7957747E-01            NaN
         13   -1    0    0    0    0  0.00000000000E+00  0.00000000000E+00  0.74505805969E-08  0.10566000000E+00  0.10566000000E+00 0.  1.
     999900   -1    0    0    0    0 -0.00000000000E+00 -0.00000000000E+00 -0.74505805969E-08  0.93827000000E+00  0.93827000000E+00 0.  1.
     999902    2    1    2    0    0  0.11254599832E-01 -0.51166959981E-02 -0.19468336855E-01  0.10208678506E+01  0.10206073220E+01 0.  0.
     999903    2    3    3    0    0  0.45116742270E-01 -0.12904658276E-01  0.11893679144E+00  0.12937288337E+00  0.19731496549E-01 0.  0.
         14    1    1    2    0    0 -0.11254599832E-01  0.51166959981E-02  0.19468336855E-01  0.23062149405E-01  0.00000000000E+00 0.  1.
     999901    1    3    3    0    0 -0.33862142438E-01  0.77879622779E-02 -0.13840512829E+00  0.89149496722E+00  0.88000000000E+00 0.  1.
        -11    1    4    4    0    0  0.18384942794E-01 -0.20901861136E-02  0.24990330717E-01  0.31099079566E-01  0.51100000000E-03 0.  1.
         11    1    4    4    0    0  0.26731799476E-01 -0.10814472162E-01  0.93946460721E-01  0.98273803805E-01  0.51100000000E-03 0. -1.
</event>
<event>
 8    1  0.1083484E+005  0.1043930E+01  0.7957747E-01            NaN
         13   -1    0    0    0    0  0.00000000000E+00  0.00000000000E+00  0.74505805969E-08  0.10566000000E+00  0.10566000000E+00 0. -1.
     999900   -1    0    0    0    0 -0.00000000000E+00 -0.00000000000E+00 -0.74505805969E-08  0.93827000000E+00  0.93827000000E+00 0. -1.
     999902    2    1    2    0    0  0.28395126296E-03 -0.16255518184E-01 -0.16248834149E-01  0.10209441976E+01  0.10206854107E+01 0.  0.
     999903    2    3    3    0    0  0.36526457133E-01  0.11870544078E+00 -0.32022997600E-01  0.12977821762E+00  0.19792666614E-01 0.  0.
         14    1    1    2    0    0 -0.28395126296E-03  0.16255518184E-01  0.16248834149E-01  0.22985802378E-01  0.00000000000E+00 0. -1.
     999901    1    3    3    0    0 -0.36242505870E-01 -0.13496095897E+00  0.15774163451E-01  0.89116598000E+00  0.88000000000E+00 0. -1.
        -11    1    4    4    0    0  0.21336797769E-01  0.95819815589E-01 -0.27393199935E-01  0.10191832280E+00  0.51100000000E-03 0.  1.
         11    1    4    4    0    0  0.15189659364E-01  0.22885625194E-01 -0.46297976645E-02  0.27859894822E-01  0.51100000000E-03 0. -1.
</event>
<event>
 8    1  0.1160519E+005  0.1043930E+01  0.7957747E-01            NaN
         13   -1    0    0    0    0  0.00000000000E+00  0.00000000000E+00  0.74505805969E-08  0.10566000000E+00  0.10566000000E+00 0. -1.
     999900   -1    0    0    0    0 -0.00000000000E+00 -0.00000000000E+00 -0.74505805969E-08  0.93827000000E+00  0.93827000000E+00 0. -1.
     999902    2    1    2    0    0  0.17308534151E-01  0.15297270027E-01 -0.67624881523E-02  0.10198608689E+01  0.10195768087E+01 0.  0.
     999903    2    3    3    0    0 -0.12436493604E+00  0.98806519676E-02  0.20931316023E-01  0.12808306100E+00  0.20072018491E-01 0.  0.
         14    1    1    2    0    0 -0.17308534151E-01 -0.15297270027E-01  0.67624881523E-02  0.24069131076E-01  0.00000000000E+00 0. -1.
     999901    1    3    3    0    0  0.14167347019E+00  0.54166180593E-02 -0.27693804176E-01  0.89177780792E+00  0.88000000000E+00 0. -1.
        -11    1    4    4    0    0 -0.36302093011E-01  0.10588558558E-01  0.11413754110E-01  0.39503093970E-01  0.51100000000E-03 0. -1.
         11    1    4    4    0    0 -0.88062843030E-01 -0.70790659017E-03  0.95175619136E-02  0.88579967035E-01  0.51100000000E-03 0.  1.
</event>
<event>
 7    1  0.1083484E+005  0.1043930E+01  0.7957747E-01            NaN
         13   -1    0    0    0    0  0.00000000000E+00  0.00000000000E+00  0.74505805969E-08  0.10566000000E+00  0.10566000000E+00 0. -1.
     999900   -1    0    0    0    0 -0.00000000000E+00 -0.00000000000E+00 -0.74505805969E-08  0.93827000000E+00  0.93827000000E+00 0.  1.
     999902    2    1    2    0    0  0.19139781723E-01  0.12497731293E-02  0.13385332698E-01  0.10205406796E+01  0.10202726197E+01 0.  0.
         14    1    1    2    0    0 -0.19139781723E-01 -0.12497731293E-02 -0.13385332698E-01  0.23389320399E-01  0.00000000000E+00 0.  1.
     999901    1    3    3    0    0  0.97206911999E-01 -0.21709096369E-01  0.10627135480E+00  0.89197201159E+00  0.88000000000E+00 0. -1.
        -11    1    3    3    0    0 -0.85494487233E-02  0.20160554667E-02 -0.33897181558E-01  0.35020531003E-01  0.51100000000E-03 0.  1.
         11    1    3    3    0    0 -0.69517681552E-01  0.20942814031E-01 -0.58988840547E-01  0.93548137010E-01  0.51100000000E-03 0. -1.
</event>
<event>
 8    1  0.1083484E+005  0.1043930E+01  0.7957747E-01            NaN
         13   -1    0    0    0    0  0.00000000000E+00  0.00000000000E+00  0.74505805969E-08  0.10566000000E+00  0.10566000000E+00 0.  1.
     999900   -1    0    0    0    0 -0.00000000000E+00 -0.00000000000E+00 -0.74505805969E-08  0.93827000000E+00  0.93827000000E+00 0.  1.
     999902    2    1    2    0    0  0.89594131720E-02  0.13791730162E-01  0.15652197391E-01  0.10212259433E+01  0.10209735321E+01 0.  0.
     999903    2    3    3    0    0 -0.83621885030E-01 -0.90153313392E-01 -0.32204529881E-01  0.12900055971E+00  0.21994842353E-01 0.  0.
         14    1    1    2    0    0 -0.89594131720E-02 -0.13791730162E-01 -0.15652197391E-01  0.22704056651E-01  0.00000000000E+00 0. -1.
     999901    1    3    3    0    0  0.92581298202E-01  0.10394504355E+00  0.47856727272E-01  0.89222538363E+00  0.88000000000E+00 0. -1.
        -11    1    4    4    0    0 -0.36192540672E-01 -0.53116593383E-01 -0.22155427908E-01  0.67988209270E-01  0.51100000000E-03 0.  1.
         11    1    4    4    0    0 -0.47429344358E-01 -0.37036720009E-01 -0.10049101972E-01  0.61012350444E-01  0.51100000000E-03 0. -1.
</event>
<event>
 8    1  0.1083484E+005  0.1043930E+01  0.7957747E-01            NaN
         13   -1    0    0    0    0  0.00000000000E+00  0.00000000000E+00  0.74505805969E-08  0.10566000000E+00  0.10566000000E+00 0.  1.
     999900   -1    0    0    0    0 -0.00000000000E+00 -0.00000000000E+00 -0.74505805969E-08  0.93827000000E+00  0.93827000000E+00 0.  1.
     999902    2    1    2    0    0 -0.16416722643E-01  0.25686305293E-02  0.17312181988E-01  0.10199337859E+01  0.10196514647E+01 0.  0.
     999903    2    3    3    0    0 -0.55760262431E-01  0.83758975944E-01  0.84254629078E-01  0.13279170173E+00  0.20248965652E-01 0.  0.
         14    1    1    2    0    0  0.16416722643E-01 -0.25686305293E-02 -0.17312181988E-01  0.23996214083E-01  0.00000000000E+00 0. -1.
     999901    1    3    3    0    0  0.39343539788E-01 -0.81190345415E-01 -0.66942447089E-01  0.88714208419E+00  0.88000000000E+00 0.  1.
        -11    1    4    4    0    0 -0.19990410013E-01  0.46379972458E-01  0.35820606370E-01  0.61920071863E-01  0.51100000000E-03 0. -1.
         11    1    4    4    0    0 -0.35769852418E-01  0.37379003486E-01  0.48434022707E-01  0.70871629868E-01  0.51100000000E-03 0.  1.
</event>
<event>
 8    1  0.1083484E+005  0.1043930E+01  0.7957747E-01            NaN
         13   -1    0    0    0    0  0.00000000000E+00  0.00000000000E+00  0.74505805969E-08  0.10566000000E+00  0.10566000000E+00 0.  1.
     999900   -1    0    0    0    0 -0.00000000000E+00 -0.00000000000E+00 -0.74505805969E-08  0.93827000000E+00  0.93827000000E+00 0.  1.
     999902    2    1    2    0    0 -0.21554986171E-01 -0.86508294345E-02  0.15876086382E-02  0.10206496482E+01  0.10203841088E+01 0.  0.
     999903    2    3    3    0    0  0.20735155459E-01 -0.10812396102E+00  0.69000590126E-01  0.13147707212E+00  0.20109734863E-01 0.  0.
         14    1    1    2    0    0  0.21554986171E-01  0.86508294345E-02 -0.15876086382E-02  0.23280351800E-01  0.00000000000E+00 0. -1.
     999901    1    3    3    0    0 -0.42290141630E-01  0.99473131584E-01 -0.67412981488E-01  0.88917257608E+00  0.88000000000E+00 0.  1.
        -11    1    4    4    0    0  0.17955446828E-01 -0.74306840023E-01  0.37393275682E-01  0.85102424949E-01  0.51100000000E-03 0.  1.
         11    1    4    4    0    0  0.27797086307E-02 -0.33817120995E-01  0.31607314444E-01  0.46374647167E-01  0.51100000000E-03 0. -1.
</event>
<event>
 8    1  0.1083484E+005  0.1043930E+01  0.7957747E-01            NaN
         13   -1    0    0    0    0  0.00000000000E+00  0.00000000000E+00  0.74505805969E-08  0.10566000000E+00  0.10566000000E+00 0.  1.
     999900   -1    0    0    0    0 -0.00000000000E+00 -0.00000000000E+00 -0.74505805969E-08  0.93827000000E+00  0.93827000000E+00 0.  1.
     999902    2    1    2    0    0  0.16129670960E-01  0.16941206054E-01 -0.63230889339E-02  0.10196987763E+01  0.10194108309E+01 0.  0.
     999903    2    3    3    0    0 -0.15851813441E-02  0.12935326092E+00 -0.18656192205E-01  0.13228546138E+00  0.20411047873E-01 0.  0.
         14    1    1    2    0    0 -0.16129670960E-01 -0.16941206054E-01  0.63230889339E-02  0.24231223690E-01  0.00000000000E+00 0.  1.
     999901    1    3    3    0    0  0.17714852304E-01 -0.11241205487E+00  0.12333103271E-01  0.88741331493E+00  0.88000000000E+00 0. -1.
        -11    1    4    4    0    0  0.63564958599E-02  0.31016691819E-01  0.10312298930E-02  0.31682246876E-01  0.51100000000E-03 0.  1.
         11    1    4    4    0    0 -0.79416772041E-02  0.98336569101E-01 -0.19687422098E-01  0.10060321451E+00  0.51100000000E-03 0. -1.
</event>
<event>
 8    1  0.1083484E+005  0.1043930E+01  0.7957747E-01            NaN
         13   -1    0    0    0    0  0.00000000000E+00  0.00000000000E+00  0.74505805969E-08  0.10566000000E+00  0.10566000000E+00 0. -1.
     999900   -1    0    0    0    0 -0.00000000000E+00 -0.00000000000E+00 -0.74505805969E-08  0.93827000000E+00  0.93827000000E+00 0.  1.
     999902    2    1    2    0    0  0.21448504663E-01  0.71954237839E-02  0.78323270508E-02  0.10199892853E+01  0.10197082839E+01 0.  0.
     999903    2    3    3    0    0 -0.45537340783E-01  0.45973683666E-01 -0.10951663032E+00  0.12883181615E+00  0.20408712401E-01 0.  0.
         14    1    1    2    0    0 -0.21448504663E-01 -0.71954237839E-02 -0.78323270508E-02  0.23940714750E-01  0.00000000000E+00 0. -1.
     999901    1    3    3    0    0  0.66985845446E-01 -0.38778259882E-01  0.11734895737E+00  0.89115746910E+00  0.88000000000E+00 0. -1.
        -11    1    4    4    0    0 -0.78379512220E-02  0.17908185619E-01 -0.21579709724E-01  0.29121840332E-01  0.51100000000E-03 0.  1.
         11    1    4    4    0    0 -0.37699389561E-01  0.28065498047E-01 -0.87936920594E-01  0.99709975823E-01  0.51100000000E-03 0. -1.
</event>
<event>
 8    1  0.1083484E+005  0.1043930E+01  0.7957747E-01            NaN
         13   -1    0    0    0    0  0.00000000000E+00  0.00000000000E+00  0.74505805969E-08  0.10566000000E+00  0.10566000000E+00 0. -1.
     999900   -1    0    0    0    0 -0.00000000000E+00 -0.00000000000E+00 -0.74505805969E-08  0.93827000000E+00  0.93827000000E+00 0.  1.
     999902    2    1    2    0    0 -0.16400060717E-01 -0.17787116480E-01  0.33859068523E-03  0.10197337576E+01  0.10194466529E+01 0.  0.
     999903    2    3    3    0    0 -0.75806924469E-01  0.28486687974E-01  0.10082240187E+00  0.13082013030E+00  0.19762808079E-01 0.  0.
         14    1    1    2    0    0  0.16400060717E-01  0.17787116480E-01 -0.33859068523E-03  0.24196242433E-01  0.00000000000E+00 0.  1.
     999901    1    3    3    0    0  0.59406863753E-01 -0.46273804454E-01 -0.10048381118E+00  0.88891362727E+00  0.88000000000E+00 0.  1.
        -11    1    4    4    0    0 -0.46205137272E-01  0.25454820184E-01  0.55258456727E-01  0.76397779692E-01  0.51100000000E-03 0. -1.
         11    1    4    4    0    0 -0.29601787197E-01  0.30318677895E-02  0.45563945140E-01  0.54422350604E-01  0.51100000000E-03 0.  1.
</event>
<event>
 8    1  0.1083484E+005  0.1043930E+01  0.7957747E-01            NaN
         13   -1    0    0    0    0  0.00000000000E+00  0.00000000000E+00  0.74505805969E-08  0.10566000000E+00  0.10566000000E+00 0.  1.
     999900   -1    0    0    0    0 -0.00000000000E+00 -0.00000000000E+00 -0.74505805969E-08  0.93827000000E+00  0.93827000000E+00 0.  1.
     999902    2    1    2    0    0 -0.15903857261E-01 -0.17824014799E-01  0.62204128529E-02  0.10192455572E+01  0.10189466052E+01 0.  0.
     999903    2    3    3    0    0 -0.81907100265E-01  0.85225626133E-01 -0.47389329463E-01  0.12916148195E+00  0.21558280268E-01 0.  0.
         14    1    1    2    0    0  0.15903857261E-01  0.17824014799E-01 -0.62204128529E-02  0.24684442781E-01  0.00000000000E+00 0. -1.
     999901    1    3    3    0    0  0.66003243003E-01 -0.10304964093E+00  0.53609742315E-01  0.89008407527E+00  0.88000000000E+00 0. -1.
        -11    1    4    4    0    0 -0.28430812497E-01  0.44607276317E-01 -0.23486454787E-01  0.57879140276E-01  0.51100000000E-03 0.  1.
         11    1    4    4    0    0 -0.53476287768E-01  0.40618349816E-01 -0.23902874675E-01  0.71282341669E-01  0.51100000000E-03 0. -1.
</event>
<event>
 8    1  0.1083484E+005  0.1043930E+01  0.7957747E-01            NaN
         13   -1    0    0    0    0  0.00000000000E+00  0.00000000000E+00  0.74505805969E-08  0.10566000000E+00  0.10566000000E+00 0.  1.
     999900   -1    0    0    0    0 -0.00000000000E+00 -0.00000000000E+00 -0.74505805969E-08  0.93827000000E+00  0.93827000000E+00 0. -1.
     999902    2    1    2    0    0  0.19517980583E-01 -0.11242053760E-01 -0.43330050091E-02  0.10209929062E+01  0.10207352273E+01 0.  0.
     999903    2    3    3    0    0  0.88883004904E-01  0.62584825603E-01  0.72002813082E-01  0.13189838265E+00  0.19892945914E-01 0.  0.
         14    1    1    2    0    0 -0.19517980583E-01  0.11242053760E-01  0.43330050091E-02  0.22937093783E-01  0.00000000000E+00 0.  1.
     999901    1    3    3    0    0 -0.69365024322E-01 -0.73826879363E-01 -0.76335818091E-01  0.88909452357E+00  0.88000000000E+00 0. -1.
        -11    1    4    4    0    0  0.12842460476E-01  0.13370876488E-01  0.20728148696E-01  0.27814140262E-01  0.51100000000E-03 0. -1.
         11    1    4    4    0    0  0.76040544428E-01  0.49213949115E-01  0.51274664386E-01  0.10408424239E+00  0.51100000000E-03 0.  1.
</event>
<event>
 8    1  0.1083484E+005  0.1043930E+01  0.7957747E-01            NaN
         13   -1    0    0    0    0  0.00000000000E+00  0.00000000000E+00  0.74505805969E-08  0.10566000000E+00  0.10566000000E+00 0.  1.
     999900   -1    0    0    0    0 -0.00000000000E+00 -0.00000000000E+00 -0.74505805969E-08  0.93827000000E+00  0.93827000000E+00 0. -1.
     999902    2    1    2    0    0  0.11034936834E-01  0.85267055566E-02  0.19437666577E-01  0.10200072614E+01  0.10197266869E+01 0.  0.
     999903    2    3    3    0    0 -0.45667922994E-01 -0.41442929805E-01 -0.10984390096E+00  0.12735620840E+00  0.18730873434E-01 0.  0.
         14    1    1    2    0    0 -0.11034936834E-01 -0.85267055566E-02 -0.19437666577E-01  0.23922738567E-01  0.00000000000E+00 0. -1.
     999901    1    3    3    0    0  0.56702859828E-01  0.49969635361E-01  0.12928156754E+00  0.89265105303E+00  0.88000000000E+00 0.  1.
        -11    1    4    4    0    0 -0.14216943815E-01 -0.59828901309E-02 -0.40672211496E-01  0.43501797373E-01  0.51100000000E-03 0. -1.
         11    1    4    4    0    0 -0.31450979178E-01 -0.35460039674E-01 -0.69171689463E-01  0.83854411030E-01  0.51100000000E-03 0.  1.
</event>
<event>
 8    1  0.1083484E+005  0.1043930E+01  0.7957747E-01            NaN
         13   -1    0    0    0    0  0.00000000000E+00  0.00000000000E+00  0.74505805969E-08  0.10566000000E+00  0.10566000000E+00 0. -1.
     999900   -1    0    0    0    0 -0.00000000000E+00 -0.00000000000E+00 -0.74505805969E-08  0.93827000000E+00  0.93827000000E+00 0. -1.
     999902    2    1    2    0    0  0.16423044537E-01 -0.48490304033E-02 -0.20205954189E-01  0.10174439646E+01  0.10170991648E+01 0.  0.
     999903    2    3    3    0    0 -0.69598056465E-01  0.93159590472E-01  0.43186101031E-01  0.12557857549E+00  0.19553530108E-01 0.  0.
         14    1    1    2    0    0 -0.16423044537E-01  0.48490304033E-02  0.20205954189E-01  0.26486035423E-01  0.00000000000E+00 0. -1.
     999901    1    3    3    0    0  0.86021101002E-01 -0.98008620876E-01 -0.63392055220E-01  0.89186538909E+00  0.88000000000E+00 0.  1.
        -11    1    4    4    0    0 -0.36588309578E-01  0.34033553621E-01  0.14489371568E-01  0.52030665759E-01  0.51100000000E-03 0. -1.
         11    1    4    4    0    0 -0.33009746887E-01  0.59126036852E-01  0.28696729462E-01  0.73547909733E-01  0.51100000000E-03 0.  1.
</event>
<event>
 8    1  0.1083484E+005  0.1043930E+01  0.7957747E-01            NaN
         13   -1    0    0    0    0  0.00000000000E+00  0.00000000000E+00  0.74505805969E-08  0.10566000000E+00  0.10566000000E+00 0. -1.
     999900   -1    0    0    0    0 -0.00000000000E+00 -0.00000000000E+00 -0.74505805969E-08  0.93827000000E+00  0.93827000000E+00 0.  1.
     999902    2    1    2    0    0  0.28629766074E-03  0.17123845419E-01 -0.16040417893E-01  0.10204650676E+01  0.10201952514E+01 0.  0.
     999903    2    3    3    0    0  0.11407323593E+00  0.75272854126E-02 -0.63087546808E-01  0.13184085361E+00  0.18237569337E-01 0.  0.
         14    1    1    2    0    0 -0.28629766074E-03 -0.17123845419E-01  0.16040417893E-01  0.23464932441E-01  0.00000000000E+00 0. -1.
     999901    1    3    3    0    0 -0.11378693827E+00  0.95965600063E-02  0.47047128915E-01  0.88862421395E+00  0.88000000000E+00 0. -1.
        -11    1    4    4    0    0  0.80321279172E-01  0.90559909973E-02 -0.52683970020E-01  0.96485131906E-01  0.51100000000E-03 0. -1.
         11    1    4    4    0    0  0.33751956760E-01 -0.15287055847E-02 -0.10403576788E-01  0.35355721699E-01  0.51100000000E-03 0.  1.
</event>
<event>
 8    1  0.1083484E+005  0.1043930E+01  0.7957747E-01            NaN
         13   -1    0    0    0    0  0.00000000000E+00  0.00000000000E+00  0.74505805969E-08  0.10566000000E+00  0.10566000000E+00 0. -1.
     999900   -1    0    0    0    0 -0.00000000000E+00 -0.00000000000E+00 -0.74505805969E-08  0.93827000000E+00  0.93827000000E+00 0.  1.
     999902    2    1    2    0    0 -0.69626166508E-03 -0.23868613151E-01 -0.61686479366E-02  0.10192673219E+01  0.10189689032E+01 0.  0.
     999903    2    3    3    0    0 -0.98418717012E-01  0.47764237838E-01 -0.65255989432E-01  0.12900204820E+00  0.20384258839E-01 0.  0.
         14    1    1    2    0    0  0.69626166508E-03  0.23868613151E-01  0.61686479366E-02  0.24662678107E-01  0.00000000000E+00 0. -1.
     999901    1    3    3    0    0  0.97722455347E-01 -0.71632850988E-01  0.59087341496E-01  0.89026527369E+00  0.88000000000E+00 0.  1.
        -11    1    4    4    0    0 -0.42479990253E-01  0.31116075502E-01 -0.35312807220E-01  0.63403589814E-01  0.51100000000E-03 0. -1.
         11    1    4    4    0    0 -0.55938726759E-01  0.16648162336E-01 -0.29943182212E-01  0.65598458385E-01  0.51100000000E-03 0.  1.
</event>
<event>
 8    1  0.1083484E+005  0.1043930E+01  0.7957747E-01            NaN
         13   -1    0    0    0    0  0.00000000000E+00  0.00000000000E+00  0.74505805969E-08  0.10566000000E+00  0.10566000000E+00 0. -1.
     999900   -1    0    0    0    0 -0.00000000000E+00 -0.00000000000E+00 -0.74505805969E-08  0.93827000000E+00  0.93827000000E+00 0.  1.
     999902    2    1    2    0    0 -0.48410458494E-03 -0.22830562797E-01 -0.30957657680E-02  0.10208854188E+01  0.10206252915E+01 0.  0.
     999903    2    3    3    0    0 -0.22541460336E-01  0.61656994931E-02 -0.12773284051E+00  0.13135649263E+00  0.19817071650E-01 0.  0.
         14    1    1    2    0    0  0.48410458494E-03  0.22830562797E-01  0.30957657680E-02  0.23044581154E-01  0.00000000000E+00 0.  1.
     999901    1    3    3    0    0  0.22057355751E-01 -0.28996262290E-01  0.12463707474E+00  0.88952892621E+00  0.88000000000E+00 0. -1.
        -11    1    4    4    0    0 -0.45063889728E-02  0.78550774277E-02 -0.76047112750E-01  0.76586123166E-01  0.51100000000E-03 0. -1.
         11    1    4    4    0    0 -0.18035071363E-01 -0.16893779346E-02 -0.51685727756E-01  0.54770369467E-01  0.51100000000E-03 0.  1.
</event>
<event>
 8    1  0.1083484E+005  0.1043930E+01  0.7957747E-01            NaN
         13   -1    0    0    0    0  0.00000000000E+00  0.00000000000E+00  0.74505805969E-08  0.10566000000E+00  0.10566000000E+00 0.  1.
     999900   -1    0    0    0    0 -0.00000000000E+00 -0.00000000000E+00 -0.74505805969E-08  0.93827000000E+00  0.93827000000E+00 0.  1.
     999902    2    1    2    0    0 -0.13471991853E-01  0.87278090948E-02  0.23610928784E-01  0.10153792527E+01  0.10149777739E+01 0.  0.
     999903    2    3    3    0    0  0.10638993264E+00  0.11438001480E-01  0.64005003977E-01  0.12633149949E+00  0.20331295735E-01 0.  0.
         14    1    1    2    0    0  0.13471991853E-01 -0.87278090948E-02 -0.23610928784E-01  0.28550747348E-01  0.00000000000E+00 0. -1.
     999901    1    3    3    0    0 -0.11986192449E+00 -0.27101923847E-02 -0.40394075192E-01  0.88904775316E+00  0.88000000000E+00 0.  1.
        -11    1    4    4    0    0  0.45263034938E-01  0.46237935645E-02  0.39026411470E-01  0.59945339368E-01  0.51100000000E-03 0. -1.
         11    1    4    4    0    0  0.61126897697E-01  0.68142079150E-02  0.24978592507E-01  0.66386160126E-01  0.51100000000E-03 0.  1.
</event>
<event>
 8    1  0.1083484E+005  0.1043930E+01  0.7957747E-01            NaN
         13   -1    0    0    0    0  0.00000000000E+00  0.00000000000E+00  0.74505805969E-08  0.10566000000E+00  0.10566000000E+00 0. -1.
     999900   -1    0    0    0    0 -0.00000000000E+00 -0.00000000000E+00 -0.74505805969E-08  0.93827000000E+00  0.93827000000E+00 0. -1.
     999902    2    1    2    0    0  0.22305218628E-01  0.47707560759E-02  0.96899784249E-03  0.10210997164E+01  0.10208444588E+01 0.  0.
     999903    2    3    3    0    0  0.82189579919E-01 -0.78252244333E-01 -0.65465050071E-01  0.13267839855E+00  0.20960531244E-01 0.  0.
         14    1    1    2    0    0 -0.22305218628E-01 -0.47707560759E-02 -0.96899784249E-03  0.22830283582E-01  0.00000000000E+00 0.  1.
     999901    1    3    3    0    0 -0.59884361291E-01  0.83023000409E-01  0.66434047913E-01  0.88842131787E+00  0.88000000000E+00 0.  1.
        -11    1    4    4    0    0  0.75776227834E-01 -0.61953316263E-01 -0.55631410628E-01  0.11258492381E+00  0.51100000000E-03 0.  1.
         11    1    4    4    0    0  0.64133520856E-02 -0.16298928070E-01 -0.98336394425E-02  0.20093474734E-01  0.51100000000E-03 0. -1.
</event>
<event>
 8    1  0.1083484E+005  0.1043930E+01  0.7957747E-01            NaN
         13   -1    0    0    0    0  0.00000000000E+00  0.00000000000E+00  0.74505805969E-08  0.10566000000E+00  0.10566000000E+00 0.  1.
     999900   -1    0    0    0    0 -0.00000000000E+00 -0.00000000000E+00 -0.74505805969E-08  0.93827000000E+00  0.93827000000E+00 0. -1.
     999902    2    1    2    0    0  0.14259655802E-01 -0.82681377976E-02  0.18709789278E-01  0.10189949624E+01  0.10186898337E+01 0.  0.
     999903    2    3    3    0    0 -0.30395907613E-01 -0.10035114410E+00  0.75914406572E-01  0.13121922064E+00  0.21476112730E-01 0.  0.
         14    1    1    2    0    0 -0.14259655802E-01  0.82681377976E-02 -0.18709789278E-01  0.24935037619E-01  0.00000000000E+00 0. -1.
     999901    1    3    3    0    0  0.44655563415E-01  0.92083006298E-01 -0.57204617295E-01  0.88777574175E+00  0.88000000000E+00 0. -1.
        -11    1    4    4    0    0 -0.22193754277E-02 -0.40826186150E-01  0.33751338384E-01  0.53019968564E-01  0.51100000000E-03 0. -1.
         11    1    4    4    0    0 -0.28176532185E-01 -0.59524957945E-01  0.42163068188E-01  0.78199252071E-01  0.51100000000E-03 0.  1.
</event>
<event>
 8    1  0.1083484E+005  0.1043930E+01  0.7957747E-01            NaN
         13   -1    0    0    0    0  0.00000000000E+00  0.00000000000E+00  0.74505805969E-08  0.10566000000E+00  0.10566000000E+00 0.  1.
     999900   -1    0    0    0    0 -0.00000000000E+00 -0.00000000000E+00 -0.74505805969E-08  0.93827000000E+00  0.93827000000E+00 0. -1.
     999902    2    1    2    0    0  0.13582115608E-01 -0.59671709547E-02  0.16019615708E-01  0.10220963315E+01  0.10218631032E+01 0.  0.
     999903    2    3    3    0    0 -0.12091137463E+00 -0.34165756912E-01  0.33328614583E-01  0.13126342874E+00  0.18232709966E-01 0.  0.
         14    1    1    2    0    0 -0.13582115608E-01  0.59671709547E-02 -0.16019615708E-01  0.21833668519E-01  0.00000000000E+00 0. -1.
     999901    1    3    3    0    0  0.13449349024E+00  0.28198585958E-01 -0.17308998875E-01  0.89083290274E+00  0.88000000000E+00 0. -1.
        -11    1    4    4    0    0 -0.35753346759E-01 -0.12247243000E-01  0.17727513995E-02  0.37837818834E-01  0.51100000000E-03 0. -1.
         11    1    4    4    0    0 -0.85158027875E-01 -0.21918513912E-01  0.31555863183E-01  0.93425609904E-01  0.51100000000E-03 0.  1.
</event>
<event>
 8    1  0.1083484E+005  0.1043930E+01  0.7957747E-01            NaN
         13   -1    0    0    0    0  0.00000000000E+00  0.00000000000E+00  0.74505805969E-08  0.10566000000E+00  0.10566000000E+00 0. -1.
     999900   -1    0    0    0    0 -0.00000000000E+00 -0.00000000000E+00 -0.74505805969E-08  0.93827000000E+00  0.93827000000E+00 0.  1.
     999902    2    1    2    0    0 -0.99422203137E-03  0.23023750431E-01 -0.16001802253E-02  0.10208293044E+01  0.10205678941E+01 0.  0.
     999903    2    3    3    0    0  0.22262071080E-01  0.48592219868E-02 -0.12783219672E+00  0.13133207153E+00  0.19693416305E-01 0.  0.
         14    1    1    2    0    0  0.99422203137E-03 -0.23023750431E-01  0.16001802253E-02  0.23100695620E-01  0.00000000000E+00 0.  1.
     999901    1    3    3    0    0 -0.23256293111E-01  0.18164528445E-01  0.12623201650E+00  0.88949723285E+00  0.88000000000E+00 0. -1.
        -11    1    4    4    0    0 -0.63768168750E-03 -0.25166861126E-02 -0.44935126337E-01  0.45012965320E-01  0.51100000000E-03 0. -1.
         11    1    4    4    0    0  0.22899752767E-01  0.73759080994E-02 -0.82897070385E-01  0.86319106208E-01  0.51100000000E-03 0.  1.
</event>
<event>
 8    1  0.1083484E+005  0.1043930E+01  0.7957747E-01            NaN
         13   -1    0    0    0    0  0.00000000000E+00  0.00000000000E+00  0.74505805969E-08  0.10566000000E+00  0.10566000000E+00 0.  1.
     999900   -1    0    0    0    0 -0.00000000000E+00 -0.00000000000E+00 -0.74505805969E-08  0.93827000000E+00  0.93827000000E+00 0.  1.
     999902    2    1    2    0    0  0.57112579639E-03 -0.23577400255E-01 -0.51513460886E-03  0.10203400583E+01  0.10200673258E+01 0.  0.
     999903    2    3    3    0    0  0.95795036439E-01  0.31231186213E-01  0.79987882931E-01  0.12986136108E+00  0.17715408163E-01 0.  0.
         14    1    1    2    0    0 -0.57112579639E-03  0.23577400255E-01  0.51513460886E-03  0.23589941737E-01  0.00000000000E+00 0.  1.
     999901    1    3    3    0    0 -0.95223910643E-01 -0.54808586468E-01 -0.80503017540E-01  0.89047869719E+00  0.88000000000E+00 0.  1.
        -11    1    4    4    0    0  0.50303871279E-01  0.25648999199E-01  0.44112781530E-01  0.71655769069E-01  0.51100000000E-03 0.  1.
         11    1    4    4    0    0  0.45491165161E-01  0.55821870143E-02  0.35875101401E-01  0.58205592008E-01  0.51100000000E-03 0. -1.
</event>
<event>
 8    1  0.1083484E+005  0.1043930E+01  0.7957747E-01            NaN
         13   -1    0    0    0    0  0.00000000000E+00  0.00000000000E+00  0.74505805969E-08  0.10566000000E+00  0.10566000000E+00 0. -1.
     999900   -1    0    0    0    0 -0.00000000000E+00 -0.00000000000E+00 -0.74505805969E-08  0.93827000000E+00  0.93827000000E+00 0. -1.
     999902    2    1    2    0    0 -0.69290250561E-02  0.39640934585E-02 -0.20313806491E-01  0.10221039569E+01  0.10218708932E+01 0.  0.
     999903    2    3    3    0    0 -0.98436311744E-01 -0.15611747506E-01 -0.88164841114E-01  0.13454519262E+00  0.19898128538E-01 0.  0.
         14    1    1    2    0    0  0.69290250561E-02 -0.39640934585E-02  0.20313806491E-01  0.21826043144E-01  0.00000000000E+00 0. -1.
     999901    1    3    3    0    0  0.91507286688E-01  0.19575840965E-01  0.67851034623E-01  0.88755876423E+00  0.88000000000E+00 0. -1.
        -11    1    4    4    0    0 -0.33625053840E-01 -0.13517676506E-01 -0.25082415160E-01  0.44076756858E-01  0.51100000000E-03 0.  1.
         11    1    4    4    0    0 -0.64811257904E-01 -0.20940709999E-02 -0.63082425955E-01  0.90468435765E-01  0.51100000000E-03 0. -1.
</event>
<event>
 8    1  0.1083484E+005  0.1043930E+01  0.7957747E-01            NaN
         13   -1    0    0    0    0  0.00000000000E+00  0.00000000000E+00  0.74505805969E-08  0.10566000000E+00  0.10566000000E+00 0. -1.
     999900   -1    0    0    0    0 -0.00000000000E+00 -0.00000000000E+00 -0.74505805969E-08  0.93827000000E+00  0.93827000000E+00 0. -1.
     999902    2    1    2    0    0 -0.18165503442E-01  0.10236639512E-02 -0.15331604641E-01  0.10201373225E+01  0.10198598262E+01 0.  0.
     999903    2    3    3    0    0 -0.17461812892E-02 -0.96139822671E-01 -0.87610352545E-01  0.13169230185E+00  0.20527392436E-01 0.  0.
         14    1    1    2    0    0  0.18165503442E-01 -0.10236639512E-02  0.15331604641E-01  0.23792677530E-01  0.00000000000E+00 0.  1.
     999901    1    3    3    0    0 -0.16419322152E-01  0.97163486622E-01  0.72278747904E-01  0.88844502062E+00  0.88000000000E+00 0.  1.
        -11    1    4    4    0    0  0.36627553985E-02 -0.30402933589E-01 -0.16850321509E-01  0.34956381447E-01  0.51100000000E-03 0. -1.
         11    1    4    4    0    0 -0.54089366877E-02 -0.65736889082E-01 -0.70760031035E-01  0.96735920399E-01  0.51100000000E-03 0.  1.
</event>
<event>
 8    1  0.1083484E+005  0.1043930E+01  0.7957747E-01            NaN
         13   -1    0    0    0    0  0.00000000000E+00  0.00000000000E+00  0.74505805969E-08  0.10566000000E+00  0.10566000000E+00 0. -1.
     999900   -1    0    0    0    0 -0.00000000000E+00 -0.00000000000E+00 -0.74505805969E-08  0.93827000000E+00  0.93827000000E+00 0. -1.
     999902    2    1    2    0    0 -0.13163486639E-01  0.22659615581E-02 -0.20153354278E-01  0.10197521248E+01  0.10194654611E+01 0.  0.
     999903    2    3    3    0    0 -0.64393208516E-01 -0.98692566099E-02 -0.11437458164E+00  0.13315786152E+00  0.20139107033E-01 0.  0.
         14    1    1    2    0    0  0.13163486639E-01 -0.22659615581E-02  0.20153354278E-01  0.24177875236E-01  0.00000000000E+00 0. -1.
     999901    1    3    3    0    0  0.51229721877E-01  0.12135218168E-01  0.94221227359E-01  0.88659426324E+00  0.88000000000E+00 0.  1.
        -11    1    4    4    0    0 -0.27029298016E-01  0.26150568100E-02 -0.61400368058E-01  0.67139316291E-01  0.51100000000E-03 0.  1.
         11    1    4    4    0    0 -0.37363910500E-01 -0.12484313420E-01 -0.52974213579E-01  0.66018545233E-01  0.51100000000E-03 0. -1.
</event>
<event>
 8    1  0.1193805E+005  0.1043930E+01  0.7957747E-01            NaN
         13   -1    0    0    0    0  0.00000000000E+00  0.00000000000E+00  0.74505805969E-08  0.10566000000E+00  0.10566000000E+00 0. -1.
     999900   -1    0    0    0    0 -0.00000000000E+00 -0.00000000000E+00 -0.74505805969E-08  0.93827000000E+00  0.93827000000E+00 0. -1.
     999902    2    1    2    0    0  0.26611038828E-01 -0.12460895998E-02 -0.10160038566E-01  0.10154181339E+01  0.10150177634E+01 0.  0.
     999903    2    3    3    0    0  0.87685821962E-01 -0.88613265311E-01 -0.26917089132E-01  0.12882693649E+00  0.18186140735E-01 0.  0.
         14    1    1    2    0    0 -0.26611038828E-01  0.12460895998E-02  0.10160038566E-01  0.28511866135E-01  0.00000000000E+00 0.  1.
     999901    1    3    3    0    0 -0.61074783134E-01  0.87367175711E-01  0.16757050566E-01  0.88659119738E+00  0.88000000000E+00 0.  1.
        -11    1    4    4    0    0  0.39626098952E-01 -0.27950318462E-01 -0.12795866977E-01  0.50154195766E-01  0.51100000000E-03 0. -1.
         11    1    4    4    0    0  0.48059723010E-01 -0.60662946849E-01 -0.14121222154E-01  0.78672740720E-01  0.51100000000E-03 0.  1.
</event>
<event>
 8    1  0.1083484E+005  0.1043930E+01  0.7957747E-01            NaN
         13   -1    0    0    0    0  0.00000000000E+00  0.00000000000E+00  0.74505805969E-08  0.10566000000E+00  0.10566000000E+00 0.  1.
     999900   -1    0    0    0    0 -0.00000000000E+00 -0.00000000000E+00 -0.74505805969E-08  0.93827000000E+00  0.93827000000E+00 0. -1.
     999902    2    1    2    0    0  0.48135304795E-02  0.22882313206E-01  0.20976523815E-02  0.10204529798E+01  0.10201828824E+01 0.  0.
     999903    2    3    3    0    0  0.67362322485E-01 -0.84934707582E-01 -0.67343339762E-01  0.12896046004E+00  0.18549603766E-01 0.  0.
         14    1    1    2    0    0 -0.48135304795E-02 -0.22882313206E-01 -0.20976523815E-02  0.23477020229E-01  0.00000000000E+00 0.  1.
     999901    1    3    3    0    0 -0.62548792005E-01  0.10781702079E+00  0.69440992144E-01  0.89149251973E+00  0.88000000000E+00 0.  1.
        -11    1    4    4    0    0  0.28539907704E-01 -0.22355640340E-01 -0.19942575407E-01  0.41379565266E-01  0.51100000000E-03 0.  1.
         11    1    4    4    0    0  0.38822414781E-01 -0.62579067242E-01 -0.47400764355E-01  0.87580894770E-01  0.51100000000E-03 0. -1.
</event>
<event>
 8    1  0.1083484E+005  0.1043930E+01  0.7957747E-01            NaN
         13   -1    0    0    0    0  0.00000000000E+00  0.00000000000E+00  0.74505805969E-08  0.10566000000E+00  0.10566000000E+00 0. -1.
     999900   -1    0    0    0    0 -0.00000000000E+00 -0.00000000000E+00 -0.74505805969E-08  0.93827000000E+00  0.93827000000E+00 0.  1.
     999902    2    1    2    0    0 -0.57988217112E-02  0.15316111365E-01  0.17871117614E-01  0.10196898175E+01  0.10194016566E+01 0.  0.
     999903    2    3    3    0    0  0.10528263776E+00  0.37483006462E-01  0.65413250756E-01  0.13115691647E+00  0.20828676782E-01 0.  0.
         14    1    1    2    0    0  0.57988217112E-02 -0.15316111365E-01 -0.17871117614E-01  0.24240182454E-01  0.00000000000E+00 0.  1.
     999901    1    3    3    0    0 -0.11108145947E+00 -0.22166895096E-01 -0.47542133141E-01  0.88853290108E+00  0.88000000000E+00 0. -1.
        -11    1    4    4    0    0  0.72168982706E-02  0.66754637792E-02  0.11315756765E-01  0.14998430234E-01  0.51100000000E-03 0.  1.
         11    1    4    4    0    0  0.98065739486E-01  0.30807542682E-01  0.54097493991E-01  0.11615848623E+00  0.51100000000E-03 0. -1.
</event>
<event>
 8    1  0.1083484E+005  0.1043930E+01  0.7957747E-01            NaN
         13   -1    0    0    0    0  0.00000000000E+00  0.00000000000E+00  0.74505805969E-08  0.10566000000E+00  0.10566000000E+00 0. -1.
     999900   -1    0    0    0    0 -0.00000000000E+00 -0.00000000000E+00 -0.74505805969E-08  0.93827000000E+00  0.93827000000E+00 0.  1.
     999902    2    1    2    0    0  0.21904510982E-01  0.76951349648E-02 -0.73993320862E-02  0.10195625459E+01  0.10192713143E+01 0.  0.
     999903    2    3    3    0    0  0.12656221749E+00 -0.32145466379E-01  0.75537882679E-02  0.13233985411E+00  0.20135822883E-01 0.  0.
         14    1    1    2    0    0 -0.21904510982E-01 -0.76951349648E-02  0.73993320862E-02  0.24367454089E-01  0.00000000000E+00 0. -1.
     999901    1    3    3    0    0 -0.10465770651E+00  0.39840601343E-01 -0.14953120354E-01  0.88722269181E+00  0.88000000000E+00 0.  1.
        -11    1    4    4    0    0  0.53599921875E-01 -0.34386458613E-02  0.35372472714E-02  0.53828887687E-01  0.51100000000E-03 0. -1.
         11    1    4    4    0    0  0.72962295613E-01 -0.28706820517E-01  0.40165409965E-02  0.78510966418E-01  0.51100000000E-03 0.  1.
</event>
<event>
 8    1  0.1083484E+005  0.1043930E+01  0.7957747E-01            NaN
         13   -1    0    0    0    0  0.00000000000E+00  0.00000000000E+00  0.74505805969E-08  0.10566000000E+00  0.10566000000E+00 0.  1.
     999900   -1    0    0    0    0 -0.00000000000E+00 -0.00000000000E+00 -0.74505805969E-08  0.93827000000E+00  0.93827000000E+00 0. -1.
     999902    2    1    2    0    0 -0.29024758529E-02 -0.17443329431E-01 -0.15458666299E-01  0.10204424614E+01  0.10201721190E+01 0.  0.
     999903    2    3    3    0    0  0.11338885440E+00  0.31751676323E-01 -0.53202630708E-01  0.13062875674E+00  0.19187259317E-01 0.  0.
         14    1    1    2    0    0  0.29024758529E-02  0.17443329431E-01  0.15458666299E-01  0.23487538642E-01  0.00000000000E+00 0.  1.
     999901    1    3    3    0    0 -0.11629133026E+00 -0.49195005754E-01  0.37743964409E-01  0.88981370462E+00  0.88000000000E+00 0.  1.
        -11    1    4    4    0    0  0.24977014934E-01 -0.10430860367E-02 -0.11116264297E-01  0.27363694129E-01  0.51100000000E-03 0. -1.
         11    1    4    4    0    0  0.88411839469E-01  0.32794762360E-01 -0.42086366410E-01  0.10326506261E+00  0.51100000000E-03 0.  1.
</event>
<event>
 8    1  0.1083484E+005  0.1043930E+01  0.7957747E-01            NaN
         13   -1    0    0    0    0  0.00000000000E+00  0.00000000000E+00  0.74505805969E-08  0.10566000000E+00  0.10566000000E+00 0.  1.
     999900   -1    0    0    0    0 -0.00000000000E+00 -0.00000000000E+00 -0.74505805969E-08  0.93827000000E+00  0.93827000000E+00 0.  1.
     999902    2    1    2    0    0 -0.15523535213E-01  0.14877341021E-01 -0.98535808731E-02  0.10202781824E+01  0.10200040005E+01 0.  0.
     999903    2    3    3    0    0 -0.40250336436E-01  0.69747754493E-01  0.10166128657E+00  0.13120127757E+00  0.19847398082E-01 0.  0.
         14    1    1    2    0    0  0.15523535213E-01 -0.14877341021E-01  0.98535808731E-02  0.23651817634E-01  0.00000000000E+00 0.  1.
     999901    1    3    3    0    0  0.24726801223E-01 -0.54870413471E-01 -0.11151486744E+00  0.88907690479E+00  0.88000000000E+00 0.  1.
        -11    1    4    4    0    0 -0.74054233415E-02  0.23462594465E-01  0.43220668262E-01  0.49735509648E-01  0.51100000000E-03 0. -1.
         11    1    4    4    0    0 -0.32844913095E-01  0.46285160028E-01  0.58440618305E-01  0.81465767926E-01  0.51100000000E-03 0.  1.
</event>
<event>
 8    1  0.1083484E+005  0.1043930E+01  0.7957747E-01            NaN
         13   -1    0    0    0    0  0.00000000000E+00  0.00000000000E+00  0.74505805969E-08  0.10566000000E+00  0.10566000000E+00 0. -1.
     999900   -1    0    0    0    0 -0.00000000000E+00 -0.00000000000E+00 -0.74505805969E-08  0.93827000000E+00  0.93827000000E+00 0. -1.
     999902    2    1    2    0    0 -0.62528380153E-02 -0.18609857560E-01  0.12370795421E-01  0.10207252298E+01  0.10204614316E+01 0.  0.
     999903    2    3    3    0    0 -0.10309396187E+00  0.76691713268E-01 -0.21779041249E-02  0.13017918530E+00  0.20782039406E-01 0.  0.
         14    1    1    2    0    0  0.62528380153E-02  0.18609857560E-01 -0.12370795421E-01  0.23204770221E-01  0.00000000000E+00 0.  1.
     999901    1    3    3    0    0  0.96841123855E-01 -0.95301570828E-01  0.14548699546E-01  0.89054604448E+00  0.88000000000E+00 0.  1.
        -11    1    4    4    0    0 -0.46464056860E-01  0.30287559620E-01 -0.10634824438E-01  0.56476592137E-01  0.51100000000E-03 0.  1.
         11    1    4    4    0    0 -0.56629905011E-01  0.46404153648E-01  0.84569203134E-02  0.73702593167E-01  0.51100000000E-03 0. -1.
</event>
<event>
 8    1  0.1083484E+005  0.1043930E+01  0.7957747E-01            NaN
         13   -1    0    0    0    0  0.00000000000E+00  0.00000000000E+00  0.74505805969E-08  0.10566000000E+00  0.10566000000E+00 0. -1.
     999900   -1    0    0    0    0 -0.00000000000E+00 -0.00000000000E+00 -0.74505805969E-08  0.93827000000E+00  0.93827000000E+00 0. -1.
     999902    2    1    2    0    0 -0.21164149461E-01 -0.52556255001E-02  0.80035462653E-02  0.10207007173E+01  0.10204363551E+01 0.  0.
     999903    2    3    3    0    0 -0.49006373725E-01  0.10478220168E+00  0.60114004998E-01  0.13188183093E+00  0.19954680598E-01 0.  0.
         14    1    1    2    0    0  0.21164149461E-01  0.52556255001E-02 -0.80035462653E-02  0.23229282697E-01  0.00000000000E+00 0.  1.
     999901    1    3    3    0    0  0.27842224264E-01 -0.11003782718E+00 -0.52110458733E-01  0.88881888637E+00  0.88000000000E+00 0.  1.
        -11    1    4    4    0    0 -0.24506170117E-01  0.49551402321E-01  0.39861263800E-01  0.68154789403E-01  0.51100000000E-03 0. -1.
         11    1    4    4    0    0 -0.24500203609E-01  0.55230799360E-01  0.20252741198E-01  0.63727041528E-01  0.51100000000E-03 0.  1.
</event>
<event>
 8    1  0.1083484E+005  0.1043930E+01  0.7957747E-01            NaN
         13   -1    0    0    0    0  0.00000000000E+00  0.00000000000E+00  0.74505805969E-08  0.10566000000E+00  0.10566000000E+00 0.  1.
     999900   -1    0    0    0    0 -0.00000000000E+00 -0.00000000000E+00 -0.74505805969E-08  0.93827000000E+00  0.93827000000E+00 0.  1.
     999902    2    1    2    0    0  0.22953602218E-01 -0.19758882705E-02  0.60149411675E-02  0.10201192565E+01  0.10198413337E+01 0.  0.
     999903    2    3    3    0    0 -0.37863219421E-02 -0.12849539373E+00 -0.67875456186E-02  0.13057661419E+00  0.21881018081E-01 0.  0.
         14    1    1    2    0    0 -0.22953602218E-01  0.19758882705E-02 -0.60149411675E-02  0.23810743510E-01  0.00000000000E+00 0. -1.
     999901    1    3    3    0    0  0.26739924161E-01  0.12651950546E+00  0.12802486786E-01  0.88954264230E+00  0.88000000000E+00 0. -1.
        -11    1    4    4    0    0 -0.63149331054E-02 -0.79272554066E-01  0.56988762156E-02  0.79729257612E-01  0.51100000000E-03 0.  1.
         11    1    4    4    0    0  0.25286111633E-02 -0.49222839669E-01 -0.12486421834E-01  0.50847356575E-01  0.51100000000E-03 0. -1.
</event>
<event>
 8    1  0.1083484E+005  0.1043930E+01  0.7957747E-01            NaN
         13   -1    0    0    0    0  0.00000000000E+00  0.00000000000E+00  0.74505805969E-08  0.10566000000E+00  0.10566000000E+00 0.  1.
     999900   -1    0    0    0    0 -0.00000000000E+00 -0.00000000000E+00 -0.74505805969E-08  0.93827000000E+00  0.93827000000E+00 0.  1.
     999902    2    1    2    0    0  0.10124500773E-01  0.21744705734E-01 -0.33806388826E-02  0.10197067372E+01  0.10194189832E+01 0.  0.
     999903    2    3    3    0    0 -0.63603413187E-01 -0.29101829898E-01  0.10588246265E+00  0.12843820252E+00  0.19823352323E-01 0.  0.
         14    1    1    2    0    0 -0.10124500773E-01 -0.21744705734E-01  0.33806388826E-02  0.24223262840E-01  0.00000000000E+00 0. -1.
     999901    1    3    3    0    0  0.73727913959E-01  0.50846535632E-01 -0.10926310153E+00  0.89126853464E+00  0.88000000000E+00 0.  1.
        -11    1    4    4    0    0 -0.66395797363E-02  0.16928462030E-02  0.18056919404E-01  0.19320020877E-01  0.51100000000E-03 0.  1.
         11    1    4    4    0    0 -0.56963833450E-01 -0.30794676101E-01  0.87825543246E-01  0.10911818164E+00  0.51100000000E-03 0. -1.
</event>
<event>
 8    1  0.1083484E+005  0.1043930E+01  0.7957747E-01            NaN
         13   -1    0    0    0    0  0.00000000000E+00  0.00000000000E+00  0.74505805969E-08  0.10566000000E+00  0.10566000000E+00 0. -1.
     999900   -1    0    0    0    0 -0.00000000000E+00 -0.00000000000E+00 -0.74505805969E-08  0.93827000000E+00  0.93827000000E+00 0. -1.
     999902    2    1    2    0    0  0.12671574138E-01  0.16074928986E-01 -0.14098201180E-01  0.10190757969E+01  0.10187726677E+01 0.  0.
     999903    2    3    3    0    0  0.83129146907E-01  0.91620403348E-01 -0.43097752386E-01  0.13255881333E+00  0.20240290436E-01 0.  0.
         14    1    1    2    0    0 -0.12671574138E-01 -0.16074928986E-01  0.14098201180E-01  0.24854203056E-01  0.00000000000E+00 0. -1.
     999901    1    3    3    0    0 -0.70457572769E-01 -0.75545474362E-01  0.28999551206E-01  0.88651698361E+00  0.88000000000E+00 0.  1.
        -11    1    4    4    0    0  0.23910223376E-01  0.40451542578E-01 -0.13615962584E-01  0.48925265834E-01  0.51100000000E-03 0.  1.
         11    1    4    4    0    0  0.59218923531E-01  0.51168860770E-01 -0.29481789802E-01  0.83633547501E-01  0.51100000000E-03 0. -1.
</event>
<event>
 8    1  0.1083484E+005  0.1043930E+01  0.7957747E-01            NaN
         13   -1    0    0    0    0  0.00000000000E+00  0.00000000000E+00  0.74505805969E-08  0.10566000000E+00  0.10566000000E+00 0. -1.
     999900   -1    0    0    0    0 -0.00000000000E+00 -0.00000000000E+00 -0.74505805969E-08  0.93827000000E+00  0.93827000000E+00 0. -1.
     999902    2    1    2    0    0  0.17631900794E-01 -0.87729523033E-02  0.11078514159E-01  0.10213339363E+01  0.10210839473E+01 0.  0.
     999903    2    3    3    0    0 -0.92958496478E-01 -0.89597795948E-01  0.44414249372E-02  0.13071227576E+00  0.19922993535E-01 0.  0.
         14    1    1    2    0    0 -0.17631900794E-01  0.87729523033E-02 -0.11078514159E-01  0.22596063677E-01  0.00000000000E+00 0.  1.
     999901    1    3    3    0    0  0.11059039727E+00  0.80824843645E-01  0.66370892213E-02  0.89062166057E+00  0.88000000000E+00 0.  1.
        -11    1    4    4    0    0 -0.48465912376E-01 -0.33811531237E-01  0.54468838654E-02  0.59347232218E-01  0.51100000000E-03 0. -1.
         11    1    4    4    0    0 -0.44492584102E-01 -0.55786264711E-01 -0.10054589281E-02  0.71365043538E-01  0.51100000000E-03 0.  1.
</event>
<event>
 8    1  0.1083484E+005  0.1043930E+01  0.7957747E-01            NaN
         13   -1    0    0    0    0  0.00000000000E+00  0.00000000000E+00  0.74505805969E-08  0.10566000000E+00  0.10566000000E+00 0.  1.
     999900   -1    0    0    0    0 -0.00000000000E+00 -0.00000000000E+00 -0.74505805969E-08  0.93827000000E+00  0.93827000000E+00 0. -1.
     999902    2    1    2    0    0  0.19791326393E-01 -0.67177339482E-02  0.12123092837E-01  0.10197681721E+01  0.10194818933E+01 0.  0.
     999903    2    3    3    0    0  0.12615399772E+00 -0.18881150148E-01  0.31572083734E-01  0.13306685267E+00  0.20944255447E-01 0.  0.
         14    1    1    2    0    0 -0.19791326393E-01  0.67177339482E-02 -0.12123092837E-01  0.24161827947E-01  0.00000000000E+00 0. -1.
     999901    1    3    3    0    0 -0.10636267133E+00  0.12163416200E-01 -0.19448990897E-01  0.88670131938E+00  0.88000000000E+00 0.  1.
        -11    1    4    4    0    0  0.27156691211E-01 -0.12480797291E-01  0.10212455262E-01  0.31588155091E-01  0.51100000000E-03 0.  1.
         11    1    4    4    0    0  0.98997306512E-01 -0.64003528574E-02  0.21359628472E-01  0.10147869758E+00  0.51100000000E-03 0. -1.
</event>
<event>
 8    1  0.1083484E+005  0.1043930E+01  0.7957747E-01            NaN
         13   -1    0    0    0    0  0.00000000000E+00  0.00000000000E+00  0.74505805969E-08  0.10566000000E+00  0.10566000000E+00 0. -1.
     999900   -1    0    0    0    0 -0.00000000000E+00 -0.00000000000E+00 -0.74505805969E-08  0.93827000000E+00  0.93827000000E+00 0.  1.
     999902    2    1    2    0    0  0.20223621960E-01 -0.12069848633E-01  0.59645328586E-02  0.10196349021E+01  0.10193454183E+01 0.  0.
     999903    2    3    3    0    0  0.81165767223E-02 -0.42603527131E-01 -0.12062025367E+00  0.12997058659E+00  0.21498103201E-01 0.  0.
         14    1    1    2    0    0 -0.20223621960E-01  0.12069848633E-01 -0.59645328586E-02  0.24295097930E-01  0.00000000000E+00 0. -1.
     999901    1    3    3    0    0  0.12107045238E-01  0.30533678498E-01  0.12658478652E+00  0.88966431548E+00  0.88000000000E+00 0. -1.
        -11    1    4    4    0    0  0.11674085797E-01 -0.20169356958E-01 -0.40901977730E-01  0.47077809449E-01  0.51100000000E-03 0.  1.
         11    1    4    4    0    0 -0.35575090752E-02 -0.22434170173E-01 -0.79718275936E-01  0.82892777136E-01  0.51100000000E-03 0. -1.
</event>
<event>
 8    1  0.1083484E+005  0.1043930E+01  0.7957747E-01            NaN
         13   -1    0    0    0    0  0.00000000000E+00  0.00000000000E+00  0.74505805969E-08  0.10566000000E+00  0.10566000000E+00 0. -1.
     999900   -1    0    0    0    0 -0.00000000000E+00 -0.00000000000E+00 -0.74505805969E-08  0.93827000000E+00  0.93827000000E+00 0.  1.
     999902    2    1    2    0    0 -0.10295858377E-01 -0.20845014493E-01 -0.36911192954E-02  0.10203897432E+01  0.10201181717E+01 0.  0.
     999903    2    3    3    0    0  0.11242103301E+00  0.39154242047E-01  0.45175757304E-01  0.12851121007E+00  0.17399388812E-01 0.  0.
         14    1    1    2    0    0  0.10295858377E-01  0.20845014493E-01  0.36911192954E-02  0.23540256808E-01  0.00000000000E+00 0. -1.
     999901    1    3    3    0    0 -0.12271689139E+00 -0.59999256540E-01 -0.48866876599E-01  0.89187853312E+00  0.88000000000E+00 0.  1.
        -11    1    4    4    0    0  0.99199336467E-01  0.33703681880E-01  0.45437928061E-01  0.11419856810E+00  0.51100000000E-03 0.  1.
         11    1    4    4    0    0  0.13221696548E-01  0.54505601666E-02 -0.26217075699E-03  0.14312641973E-01  0.51100000000E-03 0. -1.
</event>
<event>
 8    1  0.1083484E+005  0.1043930E+01  0.7957747E-01            NaN
         13   -1    0    0    0    0  0.00000000000E+00  0.00000000000E+00  0.74505805969E-08  0.10566000000E+00  0.10566000000E+00 0.  1.
     999900   -1    0    0    0    0 -0.00000000000E+00 -0.00000000000E+00 -0.74505805969E-08  0.93827000000E+00  0.93827000000E+00 0. -1.
     999902    2    1    2    0    0 -0.17331109297E-02  0.22787306848E-01 -0.65489655851E-02  0.10201570326E+01  0.10198800014E+01 0.  0.
     999903    2    3    3    0    0 -0.10823981111E+00 -0.68040948419E-01 -0.17993546430E-02  0.12908127383E+00  0.17700570737E-01 0.  0.
         14    1    1    2    0    0  0.17331109297E-02 -0.22787306848E-01  0.65489655851E-02  0.23772967360E-01  0.00000000000E+00 0.  1.
     999901    1    3    3    0    0  0.10650670018E+00  0.90828255267E-01 -0.47496109421E-02  0.89107575881E+00  0.88000000000E+00 0. -1.
        -11    1    4    4    0    0 -0.58822091922E-01 -0.27778405357E-01  0.32651773909E-02  0.65135250108E-01  0.51100000000E-03 0.  1.
         11    1    4    4    0    0 -0.49417719190E-01 -0.40262543063E-01 -0.50645320339E-02  0.63946023720E-01  0.51100000000E-03 0. -1.
</event>
<event>
 8    1  0.1083484E+005  0.1043930E+01  0.7957747E-01            NaN
         13   -1    0    0    0    0  0.00000000000E+00  0.00000000000E+00  0.74505805969E-08  0.10566000000E+00  0.10566000000E+00 0. -1.
     999900   -1    0    0    0    0 -0.00000000000E+00 -0.00000000000E+00 -0.74505805969E-08  0.93827000000E+00  0.93827000000E+00 0.  1.
     999902    2    1    2    0    0 -0.72438386070E-03 -0.16653959843E-01  0.86676601568E-02  0.10251415077E+01  0.10249693183E+01 0.  0.
     999903    2    3    3    0    0 -0.59857747370E-01 -0.10375732507E+00 -0.61505807693E-01  0.13609254026E+00  0.19740382664E-01 0.  0.
         14    1    1    2    0    0  0.72438386070E-03  0.16653959843E-01 -0.86676601568E-02  0.18788492303E-01  0.00000000000E+00 0.  1.
     999901    1    3    3    0    0  0.59133363509E-01  0.87103365229E-01  0.70173467849E-01  0.88904896744E+00  0.88000000000E+00 0.  1.
        -11    1    4    4    0    0 -0.13081316109E-01 -0.12195500637E-01 -0.41854588535E-02  0.18374717787E-01  0.51100000000E-03 0.  1.
         11    1    4    4    0    0 -0.46776431261E-01 -0.91561824435E-01 -0.57320348839E-01  0.11771782247E+00  0.51100000000E-03 0. -1.
</event>
<event>
 8    1  0.1083484E+005  0.1043930E+01  0.7957747E-01            NaN
         13   -1    0    0    0    0  0.00000000000E+00  0.00000000000E+00  0.74505805969E-08  0.10566000000E+00  0.10566000000E+00 0. -1.
     999900   -1    0    0    0    0 -0.00000000000E+00 -0.00000000000E+00 -0.74505805969E-08  0.93827000000E+00  0.93827000000E+00 0. -1.
     999902    2    1    2    0    0  0.23331526355E-02  0.28451102641E-01  0.11732886113E-01  0.10130662760E+01  0.10125960251E+01 0.  0.
     999903    2    3    3    0    0  0.52036171388E-01 -0.16585244995E-01  0.11039409844E+00  0.12501633512E+00  0.21433468945E-01 0.  0.
         14    1    1    2    0    0 -0.23331526355E-02 -0.28451102641E-01 -0.11732886113E-01  0.30863724002E-01  0.00000000000E+00 0.  1.
     999901    1    3    3    0    0 -0.49703018752E-01  0.45036347636E-01 -0.98661212329E-01  0.88804994088E+00  0.88000000000E+00 0. -1.
        -11    1    4    4    0    0  0.41428056997E-01 -0.54668884860E-02  0.66851882104E-01  0.78839114899E-01  0.51100000000E-03 0. -1.
         11    1    4    4    0    0  0.10608114390E-01 -0.11118356509E-01  0.43542216338E-01  0.46177220218E-01  0.51100000000E-03 0.  1.
</event>
<event>
 8    1  0.1083484E+005  0.1043930E+01  0.7957747E-01            NaN
         13   -1    0    0    0    0  0.00000000000E+00  0.00000000000E+00  0.74505805969E-08  0.10566000000E+00  0.10566000000E+00 0. -1.
     999900   -1    0    0    0    0 -0.00000000000E+00 -0.00000000000E+00 -0.74505805969E-08  0.93827000000E+00  0.93827000000E+00 0.  1.
     999902    2    1    2    0    0  0.56016074615E-02 -0.21494039008E-01  0.44953633557E-02  0.10212676963E+01  0.10210162229E+01 0.  0.
     999903    2    3    3    0    0  0.90610890881E-02 -0.11059597272E-01  0.13004992248E+00  0.13228806044E+00  0.19563501027E-01 0.  0.
         14    1    1    2    0    0 -0.56016074615E-02  0.21494039008E-01 -0.44953633557E-02  0.22662303738E-01  0.00000000000E+00 0.  1.
     999901    1    3    3    0    0 -0.34594816266E-02 -0.10434441736E-01 -0.12555455912E+00  0.88897963582E+00  0.88000000000E+00 0.  1.
        -11    1    4    4    0    0 -0.32659201092E-02 -0.29145649676E-02  0.79464469634E-01  0.79586581647E-01  0.51100000000E-03 0.  1.
         11    1    4    4    0    0  0.12327009197E-01 -0.81450323042E-02  0.50585452841E-01  0.52701478795E-01  0.51100000000E-03 0. -1.
</event>
<event>
 8    1  0.1083484E+005  0.1043930E+01  0.7957747E-01            NaN
         13   -1    0    0    0    0  0.00000000000E+00  0.00000000000E+00  0.74505805969E-08  0.10566000000E+00  0.10566000000E+00 0.  1.
     999900   -1    0    0    0    0 -0.00000000000E+00 -0.00000000000E+00 -0.74505805969E-08  0.93827000000E+00  0.93827000000E+00 0.  1.
     999902    2    1    2    0    0  0.20576817289E-01 -0.12010373923E-01 -0.41335681552E-02  0.10197485841E+01  0.10194618354E+01 0.  0.
     999903    2    3    3    0    0  0.59159759308E-01  0.11287801285E+00 -0.19024305380E-01  0.12996912451E+00  0.16991945920E-01 0.  0.
         14    1    1    2    0    0 -0.20576817289E-01  0.12010373923E-01  0.41335681552E-02  0.24181415947E-01  0.00000000000E+00 0.  1.
     999901    1    3    3    0    0 -0.38582942020E-01 -0.12488838677E+00  0.14890737225E-01  0.88977945954E+00  0.88000000000E+00 0.  1.
        -11    1    4    4    0    0  0.38428931165E-01  0.59866567182E-01 -0.16279063511E-01  0.72979844111E-01  0.51100000000E-03 0.  1.
         11    1    4    4    0    0  0.20730828143E-01  0.53011445664E-01 -0.27452418688E-02  0.56989280402E-01  0.51100000000E-03 0. -1.
</event>
<event>
 8    1  0.1083484E+005  0.1043930E+01  0.7957747E-01            NaN
         13   -1    0    0    0    0  0.00000000000E+00  0.00000000000E+00  0.74505805969E-08  0.10566000000E+00  0.10566000000E+00 0. -1.
     999900   -1    0    0    0    0 -0.00000000000E+00 -0.00000000000E+00 -0.74505805969E-08  0.93827000000E+00  0.93827000000E+00 0.  1.
     999902    2    1    2    0    0  0.13994948741E-01  0.12201394832E-01 -0.14744309037E-01  0.10202207766E+01  0.10199452464E+01 0.  0.
     999903    2    3    3    0    0 -0.88895318922E-01  0.86227001320E-01  0.33338653808E-01  0.12983986433E+00  0.20234896772E-01 0.  0.
         14    1    1    2    0    0 -0.13994948741E-01 -0.12201394832E-01  0.14744309037E-01  0.23709223418E-01  0.00000000000E+00 0. -1.
     999901    1    3    3    0    0  0.10289026766E+00 -0.74025606488E-01 -0.48082962845E-01  0.89038091226E+00  0.88000000000E+00 0.  1.
        -11    1    4    4    0    0 -0.49325758492E-01  0.55890588501E-01  0.11593754320E-01  0.75441796069E-01  0.51100000000E-03 0. -1.
         11    1    4    4    0    0 -0.39569560429E-01  0.30336412819E-01  0.21744899488E-01  0.54398068256E-01  0.51100000000E-03 0.  1.
</event>
<event>
 8    1  0.1083484E+005  0.1043930E+01  0.7957747E-01            NaN
         13   -1    0    0    0    0  0.00000000000E+00  0.00000000000E+00  0.74505805969E-08  0.10566000000E+00  0.10566000000E+00 0. -1.
     999900   -1    0    0    0    0 -0.00000000000E+00 -0.00000000000E+00 -0.74505805969E-08  0.93827000000E+00  0.93827000000E+00 0. -1.
     999902    2    1    2    0    0  0.45496374422E-02  0.18272986517E-01 -0.15880096857E-01  0.10192971213E+01  0.10189994322E+01 0.  0.
     999903    2    3    3    0    0 -0.11806829303E+00  0.48868992516E-01 -0.18052286384E-02  0.13015743915E+00  0.24686025700E-01 0.  0.
         14    1    1    2    0    0 -0.45496374422E-02 -0.18272986517E-01  0.15880096857E-01  0.24632878705E-01  0.00000000000E+00 0. -1.
     999901    1    3    3    0    0  0.12261793048E+00 -0.30596005998E-01 -0.14074868218E-01  0.88913968215E+00  0.88000000000E+00 0.  1.
        -11    1    4    4    0    0 -0.55655040434E-01  0.98787747506E-02  0.47376048891E-03  0.56529278134E-01  0.51100000000E-03 0.  1.
         11    1    4    4    0    0 -0.62413252600E-01  0.38990217765E-01 -0.22789891273E-02  0.73628161012E-01  0.51100000000E-03 0. -1.
</event>
<event>
 8    1  0.1083484E+005  0.1043930E+01  0.7957747E-01            NaN
         13   -1    0    0    0    0  0.00000000000E+00  0.00000000000E+00  0.74505805969E-08  0.10566000000E+00  0.10566000000E+00 0.  1.
     999900   -1    0    0    0    0 -0.00000000000E+00 -0.00000000000E+00 -0.74505805969E-08  0.93827000000E+00  0.93827000000E+00 0. -1.
     999902    2    1    2    0    0  0.28741974823E-02  0.18063039740E-01 -0.19476497759E-01  0.10172116845E+01  0.10168607293E+01 0.  0.
     999903    2    3    3    0    0  0.95857365773E-01 -0.79940485587E-01 -0.94076539196E-02  0.12684550023E+00  0.20546560939E-01 0.  0.
         14    1    1    2    0    0 -0.28741974823E-02 -0.18063039740E-01  0.19476497759E-01  0.26718315456E-01  0.00000000000E+00 0.  1.
     999901    1    3    3    0    0 -0.92983168291E-01  0.98003525327E-01 -0.10068843840E-01  0.89036618432E+00  0.88000000000E+00 0. -1.
        -11    1    4    4    0    0  0.78456157293E-01 -0.61603475627E-01  0.32260232029E-03  0.99753305809E-01  0.51100000000E-03 0.  1.
         11    1    4    4    0    0  0.17401208480E-01 -0.18337009960E-01 -0.97302562399E-02  0.27092194417E-01  0.51100000000E-03 0. -1.
</event>
<event>
 8    1  0.1083484E+005  0.1043930E+01  0.7957747E-01            NaN
         13   -1    0    0    0    0  0.00000000000E+00  0.00000000000E+00  0.74505805969E-08  0.10566000000E+00  0.10566000000E+00 0.  1.
     999900   -1    0    0    0    0 -0.00000000000E+00 -0.00000000000E+00 -0.74505805969E-08  0.93827000000E+00  0.93827000000E+00 0.  1.
     999902    2    1    2    0    0 -0.12652349567E-02 -0.11447337174E-01  0.15806109795E-01  0.10243730203E+01  0.10241863157E+01 0.  0.
     999903    2    3    3    0    0  0.11435520798E+00 -0.48968760645E-01 -0.45642857230E-01  0.13389454241E+00  0.19220430823E-01 0.  0.
         14    1    1    2    0    0  0.12652349567E-02  0.11447337174E-01 -0.15806109795E-01  0.19556979693E-01  0.00000000000E+00 0. -1.
     999901    1    3    3    0    0 -0.11562044293E+00  0.37521423471E-01  0.61448967025E-01  0.89047847789E+00  0.88000000000E+00 0. -1.
        -11    1    4    4    0    0  0.34262445111E-01 -0.14463640469E-01 -0.23221917960E-01  0.43847812207E-01  0.51100000000E-03 0. -1.
         11    1    4    4    0    0  0.80092762867E-01 -0.34505120176E-01 -0.22420939271E-01  0.90046730206E-01  0.51100000000E-03 0.  1.
</event>
<event>
 8    1  0.1083484E+005  0.1043930E+01  0.7957747E-01            NaN
         13   -1    0    0    0    0  0.00000000000E+00  0.00000000000E+00  0.74505805969E-08  0.10566000000E+00  0.10566000000E+00 0. -1.
     999900   -1    0    0    0    0 -0.00000000000E+00 -0.00000000000E+00 -0.74505805969E-08  0.93827000000E+00  0.93827000000E+00 0. -1.
     999902    2    1    2    0    0 -0.36860579528E-02 -0.22758231548E-01  0.18907948287E-02  0.10207977880E+01  0.10205356558E+01 0.  0.
     999903    2    3    3    0    0  0.51966416520E-01  0.10392265086E+00 -0.51001149689E-01  0.12841737491E+00  0.19735224911E-01 0.  0.
         14    1    1    2    0    0  0.36860579528E-02  0.22758231548E-01 -0.18907948287E-02  0.23132211989E-01  0.00000000000E+00 0. -1.
     999901    1    3    3    0    0 -0.55652474473E-01 -0.12668088241E+00  0.52891944518E-01  0.89238041310E+00  0.88000000000E+00 0. -1.
        -11    1    4    4    0    0  0.53703202087E-01  0.99870512951E-01 -0.48594932977E-01  0.12336888548E+00  0.51100000000E-03 0.  1.
         11    1    4    4    0    0 -0.17367855664E-02  0.40521379109E-02 -0.24062167124E-02  0.50484894394E-02  0.51100000000E-03 0. -1.
</event>
<event>
 8    1  0.1083484E+005  0.1043930E+01  0.7957747E-01            NaN
         13   -1    0    0    0    0  0.00000000000E+00  0.00000000000E+00  0.74505805969E-08  0.10566000000E+00  0.10566000000E+00 0.  1.
     999900   -1    0    0    0    0 -0.00000000000E+00 -0.00000000000E+00 -0.74505805969E-08  0.93827000000E+00  0.93827000000E+00 0.  1.
     999902    2    1    2    0    0  0.21647457030E-01  0.49616446817E-02  0.23837847307E-02  0.10215936453E+01  0.10213494325E+01 0.  0.
     999903    2    3    3    0    0  0.56071940199E-01  0.82966330999E-01  0.85982819747E-01  0.13352913477E+00  0.20236352993E-01 0.  0.
         14    1    1    2    0    0 -0.21647457030E-01 -0.49616446817E-02 -0.23837847307E-02  0.22336354749E-01  0.00000000000E+00 0. -1.
     999901    1    3    3    0    0 -0.34424483169E-01 -0.78004686317E-01 -0.83599035017E-01  0.88806451049E+00  0.88000000000E+00 0. -1.
        -11    1    4    4    0    0  0.26292736412E-01  0.24358271748E-01  0.37242092120E-01  0.51690114500E-01  0.51100000000E-03 0. -1.
         11    1    4    4    0    0  0.29779203787E-01  0.58608059251E-01  0.48740727627E-01  0.81839020265E-01  0.51100000000E-03 0.  1.
</event>
<event>
 8    1  0.1222980E+005  0.1043930E+01  0.7957747E-01            NaN
         13   -1    0    0    0    0  0.00000000000E+00  0.00000000000E+00  0.74505805969E-08  0.10566000000E+00  0.10566000000E+00 0. -1.
     999900   -1    0    0    0    0 -0.00000000000E+00 -0.00000000000E+00 -0.74505805969E-08  0.93827000000E+00  0.93827000000E+00 0. -1.
     999902    2    1    2    0    0 -0.19600617375E-01  0.81814789461E-02  0.12261442387E-01  0.10194052417E+01  0.10191101918E+01 0.  0.
     999903    2    3    3    0    0 -0.40007571550E-02  0.82103922849E-01  0.10115538936E+00  0.13170595865E+00  0.18894087486E-01 0.  0.
         14    1    1    2    0    0  0.19600617375E-01 -0.81814789461E-02 -0.12261442387E-01  0.24524758279E-01  0.00000000000E+00 0.  1.
     999901    1    3    3    0    0 -0.15599860220E-01 -0.73922443903E-01 -0.88893946978E-01  0.88769928307E+00  0.88000000000E+00 0. -1.
        -11    1    4    4    0    0 -0.10746300353E-01  0.33643418002E-01  0.39380118437E-01  0.52900069898E-01  0.51100000000E-03 0.  1.
         11    1    4    4    0    0  0.67455431985E-02  0.48460504848E-01  0.61775270928E-01  0.78805888755E-01  0.51100000000E-03 0. -1.
</event>
<event>
 8    1  0.1083484E+005  0.1043930E+01  0.7957747E-01            NaN
         13   -1    0    0    0    0  0.00000000000E+00  0.00000000000E+00  0.74505805969E-08  0.10566000000E+00  0.10566000000E+00 0. -1.
     999900   -1    0    0    0    0 -0.00000000000E+00 -0.00000000000E+00 -0.74505805969E-08  0.93827000000E+00  0.93827000000E+00 0. -1.
     999902    2    1    2    0    0 -0.54265454923E-03 -0.89394497624E-02  0.22028571050E-01  0.10201504672E+01  0.10198732812E+01 0.  0.
     999903    2    3    3    0    0  0.19594827984E-01  0.11647991666E+00  0.52774584079E-01  0.13049837063E+00  0.17121324196E-01 0.  0.
         14    1    1    2    0    0  0.54265454923E-03  0.89394497624E-02 -0.22028571050E-01  0.23779532765E-01  0.00000000000E+00 0. -1.
     999901    1    3    3    0    0 -0.20137482533E-01 -0.12541936643E+00 -0.30746013028E-01  0.88965209661E+00  0.88000000000E+00 0. -1.
        -11    1    4    4    0    0  0.16944050238E-01  0.75164079302E-01  0.41821941119E-01  0.87670265973E-01  0.51100000000E-03 0. -1.
         11    1    4    4    0    0  0.26507777457E-02  0.41315837363E-01  0.10952642959E-01  0.42828104656E-01  0.51100000000E-03 0.  1.
</event>
<event>
 8    1  0.1083484E+005  0.1043930E+01  0.7957747E-01            NaN
         13   -1    0    0    0    0  0.00000000000E+00  0.00000000000E+00  0.74505805969E-08  0.10566000000E+00  0.10566000000E+00 0. -1.
     999900   -1    0    0    0    0 -0.00000000000E+00 -0.00000000000E+00 -0.74505805969E-08  0.93827000000E+00  0.93827000000E+00 0. -1.
     999902    2    1    2    0    0  0.15448909888E-01  0.82793068077E-02 -0.82381960136E-02  0.10245629245E+01  0.10243798625E+01 0.  0.
     999903    2    3    3    0    0  0.46965343324E-01  0.70993842123E-01  0.10265258526E+00  0.13483085033E+00  0.19898136801E-01 0.  0.
         14    1    1    2    0    0 -0.15448909888E-01 -0.82793068077E-02  0.82381960136E-02  0.19367075451E-01  0.00000000000E+00 0. -1.
     999901    1    3    3    0    0 -0.31516433436E-01 -0.62714535315E-01 -0.11089078127E+00  0.88973207422E+00  0.88000000000E+00 0. -1.
        -11    1    4    4    0    0  0.77654795726E-02  0.52685907439E-02  0.20522528419E-01  0.22572018411E-01  0.51100000000E-03 0. -1.
         11    1    4    4    0    0  0.39199863752E-01  0.65725251379E-01  0.82130056842E-01  0.11225883192E+00  0.51100000000E-03 0.  1.
</event>
<event>
 8    1  0.1083484E+005  0.1043930E+01  0.7957747E-01            NaN
         13   -1    0    0    0    0  0.00000000000E+00  0.00000000000E+00  0.74505805969E-08  0.10566000000E+00  0.10566000000E+00 0.  1.
     999900   -1    0    0    0    0 -0.00000000000E+00 -0.00000000000E+00 -0.74505805969E-08  0.93827000000E+00  0.93827000000E+00 0. -1.
     999902    2    1    2    0    0  0.12696345819E-01  0.12979186091E-01 -0.13978833657E-01  0.10210157193E+01  0.10207585585E+01 0.  0.
     999903    2    3    3    0    0  0.49128108378E-01  0.10273730525E+00  0.64231771938E-01  0.13225214440E+00  0.19909401034E-01 0.  0.
         14    1    1    2    0    0 -0.12696345819E-01 -0.12979186091E-01  0.13978833657E-01  0.22914280681E-01  0.00000000000E+00 0.  1.
     999901    1    3    3    0    0 -0.36431762559E-01 -0.89758119156E-01 -0.78210605595E-01  0.88876357492E+00  0.88000000000E+00 0. -1.
        -11    1    4    4    0    0 -0.21982341031E-03  0.13996503180E-01  0.64320635431E-02  0.15413727194E-01  0.51100000000E-03 0.  1.
         11    1    4    4    0    0  0.49347931788E-01  0.88740802067E-01  0.57799708395E-01  0.11683841720E+00  0.51100000000E-03 0. -1.
</event>
<event>
 8    1  0.1083484E+005  0.1043930E+01  0.7957747E-01            NaN
         13   -1    0    0    0    0  0.00000000000E+00  0.00000000000E+00  0.74505805969E-08  0.10566000000E+00  0.10566000000E+00 0. -1.
     999900   -1    0    0    0    0 -0.00000000000E+00 -0.00000000000E+00 -0.74505805969E-08  0.93827000000E+00  0.93827000000E+00 0. -1.
     999902    2    1    2    0    0 -0.21269094485E-01  0.94768377430E-02 -0.40160845123E-02  0.10203013359E+01  0.10200276968E+01 0.  0.
     999903    2    3    3    0    0  0.74624756773E-01 -0.10177918013E+00 -0.16892196196E-02  0.12812481380E+00  0.22028586391E-01 0.  0.
         14    1    1    2    0    0  0.21269094485E-01 -0.94768377430E-02  0.40160845123E-02  0.23628664131E-01  0.00000000000E+00 0.  1.
     999901    1    3    3    0    0 -0.95893851258E-01  0.11125601787E+00 -0.23268648927E-02  0.89217652206E+00  0.88000000000E+00 0. -1.
        -11    1    4    4    0    0  0.36758013925E-01 -0.52466858512E-01  0.10058450534E-01  0.64848719170E-01  0.51100000000E-03 0.  1.
         11    1    4    4    0    0  0.37866742848E-01 -0.49312321617E-01 -0.11747670154E-01  0.63276094635E-01  0.51100000000E-03 0. -1.
</event>
<event>
 8    1  0.1083484E+005  0.1043930E+01  0.7957747E-01            NaN
         13   -1    0    0    0    0  0.00000000000E+00  0.00000000000E+00  0.74505805969E-08  0.10566000000E+00  0.10566000000E+00 0. -1.
     999900   -1    0    0    0    0 -0.00000000000E+00 -0.00000000000E+00 -0.74505805969E-08  0.93827000000E+00  0.93827000000E+00 0.  1.
     999902    2    1    2    0    0 -0.13859394533E-01  0.13550692337E-01 -0.15987490304E-01  0.10188042378E+01  0.10184943648E+01 0.  0.
     999903    2    3    3    0    0 -0.11333964005E-01  0.19121747671E-01  0.12413564560E+00  0.12769711312E+00  0.20069733838E-01 0.  0.
         14    1    1    2    0    0  0.13859394533E-01 -0.13550692337E-01  0.15987490304E-01  0.25125762194E-01  0.00000000000E+00 0. -1.
     999901    1    3    3    0    0 -0.25254305276E-02 -0.55710553339E-02 -0.14012313590E+00  0.89110712469E+00  0.88000000000E+00 0.  1.
        -11    1    4    4    0    0 -0.89876269438E-02  0.86777132672E-03  0.68494763844E-01  0.69089248514E-01  0.51100000000E-03 0.  1.
         11    1    4    4    0    0 -0.23463370615E-02  0.18253976344E-01  0.55640881754E-01  0.58607864603E-01  0.51100000000E-03 0. -1.
</event>
<event>
 8    1  0.1083484E+005  0.1043930E+01  0.7957747E-01            NaN
         13   -1    0    0    0    0  0.00000000000E+00  0.00000000000E+00  0.74505805969E-08  0.10566000000E+00  0.10566000000E+00 0. -1.
     999900   -1    0    0    0    0 -0.00000000000E+00 -0.00000000000E+00 -0.74505805969E-08  0.93827000000E+00  0.93827000000E+00 0. -1.
     999902    2    1    2    0    0 -0.19729454635E-01 -0.16791392208E-02  0.13142945507E-01  0.10201643124E+01  0.10198874528E+01 0.  0.
     999903    2    3    3    0    0  0.72998731124E-02 -0.12766812724E+00  0.18104259668E-01  0.13076652500E+00  0.20486116801E-01 0.  0.
         14    1    1    2    0    0  0.19729454635E-01  0.16791392208E-02 -0.13142945507E-01  0.23765687563E-01  0.00000000000E+00 0.  1.
     999901    1    3    3    0    0 -0.27029327748E-01  0.12598898802E+00 -0.49613141609E-02  0.88939778744E+00  0.88000000000E+00 0. -1.
        -11    1    4    4    0    0  0.44014826255E-04 -0.48994555262E-01  0.16633832451E-01  0.51743732815E-01  0.51100000000E-03 0.  1.
         11    1    4    4    0    0  0.72558582862E-02 -0.78673571979E-01  0.14704272172E-02  0.79022792184E-01  0.51100000000E-03 0. -1.
</event>
<event>
 8    1  0.1083484E+005  0.1043930E+01  0.7957747E-01            NaN
         13   -1    0    0    0    0  0.00000000000E+00  0.00000000000E+00  0.74505805969E-08  0.10566000000E+00  0.10566000000E+00 0.  1.
     999900   -1    0    0    0    0 -0.00000000000E+00 -0.00000000000E+00 -0.74505805969E-08  0.93827000000E+00  0.93827000000E+00 0. -1.
     999902    2    1    2    0    0 -0.25446126839E-01  0.15471783875E-01 -0.24805680976E-03  0.10141484117E+01  0.10137110328E+01 0.  0.
     999903    2    3    3    0    0  0.63019116651E-01  0.35865549791E-01 -0.98726745519E-01  0.12401355840E+00  0.19355765570E-01 0.  0.
         14    1    1    2    0    0  0.25446126839E-01 -0.15471783875E-01  0.24805680976E-03  0.29781588264E-01  0.00000000000E+00 0. -1.
     999901    1    3    3    0    0 -0.88465243490E-01 -0.20393765917E-01  0.98478688710E-01  0.89013485334E+00  0.88000000000E+00 0.  1.
        -11    1    4    4    0    0  0.25573356198E-01  0.14167858992E-01 -0.56116261850E-01  0.63277331966E-01  0.51100000000E-03 0.  1.
         11    1    4    4    0    0  0.37445760453E-01  0.21697690799E-01 -0.42610483669E-01  0.60736226434E-01  0.51100000000E-03 0. -1.
</event>
<event>
 8    1  0.1083484E+005  0.1043930E+01  0.7957747E-01            NaN
         13   -1    0    0    0    0  0.00000000000E+00  0.00000000000E+00  0.74505805969E-08  0.10566000000E+00  0.10566000000E+00 0.  1.
     999900   -1    0    0    0    0 -0.00000000000E+00 -0.00000000000E+00 -0.74505805969E-08  0.93827000000E+00  0.93827000000E+00 0.  1.
     999902    2    1    2    0    0  0.54788181946E-02  0.52020399061E-02 -0.21886426657E-01  0.10207762889E+01  0.10205136636E+01 0.  0.
     999903    2    3    3    0    0  0.12594777067E+00 -0.21068835062E-01  0.21699177762E-01  0.13111195199E+00  0.20316320757E-01 0.  0.
         14    1    1    2    0    0 -0.54788181946E-02 -0.52020399061E-02  0.21886426657E-01  0.23153711146E-01  0.00000000000E+00 0.  1.
     999901    1    3    3    0    0 -0.12046895248E+00  0.26270874968E-01 -0.43585604419E-01  0.88966433687E+00  0.88000000000E+00 0.  1.
        -11    1    4    4    0    0  0.33468449077E-01 -0.12152690647E-02  0.13695275839E-01  0.36186125295E-01  0.51100000000E-03 0. -1.
         11    1    4    4    0    0  0.92479321598E-01 -0.19853565997E-01  0.80039019227E-02  0.94925826691E-01  0.51100000000E-03 0.  1.
</event>
<event>
 8    1  0.1233607E+005  0.1043930E+01  0.7957747E-01            NaN
         13   -1    0    0    0    0  0.00000000000E+00  0.00000000000E+00  0.74505805969E-08  0.10566000000E+00  0.10566000000E+00 0.  1.
     999900   -1    0    0    0    0 -0.00000000000E+00 -0.00000000000E+00 -0.74505805969E-08  0.93827000000E+00  0.93827000000E+00 0. -1.
     999902    2    1    2    0    0  0.13202726056E-01  0.18065383956E-01  0.74861405022E-03  0.10215418224E+01  0.10212964626E+01 0.  0.
     999903    2    3    3    0    0  0.66469367253E-01 -0.98421647716E-01  0.51519238166E-01  0.13082064276E+00  0.18836431397E-01 0.  0.
         14    1    1    2    0    0 -0.13202726056E-01 -0.18065383956E-01 -0.74861405022E-03  0.22388177590E-01  0.00000000000E+00 0.  1.
     999901    1    3    3    0    0 -0.53266641196E-01  0.11648703167E+00 -0.50770624116E-01  0.89072117965E+00  0.88000000000E+00 0.  1.
        -11    1    4    4    0    0  0.34352354084E-01 -0.63916970931E-01  0.37244308948E-01  0.81565084896E-01  0.51100000000E-03 0.  1.
         11    1    4    4    0    0  0.32117013168E-01 -0.34504676785E-01  0.14274929218E-01  0.49255557860E-01  0.51100000000E-03 0. -1.
</event>
<event>
 8    1  0.1083484E+005  0.1043930E+01  0.7957747E-01            NaN
         13   -1    0    0    0    0  0.00000000000E+00  0.00000000000E+00  0.74505805969E-08  0.10566000000E+00  0.10566000000E+00 0. -1.
     999900   -1    0    0    0    0 -0.00000000000E+00 -0.00000000000E+00 -0.74505805969E-08  0.93827000000E+00  0.93827000000E+00 0. -1.
     999902    2    1    2    0    0  0.24184661625E-02  0.19815976847E-01 -0.10080940317E-01  0.10215660273E+01  0.10213212036E+01 0.  0.
     999903    2    3    3    0    0 -0.85102591695E-01  0.92696700776E-01  0.37768516048E-01  0.13293724882E+00  0.20266274204E-01 0.  0.
         14    1    1    2    0    0 -0.24184661625E-02 -0.19815976847E-01  0.10080940317E-01  0.22363972693E-01  0.00000000000E+00 0. -1.
     999901    1    3    3    0    0  0.87521057857E-01 -0.72880723929E-01 -0.47849456365E-01  0.88862877849E+00  0.88000000000E+00 0.  1.
        -11    1    4    4    0    0 -0.10906701096E-01  0.20021925465E-01  0.12665309721E-01  0.26086487296E-01  0.51100000000E-03 0. -1.
         11    1    4    4    0    0 -0.74195890599E-01  0.72674775310E-01  0.25103206327E-01  0.10685076152E+00  0.51100000000E-03 0.  1.
</event>
<event>
 8    1  0.1083484E+005  0.1043930E+01  0.7957747E-01            NaN
         13   -1    0    0    0    0  0.00000000000E+00  0.00000000000E+00  0.74505805969E-08  0.10566000000E+00  0.10566000000E+00 0. -1.
     999900   -1    0    0    0    0 -0.00000000000E+00 -0.00000000000E+00 -0.74505805969E-08  0.93827000000E+00  0.93827000000E+00 0.  1.
     999902    2    1    2    0    0  0.96519118474E-02 -0.15644637098E-01  0.14828069370E-01  0.10203125125E+01  0.10200391353E+01 0.  0.
     999903    2    3    3    0    0  0.19935468666E-01  0.80184704236E-01 -0.95850356493E-01  0.12815853024E+00  0.20256068932E-01 0.  0.
         14    1    1    2    0    0 -0.96519118474E-02  0.15644637098E-01 -0.14828069370E-01  0.23617487451E-01  0.00000000000E+00 0. -1.
     999901    1    3    3    0    0 -0.10283556818E-01 -0.95829341335E-01  0.11067842586E+00  0.89215398231E+00  0.88000000000E+00 0. -1.
        -11    1    4    4    0    0  0.96982237778E-02  0.33593643853E-01 -0.55889272078E-01  0.65927689981E-01  0.51100000000E-03 0. -1.
         11    1    4    4    0    0  0.10237244888E-01  0.46591060383E-01 -0.39961084415E-01  0.62230840257E-01  0.51100000000E-03 0.  1.
</event>
<event>
 8    1  0.1083484E+005  0.1043930E+01  0.7957747E-01            NaN
         13   -1    0    0    0    0  0.00000000000E+00  0.00000000000E+00  0.74505805969E-08  0.10566000000E+00  0.10566000000E+00 0.  1.
     999900   -1    0    0    0    0 -0.00000000000E+00 -0.00000000000E+00 -0.74505805969E-08  0.93827000000E+00  0.93827000000E+00 0.  1.
     999902    2    1    2    0    0 -0.10231719755E-01  0.15161484896E-01 -0.15392726914E-01  0.10200240435E+01  0.10197438672E+01 0.  0.
     999903    2    3    3    0    0 -0.52627445363E-01 -0.10560712620E+00 -0.50737491100E-01  0.13006241101E+00  0.20479859542E-01 0.  0.
         14    1    1    2    0    0  0.10231719755E-01 -0.15161484896E-01  0.15392726914E-01  0.23905956480E-01  0.00000000000E+00 0. -1.
     999901    1    3    3    0    0  0.42395725608E-01  0.12076861109E+00  0.35344764186E-01  0.88996163250E+00  0.88000000000E+00 0.  1.
        -11    1    4    4    0    0 -0.14108595503E-01 -0.43887470634E-01 -0.27525955648E-01  0.53694523939E-01  0.51100000000E-03 0.  1.
         11    1    4    4    0    0 -0.38518849860E-01 -0.61719655563E-01 -0.23211535452E-01  0.76367887076E-01  0.51100000000E-03 0. -1.
</event>
<event>
 8    1  0.1329693E+005  0.1043930E+01  0.7957747E-01            NaN
         13   -1    0    0    0    0  0.00000000000E+00  0.00000000000E+00  0.74505805969E-08  0.10566000000E+00  0.10566000000E+00 0.  1.
     999900   -1    0    0    0    0 -0.00000000000E+00 -0.00000000000E+00 -0.74505805969E-08  0.93827000000E+00  0.93827000000E+00 0. -1.
     999902    2    1    2    0    0  0.11748186038E-01 -0.13820740485E-01 -0.14720261037E-01  0.10205693744E+01  0.10203019794E+01 0.  0.
     999903    2    3    3    0    0  0.21007902749E-01 -0.27681003223E-01  0.12339717667E+00  0.12964049070E+00  0.19293099853E-01 0.  0.
         14    1    1    2    0    0 -0.11748186038E-01  0.13820740485E-01  0.14720261037E-01  0.23360625586E-01  0.00000000000E+00 0.  1.
     999901    1    3    3    0    0 -0.92597167114E-02  0.13860262738E-01 -0.13811743771E+00  0.89092888371E+00  0.88000000000E+00 0. -1.
        -11    1    4    4    0    0  0.29696741540E-02 -0.18108969385E-01  0.72717604499E-01  0.74999099074E-01  0.51100000000E-03 0. -1.
         11    1    4    4    0    0  0.18038228595E-01 -0.95720338388E-02  0.50679572169E-01  0.54641391627E-01  0.51100000000E-03 0.  1.
</event>
<event>
 8    1  0.1083484E+005  0.1043930E+01  0.7957747E-01            NaN
         13   -1    0    0    0    0  0.00000000000E+00  0.00000000000E+00  0.74505805969E-08  0.10566000000E+00  0.10566000000E+00 0.  1.
     999900   -1    0    0    0    0 -0.00000000000E+00 -0.00000000000E+00 -0.74505805969E-08  0.93827000000E+00  0.93827000000E+00 0.  1.
     999902    2    1    2    0    0 -0.99757660401E-02  0.17936437920E-01  0.12087806983E-01  0.10201109574E+01  0.10198328386E+01 0.  0.
     999903    2    3    3    0    0  0.40063799640E-01 -0.93600569791E-01  0.77012016419E-01  0.12929132626E+00  0.20474903356E-01 0.  0.
         14    1    1    2    0    0  0.99757660401E-02 -0.17936437920E-01 -0.12087806983E-01  0.23819042613E-01  0.00000000000E+00 0. -1.
     999901    1    3    3    0    0 -0.50039565680E-01  0.11153700771E+00 -0.64924209436E-01  0.89081963112E+00  0.88000000000E+00 0.  1.
        -11    1    4    4    0    0  0.14370357459E-01 -0.43603553748E-01  0.23075959846E-01  0.51386166589E-01  0.51100000000E-03 0. -1.
         11    1    4    4    0    0  0.25693442182E-01 -0.49997016043E-01  0.53936056572E-01  0.77905159675E-01  0.51100000000E-03 0.  1.
</event>
<event>
 8    1  0.1083484E+005  0.1043930E+01  0.7957747E-01            NaN
         13   -1    0    0    0    0  0.00000000000E+00  0.00000000000E+00  0.74505805969E-08  0.10566000000E+00  0.10566000000E+00 0. -1.
     999900   -1    0    0    0    0 -0.00000000000E+00 -0.00000000000E+00 -0.74505805969E-08  0.93827000000E+00  0.93827000000E+00 0. -1.
     999902    2    1    2    0    0 -0.18075642729E-01  0.92040169480E-02 -0.12253545568E-01  0.10202320641E+01  0.10199567993E+01 0.  0.
     999903    2    3    3    0    0  0.95469544792E-01  0.82356329974E-01 -0.23433680794E-01  0.12985643215E+00  0.20409715943E-01 0.  0.
         14    1    1    2    0    0  0.18075642729E-01 -0.92040169480E-02  0.12253545568E-01  0.23697935923E-01  0.00000000000E+00 0. -1.
     999901    1    3    3    0    0 -0.11354518752E+00 -0.73152313026E-01  0.11180135226E-01  0.89037563193E+00  0.88000000000E+00 0.  1.
        -11    1    4    4    0    0  0.71579611215E-01  0.67960352675E-01 -0.11003565124E-01  0.99315607252E-01  0.51100000000E-03 0.  1.
         11    1    4    4    0    0  0.23889933577E-01  0.14395977298E-01 -0.12430115670E-01  0.30540824895E-01  0.51100000000E-03 0. -1.
</event>
<event>
 8    1  0.1083484E+005  0.1043930E+01  0.7957747E-01            NaN
         13   -1    0    0    0    0  0.00000000000E+00  0.00000000000E+00  0.74505805969E-08  0.10566000000E+00  0.10566000000E+00 0. -1.
     999900   -1    0    0    0    0 -0.00000000000E+00 -0.00000000000E+00 -0.74505805969E-08  0.93827000000E+00  0.93827000000E+00 0.  1.
     999902    2    1    2    0    0 -0.13039337751E-01  0.14645367723E-01 -0.14478434710E-01  0.10195550908E+01  0.10192636789E+01 0.  0.
     999903    2    3    3    0    0  0.15690912506E-01 -0.66172127311E-01 -0.10961986108E+00  0.13028078795E+00  0.18210288230E-01 0.  0.
         14    1    1    2    0    0  0.13039337751E-01 -0.14645367723E-01  0.14478434710E-01  0.24374909156E-01  0.00000000000E+00 0.  1.
     999901    1    3    3    0    0 -0.28730250257E-01  0.80817495034E-01  0.95141426366E-01  0.88927430290E+00  0.88000000000E+00 0. -1.
        -11    1    4    4    0    0 -0.31803277858E-02 -0.18425907613E-01 -0.23742288639E-01  0.30225584312E-01  0.51100000000E-03 0. -1.
         11    1    4    4    0    0  0.18871240292E-01 -0.47746219698E-01 -0.85877572436E-01  0.10005520363E+00  0.51100000000E-03 0.  1.
</event>
<event>
 8    1  0.1083484E+005  0.1043930E+01  0.7957747E-01            NaN
         13   -1    0    0    0    0  0.00000000000E+00  0.00000000000E+00  0.74505805969E-08  0.10566000000E+00  0.10566000000E+00 0. -1.
     999900   -1    0    0    0    0 -0.00000000000E+00 -0.00000000000E+00 -0.74505805969E-08  0.93827000000E+00  0.93827000000E+00 0.  1.
     999902    2    1    2    0    0  0.13907210349E-01 -0.19661802944E-02  0.18846160663E-01  0.10204256571E+01  0.10201549233E+01 0.  0.
     999903    2    3    3    0    0 -0.72394691355E-02  0.82053790685E-01  0.10155136477E+00  0.13231153808E+00  0.20209625008E-01 0.  0.
         14    1    1    2    0    0 -0.13907210349E-01  0.19661802944E-02 -0.18846160663E-01  0.23504342926E-01  0.00000000000E+00 0.  1.
     999901    1    3    3    0    0  0.21146679485E-01 -0.84019970980E-01 -0.82705204104E-01  0.88811411900E+00  0.88000000000E+00 0.  1.
        -11    1    4    4    0    0 -0.10010051793E-01  0.57906788698E-01  0.83152177521E-01  0.10182309690E+00  0.51100000000E-03 0.  1.
         11    1    4    4    0    0  0.27705826577E-02  0.24147001988E-01  0.18399187246E-01  0.30488441180E-01  0.51100000000E-03 0. -1.
</event>
<event>
 8    1  0.1083484E+005  0.1043930E+01  0.7957747E-01            NaN
         13   -1    0    0    0    0  0.00000000000E+00  0.00000000000E+00  0.74505805969E-08  0.10566000000E+00  0.10566000000E+00 0.  1.
     999900   -1    0    0    0    0 -0.00000000000E+00 -0.00000000000E+00 -0.74505805969E-08  0.93827000000E+00  0.93827000000E+00 0. -1.
     999902    2    1    2    0    0  0.17333420427E-01  0.16231373858E-01 -0.37157651566E-02  0.10198943625E+01  0.10196111017E+01 0.  0.
     999903    2    3    3    0    0  0.78936478408E-01 -0.99846454399E-01  0.15587042682E-01  0.12992717354E+00  0.20924446131E-01 0.  0.
         14    1    1    2    0    0 -0.17333420427E-01 -0.16231373858E-01  0.37157651566E-02  0.24035637535E-01  0.00000000000E+00 0. -1.
     999901    1    3    3    0    0 -0.61603057981E-01  0.11607782826E+00 -0.19302807839E-01  0.88996718892E+00  0.88000000000E+00 0. -1.
        -11    1    4    4    0    0  0.64689445046E-01 -0.89383929495E-01  0.78247713657E-02  0.11061509535E+00  0.51100000000E-03 0.  1.
         11    1    4    4    0    0  0.14247033362E-01 -0.10462524904E-01  0.77622713165E-02  0.19312078189E-01  0.51100000000E-03 0. -1.
</event>
<event>
 8    1  0.1083484E+005  0.1043930E+01  0.7957747E-01            NaN
         13   -1    0    0    0    0  0.00000000000E+00  0.00000000000E+00  0.74505805969E-08  0.10566000000E+00  0.10566000000E+00 0.  1.
     999900   -1    0    0    0    0 -0.00000000000E+00 -0.00000000000E+00 -0.74505805969E-08  0.93827000000E+00  0.93827000000E+00 0. -1.
     999902    2    1    2    0    0  0.38490869417E-02 -0.23204047130E-01  0.82129976982E-02  0.10190162166E+01  0.10187116143E+01 0.  0.
     999903    2    3    3    0    0 -0.10163402107E+00  0.42115455956E-01  0.63578263683E-01  0.12859011844E+00  0.19749356388E-01 0.  0.
         14    1    1    2    0    0 -0.38490869417E-02  0.23204047130E-01 -0.82129976982E-02  0.24913783428E-01  0.00000000000E+00 0. -1.
     999901    1    3    3    0    0  0.10548310801E+00 -0.65319503086E-01 -0.55365265985E-01  0.89042609813E+00  0.88000000000E+00 0. -1.
        -11    1    4    4    0    0 -0.15000377206E-01  0.91919453016E-02  0.29624572904E-02  0.17847701503E-01  0.51100000000E-03 0. -1.
         11    1    4    4    0    0 -0.86633643866E-01  0.32923510655E-01  0.60615806393E-01  0.11074241694E+00  0.51100000000E-03 0.  1.
</event>
<event>
 8    1  0.1083484E+005  0.1043930E+01  0.7957747E-01            NaN
         13   -1    0    0    0    0  0.00000000000E+00  0.00000000000E+00  0.74505805969E-08  0.10566000000E+00  0.10566000000E+00 0. -1.
     999900   -1    0    0    0    0 -0.00000000000E+00 -0.00000000000E+00 -0.74505805969E-08  0.93827000000E+00  0.93827000000E+00 0. -1.
     999902    2    1    2    0    0 -0.13014058770E-01  0.15473310568E-01 -0.11940171199E-01  0.10204490129E+01  0.10201788232E+01 0.  0.
     999903    2    3    3    0    0 -0.22614498796E-01  0.11588340849E+00  0.55756032733E-01  0.13210384789E+00  0.20057704813E-01 0.  0.
         14    1    1    2    0    0  0.13014058770E-01 -0.15473310568E-01  0.11940171199E-01  0.23480987072E-01  0.00000000000E+00 0. -1.
     999901    1    3    3    0    0  0.96004400264E-02 -0.10041009792E+00 -0.67696203932E-01  0.88834516503E+00  0.88000000000E+00 0. -1.
        -11    1    4    4    0    0 -0.11020187372E-01  0.18739970666E-01  0.73922199635E-02  0.22968175096E-01  0.51100000000E-03 0. -1.
         11    1    4    4    0    0 -0.11594311425E-01  0.97143437827E-01  0.48363812769E-01  0.10913567280E+00  0.51100000000E-03 0.  1.
</event>
<event>
 8    1  0.1083484E+005  0.1043930E+01  0.7957747E-01            NaN
         13   -1    0    0    0    0  0.00000000000E+00  0.00000000000E+00  0.74505805969E-08  0.10566000000E+00  0.10566000000E+00 0.  1.
     999900   -1    0    0    0    0 -0.00000000000E+00 -0.00000000000E+00 -0.74505805969E-08  0.93827000000E+00  0.93827000000E+00 0.  1.
     999902    2    1    2    0    0 -0.12895923908E-01 -0.12079502044E-01  0.17194505864E-01  0.10192749751E+01  0.10189767439E+01 0.  0.
     999903    2    3    3    0    0  0.65743800162E-01 -0.43546670222E-01 -0.98962509000E-01  0.12760976828E+00  0.16495909359E-01 0.  0.
         14    1    1    2    0    0  0.12895923908E-01  0.12079502044E-01 -0.17194505864E-01  0.24655024944E-01  0.00000000000E+00 0. -1.
     999901    1    3    3    0    0 -0.78639724070E-01  0.31467168178E-01  0.11615701486E+00  0.89166520678E+00  0.88000000000E+00 0. -1.
        -11    1    4    4    0    0  0.59023000676E-01 -0.44271102931E-01 -0.90332879529E-01  0.11663590960E+00  0.51100000000E-03 0.  1.
         11    1    4    4    0    0  0.67207994865E-02  0.72443270888E-03 -0.86296294710E-02  0.10973858678E-01  0.51100000000E-03 0. -1.
</event>
<event>
 8    1  0.1083484E+005  0.1043930E+01  0.7957747E-01            NaN
         13   -1    0    0    0    0  0.00000000000E+00  0.00000000000E+00  0.74505805969E-08  0.10566000000E+00  0.10566000000E+00 0. -1.
     999900   -1    0    0    0    0 -0.00000000000E+00 -0.00000000000E+00 -0.74505805969E-08  0.93827000000E+00  0.93827000000E+00 0.  1.
     999902    2    1    2    0    0 -0.17753343786E-01 -0.15077432472E-01  0.60852920592E-02  0.10198563429E+01  0.10195721746E+01 0.  0.
     999903    2    3    3    0    0 -0.11332814905E+00 -0.44530113280E-01 -0.48877451244E-01  0.13248781353E+00  0.18379748053E-01 0.  0.
         14    1    1    2    0    0  0.17753343786E-01  0.15077432472E-01 -0.60852920592E-02  0.24073657075E-01  0.00000000000E+00 0.  1.
     999901    1    3    3    0    0  0.95574805263E-01  0.29452680808E-01  0.54962743303E-01  0.88736852939E+00  0.88000000000E+00 0.  1.
        -11    1    4    4    0    0 -0.63114183638E-01 -0.21727285287E-01 -0.17383697369E-01  0.68977743929E-01  0.51100000000E-03 0. -1.
         11    1    4    4    0    0 -0.50213965411E-01 -0.22802827993E-01 -0.31493753875E-01  0.63510069602E-01  0.51100000000E-03 0.  1.
</event>
<event>
 8    1  0.1083484E+005  0.1043930E+01  0.7957747E-01            NaN
         13   -1    0    0    0    0  0.00000000000E+00  0.00000000000E+00  0.74505805969E-08  0.10566000000E+00  0.10566000000E+00 0.  1.
     999900   -1    0    0    0    0 -0.00000000000E+00 -0.00000000000E+00 -0.74505805969E-08  0.93827000000E+00  0.93827000000E+00 0. -1.
     999902    2    1    2    0    0 -0.44542753174E-02 -0.12450322189E-01  0.19970786099E-01  0.10199783114E+01  0.10196970493E+01 0.  0.
     999903    2    3    3    0    0  0.57770279749E-01 -0.11349215551E+00  0.28143798817E-01  0.13197597720E+00  0.20191843959E-01 0.  0.
         14    1    1    2    0    0  0.44542753174E-02  0.12450322189E-01 -0.19970786099E-01  0.23951688638E-01  0.00000000000E+00 0. -1.
     999901    1    3    3    0    0 -0.62224555066E-01  0.10104183332E+00 -0.81730127178E-02  0.88800233416E+00  0.88000000000E+00 0.  1.
        -11    1    4    4    0    0  0.41240323921E-01 -0.90085515608E-01  0.29218053704E-01  0.10329627400E+00  0.51100000000E-03 0. -1.
         11    1    4    4    0    0  0.16529955828E-01 -0.23406639901E-01 -0.10742548871E-02  0.28679703201E-01  0.51100000000E-03 0.  1.
</event>
<event>
 8    1  0.1083484E+005  0.1043930E+01  0.7957747E-01            NaN
         13   -1    0    0    0    0  0.00000000000E+00  0.00000000000E+00  0.74505805969E-08  0.10566000000E+00  0.10566000000E+00 0. -1.
     999900   -1    0    0    0    0 -0.00000000000E+00 -0.00000000000E+00 -0.74505805969E-08  0.93827000000E+00  0.93827000000E+00 0.  1.
     999902    2    1    2    0    0  0.24180404881E-01 -0.16593439380E-01  0.19124973706E-01  0.10089185900E+01  0.10083109255E+01 0.  0.
     999903    2    3    3    0    0  0.10318429692E+00  0.59289742396E-01 -0.14010688778E-01  0.12150783710E+00  0.20139076292E-01 0.  0.
         14    1    1    2    0    0 -0.24180404881E-01  0.16593439380E-01 -0.19124973706E-01  0.35011409997E-01  0.00000000000E+00 0.  1.
     999901    1    3    3    0    0 -0.79003892037E-01 -0.75883181776E-01  0.33135662484E-01  0.88741075290E+00  0.88000000000E+00 0. -1.
        -11    1    4    4    0    0  0.80696071553E-01  0.41999256879E-01 -0.28421595735E-02  0.91017210101E-01  0.51100000000E-03 0.  1.
         11    1    4    4    0    0  0.22488225364E-01  0.17290485517E-01 -0.11168529204E-01  0.30490627003E-01  0.51100000000E-03 0. -1.
</event>
<event>
 7    1  0.1083484E+005  0.1043930E+01  0.7957747E-01            NaN
         13   -1    0    0    0    0  0.00000000000E+00  0.00000000000E+00  0.74505805969E-08  0.10566000000E+00  0.10566000000E+00 0. -1.
     999900   -1    0    0    0    0 -0.00000000000E+00 -0.00000000000E+00 -0.74505805969E-08  0.93827000000E+00  0.93827000000E+00 0.  1.
     999903    2    1    2    0    0 -0.12340431079E-01  0.69014194064E-01  0.89073912725E-01  0.11501683791E+00  0.19479883301E-01 0.  0.
         14    1    1    2    0    0 -0.29676894504E-01  0.33777453757E-02 -0.30981475909E-01  0.43034626532E-01  0.00000000000E+00 0.  1.
     999901    1    1    2    0    0  0.42017325582E-01 -0.72391939440E-01 -0.58092436816E-01  0.88587853556E+00  0.88000000000E+00 0.  1.
        -11    1    3    3    0    0 -0.99635132885E-02  0.62531625423E-01  0.87339859707E-01  0.10787950681E+00  0.51100000000E-03 0. -1.
         11    1    3    3    0    0 -0.23769177902E-02  0.64825686415E-02  0.17340530181E-02  0.71373311008E-02  0.51100000000E-03 0.  1.
</event>
<event>
 8    1  0.1083484E+005  0.1043930E+01  0.7957747E-01            NaN
         13   -1    0    0    0    0  0.00000000000E+00  0.00000000000E+00  0.74505805969E-08  0.10566000000E+00  0.10566000000E+00 0. -1.
     999900   -1    0    0    0    0 -0.00000000000E+00 -0.00000000000E+00 -0.74505805969E-08  0.93827000000E+00  0.93827000000E+00 0. -1.
     999902    2    1    2    0    0 -0.23481253478E-01 -0.25411465877E-02 -0.16709641930E-02  0.10202526097E+01  0.10199778276E+01 0.  0.
     999903    2    3    3    0    0  0.82830437108E-01 -0.50538022909E-02 -0.96611492052E-01  0.12878068482E+00  0.19085653153E-01 0.  0.
         14    1    1    2    0    0  0.23481253478E-01  0.25411465877E-02  0.16709641930E-02  0.23677390317E-01  0.00000000000E+00 0.  1.
     999901    1    3    3    0    0 -0.10631169059E+00  0.25126557032E-02  0.94940527859E-01  0.89147192487E+00  0.88000000000E+00 0.  1.
        -11    1    4    4    0    0  0.30397416854E-01  0.58823423115E-02 -0.43066907384E-01  0.53043609747E-01  0.51100000000E-03 0.  1.
         11    1    4    4    0    0  0.52433020255E-01 -0.10936144602E-01 -0.53544584668E-01  0.75737075070E-01  0.51100000000E-03 0. -1.
</event>
<event>
 8    1  0.1083484E+005  0.1043930E+01  0.7957747E-01            NaN
         13   -1    0    0    0    0  0.00000000000E+00  0.00000000000E+00  0.74505805969E-08  0.10566000000E+00  0.10566000000E+00 0.  1.
     999900   -1    0    0    0    0 -0.00000000000E+00 -0.00000000000E+00 -0.74505805969E-08  0.93827000000E+00  0.93827000000E+00 0. -1.
     999902    2    1    2    0    0  0.18940616079E-01  0.12608739759E-01 -0.10386510438E-01  0.10189178658E+01  0.10186108239E+01 0.  0.
     999903    2    3    3    0    0 -0.52334085467E-01  0.11343732720E+00  0.27924020588E-01  0.12947186754E+00  0.19399222993E-01 0.  0.
         14    1    1    2    0    0 -0.18940616079E-01 -0.12608739759E-01  0.10386510438E-01  0.25012134152E-01  0.00000000000E+00 0. -1.
     999901    1    3    3    0    0  0.71274701547E-01 -0.10082858744E+00 -0.38310531026E-01  0.88944599831E+00  0.88000000000E+00 0. -1.
        -11    1    4    4    0    0 -0.31565827288E-01  0.87525315178E-01  0.17620061619E-01  0.94698521329E-01  0.51100000000E-03 0.  1.
         11    1    4    4    0    0 -0.20768258180E-01  0.25912012024E-01  0.10303958969E-01  0.34773346207E-01  0.51100000000E-03 0. -1.
</event>
<event>
 8    1  0.1083484E+005  0.1043930E+01  0.7957747E-01            NaN
         13   -1    0    0    0    0  0.00000000000E+00  0.00000000000E+00  0.74505805969E-08  0.10566000000E+00  0.10566000000E+00 0. -1.
     999900   -1    0    0    0    0 -0.00000000000E+00 -0.00000000000E+00 -0.74505805969E-08  0.93827000000E+00  0.93827000000E+00 0.  1.
     999902    2    1    2    0    0  0.18567090037E-01 -0.13511073233E-01  0.35057158649E-02  0.10207012253E+01  0.10204368747E+01 0.  0.
     999903    2    3    3    0    0 -0.11505316836E+00  0.46848496462E-01 -0.24473122706E-01  0.12813163889E+00  0.19666468386E-01 0.  0.
         14    1    1    2    0    0 -0.18567090037E-01  0.13511073233E-01 -0.35057158649E-02  0.23228774743E-01  0.00000000000E+00 0. -1.
     999901    1    3    3    0    0  0.13362025839E+00 -0.60359569696E-01  0.27978838571E-01  0.89256958637E+00  0.88000000000E+00 0.  1.
        -11    1    4    4    0    0 -0.10299778046E+00  0.39505541104E-01 -0.15503679978E-01  0.11139953219E+00  0.51100000000E-03 0. -1.
         11    1    4    4    0    0 -0.12055387899E-01  0.73429553582E-02 -0.89694427280E-02  0.16732106700E-01  0.51100000000E-03 0.  1.
</event>
<event>
 8    1  0.1083484E+005  0.1043930E+01  0.7957747E-01            NaN
         13   -1    0    0    0    0  0.00000000000E+00  0.00000000000E+00  0.74505805969E-08  0.10566000000E+00  0.10566000000E+00 0.  1.
     999900   -1    0    0    0    0 -0.00000000000E+00 -0.00000000000E+00 -0.74505805969E-08  0.93827000000E+00  0.93827000000E+00 0.  1.
     999902    2    1    2    0    0 -0.17556867578E-01 -0.14589210610E-01  0.12550448200E-01  0.10178800016E+01  0.10175466060E+01 0.  0.
     999903    2    3    3    0    0  0.10027305507E+00  0.56036211782E-01  0.48678155517E-01  0.12648948552E+00  0.20863473302E-01 0.  0.
         14    1    1    2    0    0  0.17556867578E-01  0.14589210610E-01 -0.12550448200E-01  0.26049998376E-01  0.00000000000E+00 0. -1.
     999901    1    3    3    0    0 -0.11782992265E+00 -0.70625422393E-01 -0.36127707317E-01  0.89139051610E+00  0.88000000000E+00 0.  1.
        -11    1    4    4    0    0  0.75897899145E-01  0.32468277457E-01  0.38473617795E-01  0.91077771838E-01  0.51100000000E-03 0.  1.
         11    1    4    4    0    0  0.24375155929E-01  0.23567934326E-01  0.10204537722E-01  0.35411713684E-01  0.51100000000E-03 0. -1.
</event>
<event>
 8    1  0.1083484E+005  0.1043930E+01  0.7957747E-01            NaN
         13   -1    0    0    0    0  0.00000000000E+00  0.00000000000E+00  0.74505805969E-08  0.10566000000E+00  0.10566000000E+00 0. -1.
     999900   -1    0    0    0    0 -0.00000000000E+00 -0.00000000000E+00 -0.74505805969E-08  0.93827000000E+00  0.93827000000E+00 0.  1.
     999902    2    1    2    0    0  0.54587387248E-02  0.17016972442E-01 -0.15608355269E-01  0.10202024647E+01  0.10199265037E+01 0.  0.
     999903    2    3    3    0    0  0.14796075036E-01 -0.10898101609E+00 -0.65903377775E-01  0.12975748137E+00  0.19949011586E-01 0.  0.
         14    1    1    2    0    0 -0.54587387248E-02 -0.17016972442E-01  0.15608355269E-01  0.23727535349E-01  0.00000000000E+00 0. -1.
     999901    1    3    3    0    0 -0.93373363112E-02  0.12599798854E+00  0.50295022506E-01  0.89044498328E+00  0.88000000000E+00 0. -1.
        -11    1    4    4    0    0  0.28556080626E-02 -0.73418912852E-01 -0.50734884455E-01  0.89290429966E-01  0.51100000000E-03 0.  1.
         11    1    4    4    0    0  0.11940466973E-01 -0.35562103243E-01 -0.15168493320E-01  0.40467051402E-01  0.51100000000E-03 0. -1.
</event>
<event>
 8    1  0.1083484E+005  0.1043930E+01  0.7957747E-01            NaN
         13   -1    0    0    0    0  0.00000000000E+00  0.00000000000E+00  0.74505805969E-08  0.10566000000E+00  0.10566000000E+00 0.  1.
     999900   -1    0    0    0    0 -0.00000000000E+00 -0.00000000000E+00 -0.74505805969E-08  0.93827000000E+00  0.93827000000E+00 0.  1.
     999902    2    1    2    0    0  0.19678138409E-02 -0.12899339513E-01 -0.20635378008E-01  0.10195151669E+01  0.10192227879E+01 0.  0.
     999903    2    3    3    0    0 -0.83905362616E-01 -0.57918292616E-01 -0.81447428641E-01  0.13210375491E+00  0.20568906978E-01 0.  0.
         14    1    1    2    0    0 -0.19678138409E-02  0.12899339513E-01  0.20635378008E-01  0.24414833129E-01  0.00000000000E+00 0.  1.
     999901    1    3    3    0    0  0.85873176457E-01  0.45018953103E-01  0.60812050633E-01  0.88741141196E+00  0.88000000000E+00 0. -1.
        -11    1    4    4    0    0 -0.29178922848E-01 -0.27056199571E-01 -0.21360552145E-01  0.45166157494E-01  0.51100000000E-03 0.  1.
         11    1    4    4    0    0 -0.54726439767E-01 -0.30862093045E-01 -0.60086876496E-01  0.86937597418E-01  0.51100000000E-03 0. -1.
</event>
<event>
 8    1  0.1083484E+005  0.1043930E+01  0.7957747E-01            NaN
         13   -1    0    0    0    0  0.00000000000E+00  0.00000000000E+00  0.74505805969E-08  0.10566000000E+00  0.10566000000E+00 0. -1.
     999900   -1    0    0    0    0 -0.00000000000E+00 -0.00000000000E+00 -0.74505805969E-08  0.93827000000E+00  0.93827000000E+00 0.  1.
     999902    2    1    2    0    0  0.94036302505E-02 -0.12833250846E-01 -0.21266641087E-01  0.10173708093E+01  0.10170240769E+01 0.  0.
     999903    2    3    3    0    0 -0.17153150367E-01  0.12703553646E-01  0.12155827314E+00  0.12509487263E+00  0.20413293386E-01 0.  0.
         14    1    1    2    0    0 -0.94036302505E-02  0.12833250846E-01  0.21266641087E-01  0.26559190731E-01  0.00000000000E+00 0. -1.
     999901    1    3    3    0    0  0.26556780617E-01 -0.25536804492E-01 -0.14282491423E+00  0.89227593664E+00  0.88000000000E+00 0.  1.
        -11    1    4    4    0    0 -0.84322765777E-02 -0.44360585870E-02  0.28056700520E-01  0.29634801655E-01  0.51100000000E-03 0. -1.
         11    1    4    4    0    0 -0.87208737889E-02  0.17139612233E-01  0.93501572620E-01  0.95460070975E-01  0.51100000000E-03 0.  1.
</event>
<event>
 8    1  0.1083484E+005  0.1043930E+01  0.7957747E-01            NaN
         13   -1    0    0    0    0  0.00000000000E+00  0.00000000000E+00  0.74505805969E-08  0.10566000000E+00  0.10566000000E+00 0.  1.
     999900   -1    0    0    0    0 -0.00000000000E+00 -0.00000000000E+00 -0.74505805969E-08  0.93827000000E+00  0.93827000000E+00 0.  1.
     999902    2    1    2    0    0 -0.39718396802E-02 -0.22490440531E-01  0.56141367067E-02  0.10204116251E+01  0.10201405642E+01 0.  0.
     999903    2    3    3    0    0 -0.56834812366E-01  0.82666769534E-01  0.79376977500E-01  0.12951685615E+00  0.20246500627E-01 0.  0.
         14    1    1    2    0    0  0.39718396802E-02  0.22490440531E-01 -0.56141367067E-02  0.23518374874E-01  0.00000000000E+00 0. -1.
     999901    1    3    3    0    0  0.52862972686E-01 -0.10515721007E+00 -0.73762840793E-01  0.89089476898E+00  0.88000000000E+00 0.  1.
        -11    1    4    4    0    0 -0.28719348809E-01  0.46412512529E-01  0.30693935464E-01  0.62620293121E-01  0.51100000000E-03 0. -1.
         11    1    4    4    0    0 -0.28115463557E-01  0.36254257005E-01  0.48683042036E-01  0.66896563028E-01  0.51100000000E-03 0.  1.
</event>
<event>
 8    1  0.1083484E+005  0.1043930E+01  0.7957747E-01            NaN
         13   -1    0    0    0    0  0.00000000000E+00  0.00000000000E+00  0.74505805969E-08  0.10566000000E+00  0.10566000000E+00 0.  1.
     999900   -1    0    0    0    0 -0.00000000000E+00 -0.00000000000E+00 -0.74505805969E-08  0.93827000000E+00  0.93827000000E+00 0. -1.
     999902    2    1    2    0    0 -0.78877286706E-03 -0.16131712467E-01  0.16955885240E-01  0.10205129901E+01  0.10202442877E+01 0.  0.
     999903    2    3    3    0    0 -0.10861510980E+00  0.45595363530E-01  0.53832614538E-01  0.13102063821E+00  0.19806009157E-01 0.  0.
         14    1    1    2    0    0  0.78877286706E-03  0.16131712467E-01 -0.16955885240E-01  0.23417009929E-01  0.00000000000E+00 0. -1.
     999901    1    3    3    0    0  0.10782633693E+00 -0.61727075996E-01 -0.36876729298E-01  0.88949235186E+00  0.88000000000E+00 0. -1.
        -11    1    4    4    0    0 -0.67461206621E-01  0.38520129793E-01  0.35529049874E-01  0.85424758145E-01  0.51100000000E-03 0.  1.
         11    1    4    4    0    0 -0.41153903175E-01  0.70752337361E-02  0.18303564663E-01  0.45595880070E-01  0.51100000000E-03 0. -1.
</event>
<event>
 8    1  0.1083484E+005  0.1043930E+01  0.7957747E-01            NaN
         13   -1    0    0    0    0  0.00000000000E+00  0.00000000000E+00  0.74505805969E-08  0.10566000000E+00  0.10566000000E+00 0.  1.
     999900   -1    0    0    0    0 -0.00000000000E+00 -0.00000000000E+00 -0.74505805969E-08  0.93827000000E+00  0.93827000000E+00 0. -1.
     999902    2    1    2    0    0  0.21097606206E-02  0.16383420926E-01  0.11934176087E-01  0.10235512824E+01  0.10233483941E+01 0.  0.
     999903    2    3    3    0    0 -0.11120873022E+00  0.72424519687E-01 -0.73442997900E-02  0.13430815215E+00  0.19288552647E-01 0.  0.
         14    1    1    2    0    0 -0.21097606206E-02 -0.16383420926E-01 -0.11934176087E-01  0.20378717575E-01  0.00000000000E+00 0. -1.
     999901    1    3    3    0    0  0.11331849085E+00 -0.56041098760E-01  0.19278475877E-01  0.88924313028E+00  0.88000000000E+00 0. -1.
        -11    1    4    4    0    0 -0.89130036736E-01  0.51768645960E-01 -0.11779276444E-01  0.10374569209E+00  0.51100000000E-03 0. -1.
         11    1    4    4    0    0 -0.22078693488E-01  0.20655873726E-01  0.44349766543E-02  0.30562460053E-01  0.51100000000E-03 0.  1.
</event>
<event>
 8    1  0.1083484E+005  0.1043930E+01  0.7957747E-01            NaN
         13   -1    0    0    0    0  0.00000000000E+00  0.00000000000E+00  0.74505805969E-08  0.10566000000E+00  0.10566000000E+00 0.  1.
     999900   -1    0    0    0    0 -0.00000000000E+00 -0.00000000000E+00 -0.74505805969E-08  0.93827000000E+00  0.93827000000E+00 0.  1.
     999902    2    1    2    0    0  0.21035777866E-01 -0.34469587145E-02  0.10472500170E-01  0.10201800793E+01  0.10199035912E+01 0.  0.
     999903    2    3    3    0    0 -0.97014336705E-01 -0.23658404401E-01  0.79848675837E-01  0.12936169944E+00  0.19675787786E-01 0.  0.
         14    1    1    2    0    0 -0.21035777866E-01  0.34469587145E-02 -0.10472500170E-01  0.23749920729E-01  0.00000000000E+00 0. -1.
     999901    1    3    3    0    0  0.11805011457E+00  0.20211445686E-01 -0.69376175666E-01  0.89081837983E+00  0.88000000000E+00 0.  1.
        -11    1    4    4    0    0 -0.32778947857E-01  0.22063395963E-03  0.31725905728E-01  0.45621292367E-01  0.51100000000E-03 0.  1.
         11    1    4    4    0    0 -0.64235388848E-01 -0.23879038361E-01  0.48122770109E-01  0.83740407077E-01  0.51100000000E-03 0. -1.
</event>
<event>
 8    1  0.1083484E+005  0.1043930E+01  0.7957747E-01            NaN
         13   -1    0    0    0    0  0.00000000000E+00  0.00000000000E+00  0.74505805969E-08  0.10566000000E+00  0.10566000000E+00 0.  1.
     999900   -1    0    0    0    0 -0.00000000000E+00 -0.00000000000E+00 -0.74505805969E-08  0.93827000000E+00  0.93827000000E+00 0. -1.
     999902    2    1    2    0    0  0.10581560260E-01  0.21486104067E-01  0.15108512617E-03  0.10199791146E+01  0.10196978716E+01 0.  0.
     999903    2    3    3    0    0 -0.35693548463E-01  0.66390558235E-01  0.10717077123E+00  0.13115347988E+00  0.58245561794E-02 0.  0.
         14    1    1    2    0    0 -0.10581560260E-01 -0.21486104067E-01 -0.15108512617E-03  0.23950885417E-01  0.00000000000E+00 0.  1.
     999901    1    3    3    0    0  0.46275108724E-01 -0.44904454168E-01 -0.10701968610E+00  0.88882563470E+00  0.88000000000E+00 0. -1.
        -11    1    4    4    0    0 -0.12909642294E-01  0.28414492417E-01  0.47630390901E-01  0.56946970964E-01  0.51100000000E-03 0.  1.
         11    1    4    4    0    0 -0.22783906169E-01  0.37976065818E-01  0.59540380326E-01  0.74206508917E-01  0.51100000000E-03 0. -1.
</event>
<event>
 8    1  0.1083484E+005  0.1043930E+01  0.7957747E-01            NaN
         13   -1    0    0    0    0  0.00000000000E+00  0.00000000000E+00  0.74505805969E-08  0.10566000000E+00  0.10566000000E+00 0. -1.
     999900   -1    0    0    0    0 -0.00000000000E+00 -0.00000000000E+00 -0.74505805969E-08  0.93827000000E+00  0.93827000000E+00 0. -1.
     999902    2    1    2    0    0  0.16936587117E-01 -0.13078899785E-01  0.10257976098E-01  0.10201996044E+01  0.10199235761E+01 0.  0.
     999903    2    3    3    0    0 -0.93928863946E-01 -0.59298447444E-01 -0.62564997103E-01  0.12905955913E+00  0.20076194562E-01 0.  0.
         14    1    1    2    0    0 -0.16936587117E-01  0.13078899785E-01 -0.10257976098E-01  0.23730395622E-01  0.00000000000E+00 0.  1.
     999901    1    3    3    0    0  0.11086545106E+00  0.46219547659E-01  0.72822973201E-01  0.89114004525E+00  0.88000000000E+00 0. -1.
        -11    1    4    4    0    0 -0.43970981474E-01 -0.19381854330E-01 -0.34857423525E-01  0.59366695924E-01  0.51100000000E-03 0.  1.
         11    1    4    4    0    0 -0.49957882471E-01 -0.39916593114E-01 -0.27707573578E-01  0.69692863203E-01  0.51100000000E-03 0. -1.
</event>
<event>
 8    1  0.1083484E+005  0.1043930E+01  0.7957747E-01            NaN
         13   -1    0    0    0    0  0.00000000000E+00  0.00000000000E+00  0.74505805969E-08  0.10566000000E+00  0.10566000000E+00 0.  1.
     999900   -1    0    0    0    0 -0.00000000000E+00 -0.00000000000E+00 -0.74505805969E-08  0.93827000000E+00  0.93827000000E+00 0. -1.
     999902    2    1    2    0    0 -0.17926801186E-01 -0.13370901909E-02  0.17616860179E-01  0.10187603402E+01  0.10184493699E+01 0.  0.
     999903    2    3    3    0    0  0.10423938784E+00  0.52825790572E-01  0.48769640666E-01  0.12812646981E+00  0.19532032324E-01 0.  0.
         14    1    1    2    0    0  0.17926801186E-01  0.13370901909E-02 -0.17616860179E-01  0.25169659782E-01  0.00000000000E+00 0. -1.
     999901    1    3    3    0    0 -0.12216618903E+00 -0.54162880763E-01 -0.31152780487E-01  0.89063387041E+00  0.88000000000E+00 0.  1.
        -11    1    4    4    0    0  0.27190465484E-01  0.92274026177E-02  0.20161351856E-01  0.35088567968E-01  0.51100000000E-03 0. -1.
         11    1    4    4    0    0  0.77048922358E-01  0.43598387954E-01  0.28608288809E-01  0.93037901838E-01  0.51100000000E-03 0.  1.
</event>
<event>
 8    1  0.1083484E+005  0.1043930E+01  0.7957747E-01            NaN
         13   -1    0    0    0    0  0.00000000000E+00  0.00000000000E+00  0.74505805969E-08  0.10566000000E+00  0.10566000000E+00 0. -1.
     999900   -1    0    0    0    0 -0.00000000000E+00 -0.00000000000E+00 -0.74505805969E-08  0.93827000000E+00  0.93827000000E+00 0.  1.
     999902    2    1    2    0    0  0.12926284511E-01 -0.13738987574E-01  0.15255471261E-01  0.10196693732E+01  0.10193807201E+01 0.  0.
     999903    2    3    3    0    0 -0.87291630809E-01 -0.59120846517E-01  0.74593653981E-01  0.13083633845E+00  0.20948292144E-01 0.  0.
         14    1    1    2    0    0 -0.12926284511E-01  0.13738987574E-01 -0.15255471261E-01  0.24260626831E-01  0.00000000000E+00 0.  1.
     999901    1    3    3    0    0  0.10021791532E+00  0.45381858943E-01 -0.59338182719E-01  0.88883303471E+00  0.88000000000E+00 0.  1.
        -11    1    4    4    0    0 -0.17620479953E-01 -0.42482532383E-02  0.74667498026E-02  0.19609753771E-01  0.51100000000E-03 0.  1.
         11    1    4    4    0    0 -0.69671150856E-01 -0.54872593279E-01  0.67126904178E-01  0.11122658468E+00  0.51100000000E-03 0. -1.
</event>
<event>
 8    1  0.1083484E+005  0.1043930E+01  0.7957747E-01            NaN
         13   -1    0    0    0    0  0.00000000000E+00  0.00000000000E+00  0.74505805969E-08  0.10566000000E+00  0.10566000000E+00 0. -1.
     999900   -1    0    0    0    0 -0.00000000000E+00 -0.00000000000E+00 -0.74505805969E-08  0.93827000000E+00  0.93827000000E+00 0. -1.
     999902    2    1    2    0    0 -0.13612163800E-01  0.10127335947E-01 -0.16362624731E-01  0.10203590555E+01  0.10200867672E+01 0.  0.
     999903    2    3    3    0    0 -0.60712288412E-01  0.71163477590E-01  0.89182782438E-01  0.13070537833E+00  0.19496274861E-01 0.  0.
         14    1    1    2    0    0  0.13612163800E-01 -0.10127335947E-01  0.16362624731E-01  0.23570944504E-01  0.00000000000E+00 0. -1.
     999901    1    3    3    0    0  0.47100124611E-01 -0.61036141643E-01 -0.10554540717E+00  0.88965367717E+00  0.88000000000E+00 0. -1.
        -11    1    4    4    0    0 -0.46391847879E-01  0.40023114471E-01  0.56879037813E-01  0.83603464671E-01  0.51100000000E-03 0.  1.
         11    1    4    4    0    0 -0.14320440533E-01  0.31140363120E-01  0.32303744625E-01  0.47101913656E-01  0.51100000000E-03 0. -1.
</event>
<event>
 8    1  0.1083484E+005  0.1043930E+01  0.7957747E-01            NaN
         13   -1    0    0    0    0  0.00000000000E+00  0.00000000000E+00  0.74505805969E-08  0.10566000000E+00  0.10566000000E+00 0. -1.
     999900   -1    0    0    0    0 -0.00000000000E+00 -0.00000000000E+00 -0.74505805969E-08  0.93827000000E+00  0.93827000000E+00 0.  1.
     999902    2    1    2    0    0  0.14386884174E-01  0.17618863778E-01 -0.67550981311E-02  0.10202015751E+01  0.10199255932E+01 0.  0.
     999903    2    3    3    0    0 -0.12603072441E+00 -0.11519477996E-01  0.51847037947E-02  0.12851289253E+00  0.21731095796E-01 0.  0.
         14    1    1    2    0    0 -0.14386884174E-01 -0.17618863778E-01  0.67550981311E-02  0.23728424891E-01  0.00000000000E+00 0.  1.
     999901    1    3    3    0    0  0.14041760859E+00  0.29138341774E-01 -0.11939801926E-01  0.89168868258E+00  0.88000000000E+00 0. -1.
        -11    1    4    4    0    0 -0.27452446063E-01  0.33259697747E-02  0.79683481124E-02  0.28782886624E-01  0.51100000000E-03 0.  1.
         11    1    4    4    0    0 -0.98578278350E-01 -0.14845447770E-01 -0.27836443177E-02  0.99730005909E-01  0.51100000000E-03 0. -1.
</event>
<event>
 8    1  0.1083484E+005  0.1043930E+01  0.7957747E-01            NaN
         13   -1    0    0    0    0  0.00000000000E+00  0.00000000000E+00  0.74505805969E-08  0.10566000000E+00  0.10566000000E+00 0. -1.
     999900   -1    0    0    0    0 -0.00000000000E+00 -0.00000000000E+00 -0.74505805969E-08  0.93827000000E+00  0.93827000000E+00 0. -1.
     999902    2    1    2    0    0  0.26532317497E-02  0.22428387572E-01 -0.26135224960E-02  0.10211945056E+01  0.10209413869E+01 0.  0.
     999903    2    3    3    0    0  0.29530841618E-01 -0.70600857194E-01 -0.10333749564E+00  0.13017140537E+00  0.20233762070E-01 0.  0.
         14    1    1    2    0    0 -0.26532317497E-02 -0.22428387572E-01  0.26135224960E-02  0.22735494444E-01  0.00000000000E+00 0.  1.
     999901    1    3    3    0    0 -0.26877609868E-01  0.93029244766E-01  0.10072397315E+00  0.89102310018E+00  0.88000000000E+00 0.  1.
        -11    1    4    4    0    0  0.25027544136E-01 -0.55328720791E-01 -0.93363639038E-01  0.11137627901E+00  0.51100000000E-03 0. -1.
         11    1    4    4    0    0  0.45032974823E-02 -0.15272136403E-01 -0.99738566054E-02  0.18795126366E-01  0.51100000000E-03 0.  1.
</event>
<event>
 8    1  0.1083484E+005  0.1043930E+01  0.7957747E-01            NaN
         13   -1    0    0    0    0  0.00000000000E+00  0.00000000000E+00  0.74505805969E-08  0.10566000000E+00  0.10566000000E+00 0. -1.
     999900   -1    0    0    0    0 -0.00000000000E+00 -0.00000000000E+00 -0.74505805969E-08  0.93827000000E+00  0.93827000000E+00 0. -1.
     999902    2    1    2    0    0  0.21045322531E-01  0.40003005914E-02 -0.11619902486E-01  0.10195593180E+01  0.10192680084E+01 0.  0.
     999903    2    3    3    0    0  0.39517458375E-01  0.11923801448E+00  0.31227639400E-01  0.13082040118E+00  0.18959912670E-01 0.  0.
         14    1    1    2    0    0 -0.21045322531E-01 -0.40003005914E-02  0.11619902486E-01  0.24370681956E-01  0.00000000000E+00 0.  1.
     999901    1    3    3    0    0 -0.18472135844E-01 -0.11523771389E+00 -0.42847541886E-01  0.88873891687E+00  0.88000000000E+00 0. -1.
        -11    1    4    4    0    0  0.32668533641E-01  0.90733009848E-01  0.15910967159E-01  0.97740125656E-01  0.51100000000E-03 0. -1.
         11    1    4    4    0    0  0.68489247339E-02  0.28505004632E-01  0.15316672242E-01  0.33080275523E-01  0.51100000000E-03 0.  1.
</event>
<event>
 8    1  0.1083484E+005  0.1043930E+01  0.7957747E-01            NaN
         13   -1    0    0    0    0  0.00000000000E+00  0.00000000000E+00  0.74505805969E-08  0.10566000000E+00  0.10566000000E+00 0.  1.
     999900   -1    0    0    0    0 -0.00000000000E+00 -0.00000000000E+00 -0.74505805969E-08  0.93827000000E+00  0.93827000000E+00 0.  1.
     999902    2    1    2    0    0  0.11262225013E-01  0.17622660193E-01 -0.10164851628E-01  0.10206766116E+01  0.10204116940E+01 0.  0.
     999903    2    3    3    0    0 -0.28990042357E-01  0.12256316418E+00 -0.37565937831E-01  0.13310488268E+00  0.21060824728E-01 0.  0.
         14    1    1    2    0    0 -0.11262225013E-01 -0.17622660193E-01  0.10164851628E-01  0.23253388423E-01  0.00000000000E+00 0. -1.
     999901    1    3    3    0    0  0.40252267371E-01 -0.10494050399E+00  0.27401086202E-01  0.88757172889E+00  0.88000000000E+00 0. -1.
        -11    1    4    4    0    0 -0.24785865227E-01  0.68285850136E-01 -0.15044835677E-01  0.74188305315E-01  0.51100000000E-03 0.  1.
         11    1    4    4    0    0 -0.42041771302E-02  0.54277314048E-01 -0.22521102153E-01  0.58916577369E-01  0.51100000000E-03 0. -1.
</event>
<event>
 8    1  0.1083484E+005  0.1043930E+01  0.7957747E-01            NaN
         13   -1    0    0    0    0  0.00000000000E+00  0.00000000000E+00  0.74505805969E-08  0.10566000000E+00  0.10566000000E+00 0.  1.
     999900   -1    0    0    0    0 -0.00000000000E+00 -0.00000000000E+00 -0.74505805969E-08  0.93827000000E+00  0.93827000000E+00 0. -1.
     999902    2    1    2    0    0 -0.13852882156E-01  0.93519403939E-02 -0.15791492608E-01  0.10209358187E+01  0.10206768409E+01 0.  0.
     999903    2    3    3    0    0 -0.69067155844E-01  0.84250434419E-01  0.71564361945E-01  0.13172861805E+00  0.19041092329E-01 0.  0.
         14    1    1    2    0    0  0.13852882156E-01 -0.93519403939E-02  0.15791492608E-01  0.22994181263E-01  0.00000000000E+00 0.  1.
     999901    1    3    3    0    0  0.55214273688E-01 -0.74898494025E-01 -0.87355854553E-01  0.88920720069E+00  0.88000000000E+00 0. -1.
        -11    1    4    4    0    0 -0.66051148243E-02  0.19452744397E-01  0.11923588563E-01  0.23758575118E-01  0.51100000000E-03 0. -1.
         11    1    4    4    0    0 -0.62462041020E-01  0.64797690021E-01  0.59640773383E-01  0.10797004293E+00  0.51100000000E-03 0.  1.
</event>
<event>
 8    1  0.1083484E+005  0.1043930E+01  0.7957747E-01            NaN
         13   -1    0    0    0    0  0.00000000000E+00  0.00000000000E+00  0.74505805969E-08  0.10566000000E+00  0.10566000000E+00 0. -1.
     999900   -1    0    0    0    0 -0.00000000000E+00 -0.00000000000E+00 -0.74505805969E-08  0.93827000000E+00  0.93827000000E+00 0. -1.
     999902    2    1    2    0    0 -0.11559716768E-01  0.60556680951E-02 -0.19383512753E-01  0.10205629562E+01  0.10202954126E+01 0.  0.
     999903    2    3    3    0    0  0.53738309227E-01  0.40666368585E-01  0.10761673852E+00  0.12837979308E+00  0.18932761239E-01 0.  0.
         14    1    1    2    0    0  0.11559716768E-01 -0.60556680951E-02  0.19383512753E-01  0.23367043769E-01  0.00000000000E+00 0. -1.
     999901    1    3    3    0    0 -0.65298025994E-01 -0.34610700490E-01 -0.12700025128E+00  0.89218316315E+00  0.88000000000E+00 0. -1.
        -11    1    4    4    0    0  0.30252574731E-01  0.11585649884E-01  0.55030423825E-01  0.63859644757E-01  0.51100000000E-03 0.  1.
         11    1    4    4    0    0  0.23485734496E-01  0.29080718701E-01  0.52586314699E-01  0.64520148323E-01  0.51100000000E-03 0. -1.
</event>
<event>
 8    1  0.1083484E+005  0.1043930E+01  0.7957747E-01            NaN
         13   -1    0    0    0    0  0.00000000000E+00  0.00000000000E+00  0.74505805969E-08  0.10566000000E+00  0.10566000000E+00 0.  1.
     999900   -1    0    0    0    0 -0.00000000000E+00 -0.00000000000E+00 -0.74505805969E-08  0.93827000000E+00  0.93827000000E+00 0.  1.
     999902    2    1    2    0    0 -0.85189881337E-02 -0.44903227422E-02  0.20860410307E-01  0.10209540805E+01  0.10206955186E+01 0.  0.
     999903    2    3    3    0    0 -0.12959153990E-01  0.29696500774E-01  0.12814280837E+00  0.13376866197E+00  0.20582851079E-01 0.  0.
         14    1    1    2    0    0  0.85189881337E-02  0.44903227422E-02 -0.20860410307E-01  0.22975919466E-01  0.00000000000E+00 0. -1.
     999901    1    3    3    0    0  0.44401658563E-02 -0.34186823517E-01 -0.10728239806E+00  0.88718541856E+00  0.88000000000E+00 0.  1.
        -11    1    4    4    0    0 -0.15037264960E-01  0.11064920050E-01  0.78773643548E-01  0.80957395166E-01  0.51100000000E-03 0.  1.
         11    1    4    4    0    0  0.20781109703E-02  0.18631580724E-01  0.49369164821E-01  0.52811266805E-01  0.51100000000E-03 0. -1.
</event>
<event>
 8    1  0.1083484E+005  0.1043930E+01  0.7957747E-01            NaN
         13   -1    0    0    0    0  0.00000000000E+00  0.00000000000E+00  0.74505805969E-08  0.10566000000E+00  0.10566000000E+00 0.  1.
     999900   -1    0    0    0    0 -0.00000000000E+00 -0.00000000000E+00 -0.74505805969E-08  0.93827000000E+00  0.93827000000E+00 0.  1.
     999902    2    1    2    0    0  0.12849346800E-01  0.17025630580E-01 -0.65802925969E-02  0.10216078572E+01  0.10213639585E+01 0.  0.
     999903    2    3    3    0    0  0.10402472111E+00  0.66771996048E-01  0.46647268028E-01  0.13390248771E+00  0.21777661531E-01 0.  0.
         14    1    1    2    0    0 -0.12849346800E-01 -0.17025630580E-01  0.65802925969E-02  0.22322142829E-01  0.00000000000E+00 0.  1.
     999901    1    3    3    0    0 -0.91175374313E-01 -0.49746365468E-01 -0.53227560625E-01  0.88770536946E+00  0.88000000000E+00 0.  1.
        -11    1    4    4    0    0  0.13348726833E-01  0.12820607418E-01 -0.54203805657E-04  0.18515413625E-01  0.51100000000E-03 0.  1.
         11    1    4    4    0    0  0.90675994280E-01  0.53951388630E-01  0.46701471834E-01  0.11538707409E+00  0.51100000000E-03 0. -1.
</event>
<event>
 8    1  0.1083484E+005  0.1043930E+01  0.7957747E-01            NaN
         13   -1    0    0    0    0  0.00000000000E+00  0.00000000000E+00  0.74505805969E-08  0.10566000000E+00  0.10566000000E+00 0.  1.
     999900   -1    0    0    0    0 -0.00000000000E+00 -0.00000000000E+00 -0.74505805969E-08  0.93827000000E+00  0.93827000000E+00 0. -1.
     999902    2    1    2    0    0  0.14197584005E-01  0.18627351007E-01  0.65127616022E-02  0.10196202147E+01  0.10193303766E+01 0.  0.
     999903    2    3    3    0    0  0.12939079670E+00  0.22454920625E-03  0.20460683611E-01  0.13181241800E+00  0.14623449467E-01 0.  0.
         14    1    1    2    0    0 -0.14197584005E-01 -0.18627351007E-01 -0.65127616022E-02  0.24309785289E-01  0.00000000000E+00 0.  1.
     999901    1    3    3    0    0 -0.11519321269E+00  0.18402801801E-01 -0.13947922008E-01  0.88780779671E+00  0.88000000000E+00 0.  1.
        -11    1    4    4    0    0  0.26782234823E-01  0.14617275041E-02 -0.15102198961E-02  0.26869436811E-01  0.51100000000E-03 0.  1.
         11    1    4    4    0    0  0.10260856187E+00 -0.12371782978E-02  0.21970903507E-01  0.10494298119E+00  0.51100000000E-03 0. -1.
</event>
<event>
 8    1  0.1083484E+005  0.1043930E+01  0.7957747E-01            NaN
         13   -1    0    0    0    0  0.00000000000E+00  0.00000000000E+00  0.74505805969E-08  0.10566000000E+00  0.10566000000E+00 0.  1.
     999900   -1    0    0    0    0 -0.00000000000E+00 -0.00000000000E+00 -0.74505805969E-08  0.93827000000E+00  0.93827000000E+00 0.  1.
     999902    2    1    2    0    0 -0.71246390107E-02 -0.22138900147E-01  0.25848244794E-02  0.10205297287E+01  0.10202614147E+01 0.  0.
     999903    2    3    3    0    0  0.11852705478E+00  0.33048137598E-01 -0.35252229083E-01  0.12908954565E+00  0.16749597798E-01 0.  0.
         14    1    1    2    0    0  0.71246390107E-02  0.22138900147E-01 -0.25848244794E-02  0.23400271330E-01  0.00000000000E+00 0.  1.
     999901    1    3    3    0    0 -0.12565169379E+00 -0.55187037744E-01  0.37837053562E-01  0.89144018302E+00  0.88000000000E+00 0. -1.
        -11    1    4    4    0    0  0.37617681979E-01  0.18525526399E-01 -0.10289282685E-01  0.43178878922E-01  0.51100000000E-03 0.  1.
         11    1    4    4    0    0  0.80909372801E-01  0.14522611199E-01 -0.24962946398E-01  0.85910666724E-01  0.51100000000E-03 0. -1.
</event>
<event>
 8    1  0.1083484E+005  0.1043930E+01  0.7957747E-01            NaN
         13   -1    0    0    0    0  0.00000000000E+00  0.00000000000E+00  0.74505805969E-08  0.10566000000E+00  0.10566000000E+00 0.  1.
     999900   -1    0    0    0    0 -0.00000000000E+00 -0.00000000000E+00 -0.74505805969E-08  0.93827000000E+00  0.93827000000E+00 0. -1.
     999902    2    1    2    0    0 -0.12003967548E-01  0.19671247175E-01  0.47424816418E-02  0.10204024771E+01  0.10201312028E+01 0.  0.
     999903    2    3    3    0    0  0.11330637032E+00 -0.42972465994E-01 -0.37191991865E-01  0.12833442159E+00  0.20037792177E-01 0.  0.
         14    1    1    2    0    0  0.12003967548E-01 -0.19671247175E-01 -0.47424816418E-02  0.23527522914E-01  0.00000000000E+00 0. -1.
     999901    1    3    3    0    0 -0.12531033787E+00  0.62643713169E-01  0.41934473507E-01  0.89206805550E+00  0.88000000000E+00 0. -1.
        -11    1    4    4    0    0  0.72058309354E-01 -0.17094923621E-01 -0.24565771696E-01  0.78028037401E-01  0.51100000000E-03 0. -1.
         11    1    4    4    0    0  0.41248060969E-01 -0.25877542373E-01 -0.12626220169E-01  0.50306384185E-01  0.51100000000E-03 0.  1.
</event>
<event>
 8    1  0.1083484E+005  0.1043930E+01  0.7957747E-01            NaN
         13   -1    0    0    0    0  0.00000000000E+00  0.00000000000E+00  0.74505805969E-08  0.10566000000E+00  0.10566000000E+00 0.  1.
     999900   -1    0    0    0    0 -0.00000000000E+00 -0.00000000000E+00 -0.74505805969E-08  0.93827000000E+00  0.93827000000E+00 0. -1.
     999902    2    1    2    0    0 -0.20177743829E-01 -0.95812868710E-02  0.18669508473E-02  0.10215150963E+01  0.10212691438E+01 0.  0.
     999903    2    3    3    0    0  0.80555666422E-01  0.49222159923E-01  0.86536778536E-01  0.12978977700E+00  0.21088758942E-01 0.  0.
         14    1    1    2    0    0  0.20177743829E-01  0.95812868710E-02 -0.18669508473E-02  0.22414903738E-01  0.00000000000E+00 0.  1.
     999901    1    3    3    0    0 -0.10073341025E+00 -0.58803446794E-01 -0.84669827688E-01  0.89172531926E+00  0.88000000000E+00 0. -1.
        -11    1    4    4    0    0  0.72295415701E-01  0.35302440743E-01  0.73965816834E-01  0.10928903255E+00  0.51100000000E-03 0.  1.
         11    1    4    4    0    0  0.82602507210E-02  0.13919719179E-01  0.12570961702E-01  0.20500744452E-01  0.51100000000E-03 0. -1.
</event>
<event>
 8    1  0.1083484E+005  0.1043930E+01  0.7957747E-01            NaN
         13   -1    0    0    0    0  0.00000000000E+00  0.00000000000E+00  0.74505805969E-08  0.10566000000E+00  0.10566000000E+00 0.  1.
     999900   -1    0    0    0    0 -0.00000000000E+00 -0.00000000000E+00 -0.74505805969E-08  0.93827000000E+00  0.93827000000E+00 0. -1.
     999902    2    1    2    0    0 -0.19613133445E-01  0.10727614372E-01  0.94082827977E-02  0.10196756705E+01  0.10193871691E+01 0.  0.
     999903    2    3    3    0    0  0.98742990875E-01  0.55910499317E-01  0.58431775151E-01  0.12925275523E+00  0.20392160427E-01 0.  0.
         14    1    1    2    0    0  0.19613133445E-01 -0.10727614372E-01 -0.94082827977E-02  0.24254329487E-01  0.00000000000E+00 0. -1.
     999901    1    3    3    0    0 -0.11835612432E+00 -0.45182884945E-01 -0.49023492353E-01  0.89042291528E+00  0.88000000000E+00 0.  1.
        -11    1    4    4    0    0  0.20768968478E-01  0.36271081297E-02  0.70905560105E-02  0.22249563379E-01  0.51100000000E-03 0. -1.
         11    1    4    4    0    0  0.77974022397E-01  0.52283391187E-01  0.51341219140E-01  0.10700319185E+00  0.51100000000E-03 0.  1.
</event>
<event>
 8    1  0.1083484E+005  0.1043930E+01  0.7957747E-01            NaN
         13   -1    0    0    0    0  0.00000000000E+00  0.00000000000E+00  0.74505805969E-08  0.10566000000E+00  0.10566000000E+00 0. -1.
     999900   -1    0    0    0    0 -0.00000000000E+00 -0.00000000000E+00 -0.74505805969E-08  0.93827000000E+00  0.93827000000E+00 0.  1.
     999902    2    1    2    0    0  0.89328359989E-02  0.21057432975E-01  0.72663810603E-02  0.10199297638E+01  0.10196473468E+01 0.  0.
     999903    2    3    3    0    0 -0.52131822689E-01  0.52281301594E-01 -0.10533418547E+00  0.13010803444E+00  0.19538386923E-01 0.  0.
         14    1    1    2    0    0 -0.89328359989E-02 -0.21057432975E-01 -0.72663810603E-02  0.24000236170E-01  0.00000000000E+00 0.  1.
     999901    1    3    3    0    0  0.61064658688E-01 -0.31223868619E-01  0.11260056653E+00  0.88982172939E+00  0.88000000000E+00 0. -1.
        -11    1    4    4    0    0 -0.47442367945E-02  0.37492670290E-02 -0.17961242977E-02  0.63286625372E-02  0.51100000000E-03 0.  1.
         11    1    4    4    0    0 -0.47387585895E-01  0.48532034565E-01 -0.10353806117E+00  0.12377937190E+00  0.51100000000E-03 0. -1.
</event>
<event>
 8    1  0.1083484E+005  0.1043930E+01  0.7957747E-01            NaN
         13   -1    0    0    0    0  0.00000000000E+00  0.00000000000E+00  0.74505805969E-08  0.10566000000E+00  0.10566000000E+00 0.  1.
     999900   -1    0    0    0    0 -0.00000000000E+00 -0.00000000000E+00 -0.74505805969E-08  0.93827000000E+00  0.93827000000E+00 0.  1.
     999902    2    1    2    0    0  0.60018160818E-02 -0.17172153682E-01  0.16891963784E-01  0.10191057558E+01  0.10188033659E+01 0.  0.
     999903    2    3    3    0    0 -0.63972845568E-02  0.11198069515E+00 -0.54854542189E-01  0.12670351626E+00  0.21544347239E-01 0.  0.
         14    1    1    2    0    0 -0.60018160818E-02  0.17172153682E-01 -0.16891963784E-01  0.24824244175E-01  0.00000000000E+00 0. -1.
     999901    1    3    3    0    0  0.12399100639E-01 -0.12915284883E+00  0.71746505974E-01  0.89240223956E+00  0.88000000000E+00 0. -1.
        -11    1    4    4    0    0 -0.17757242547E-02  0.85634105492E-01 -0.50961824235E-01  0.99668058426E-01  0.51100000000E-03 0.  1.
         11    1    4    4    0    0 -0.46215603021E-02  0.26346589659E-01 -0.38927179543E-02  0.27035457835E-01  0.51100000000E-03 0. -1.
</event>
<event>
 8    1  0.1083484E+005  0.1043930E+01  0.7957747E-01            NaN
         13   -1    0    0    0    0  0.00000000000E+00  0.00000000000E+00  0.74505805969E-08  0.10566000000E+00  0.10566000000E+00 0. -1.
     999900   -1    0    0    0    0 -0.00000000000E+00 -0.00000000000E+00 -0.74505805969E-08  0.93827000000E+00  0.93827000000E+00 0. -1.
     999902    2    1    2    0    0  0.43254848408E-02 -0.19268249730E-01 -0.11220245220E-01  0.10212172465E+01  0.10209646397E+01 0.  0.
     999903    2    3    3    0    0 -0.75563693940E-02 -0.13200384991E+00 -0.82787396729E-02  0.13394099505E+00  0.19736704742E-01 0.  0.
         14    1    1    2    0    0 -0.43254848408E-02  0.19268249730E-01  0.11220245220E-01  0.22712753456E-01  0.00000000000E+00 0. -1.
     999901    1    3    3    0    0  0.11881854235E-01  0.11273560018E+00 -0.29415055472E-02  0.88727625149E+00  0.88000000000E+00 0.  1.
        -11    1    4    4    0    0 -0.11625843824E-01 -0.57170018287E-01 -0.87402930654E-02  0.58993432512E-01  0.51100000000E-03 0.  1.
         11    1    4    4    0    0  0.40694744304E-02 -0.74833831627E-01  0.46155339255E-03  0.74947562539E-01  0.51100000000E-03 0. -1.
</event>
<event>
 8    1  0.1083484E+005  0.1043930E+01  0.7957747E-01            NaN
         13   -1    0    0    0    0  0.00000000000E+00  0.00000000000E+00  0.74505805969E-08  0.10566000000E+00  0.10566000000E+00 0. -1.
     999900   -1    0    0    0    0 -0.00000000000E+00 -0.00000000000E+00 -0.74505805969E-08  0.93827000000E+00  0.93827000000E+00 0. -1.
     999902    2    1    2    0    0 -0.45379832399E-02  0.86626549874E-02  0.18700738007E-01  0.10228266238E+01  0.10226088939E+01 0.  0.
     999903    2    3    3    0    0  0.83836410044E-01 -0.97655613702E-01 -0.15089126748E-01  0.13139218284E+00  0.21703949602E-01 0.  0.
         14    1    1    2    0    0  0.45379832399E-02 -0.86626549874E-02 -0.18700738007E-01  0.21103376159E-01  0.00000000000E+00 0.  1.
     999901    1    3    3    0    0 -0.88374393284E-01  0.10631826869E+00  0.33789864755E-01  0.89143444100E+00  0.88000000000E+00 0.  1.
        -11    1    4    4    0    0  0.21099839018E-01 -0.27430488141E-01 -0.13671586758E-01  0.37213012398E-01  0.51100000000E-03 0. -1.
         11    1    4    4    0    0  0.62736571027E-01 -0.70225125560E-01 -0.14175399901E-02  0.94179170440E-01  0.51100000000E-03 0.  1.
</event>
<event>
 8    1  0.1083484E+005  0.1043930E+01  0.7957747E-01            NaN
         13   -1    0    0    0    0  0.00000000000E+00  0.00000000000E+00  0.74505805969E-08  0.10566000000E+00  0.10566000000E+00 0.  1.
     999900   -1    0    0    0    0 -0.00000000000E+00 -0.00000000000E+00 -0.74505805969E-08  0.93827000000E+00  0.93827000000E+00 0.  1.
     999902    2    1    2    0    0 -0.19161558835E-02 -0.83254706501E-03  0.23533132603E-01  0.10203043123E+01  0.10200307430E+01 0.  0.
     999903    2    3    3    0    0  0.75968476924E-01  0.10305557039E+00 -0.11052163242E-01  0.13010495282E+00  0.20334413222E-01 0.  0.
         14    1    1    2    0    0  0.19161558835E-02  0.83254706501E-03 -0.23533132603E-01  0.23625687675E-01  0.00000000000E+00 0. -1.
     999901    1    3    3    0    0 -0.77884632807E-01 -0.10388811746E+00  0.34585295845E-01  0.89019935951E+00  0.88000000000E+00 0. -1.
        -11    1    4    4    0    0  0.97797115060E-02  0.25519732612E-01 -0.62844298502E-02  0.28047365104E-01  0.51100000000E-03 0.  1.
         11    1    4    4    0    0  0.66188765418E-01  0.77535837779E-01 -0.47677333917E-02  0.10205758772E+00  0.51100000000E-03 0. -1.
</event>
<event>
 8    1  0.1083484E+005  0.1043930E+01  0.7957747E-01            NaN
         13   -1    0    0    0    0  0.00000000000E+00  0.00000000000E+00  0.74505805969E-08  0.10566000000E+00  0.10566000000E+00 0. -1.
     999900   -1    0    0    0    0 -0.00000000000E+00 -0.00000000000E+00 -0.74505805969E-08  0.93827000000E+00  0.93827000000E+00 0.  1.
     999902    2    1    2    0    0 -0.11846981008E-03  0.15271607523E-01 -0.18756034044E-01  0.10197427132E+01  0.10194558236E+01 0.  0.
     999903    2    3    3    0    0  0.12363711267E+00  0.60658261832E-02  0.32415840694E-01  0.12956365737E+00  0.20323009340E-01 0.  0.
         14    1    1    2    0    0  0.11846981008E-03 -0.15271607523E-01  0.18756034044E-01  0.24187286836E-01  0.00000000000E+00 0. -1.
     999901    1    3    3    0    0 -0.12375558248E+00  0.92057813398E-02 -0.51171874737E-01  0.89017905579E+00  0.88000000000E+00 0.  1.
        -11    1    4    4    0    0  0.11445447868E+00  0.91065837075E-02  0.25373010769E-01  0.11758744981E+00  0.51100000000E-03 0. -1.
         11    1    4    4    0    0  0.91826339881E-02 -0.30407575243E-02  0.70428299247E-02  0.11976207565E-01  0.51100000000E-03 0.  1.
</event>
<event>
 8    1  0.1083484E+005  0.1043930E+01  0.7957747E-01            NaN
         13   -1    0    0    0    0  0.00000000000E+00  0.00000000000E+00  0.74505805969E-08  0.10566000000E+00  0.10566000000E+00 0. -1.
     999900   -1    0    0    0    0 -0.00000000000E+00 -0.00000000000E+00 -0.74505805969E-08  0.93827000000E+00  0.93827000000E+00 0. -1.
     999902    2    1    2    0    0 -0.12632589856E-01  0.15018563994E-01 -0.13429540246E-01  0.10201499213E+01  0.10198727224E+01 0.  0.
     999903    2    3    3    0    0 -0.64094626675E-01 -0.78105565031E-01 -0.81488591405E-01  0.13113221672E+00  0.18619003083E-01 0.  0.
         14    1    1    2    0    0  0.12632589856E-01 -0.15018563994E-01  0.13429540246E-01  0.23780078682E-01  0.00000000000E+00 0. -1.
     999901    1    3    3    0    0  0.51462036819E-01  0.93124129025E-01  0.68059051159E-01  0.88901770460E+00  0.88000000000E+00 0.  1.
        -11    1    4    4    0    0 -0.11012582392E-01 -0.22878947869E-01 -0.27392250907E-01  0.37353979136E-01  0.51100000000E-03 0.  1.
         11    1    4    4    0    0 -0.53082044283E-01 -0.55226617162E-01 -0.54096340498E-01  0.93778237586E-01  0.51100000000E-03 0. -1.
</event>
<event>
 8    1  0.1083484E+005  0.1043930E+01  0.7957747E-01            NaN
         13   -1    0    0    0    0  0.00000000000E+00  0.00000000000E+00  0.74505805969E-08  0.10566000000E+00  0.10566000000E+00 0.  1.
     999900   -1    0    0    0    0 -0.00000000000E+00 -0.00000000000E+00 -0.74505805969E-08  0.93827000000E+00  0.93827000000E+00 0. -1.
     999902    2    1    2    0    0  0.22234061344E-01  0.42625186904E-02  0.21284241670E-01  0.10128568365E+01  0.10123800816E+01 0.  0.
     999903    2    3    3    0    0 -0.49185845076E-01  0.86915967189E-01 -0.65759656975E-01  0.12184110378E+00  0.23394216718E-01 0.  0.
         14    1    1    2    0    0 -0.22234061344E-01 -0.42625186904E-02 -0.21284241670E-01  0.31073163549E-01  0.00000000000E+00 0. -1.
     999901    1    3    3    0    0  0.71419906420E-01 -0.82653448498E-01  0.87043898646E-01  0.89101573267E+00  0.88000000000E+00 0.  1.
        -11    1    4    4    0    0 -0.21686583691E-01  0.60378197822E-01 -0.44814056503E-01  0.78258516890E-01  0.51100000000E-03 0. -1.
         11    1    4    4    0    0 -0.27499261385E-01  0.26537769366E-01 -0.20945600472E-01  0.43582586887E-01  0.51100000000E-03 0.  1.
</event>
<event>
 8    1  0.1083484E+005  0.1043930E+01  0.7957747E-01            NaN
         13   -1    0    0    0    0  0.00000000000E+00  0.00000000000E+00  0.74505805969E-08  0.10566000000E+00  0.10566000000E+00 0. -1.
     999900   -1    0    0    0    0 -0.00000000000E+00 -0.00000000000E+00 -0.74505805969E-08  0.93827000000E+00  0.93827000000E+00 0.  1.
     999902    2    1    2    0    0 -0.17183873462E-01  0.36397577089E-02  0.15327504476E-01  0.10206176484E+01  0.10203513701E+01 0.  0.
     999903    2    3    3    0    0 -0.97088602381E-01 -0.62711186964E-01  0.63240194467E-01  0.13321534988E+00  0.19700699624E-01 0.  0.
         14    1    1    2    0    0  0.17183873462E-01 -0.36397577089E-02 -0.15327504476E-01  0.23312351593E-01  0.00000000000E+00 0. -1.
     999901    1    3    3    0    0  0.79904728920E-01  0.66350944673E-01 -0.47912689991E-01  0.88740229852E+00  0.88000000000E+00 0.  1.
        -11    1    4    4    0    0 -0.17771568671E-01 -0.17845847252E-01  0.70594842690E-02  0.26161046545E-01  0.51100000000E-03 0.  1.
         11    1    4    4    0    0 -0.79317033710E-01 -0.44865339712E-01  0.56180710198E-01  0.10705430334E+00  0.51100000000E-03 0. -1.
</event>
<event>
 8    1  0.1083484E+005  0.1043930E+01  0.7957747E-01            NaN
         13   -1    0    0    0    0  0.00000000000E+00  0.00000000000E+00  0.74505805969E-08  0.10566000000E+00  0.10566000000E+00 0.  1.
     999900   -1    0    0    0    0 -0.00000000000E+00 -0.00000000000E+00 -0.74505805969E-08  0.93827000000E+00  0.93827000000E+00 0. -1.
     999902    2    1    2    0    0  0.31076880231E-02  0.23481950453E-01  0.26808271366E-02  0.10200920774E+01  0.10198135122E+01 0.  0.
     999903    2    3    3    0    0  0.97098066534E-02 -0.10226792880E+00  0.74180556142E-01  0.12825754598E+00  0.19855316290E-01 0.  0.
         14    1    1    2    0    0 -0.31076880231E-02 -0.23481950453E-01 -0.26808271366E-02  0.23837922645E-01  0.00000000000E+00 0. -1.
     999901    1    3    3    0    0 -0.66021186304E-02  0.12574987925E+00 -0.71499729005E-01  0.89183453137E+00  0.88000000000E+00 0. -1.
        -11    1    4    4    0    0  0.12420664564E-01 -0.36850971371E-01  0.32082978168E-01  0.50416719532E-01  0.51100000000E-03 0. -1.
         11    1    4    4    0    0 -0.27108579103E-02 -0.65416957430E-01  0.42097577974E-01  0.77840826449E-01  0.51100000000E-03 0.  1.
</event>
<event>
 8    1  0.1083484E+005  0.1043930E+01  0.7957747E-01            NaN
         13   -1    0    0    0    0  0.00000000000E+00  0.00000000000E+00  0.74505805969E-08  0.10566000000E+00  0.10566000000E+00 0.  1.
     999900   -1    0    0    0    0 -0.00000000000E+00 -0.00000000000E+00 -0.74505805969E-08  0.93827000000E+00  0.93827000000E+00 0.  1.
     999902    2    1    2    0    0  0.18129244106E-01 -0.17760365632E-01 -0.36802386466E-02  0.10182854248E+01  0.10179624562E+01 0.  0.
     999903    2    3    3    0    0  0.87748759360E-01 -0.86951324915E-01 -0.42037373781E-01  0.13199792319E+00  0.19898071705E-01 0.  0.
         14    1    1    2    0    0 -0.18129244106E-01  0.17760365632E-01  0.36802386466E-02  0.25644575172E-01  0.00000000000E+00 0. -1.
     999901    1    3    3    0    0 -0.69619515254E-01  0.69190959283E-01  0.38357135134E-01  0.88628750164E+00  0.88000000000E+00 0. -1.
        -11    1    4    4    0    0  0.13608170707E-01 -0.23550413197E-01 -0.50579165265E-02  0.27670343553E-01  0.51100000000E-03 0. -1.
         11    1    4    4    0    0  0.74140588652E-01 -0.63400911718E-01 -0.36979457254E-01  0.10432757963E+00  0.51100000000E-03 0.  1.
</event>
<event>
 8    1  0.1083484E+005  0.1043930E+01  0.7957747E-01            NaN
         13   -1    0    0    0    0  0.00000000000E+00  0.00000000000E+00  0.74505805969E-08  0.10566000000E+00  0.10566000000E+00 0. -1.
     999900   -1    0    0    0    0 -0.00000000000E+00 -0.00000000000E+00 -0.74505805969E-08  0.93827000000E+00  0.93827000000E+00 0. -1.
     999902    2    1    2    0    0  0.14722185856E-01 -0.12738471050E-01 -0.13620912199E-01  0.10201699358E+01  0.10198932088E+01 0.  0.
     999903    2    3    3    0    0 -0.92654040969E-01  0.86040603326E-01 -0.27413841867E-02  0.12809072198E+00  0.20296825901E-01 0.  0.
         14    1    1    2    0    0 -0.14722185856E-01  0.12738471050E-01  0.13620912199E-01  0.23760064187E-01  0.00000000000E+00 0. -1.
     999901    1    3    3    0    0  0.10737622682E+00 -0.98779074376E-01 -0.10879528012E-01  0.89207921383E+00  0.88000000000E+00 0.  1.
        -11    1    4    4    0    0 -0.56094435073E-01  0.39259976321E-01 -0.51838365570E-02  0.68666328497E-01  0.51100000000E-03 0.  1.
         11    1    4    4    0    0 -0.36559605896E-01  0.46780627005E-01  0.24424523703E-02  0.59424393483E-01  0.51100000000E-03 0. -1.
</event>
<event>
 8    1  0.1083484E+005  0.1043930E+01  0.7957747E-01            NaN
         13   -1    0    0    0    0  0.00000000000E+00  0.00000000000E+00  0.74505805969E-08  0.10566000000E+00  0.10566000000E+00 0.  1.
     999900   -1    0    0    0    0 -0.00000000000E+00 -0.00000000000E+00 -0.74505805969E-08  0.93827000000E+00  0.93827000000E+00 0. -1.
     999902    2    1    2    0    0  0.11422166429E-01  0.17859744937E-01  0.93484214662E-02  0.10207604217E+01  0.10204974322E+01 0.  0.
     999903    2    3    3    0    0  0.34086593867E-01 -0.51688410726E-01 -0.11180366719E+00  0.12945326318E+00  0.20603389636E-01 0.  0.
         14    1    1    2    0    0 -0.11422166429E-01 -0.17859744937E-01 -0.93484214662E-02  0.23169578310E-01  0.00000000000E+00 0. -1.
     999901    1    3    3    0    0 -0.22664427438E-01  0.69548155663E-01  0.12115208866E+00  0.89130715851E+00  0.88000000000E+00 0.  1.
        -11    1    4    4    0    0  0.14491417455E-01 -0.94492759362E-02 -0.43205441621E-01  0.46543112296E-01  0.51100000000E-03 0.  1.
         11    1    4    4    0    0  0.19595176413E-01 -0.42239134790E-01 -0.68598225574E-01  0.82910150882E-01  0.51100000000E-03 0. -1.
</event>
<event>
 8    1  0.1083484E+005  0.1043930E+01  0.7957747E-01            NaN
         13   -1    0    0    0    0  0.00000000000E+00  0.00000000000E+00  0.74505805969E-08  0.10566000000E+00  0.10566000000E+00 0. -1.
     999900   -1    0    0    0    0 -0.00000000000E+00 -0.00000000000E+00 -0.74505805969E-08  0.93827000000E+00  0.93827000000E+00 0. -1.
     999902    2    1    2    0    0  0.13764575989E-02 -0.46391097584E-02  0.25720809457E-01  0.10177579536E+01  0.10174213857E+01 0.  0.
     999903    2    3    3    0    0  0.12657864556E+00 -0.38256435980E-02  0.13599347681E-01  0.12881297247E+00  0.19262672686E-01 0.  0.
         14    1    1    2    0    0 -0.13764575989E-02  0.46391097584E-02 -0.25720809457E-01  0.26172046424E-01  0.00000000000E+00 0.  1.
     999901    1    3    3    0    0 -0.12520218796E+00 -0.81346616035E-03  0.12121461776E-01  0.88894498111E+00  0.88000000000E+00 0. -1.
        -11    1    4    4    0    0  0.39273990777E-01  0.19386515334E-02  0.12656512382E-01  0.41311658741E-01  0.51100000000E-03 0. -1.
         11    1    4    4    0    0  0.87304654782E-01 -0.57642951314E-02  0.94283529960E-03  0.87501313730E-01  0.51100000000E-03 0.  1.
</event>
<event>
 8    1  0.1083484E+005  0.1043930E+01  0.7957747E-01            NaN
         13   -1    0    0    0    0  0.00000000000E+00  0.00000000000E+00  0.74505805969E-08  0.10566000000E+00  0.10566000000E+00 0. -1.
     999900   -1    0    0    0    0 -0.00000000000E+00 -0.00000000000E+00 -0.74505805969E-08  0.93827000000E+00  0.93827000000E+00 0. -1.
     999902    2    1    2    0    0 -0.15886939116E-02 -0.86071201664E-02  0.23249343715E-01  0.10190877286E+01  0.10187848939E+01 0.  0.
     999903    2    3    3    0    0 -0.10179231802E+00  0.61911981270E-01  0.48497722591E-01  0.13023949036E+00  0.20384462743E-01 0.  0.
         14    1    1    2    0    0  0.15886939116E-02  0.86071201664E-02 -0.23249343715E-01  0.24842271415E-01  0.00000000000E+00 0.  1.
     999901    1    3    3    0    0  0.10020362411E+00 -0.70519101437E-01 -0.25248378877E-01  0.88884823822E+00  0.88000000000E+00 0. -1.
        -11    1    4    4    0    0 -0.41209788461E-01  0.14167067216E-01  0.14344945032E-01  0.45880181206E-01  0.51100000000E-03 0.  1.
         11    1    4    4    0    0 -0.60582529558E-01  0.47744914054E-01  0.34152777559E-01  0.84359309158E-01  0.51100000000E-03 0. -1.
</event>
<event>
 8    1  0.1083484E+005  0.1043930E+01  0.7957747E-01            NaN
         13   -1    0    0    0    0  0.00000000000E+00  0.00000000000E+00  0.74505805969E-08  0.10566000000E+00  0.10566000000E+00 0.  1.
     999900   -1    0    0    0    0 -0.00000000000E+00 -0.00000000000E+00 -0.74505805969E-08  0.93827000000E+00  0.93827000000E+00 0.  1.
     999902    2    1    2    0    0  0.16848575285E-01  0.86832450351E-02  0.99726670041E-02  0.10225120795E+01  0.10222877410E+01 0.  0.
     999903    2    3    3    0    0  0.64236321094E-01  0.11622082217E+00 -0.82067069681E-02  0.13451409602E+00  0.19826939608E-01 0.  0.
         14    1    1    2    0    0 -0.16848575285E-01 -0.86832450351E-02 -0.99726670041E-02  0.21417920549E-01  0.00000000000E+00 0.  1.
     999901    1    3    3    0    0 -0.47387745810E-01 -0.10753757713E+00  0.18179373972E-01  0.88799798344E+00  0.88000000000E+00 0. -1.
        -11    1    4    4    0    0  0.55293077130E-01  0.98215368023E-01 -0.14020303447E-01  0.11357998470E+00  0.51100000000E-03 0.  1.
         11    1    4    4    0    0  0.89432439639E-02  0.18005454146E-01  0.58135964787E-02  0.20934111316E-01  0.51100000000E-03 0. -1.
</event>
<event>
 8    1  0.1083484E+005  0.1043930E+01  0.7957747E-01            NaN
         13   -1    0    0    0    0  0.00000000000E+00  0.00000000000E+00  0.74505805969E-08  0.10566000000E+00  0.10566000000E+00 0.  1.
     999900   -1    0    0    0    0 -0.00000000000E+00 -0.00000000000E+00 -0.74505805969E-08  0.93827000000E+00  0.93827000000E+00 0.  1.
     999902    2    1    2    0    0  0.21196280077E-01  0.62690890936E-02 -0.78760254092E-02  0.10204648014E+01  0.10201949791E+01 0.  0.
     999903    2    3    3    0    0 -0.24948484560E-01  0.48184184859E-01  0.11589562533E+00  0.12961934005E+00  0.20621221898E-01 0.  0.
         14    1    1    2    0    0 -0.21196280077E-01 -0.62690890936E-02  0.78760254092E-02  0.23465198559E-01  0.00000000000E+00 0.  1.
     999901    1    3    3    0    0  0.46144764637E-01 -0.41915095765E-01 -0.12377165074E+00  0.89084546139E+00  0.88000000000E+00 0.  1.
        -11    1    4    4    0    0 -0.12314146793E-01  0.22723314986E-01  0.78488951358E-01  0.82636334995E-01  0.51100000000E-03 0. -1.
         11    1    4    4    0    0 -0.12634337767E-01  0.25460869873E-01  0.37406673970E-01  0.46983005054E-01  0.51100000000E-03 0.  1.
</event>
<event>
 8    1  0.1083484E+005  0.1043930E+01  0.7957747E-01            NaN
         13   -1    0    0    0    0  0.00000000000E+00  0.00000000000E+00  0.74505805969E-08  0.10566000000E+00  0.10566000000E+00 0. -1.
     999900   -1    0    0    0    0 -0.00000000000E+00 -0.00000000000E+00 -0.74505805969E-08  0.93827000000E+00  0.93827000000E+00 0. -1.
     999902    2    1    2    0    0 -0.78328528856E-02  0.14636021191E-01 -0.65265611680E-02  0.10260928842E+01  0.10259378364E+01 0.  0.
     999903    2    3    3    0    0  0.29403870609E-01  0.79553436379E-01  0.10563916793E+00  0.13582214155E+00  0.97305440459E-02 0.  0.
         14    1    1    2    0    0  0.78328528856E-02 -0.14636021191E-01  0.65265611680E-02  0.17837115835E-01  0.00000000000E+00 0. -1.
     999901    1    3    3    0    0 -0.37236723494E-01 -0.64917415188E-01 -0.11216572910E+00  0.89027074261E+00  0.88000000000E+00 0. -1.
        -11    1    4    4    0    0  0.24584223055E-01  0.54208101014E-01  0.75602396356E-01  0.96223103746E-01  0.51100000000E-03 0. -1.
         11    1    4    4    0    0  0.48196475542E-02  0.25345335365E-01  0.30036771576E-01  0.39599037804E-01  0.51100000000E-03 0.  1.
</event>
<event>
 8    1  0.1083484E+005  0.1043930E+01  0.7957747E-01            NaN
         13   -1    0    0    0    0  0.00000000000E+00  0.00000000000E+00  0.74505805969E-08  0.10566000000E+00  0.10566000000E+00 0.  1.
     999900   -1    0    0    0    0 -0.00000000000E+00 -0.00000000000E+00 -0.74505805969E-08  0.93827000000E+00  0.93827000000E+00 0.  1.
     999902    2    1    2    0    0  0.12156314971E-01 -0.19576935094E-01 -0.78429348599E-02  0.10195877731E+01  0.10192971515E+01 0.  0.
     999903    2    3    3    0    0  0.72497971906E-01 -0.10805224225E+00 -0.19291136131E-01  0.13302133070E+00  0.19780887318E-01 0.  0.
         14    1    1    2    0    0 -0.12156314971E-01  0.19576935094E-01  0.78429348599E-02  0.24342226862E-01  0.00000000000E+00 0. -1.
     999901    1    3    3    0    0 -0.60341656935E-01  0.88475307157E-01  0.11448201271E-01  0.88656644243E+00  0.88000000000E+00 0. -1.
        -11    1    4    4    0    0  0.61907872483E-01 -0.79173405503E-01 -0.10653647678E-01  0.10106816583E+00  0.51100000000E-03 0. -1.
         11    1    4    4    0    0  0.10590099422E-01 -0.28878836748E-01 -0.86374884530E-02  0.31953164874E-01  0.51100000000E-03 0.  1.
</event>
<event>
 8    1  0.1083484E+005  0.1043930E+01  0.7957747E-01            NaN
         13   -1    0    0    0    0  0.00000000000E+00  0.00000000000E+00  0.74505805969E-08  0.10566000000E+00  0.10566000000E+00 0. -1.
     999900   -1    0    0    0    0 -0.00000000000E+00 -0.00000000000E+00 -0.74505805969E-08  0.93827000000E+00  0.93827000000E+00 0.  1.
     999902    2    1    2    0    0 -0.12111225212E-02  0.21402039172E-01 -0.75651041239E-02  0.10211979764E+01  0.10209449358E+01 0.  0.
     999903    2    3    3    0    0  0.86159333182E-01 -0.45007386764E-01 -0.85447431491E-01  0.13096796939E+00  0.20056168654E-01 0.  0.
         14    1    1    2    0    0  0.12111225212E-02 -0.21402039172E-01  0.75651041239E-02  0.22732023642E-01  0.00000000000E+00 0. -1.
     999901    1    3    3    0    0 -0.87370455703E-01  0.66409425936E-01  0.77882327367E-01  0.89023000696E+00  0.88000000000E+00 0. -1.
        -11    1    4    4    0    0  0.30095318380E-01 -0.24526001002E-01 -0.26022352508E-01  0.46740527004E-01  0.51100000000E-03 0.  1.
         11    1    4    4    0    0  0.56064014801E-01 -0.20481385762E-01 -0.59425078983E-01  0.84227442390E-01  0.51100000000E-03 0. -1.
</event>
<event>
 8    1  0.1083484E+005  0.1043930E+01  0.7957747E-01            NaN
         13   -1    0    0    0    0  0.00000000000E+00  0.00000000000E+00  0.74505805969E-08  0.10566000000E+00  0.10566000000E+00 0. -1.
     999900   -1    0    0    0    0 -0.00000000000E+00 -0.00000000000E+00 -0.74505805969E-08  0.93827000000E+00  0.93827000000E+00 0. -1.
     999902    2    1    2    0    0  0.10683922832E-01 -0.76461855551E-02  0.20976265389E-01  0.10191789582E+01  0.10188783709E+01 0.  0.
     999903    2    3    3    0    0 -0.67869936976E-01 -0.89358666031E-01 -0.59061998166E-01  0.12830648585E+00  0.19568728716E-01 0.  0.
         14    1    1    2    0    0 -0.10683922832E-01  0.76461855551E-02 -0.20976265389E-01  0.24751041802E-01  0.00000000000E+00 0.  1.
     999901    1    3    3    0    0  0.78553859809E-01  0.81712480476E-01  0.80038263555E-01  0.89087247235E+00  0.88000000000E+00 0.  1.
        -11    1    4    4    0    0 -0.62427869851E-01 -0.85415525393E-01 -0.50014778470E-01  0.11702474140E+00  0.51100000000E-03 0. -1.
         11    1    4    4    0    0 -0.54420671249E-02 -0.39431406382E-02 -0.90472196962E-02  0.11281744454E-01  0.51100000000E-03 0.  1.
</event>
<event>
 8    1  0.1305929E+005  0.1043930E+01  0.7957747E-01            NaN
         13   -1    0    0    0    0  0.00000000000E+00  0.00000000000E+00  0.74505805969E-08  0.10566000000E+00  0.10566000000E+00 0. -1.
     999900   -1    0    0    0    0 -0.00000000000E+00 -0.00000000000E+00 -0.74505805969E-08  0.93827000000E+00  0.93827000000E+00 0. -1.
     999902    2    1    2    0    0 -0.19286445215E-01 -0.85598782645E-03 -0.12946343424E-01  0.10206854847E+01  0.10204207716E+01 0.  0.
     999903    2    3    3    0    0  0.71137968694E-01  0.48339954055E-01  0.93287913367E-01  0.12833884092E+00  0.19257766215E-01 0.  0.
         14    1    1    2    0    0  0.19286445215E-01  0.85598782645E-03  0.12946343424E-01  0.23244515315E-01  0.00000000000E+00 0. -1.
     999901    1    3    3    0    0 -0.90424413909E-01 -0.49195941882E-01 -0.10623425679E+00  0.89234664377E+00  0.88000000000E+00 0. -1.
        -11    1    4    4    0    0  0.28395024879E-01  0.15185762542E-01  0.47922275411E-01  0.57738119327E-01  0.51100000000E-03 0. -1.
         11    1    4    4    0    0  0.42742943815E-01  0.33154191513E-01  0.45365637956E-01  0.70600721590E-01  0.51100000000E-03 0.  1.
</event>
<event>
 8    1  0.1083484E+005  0.1043930E+01  0.7957747E-01            NaN
         13   -1    0    0    0    0  0.00000000000E+00  0.00000000000E+00  0.74505805969E-08  0.10566000000E+00  0.10566000000E+00 0.  1.
     999900   -1    0    0    0    0 -0.00000000000E+00 -0.00000000000E+00 -0.74505805969E-08  0.93827000000E+00  0.93827000000E+00 0. -1.
     999902    2    1    2    0    0 -0.15288026178E-01 -0.15683268722E-01 -0.87536081894E-02  0.10203436837E+01  0.10200710360E+01 0.  0.
     999903    2    3    3    0    0  0.61401832959E-01 -0.83706854858E-01 -0.78437260060E-01  0.13165681299E+00  0.20101989934E-01 0.  0.
         14    1    1    2    0    0  0.15288026178E-01  0.15683268722E-01  0.87536081894E-02  0.23586316341E-01  0.00000000000E+00 0. -1.
     999901    1    3    3    0    0 -0.76689859137E-01  0.68023586136E-01  0.69683651871E-01  0.88868687067E+00  0.88000000000E+00 0.  1.
        -11    1    4    4    0    0  0.21444628478E-01 -0.37430269876E-01 -0.43367228808E-01  0.61170866015E-01  0.51100000000E-03 0.  1.
         11    1    4    4    0    0  0.39957204482E-01 -0.46276584982E-01 -0.35070031252E-01  0.70485946973E-01  0.51100000000E-03 0. -1.
</event>
<event>
 7    1  0.1083484E+005  0.1043930E+01  0.7957747E-01            NaN
         13   -1    0    0    0    0  0.00000000000E+00  0.00000000000E+00  0.74505805969E-08  0.10566000000E+00  0.10566000000E+00 0. -1.
     999900   -1    0    0    0    0 -0.00000000000E+00 -0.00000000000E+00 -0.74505805969E-08  0.93827000000E+00  0.93827000000E+00 0.  1.
     999903    2    1    2    0    0  0.58051489702E-01 -0.10028948412E-01 -0.97988938135E-01  0.11588263860E+00  0.18878524026E-01 0.  0.
         14    1    1    2    0    0  0.86883106514E-02  0.38662836493E-01  0.85387652114E-02  0.40536553615E-01  0.00000000000E+00 0.  1.
     999901    1    1    2    0    0 -0.66739800354E-01 -0.28633888081E-01  0.89450172923E-01  0.88751080778E+00  0.88000000000E+00 0. -1.
        -11    1    3    3    0    0  0.29287493245E-01 -0.60912288409E-02 -0.32108813006E-01  0.43887325311E-01  0.51100000000E-03 0. -1.
         11    1    3    3    0    0  0.28763996458E-01 -0.39377195710E-02 -0.65880125129E-01  0.71995313289E-01  0.51100000000E-03 0.  1.
</event>
<event>
 8    1  0.1083484E+005  0.1043930E+01  0.7957747E-01            NaN
         13   -1    0    0    0    0  0.00000000000E+00  0.00000000000E+00  0.74505805969E-08  0.10566000000E+00  0.10566000000E+00 0. -1.
     999900   -1    0    0    0    0 -0.00000000000E+00 -0.00000000000E+00 -0.74505805969E-08  0.93827000000E+00  0.93827000000E+00 0.  1.
     999902    2    1    2    0    0 -0.13426414320E-01 -0.18829475259E-01  0.35892696017E-02  0.10205269960E+01  0.10202586187E+01 0.  0.
     999903    2    3    3    0    0 -0.28278763974E-01 -0.78311258695E-01  0.10153292771E+00  0.13297325959E+00  0.20990727123E-01 0.  0.
         14    1    1    2    0    0  0.13426414320E-01  0.18829475259E-01 -0.35892696017E-02  0.23403004001E-01  0.00000000000E+00 0.  1.
     999901    1    3    3    0    0  0.14852349654E-01  0.59481783435E-01 -0.97943658112E-01  0.88755373641E+00  0.88000000000E+00 0.  1.
        -11    1    4    4    0    0 -0.39203774213E-02 -0.11064858690E-01  0.28132479121E-01  0.30487668973E-01  0.51100000000E-03 0. -1.
         11    1    4    4    0    0 -0.24358386553E-01 -0.67246400004E-01  0.73400448594E-01  0.10248559062E+00  0.51100000000E-03 0.  1.
</event>
<event>
 8    1  0.1083484E+005  0.1043930E+01  0.7957747E-01            NaN
         13   -1    0    0    0    0  0.00000000000E+00  0.00000000000E+00  0.74505805969E-08  0.10566000000E+00  0.10566000000E+00 0.  1.
     999900   -1    0    0    0    0 -0.00000000000E+00 -0.00000000000E+00 -0.74505805969E-08  0.93827000000E+00  0.93827000000E+00 0.  1.
     999902    2    1    2    0    0 -0.95356114760E-02 -0.14741889335E-04 -0.21338403952E-01  0.10205578887E+01  0.10202902276E+01 0.  0.
     999903    2    3    3    0    0  0.25645050032E-02  0.55504124336E-01 -0.11962768800E+00  0.13326450955E+00  0.19009504577E-01 0.  0.
         14    1    1    2    0    0  0.95356114760E-02  0.14741889335E-04  0.21338403952E-01  0.23372111303E-01  0.00000000000E+00 0.  1.
     999901    1    3    3    0    0 -0.12100116479E-01 -0.55518866225E-01  0.98289284048E-01  0.88729337915E+00  0.88000000000E+00 0. -1.
        -11    1    4    4    0    0  0.68671546357E-02  0.67617474236E-02 -0.23311076619E-01  0.25229872278E-01  0.51100000000E-03 0. -1.
         11    1    4    4    0    0 -0.43026496325E-02  0.48742376912E-01 -0.96316611381E-01  0.10803463727E+00  0.51100000000E-03 0.  1.
</event>
<event>
 8    1  0.1083484E+005  0.1043930E+01  0.7957747E-01            NaN
         13   -1    0    0    0    0  0.00000000000E+00  0.00000000000E+00  0.74505805969E-08  0.10566000000E+00  0.10566000000E+00 0.  1.
     999900   -1    0    0    0    0 -0.00000000000E+00 -0.00000000000E+00 -0.74505805969E-08  0.93827000000E+00  0.93827000000E+00 0.  1.
     999902    2    1    2    0    0 -0.19529549755E-01  0.12586390533E-01  0.73111310865E-02  0.10195728003E+01  0.10192818167E+01 0.  0.
     999903    2    3    3    0    0 -0.12280665881E+00  0.42142122090E-01  0.22026178022E-01  0.13291828181E+00  0.18018968284E-01 0.  0.
         14    1    1    2    0    0  0.19529549755E-01 -0.12586390533E-01 -0.73111310865E-02  0.24357199717E-01  0.00000000000E+00 0.  1.
     999901    1    3    3    0    0  0.10327710906E+00 -0.29555731557E-01 -0.14715046936E-01  0.88665451847E+00  0.88000000000E+00 0.  1.
        -11    1    4    4    0    0 -0.61025316729E-01  0.26508057712E-01  0.18639819708E-01  0.69097542686E-01  0.51100000000E-03 0.  1.
         11    1    4    4    0    0 -0.61781342084E-01  0.15634064378E-01  0.33863583141E-02  0.63820739124E-01  0.51100000000E-03 0. -1.
</event>
<event>
 8    1  0.1083484E+005  0.1043930E+01  0.7957747E-01            NaN
         13   -1    0    0    0    0  0.00000000000E+00  0.00000000000E+00  0.74505805969E-08  0.10566000000E+00  0.10566000000E+00 0.  1.
     999900   -1    0    0    0    0 -0.00000000000E+00 -0.00000000000E+00 -0.74505805969E-08  0.93827000000E+00  0.93827000000E+00 0.  1.
     999902    2    1    2    0    0 -0.16305923571E-02  0.21636039416E-01 -0.10999336501E-01  0.10196038323E+01  0.10193135986E+01 0.  0.
     999903    2    3    3    0    0 -0.55923632796E-01 -0.11257746728E+00  0.87397394599E-02  0.12755527376E+00  0.19819837861E-01 0.  0.
         14    1    1    2    0    0  0.16305923571E-02 -0.21636039416E-01  0.10999336501E-01  0.24326167731E-01  0.00000000000E+00 0. -1.
     999901    1    3    3    0    0  0.54293040439E-01  0.13421350670E+00 -0.19739075961E-01  0.89204855851E+00  0.88000000000E+00 0. -1.
        -11    1    4    4    0    0 -0.28302431829E-01 -0.36919971889E-01 -0.14687801100E-03  0.46523055208E-01  0.51100000000E-03 0.  1.
         11    1    4    4    0    0 -0.27621200966E-01 -0.75657495394E-01  0.88866174709E-02  0.81032218551E-01  0.51100000000E-03 0. -1.
</event>
<event>
 8    1  0.1083484E+005  0.1043930E+01  0.7957747E-01            NaN
         13   -1    0    0    0    0  0.00000000000E+00  0.00000000000E+00  0.74505805969E-08  0.10566000000E+00  0.10566000000E+00 0. -1.
     999900   -1    0    0    0    0 -0.00000000000E+00 -0.00000000000E+00 -0.74505805969E-08  0.93827000000E+00  0.93827000000E+00 0.  1.
     999902    2    1    2    0    0  0.81336722263E-02  0.13578720726E-01  0.17996139293E-01  0.10199633709E+01  0.10196817536E+01 0.  0.
     999903    2    3    3    0    0  0.59570480766E-01 -0.28719425931E-01  0.11258052292E+00  0.13239304462E+00  0.21911104929E-01 0.  0.
         14    1    1    2    0    0 -0.81336722263E-02 -0.13578720726E-01 -0.17996139293E-01  0.23966629089E-01  0.00000000000E+00 0. -1.
     999901    1    3    3    0    0 -0.51436808539E-01  0.42298146656E-01 -0.94584383626E-01  0.88757032629E+00  0.88000000000E+00 0.  1.
        -11    1    4    4    0    0  0.90345552218E-02 -0.11705272299E-01  0.14293164469E-01  0.20571637251E-01  0.51100000000E-03 0. -1.
         11    1    4    4    0    0  0.50535925544E-01 -0.17014153631E-01  0.98287358450E-01  0.11182140737E+00  0.51100000000E-03 0.  1.
</event>
<event>
 8    1  0.1083484E+005  0.1043930E+01  0.7957747E-01            NaN
         13   -1    0    0    0    0  0.00000000000E+00  0.00000000000E+00  0.74505805969E-08  0.10566000000E+00  0.10566000000E+00 0.  1.
     999900   -1    0    0    0    0 -0.00000000000E+00 -0.00000000000E+00 -0.74505805969E-08  0.93827000000E+00  0.93827000000E+00 0.  1.
     999902    2    1    2    0    0  0.13302478254E-01 -0.14942421091E-01 -0.10560234072E-01  0.10213080987E+01  0.10210575312E+01 0.  0.
     999903    2    3    3    0    0 -0.54513090734E-01 -0.72273391413E-01  0.92105133419E-01  0.13090034420E+00  0.21364089996E-01 0.  0.
         14    1    1    2    0    0 -0.13302478254E-01  0.14942421091E-01  0.10560234072E-01  0.22621901322E-01  0.00000000000E+00 0.  1.
     999901    1    3    3    0    0  0.67815568988E-01  0.57330970322E-01 -0.10266536749E+00  0.89040775448E+00  0.88000000000E+00 0.  1.
        -11    1    4    4    0    0 -0.56295461614E-02 -0.10031594144E-01  0.23460859400E-01  0.26134224990E-01  0.51100000000E-03 0.  1.
         11    1    4    4    0    0 -0.48883544573E-01 -0.62241797269E-01  0.68644274019E-01  0.10476611921E+00  0.51100000000E-03 0. -1.
</event>
<event>
 8    1  0.1083484E+005  0.1043930E+01  0.7957747E-01            NaN
         13   -1    0    0    0    0  0.00000000000E+00  0.00000000000E+00  0.74505805969E-08  0.10566000000E+00  0.10566000000E+00 0. -1.
     999900   -1    0    0    0    0 -0.00000000000E+00 -0.00000000000E+00 -0.74505805969E-08  0.93827000000E+00  0.93827000000E+00 0. -1.
     999902    2    1    2    0    0  0.53613687200E-02  0.20276617232E-01  0.98194189566E-02  0.10207717084E+01  0.10205089780E+01 0.  0.
     999903    2    3    3    0    0  0.65066634144E-01  0.11482256207E+00  0.12395612408E-01  0.13369206645E+00  0.17379004138E-01 0.  0.
         14    1    1    2    0    0 -0.53613687200E-02 -0.20276617232E-01 -0.98194189566E-02  0.23158291594E-01  0.00000000000E+00 0.  1.
     999901    1    3    3    0    0 -0.59705265424E-01 -0.94545944838E-01 -0.25761934513E-02  0.88707964196E+00  0.88000000000E+00 0. -1.
        -11    1    4    4    0    0  0.21294077844E-01  0.39903814469E-01 -0.39146936562E-02  0.45401961498E-01  0.51100000000E-03 0. -1.
         11    1    4    4    0    0  0.43772556300E-01  0.74918747600E-01  0.16310306064E-01  0.88290104949E-01  0.51100000000E-03 0.  1.
</event>
<event>
 8    1  0.1083484E+005  0.1043930E+01  0.7957747E-01            NaN
         13   -1    0    0    0    0  0.00000000000E+00  0.00000000000E+00  0.74505805969E-08  0.10566000000E+00  0.10566000000E+00 0. -1.
     999900   -1    0    0    0    0 -0.00000000000E+00 -0.00000000000E+00 -0.74505805969E-08  0.93827000000E+00  0.93827000000E+00 0.  1.
     999902    2    1    2    0    0  0.43256071038E-02  0.21869288291E-01  0.89038419654E-02  0.10199246871E+01  0.10196421491E+01 0.  0.
     999903    2    3    3    0    0 -0.88017195483E-01  0.15180437411E-01 -0.91518709590E-01  0.12938742071E+00  0.19696650781E-01 0.  0.
         14    1    1    2    0    0 -0.43256071038E-02 -0.21869288291E-01 -0.89038419654E-02  0.24005312931E-01  0.00000000000E+00 0.  1.
     999901    1    3    3    0    0  0.92342802587E-01  0.66888508802E-02  0.10042255156E+00  0.89053726636E+00  0.88000000000E+00 0. -1.
        -11    1    4    4    0    0 -0.46061403692E-01  0.17621255132E-01 -0.46193179750E-01  0.67573904127E-01  0.51100000000E-03 0.  1.
         11    1    4    4    0    0 -0.41955791791E-01 -0.24408177214E-02 -0.45325529840E-01  0.61813516582E-01  0.51100000000E-03 0. -1.
</event>
<event>
 8    1  0.1083484E+005  0.1043930E+01  0.7957747E-01            NaN
         13   -1    0    0    0    0  0.00000000000E+00  0.00000000000E+00  0.74505805969E-08  0.10566000000E+00  0.10566000000E+00 0.  1.
     999900   -1    0    0    0    0 -0.00000000000E+00 -0.00000000000E+00 -0.74505805969E-08  0.93827000000E+00  0.93827000000E+00 0. -1.
     999902    2    1    2    0    0  0.13316308819E-01  0.21126895469E-01 -0.85376703381E-02  0.10175375464E+01  0.10171952107E+01 0.  0.
     999903    2    3    3    0    0  0.18438862343E-01 -0.11518024092E+00  0.44821364400E-01  0.12543157591E+00  0.10846473356E-01 0.  0.
         14    1    1    2    0    0 -0.13316308819E-01 -0.21126895469E-01  0.85376703381E-02  0.26392453610E-01  0.00000000000E+00 0.  1.
     999901    1    3    3    0    0 -0.51225535237E-02  0.13630713639E+00 -0.53359034738E-01  0.89210597048E+00  0.88000000000E+00 0. -1.
        -11    1    4    4    0    0  0.41124624069E-02 -0.40038434960E-01  0.10572723513E-01  0.41617691246E-01  0.51100000000E-03 0. -1.
         11    1    4    4    0    0  0.14326399936E-01 -0.75141805961E-01  0.34248640887E-01  0.83813884660E-01  0.51100000000E-03 0.  1.
</event>
<event>
 8    1  0.1083484E+005  0.1043930E+01  0.7957747E-01            NaN
         13   -1    0    0    0    0  0.00000000000E+00  0.00000000000E+00  0.74505805969E-08  0.10566000000E+00  0.10566000000E+00 0.  1.
     999900   -1    0    0    0    0 -0.00000000000E+00 -0.00000000000E+00 -0.74505805969E-08  0.93827000000E+00  0.93827000000E+00 0.  1.
     999902    2    1    2    0    0  0.17609879750E-01 -0.79691315994E-02 -0.13338271696E-01  0.10204454431E+01  0.10201751702E+01 0.  0.
     999903    2    3    3    0    0  0.51885643918E-01  0.89707055074E-01  0.75801753253E-01  0.12990548915E+00  0.19749798460E-01 0.  0.
         14    1    1    2    0    0 -0.17609879750E-01  0.79691315994E-02  0.13338271696E-01  0.23484556950E-01  0.00000000000E+00 0. -1.
     999901    1    3    3    0    0 -0.34275764168E-01 -0.97676186673E-01 -0.89140024949E-01  0.89053995390E+00  0.88000000000E+00 0.  1.
        -11    1    4    4    0    0  0.40106928926E-01  0.50572009282E-01  0.48816591872E-01  0.80928453795E-01  0.51100000000E-03 0.  1.
         11    1    4    4    0    0  0.11778714992E-01  0.39135045791E-01  0.26985161381E-01  0.48977035351E-01  0.51100000000E-03 0. -1.
</event>
<event>
 8    1  0.1083484E+005  0.1043930E+01  0.7957747E-01            NaN
         13   -1    0    0    0    0  0.00000000000E+00  0.00000000000E+00  0.74505805969E-08  0.10566000000E+00  0.10566000000E+00 0. -1.
     999900   -1    0    0    0    0 -0.00000000000E+00 -0.00000000000E+00 -0.74505805969E-08  0.93827000000E+00  0.93827000000E+00 0.  1.
     999902    2    1    2    0    0  0.18983023873E-01  0.11535451603E-01  0.52597012884E-02  0.10211026853E+01  0.10208474948E+01 0.  0.
     999903    2    3    3    0    0  0.79871219229E-01 -0.89347171947E-01  0.51549514891E-01  0.13204283190E+00  0.20386960918E-01 0.  0.
         14    1    1    2    0    0 -0.18983023873E-01 -0.11535451603E-01 -0.52597012884E-02  0.22827314706E-01  0.00000000000E+00 0. -1.
     999901    1    3    3    0    0 -0.60888195356E-01  0.10088262355E+00 -0.46289813602E-01  0.88905985339E+00  0.88000000000E+00 0.  1.
        -11    1    4    4    0    0  0.59398739569E-01 -0.70490928681E-01  0.30340887955E-01  0.97046441932E-01  0.51100000000E-03 0.  1.
         11    1    4    4    0    0  0.20472479659E-01 -0.18856243266E-01  0.21208626936E-01  0.34996389971E-01  0.51100000000E-03 0. -1.
</event>
<event>
 8    1  0.1083484E+005  0.1043930E+01  0.7957747E-01            NaN
         13   -1    0    0    0    0  0.00000000000E+00  0.00000000000E+00  0.74505805969E-08  0.10566000000E+00  0.10566000000E+00 0.  1.
     999900   -1    0    0    0    0 -0.00000000000E+00 -0.00000000000E+00 -0.74505805969E-08  0.93827000000E+00  0.93827000000E+00 0. -1.
     999902    2    1    2    0    0 -0.22409690652E-01 -0.25400318173E-02 -0.19633561493E-02  0.10212915203E+01  0.10210405813E+01 0.  0.
     999903    2    3    3    0    0  0.60316063975E-01 -0.11305332133E+00 -0.14204938365E-01  0.13044552126E+00  0.19878951294E-01 0.  0.
         14    1    1    2    0    0  0.22409690652E-01  0.25400318173E-02  0.19633561493E-02  0.22638479722E-01  0.00000000000E+00 0. -1.
     999901    1    3    3    0    0 -0.82725754627E-01  0.11051328951E+00  0.12241582216E-01  0.89084599902E+00  0.88000000000E+00 0. -1.
        -11    1    4    4    0    0  0.30633896421E-01 -0.47330483703E-01  0.24357191982E-02  0.56434069023E-01  0.51100000000E-03 0.  1.
         11    1    4    4    0    0  0.29682167555E-01 -0.65722837628E-01 -0.16640657564E-01  0.74011452234E-01  0.51100000000E-03 0. -1.
</event>
<event>
 8    1  0.1083484E+005  0.1043930E+01  0.7957747E-01            NaN
         13   -1    0    0    0    0  0.00000000000E+00  0.00000000000E+00  0.74505805969E-08  0.10566000000E+00  0.10566000000E+00 0.  1.
     999900   -1    0    0    0    0 -0.00000000000E+00 -0.00000000000E+00 -0.74505805969E-08  0.93827000000E+00  0.93827000000E+00 0.  1.
     999902    2    1    2    0    0 -0.11851860404E-01  0.27957552899E-02 -0.19929784169E-01  0.10205745051E+01  0.10203072289E+01 0.  0.
     999903    2    3    3    0    0  0.74418873155E-01 -0.16398788621E-01 -0.10582262959E+00  0.13198649551E+00  0.20369514324E-01 0.  0.
         14    1    1    2    0    0  0.11851860404E-01 -0.27957552899E-02  0.19929784169E-01  0.23355494850E-01  0.00000000000E+00 0.  1.
     999901    1    3    3    0    0 -0.86270733559E-01  0.19194543911E-01  0.85892845419E-01  0.88858800964E+00  0.88000000000E+00 0. -1.
        -11    1    4    4    0    0  0.88287820768E-02  0.24034437729E-02 -0.22469684540E-01  0.24266680433E-01  0.51100000000E-03 0.  1.
         11    1    4    4    0    0  0.65590091078E-01 -0.18802232394E-01 -0.83352945048E-01  0.10771981507E+00  0.51100000000E-03 0. -1.
</event>
<event>
 8    1  0.1083484E+005  0.1043930E+01  0.7957747E-01            NaN
         13   -1    0    0    0    0  0.00000000000E+00  0.00000000000E+00  0.74505805969E-08  0.10566000000E+00  0.10566000000E+00 0.  1.
     999900   -1    0    0    0    0 -0.00000000000E+00 -0.00000000000E+00 -0.74505805969E-08  0.93827000000E+00  0.93827000000E+00 0.  1.
     999902    2    1    2    0    0 -0.30852762013E-02  0.97319781848E-02  0.21409389377E-01  0.10202109722E+01  0.10199352114E+01 0.  0.
     999903    2    3    3    0    0  0.19156043585E-01 -0.90647452402E-01  0.90887241398E-01  0.13150524003E+00  0.21194878446E-01 0.  0.
         14    1    1    2    0    0  0.30852762013E-02 -0.97319781848E-02 -0.21409389377E-01  0.23719027850E-01  0.00000000000E+00 0. -1.
     999901    1    3    3    0    0 -0.22241319787E-01  0.10037943059E+00 -0.69477852021E-01  0.88870573213E+00  0.88000000000E+00 0.  1.
        -11    1    4    4    0    0  0.23842662926E-01 -0.75104260705E-01  0.75551433549E-01  0.10916685753E+00  0.51100000000E-03 0. -1.
         11    1    4    4    0    0 -0.46866193402E-02 -0.15543191696E-01  0.15335807849E-01  0.22338382492E-01  0.51100000000E-03 0.  1.
</event>
<event>
 7    1  0.1083484E+005  0.1043930E+01  0.7957747E-01            NaN
         13   -1    0    0    0    0  0.00000000000E+00  0.00000000000E+00  0.74505805969E-08  0.10566000000E+00  0.10566000000E+00 0.  1.
     999900   -1    0    0    0    0 -0.00000000000E+00 -0.00000000000E+00 -0.74505805969E-08  0.93827000000E+00  0.93827000000E+00 0.  1.
     999902    2    1    2    0    0  0.18717538496E-01 -0.45479786353E-02 -0.87352131767E-02  0.10227797209E+01  0.10225610120E+01 0.  0.
         14    1    1    2    0    0 -0.18717538496E-01  0.45479786353E-02  0.87352131767E-02  0.21150279106E-01  0.00000000000E+00 0.  1.
     999901    1    3    3    0    0 -0.44547588363E-02 -0.96523850023E-01  0.68166231767E-01  0.88790953011E+00  0.88000000000E+00 0. -1.
        -11    1    3    3    0    0 -0.11568125973E-01  0.61318547235E-01 -0.56727108737E-01  0.84332744294E-01  0.51100000000E-03 0. -1.
         11    1    3    3    0    0  0.34740423306E-01  0.30657324153E-01 -0.20174336206E-01  0.50537446493E-01  0.51100000000E-03 0.  1.
</event>
<event>
 8    1  0.1083484E+005  0.1043930E+01  0.7957747E-01            NaN
         13   -1    0    0    0    0  0.00000000000E+00  0.00000000000E+00  0.74505805969E-08  0.10566000000E+00  0.10566000000E+00 0. -1.
     999900   -1    0    0    0    0 -0.00000000000E+00 -0.00000000000E+00 -0.74505805969E-08  0.93827000000E+00  0.93827000000E+00 0.  1.
     999902    2    1    2    0    0  0.28832332246E-02  0.12453294101E-01 -0.19735262826E-01  0.10204166386E+01  0.10201456945E+01 0.  0.
     999903    2    3    3    0    0  0.11224220712E+00 -0.15099713753E-01 -0.64903353103E-01  0.13207058560E+00  0.20096763989E-01 0.  0.
         14    1    1    2    0    0 -0.28832332246E-02 -0.12453294101E-01  0.19735262826E-01  0.23513361449E-01  0.00000000000E+00 0. -1.
     999901    1    3    3    0    0 -0.10935897389E+00  0.27553007854E-01  0.45168090277E-01  0.88834605295E+00  0.88000000000E+00 0.  1.
        -11    1    4    4    0    0  0.57007489064E-01 -0.97460130993E-02 -0.44377753951E-01  0.72900512669E-01  0.51100000000E-03 0.  1.
         11    1    4    4    0    0  0.55234718055E-01 -0.53537006533E-02 -0.20525599153E-01  0.59170072932E-01  0.51100000000E-03 0. -1.
</event>
<event>
 8    1  0.1083484E+005  0.1043930E+01  0.7957747E-01            NaN
         13   -1    0    0    0    0  0.00000000000E+00  0.00000000000E+00  0.74505805969E-08  0.10566000000E+00  0.10566000000E+00 0.  1.
     999900   -1    0    0    0    0 -0.00000000000E+00 -0.00000000000E+00 -0.74505805969E-08  0.93827000000E+00  0.93827000000E+00 0.  1.
     999902    2    1    2    0    0 -0.39400719594E-02 -0.22872850984E-01 -0.32785698877E-02  0.10204898528E+01  0.10202206130E+01 0.  0.
     999903    2    3    3    0    0  0.27524790600E-01 -0.12873479269E+00  0.98405879451E-02  0.13348990887E+00  0.19810543972E-01 0.  0.
         14    1    1    2    0    0  0.39400719594E-02  0.22872850984E-01  0.32785698877E-02  0.23440147178E-01  0.00000000000E+00 0.  1.
     999901    1    3    3    0    0 -0.31464862559E-01  0.10586194170E+00 -0.13119157833E-01  0.88699994396E+00  0.88000000000E+00 0. -1.
        -11    1    4    4    0    0  0.10569655468E-01 -0.34415480502E-01 -0.55453779731E-02  0.36430142091E-01  0.51100000000E-03 0. -1.
         11    1    4    4    0    0  0.16955135132E-01 -0.94319312184E-01  0.15385965918E-01  0.97059766775E-01  0.51100000000E-03 0.  1.
</event>
<event>
 8    1  0.1083484E+005  0.1043930E+01  0.7957747E-01            NaN
         13   -1    0    0    0    0  0.00000000000E+00  0.00000000000E+00  0.74505805969E-08  0.10566000000E+00  0.10566000000E+00 0. -1.
     999900   -1    0    0    0    0 -0.00000000000E+00 -0.00000000000E+00 -0.74505805969E-08  0.93827000000E+00  0.93827000000E+00 0. -1.
     999902    2    1    2    0    0 -0.10193584172E-01 -0.21737782987E-01  0.33922901489E-02  0.10196823609E+01  0.10193940206E+01 0.  0.
     999903    2    3    3    0    0 -0.79992263919E-01 -0.61662101586E-01 -0.81090939542E-01  0.13198690471E+00  0.25373716341E-01 0.  0.
         14    1    1    2    0    0  0.10193584172E-01  0.21737782987E-01 -0.33922901489E-02  0.24247639059E-01  0.00000000000E+00 0. -1.
     999901    1    3    3    0    0  0.69798679747E-01  0.39924318599E-01  0.84483229691E-01  0.88769545623E+00  0.88000000000E+00 0.  1.
        -11    1    4    4    0    0 -0.68742435147E-01 -0.50837463914E-01 -0.78658715151E-01  0.11617841761E+00  0.51100000000E-03 0. -1.
         11    1    4    4    0    0 -0.11249828772E-01 -0.10824637672E-01 -0.24322243911E-02  0.15808487107E-01  0.51100000000E-03 0.  1.
</event>
<event>
 8    1  0.1083484E+005  0.1043930E+01  0.7957747E-01            NaN
         13   -1    0    0    0    0  0.00000000000E+00  0.00000000000E+00  0.74505805969E-08  0.10566000000E+00  0.10566000000E+00 0.  1.
     999900   -1    0    0    0    0 -0.00000000000E+00 -0.00000000000E+00 -0.74505805969E-08  0.93827000000E+00  0.93827000000E+00 0. -1.
     999902    2    1    2    0    0  0.31537265234E-02 -0.50753178625E-02 -0.18010962851E-01  0.10249537089E+01  0.10247780275E+01 0.  0.
     999903    2    3    3    0    0 -0.13910131364E-01  0.75403652005E-01  0.10588334044E+00  0.13247522833E+00  0.21428995498E-01 0.  0.
         14    1    1    2    0    0 -0.31537265234E-02  0.50753178625E-02  0.18010962851E-01  0.18976291135E-01  0.00000000000E+00 0.  1.
     999901    1    3    3    0    0  0.17063857888E-01 -0.80478969867E-01 -0.12389430329E+00  0.89247848054E+00  0.88000000000E+00 0. -1.
        -11    1    4    4    0    0 -0.16296890560E-01  0.64102041814E-01  0.98862438636E-01  0.11894832197E+00  0.51100000000E-03 0. -1.
         11    1    4    4    0    0  0.23867591958E-02  0.11301610191E-01  0.70209018011E-02  0.13526906352E-01  0.51100000000E-03 0.  1.
</event>
<event>
 8    1  0.1083484E+005  0.1043930E+01  0.7957747E-01            NaN
         13   -1    0    0    0    0  0.00000000000E+00  0.00000000000E+00  0.74505805969E-08  0.10566000000E+00  0.10566000000E+00 0.  1.
     999900   -1    0    0    0    0 -0.00000000000E+00 -0.00000000000E+00 -0.74505805969E-08  0.93827000000E+00  0.93827000000E+00 0.  1.
     999902    2    1    2    0    0 -0.12327369873E-02  0.96117070667E-02  0.19428384018E-01  0.10222190199E+01  0.10219884333E+01 0.  0.
     999903    2    3    3    0    0 -0.22293684312E-01  0.90464109074E-02 -0.12614969607E+00  0.13001004183E+00  0.20248932024E-01 0.  0.
         14    1    1    2    0    0  0.12327369873E-02 -0.96117070667E-02 -0.19428384018E-01  0.21710980143E-01  0.00000000000E+00 0. -1.
     999901    1    3    3    0    0  0.21060947325E-01  0.56529615934E-03  0.14557808009E+00  0.89220897802E+00  0.88000000000E+00 0. -1.
        -11    1    4    4    0    0 -0.25307048055E-01  0.77035051839E-02 -0.92934408256E-01  0.96627408287E-01  0.51100000000E-03 0. -1.
         11    1    4    4    0    0  0.30133637432E-02  0.13429057234E-02 -0.33215287816E-01  0.33382633547E-01  0.51100000000E-03 0.  1.
</event>
<event>
 8    1  0.1083484E+005  0.1043930E+01  0.7957747E-01            NaN
         13   -1    0    0    0    0  0.00000000000E+00  0.00000000000E+00  0.74505805969E-08  0.10566000000E+00  0.10566000000E+00 0.  1.
     999900   -1    0    0    0    0 -0.00000000000E+00 -0.00000000000E+00 -0.74505805969E-08  0.93827000000E+00  0.93827000000E+00 0.  1.
     999902    2    1    2    0    0  0.22543683499E-02 -0.24503443999E-01  0.11703067853E-02  0.10192952570E+01  0.10189975223E+01 0.  0.
     999903    2    3    3    0    0  0.26159613074E-01  0.10630815254E+00 -0.61302024176E-01  0.12711482310E+00  0.20359062606E-01 0.  0.
         14    1    1    2    0    0 -0.22543683499E-02  0.24503443999E-01 -0.11703067853E-02  0.24634742996E-01  0.00000000000E+00 0.  1.
     999901    1    3    3    0    0 -0.23905244724E-01 -0.13081159654E+00  0.62472330961E-01  0.89218043391E+00  0.88000000000E+00 0.  1.
        -11    1    4    4    0    0  0.16763512599E-01  0.30986017798E-01 -0.23152462856E-01  0.42159771239E-01  0.51100000000E-03 0. -1.
         11    1    4    4    0    0  0.93961004747E-02  0.75322134741E-01 -0.38149561319E-01  0.84955051856E-01  0.51100000000E-03 0.  1.
</event>
<event>
 8    1  0.1121196E+005  0.1043930E+01  0.7957747E-01            NaN
         13   -1    0    0    0    0  0.00000000000E+00  0.00000000000E+00  0.74505805969E-08  0.10566000000E+00  0.10566000000E+00 0. -1.
     999900   -1    0    0    0    0 -0.00000000000E+00 -0.00000000000E+00 -0.74505805969E-08  0.93827000000E+00  0.93827000000E+00 0.  1.
     999902    2    1    2    0    0 -0.20568874062E-01  0.20151111964E-02  0.13008794158E-01  0.10195093534E+01  0.10192168335E+01 0.  0.
     999903    2    3    3    0    0 -0.60701180733E-01  0.11470122829E+00 -0.15312812461E-02  0.13129756742E+00  0.19892241550E-01 0.  0.
         14    1    1    2    0    0  0.20568874062E-01 -0.20151111964E-02 -0.13008794158E-01  0.24420646567E-01  0.00000000000E+00 0.  1.
     999901    1    3    3    0    0  0.40132306671E-01 -0.11268611709E+00  0.14540075404E-01  0.88821178602E+00  0.88000000000E+00 0. -1.
        -11    1    4    4    0    0 -0.29402554639E-01  0.75969317210E-01 -0.22294116466E-02  0.81492814247E-01  0.51100000000E-03 0.  1.
         11    1    4    4    0    0 -0.31298626095E-01  0.38731911080E-01  0.69813040051E-03  0.49804753170E-01  0.51100000000E-03 0. -1.
</event>
<event>
 8    1  0.1083484E+005  0.1043930E+01  0.7957747E-01            NaN
         13   -1    0    0    0    0  0.00000000000E+00  0.00000000000E+00  0.74505805969E-08  0.10566000000E+00  0.10566000000E+00 0.  1.
     999900   -1    0    0    0    0 -0.00000000000E+00 -0.00000000000E+00 -0.74505805969E-08  0.93827000000E+00  0.93827000000E+00 0.  1.
     999902    2    1    2    0    0  0.13632557263E-01  0.59886934773E-02  0.18660652825E-01  0.10200567717E+01  0.10197773710E+01 0.  0.
     999903    2    3    3    0    0 -0.11485466224E+00  0.39951082193E-01 -0.36224059863E-01  0.12838713491E+00  0.19580385363E-01 0.  0.
         14    1    1    2    0    0 -0.13632557263E-01 -0.59886934773E-02 -0.18660652825E-01  0.23873228331E-01  0.00000000000E+00 0. -1.
     999901    1    3    3    0    0  0.12848721951E+00 -0.33962388716E-01  0.54884712688E-01  0.89166963675E+00  0.88000000000E+00 0.  1.
        -11    1    4    4    0    0 -0.38382828215E-01  0.19554630742E-01 -0.20434255074E-01  0.47680656315E-01  0.51100000000E-03 0. -1.
         11    1    4    4    0    0 -0.76471834029E-01  0.20396451451E-01 -0.15789804789E-01  0.80706478598E-01  0.51100000000E-03 0.  1.
</event>
<event>
 8    1  0.1083484E+005  0.1043930E+01  0.7957747E-01            NaN
         13   -1    0    0    0    0  0.00000000000E+00  0.00000000000E+00  0.74505805969E-08  0.10566000000E+00  0.10566000000E+00 0. -1.
     999900   -1    0    0    0    0 -0.00000000000E+00 -0.00000000000E+00 -0.74505805969E-08  0.93827000000E+00  0.93827000000E+00 0. -1.
     999902    2    1    2    0    0 -0.13955252918E-01 -0.19119665452E-01  0.48259539674E-02  0.10197721747E+01  0.10194859920E+01 0.  0.
     999903    2    3    3    0    0 -0.88795276915E-01 -0.48763884601E-01  0.83264008164E-01  0.13262374448E+00  0.19840486379E-01 0.  0.
         14    1    1    2    0    0  0.13955252918E-01  0.19119665452E-01 -0.48259539674E-02  0.24157825289E-01  0.00000000000E+00 0.  1.
     999901    1    3    3    0    0  0.74840023997E-01  0.29644219149E-01 -0.78438054197E-01  0.88714843023E+00  0.88000000000E+00 0. -1.
        -11    1    4    4    0    0 -0.77265003650E-01 -0.36031569841E-01  0.62723744477E-01  0.10584273266E+00  0.51100000000E-03 0.  1.
         11    1    4    4    0    0 -0.11530273265E-01 -0.12732314760E-01  0.20540263688E-01  0.26781011819E-01  0.51100000000E-03 0. -1.
</event>
<event>
 8    1  0.1083484E+005  0.1043930E+01  0.7957747E-01            NaN
         13   -1    0    0    0    0  0.00000000000E+00  0.00000000000E+00  0.74505805969E-08  0.10566000000E+00  0.10566000000E+00 0.  1.
     999900   -1    0    0    0    0 -0.00000000000E+00 -0.00000000000E+00 -0.74505805969E-08  0.93827000000E+00  0.93827000000E+00 0.  1.
     999902    2    1    2    0    0 -0.59238078343E-03 -0.23115438639E-01 -0.98907169048E-03  0.10207858284E+01  0.10205234219E+01 0.  0.
     999903    2    3    3    0    0  0.24618687120E-01 -0.11142708189E+00 -0.66493249069E-01  0.13358498213E+00  0.20037987546E-01 0.  0.
         14    1    1    2    0    0  0.59238078343E-03  0.23115438639E-01  0.98907169048E-03  0.23144171648E-01  0.00000000000E+00 0. -1.
     999901    1    3    3    0    0 -0.25211067904E-01  0.88311643253E-01  0.65504177379E-01  0.88720084622E+00  0.88000000000E+00 0. -1.
        -11    1    4    4    0    0  0.14854773064E-01 -0.47935927606E-01 -0.18868101579E-01  0.53617010514E-01  0.51100000000E-03 0.  1.
         11    1    4    4    0    0  0.97639140560E-02 -0.63491154286E-01 -0.47625147490E-01  0.79967971618E-01  0.51100000000E-03 0. -1.
</event>
<event>
 8    1  0.1083484E+005  0.1043930E+01  0.7957747E-01            NaN
         13   -1    0    0    0    0  0.00000000000E+00  0.00000000000E+00  0.74505805969E-08  0.10566000000E+00  0.10566000000E+00 0.  1.
     999900   -1    0    0    0    0 -0.00000000000E+00 -0.00000000000E+00 -0.74505805969E-08  0.93827000000E+00  0.93827000000E+00 0.  1.
     999902    2    1    2    0    0  0.59348475868E-03  0.45219572246E-02 -0.22072270006E-01  0.10213914680E+01  0.10211427645E+01 0.  0.
     999903    2    3    3    0    0  0.63144734033E-01 -0.17322788883E-01  0.10950751973E+00  0.12914537371E+00  0.19982347760E-01 0.  0.
         14    1    1    2    0    0 -0.59348475868E-03 -0.45219572246E-02  0.22072270006E-01  0.22538531996E-01  0.00000000000E+00 0.  1.
     999901    1    3    3    0    0 -0.62551249274E-01  0.21844746107E-01 -0.13157978974E+00  0.89224609430E+00  0.88000000000E+00 0.  1.
        -11    1    4    4    0    0  0.63964912655E-01 -0.18731396112E-01  0.10553242011E+00  0.12481878090E+00  0.51100000000E-03 0. -1.
         11    1    4    4    0    0 -0.82017862153E-03  0.14086072293E-02  0.39750996216E-02  0.43265928049E-02  0.51100000000E-03 0.  1.
</event>
<event>
 8    1  0.1083484E+005  0.1043930E+01  0.7957747E-01            NaN
         13   -1    0    0    0    0  0.00000000000E+00  0.00000000000E+00  0.74505805969E-08  0.10566000000E+00  0.10566000000E+00 0. -1.
     999900   -1    0    0    0    0 -0.00000000000E+00 -0.00000000000E+00 -0.74505805969E-08  0.93827000000E+00  0.93827000000E+00 0.  1.
     999902    2    1    2    0    0 -0.46969393949E-02 -0.10391682400E-01  0.21338126376E-01  0.10197357044E+01  0.10194486465E+01 0.  0.
     999903    2    3    3    0    0  0.12867379209E-01 -0.12224559968E+00  0.47497460204E-01  0.13209607321E+00  0.91546568498E-02 0.  0.
         14    1    1    2    0    0  0.46969393949E-02  0.10391682400E-01 -0.21338126376E-01  0.24194295609E-01  0.00000000000E+00 0.  1.
     999901    1    3    3    0    0 -0.17564318603E-01  0.11185391728E+00 -0.26159333829E-01  0.88763963118E+00  0.88000000000E+00 0.  1.
        -11    1    4    4    0    0  0.71364274741E-02 -0.31876738509E-01  0.11120010479E-01  0.34510444927E-01  0.51100000000E-03 0.  1.
         11    1    4    4    0    0  0.57309517345E-02 -0.90368861173E-01  0.36377449726E-01  0.97585628281E-01  0.51100000000E-03 0. -1.
</event>
<event>
 8    1  0.1083484E+005  0.1043930E+01  0.7957747E-01            NaN
         13   -1    0    0    0    0  0.00000000000E+00  0.00000000000E+00  0.74505805969E-08  0.10566000000E+00  0.10566000000E+00 0.  1.
     999900   -1    0    0    0    0 -0.00000000000E+00 -0.00000000000E+00 -0.74505805969E-08  0.93827000000E+00  0.93827000000E+00 0.  1.
     999902    2    1    2    0    0 -0.20156877376E-01  0.11680106303E-01  0.79455874577E-03  0.10206200040E+01  0.10203537802E+01 0.  0.
     999903    2    3    3    0    0  0.41764092769E-01  0.76230564364E-01 -0.95833177547E-01  0.13082346121E+00  0.19376317928E-01 0.  0.
         14    1    1    2    0    0  0.20156877376E-01 -0.11680106303E-01 -0.79455874577E-03  0.23309995976E-01  0.00000000000E+00 0.  1.
     999901    1    3    3    0    0 -0.61920970145E-01 -0.64550458061E-01  0.96627736293E-01  0.88979654281E+00  0.88000000000E+00 0. -1.
        -11    1    4    4    0    0  0.14633466290E-01  0.46141613232E-01 -0.48662613163E-01  0.68640351457E-01  0.51100000000E-03 0. -1.
         11    1    4    4    0    0  0.27130626480E-01  0.30088951132E-01 -0.47170564384E-01  0.62183109754E-01  0.51100000000E-03 0.  1.
</event>
<event>
 8    1  0.1083484E+005  0.1043930E+01  0.7957747E-01            NaN
         13   -1    0    0    0    0  0.00000000000E+00  0.00000000000E+00  0.74505805969E-08  0.10566000000E+00  0.10566000000E+00 0. -1.
     999900   -1    0    0    0    0 -0.00000000000E+00 -0.00000000000E+00 -0.74505805969E-08  0.93827000000E+00  0.93827000000E+00 0.  1.
     999902    2    1    2    0    0 -0.41311656919E-02  0.94098020207E-02 -0.21569602117E-01  0.10200373518E+01  0.10197574910E+01 0.  0.
     999903    2    3    3    0    0 -0.40453617013E-01 -0.64578030702E-01 -0.10602723984E+00  0.13215976312E+00  0.20435513670E-01 0.  0.
         14    1    1    2    0    0  0.41311656919E-02 -0.94098020207E-02  0.21569602117E-01  0.23892648232E-01  0.00000000000E+00 0. -1.
     999901    1    3    3    0    0  0.36322451321E-01  0.73987832723E-01  0.84457637727E-01  0.88787758865E+00  0.88000000000E+00 0. -1.
        -11    1    4    4    0    0 -0.21983553952E-01 -0.50120421091E-01 -0.65765004434E-01  0.85560681297E-01  0.51100000000E-03 0.  1.
         11    1    4    4    0    0 -0.18470063060E-01 -0.14457609611E-01 -0.40262235410E-01  0.46599081819E-01  0.51100000000E-03 0. -1.
</event>
<event>
 8    1  0.1083484E+005  0.1043930E+01  0.7957747E-01            NaN
         13   -1    0    0    0    0  0.00000000000E+00  0.00000000000E+00  0.74505805969E-08  0.10566000000E+00  0.10566000000E+00 0. -1.
     999900   -1    0    0    0    0 -0.00000000000E+00 -0.00000000000E+00 -0.74505805969E-08  0.93827000000E+00  0.93827000000E+00 0. -1.
     999902    2    1    2    0    0 -0.23047746401E-01 -0.76979795392E-02 -0.27112129837E-02  0.10194798839E+01  0.10191866490E+01 0.  0.
     999903    2    3    3    0    0  0.82474616646E-01 -0.55663252236E-01 -0.79009344018E-01  0.12860557102E+00  0.19911213300E-01 0.  0.
         14    1    1    2    0    0  0.23047746401E-01  0.76979795392E-02  0.27112129837E-02  0.24450116134E-01  0.00000000000E+00 0. -1.
     999901    1    3    3    0    0 -0.10552236305E+00  0.47965272697E-01  0.76298131034E-01  0.89087431285E+00  0.88000000000E+00 0.  1.
        -11    1    4    4    0    0  0.58958744164E-01 -0.28337526211E-01 -0.51288295496E-01  0.83125803942E-01  0.51100000000E-03 0. -1.
         11    1    4    4    0    0  0.23515872482E-01 -0.27325726025E-01 -0.27721048522E-01  0.45479767079E-01  0.51100000000E-03 0.  1.
</event>
<event>
 8    1  0.1083484E+005  0.1043930E+01  0.7957747E-01            NaN
         13   -1    0    0    0    0  0.00000000000E+00  0.00000000000E+00  0.74505805969E-08  0.10566000000E+00  0.10566000000E+00 0.  1.
     999900   -1    0    0    0    0 -0.00000000000E+00 -0.00000000000E+00 -0.74505805969E-08  0.93827000000E+00  0.93827000000E+00 0. -1.
     999902    2    1    2    0    0 -0.19539697187E-01  0.56843219406E-02 -0.10821846736E-01  0.10208817105E+01  0.10206214985E+01 0.  0.
     999903    2    3    3    0    0 -0.57820600507E-01  0.28448544204E-01 -0.11522305834E+00  0.13359187603E+00  0.20442471866E-01 0.  0.
         14    1    1    2    0    0  0.19539697187E-01 -0.56843219406E-02  0.10821846736E-01  0.23048289500E-01  0.00000000000E+00 0.  1.
     999901    1    3    3    0    0  0.38280903320E-01 -0.22764222264E-01  0.10440121161E+00  0.88728983447E+00  0.88000000000E+00 0.  1.
        -11    1    4    4    0    0 -0.11699045535E-01  0.10404381829E-01 -0.14478256118E-01  0.21330725466E-01  0.51100000000E-03 0.  1.
         11    1    4    4    0    0 -0.46121554972E-01  0.18044162375E-01 -0.10074480223E+00  0.11226115056E+00  0.51100000000E-03 0. -1.
</event>
<event>
 8    1  0.1083484E+005  0.1043930E+01  0.7957747E-01            NaN
         13   -1    0    0    0    0  0.00000000000E+00  0.00000000000E+00  0.74505805969E-08  0.10566000000E+00  0.10566000000E+00 0.  1.
     999900   -1    0    0    0    0 -0.00000000000E+00 -0.00000000000E+00 -0.74505805969E-08  0.93827000000E+00  0.93827000000E+00 0.  1.
     999902    2    1    2    0    0 -0.19560340592E-01  0.87966634857E-02  0.73383874262E-02  0.10212619577E+01  0.10210103555E+01 0.  0.
     999903    2    3    3    0    0  0.88088302288E-01  0.52651224242E-01  0.78629994740E-01  0.13075988240E+00  0.19590057614E-01 0.  0.
         14    1    1    2    0    0  0.19560340592E-01 -0.87966634857E-02 -0.73383874262E-02  0.22668042319E-01  0.00000000000E+00 0. -1.
     999901    1    3    3    0    0 -0.10764864288E+00 -0.43854560756E-01 -0.71291607314E-01  0.89050207528E+00  0.88000000000E+00 0.  1.
        -11    1    4    4    0    0  0.87398165116E-02  0.12635673311E-01  0.85992914851E-02  0.17614016229E-01  0.51100000000E-03 0.  1.
         11    1    4    4    0    0  0.79348485777E-01  0.40015550931E-01  0.70030703255E-01  0.11314586617E+00  0.51100000000E-03 0. -1.
</event>
<event>
 8    1  0.1083484E+005  0.1043930E+01  0.7957747E-01            NaN
         13   -1    0    0    0    0  0.00000000000E+00  0.00000000000E+00  0.74505805969E-08  0.10566000000E+00  0.10566000000E+00 0. -1.
     999900   -1    0    0    0    0 -0.00000000000E+00 -0.00000000000E+00 -0.74505805969E-08  0.93827000000E+00  0.93827000000E+00 0. -1.
     999902    2    1    2    0    0  0.19623918919E-01 -0.78238644440E-02  0.96490875126E-02  0.10207046703E+01  0.10204403991E+01 0.  0.
     999903    2    3    3    0    0  0.98062455221E-01  0.76772830888E-01 -0.35711542439E-01  0.13201642826E+00  0.25351733291E-01 0.  0.
         14    1    1    2    0    0 -0.19623918919E-01  0.78238644440E-02 -0.96490875126E-02  0.23225329672E-01  0.00000000000E+00 0.  1.
     999901    1    3    3    0    0 -0.78438536302E-01 -0.84596695332E-01  0.45360629952E-01  0.88868824207E+00  0.88000000000E+00 0. -1.
        -11    1    4    4    0    0  0.10628268837E-01  0.20157914923E-01 -0.87821288766E-02  0.24427209033E-01  0.51100000000E-03 0. -1.
         11    1    4    4    0    0  0.87434186384E-01  0.56614915965E-01 -0.26929413562E-01  0.10758921923E+00  0.51100000000E-03 0.  1.
</event>
<event>
 8    1  0.1083484E+005  0.1043930E+01  0.7957747E-01            NaN
         13   -1    0    0    0    0  0.00000000000E+00  0.00000000000E+00  0.74505805969E-08  0.10566000000E+00  0.10566000000E+00 0. -1.
     999900   -1    0    0    0    0 -0.00000000000E+00 -0.00000000000E+00 -0.74505805969E-08  0.93827000000E+00  0.93827000000E+00 0. -1.
     999902    2    1    2    0    0  0.31019261737E-02  0.74579118082E-02  0.24448467624E-01  0.10181817969E+01  0.10178561792E+01 0.  0.
     999903    2    3    3    0    0 -0.11368833670E+00 -0.50975408513E-01 -0.18206898709E-01  0.12752254739E+00  0.20173714523E-01 0.  0.
         14    1    1    2    0    0 -0.31019261737E-02 -0.74579118082E-02 -0.24448467624E-01  0.25748203116E-01  0.00000000000E+00 0.  1.
     999901    1    3    3    0    0  0.11679026288E+00  0.58433320321E-01  0.42655366333E-01  0.89065924949E+00  0.88000000000E+00 0.  1.
        -11    1    4    4    0    0 -0.38110847445E-01 -0.22262488979E-01  0.20036381567E-02  0.44185187511E-01  0.51100000000E-03 0.  1.
         11    1    4    4    0    0 -0.75577489258E-01 -0.28712919534E-01 -0.20210536866E-01  0.83337359882E-01  0.51100000000E-03 0. -1.
</event>
<event>
 8    1  0.1083484E+005  0.1043930E+01  0.7957747E-01            NaN
         13   -1    0    0    0    0  0.00000000000E+00  0.00000000000E+00  0.74505805969E-08  0.10566000000E+00  0.10566000000E+00 0. -1.
     999900   -1    0    0    0    0 -0.00000000000E+00 -0.00000000000E+00 -0.74505805969E-08  0.93827000000E+00  0.93827000000E+00 0.  1.
     999902    2    1    2    0    0  0.17951246117E-01  0.30785760730E-02 -0.13564907565E-01  0.10212202755E+01  0.10209677368E+01 0.  0.
     999903    2    3    3    0    0 -0.18411308783E-01  0.77760423109E-01 -0.10441681811E+00  0.13265194203E+00  0.17550103294E-01 0.  0.
         14    1    1    2    0    0 -0.17951246117E-01 -0.30785760730E-02  0.13564907565E-01  0.22709724460E-01  0.00000000000E+00 0. -1.
     999901    1    3    3    0    0  0.36362554900E-01 -0.74681847036E-01  0.90851910545E-01  0.88856833351E+00  0.88000000000E+00 0. -1.
        -11    1    4    4    0    0 -0.13866661441E-01  0.23120161379E-01 -0.33087665837E-01  0.42683496966E-01  0.51100000000E-03 0.  1.
         11    1    4    4    0    0 -0.45446473421E-02  0.54640261730E-01 -0.71329152273E-01  0.89968445059E-01  0.51100000000E-03 0. -1.
</event>
<event>
 8    1  0.1083484E+005  0.1043930E+01  0.7957747E-01            NaN
         13   -1    0    0    0    0  0.00000000000E+00  0.00000000000E+00  0.74505805969E-08  0.10566000000E+00  0.10566000000E+00 0. -1.
     999900   -1    0    0    0    0 -0.00000000000E+00 -0.00000000000E+00 -0.74505805969E-08  0.93827000000E+00  0.93827000000E+00 0. -1.
     999902    2    1    2    0    0  0.36683529219E-02 -0.22424556499E-01 -0.50106435515E-02  0.10206614784E+01  0.10203962120E+01 0.  0.
     999903    2    3    3    0    0  0.39542198443E-01 -0.57820634258E-01 -0.11119856187E+00  0.13284635741E+00  0.19396476790E-01 0.  0.
         14    1    1    2    0    0 -0.36683529219E-02  0.22424556499E-01  0.50106435515E-02  0.23268521572E-01  0.00000000000E+00 0. -1.
     999901    1    3    3    0    0 -0.35873845521E-01  0.35396077759E-01  0.10618791832E+00  0.88781512102E+00  0.88000000000E+00 0.  1.
        -11    1    4    4    0    0  0.41250057911E-01 -0.53034521383E-01 -0.99274945943E-01  0.11987495046E+00  0.51100000000E-03 0.  1.
         11    1    4    4    0    0 -0.17078594674E-02 -0.47861128758E-02 -0.11923615924E-01  0.12971406945E-01  0.51100000000E-03 0. -1.
</event>
<event>
 8    1  0.1083484E+005  0.1043930E+01  0.7957747E-01            NaN
         13   -1    0    0    0    0  0.00000000000E+00  0.00000000000E+00  0.74505805969E-08  0.10566000000E+00  0.10566000000E+00 0. -1.
     999900   -1    0    0    0    0 -0.00000000000E+00 -0.00000000000E+00 -0.74505805969E-08  0.93827000000E+00  0.93827000000E+00 0.  1.
     999902    2    1    2    0    0 -0.22184548038E-01  0.51546738333E-02 -0.47971468006E-02  0.10206547459E+01  0.10203893242E+01 0.  0.
     999903    2    3    3    0    0 -0.12653818818E+00  0.38457014894E-01 -0.53099894485E-02  0.13386334367E+00  0.20008591386E-01 0.  0.
         14    1    1    2    0    0  0.22184548038E-01 -0.51546738333E-02  0.47971468006E-02  0.23275254057E-01  0.00000000000E+00 0. -1.
     999901    1    3    3    0    0  0.10435364014E+00 -0.33302341061E-01  0.51284264789E-03  0.88679140227E+00  0.88000000000E+00 0.  1.
        -11    1    4    4    0    0 -0.77360285076E-01  0.21961990225E-01  0.64393215994E-02  0.80676320599E-01  0.51100000000E-03 0. -1.
         11    1    4    4    0    0 -0.49177903104E-01  0.16495024669E-01 -0.11749311048E-01  0.53187023075E-01  0.51100000000E-03 0.  1.
</event>
<event>
 7    1  0.1083484E+005  0.1043930E+01  0.7957747E-01            NaN
         13   -1    0    0    0    0  0.00000000000E+00  0.00000000000E+00  0.74505805969E-08  0.10566000000E+00  0.10566000000E+00 0. -1.
     999900   -1    0    0    0    0 -0.00000000000E+00 -0.00000000000E+00 -0.74505805969E-08  0.93827000000E+00  0.93827000000E+00 0. -1.
     999902    2    1    2    0    0  0.81584646831E-02 -0.22290808033E-01  0.96358249773E-03  0.10201735449E+01  0.10198969029E+01 0.  0.
         14    1    1    2    0    0 -0.81584646831E-02  0.22290808033E-01 -0.96358249773E-03  0.23756455123E-01  0.00000000000E+00 0.  1.
     999901    1    3    3    0    0 -0.91489236854E-01  0.44712716187E-01  0.46039331363E-01  0.88706771302E+00  0.88000000000E+00 0.  1.
        -11    1    3    3    0    0  0.51622323550E-01 -0.31119654743E-01 -0.39602300687E-02  0.60408954165E-01  0.51100000000E-03 0.  1.
         11    1    3    3    0    0  0.48025377987E-01 -0.35883869478E-01 -0.41115518797E-01  0.72696877693E-01  0.51100000000E-03 0. -1.
</event>
<event>
 8    1  0.1083484E+005  0.1043930E+01  0.7957747E-01            NaN
         13   -1    0    0    0    0  0.00000000000E+00  0.00000000000E+00  0.74505805969E-08  0.10566000000E+00  0.10566000000E+00 0. -1.
     999900   -1    0    0    0    0 -0.00000000000E+00 -0.00000000000E+00 -0.74505805969E-08  0.93827000000E+00  0.93827000000E+00 0.  1.
     999902    2    1    2    0    0  0.20137406920E-01  0.11457499756E-01  0.11290245437E-02  0.10207337901E+01  0.10204701887E+01 0.  0.
     999903    2    3    3    0    0  0.12896997343E+00 -0.22207330340E-01  0.15056033371E-01  0.13328136325E+00  0.20268647728E-01 0.  0.
         14    1    1    2    0    0 -0.20137406920E-01 -0.11457499756E-01 -0.11290245437E-02  0.23196209917E-01  0.00000000000E+00 0.  1.
     999901    1    3    3    0    0 -0.10883256651E+00  0.33664830096E-01 -0.13927008827E-01  0.88745242683E+00  0.88000000000E+00 0.  1.
        -11    1    4    4    0    0  0.44068614115E-01 -0.82819307144E-02 -0.44416858933E-02  0.45062432479E-01  0.51100000000E-03 0. -1.
         11    1    4    4    0    0  0.84901359317E-01 -0.13925399626E-01  0.19497719264E-01  0.88218930769E-01  0.51100000000E-03 0.  1.
</event>
<event>
 8    1  0.1083484E+005  0.1043930E+01  0.7957747E-01            NaN
         13   -1    0    0    0    0  0.00000000000E+00  0.00000000000E+00  0.74505805969E-08  0.10566000000E+00  0.10566000000E+00 0. -1.
     999900   -1    0    0    0    0 -0.00000000000E+00 -0.00000000000E+00 -0.74505805969E-08  0.93827000000E+00  0.93827000000E+00 0.  1.
     999902    2    1    2    0    0  0.30589358400E-02  0.67168374488E-02  0.22581069566E-01  0.10201733652E+01  0.10198967190E+01 0.  0.
     999903    2    3    3    0    0 -0.25266772037E-01 -0.12062080891E+00  0.38506810193E-01  0.13041449275E+00  0.18367802701E-01 0.  0.
         14    1    1    2    0    0 -0.30589358400E-02 -0.67168374488E-02 -0.22581069566E-01  0.23756634789E-01  0.00000000000E+00 0.  1.
     999901    1    3    3    0    0  0.28325707877E-01  0.12733764636E+00 -0.15925740628E-01  0.88975887246E+00  0.88000000000E+00 0. -1.
        -11    1    4    4    0    0 -0.15656821648E-01 -0.92422012210E-01  0.21751231134E-01  0.96230668614E-01  0.51100000000E-03 0. -1.
         11    1    4    4    0    0 -0.96099503884E-02 -0.28198796703E-01  0.16755579059E-01  0.34183824136E-01  0.51100000000E-03 0.  1.
</event>
<event>
 8    1  0.1083484E+005  0.1043930E+01  0.7957747E-01            NaN
         13   -1    0    0    0    0  0.00000000000E+00  0.00000000000E+00  0.74505805969E-08  0.10566000000E+00  0.10566000000E+00 0. -1.
     999900   -1    0    0    0    0 -0.00000000000E+00 -0.00000000000E+00 -0.74505805969E-08  0.93827000000E+00  0.93827000000E+00 0. -1.
     999902    2    1    2    0    0 -0.18042331897E-01 -0.14763619336E-01  0.32601118790E-02  0.10203902777E+01  0.10201187187E+01 0.  0.
     999903    2    3    3    0    0  0.70208021063E-01  0.10214860311E+00 -0.23801201186E-01  0.12787198253E+00  0.20524214980E-01 0.  0.
         14    1    1    2    0    0  0.18042331897E-01  0.14763619336E-01 -0.32601118790E-02  0.23539722293E-01  0.00000000000E+00 0.  1.
     999901    1    3    3    0    0 -0.88250352961E-01 -0.11691222244E+00  0.27061313065E-01  0.89251829517E+00  0.88000000000E+00 0.  1.
        -11    1    4    4    0    0  0.78248802752E-02  0.14533347944E-01  0.35530493486E-02  0.16891780086E-01  0.51100000000E-03 0. -1.
         11    1    4    4    0    0  0.62383140788E-01  0.87615255164E-01 -0.27354250535E-01  0.11098020245E+00  0.51100000000E-03 0.  1.
</event>
<event>
 8    1  0.1083484E+005  0.1043930E+01  0.7957747E-01            NaN
         13   -1    0    0    0    0  0.00000000000E+00  0.00000000000E+00  0.74505805969E-08  0.10566000000E+00  0.10566000000E+00 0. -1.
     999900   -1    0    0    0    0 -0.00000000000E+00 -0.00000000000E+00 -0.74505805969E-08  0.93827000000E+00  0.93827000000E+00 0. -1.
     999902    2    1    2    0    0 -0.17524870838E-01  0.14538352120E-01  0.63486853309E-02  0.10202912482E+01  0.10200173727E+01 0.  0.
     999903    2    3    3    0    0  0.10501349378E+00 -0.49914754417E-01  0.50663461456E-01  0.12836431560E+00  0.19781168059E-01 0.  0.
         14    1    1    2    0    0  0.17524870838E-01 -0.14538352120E-01 -0.63486853309E-02  0.23638751779E-01  0.00000000000E+00 0. -1.
     999901    1    3    3    0    0 -0.12253836462E+00  0.64453106537E-01 -0.44314776125E-01  0.89192693262E+00  0.88000000000E+00 0. -1.
        -11    1    4    4    0    0  0.56733991361E-01 -0.37726620985E-01  0.28366045938E-01  0.73803369773E-01  0.51100000000E-03 0.  1.
         11    1    4    4    0    0  0.48279502417E-01 -0.12188133432E-01  0.22297415518E-01  0.54560945831E-01  0.51100000000E-03 0. -1.
</event>
<event>
 8    1  0.1083484E+005  0.1043930E+01  0.7957747E-01            NaN
         13   -1    0    0    0    0  0.00000000000E+00  0.00000000000E+00  0.74505805969E-08  0.10566000000E+00  0.10566000000E+00 0. -1.
     999900   -1    0    0    0    0 -0.00000000000E+00 -0.00000000000E+00 -0.74505805969E-08  0.93827000000E+00  0.93827000000E+00 0.  1.
     999902    2    1    2    0    0 -0.25437359782E-01  0.18625338375E-02 -0.78335149440E-02  0.10172486908E+01  0.10168987200E+01 0.  0.
     999903    2    3    3    0    0  0.24163749034E-01  0.64656636446E-01 -0.10616353488E+00  0.12816367678E+00  0.19770293418E-01 0.  0.
         14    1    1    2    0    0  0.25437359782E-01 -0.18625338375E-02  0.78335149440E-02  0.26681309213E-01  0.00000000000E+00 0. -1.
     999901    1    3    3    0    0 -0.49601108816E-01 -0.62794102608E-01  0.98330019939E-01  0.88908501401E+00  0.88000000000E+00 0. -1.
        -11    1    4    4    0    0  0.23391467185E-02  0.10653187284E-01 -0.64457313258E-02  0.12679533903E-01  0.51100000000E-03 0.  1.
         11    1    4    4    0    0  0.21824602315E-01  0.54003449162E-01 -0.99717803557E-01  0.11548414287E+00  0.51100000000E-03 0. -1.
</event>
<event>
 8    1  0.1083484E+005  0.1043930E+01  0.7957747E-01            NaN
         13   -1    0    0    0    0  0.00000000000E+00  0.00000000000E+00  0.74505805969E-08  0.10566000000E+00  0.10566000000E+00 0.  1.
     999900   -1    0    0    0    0 -0.00000000000E+00 -0.00000000000E+00 -0.74505805969E-08  0.93827000000E+00  0.93827000000E+00 0. -1.
     999902    2    1    2    0    0 -0.94126001852E-02 -0.19583977214E-01 -0.66865889933E-02  0.10211958917E+01  0.10209428043E+01 0.  0.
     999903    2    3    3    0    0  0.10745496278E+00 -0.71235620477E-01  0.16399166055E-01  0.13166856130E+00  0.21132788169E-01 0.  0.
         14    1    1    2    0    0  0.94126001852E-02  0.19583977214E-01  0.66865889933E-02  0.22734108255E-01  0.00000000000E+00 0.  1.
     999901    1    3    3    0    0 -0.11686756297E+00  0.51651643263E-01 -0.23085755049E-01  0.88952733045E+00  0.88000000000E+00 0. -1.
        -11    1    4    4    0    0  0.74826769953E-01 -0.49200885699E-01  0.14947304883E-02  0.89567114475E-01  0.51100000000E-03 0. -1.
         11    1    4    4    0    0  0.32628192829E-01 -0.22034734779E-01  0.14904435567E-01  0.42101446824E-01  0.51100000000E-03 0.  1.
</event>
<event>
 8    1  0.1461870E+005  0.1043930E+01  0.7957747E-01            NaN
         13   -1    0    0    0    0  0.00000000000E+00  0.00000000000E+00  0.74505805969E-08  0.10566000000E+00  0.10566000000E+00 0.  1.
     999900   -1    0    0    0    0 -0.00000000000E+00 -0.00000000000E+00 -0.74505805969E-08  0.93827000000E+00  0.93827000000E+00 0.  1.
     999902    2    1    2    0    0 -0.58396398626E-02 -0.15591581140E-01  0.17792567805E-01  0.10195625162E+01  0.10192712839E+01 0.  0.
     999903    2    3    3    0    0 -0.10733126638E+00  0.68822172604E-01 -0.65020784731E-03  0.12952523159E+00  0.22800672431E-01 0.  0.
         14    1    1    2    0    0  0.58396398626E-02  0.15591581140E-01 -0.17792567805E-01  0.24367483769E-01  0.00000000000E+00 0. -1.
     999901    1    3    3    0    0  0.10149162652E+00 -0.84413753744E-01  0.18442775652E-01  0.89003728464E+00  0.88000000000E+00 0. -1.
        -11    1    4    4    0    0 -0.81497451660E-01  0.39964707523E-01 -0.14485823331E-02  0.90782002546E-01  0.51100000000E-03 0. -1.
         11    1    4    4    0    0 -0.25833814722E-01  0.28857465081E-01  0.79837448575E-03  0.38743229045E-01  0.51100000000E-03 0.  1.
</event>
<event>
 8    1  0.1083484E+005  0.1043930E+01  0.7957747E-01            NaN
         13   -1    0    0    0    0  0.00000000000E+00  0.00000000000E+00  0.74505805969E-08  0.10566000000E+00  0.10566000000E+00 0. -1.
     999900   -1    0    0    0    0 -0.00000000000E+00 -0.00000000000E+00 -0.74505805969E-08  0.93827000000E+00  0.93827000000E+00 0.  1.
     999902    2    1    2    0    0  0.17959997926E-01  0.13361846308E-01  0.65701577390E-02  0.10206004600E+01  0.10203337844E+01 0.  0.
     999903    2    3    3    0    0 -0.45298555364E-01  0.52088797773E-02 -0.11934572675E+00  0.12935250049E+00  0.20237967843E-01 0.  0.
         14    1    1    2    0    0 -0.17959997926E-01 -0.13361846308E-01 -0.65701577390E-02  0.23329539965E-01  0.00000000000E+00 0. -1.
     999901    1    3    3    0    0  0.63258553291E-01  0.81529665306E-02  0.12591588449E+00  0.89124795955E+00  0.88000000000E+00 0. -1.
        -11    1    4    4    0    0 -0.21364290440E-01  0.51237313540E-02 -0.82777100704E-01  0.85644585649E-01  0.51100000000E-03 0.  1.
         11    1    4    4    0    0 -0.23934264924E-01  0.85148423320E-04 -0.36568626047E-01  0.43707914840E-01  0.51100000000E-03 0. -1.
</event>
<event>
 8    1  0.1083484E+005  0.1043930E+01  0.7957747E-01            NaN
         13   -1    0    0    0    0  0.00000000000E+00  0.00000000000E+00  0.74505805969E-08  0.10566000000E+00  0.10566000000E+00 0. -1.
     999900   -1    0    0    0    0 -0.00000000000E+00 -0.00000000000E+00 -0.74505805969E-08  0.93827000000E+00  0.93827000000E+00 0. -1.
     999902    2    1    2    0    0 -0.88895200978E-02 -0.14726058271E-01  0.17369002739E-01  0.10194849061E+01  0.10191917931E+01 0.  0.
     999903    2    3    3    0    0 -0.59420149437E-01  0.38371454355E-01 -0.10476048821E+00  0.12803198928E+00  0.20354550334E-01 0.  0.
         14    1    1    2    0    0  0.88895200978E-02  0.14726058271E-01 -0.17369002739E-01  0.24445093903E-01  0.00000000000E+00 0.  1.
     999901    1    3    3    0    0  0.50530629339E-01 -0.53097512626E-01  0.12212949095E+00  0.89145291682E+00  0.88000000000E+00 0.  1.
        -11    1    4    4    0    0 -0.26877461196E-01  0.15378994205E-01 -0.63612441520E-01  0.70751079287E-01  0.51100000000E-03 0.  1.
         11    1    4    4    0    0 -0.32542688241E-01  0.22992460150E-01 -0.41148046692E-01  0.57280909990E-01  0.51100000000E-03 0. -1.
</event>
<event>
 8    1  0.1083484E+005  0.1043930E+01  0.7957747E-01            NaN
         13   -1    0    0    0    0  0.00000000000E+00  0.00000000000E+00  0.74505805969E-08  0.10566000000E+00  0.10566000000E+00 0.  1.
     999900   -1    0    0    0    0 -0.00000000000E+00 -0.00000000000E+00 -0.74505805969E-08  0.93827000000E+00  0.93827000000E+00 0. -1.
     999902    2    1    2    0    0 -0.61059399623E-02 -0.18826706034E-01 -0.11470916450E-01  0.10210540457E+01  0.10207977541E+01 0.  0.
     999903    2    3    3    0    0 -0.57613955454E-01 -0.31925949220E-01  0.11118217643E+00  0.13095941753E+00  0.21219297527E-01 0.  0.
         14    1    1    2    0    0  0.61059399623E-02  0.18826706034E-01  0.11470916450E-01  0.22875954343E-01  0.00000000000E+00 0. -1.
     999901    1    3    3    0    0  0.51508015492E-01  0.13099243187E-01 -0.12265309288E+00  0.89009462813E+00  0.88000000000E+00 0. -1.
        -11    1    4    4    0    0 -0.30624530036E-01 -0.16764436465E-01  0.78635220212E-01  0.86038753761E-01  0.51100000000E-03 0. -1.
         11    1    4    4    0    0 -0.26989425418E-01 -0.15161512755E-01  0.32546956215E-01  0.44920663767E-01  0.51100000000E-03 0.  1.
</event>
<event>
 8    1  0.1083484E+005  0.1043930E+01  0.7957747E-01            NaN
         13   -1    0    0    0    0  0.00000000000E+00  0.00000000000E+00  0.74505805969E-08  0.10566000000E+00  0.10566000000E+00 0.  1.
     999900   -1    0    0    0    0 -0.00000000000E+00 -0.00000000000E+00 -0.74505805969E-08  0.93827000000E+00  0.93827000000E+00 0. -1.
     999902    2    1    2    0    0  0.53735060255E-02  0.22995436462E-01  0.10290232187E-01  0.10181704669E+01  0.10178445590E+01 0.  0.
     999903    2    3    3    0    0  0.61594130310E-01  0.65573844545E-01  0.93993436221E-01  0.13138982563E+00  0.18296290613E-01 0.  0.
         14    1    1    2    0    0 -0.53735060255E-02 -0.22995436462E-01 -0.10290232187E-01  0.25759533061E-01  0.00000000000E+00 0. -1.
     999901    1    3    3    0    0 -0.56220624284E-01 -0.42578408084E-01 -0.83703204034E-01  0.88678064131E+00  0.88000000000E+00 0. -1.
        -11    1    4    4    0    0  0.17578997258E-01  0.90238193343E-02  0.25453786226E-01  0.32227423326E-01  0.51100000000E-03 0.  1.
         11    1    4    4    0    0  0.44015133052E-01  0.56550025211E-01  0.68539649994E-01  0.99162402307E-01  0.51100000000E-03 0. -1.
</event>
<event>
 8    1  0.1083484E+005  0.1043930E+01  0.7957747E-01            NaN
         13   -1    0    0    0    0  0.00000000000E+00  0.00000000000E+00  0.74505805969E-08  0.10566000000E+00  0.10566000000E+00 0.  1.
     999900   -1    0    0    0    0 -0.00000000000E+00 -0.00000000000E+00 -0.74505805969E-08  0.93827000000E+00  0.93827000000E+00 0. -1.
     999902    2    1    2    0    0 -0.14139006830E-01  0.18534690609E-01 -0.45976898101E-02  0.10201690021E+01  0.10198922530E+01 0.  0.
     999903    2    3    3    0    0 -0.79684855887E-01  0.10503089942E+00 -0.74223589681E-02  0.13349779402E+00  0.19631696406E-01 0.  0.
         14    1    1    2    0    0  0.14139006830E-01 -0.18534690609E-01  0.45976898101E-02  0.23760997910E-01  0.00000000000E+00 0.  1.
     999901    1    3    3    0    0  0.65545849057E-01 -0.86496208814E-01  0.28246691580E-02  0.88667120807E+00  0.88000000000E+00 0. -1.
        -11    1    4    4    0    0 -0.29118759968E-01  0.50513654311E-01  0.31386841051E-02  0.58392156261E-01  0.51100000000E-03 0. -1.
         11    1    4    4    0    0 -0.50566095919E-01  0.54517245111E-01 -0.10561043073E-01  0.75105637757E-01  0.51100000000E-03 0.  1.
</event>
<event>
 8    1  0.1083484E+005  0.1043930E+01  0.7957747E-01            NaN
         13   -1    0    0    0    0  0.00000000000E+00  0.00000000000E+00  0.74505805969E-08  0.10566000000E+00  0.10566000000E+00 0.  1.
     999900   -1    0    0    0    0 -0.00000000000E+00 -0.00000000000E+00 -0.74505805969E-08  0.93827000000E+00  0.93827000000E+00 0.  1.
     999902    2    1    2    0    0  0.80830142079E-03 -0.48339149061E-02  0.22108070567E-01  0.10212852022E+01  0.10210341215E+01 0.  0.
     999903    2    3    3    0    0 -0.42354006339E-01 -0.12146553981E+00  0.24619294502E-01  0.13253764128E+00  0.20307079560E-01 0.  0.
         14    1    1    2    0    0 -0.80830142079E-03  0.48339149061E-02 -0.22108070567E-01  0.22644797829E-01  0.00000000000E+00 0. -1.
     999901    1    3    3    0    0  0.43162307760E-01  0.11663162491E+00 -0.25112239351E-02  0.88874756089E+00  0.88000000000E+00 0.  1.
        -11    1    4    4    0    0 -0.28382765851E-01 -0.70659248508E-01  0.50115274422E-02  0.76313087510E-01  0.51100000000E-03 0.  1.
         11    1    4    4    0    0 -0.13971240488E-01 -0.50806291304E-01  0.19607767060E-01  0.56224553773E-01  0.51100000000E-03 0. -1.
</event>
<event>
 8    1  0.1083484E+005  0.1043930E+01  0.7957747E-01            NaN
         13   -1    0    0    0    0  0.00000000000E+00  0.00000000000E+00  0.74505805969E-08  0.10566000000E+00  0.10566000000E+00 0. -1.
     999900   -1    0    0    0    0 -0.00000000000E+00 -0.00000000000E+00 -0.74505805969E-08  0.93827000000E+00  0.93827000000E+00 0.  1.
     999902    2    1    2    0    0 -0.92989048638E-02 -0.11766818236E-01  0.52176025555E-02  0.10280507362E+01  0.10279280934E+01 0.  0.
     999903    2    3    3    0    0  0.82938728652E-02 -0.13721197742E+00 -0.42839956140E-02  0.13892966784E+00  0.19677014875E-01 0.  0.
         14    1    1    2    0    0  0.92989048638E-02  0.11766818236E-01 -0.52176025555E-02  0.15879263821E-01  0.00000000000E+00 0.  1.
     999901    1    3    3    0    0 -0.17592777729E-01  0.12544515918E+00  0.95015981695E-02  0.88912106834E+00  0.88000000000E+00 0. -1.
        -11    1    4    4    0    0  0.40107870196E-02 -0.61738799513E-01 -0.11710078659E-01  0.62969459589E-01  0.51100000000E-03 0.  1.
         11    1    4    4    0    0  0.42830858455E-02 -0.75473177907E-01  0.74260830449E-02  0.75960208254E-01  0.51100000000E-03 0. -1.
</event>
<event>
 8    1  0.1083484E+005  0.1043930E+01  0.7957747E-01            NaN
         13   -1    0    0    0    0  0.00000000000E+00  0.00000000000E+00  0.74505805969E-08  0.10566000000E+00  0.10566000000E+00 0. -1.
     999900   -1    0    0    0    0 -0.00000000000E+00 -0.00000000000E+00 -0.74505805969E-08  0.93827000000E+00  0.93827000000E+00 0. -1.
     999902    2    1    2    0    0 -0.12645173458E-01 -0.27731928557E-02 -0.19832950335E-01  0.10202458929E+01  0.10199709530E+01 0.  0.
     999903    2    3    3    0    0 -0.66577380626E-01 -0.11191881498E+00 -0.62398680907E-02  0.13176054035E+00  0.19066601196E-01 0.  0.
         14    1    1    2    0    0  0.12645173458E-01  0.27731928557E-02  0.19832950335E-01  0.23684107106E-01  0.00000000000E+00 0. -1.
     999901    1    3    3    0    0  0.53932207168E-01  0.10914562213E+00 -0.13593082245E-01  0.88848535254E+00  0.88000000000E+00 0. -1.
        -11    1    4    4    0    0 -0.40162366301E-01 -0.55395167256E-01 -0.10484065136E-01  0.69222951143E-01  0.51100000000E-03 0. -1.
         11    1    4    4    0    0 -0.26415014326E-01 -0.56523647728E-01  0.42441970450E-02  0.62537589207E-01  0.51100000000E-03 0.  1.
</event>
<event>
 8    1  0.1083484E+005  0.1043930E+01  0.7957747E-01            NaN
         13   -1    0    0    0    0  0.00000000000E+00  0.00000000000E+00  0.74505805969E-08  0.10566000000E+00  0.10566000000E+00 0. -1.
     999900   -1    0    0    0    0 -0.00000000000E+00 -0.00000000000E+00 -0.74505805969E-08  0.93827000000E+00  0.93827000000E+00 0. -1.
     999902    2    1    2    0    0 -0.20512078173E-01 -0.10995253989E-01 -0.15240515419E-03  0.10206563198E+01  0.10203909344E+01 0.  0.
     999903    2    3    3    0    0 -0.51550398401E-01  0.85277136259E-01  0.82661751234E-01  0.13099911903E+00  0.19954210698E-01 0.  0.
         14    1    1    2    0    0  0.20512078173E-01  0.10995253989E-01  0.15240515419E-03  0.23273680169E-01  0.00000000000E+00 0.  1.
     999901    1    3    3    0    0  0.31038320228E-01 -0.96272390248E-01 -0.82814156388E-01  0.88965720081E+00  0.88000000000E+00 0.  1.
        -11    1    4    4    0    0 -0.26175224622E-01  0.47367686573E-01  0.32215712291E-01  0.62983754689E-01  0.51100000000E-03 0. -1.
         11    1    4    4    0    0 -0.25375173779E-01  0.37909449686E-01  0.50446038943E-01  0.68015364337E-01  0.51100000000E-03 0.  1.
</event>
<event>
 8    1  0.1083484E+005  0.1043930E+01  0.7957747E-01            NaN
         13   -1    0    0    0    0  0.00000000000E+00  0.00000000000E+00  0.74505805969E-08  0.10566000000E+00  0.10566000000E+00 0.  1.
     999900   -1    0    0    0    0 -0.00000000000E+00 -0.00000000000E+00 -0.74505805969E-08  0.93827000000E+00  0.93827000000E+00 0. -1.
     999902    2    1    2    0    0  0.41891731218E-02  0.11922377005E-02  0.22864328922E-01  0.10206545163E+01  0.10203890893E+01 0.  0.
     999903    2    3    3    0    0 -0.72762181814E-01 -0.91731915161E-01 -0.49301957552E-01  0.12949550578E+00  0.25086323717E-01 0.  0.
         14    1    1    2    0    0 -0.41891731218E-02 -0.11922377005E-02 -0.22864328922E-01  0.23275483652E-01  0.00000000000E+00 0. -1.
     999901    1    3    3    0    0  0.76951354936E-01  0.92924152861E-01  0.72166286474E-01  0.89115901057E+00  0.88000000000E+00 0. -1.
        -11    1    4    4    0    0 -0.36064185161E-01 -0.34116758702E-01 -0.31864829208E-01  0.58993280440E-01  0.51100000000E-03 0. -1.
         11    1    4    4    0    0 -0.36697996653E-01 -0.57615156459E-01 -0.17437128344E-01  0.70502225341E-01  0.51100000000E-03 0.  1.
</event>
<event>
 8    1  0.1083484E+005  0.1043930E+01  0.7957747E-01            NaN
         13   -1    0    0    0    0  0.00000000000E+00  0.00000000000E+00  0.74505805969E-08  0.10566000000E+00  0.10566000000E+00 0. -1.
     999900   -1    0    0    0    0 -0.00000000000E+00 -0.00000000000E+00 -0.74505805969E-08  0.93827000000E+00  0.93827000000E+00 0.  1.
     999902    2    1    2    0    0  0.30222334936E-03  0.96963611166E-02  0.21330556758E-01  0.10204970444E+01  0.10202279717E+01 0.  0.
     999903    2    3    3    0    0  0.38170282725E-01  0.12300031001E+00 -0.17169083434E-01  0.13159097675E+00  0.20865305948E-01 0.  0.
         14    1    1    2    0    0 -0.30222334936E-03 -0.96963611166E-02 -0.21330556758E-01  0.23432955628E-01  0.00000000000E+00 0.  1.
     999901    1    3    3    0    0 -0.37868059375E-01 -0.11330394889E+00  0.38499640192E-01  0.88890606762E+00  0.88000000000E+00 0. -1.
        -11    1    4    4    0    0  0.30314206401E-01  0.66845409851E-01 -0.14539811840E-01  0.74825979293E-01  0.51100000000E-03 0. -1.
         11    1    4    4    0    0  0.78560763238E-02  0.56154900154E-01 -0.26292715939E-02  0.56764997460E-01  0.51100000000E-03 0.  1.
</event>
<event>
 8    1  0.1083484E+005  0.1043930E+01  0.7957747E-01            NaN
         13   -1    0    0    0    0  0.00000000000E+00  0.00000000000E+00  0.74505805969E-08  0.10566000000E+00  0.10566000000E+00 0.  1.
     999900   -1    0    0    0    0 -0.00000000000E+00 -0.00000000000E+00 -0.74505805969E-08  0.93827000000E+00  0.93827000000E+00 0.  1.
     999902    2    1    2    0    0 -0.13264105135E-01 -0.14049758203E-01  0.14005269410E-01  0.10200662249E+01  0.10197870481E+01 0.  0.
     999903    2    3    3    0    0 -0.32551139601E-01 -0.11304491646E+00  0.59099133000E-01  0.13315840129E+00  0.19993060956E-01 0.  0.
         14    1    1    2    0    0  0.13264105135E-01  0.14049758203E-01 -0.14005269410E-01  0.23863775096E-01  0.00000000000E+00 0. -1.
     999901    1    3    3    0    0  0.19287034466E-01  0.98995158254E-01 -0.45093863590E-01  0.88690782362E+00  0.88000000000E+00 0.  1.
        -11    1    4    4    0    0 -0.30103637310E-01 -0.76084999666E-01  0.35212318729E-01  0.89080439294E-01  0.51100000000E-03 0.  1.
         11    1    4    4    0    0 -0.24475022911E-02 -0.36959916791E-01  0.23886814270E-01  0.44077961996E-01  0.51100000000E-03 0. -1.
</event>
<event>
 8    1  0.1083484E+005  0.1043930E+01  0.7957747E-01            NaN
         13   -1    0    0    0    0  0.00000000000E+00  0.00000000000E+00  0.74505805969E-08  0.10566000000E+00  0.10566000000E+00 0. -1.
     999900   -1    0    0    0    0 -0.00000000000E+00 -0.00000000000E+00 -0.74505805969E-08  0.93827000000E+00  0.93827000000E+00 0.  1.
     999902    2    1    2    0    0  0.20240404921E-01  0.86074079977E-02  0.42014330611E-02  0.10215377356E+01  0.10212922852E+01 0.  0.
     999903    2    3    3    0    0  0.10025355966E+00 -0.78014589022E-02  0.86277642953E-01  0.13395232561E+00  0.19691492540E-01 0.  0.
         14    1    1    2    0    0 -0.20240404921E-01 -0.86074079977E-02 -0.42014330611E-02  0.22392264369E-01  0.00000000000E+00 0.  1.
     999901    1    3    3    0    0 -0.80013154739E-01  0.16408866900E-01 -0.82076209892E-01  0.88758541002E+00  0.88000000000E+00 0.  1.
        -11    1    4    4    0    0  0.35352751011E-01 -0.37978892495E-02  0.18727884290E-01  0.40189995493E-01  0.51100000000E-03 0.  1.
         11    1    4    4    0    0  0.64900808650E-01 -0.40035696527E-02  0.67549758663E-01  0.93762330121E-01  0.51100000000E-03 0. -1.
</event>
<event>
 8    1  0.1083484E+005  0.1043930E+01  0.7957747E-01            NaN
         13   -1    0    0    0    0  0.00000000000E+00  0.00000000000E+00  0.74505805969E-08  0.10566000000E+00  0.10566000000E+00 0. -1.
     999900   -1    0    0    0    0 -0.00000000000E+00 -0.00000000000E+00 -0.74505805969E-08  0.93827000000E+00  0.93827000000E+00 0.  1.
     999902    2    1    2    0    0 -0.10201668515E-01  0.18570426787E-01 -0.12348027279E-01  0.10194063671E+01  0.10191113446E+01 0.  0.
     999903    2    3    3    0    0  0.89687346631E-01  0.91743954503E-01  0.10259737570E-01  0.13045007375E+00  0.21241143871E-01 0.  0.
         14    1    1    2    0    0  0.10201668515E-01 -0.18570426787E-01  0.12348027279E-01  0.24523632871E-01  0.00000000000E+00 0. -1.
     999901    1    3    3    0    0 -0.99889015146E-01 -0.73173527717E-01 -0.22607764848E-01  0.88895629338E+00  0.88000000000E+00 0. -1.
        -11    1    4    4    0    0  0.43450714494E-01  0.36136564429E-01  0.13320520515E-01  0.58064733415E-01  0.51100000000E-03 0. -1.
         11    1    4    4    0    0  0.46236632137E-01  0.55607390075E-01 -0.30607829457E-02  0.72385340336E-01  0.51100000000E-03 0.  1.
</event>
<event>
 8    1  0.1083484E+005  0.1043930E+01  0.7957747E-01            NaN
         13   -1    0    0    0    0  0.00000000000E+00  0.00000000000E+00  0.74505805969E-08  0.10566000000E+00  0.10566000000E+00 0. -1.
     999900   -1    0    0    0    0 -0.00000000000E+00 -0.00000000000E+00 -0.74505805969E-08  0.93827000000E+00  0.93827000000E+00 0. -1.
     999902    2    1    2    0    0  0.23727683591E-01  0.64704602717E-02 -0.75562767603E-02  0.10182012779E+01  0.10178761590E+01 0.  0.
     999903    2    3    3    0    0  0.12599745939E+00  0.31995882435E-01  0.64076736928E-02  0.13180089082E+00  0.20768251564E-01 0.  0.
         14    1    1    2    0    0 -0.23727683591E-01 -0.64704602717E-02  0.75562767603E-02  0.25728722145E-01  0.00000000000E+00 0. -1.
     999901    1    3    3    0    0 -0.10226977580E+00 -0.25525422163E-01 -0.13963950453E-01  0.88640038703E+00  0.88000000000E+00 0.  1.
        -11    1    4    4    0    0  0.49947111084E-01  0.45801406274E-02  0.87874048713E-02  0.50923189209E-01  0.51100000000E-03 0. -1.
         11    1    4    4    0    0  0.76050348309E-01  0.27415741807E-01 -0.23797311786E-02  0.80877701614E-01  0.51100000000E-03 0.  1.
</event>
<event>
 8    1  0.1083484E+005  0.1043930E+01  0.7957747E-01            NaN
         13   -1    0    0    0    0  0.00000000000E+00  0.00000000000E+00  0.74505805969E-08  0.10566000000E+00  0.10566000000E+00 0. -1.
     999900   -1    0    0    0    0 -0.00000000000E+00 -0.00000000000E+00 -0.74505805969E-08  0.93827000000E+00  0.93827000000E+00 0.  1.
     999902    2    1    2    0    0 -0.14988323819E-01 -0.49879373955E-02  0.15178847617E-01  0.10220227687E+01  0.10217879491E+01 0.  0.
     999903    2    3    3    0    0 -0.12552841833E-01  0.98699757762E-01 -0.82199421207E-01  0.13059717056E+00  0.19991500453E-01 0.  0.
         14    1    1    2    0    0  0.14988323819E-01  0.49879373955E-02 -0.15178847617E-01  0.21907231348E-01  0.00000000000E+00 0.  1.
     999901    1    3    3    0    0 -0.24354819860E-02 -0.10368769516E+00  0.97378268824E-01  0.89142559809E+00  0.88000000000E+00 0. -1.
        -11    1    4    4    0    0 -0.17455245123E-01  0.86191767448E-01 -0.69311395136E-01  0.11197337619E+00  0.51100000000E-03 0.  1.
         11    1    4    4    0    0  0.49024032902E-02  0.12507990314E-01 -0.12888026071E-01  0.18623794370E-01  0.51100000000E-03 0. -1.
</event>
<event>
 8    1  0.1083484E+005  0.1043930E+01  0.7957747E-01            NaN
         13   -1    0    0    0    0  0.00000000000E+00  0.00000000000E+00  0.74505805969E-08  0.10566000000E+00  0.10566000000E+00 0.  1.
     999900   -1    0    0    0    0 -0.00000000000E+00 -0.00000000000E+00 -0.74505805969E-08  0.93827000000E+00  0.93827000000E+00 0. -1.
     999902    2    1    2    0    0  0.17432424627E-02  0.24141701815E-01 -0.23267451603E-02  0.10196138654E+01  0.10193238740E+01 0.  0.
     999903    2    3    3    0    0  0.11994903811E+00 -0.40926783975E-01 -0.15277994675E-01  0.12923515221E+00  0.20137876139E-01 0.  0.
         14    1    1    2    0    0 -0.17432424627E-02 -0.24141701815E-01  0.23267451603E-02  0.24316134641E-01  0.00000000000E+00 0.  1.
     999901    1    3    3    0    0 -0.11820579565E+00  0.65068485790E-01  0.12951249515E-01  0.89037871315E+00  0.88000000000E+00 0. -1.
        -11    1    4    4    0    0  0.86032702821E-01 -0.38091584775E-01 -0.80145359433E-02  0.94430337778E-01  0.51100000000E-03 0. -1.
         11    1    4    4    0    0  0.33916335288E-01 -0.28351991997E-02 -0.72634587322E-02  0.34804814431E-01  0.51100000000E-03 0.  1.
</event>
<event>
 8    1  0.1083484E+005  0.1043930E+01  0.7957747E-01            NaN
         13   -1    0    0    0    0  0.00000000000E+00  0.00000000000E+00  0.74505805969E-08  0.10566000000E+00  0.10566000000E+00 0.  1.
     999900   -1    0    0    0    0 -0.00000000000E+00 -0.00000000000E+00 -0.74505805969E-08  0.93827000000E+00  0.93827000000E+00 0.  1.
     999902    2    1    2    0    0  0.12262085344E-01  0.16554553604E-01 -0.11056023067E-01  0.10205495033E+01  0.10202816479E+01 0.  0.
     999903    2    3    3    0    0  0.27260924814E-01  0.12942663220E+00  0.10187499161E-01  0.13295930584E+00  0.89431944377E-02 0.  0.
         14    1    1    2    0    0 -0.12262085344E-01 -0.16554553604E-01  0.11056023067E-01  0.23380496745E-01  0.00000000000E+00 0.  1.
     999901    1    3    3    0    0 -0.14998839470E-01 -0.11287207859E+00 -0.21243522228E-01  0.88759019742E+00  0.88000000000E+00 0.  1.
        -11    1    4    4    0    0  0.23773776394E-01  0.98320396954E-01  0.10056627010E-01  0.10165377400E+00  0.51100000000E-03 0.  1.
         11    1    4    4    0    0  0.34871484206E-02  0.31106235242E-01  0.13087215170E-03  0.31305531836E-01  0.51100000000E-03 0. -1.
</event>
<event>
 8    1  0.1083484E+005  0.1043930E+01  0.7957747E-01            NaN
         13   -1    0    0    0    0  0.00000000000E+00  0.00000000000E+00  0.74505805969E-08  0.10566000000E+00  0.10566000000E+00 0.  1.
     999900   -1    0    0    0    0 -0.00000000000E+00 -0.00000000000E+00 -0.74505805969E-08  0.93827000000E+00  0.93827000000E+00 0. -1.
     999902    2    1    2    0    0  0.72074071544E-02 -0.19137641444E-01 -0.13866248840E-01  0.10192223313E+01  0.10189228095E+01 0.  0.
     999903    2    3    3    0    0  0.11394300121E+00  0.35178459495E-01  0.46117687365E-01  0.12908706150E+00  0.17779111978E-01 0.  0.
         14    1    1    2    0    0 -0.72074071544E-02  0.19137641444E-01  0.13866248840E-01  0.24707668745E-01  0.00000000000E+00 0. -1.
     999901    1    3    3    0    0 -0.10673559405E+00 -0.54316100939E-01 -0.59983936205E-01  0.89013526975E+00  0.88000000000E+00 0. -1.
        -11    1    4    4    0    0  0.20958037549E-01 -0.36832364501E-03  0.94636632166E-02  0.23004283138E-01  0.51100000000E-03 0.  1.
         11    1    4    4    0    0  0.92984963657E-01  0.35546783140E-01  0.36654024149E-01  0.10608277836E+00  0.51100000000E-03 0. -1.
</event>
<event>
 8    1  0.1083484E+005  0.1043930E+01  0.7957747E-01            NaN
         13   -1    0    0    0    0  0.00000000000E+00  0.00000000000E+00  0.74505805969E-08  0.10566000000E+00  0.10566000000E+00 0.  1.
     999900   -1    0    0    0    0 -0.00000000000E+00 -0.00000000000E+00 -0.74505805969E-08  0.93827000000E+00  0.93827000000E+00 0.  1.
     999902    2    1    2    0    0  0.52788199957E-02  0.38065513060E-02 -0.22049439155E-01  0.10209401427E+01  0.10206812634E+01 0.  0.
     999903    2    3    3    0    0 -0.54263866452E-01 -0.96042032520E-01  0.63973665726E-01  0.12913576626E+00  0.20366074917E-01 0.  0.
         14    1    1    2    0    0 -0.52788199957E-02 -0.38065513060E-02  0.22049439155E-01  0.22989857338E-01  0.00000000000E+00 0.  1.
     999901    1    3    3    0    0  0.59542686448E-01  0.99848583826E-01 -0.86023104881E-01  0.89180437640E+00  0.88000000000E+00 0.  1.
        -11    1    4    4    0    0 -0.15746740792E-01 -0.46015668858E-01  0.33264000189E-01  0.58925007048E-01  0.51100000000E-03 0. -1.
         11    1    4    4    0    0 -0.38517125660E-01 -0.50026363661E-01  0.30709665537E-01  0.70210759208E-01  0.51100000000E-03 0.  1.
</event>
<event>
 8    1  0.1083484E+005  0.1043930E+01  0.7957747E-01            NaN
         13   -1    0    0    0    0  0.00000000000E+00  0.00000000000E+00  0.74505805969E-08  0.10566000000E+00  0.10566000000E+00 0.  1.
     999900   -1    0    0    0    0 -0.00000000000E+00 -0.00000000000E+00 -0.74505805969E-08  0.93827000000E+00  0.93827000000E+00 0. -1.
     999902    2    1    2    0    0 -0.11345798032E-01 -0.86591489080E-02 -0.19671715746E-01  0.10196260005E+01  0.10193363019E+01 0.  0.
     999903    2    3    3    0    0  0.39025340670E-01 -0.11085524356E+00  0.50656262217E-01  0.12949830297E+00  0.19796245388E-01 0.  0.
         14    1    1    2    0    0  0.11345798032E-01  0.86591489080E-02  0.19671715746E-01  0.24303999531E-01  0.00000000000E+00 0.  1.
     999901    1    3    3    0    0 -0.50371138702E-01  0.10219609465E+00 -0.70327977963E-01  0.89012769750E+00  0.88000000000E+00 0.  1.
        -11    1    4    4    0    0  0.23461357846E-01 -0.53366067966E-01  0.34675057572E-01  0.67830621851E-01  0.51100000000E-03 0. -1.
         11    1    4    4    0    0  0.15563982824E-01 -0.57489175590E-01  0.15981204645E-01  0.61667681117E-01  0.51100000000E-03 0.  1.
</event>
<event>
 8    1  0.1083484E+005  0.1043930E+01  0.7957747E-01            NaN
         13   -1    0    0    0    0  0.00000000000E+00  0.00000000000E+00  0.74505805969E-08  0.10566000000E+00  0.10566000000E+00 0.  1.
     999900   -1    0    0    0    0 -0.00000000000E+00 -0.00000000000E+00 -0.74505805969E-08  0.93827000000E+00  0.93827000000E+00 0.  1.
     999902    2    1    2    0    0 -0.10846489339E-01  0.18707913907E-01  0.87333143397E-02  0.10206082687E+01  0.10203417736E+01 0.  0.
     999903    2    3    3    0    0 -0.13027915277E+00 -0.32345934883E-02 -0.81182928073E-02  0.13210975352E+00  0.20098757544E-01 0.  0.
         14    1    1    2    0    0  0.10846489339E-01 -0.18707913907E-01 -0.87333143397E-02  0.23321731348E-01  0.00000000000E+00 0. -1.
     999901    1    3    3    0    0  0.11943266343E+00  0.21942507395E-01  0.16851607147E-01  0.88849851513E+00  0.88000000000E+00 0. -1.
        -11    1    4    4    0    0 -0.34258245883E-01 -0.95494504934E-02 -0.38824652465E-03  0.35570089570E-01  0.51100000000E-03 0. -1.
         11    1    4    4    0    0 -0.96020906891E-01  0.63148570051E-02 -0.77300462827E-02  0.96539663950E-01  0.51100000000E-03 0.  1.
</event>
<event>
 8    1  0.1083484E+005  0.1043930E+01  0.7957747E-01            NaN
         13   -1    0    0    0    0  0.00000000000E+00  0.00000000000E+00  0.74505805969E-08  0.10566000000E+00  0.10566000000E+00 0. -1.
     999900   -1    0    0    0    0 -0.00000000000E+00 -0.00000000000E+00 -0.74505805969E-08  0.93827000000E+00  0.93827000000E+00 0.  1.
     999902    2    1    2    0    0  0.18196608364E-03  0.22668545729E-02 -0.23424401810E-01  0.10203954649E+01  0.10201240270E+01 0.  0.
     999903    2    3    3    0    0  0.84398311485E-01  0.74092660474E-02 -0.10071577746E+00  0.13298755760E+00  0.19080105881E-01 0.  0.
         14    1    1    2    0    0 -0.18196608364E-03 -0.22668545729E-02  0.23424401810E-01  0.23534535080E-01  0.00000000000E+00 0. -1.
     999901    1    3    3    0    0 -0.84216345401E-01 -0.51424114745E-02  0.77291375655E-01  0.88740790732E+00  0.88000000000E+00 0. -1.
        -11    1    4    4    0    0  0.27223287854E-01 -0.62912458468E-02 -0.35524693590E-01  0.45199028215E-01  0.51100000000E-03 0.  1.
         11    1    4    4    0    0  0.57175023631E-01  0.13700511894E-01 -0.65191083874E-01  0.87788529382E-01  0.51100000000E-03 0. -1.
</event>
<event>
 8    1  0.1083484E+005  0.1043930E+01  0.7957747E-01            NaN
         13   -1    0    0    0    0  0.00000000000E+00  0.00000000000E+00  0.74505805969E-08  0.10566000000E+00  0.10566000000E+00 0. -1.
     999900   -1    0    0    0    0 -0.00000000000E+00 -0.00000000000E+00 -0.74505805969E-08  0.93827000000E+00  0.93827000000E+00 0.  1.
     999902    2    1    2    0    0 -0.90341027981E-02  0.19008551102E-01  0.14413133240E-01  0.10184216006E+01  0.10181020962E+01 0.  0.
     999903    2    3    3    0    0 -0.12637829297E+00  0.23890079349E-01  0.46746471961E-03  0.13050945974E+00  0.22142532188E-01 0.  0.
         14    1    1    2    0    0  0.90341027981E-02 -0.19008551102E-01 -0.14413133240E-01  0.25508399365E-01  0.00000000000E+00 0.  1.
     999901    1    3    3    0    0  0.11734419017E+00 -0.48815282468E-02  0.13945668521E-01  0.88791214090E+00  0.88000000000E+00 0. -1.
        -11    1    4    4    0    0 -0.62898866503E-01  0.64769063292E-03 -0.11496545756E-03  0.62904381791E-01  0.51100000000E-03 0.  1.
         11    1    4    4    0    0 -0.63479426468E-01  0.23242388716E-01  0.58243017717E-03  0.67605077944E-01  0.51100000000E-03 0. -1.
</event>
<event>
 8    1  0.1083484E+005  0.1043930E+01  0.7957747E-01            NaN
         13   -1    0    0    0    0  0.00000000000E+00  0.00000000000E+00  0.74505805969E-08  0.10566000000E+00  0.10566000000E+00 0.  1.
     999900   -1    0    0    0    0 -0.00000000000E+00 -0.00000000000E+00 -0.74505805969E-08  0.93827000000E+00  0.93827000000E+00 0.  1.
     999902    2    1    2    0    0 -0.41576005491E-02 -0.20617614387E-01 -0.18718063880E-01  0.10157744041E+01  0.10153841157E+01 0.  0.
     999903    2    3    3    0    0 -0.72865158656E-01 -0.87485209101E-02  0.97960163292E-01  0.12533888559E+00  0.26977299429E-01 0.  0.
         14    1    1    2    0    0  0.41576005491E-02  0.20617614387E-01  0.18718063880E-01  0.28155595905E-01  0.00000000000E+00 0. -1.
     999901    1    3    3    0    0  0.68707558107E-01 -0.11869093477E-01 -0.11667822717E+00  0.89043551851E+00  0.88000000000E+00 0.  1.
        -11    1    4    4    0    0 -0.65567174438E-01 -0.56382566097E-03  0.73319828547E-01  0.98363766918E-01  0.51100000000E-03 0.  1.
         11    1    4    4    0    0 -0.72979842177E-02 -0.81846952491E-02  0.24640334745E-01  0.26975118671E-01  0.51100000000E-03 0. -1.
</event>
<event>
 8    1  0.1083484E+005  0.1043930E+01  0.7957747E-01            NaN
         13   -1    0    0    0    0  0.00000000000E+00  0.00000000000E+00  0.74505805969E-08  0.10566000000E+00  0.10566000000E+00 0. -1.
     999900   -1    0    0    0    0 -0.00000000000E+00 -0.00000000000E+00 -0.74505805969E-08  0.93827000000E+00  0.93827000000E+00 0. -1.
     999902    2    1    2    0    0  0.17687273055E-01  0.13872795419E-01  0.66809918432E-02  0.10204794193E+01  0.10202099370E+01 0.  0.
     999903    2    3    3    0    0 -0.76739458724E-01  0.65835765118E-01  0.80305405500E-01  0.13085190618E+00  0.21212512946E-01 0.  0.
         14    1    1    2    0    0 -0.17687273055E-01 -0.13872795419E-01 -0.66809918432E-02  0.23450580651E-01  0.00000000000E+00 0.  1.
     999901    1    3    3    0    0  0.94426731779E-01 -0.51962969700E-01 -0.73624413657E-01  0.88962751317E+00  0.88000000000E+00 0. -1.
        -11    1    4    4    0    0 -0.30667363051E-01  0.27354528361E-01  0.19797783018E-01  0.45617657894E-01  0.51100000000E-03 0.  1.
         11    1    4    4    0    0 -0.46072095674E-01  0.38481236757E-01  0.60507622482E-01  0.85234248290E-01  0.51100000000E-03 0. -1.
</event>
<event>
 8    1  0.1083484E+005  0.1043930E+01  0.7957747E-01            NaN
         13   -1    0    0    0    0  0.00000000000E+00  0.00000000000E+00  0.74505805969E-08  0.10566000000E+00  0.10566000000E+00 0. -1.
     999900   -1    0    0    0    0 -0.00000000000E+00 -0.00000000000E+00 -0.74505805969E-08  0.93827000000E+00  0.93827000000E+00 0. -1.
     999902    2    1    2    0    0  0.20014975357E-02 -0.10342571962E-01  0.21157402675E-01  0.10202950582E+01  0.10200212720E+01 0.  0.
     999903    2    3    3    0    0 -0.12458159929E+00  0.18965352190E-03 -0.30343669787E-01  0.12968483555E+00  0.19411528159E-01 0.  0.
         14    1    1    2    0    0 -0.20014975357E-02  0.10342571962E-01 -0.21157402675E-01  0.23634941826E-01  0.00000000000E+00 0.  1.
     999901    1    3    3    0    0  0.12658309683E+00 -0.10532225484E-01  0.51501072461E-01  0.89061022262E+00  0.88000000000E+00 0.  1.
        -11    1    4    4    0    0 -0.76746652638E-01  0.83446396736E-02 -0.13867297793E-01  0.78436246541E-01  0.51100000000E-03 0.  1.
         11    1    4    4    0    0 -0.47834946653E-01 -0.81549861517E-02 -0.16476371994E-01  0.51248589010E-01  0.51100000000E-03 0. -1.
</event>
<event>
 8    1  0.1083484E+005  0.1043930E+01  0.7957747E-01            NaN
         13   -1    0    0    0    0  0.00000000000E+00  0.00000000000E+00  0.74505805969E-08  0.10566000000E+00  0.10566000000E+00 0.  1.
     999900   -1    0    0    0    0 -0.00000000000E+00 -0.00000000000E+00 -0.74505805969E-08  0.93827000000E+00  0.93827000000E+00 0. -1.
     999902    2    1    2    0    0 -0.75759803864E-02 -0.10943771036E-01 -0.21157486009E-01  0.10189339840E+01  0.10186273425E+01 0.  0.
     999903    2    3    3    0    0  0.11301634511E+00  0.35126732050E-01 -0.47718874295E-01  0.12911911133E+00  0.19699552747E-01 0.  0.
         14    1    1    2    0    0  0.75759803864E-02  0.10943771036E-01  0.21157486009E-01  0.24996016033E-01  0.00000000000E+00 0.  1.
     999901    1    3    3    0    0 -0.12059232550E+00 -0.46070503086E-01  0.26561388285E-01  0.88981487264E+00  0.88000000000E+00 0.  1.
        -11    1    4    4    0    0  0.28169659009E-01  0.78619856472E-02 -0.21235582790E-01  0.36146252979E-01  0.51100000000E-03 0. -1.
         11    1    4    4    0    0  0.84846686105E-01  0.27264746403E-01 -0.26483291505E-01  0.92972858348E-01  0.51100000000E-03 0.  1.
</event>
<event>
 8    1  0.1083484E+005  0.1043930E+01  0.7957747E-01            NaN
         13   -1    0    0    0    0  0.00000000000E+00  0.00000000000E+00  0.74505805969E-08  0.10566000000E+00  0.10566000000E+00 0. -1.
     999900   -1    0    0    0    0 -0.00000000000E+00 -0.00000000000E+00 -0.74505805969E-08  0.93827000000E+00  0.93827000000E+00 0.  1.
     999902    2    1    2    0    0 -0.14917152261E-01 -0.18656001108E-01  0.56968604242E-03  0.10200366463E+01  0.10197567688E+01 0.  0.
     999903    2    3    3    0    0 -0.12366891695E+00  0.16989724646E-01  0.37327521780E-01  0.13186509610E+00  0.20307829165E-01 0.  0.
         14    1    1    2    0    0  0.14917152261E-01  0.18656001108E-01 -0.56968604242E-03  0.23893353702E-01  0.00000000000E+00 0. -1.
     999901    1    3    3    0    0  0.10875176469E+00 -0.35645725755E-01 -0.36757835738E-01  0.88817155019E+00  0.88000000000E+00 0.  1.
        -11    1    4    4    0    0 -0.64863218008E-01  0.18422766153E-01  0.16092929244E-01  0.69324446307E-01  0.51100000000E-03 0.  1.
         11    1    4    4    0    0 -0.58805698941E-01 -0.14330415069E-02  0.21234592536E-01  0.62540649797E-01  0.51100000000E-03 0. -1.
</event>
<event>
 8    1  0.1083484E+005  0.1043930E+01  0.7957747E-01            NaN
         13   -1    0    0    0    0  0.00000000000E+00  0.00000000000E+00  0.74505805969E-08  0.10566000000E+00  0.10566000000E+00 0.  1.
     999900   -1    0    0    0    0 -0.00000000000E+00 -0.00000000000E+00 -0.74505805969E-08  0.93827000000E+00  0.93827000000E+00 0.  1.
     999902    2    1    2    0    0 -0.13250406537E-01 -0.92184873524E-02 -0.17347576709E-01  0.10202341734E+01  0.10199589581E+01 0.  0.
     999903    2    3    3    0    0  0.17372978867E-01 -0.10635603340E+00  0.70048397998E-01  0.13005916193E+00  0.19879167601E-01 0.  0.
         14    1    1    2    0    0  0.13250406537E-01  0.92184873524E-02  0.17347576709E-01  0.23695826640E-01  0.00000000000E+00 0.  1.
     999901    1    3    3    0    0 -0.30623385404E-01  0.97137546044E-01 -0.87395974707E-01  0.89017501143E+00  0.88000000000E+00 0.  1.
        -11    1    4    4    0    0  0.39424628544E-02 -0.70422100470E-01  0.52178312898E-01  0.87736267905E-01  0.51100000000E-03 0. -1.
         11    1    4    4    0    0  0.13430516013E-01 -0.35933932927E-01  0.17870085099E-01  0.42322894022E-01  0.51100000000E-03 0.  1.
</event>
<event>
 8    1  0.1083484E+005  0.1043930E+01  0.7957747E-01            NaN
         13   -1    0    0    0    0  0.00000000000E+00  0.00000000000E+00  0.74505805969E-08  0.10566000000E+00  0.10566000000E+00 0.  1.
     999900   -1    0    0    0    0 -0.00000000000E+00 -0.00000000000E+00 -0.74505805969E-08  0.93827000000E+00  0.93827000000E+00 0.  1.
     999902    2    1    2    0    0 -0.30864943502E-03 -0.17501357536E-01  0.12681695703E-01  0.10223147696E+01  0.10220862341E+01 0.  0.
     999903    2    3    3    0    0  0.10807871957E+00 -0.40817834087E-01  0.63862668668E-01  0.13388302103E+00  0.22340941545E-01 0.  0.
         14    1    1    2    0    0  0.30864943502E-03  0.17501357536E-01 -0.12681695703E-01  0.21615230416E-01  0.00000000000E+00 0. -1.
     999901    1    3    3    0    0 -0.10838736900E+00  0.23316476552E-01 -0.51180972965E-01  0.88843174855E+00  0.88000000000E+00 0.  1.
        -11    1    4    4    0    0  0.76550102552E-01 -0.21209484473E-01  0.34774041172E-01  0.86713640754E-01  0.51100000000E-03 0. -1.
         11    1    4    4    0    0  0.31528617014E-01 -0.19608349614E-01  0.29088627495E-01  0.47169380279E-01  0.51100000000E-03 0.  1.
</event>
<event>
 8    1  0.1083484E+005  0.1043930E+01  0.7957747E-01            NaN
         13   -1    0    0    0    0  0.00000000000E+00  0.00000000000E+00  0.74505805969E-08  0.10566000000E+00  0.10566000000E+00 0. -1.
     999900   -1    0    0    0    0 -0.00000000000E+00 -0.00000000000E+00 -0.74505805969E-08  0.93827000000E+00  0.93827000000E+00 0. -1.
     999902    2    1    2    0    0  0.15978997498E-01 -0.81224039408E-02 -0.15156147493E-01  0.10204563847E+01  0.10201863666E+01 0.  0.
     999903    2    3    3    0    0  0.12449740493E+00 -0.42557854319E-01  0.16634546091E-02  0.13296275433E+00  0.19119418379E-01 0.  0.
         14    1    1    2    0    0 -0.15978997498E-01  0.81224039408E-02  0.15156147493E-01  0.23473615266E-01  0.00000000000E+00 0. -1.
     999901    1    3    3    0    0 -0.10851840743E+00  0.34435450378E-01 -0.16819602103E-01  0.88749363040E+00  0.88000000000E+00 0. -1.
        -11    1    4    4    0    0  0.88536393324E-01 -0.39199639432E-01  0.76702394750E-03  0.96830543328E-01  0.51100000000E-03 0. -1.
         11    1    4    4    0    0  0.35961011605E-01 -0.33582148869E-02  0.89643066160E-03  0.36132211001E-01  0.51100000000E-03 0.  1.
</event>
<event>
 8    1  0.1083484E+005  0.1043930E+01  0.7957747E-01            NaN
         13   -1    0    0    0    0  0.00000000000E+00  0.00000000000E+00  0.74505805969E-08  0.10566000000E+00  0.10566000000E+00 0.  1.
     999900   -1    0    0    0    0 -0.00000000000E+00 -0.00000000000E+00 -0.74505805969E-08  0.93827000000E+00  0.93827000000E+00 0. -1.
     999902    2    1    2    0    0 -0.14041528506E-02  0.23054136810E-01 -0.48612215893E-02  0.10203271115E+01  0.10200540761E+01 0.  0.
     999903    2    3    3    0    0 -0.49004486281E-01  0.22937618012E-01 -0.11833704464E+00  0.13176503280E+00  0.20755571314E-01 0.  0.
         14    1    1    2    0    0  0.14041528506E-02 -0.23054136810E-01  0.48612215893E-02  0.23602888480E-01  0.00000000000E+00 0. -1.
     999901    1    3    3    0    0  0.47600333431E-01  0.11651879766E-03  0.11347582305E+00  0.88856207872E+00  0.88000000000E+00 0.  1.
        -11    1    4    4    0    0 -0.24236250418E-01  0.13917752359E-01 -0.83643323404E-01  0.88190511599E-01  0.51100000000E-03 0. -1.
         11    1    4    4    0    0 -0.24768235864E-01  0.90198656532E-02 -0.34693721231E-01  0.43574521203E-01  0.51100000000E-03 0.  1.
</event>
<event>
 8    1  0.1083484E+005  0.1043930E+01  0.7957747E-01            NaN
         13   -1    0    0    0    0  0.00000000000E+00  0.00000000000E+00  0.74505805969E-08  0.10566000000E+00  0.10566000000E+00 0. -1.
     999900   -1    0    0    0    0 -0.00000000000E+00 -0.00000000000E+00 -0.74505805969E-08  0.93827000000E+00  0.93827000000E+00 0.  1.
     999902    2    1    2    0    0 -0.10452140750E-01 -0.30072775670E-02  0.20978540661E-01  0.10202997200E+01  0.10200260430E+01 0.  0.
     999903    2    3    3    0    0 -0.42831041665E-01  0.92497682291E-01 -0.76531963992E-01  0.12918923914E+00  0.21033274537E-01 0.  0.
         14    1    1    2    0    0  0.10452140750E-01  0.30072775670E-02 -0.20978540661E-01  0.23630280000E-01  0.00000000000E+00 0.  1.
     999901    1    3    3    0    0  0.32378900915E-01 -0.95504959858E-01  0.97510504653E-01  0.89111048086E+00  0.88000000000E+00 0. -1.
        -11    1    4    4    0    0 -0.18377152324E-01  0.20110178000E-01 -0.15124298285E-01  0.31163191530E-01  0.51100000000E-03 0.  1.
         11    1    4    4    0    0 -0.24453889341E-01  0.72387504291E-01 -0.61407665707E-01  0.98026047610E-01  0.51100000000E-03 0. -1.
</event>
<event>
 8    1  0.1083484E+005  0.1043930E+01  0.7957747E-01            NaN
         13   -1    0    0    0    0  0.00000000000E+00  0.00000000000E+00  0.74505805969E-08  0.10566000000E+00  0.10566000000E+00 0. -1.
     999900   -1    0    0    0    0 -0.00000000000E+00 -0.00000000000E+00 -0.74505805969E-08  0.93827000000E+00  0.93827000000E+00 0.  1.
     999902    2    1    2    0    0 -0.23066577458E-01 -0.63319508685E-02  0.61224733309E-02  0.10192390041E+01  0.10189398914E+01 0.  0.
     999903    2    3    3    0    0 -0.78391261757E-01  0.52635291196E-01 -0.88002680924E-01  0.13053348429E+00  0.19464194608E-01 0.  0.
         14    1    1    2    0    0  0.23066577458E-01  0.63319508685E-02 -0.61224733309E-02  0.24690995871E-01  0.00000000000E+00 0. -1.
     999901    1    3    3    0    0  0.55324684299E-01 -0.58967242065E-01  0.94125154255E-01  0.88870551984E+00  0.88000000000E+00 0. -1.
        -11    1    4    4    0    0 -0.10444972554E-01  0.12584718366E-01 -0.23542412288E-01  0.28670174143E-01  0.51100000000E-03 0. -1.
         11    1    4    4    0    0 -0.67946289203E-01  0.40050572830E-01 -0.64460268636E-01  0.10186331015E+00  0.51100000000E-03 0.  1.
</event>
<event>
 8    1  0.1083484E+005  0.1043930E+01  0.7957747E-01            NaN
         13   -1    0    0    0    0  0.00000000000E+00  0.00000000000E+00  0.74505805969E-08  0.10566000000E+00  0.10566000000E+00 0.  1.
     999900   -1    0    0    0    0 -0.00000000000E+00 -0.00000000000E+00 -0.74505805969E-08  0.93827000000E+00  0.93827000000E+00 0. -1.
     999902    2    1    2    0    0 -0.17168196691E-01  0.13955196798E-01 -0.84597009428E-02  0.10202432730E+01  0.10199682716E+01 0.  0.
     999903    2    3    3    0    0  0.50506727512E-01 -0.72112827037E-01  0.90807049736E-01  0.12791962776E+00  0.19139528123E-01 0.  0.
         14    1    1    2    0    0  0.17168196691E-01 -0.13955196798E-01  0.84597009428E-02  0.23686726986E-01  0.00000000000E+00 0. -1.
     999901    1    3    3    0    0 -0.67674924203E-01  0.86068023835E-01 -0.99266750679E-01  0.89232364526E+00  0.88000000000E+00 0.  1.
        -11    1    4    4    0    0  0.38494298128E-01 -0.41551070521E-01  0.50143407908E-01  0.75650016044E-01  0.51100000000E-03 0.  1.
         11    1    4    4    0    0  0.12012429384E-01 -0.30561756516E-01  0.40663641827E-01  0.52269611714E-01  0.51100000000E-03 0. -1.
</event>
<event>
 7    1  0.1083484E+005  0.1043930E+01  0.7957747E-01            NaN
         13   -1    0    0    0    0  0.00000000000E+00  0.00000000000E+00  0.74505805969E-08  0.10566000000E+00  0.10566000000E+00 0.  1.
     999900   -1    0    0    0    0 -0.00000000000E+00 -0.00000000000E+00 -0.74505805969E-08  0.93827000000E+00  0.93827000000E+00 0.  1.
     999903    2    1    2    0    0 -0.39188804831E-01 -0.38571809741E-01 -0.89948553601E-01  0.10732223382E+00  0.20094094834E-01 0.  0.
         14    1    1    2    0    0 -0.89543228739E-02  0.46342371778E-02  0.52909135286E-01  0.53861235124E-01  0.00000000000E+00 0.  1.
     999901    1    1    2    0    0  0.48143127705E-01  0.33937572563E-01  0.37039418315E-01  0.88274653105E+00  0.88000000000E+00 0. -1.
        -11    1    3    3    0    0 -0.29408567418E-01 -0.17020526781E-01 -0.61942435300E-01  0.70651883071E-01  0.51100000000E-03 0.  1.
         11    1    3    3    0    0 -0.97802374127E-02 -0.21551282960E-01 -0.28006118301E-01  0.36670350753E-01  0.51100000000E-03 0. -1.
</event>
<event>
 8    1  0.1083484E+005  0.1043930E+01  0.7957747E-01            NaN
         13   -1    0    0    0    0  0.00000000000E+00  0.00000000000E+00  0.74505805969E-08  0.10566000000E+00  0.10566000000E+00 0. -1.
     999900   -1    0    0    0    0 -0.00000000000E+00 -0.00000000000E+00 -0.74505805969E-08  0.93827000000E+00  0.93827000000E+00 0. -1.
     999902    2    1    2    0    0  0.15207924907E-01 -0.32831465893E-02  0.17507337154E-01  0.10205084952E+01  0.10202396885E+01 0.  0.
     999903    2    3    3    0    0  0.12677764628E+00  0.74409395207E-02 -0.31467302297E-01  0.13204840943E+00  0.17850830296E-01 0.  0.
         14    1    1    2    0    0 -0.15207924907E-01  0.32831465893E-02 -0.17507337154E-01  0.23421504771E-01  0.00000000000E+00 0.  1.
     999901    1    3    3    0    0 -0.11156972137E+00 -0.10724086110E-01  0.48974639450E-01  0.88846008580E+00  0.88000000000E+00 0. -1.
        -11    1    4    4    0    0  0.89865201100E-01  0.46597560975E-02 -0.13840176344E-01  0.91045479283E-01  0.51100000000E-03 0. -1.
         11    1    4    4    0    0  0.36912445179E-01  0.27811834232E-02 -0.17627125952E-01  0.41002930147E-01  0.51100000000E-03 0.  1.
</event>
<event>
 8    1  0.1083484E+005  0.1043930E+01  0.7957747E-01            NaN
         13   -1    0    0    0    0  0.00000000000E+00  0.00000000000E+00  0.74505805969E-08  0.10566000000E+00  0.10566000000E+00 0. -1.
     999900   -1    0    0    0    0 -0.00000000000E+00 -0.00000000000E+00 -0.74505805969E-08  0.93827000000E+00  0.93827000000E+00 0.  1.
     999902    2    1    2    0    0 -0.40921110286E-02 -0.19154819934E-01 -0.11331380026E-01  0.10213014191E+01  0.10210507020E+01 0.  0.
     999903    2    3    3    0    0  0.10867643451E+00 -0.62316685732E-01  0.36079850564E-01  0.13179171355E+00  0.19322613806E-01 0.  0.
         14    1    1    2    0    0  0.40921110286E-02  0.19154819934E-01  0.11331380026E-01  0.22628580881E-01  0.00000000000E+00 0. -1.
     999901    1    3    3    0    0 -0.11276854554E+00  0.43161865798E-01 -0.47411230590E-01  0.88950970557E+00  0.88000000000E+00 0.  1.
        -11    1    4    4    0    0  0.69095978302E-01 -0.49869850765E-01  0.25957729386E-01  0.89080419109E-01  0.51100000000E-03 0.  1.
         11    1    4    4    0    0  0.39580456208E-01 -0.12446834968E-01  0.10122121178E-01  0.42711294437E-01  0.51100000000E-03 0. -1.
</event>
<event>
 8    1  0.1083484E+005  0.1043930E+01  0.7957747E-01            NaN
         13   -1    0    0    0    0  0.00000000000E+00  0.00000000000E+00  0.74505805969E-08  0.10566000000E+00  0.10566000000E+00 0.  1.
     999900   -1    0    0    0    0 -0.00000000000E+00 -0.00000000000E+00 -0.74505805969E-08  0.93827000000E+00  0.93827000000E+00 0.  1.
     999902    2    1    2    0    0  0.16235376501E-01  0.15063178029E-01  0.90582618760E-02  0.10200022151E+01  0.10197215208E+01 0.  0.
     999903    2    3    3    0    0  0.93661036552E-01  0.32663463254E-01 -0.83791340188E-01  0.13156226131E+00  0.21174236943E-01 0.  0.
         14    1    1    2    0    0 -0.16235376501E-01 -0.15063178029E-01 -0.90582618760E-02  0.23927784910E-01  0.00000000000E+00 0. -1.
     999901    1    3    3    0    0 -0.77425660051E-01 -0.17600285225E-01  0.92849602064E-01  0.88843995378E+00  0.88000000000E+00 0. -1.
        -11    1    4    4    0    0  0.29160525488E-01  0.14010780814E-01 -0.15811665608E-01  0.36012610514E-01  0.51100000000E-03 0. -1.
         11    1    4    4    0    0  0.64500511064E-01  0.18652682440E-01 -0.67979674580E-01  0.95549650793E-01  0.51100000000E-03 0.  1.
</event>
<event>
 8    1  0.1083484E+005  0.1043930E+01  0.7957747E-01            NaN
         13   -1    0    0    0    0  0.00000000000E+00  0.00000000000E+00  0.74505805969E-08  0.10566000000E+00  0.10566000000E+00 0. -1.
     999900   -1    0    0    0    0 -0.00000000000E+00 -0.00000000000E+00 -0.74505805969E-08  0.93827000000E+00  0.93827000000E+00 0. -1.
     999902    2    1    2    0    0  0.21076617562E-01  0.19596830455E-02  0.10888698070E-01  0.10201260526E+01  0.10198482903E+01 0.  0.
     999903    2    3    3    0    0 -0.13889168535E-01  0.12737439223E+00  0.15612427943E-01  0.13053414106E+00  0.19449145928E-01 0.  0.
         14    1    1    2    0    0 -0.21076617562E-01 -0.19596830455E-02 -0.10888698070E-01  0.23803947386E-01  0.00000000000E+00 0.  1.
     999901    1    3    3    0    0  0.34965786097E-01 -0.12541470919E+00 -0.47237298732E-02  0.88959191155E+00  0.88000000000E+00 0.  1.
        -11    1    4    4    0    0 -0.13125627650E-01  0.37867586347E-01  0.43279813127E-02  0.40314125815E-01  0.51100000000E-03 0.  1.
         11    1    4    4    0    0 -0.76354088537E-03  0.89506805884E-01  0.11284446630E-01  0.90220015246E-01  0.51100000000E-03 0. -1.
</event>
<event>
 8    1  0.1083484E+005  0.1043930E+01  0.7957747E-01            NaN
         13   -1    0    0    0    0  0.00000000000E+00  0.00000000000E+00  0.74505805969E-08  0.10566000000E+00  0.10566000000E+00 0.  1.
     999900   -1    0    0    0    0 -0.00000000000E+00 -0.00000000000E+00 -0.74505805969E-08  0.93827000000E+00  0.93827000000E+00 0.  1.
     999902    2    1    2    0    0  0.37951224927E-02  0.27072383146E-02 -0.22773544559E-01  0.10206842170E+01  0.10204194748E+01 0.  0.
     999903    2    3    3    0    0 -0.28202902452E-01 -0.10035533635E+00  0.73085121034E-01  0.12892491561E+00  0.20337200123E-01 0.  0.
         14    1    1    2    0    0 -0.37951224927E-02 -0.27072383146E-02  0.22773544559E-01  0.23245782968E-01  0.00000000000E+00 0.  1.
     999901    1    3    3    0    0  0.31998024944E-01  0.10306257466E+00 -0.95858665593E-01  0.89175930142E+00  0.88000000000E+00 0.  1.
        -11    1    4    4    0    0 -0.25746558111E-01 -0.57724015966E-01  0.38861966592E-01  0.74198792728E-01  0.51100000000E-03 0. -1.
         11    1    4    4    0    0 -0.24563443401E-02 -0.42631320384E-01  0.34223154442E-01  0.54726122886E-01  0.51100000000E-03 0.  1.
</event>
<event>
 8    1  0.1083484E+005  0.1043930E+01  0.7957747E-01            NaN
         13   -1    0    0    0    0  0.00000000000E+00  0.00000000000E+00  0.74505805969E-08  0.10566000000E+00  0.10566000000E+00 0. -1.
     999900   -1    0    0    0    0 -0.00000000000E+00 -0.00000000000E+00 -0.74505805969E-08  0.93827000000E+00  0.93827000000E+00 0.  1.
     999902    2    1    2    0    0  0.13214760307E-01 -0.39743924358E-02  0.18513461684E-01  0.10208394403E+01  0.10205782620E+01 0.  0.
     999903    2    3    3    0    0  0.32773553371E-01 -0.18809424910E-01 -0.12210259617E+00  0.12933761733E+00  0.19780672381E-01 0.  0.
         14    1    1    2    0    0 -0.13214760307E-01  0.39743924358E-02 -0.18513461684E-01  0.23090559731E-01  0.00000000000E+00 0.  1.
     999901    1    3    3    0    0 -0.19558793064E-01  0.14835032474E-01  0.14061605785E+00  0.89150182294E+00  0.88000000000E+00 0. -1.
        -11    1    4    4    0    0  0.24339321806E-01 -0.20208810469E-01 -0.74026206137E-01  0.80504278909E-01  0.51100000000E-03 0. -1.
         11    1    4    4    0    0  0.84342315649E-02  0.13993855594E-02 -0.48076390031E-01  0.48833338422E-01  0.51100000000E-03 0.  1.
</event>
<event>
 8    1  0.1083484E+005  0.1043930E+01  0.7957747E-01            NaN
         13   -1    0    0    0    0  0.00000000000E+00  0.00000000000E+00  0.74505805969E-08  0.10566000000E+00  0.10566000000E+00 0. -1.
     999900   -1    0    0    0    0 -0.00000000000E+00 -0.00000000000E+00 -0.74505805969E-08  0.93827000000E+00  0.93827000000E+00 0.  1.
     999902    2    1    2    0    0 -0.23778682008E-02  0.53930977568E-02  0.18714818770E-01  0.10243089857E+01  0.10241210446E+01 0.  0.
     999903    2    3    3    0    0 -0.26841908194E-02 -0.79878554534E-01  0.10824964578E+00  0.13566516855E+00  0.17299242478E-01 0.  0.
         14    1    1    2    0    0  0.23778682008E-02 -0.53930977568E-02 -0.18714818770E-01  0.19621014301E-01  0.00000000000E+00 0.  1.
     999901    1    3    3    0    0  0.30632261860E-03  0.85271652290E-01 -0.89534827009E-01  0.88864381715E+00  0.88000000000E+00 0.  1.
        -11    1    4    4    0    0 -0.99947733113E-02 -0.40376078181E-01  0.55093405737E-01  0.69033815334E-01  0.51100000000E-03 0. -1.
         11    1    4    4    0    0  0.73105824919E-02 -0.39502476353E-01  0.53156240042E-01  0.66631353212E-01  0.51100000000E-03 0.  1.
</event>
<event>
 8    1  0.1083484E+005  0.1043930E+01  0.7957747E-01            NaN
         13   -1    0    0    0    0  0.00000000000E+00  0.00000000000E+00  0.74505805969E-08  0.10566000000E+00  0.10566000000E+00 0.  1.
     999900   -1    0    0    0    0 -0.00000000000E+00 -0.00000000000E+00 -0.74505805969E-08  0.93827000000E+00  0.93827000000E+00 0.  1.
     999902    2    1    2    0    0  0.11591753235E-01 -0.18496743777E-01 -0.85426680614E-02  0.10204891073E+01  0.10202198502E+01 0.  0.
     999903    2    3    3    0    0 -0.10606102607E+00 -0.32710765749E-01  0.64048017063E-01  0.12958303903E+00  0.19253053454E-01 0.  0.
         14    1    1    2    0    0 -0.11591753235E-01  0.18496743777E-01  0.85426680614E-02  0.23440892709E-01  0.00000000000E+00 0.  1.
     999901    1    3    3    0    0  0.11765277931E+00  0.14214021972E-01 -0.72590685124E-01  0.89090606826E+00  0.88000000000E+00 0.  1.
        -11    1    4    4    0    0 -0.60031842702E-01 -0.27270191844E-01  0.42659127236E-01  0.78533736439E-01  0.51100000000E-03 0.  1.
         11    1    4    4    0    0 -0.46029183368E-01 -0.54405739048E-02  0.21388889826E-01  0.51049302590E-01  0.51100000000E-03 0. -1.
</event>
<event>
 8    1  0.1083484E+005  0.1043930E+01  0.7957747E-01            NaN
         13   -1    0    0    0    0  0.00000000000E+00  0.00000000000E+00  0.74505805969E-08  0.10566000000E+00  0.10566000000E+00 0. -1.
     999900   -1    0    0    0    0 -0.00000000000E+00 -0.00000000000E+00 -0.74505805969E-08  0.93827000000E+00  0.93827000000E+00 0. -1.
     999902    2    1    2    0    0  0.81448102050E-02  0.19239050649E-01 -0.10945461249E-01  0.10203443661E+01  0.10200717344E+01 0.  0.
     999903    2    3    3    0    0  0.46673795025E-01 -0.75800443509E-01  0.90633923533E-01  0.12858466782E+00  0.19883619498E-01 0.  0.
         14    1    1    2    0    0 -0.81448102050E-02 -0.19239050649E-01  0.10945461249E-01  0.23585633871E-01  0.00000000000E+00 0. -1.
     999901    1    3    3    0    0 -0.38528984820E-01  0.95039494158E-01 -0.10157938478E+00  0.89175969831E+00  0.88000000000E+00 0. -1.
        -11    1    4    4    0    0  0.12924887721E-01 -0.28045917653E-01  0.19613366429E-01  0.36586493181E-01  0.51100000000E-03 0.  1.
         11    1    4    4    0    0  0.33748907304E-01 -0.47754525856E-01  0.71020557104E-01  0.91998174636E-01  0.51100000000E-03 0. -1.
</event>
<event>
 8    1  0.1083484E+005  0.1043930E+01  0.7957747E-01            NaN
         13   -1    0    0    0    0  0.00000000000E+00  0.00000000000E+00  0.74505805969E-08  0.10566000000E+00  0.10566000000E+00 0.  1.
     999900   -1    0    0    0    0 -0.00000000000E+00 -0.00000000000E+00 -0.74505805969E-08  0.93827000000E+00  0.93827000000E+00 0.  1.
     999902    2    1    2    0    0  0.13558815453E-01 -0.44961150241E-02  0.16455447336E-01  0.10221392159E+01  0.10219069127E+01 0.  0.
     999903    2    3    3    0    0  0.62655415256E-01 -0.98894173484E-01  0.63182586739E-01  0.13449914515E+00  0.19804599707E-01 0.  0.
         14    1    1    2    0    0 -0.13558815453E-01  0.44961150241E-02 -0.16455447336E-01  0.21790784149E-01  0.00000000000E+00 0. -1.
     999901    1    3    3    0    0 -0.49096599803E-01  0.94398058460E-01 -0.46727139403E-01  0.88764007070E+00  0.88000000000E+00 0.  1.
        -11    1    4    4    0    0  0.48663721553E-01 -0.75598709406E-01  0.38572722537E-01  0.97833729890E-01  0.51100000000E-03 0.  1.
         11    1    4    4    0    0  0.13991693703E-01 -0.23295464078E-01  0.24609864202E-01  0.36665415262E-01  0.51100000000E-03 0. -1.
</event>
<event>
 8    1  0.1083484E+005  0.1043930E+01  0.7957747E-01            NaN
         13   -1    0    0    0    0  0.00000000000E+00  0.00000000000E+00  0.74505805969E-08  0.10566000000E+00  0.10566000000E+00 0. -1.
     999900   -1    0    0    0    0 -0.00000000000E+00 -0.00000000000E+00 -0.74505805969E-08  0.93827000000E+00  0.93827000000E+00 0. -1.
     999902    2    1    2    0    0 -0.14550962503E-01  0.19043637627E-01  0.70828192314E-02  0.10189388621E+01  0.10186323418E+01 0.  0.
     999903    2    3    3    0    0  0.28635708228E-01 -0.23457164006E-01  0.12241144590E+00  0.12934788938E+00  0.19392577712E-01 0.  0.
         14    1    1    2    0    0  0.14550962503E-01 -0.19043637627E-01 -0.70828192314E-02  0.24991137871E-01  0.00000000000E+00 0.  1.
     999901    1    3    3    0    0 -0.43186670731E-01  0.42500801634E-01 -0.11532862667E+00  0.88959097275E+00  0.88000000000E+00 0. -1.
        -11    1    4    4    0    0  0.14081766909E-01 -0.82940992051E-02  0.83834283579E-01  0.85413912596E-01  0.51100000000E-03 0.  1.
         11    1    4    4    0    0  0.14553941319E-01 -0.15163064801E-01  0.38577162322E-01  0.43933976782E-01  0.51100000000E-03 0. -1.
</event>
<event>
 8    1  0.1083484E+005  0.1043930E+01  0.7957747E-01            NaN
         13   -1    0    0    0    0  0.00000000000E+00  0.00000000000E+00  0.74505805969E-08  0.10566000000E+00  0.10566000000E+00 0. -1.
     999900   -1    0    0    0    0 -0.00000000000E+00 -0.00000000000E+00 -0.74505805969E-08  0.93827000000E+00  0.93827000000E+00 0. -1.
     999902    2    1    2    0    0  0.49128865653E-02 -0.62429165839E-02 -0.22612343009E-01  0.10199627616E+01  0.10196811298E+01 0.  0.
     999903    2    3    3    0    0  0.16723630770E-01 -0.12196144302E+00 -0.43228587958E-01  0.13206901759E+00  0.20475379813E-01 0.  0.
         14    1    1    2    0    0 -0.49128865653E-02  0.62429165839E-02  0.22612343009E-01  0.23967238436E-01  0.00000000000E+00 0. -1.
     999901    1    3    3    0    0 -0.11810744205E-01  0.11571852644E+00  0.20616244949E-01  0.88789374398E+00  0.88000000000E+00 0.  1.
        -11    1    4    4    0    0  0.19605258587E-01 -0.70408260008E-01 -0.23164001442E-01  0.76671515737E-01  0.51100000000E-03 0.  1.
         11    1    4    4    0    0 -0.28816278172E-02 -0.51553183017E-01 -0.20064586516E-01  0.55397501849E-01  0.51100000000E-03 0. -1.
</event>
<event>
 8    1  0.1083484E+005  0.1043930E+01  0.7957747E-01            NaN
         13   -1    0    0    0    0  0.00000000000E+00  0.00000000000E+00  0.74505805969E-08  0.10566000000E+00  0.10566000000E+00 0. -1.
     999900   -1    0    0    0    0 -0.00000000000E+00 -0.00000000000E+00 -0.74505805969E-08  0.93827000000E+00  0.93827000000E+00 0. -1.
     999902    2    1    2    0    0  0.18318935967E-01 -0.68072338497E-02 -0.12336637121E-01  0.10208190835E+01  0.10205574392E+01 0.  0.
     999903    2    3    3    0    0  0.93925306952E-01 -0.91098577949E-01 -0.17314667636E-01  0.13355016436E+00  0.20369940954E-01 0.  0.
         14    1    1    2    0    0 -0.18318935967E-01  0.68072338497E-02  0.12336637121E-01  0.23110916536E-01  0.00000000000E+00 0. -1.
     999901    1    3    3    0    0 -0.75606370985E-01  0.84291344099E-01  0.49780305147E-02  0.88726891911E+00  0.88000000000E+00 0.  1.
        -11    1    4    4    0    0  0.41630763517E-01 -0.36955870306E-01  0.24482244003E-02  0.55723529544E-01  0.51100000000E-03 0.  1.
         11    1    4    4    0    0  0.52294543436E-01 -0.54142707643E-01 -0.19762892036E-01  0.77826634815E-01  0.51100000000E-03 0. -1.
</event>
<event>
 8    1  0.1083484E+005  0.1043930E+01  0.7957747E-01            NaN
         13   -1    0    0    0    0  0.00000000000E+00  0.00000000000E+00  0.74505805969E-08  0.10566000000E+00  0.10566000000E+00 0.  1.
     999900   -1    0    0    0    0 -0.00000000000E+00 -0.00000000000E+00 -0.74505805969E-08  0.93827000000E+00  0.93827000000E+00 0. -1.
     999902    2    1    2    0    0  0.83908749325E-02  0.21712618103E-01 -0.50565850455E-02  0.10201095546E+01  0.10198314026E+01 0.  0.
     999903    2    3    3    0    0 -0.96955652775E-01  0.56375917508E-01 -0.65049553261E-01  0.13112215791E+00  0.19568679971E-01 0.  0.
         14    1    1    2    0    0 -0.83908749325E-02 -0.21712618103E-01  0.50565850455E-02  0.23820445406E-01  0.00000000000E+00 0. -1.
     999901    1    3    3    0    0  0.10534652771E+00 -0.34663299405E-01  0.59992968215E-01  0.88898739668E+00  0.88000000000E+00 0.  1.
        -11    1    4    4    0    0 -0.64466653646E-01  0.30578920606E-01 -0.49378668802E-01  0.86772886730E-01  0.51100000000E-03 0.  1.
         11    1    4    4    0    0 -0.32488999129E-01  0.25796996902E-01 -0.15670884459E-01  0.44349271181E-01  0.51100000000E-03 0. -1.
</event>
<event>
 8    1  0.1083484E+005  0.1043930E+01  0.7957747E-01            NaN
         13   -1    0    0    0    0  0.00000000000E+00  0.00000000000E+00  0.74505805969E-08  0.10566000000E+00  0.10566000000E+00 0. -1.
     999900   -1    0    0    0    0 -0.00000000000E+00 -0.00000000000E+00 -0.74505805969E-08  0.93827000000E+00  0.93827000000E+00 0.  1.
     999902    2    1    2    0    0 -0.20303323729E-01  0.13247794480E-01  0.85234017129E-03  0.10196718983E+01  0.10193833061E+01 0.  0.
     999903    2    3    3    0    0  0.10422117800E+00 -0.64397446957E-01  0.27460155890E-01  0.12712323808E+00  0.19929184165E-01 0.  0.
         14    1    1    2    0    0  0.20303323729E-01 -0.13247794480E-01 -0.85234017129E-03  0.24258101674E-01  0.00000000000E+00 0. -1.
     999901    1    3    3    0    0 -0.12452450173E+00  0.77645241436E-01 -0.26607815719E-01  0.89254866024E+00  0.88000000000E+00 0. -1.
        -11    1    4    4    0    0  0.31358617483E-01 -0.22269646663E-01 -0.39564400379E-03  0.38467099034E-01  0.51100000000E-03 0. -1.
         11    1    4    4    0    0  0.72862560513E-01 -0.42127800294E-01  0.27855799894E-01  0.88656139047E-01  0.51100000000E-03 0.  1.
</event>
<event>
 8    1  0.1083484E+005  0.1043930E+01  0.7957747E-01            NaN
         13   -1    0    0    0    0  0.00000000000E+00  0.00000000000E+00  0.74505805969E-08  0.10566000000E+00  0.10566000000E+00 0. -1.
     999900   -1    0    0    0    0 -0.00000000000E+00 -0.00000000000E+00 -0.74505805969E-08  0.93827000000E+00  0.93827000000E+00 0.  1.
     999902    2    1    2    0    0 -0.15941296020E-02  0.19307976758E-01  0.14730431799E-01  0.10195922754E+01  0.10193017626E+01 0.  0.
     999903    2    3    3    0    0 -0.11721964934E-01  0.97134741705E-01 -0.84209064768E-01  0.13057675118E+00  0.19661099983E-01 0.  0.
         14    1    1    2    0    0  0.15941296020E-02 -0.19307976758E-01 -0.14730431799E-01  0.24337724558E-01  0.00000000000E+00 0.  1.
     999901    1    3    3    0    0  0.10127835332E-01 -0.77826764947E-01  0.98939496567E-01  0.88901552426E+00  0.88000000000E+00 0. -1.
        -11    1    4    4    0    0 -0.18695406654E-02  0.79795548983E-01 -0.68570071621E-01  0.10522804124E+00  0.51100000000E-03 0. -1.
         11    1    4    4    0    0 -0.98524242687E-02  0.17339192722E-01 -0.15638993147E-01  0.25348709945E-01  0.51100000000E-03 0.  1.
</event>
<event>
 8    1  0.1083484E+005  0.1043930E+01  0.7957747E-01            NaN
         13   -1    0    0    0    0  0.00000000000E+00  0.00000000000E+00  0.74505805969E-08  0.10566000000E+00  0.10566000000E+00 0.  1.
     999900   -1    0    0    0    0 -0.00000000000E+00 -0.00000000000E+00 -0.74505805969E-08  0.93827000000E+00  0.93827000000E+00 0.  1.
     999902    2    1    2    0    0 -0.20135544663E-01  0.83796693138E-02  0.95584042874E-02  0.10201177740E+01  0.10198398162E+01 0.  0.
     999903    2    3    3    0    0 -0.69185921504E-01  0.39572513431E-01  0.10471898581E+00  0.13308086984E+00  0.19793341645E-01 0.  0.
         14    1    1    2    0    0  0.20135544663E-01 -0.83796693138E-02 -0.95584042874E-02  0.23812226045E-01  0.00000000000E+00 0. -1.
     999901    1    3    3    0    0  0.49050376841E-01 -0.31192844117E-01 -0.95160581524E-01  0.88703690412E+00  0.88000000000E+00 0.  1.
        -11    1    4    4    0    0 -0.41740960078E-01  0.21049510662E-01  0.45530384164E-01  0.65258460374E-01  0.51100000000E-03 0. -1.
         11    1    4    4    0    0 -0.27444961427E-01  0.18523002769E-01  0.59188601647E-01  0.67822409462E-01  0.51100000000E-03 0.  1.
</event>
<event>
 8    1  0.1083484E+005  0.1043930E+01  0.7957747E-01            NaN
         13   -1    0    0    0    0  0.00000000000E+00  0.00000000000E+00  0.74505805969E-08  0.10566000000E+00  0.10566000000E+00 0.  1.
     999900   -1    0    0    0    0 -0.00000000000E+00 -0.00000000000E+00 -0.74505805969E-08  0.93827000000E+00  0.93827000000E+00 0.  1.
     999902    2    1    2    0    0  0.95091827133E-02 -0.58615354812E-02  0.20360140012E-01  0.10207067906E+01  0.10204425682E+01 0.  0.
     999903    2    3    3    0    0  0.27251416211E-01  0.45840921254E-01  0.12041015428E+00  0.13335233140E+00  0.20981165107E-01 0.  0.
         14    1    1    2    0    0 -0.95091827133E-02  0.58615354812E-02 -0.20360140012E-01  0.23223209412E-01  0.00000000000E+00 0. -1.
     999901    1    3    3    0    0 -0.17742233498E-01 -0.51702456735E-01 -0.10005001427E+00  0.88735445919E+00  0.88000000000E+00 0.  1.
        -11    1    4    4    0    0  0.41917186206E-02  0.26252477608E-01  0.47988246448E-01  0.54862519115E-01  0.51100000000E-03 0.  1.
         11    1    4    4    0    0  0.23059697591E-01  0.19588443646E-01  0.72421907835E-01  0.78489812287E-01  0.51100000000E-03 0. -1.
</event>
<event>
 8    1  0.1083484E+005  0.1043930E+01  0.7957747E-01            NaN
         13   -1    0    0    0    0  0.00000000000E+00  0.00000000000E+00  0.74505805969E-08  0.10566000000E+00  0.10566000000E+00 0.  1.
     999900   -1    0    0    0    0 -0.00000000000E+00 -0.00000000000E+00 -0.74505805969E-08  0.93827000000E+00  0.93827000000E+00 0.  1.
     999902    2    1    2    0    0 -0.26892339217E-01 -0.12462246434E-01 -0.10153043598E-02  0.10142730221E+01  0.10138393497E+01 0.  0.
     999903    2    3    3    0    0 -0.46726455043E-01  0.49313306197E-01  0.10389860474E+00  0.12566932001E+00  0.19562570326E-01 0.  0.
         14    1    1    2    0    0  0.26892339217E-01  0.12462246434E-01  0.10153043598E-02  0.29656977892E-01  0.00000000000E+00 0. -1.
     999901    1    3    3    0    0  0.19834115826E-01 -0.61775552632E-01 -0.10491390910E+00  0.88860370209E+00  0.88000000000E+00 0. -1.
        -11    1    4    4    0    0 -0.28826679329E-01  0.41773879312E-01  0.68058395307E-01  0.84901358804E-01  0.51100000000E-03 0. -1.
         11    1    4    4    0    0 -0.17899775714E-01  0.75394268853E-02  0.35840209429E-01  0.40767961210E-01  0.51100000000E-03 0.  1.
</event>
<event>
 8    1  0.1083484E+005  0.1043930E+01  0.7957747E-01            NaN
         13   -1    0    0    0    0  0.00000000000E+00  0.00000000000E+00  0.74505805969E-08  0.10566000000E+00  0.10566000000E+00 0.  1.
     999900   -1    0    0    0    0 -0.00000000000E+00 -0.00000000000E+00 -0.74505805969E-08  0.93827000000E+00  0.93827000000E+00 0. -1.
     999902    2    1    2    0    0 -0.24642667750E-02 -0.13865721075E-01  0.18299161785E-01  0.10208390894E+01  0.10205779031E+01 0.  0.
     999903    2    3    3    0    0  0.10178661412E+00 -0.72371079292E-01  0.39567393352E-01  0.13250161927E+00  0.19824544388E-01 0.  0.
         14    1    1    2    0    0  0.24642667750E-02  0.13865721075E-01 -0.18299161785E-01  0.23090910629E-01  0.00000000000E+00 0. -1.
     999901    1    3    3    0    0 -0.10425088090E+00  0.58505358217E-01 -0.21268231567E-01  0.88833747010E+00  0.88000000000E+00 0. -1.
        -11    1    4    4    0    0  0.37449929212E-01 -0.18305709729E-01  0.19891391896E-01  0.46190094168E-01  0.51100000000E-03 0. -1.
         11    1    4    4    0    0  0.64336684912E-01 -0.54065369563E-01  0.19676001456E-01  0.86311525103E-01  0.51100000000E-03 0.  1.
</event>
<event>
 8    1  0.1083484E+005  0.1043930E+01  0.7957747E-01            NaN
         13   -1    0    0    0    0  0.00000000000E+00  0.00000000000E+00  0.74505805969E-08  0.10566000000E+00  0.10566000000E+00 0. -1.
     999900   -1    0    0    0    0 -0.00000000000E+00 -0.00000000000E+00 -0.74505805969E-08  0.93827000000E+00  0.93827000000E+00 0. -1.
     999902    2    1    2    0    0 -0.18384063639E-01 -0.11907792115E-01 -0.40042667623E-02  0.10216633554E+01  0.10214206814E+01 0.  0.
     999903    2    3    3    0    0  0.44013950493E-01  0.36287591919E-01  0.11512547796E+00  0.13014319115E+00  0.20720940150E-01 0.  0.
         14    1    1    2    0    0  0.18384063639E-01  0.11907792115E-01  0.40042667623E-02  0.22266644589E-01  0.00000000000E+00 0. -1.
     999901    1    3    3    0    0 -0.62398014132E-01 -0.48195384034E-01 -0.11912974473E+00  0.89152016426E+00  0.88000000000E+00 0. -1.
        -11    1    4    4    0    0  0.12225738480E-01  0.44632085438E-02  0.12327409856E-01  0.17933629489E-01  0.51100000000E-03 0.  1.
         11    1    4    4    0    0  0.31788212013E-01  0.31824383375E-01  0.10279806811E+00  0.11220956166E+00  0.51100000000E-03 0. -1.
</event>
<event>
 8    1  0.1083484E+005  0.1043930E+01  0.7957747E-01            NaN
         13   -1    0    0    0    0  0.00000000000E+00  0.00000000000E+00  0.74505805969E-08  0.10566000000E+00  0.10566000000E+00 0.  1.
     999900   -1    0    0    0    0 -0.00000000000E+00 -0.00000000000E+00 -0.74505805969E-08  0.93827000000E+00  0.93827000000E+00 0. -1.
     999902    2    1    2    0    0 -0.14121664185E-01 -0.34457129544E-02  0.18208897317E-01  0.10206306807E+01  0.10203647035E+01 0.  0.
     999903    2    3    3    0    0 -0.14953230214E-01 -0.10245778769E+00  0.80976567116E-01  0.13285601178E+00  0.19295545924E-01 0.  0.
         14    1    1    2    0    0  0.14121664185E-01  0.34457129544E-02 -0.18208897317E-01  0.23299319274E-01  0.00000000000E+00 0.  1.
     999901    1    3    3    0    0  0.83156602890E-03  0.99012074737E-01 -0.62767669799E-01  0.88777466894E+00  0.88000000000E+00 0. -1.
        -11    1    4    4    0    0 -0.56740900619E-02 -0.86886007488E-02  0.13128547548E-01  0.16742370284E-01  0.51100000000E-03 0. -1.
         11    1    4    4    0    0 -0.92791401522E-02 -0.93769186942E-01  0.67848019568E-01  0.11611364150E+00  0.51100000000E-03 0.  1.
</event>
<event>
 8    1  0.1083484E+005  0.1043930E+01  0.7957747E-01            NaN
         13   -1    0    0    0    0  0.00000000000E+00  0.00000000000E+00  0.74505805969E-08  0.10566000000E+00  0.10566000000E+00 0.  1.
     999900   -1    0    0    0    0 -0.00000000000E+00 -0.00000000000E+00 -0.74505805969E-08  0.93827000000E+00  0.93827000000E+00 0. -1.
     999902    2    1    2    0    0  0.19218188413E-01 -0.99063363077E-02 -0.11179919798E-01  0.10195893987E+01  0.10192988164E+01 0.  0.
     999903    2    3    3    0    0  0.27495873514E-01 -0.17106421610E-02  0.12458942212E+00  0.12910132822E+00  0.19638724160E-01 0.  0.
         14    1    1    2    0    0 -0.19218188413E-01  0.99063363077E-02  0.11179919798E-01  0.24340601299E-01  0.00000000000E+00 0.  1.
     999901    1    3    3    0    0 -0.82776851010E-02 -0.81956941468E-02 -0.13576934191E+00  0.89048807049E+00  0.88000000000E+00 0. -1.
        -11    1    4    4    0    0  0.16339062050E-02 -0.44326010233E-02  0.47609820368E-01  0.47846355324E-01  0.51100000000E-03 0.  1.
         11    1    4    4    0    0  0.25861967309E-01  0.27219588623E-02  0.76979601749E-01  0.81254972891E-01  0.51100000000E-03 0. -1.
</event>
<event>
 8    1  0.1083484E+005  0.1043930E+01  0.7957747E-01            NaN
         13   -1    0    0    0    0  0.00000000000E+00  0.00000000000E+00  0.74505805969E-08  0.10566000000E+00  0.10566000000E+00 0. -1.
     999900   -1    0    0    0    0 -0.00000000000E+00 -0.00000000000E+00 -0.74505805969E-08  0.93827000000E+00  0.93827000000E+00 0.  1.
     999902    2    1    2    0    0 -0.13444506671E-01  0.17325745536E-01 -0.75770523615E-02  0.10207276738E+01  0.10204639318E+01 0.  0.
     999903    2    3    3    0    0 -0.21783972565E-01  0.55976550166E-01  0.11507884259E+00  0.13134142479E+00  0.19987851895E-01 0.  0.
         14    1    1    2    0    0  0.13444506671E-01 -0.17325745536E-01  0.75770523615E-02  0.23202326187E-01  0.00000000000E+00 0. -1.
     999901    1    3    3    0    0  0.83394658940E-02 -0.38650804630E-01 -0.12265589495E+00  0.88938624903E+00  0.88000000000E+00 0.  1.
        -11    1    4    4    0    0 -0.16767374205E-01  0.54151154652E-01  0.95664734458E-01  0.11120024698E+00  0.51100000000E-03 0. -1.
         11    1    4    4    0    0 -0.50165983598E-02  0.18253955135E-02  0.19414108135E-01  0.20141177809E-01  0.51100000000E-03 0.  1.
</event>
<event>
 8    1  0.1083484E+005  0.1043930E+01  0.7957747E-01            NaN
         13   -1    0    0    0    0  0.00000000000E+00  0.00000000000E+00  0.74505805969E-08  0.10566000000E+00  0.10566000000E+00 0.  1.
     999900   -1    0    0    0    0 -0.00000000000E+00 -0.00000000000E+00 -0.74505805969E-08  0.93827000000E+00  0.93827000000E+00 0.  1.
     999902    2    1    2    0    0 -0.33992729015E-02  0.23557784958E-02 -0.21385532180E-01  0.10221482247E+01  0.10219161157E+01 0.  0.
     999903    2    3    3    0    0 -0.12610782115E-01 -0.50292905217E-01 -0.12275020589E+00  0.13471849065E+00  0.19825502182E-01 0.  0.
         14    1    1    2    0    0  0.33992729015E-02 -0.23557784958E-02  0.21385532180E-01  0.21781775300E-01  0.00000000000E+00 0.  1.
     999901    1    3    3    0    0  0.92115092140E-02  0.52648683712E-01  0.10136467371E+00  0.88742973405E+00  0.88000000000E+00 0. -1.
        -11    1    4    4    0    0  0.76005476266E-03 -0.35119916197E-01 -0.82555527389E-01  0.89719910948E-01  0.51100000000E-03 0.  1.
         11    1    4    4    0    0 -0.13370836878E-01 -0.15172989020E-01 -0.40194678500E-01  0.44998579703E-01  0.51100000000E-03 0. -1.
</event>
<event>
 8    1  0.1083484E+005  0.1043930E+01  0.7957747E-01            NaN
         13   -1    0    0    0    0  0.00000000000E+00  0.00000000000E+00  0.74505805969E-08  0.10566000000E+00  0.10566000000E+00 0.  1.
     999900   -1    0    0    0    0 -0.00000000000E+00 -0.00000000000E+00 -0.74505805969E-08  0.93827000000E+00  0.93827000000E+00 0. -1.
     999902    2    1    2    0    0 -0.14112663250E-01 -0.15123151337E-01  0.10819403187E-01  0.10205861259E+01  0.10203191187E+01 0.  0.
     999903    2    3    3    0    0  0.11489745906E+00  0.18477025482E-01  0.53182807660E-01  0.12953773132E+00  0.20218462747E-01 0.  0.
         14    1    1    2    0    0  0.14112663250E-01  0.15123151337E-01 -0.10819403187E-01  0.23343874051E-01  0.00000000000E+00 0. -1.
     999901    1    3    3    0    0 -0.12901012231E+00 -0.33600176819E-01 -0.42363404473E-01  0.89104839463E+00  0.88000000000E+00 0. -1.
        -11    1    4    4    0    0  0.94623277455E-02 -0.25543748439E-02  0.54304992556E-03  0.98293693301E-02  0.51100000000E-03 0. -1.
         11    1    4    4    0    0  0.10543513131E+00  0.21031400326E-01  0.52639757735E-01  0.11970836199E+00  0.51100000000E-03 0.  1.
</event>
<event>
 8    1  0.1083484E+005  0.1043930E+01  0.7957747E-01            NaN
         13   -1    0    0    0    0  0.00000000000E+00  0.00000000000E+00  0.74505805969E-08  0.10566000000E+00  0.10566000000E+00 0. -1.
     999900   -1    0    0    0    0 -0.00000000000E+00 -0.00000000000E+00 -0.74505805969E-08  0.93827000000E+00  0.93827000000E+00 0. -1.
     999902    2    1    2    0    0 -0.45756981756E-02  0.17219203271E-01  0.15428534515E-01  0.10203614266E+01  0.10200891938E+01 0.  0.
     999903    2    3    3    0    0  0.65503272104E-01 -0.89469556496E-01  0.64476391689E-01  0.12980022947E+00  0.19885026743E-01 0.  0.
         14    1    1    2    0    0  0.45756981756E-02 -0.17219203271E-01 -0.15428534515E-01  0.23568573405E-01  0.00000000000E+00 0.  1.
     999901    1    3    3    0    0 -0.70078970279E-01  0.10668875977E+00 -0.49047857174E-01  0.89056119713E+00  0.88000000000E+00 0.  1.
        -11    1    4    4    0    0  0.43548138052E-02 -0.14144077330E-01  0.35279092760E-02  0.15222568497E-01  0.51100000000E-03 0. -1.
         11    1    4    4    0    0  0.61148458299E-01 -0.75325479167E-01  0.60948482413E-01  0.11457766097E+00  0.51100000000E-03 0.  1.
</event>
<event>
 8    1  0.1083484E+005  0.1043930E+01  0.7957747E-01            NaN
         13   -1    0    0    0    0  0.00000000000E+00  0.00000000000E+00  0.74505805969E-08  0.10566000000E+00  0.10566000000E+00 0.  1.
     999900   -1    0    0    0    0 -0.00000000000E+00 -0.00000000000E+00 -0.74505805969E-08  0.93827000000E+00  0.93827000000E+00 0. -1.
     999902    2    1    2    0    0  0.22522198768E-01 -0.44148362262E-02  0.19692433058E-02  0.10208948500E+01  0.10206349380E+01 0.  0.
     999903    2    3    3    0    0  0.11159452903E+00 -0.65587103486E-01  0.28020130781E-01  0.13390298136E+00  0.19745217996E-01 0.  0.
         14    1    1    2    0    0 -0.22522198768E-01  0.44148362262E-02 -0.19692433058E-02  0.23035149998E-01  0.00000000000E+00 0. -1.
     999901    1    3    3    0    0 -0.89072330267E-01  0.61172267260E-01 -0.26050887475E-01  0.88699186864E+00  0.88000000000E+00 0. -1.
        -11    1    4    4    0    0  0.17795271751E-01 -0.10504503353E-01 -0.27596748194E-02  0.20854093447E-01  0.51100000000E-03 0. -1.
         11    1    4    4    0    0  0.93799257283E-01 -0.55082600133E-01  0.30779805600E-01  0.11304888791E+00  0.51100000000E-03 0.  1.
</event>
<event>
 8    1  0.1083484E+005  0.1043930E+01  0.7957747E-01            NaN
         13   -1    0    0    0    0  0.00000000000E+00  0.00000000000E+00  0.74505805969E-08  0.10566000000E+00  0.10566000000E+00 0. -1.
     999900   -1    0    0    0    0 -0.00000000000E+00 -0.00000000000E+00 -0.74505805969E-08  0.93827000000E+00  0.93827000000E+00 0. -1.
     999902    2    1    2    0    0  0.11707417637E-01 -0.12045230737E-02 -0.20377348058E-01  0.10203980894E+01  0.10201267127E+01 0.  0.
     999903    2    3    3    0    0  0.12989703369E+00  0.46474269390E-02 -0.90993371273E-02  0.13240584606E+00  0.23530240054E-01 0.  0.
         14    1    1    2    0    0 -0.11707417637E-01  0.12045230737E-02  0.20377348058E-01  0.23531910620E-01  0.00000000000E+00 0. -1.
     999901    1    3    3    0    0 -0.11818961605E+00 -0.58519500127E-02 -0.11278010931E-01  0.88799224332E+00  0.88000000000E+00 0. -1.
        -11    1    4    4    0    0  0.47619669550E-01 -0.59791109909E-02 -0.11703725838E-01  0.49402641790E-01  0.51100000000E-03 0.  1.
         11    1    4    4    0    0  0.82277364139E-01  0.10626537930E-01  0.26043887104E-02  0.83003204273E-01  0.51100000000E-03 0. -1.
</event>
<event>
 8    1  0.1599022E+005  0.1043930E+01  0.7957747E-01            NaN
         13   -1    0    0    0    0  0.00000000000E+00  0.00000000000E+00  0.74505805969E-08  0.10566000000E+00  0.10566000000E+00 0.  1.
     999900   -1    0    0    0    0 -0.00000000000E+00 -0.00000000000E+00 -0.74505805969E-08  0.93827000000E+00  0.93827000000E+00 0.  1.
     999902    2    1    2    0    0  0.18112689508E-01 -0.21120026406E-02 -0.12891928378E-01  0.10215976939E+01  0.10213535707E+01 0.  0.
     999903    2    3    3    0    0 -0.12341316704E+00  0.38028907251E-02  0.31759277391E-01  0.12915257843E+00  0.20651029964E-01 0.  0.
         14    1    1    2    0    0 -0.18112689508E-01  0.21120026406E-02  0.12891928378E-01  0.22332306054E-01  0.00000000000E+00 0.  1.
     999901    1    3    3    0    0  0.14152585654E+00 -0.59148933657E-02 -0.44651205769E-01  0.89244511552E+00  0.88000000000E+00 0.  1.
        -11    1    4    4    0    0 -0.67286620236E-01 -0.28337482074E-02  0.26552164015E-01  0.72393355541E-01  0.51100000000E-03 0. -1.
         11    1    4    4    0    0 -0.56126546800E-01  0.66366389325E-02  0.52071133758E-02  0.56759222887E-01  0.51100000000E-03 0.  1.
</event>
<event>
 8    1  0.1083484E+005  0.1043930E+01  0.7957747E-01            NaN
         13   -1    0    0    0    0  0.00000000000E+00  0.00000000000E+00  0.74505805969E-08  0.10566000000E+00  0.10566000000E+00 0.  1.
     999900   -1    0    0    0    0 -0.00000000000E+00 -0.00000000000E+00 -0.74505805969E-08  0.93827000000E+00  0.93827000000E+00 0.  1.
     999902    2    1    2    0    0 -0.23543324857E-02  0.17763009884E-01  0.16388749343E-01  0.10196471149E+01  0.10193579256E+01 0.  0.
     999903    2    3    3    0    0 -0.12858659860E+00  0.91882077828E-02  0.18901065542E-02  0.13047990745E+00  0.20062333938E-01 0.  0.
         14    1    1    2    0    0  0.23543324857E-02 -0.17763009884E-01 -0.16388749343E-01  0.24282885055E-01  0.00000000000E+00 0. -1.
     999901    1    3    3    0    0  0.12623226612E+00  0.85748021013E-02  0.14498642788E-01  0.88916720749E+00  0.88000000000E+00 0. -1.
        -11    1    4    4    0    0 -0.15946476101E-01  0.36079179450E-02 -0.60038944766E-02  0.17424552844E-01  0.51100000000E-03 0.  1.
         11    1    4    4    0    0 -0.11264012250E+00  0.55802898379E-02  0.78940010308E-02  0.11305535461E+00  0.51100000000E-03 0. -1.
</event>
<event>
 8    1  0.1083484E+005  0.1043930E+01  0.7957747E-01            NaN
         13   -1    0    0    0    0  0.00000000000E+00  0.00000000000E+00  0.74505805969E-08  0.10566000000E+00  0.10566000000E+00 0.  1.
     999900   -1    0    0    0    0 -0.00000000000E+00 -0.00000000000E+00 -0.74505805969E-08  0.93827000000E+00  0.93827000000E+00 0.  1.
     999902    2    1    2    0    0  0.22148690997E-01 -0.91056585008E-02  0.33416057940E-02  0.10197505902E+01  0.10194638897E+01 0.  0.
     999903    2    3    3    0    0 -0.10736314397E+00 -0.50102558052E-01  0.44982929873E-01  0.12835389901E+00  0.20350636441E-01 0.  0.
         14    1    1    2    0    0 -0.22148690997E-01  0.91056585008E-02 -0.33416057940E-02  0.24179409813E-01  0.00000000000E+00 0. -1.
     999901    1    3    3    0    0  0.12951183497E+00  0.40996899551E-01 -0.41641324079E-01  0.89139669118E+00  0.88000000000E+00 0.  1.
        -11    1    4    4    0    0 -0.23103674915E-01 -0.15414683032E-01  0.27299749442E-02  0.27912472691E-01  0.51100000000E-03 0.  1.
         11    1    4    4    0    0 -0.84259469060E-01 -0.34687875020E-01  0.42252954929E-01  0.10044142632E+00  0.51100000000E-03 0. -1.
</event>
<event>
 7    1  0.1190366E+005  0.1043930E+01  0.7957747E-01            NaN
         13   -1    0    0    0    0  0.00000000000E+00  0.00000000000E+00  0.74505805969E-08  0.10566000000E+00  0.10566000000E+00 0. -1.
     999900   -1    0    0    0    0 -0.00000000000E+00 -0.00000000000E+00 -0.74505805969E-08  0.93827000000E+00  0.93827000000E+00 0. -1.
     999903    2    1    2    0    0  0.10524362699E-01 -0.20635308232E-01  0.99677122864E-01  0.10425504624E+00  0.19925051784E-01 0.  0.
         14    1    1    2    0    0  0.29108313874E-01  0.33315438285E-01  0.23545471748E-01  0.50115881759E-01  0.00000000000E+00 0. -1.
     999901    1    1    2    0    0 -0.39632676572E-01 -0.12680130053E-01 -0.12322259461E+00  0.88955907200E+00  0.88000000000E+00 0. -1.
        -11    1    3    3    0    0 -0.40988489030E-02 -0.83799617460E-03  0.31277492162E-01  0.31560187529E-01  0.51100000000E-03 0.  1.
         11    1    3    3    0    0  0.14623211602E-01 -0.19797312057E-01  0.68399630703E-01  0.72694858714E-01  0.51100000000E-03 0. -1.
</event>
<event>
 8    1  0.1083484E+005  0.1043930E+01  0.7957747E-01            NaN
         13   -1    0    0    0    0  0.00000000000E+00  0.00000000000E+00  0.74505805969E-08  0.10566000000E+00  0.10566000000E+00 0.  1.
     999900   -1    0    0    0    0 -0.00000000000E+00 -0.00000000000E+00 -0.74505805969E-08  0.93827000000E+00  0.93827000000E+00 0.  1.
     999902    2    1    2    0    0  0.12582636592E-01  0.19801098606E-01  0.86048086100E-02  0.10189410228E+01  0.10186345562E+01 0.  0.
     999903    2    3    3    0    0  0.91963256768E-01  0.82343360047E-01  0.44290596670E-01  0.13243874262E+00  0.18457899477E-01 0.  0.
         14    1    1    2    0    0 -0.12582636592E-01 -0.19801098606E-01 -0.86048086100E-02  0.24988977187E-01  0.00000000000E+00 0.  1.
     999901    1    3    3    0    0 -0.79380620177E-01 -0.62542261440E-01 -0.35685788060E-01  0.88650228020E+00  0.88000000000E+00 0. -1.
        -11    1    4    4    0    0  0.29700726834E-01  0.37017226815E-01  0.21632172437E-01  0.52159565382E-01  0.51100000000E-03 0. -1.
         11    1    4    4    0    0  0.62262529935E-01  0.45326133232E-01  0.22658424233E-01  0.80279177234E-01  0.51100000000E-03 0.  1.
</event>
<event>
 8    1  0.1083484E+005  0.1043930E+01  0.7957747E-01            NaN
         13   -1    0    0    0    0  0.00000000000E+00  0.00000000000E+00  0.74505805969E-08  0.10566000000E+00  0.10566000000E+00 0. -1.
     999900   -1    0    0    0    0 -0.00000000000E+00 -0.00000000000E+00 -0.74505805969E-08  0.93827000000E+00  0.93827000000E+00 0. -1.
     999902    2    1    2    0    0 -0.11203588564E-01 -0.94635719430E-02 -0.17745962276E-01  0.10209082979E+01  0.10206486927E+01 0.  0.
     999903    2    3    3    0    0  0.42299190886E-01 -0.84148561289E-01  0.87359669686E-01  0.12990460042E+00  0.19320750680E-01 0.  0.
         14    1    1    2    0    0  0.11203588564E-01  0.94635719430E-02  0.17745962276E-01  0.23021702103E-01  0.00000000000E+00 0. -1.
     999901    1    3    3    0    0 -0.53502779450E-01  0.74684989346E-01 -0.10510563196E+00  0.89100369747E+00  0.88000000000E+00 0. -1.
        -11    1    4    4    0    0  0.20511189318E-01 -0.21592062028E-01  0.30051140777E-01  0.42311443048E-01  0.51100000000E-03 0. -1.
         11    1    4    4    0    0  0.21788001568E-01 -0.62556499261E-01  0.57308528909E-01  0.87593157375E-01  0.51100000000E-03 0.  1.
</event>
<event>
 8    1  0.1083484E+005  0.1043930E+01  0.7957747E-01            NaN
         13   -1    0    0    0    0  0.00000000000E+00  0.00000000000E+00  0.74505805969E-08  0.10566000000E+00  0.10566000000E+00 0. -1.
     999900   -1    0    0    0    0 -0.00000000000E+00 -0.00000000000E+00 -0.74505805969E-08  0.93827000000E+00  0.93827000000E+00 0.  1.
     999902    2    1    2    0    0 -0.48652402032E-02  0.11445356484E-01  0.20391875335E-01  0.10200449560E+01  0.10197652754E+01 0.  0.
     999903    2    3    3    0    0 -0.39775180549E-01  0.49229532192E-01 -0.11042004276E+00  0.12888946688E+00  0.20354287068E-01 0.  0.
         14    1    1    2    0    0  0.48652402032E-02 -0.11445356484E-01 -0.20391875335E-01  0.23885044002E-01  0.00000000000E+00 0. -1.
     999901    1    3    3    0    0  0.34909940346E-01 -0.37784175707E-01  0.13081191810E+00  0.89115548912E+00  0.88000000000E+00 0. -1.
        -11    1    4    4    0    0 -0.28665935038E-01  0.27618580005E-01 -0.51048796931E-01  0.64736099528E-01  0.51100000000E-03 0.  1.
         11    1    4    4    0    0 -0.11109245511E-01  0.21610952187E-01 -0.59371245830E-01  0.64153367352E-01  0.51100000000E-03 0. -1.
</event>
<event>
 8    1  0.1083484E+005  0.1043930E+01  0.7957747E-01            NaN
         13   -1    0    0    0    0  0.00000000000E+00  0.00000000000E+00  0.74505805969E-08  0.10566000000E+00  0.10566000000E+00 0. -1.
     999900   -1    0    0    0    0 -0.00000000000E+00 -0.00000000000E+00 -0.74505805969E-08  0.93827000000E+00  0.93827000000E+00 0.  1.
     999902    2    1    2    0    0  0.55966051502E-02 -0.25053052582E-01  0.90491165851E-02  0.10167111840E+01  0.10163467753E+01 0.  0.
     999903    2    3    3    0    0 -0.10139545334E+00 -0.76770321478E-01  0.70846244975E-02  0.12872141171E+00  0.18555045430E-01 0.  0.
         14    1    1    2    0    0 -0.55966051502E-02  0.25053052582E-01 -0.90491165851E-02  0.27218815989E-01  0.00000000000E+00 0.  1.
     999901    1    3    3    0    0  0.10699205849E+00  0.51717268896E-01  0.19644920876E-02  0.88798977230E+00  0.88000000000E+00 0.  1.
        -11    1    4    4    0    0 -0.36708768196E-01 -0.26836682741E-01  0.11420618818E-01  0.46887448835E-01  0.51100000000E-03 0.  1.
         11    1    4    4    0    0 -0.64686685142E-01 -0.49933638736E-01 -0.43359943208E-02  0.81833962875E-01  0.51100000000E-03 0. -1.
</event>
<event>
 8    1  0.1083484E+005  0.1043930E+01  0.7957747E-01            NaN
         13   -1    0    0    0    0  0.00000000000E+00  0.00000000000E+00  0.74505805969E-08  0.10566000000E+00  0.10566000000E+00 0. -1.
     999900   -1    0    0    0    0 -0.00000000000E+00 -0.00000000000E+00 -0.74505805969E-08  0.93827000000E+00  0.93827000000E+00 0. -1.
     999902    2    1    2    0    0  0.18405999393E-02 -0.18494776724E-01 -0.13852934767E-01  0.10207492240E+01  0.10204859773E+01 0.  0.
     999903    2    3    3    0    0 -0.36633643263E-01 -0.11498533760E+00  0.50389331889E-01  0.13231365259E+00  0.20103885462E-01 0.  0.
         14    1    1    2    0    0 -0.18405999393E-02  0.18494776724E-01  0.13852934767E-01  0.23180775998E-01  0.00000000000E+00 0. -1.
     999901    1    3    3    0    0  0.38474243203E-01  0.96490560878E-01 -0.64242266656E-01  0.88843557141E+00  0.88000000000E+00 0. -1.
        -11    1    4    4    0    0 -0.32707745804E-01 -0.10392682259E+00  0.51506964479E-01  0.12051476922E+00  0.51100000000E-03 0.  1.
         11    1    4    4    0    0 -0.39258974589E-02 -0.11058515012E-01 -0.11176325894E-02  0.11798883368E-01  0.51100000000E-03 0. -1.
</event>
<event>
 8    1  0.1083484E+005  0.1043930E+01  0.7957747E-01            NaN
         13   -1    0    0    0    0  0.00000000000E+00  0.00000000000E+00  0.74505805969E-08  0.10566000000E+00  0.10566000000E+00 0. -1.
     999900   -1    0    0    0    0 -0.00000000000E+00 -0.00000000000E+00 -0.74505805969E-08  0.93827000000E+00  0.93827000000E+00 0.  1.
     999902    2    1    2    0    0 -0.13517038176E-01 -0.18109899432E-01  0.19469377031E-02  0.10212480833E+01  0.10209961696E+01 0.  0.
     999903    2    3    3    0    0 -0.78487466077E-01 -0.75411374061E-01  0.75328499860E-01  0.13395474446E+00  0.20550742153E-01 0.  0.
         14    1    1    2    0    0  0.13517038176E-01  0.18109899432E-01 -0.19469377031E-02  0.22681916694E-01  0.00000000000E+00 0. -1.
     999901    1    3    3    0    0  0.64970427901E-01  0.57301474628E-01 -0.73381562157E-01  0.88729333885E+00  0.88000000000E+00 0.  1.
        -11    1    4    4    0    0 -0.71875419896E-01 -0.59788155586E-01  0.67186894101E-01  0.11513053198E+00  0.51100000000E-03 0. -1.
         11    1    4    4    0    0 -0.66120461817E-02 -0.15623218475E-01  0.81416057591E-02  0.18824212482E-01  0.51100000000E-03 0.  1.
</event>
<event>
 8    1  0.1083484E+005  0.1043930E+01  0.7957747E-01            NaN
         13   -1    0    0    0    0  0.00000000000E+00  0.00000000000E+00  0.74505805969E-08  0.10566000000E+00  0.10566000000E+00 0. -1.
     999900   -1    0    0    0    0 -0.00000000000E+00 -0.00000000000E+00 -0.74505805969E-08  0.93827000000E+00  0.93827000000E+00 0.  1.
     999902    2    1    2    0    0  0.13440899630E-01 -0.12971144971E-01 -0.13904355075E-01  0.10206439640E+01  0.10203782934E+01 0.  0.
     999903    2    3    3    0    0  0.49932209948E-01  0.50263874165E-01  0.10662679678E+00  0.12943240549E+00  0.19073310201E-01 0.  0.
         14    1    1    2    0    0 -0.13440899630E-01  0.12971144971E-01  0.13904355075E-01  0.23286036047E-01  0.00000000000E+00 0. -1.
     999901    1    3    3    0    0 -0.36491310318E-01 -0.63235019135E-01 -0.12053115186E+00  0.89121155847E+00  0.88000000000E+00 0.  1.
        -11    1    4    4    0    0  0.43081037399E-01  0.49891840256E-01  0.10066666362E+00  0.12032958819E+00  0.51100000000E-03 0. -1.
         11    1    4    4    0    0  0.68511725493E-02  0.37203390898E-03  0.59601331606E-02  0.91028173014E-02  0.51100000000E-03 0.  1.
</event>
<event>
 8    1  0.1083484E+005  0.1043930E+01  0.7957747E-01            NaN
         13   -1    0    0    0    0  0.00000000000E+00  0.00000000000E+00  0.74505805969E-08  0.10566000000E+00  0.10566000000E+00 0.  1.
     999900   -1    0    0    0    0 -0.00000000000E+00 -0.00000000000E+00 -0.74505805969E-08  0.93827000000E+00  0.93827000000E+00 0. -1.
     999902    2    1    2    0    0 -0.21131581475E-01  0.11495519986E-01  0.58779719642E-02  0.10191662913E+01  0.10188653925E+01 0.  0.
     999903    2    3    3    0    0  0.81071279100E-01 -0.16200720063E-01 -0.94517789004E-01  0.12715069991E+00  0.19966782994E-01 0.  0.
         14    1    1    2    0    0  0.21131581475E-01 -0.11495519986E-01 -0.58779719642E-02  0.24763708725E-01  0.00000000000E+00 0. -1.
     999901    1    3    3    0    0 -0.10220286058E+00  0.27696240050E-01  0.10039576097E+00  0.89201559137E+00  0.88000000000E+00 0.  1.
        -11    1    4    4    0    0  0.85465213624E-02 -0.15076378512E-02 -0.21500270238E-01  0.23191350556E-01  0.51100000000E-03 0. -1.
         11    1    4    4    0    0  0.72524757738E-01 -0.14693082212E-01 -0.73017518766E-01  0.10395934935E+00  0.51100000000E-03 0.  1.
</event>
<event>
 8    1  0.1083484E+005  0.1043930E+01  0.7957747E-01            NaN
         13   -1    0    0    0    0  0.00000000000E+00  0.00000000000E+00  0.74505805969E-08  0.10566000000E+00  0.10566000000E+00 0. -1.
     999900   -1    0    0    0    0 -0.00000000000E+00 -0.00000000000E+00 -0.74505805969E-08  0.93827000000E+00  0.93827000000E+00 0. -1.
     999902    2    1    2    0    0 -0.13992540405E-01 -0.17908558288E-01 -0.20318245439E-02  0.10211125515E+01  0.10208575840E+01 0.  0.
     999903    2    3    3    0    0 -0.68429839707E-01  0.96207523078E-01  0.51197452124E-01  0.13048397822E+00  0.21595346908E-01 0.  0.
         14    1    1    2    0    0  0.13992540405E-01  0.17908558288E-01  0.20318245439E-02  0.22817448541E-01  0.00000000000E+00 0.  1.
     999901    1    3    3    0    0  0.54437299302E-01 -0.11411608137E+00 -0.53229276668E-01  0.89062857324E+00  0.88000000000E+00 0. -1.
        -11    1    4    4    0    0 -0.47420010407E-01  0.75118208875E-01  0.29360303653E-01  0.93561163114E-01  0.51100000000E-03 0.  1.
         11    1    4    4    0    0 -0.21009829300E-01  0.21089314203E-01  0.21837148471E-01  0.36922815103E-01  0.51100000000E-03 0. -1.
</event>
<event>
 8    1  0.1083484E+005  0.1043930E+01  0.7957747E-01            NaN
         13   -1    0    0    0    0  0.00000000000E+00  0.00000000000E+00  0.74505805969E-08  0.10566000000E+00  0.10566000000E+00 0.  1.
     999900   -1    0    0    0    0 -0.00000000000E+00 -0.00000000000E+00 -0.74505805969E-08  0.93827000000E+00  0.93827000000E+00 0. -1.
     999902    2    1    2    0    0 -0.14753565169E-01  0.11507805414E-01 -0.13773663152E-01  0.10206961655E+01  0.10204316984E+01 0.  0.
     999903    2    3    3    0    0 -0.22976456120E-01  0.10872480083E+00  0.69050197638E-01  0.13143886184E+00  0.12619221740E-01 0.  0.
         14    1    1    2    0    0  0.14753565169E-01 -0.11507805414E-01  0.13773663152E-01  0.23233834537E-01  0.00000000000E+00 0.  1.
     999901    1    3    3    0    0  0.82228909502E-02 -0.97216995412E-01 -0.82823860790E-01  0.88925730362E+00  0.88000000000E+00 0. -1.
        -11    1    4    4    0    0 -0.16010377454E-02  0.35940321943E-01  0.22415391795E-01  0.42390812372E-01  0.51100000000E-03 0. -1.
         11    1    4    4    0    0 -0.21375418374E-01  0.72784478883E-01  0.46634805843E-01  0.89048049467E-01  0.51100000000E-03 0.  1.
</event>
<event>
 8    1  0.1083484E+005  0.1043930E+01  0.7957747E-01            NaN
         13   -1    0    0    0    0  0.00000000000E+00  0.00000000000E+00  0.74505805969E-08  0.10566000000E+00  0.10566000000E+00 0.  1.
     999900   -1    0    0    0    0 -0.00000000000E+00 -0.00000000000E+00 -0.74505805969E-08  0.93827000000E+00  0.93827000000E+00 0. -1.
     999902    2    1    2    0    0  0.20218781644E-01 -0.16539138728E-02 -0.12615767725E-01  0.10200408360E+01  0.10197610578E+01 0.  0.
     999903    2    3    3    0    0  0.58786706978E-01 -0.41753168204E-01 -0.10992438288E+00  0.13293069533E+00  0.19697609913E-01 0.  0.
         14    1    1    2    0    0 -0.20218781644E-01  0.16539138728E-02  0.12615767725E-01  0.23889164020E-01  0.00000000000E+00 0.  1.
     999901    1    3    3    0    0 -0.38567925334E-01  0.40099254331E-01  0.97308615157E-01  0.88711014065E+00  0.88000000000E+00 0.  1.
        -11    1    4    4    0    0  0.39190234582E-01 -0.16799584405E-01 -0.69501398537E-01  0.81540211199E-01  0.51100000000E-03 0.  1.
         11    1    4    4    0    0  0.19596472395E-01 -0.24953583799E-01 -0.40422984345E-01  0.51390484130E-01  0.51100000000E-03 0. -1.
</event>
<event>
 8    1  0.1083484E+005  0.1043930E+01  0.7957747E-01            NaN
         13   -1    0    0    0    0  0.00000000000E+00  0.00000000000E+00  0.74505805969E-08  0.10566000000E+00  0.10566000000E+00 0. -1.
     999900   -1    0    0    0    0 -0.00000000000E+00 -0.00000000000E+00 -0.74505805969E-08  0.93827000000E+00  0.93827000000E+00 0. -1.
     999902    2    1    2    0    0 -0.25677039487E-01 -0.56108905388E-02 -0.38051151137E-02  0.10173730546E+01  0.10170263816E+01 0.  0.
     999903    2    3    3    0    0 -0.69115551446E-01 -0.10795493371E+00  0.10823221307E-01  0.13025683010E+00  0.20456600517E-01 0.  0.
         14    1    1    2    0    0  0.25677039487E-01  0.56108905388E-02  0.38051151137E-02  0.26556945429E-01  0.00000000000E+00 0.  1.
     999901    1    3    3    0    0  0.43438511959E-01  0.10234404317E+00 -0.14628336420E-01  0.88711622447E+00  0.88000000000E+00 0.  1.
        -11    1    4    4    0    0 -0.37707935735E-01 -0.65777339718E-01  0.15742090060E-01  0.77437854815E-01  0.51100000000E-03 0.  1.
         11    1    4    4    0    0 -0.31407615712E-01 -0.42177593989E-01 -0.49188687534E-02  0.52818975286E-01  0.51100000000E-03 0. -1.
</event>
<event>
 8    1  0.1083484E+005  0.1043930E+01  0.7957747E-01            NaN
         13   -1    0    0    0    0  0.00000000000E+00  0.00000000000E+00  0.74505805969E-08  0.10566000000E+00  0.10566000000E+00 0. -1.
     999900   -1    0    0    0    0 -0.00000000000E+00 -0.00000000000E+00 -0.74505805969E-08  0.93827000000E+00  0.93827000000E+00 0.  1.
     999902    2    1    2    0    0  0.15004253879E-01 -0.12895478417E-01  0.12470263604E-01  0.10205434981E+01  0.10202755035E+01 0.  0.
     999903    2    3    3    0    0  0.58227337033E-01 -0.33823600151E-03 -0.11462833006E+00  0.13027389185E+00  0.21002277558E-01 0.  0.
         14    1    1    2    0    0 -0.15004253879E-01  0.12895478417E-01 -0.12470263604E-01  0.23386501928E-01  0.00000000000E+00 0.  1.
     999901    1    3    3    0    0 -0.43223083155E-01 -0.12557242416E-01  0.12709859367E+00  0.89026960622E+00  0.88000000000E+00 0. -1.
        -11    1    4    4    0    0  0.44680290104E-01 -0.70232226621E-02 -0.97167388099E-01  0.10717936560E+00  0.51100000000E-03 0.  1.
         11    1    4    4    0    0  0.13547046929E-01  0.66849866606E-02 -0.17460941964E-01  0.23094526244E-01  0.51100000000E-03 0. -1.
</event>
<event>
 8    1  0.1083484E+005  0.1043930E+01  0.7957747E-01            NaN
         13   -1    0    0    0    0  0.00000000000E+00  0.00000000000E+00  0.74505805969E-08  0.10566000000E+00  0.10566000000E+00 0. -1.
     999900   -1    0    0    0    0 -0.00000000000E+00 -0.00000000000E+00 -0.74505805969E-08  0.93827000000E+00  0.93827000000E+00 0.  1.
     999902    2    1    2    0    0 -0.23293284578E-01  0.25630714159E-02 -0.48564727389E-02  0.10199981850E+01  0.10197173950E+01 0.  0.
     999903    2    3    3    0    0 -0.11604315357E+00 -0.42335938783E-01 -0.45432320068E-01  0.13305689117E+00  0.19537025873E-01 0.  0.
         14    1    1    2    0    0  0.23293284578E-01 -0.25630714159E-02  0.48564727389E-02  0.23931814995E-01  0.00000000000E+00 0. -1.
     999901    1    3    3    0    0  0.92749868989E-01  0.44899010199E-01  0.40575847329E-01  0.88694129383E+00  0.88000000000E+00 0. -1.
        -11    1    4    4    0    0 -0.48196939653E-01 -0.76092056156E-02 -0.16001576976E-01  0.51353252951E-01  0.51100000000E-03 0.  1.
         11    1    4    4    0    0 -0.67846213914E-01 -0.34726733167E-01 -0.29430743092E-01  0.81703638223E-01  0.51100000000E-03 0. -1.
</event>
<event>
 8    1  0.1083484E+005  0.1043930E+01  0.7957747E-01            NaN
         13   -1    0    0    0    0  0.00000000000E+00  0.00000000000E+00  0.74505805969E-08  0.10566000000E+00  0.10566000000E+00 0. -1.
     999900   -1    0    0    0    0 -0.00000000000E+00 -0.00000000000E+00 -0.74505805969E-08  0.93827000000E+00  0.93827000000E+00 0. -1.
     999902    2    1    2    0    0  0.95890192347E-02  0.17835066295E-01 -0.13273355004E-01  0.10197180023E+01  0.10194305192E+01 0.  0.
     999903    2    3    3    0    0  0.66926182980E-01 -0.59142382716E-01  0.90111798065E-01  0.12848202464E+00  0.20262258092E-01 0.  0.
         14    1    1    2    0    0 -0.95890192347E-02 -0.17835066295E-01  0.13273355004E-01  0.24211997701E-01  0.00000000000E+00 0.  1.
     999901    1    3    3    0    0 -0.57337163745E-01  0.76977449011E-01 -0.10338515307E+00  0.89123597766E+00  0.88000000000E+00 0. -1.
        -11    1    4    4    0    0  0.36176304705E-01 -0.22690442445E-01  0.32351627167E-01  0.53576768303E-01  0.51100000000E-03 0. -1.
         11    1    4    4    0    0  0.30749878275E-01 -0.36451940271E-01  0.57760170897E-01  0.74905256334E-01  0.51100000000E-03 0.  1.
</event>
<event>
 8    1  0.1083484E+005  0.1043930E+01  0.7957747E-01            NaN
         13   -1    0    0    0    0  0.00000000000E+00  0.00000000000E+00  0.74505805969E-08  0.10566000000E+00  0.10566000000E+00 0.  1.
     999900   -1    0    0    0    0 -0.00000000000E+00 -0.00000000000E+00 -0.74505805969E-08  0.93827000000E+00  0.93827000000E+00 0.  1.
     999902    2    1    2    0    0  0.21049688672E-01  0.98250062054E-02  0.44855378500E-02  0.10202711710E+01  0.10199968246E+01 0.  0.
     999903    2    3    3    0    0 -0.21931807252E-01  0.86202534389E-01 -0.93538166707E-01  0.13050177252E+00  0.19220897370E-01 0.  0.
         14    1    1    2    0    0 -0.21049688672E-01 -0.98250062054E-02 -0.44855378500E-02  0.23658829006E-01  0.00000000000E+00 0.  1.
     999901    1    3    3    0    0  0.42981495924E-01 -0.76377528184E-01  0.98023704557E-01  0.88976939847E+00  0.88000000000E+00 0. -1.
        -11    1    4    4    0    0 -0.28497429021E-03  0.38492783928E-01 -0.42822503263E-01  0.57583014263E-01  0.51100000000E-03 0.  1.
         11    1    4    4    0    0 -0.21646832962E-01  0.47709750461E-01 -0.50715663444E-01  0.72918758258E-01  0.51100000000E-03 0. -1.
</event>
<event>
 8    1  0.1083484E+005  0.1043930E+01  0.7957747E-01            NaN
         13   -1    0    0    0    0  0.00000000000E+00  0.00000000000E+00  0.74505805969E-08  0.10566000000E+00  0.10566000000E+00 0.  1.
     999900   -1    0    0    0    0 -0.00000000000E+00 -0.00000000000E+00 -0.74505805969E-08  0.93827000000E+00  0.93827000000E+00 0. -1.
     999902    2    1    2    0    0 -0.54911320177E-02 -0.14711175854E-01  0.18522037518E-01  0.10196475557E+01  0.10193583770E+01 0.  0.
     999903    2    3    3    0    0  0.82025424900E-01  0.77988595909E-01  0.59568529300E-01  0.12951430171E+00  0.20375309653E-01 0.  0.
         14    1    1    2    0    0  0.54911320177E-02  0.14711175854E-01 -0.18522037518E-01  0.24282444269E-01  0.00000000000E+00 0. -1.
     999901    1    3    3    0    0 -0.87516556918E-01 -0.92699771764E-01 -0.41046491782E-01  0.89013325402E+00  0.88000000000E+00 0.  1.
        -11    1    4    4    0    0  0.62186433539E-01  0.62447588697E-01  0.55034089426E-01  0.10390315669E+00  0.51100000000E-03 0. -1.
         11    1    4    4    0    0  0.19838991361E-01  0.15541007213E-01  0.45344398738E-02  0.25611145023E-01  0.51100000000E-03 0.  1.
</event>
<event>
 8    1  0.1083484E+005  0.1043930E+01  0.7957747E-01            NaN
         13   -1    0    0    0    0  0.00000000000E+00  0.00000000000E+00  0.74505805969E-08  0.10566000000E+00  0.10566000000E+00 0. -1.
     999900   -1    0    0    0    0 -0.00000000000E+00 -0.00000000000E+00 -0.74505805969E-08  0.93827000000E+00  0.93827000000E+00 0.  1.
     999902    2    1    2    0    0  0.14823836254E-01 -0.10383491463E-01 -0.15659611254E-01  0.10199970428E+01  0.10197162257E+01 0.  0.
     999903    2    3    3    0    0  0.31098134514E-01  0.11801095263E+00  0.35430462840E-01  0.12906484462E+00  0.22555210267E-01 0.  0.
         14    1    1    2    0    0 -0.14823836254E-01  0.10383491463E-01  0.15659611254E-01  0.23932957211E-01  0.00000000000E+00 0.  1.
     999901    1    3    3    0    0 -0.16274298260E-01 -0.12839444409E+00 -0.51090074094E-01  0.89093219817E+00  0.88000000000E+00 0. -1.
        -11    1    4    4    0    0  0.25524340207E-01  0.90322575531E-01  0.36716815513E-01  0.10078712842E+00  0.51100000000E-03 0.  1.
         11    1    4    4    0    0  0.55737943076E-02  0.27688377097E-01 -0.12863526734E-02  0.28277716199E-01  0.51100000000E-03 0. -1.
</event>
<event>
 8    1  0.1083484E+005  0.1043930E+01  0.7957747E-01            NaN
         13   -1    0    0    0    0  0.00000000000E+00  0.00000000000E+00  0.74505805969E-08  0.10566000000E+00  0.10566000000E+00 0. -1.
     999900   -1    0    0    0    0 -0.00000000000E+00 -0.00000000000E+00 -0.74505805969E-08  0.93827000000E+00  0.93827000000E+00 0.  1.
     999902    2    1    2    0    0 -0.21749518253E-01  0.16148744195E-01  0.57317123935E-02  0.10162410851E+01  0.10158638034E+01 0.  0.
     999903    2    3    3    0    0 -0.60809509930E-02  0.11466977783E+00 -0.53018578003E-01  0.12865813419E+00  0.23575622299E-01 0.  0.
         14    1    1    2    0    0  0.21749518253E-01 -0.16148744195E-01 -0.57317123935E-02  0.27688914935E-01  0.00000000000E+00 0. -1.
     999901    1    3    3    0    0 -0.15668567260E-01 -0.98521033633E-01  0.58750290396E-01  0.88758295088E+00  0.88000000000E+00 0. -1.
        -11    1    4    4    0    0 -0.15104791417E-01  0.67150363141E-01 -0.29837678612E-01  0.75019158751E-01  0.51100000000E-03 0. -1.
         11    1    4    4    0    0  0.90238404245E-02  0.47519414687E-01 -0.23180899391E-01  0.53638975435E-01  0.51100000000E-03 0.  1.
</event>
<event>
 8    1  0.1083484E+005  0.1043930E+01  0.7957747E-01            NaN
         13   -1    0    0    0    0  0.00000000000E+00  0.00000000000E+00  0.74505805969E-08  0.10566000000E+00  0.10566000000E+00 0.  1.
     999900   -1    0    0    0    0 -0.00000000000E+00 -0.00000000000E+00 -0.74505805969E-08  0.93827000000E+00  0.93827000000E+00 0. -1.
     999902    2    1    2    0    0 -0.22865951394E-01  0.31652660955E-02  0.52815747080E-02  0.10202495086E+01  0.10199746536E+01 0.  0.
     999903    2    3    3    0    0 -0.74240894466E-01 -0.13714266739E-01 -0.10590864878E+00  0.13160584028E+00  0.20091385853E-01 0.  0.
         14    1    1    2    0    0  0.22865951394E-01 -0.31652660955E-02 -0.52815747080E-02  0.23680491422E-01  0.00000000000E+00 0. -1.
     999901    1    3    3    0    0  0.51374943073E-01  0.16879532834E-01  0.11119022349E+00  0.88864366830E+00  0.88000000000E+00 0.  1.
        -11    1    4    4    0    0 -0.42763586689E-01 -0.66148429729E-02 -0.76762084362E-01  0.88120140777E-01  0.51100000000E-03 0. -1.
         11    1    4    4    0    0 -0.31477307777E-01 -0.70994237656E-02 -0.29146564422E-01  0.43485699504E-01  0.51100000000E-03 0.  1.
</event>
<event>
 8    1  0.1083484E+005  0.1043930E+01  0.7957747E-01            NaN
         13   -1    0    0    0    0  0.00000000000E+00  0.00000000000E+00  0.74505805969E-08  0.10566000000E+00  0.10566000000E+00 0. -1.
     999900   -1    0    0    0    0 -0.00000000000E+00 -0.00000000000E+00 -0.74505805969E-08  0.93827000000E+00  0.93827000000E+00 0.  1.
     999902    2    1    2    0    0 -0.88034041179E-02 -0.21154907908E-01  0.68539253024E-02  0.10200133459E+01  0.10197329157E+01 0.  0.
     999903    2    3    3    0    0  0.90723922018E-01  0.71230699297E-01 -0.51307838211E-01  0.12769973519E+00  0.19237607900E-01 0.  0.
         14    1    1    2    0    0  0.88034041179E-02  0.21154907908E-01 -0.68539253024E-02  0.23916654129E-01  0.00000000000E+00 0. -1.
     999901    1    3    3    0    0 -0.99527326136E-01 -0.92385607205E-01  0.58161763514E-01  0.89231361068E+00  0.88000000000E+00 0. -1.
        -11    1    4    4    0    0  0.40864449511E-01  0.41878554817E-01 -0.19532152973E-01  0.61688594636E-01  0.51100000000E-03 0.  1.
         11    1    4    4    0    0  0.49859472507E-01  0.29352144480E-01 -0.31775685238E-01  0.66011140557E-01  0.51100000000E-03 0. -1.
</event>
<event>
 8    1  0.1083484E+005  0.1043930E+01  0.7957747E-01            NaN
         13   -1    0    0    0    0  0.00000000000E+00  0.00000000000E+00  0.74505805969E-08  0.10566000000E+00  0.10566000000E+00 0. -1.
     999900   -1    0    0    0    0 -0.00000000000E+00 -0.00000000000E+00 -0.74505805969E-08  0.93827000000E+00  0.93827000000E+00 0. -1.
     999902    2    1    2    0    0  0.59741395297E-02 -0.20562860412E-01  0.20607268735E-02  0.10224179530E+01  0.10221916173E+01 0.  0.
     999903    2    3    3    0    0  0.46116853197E-01  0.34426042426E-01 -0.11684412706E+00  0.13181502172E+00  0.20266558094E-01 0.  0.
         14    1    1    2    0    0 -0.59741395297E-02  0.20562860412E-01 -0.20607268735E-02  0.21512047013E-01  0.00000000000E+00 0. -1.
     999901    1    3    3    0    0 -0.40142713667E-01 -0.54988902838E-01  0.11890485393E+00  0.89060293127E+00  0.88000000000E+00 0.  1.
        -11    1    4    4    0    0  0.17832372836E-01  0.19592860407E-01 -0.72293403244E-01  0.76996564686E-01  0.51100000000E-03 0. -1.
         11    1    4    4    0    0  0.28284480361E-01  0.14833182019E-01 -0.44550723813E-01  0.54818457032E-01  0.51100000000E-03 0.  1.
</event>
<event>
 8    1  0.1083484E+005  0.1043930E+01  0.7957747E-01            NaN
         13   -1    0    0    0    0  0.00000000000E+00  0.00000000000E+00  0.74505805969E-08  0.10566000000E+00  0.10566000000E+00 0. -1.
     999900   -1    0    0    0    0 -0.00000000000E+00 -0.00000000000E+00 -0.74505805969E-08  0.93827000000E+00  0.93827000000E+00 0. -1.
     999902    2    1    2    0    0  0.50333407536E-02  0.21076848283E-01 -0.43982518848E-02  0.10218186302E+01  0.10215793657E+01 0.  0.
     999903    2    3    3    0    0  0.71309004123E-01  0.10585880250E+00  0.36757797210E-01  0.13430848175E+00  0.19914127572E-01 0.  0.
         14    1    1    2    0    0 -0.50333407536E-02 -0.21076848283E-01  0.43982518848E-02  0.22111369752E-01  0.00000000000E+00 0. -1.
     999901    1    3    3    0    0 -0.66275663369E-01 -0.84781954220E-01 -0.41156049095E-01  0.88751014850E+00  0.88000000000E+00 0. -1.
        -11    1    4    4    0    0  0.46762258421E-01  0.59714395185E-01  0.13249063289E-01  0.76995562236E-01  0.51100000000E-03 0.  1.
         11    1    4    4    0    0  0.24546745701E-01  0.46144407318E-01  0.23508733921E-01  0.57312919510E-01  0.51100000000E-03 0. -1.
</event>
<event>
 8    1  0.1083484E+005  0.1043930E+01  0.7957747E-01            NaN
         13   -1    0    0    0    0  0.00000000000E+00  0.00000000000E+00  0.74505805969E-08  0.10566000000E+00  0.10566000000E+00 0.  1.
     999900   -1    0    0    0    0 -0.00000000000E+00 -0.00000000000E+00 -0.74505805969E-08  0.93827000000E+00  0.93827000000E+00 0. -1.
     999902    2    1    2    0    0  0.78426090905E-02  0.10142947853E-01  0.19079259272E-01  0.10209429592E+01  0.10206841441E+01 0.  0.
     999903    2    3    3    0    0 -0.68509886021E-01  0.21388245000E-01  0.10997094036E+00  0.13290159877E+00  0.20449100836E-01 0.  0.
         14    1    1    2    0    0 -0.78426090905E-02 -0.10142947853E-01 -0.19079259272E-01  0.22987040759E-01  0.00000000000E+00 0. -1.
     999901    1    3    3    0    0  0.76352495112E-01 -0.11245297147E-01 -0.90891681087E-01  0.88804136047E+00  0.88000000000E+00 0. -1.
        -11    1    4    4    0    0 -0.26765199065E-01  0.18448551957E-01  0.42579854553E-01  0.53572661732E-01  0.51100000000E-03 0. -1.
         11    1    4    4    0    0 -0.41744686956E-01  0.29396930433E-02  0.67391085806E-01  0.79328937037E-01  0.51100000000E-03 0.  1.
</event>
<event>
 8    1  0.1083484E+005  0.1043930E+01  0.7957747E-01            NaN
         13   -1    0    0    0    0  0.00000000000E+00  0.00000000000E+00  0.74505805969E-08  0.10566000000E+00  0.10566000000E+00 0. -1.
     999900   -1    0    0    0    0 -0.00000000000E+00 -0.00000000000E+00 -0.74505805969E-08  0.93827000000E+00  0.93827000000E+00 0.  1.
     999902    2    1    2    0    0 -0.15612647374E-01 -0.17895993754E-01  0.73581149294E-02  0.10190671119E+01  0.10187637682E+01 0.  0.
     999903    2    3    3    0    0  0.11309157324E+00  0.33016014041E-01  0.44313286343E-01  0.12748285134E+00  0.20210119203E-01 0.  0.
         14    1    1    2    0    0  0.15612647374E-01  0.17895993754E-01 -0.73581149294E-02  0.24862888122E-01  0.00000000000E+00 0.  1.
     999901    1    3    3    0    0 -0.12870422062E+00 -0.50912007795E-01 -0.36955171414E-01  0.89158426054E+00  0.88000000000E+00 0.  1.
        -11    1    4    4    0    0  0.44804787369E-01  0.13883643520E-01  0.72586597839E-02  0.47467607812E-01  0.51100000000E-03 0. -1.
         11    1    4    4    0    0  0.68286785873E-01  0.19132370521E-01  0.37054626559E-01  0.80015243529E-01  0.51100000000E-03 0.  1.
</event>
<event>
 7    1  0.1083484E+005  0.1043930E+01  0.7957747E-01            NaN
         13   -1    0    0    0    0  0.00000000000E+00  0.00000000000E+00  0.74505805969E-08  0.10566000000E+00  0.10566000000E+00 0. -1.
     999900   -1    0    0    0    0 -0.00000000000E+00 -0.00000000000E+00 -0.74505805969E-08  0.93827000000E+00  0.93827000000E+00 0.  1.
     999903    2    1    2    0    0  0.27447888655E-01 -0.97358491950E-01  0.35478718509E-01  0.10932331499E+00  0.21465907533E-01 0.  0.
         14    1    1    2    0    0 -0.17117485637E-01 -0.10418852244E-01  0.40025903461E-01  0.44761967612E-01  0.00000000000E+00 0. -1.
     999901    1    1    2    0    0 -0.10330403019E-01  0.10777734419E+00 -0.75504621970E-01  0.88984471740E+00  0.88000000000E+00 0.  1.
        -11    1    3    3    0    0  0.17532652040E-01 -0.53650192085E-01  0.86995318156E-02  0.57111119523E-01  0.51100000000E-03 0.  1.
         11    1    3    3    0    0  0.99152366159E-02 -0.43708299865E-01  0.26779186693E-01  0.52212195464E-01  0.51100000000E-03 0. -1.
</event>
<event>
 7    1  0.1083484E+005  0.1043930E+01  0.7957747E-01            NaN
         13   -1    0    0    0    0  0.00000000000E+00  0.00000000000E+00  0.74505805969E-08  0.10566000000E+00  0.10566000000E+00 0. -1.
     999900   -1    0    0    0    0 -0.00000000000E+00 -0.00000000000E+00 -0.74505805969E-08  0.93827000000E+00  0.93827000000E+00 0. -1.
     999902    2    1    2    0    0 -0.56584643457E-02 -0.47944989709E-04 -0.22913443974E-01  0.10203281689E+01  0.10200551582E+01 0.  0.
         14    1    1    2    0    0  0.56584643457E-02  0.47944989709E-04  0.22913443974E-01  0.23601831121E-01  0.00000000000E+00 0. -1.
     999901    1    3    3    0    0  0.60302426926E-01  0.10300860577E+00 -0.42984776601E-01  0.88909777110E+00  0.88000000000E+00 0. -1.
        -11    1    3    3    0    0 -0.44628189772E-01 -0.85497247696E-01 -0.10456542773E-02  0.96451071533E-01  0.51100000000E-03 0. -1.
         11    1    3    3    0    0 -0.21332701500E-01 -0.17559303061E-01  0.21116986904E-01  0.34779326247E-01  0.51100000000E-03 0.  1.
</event>
<event>
 8    1  0.1083484E+005  0.1043930E+01  0.7957747E-01            NaN
         13   -1    0    0    0    0  0.00000000000E+00  0.00000000000E+00  0.74505805969E-08  0.10566000000E+00  0.10566000000E+00 0. -1.
     999900   -1    0    0    0    0 -0.00000000000E+00 -0.00000000000E+00 -0.74505805969E-08  0.93827000000E+00  0.93827000000E+00 0. -1.
     999902    2    1    2    0    0 -0.49280738307E-02 -0.11998100602E-01 -0.19691208674E-01  0.10203506864E+01  0.10200782025E+01 0.  0.
     999903    2    3    3    0    0 -0.80742064108E-01 -0.80153104323E-01  0.61415848246E-01  0.13076020742E+00  0.19558230474E-01 0.  0.
         14    1    1    2    0    0  0.49280738307E-02  0.11998100602E-01  0.19691208674E-01  0.23579313578E-01  0.00000000000E+00 0. -1.
     999901    1    3    3    0    0  0.75813990277E-01  0.68155003720E-01 -0.81107056920E-01  0.88959047900E+00  0.88000000000E+00 0. -1.
        -11    1    4    4    0    0 -0.37723222615E-01 -0.35509825409E-01  0.38943495308E-01  0.64813935020E-01  0.51100000000E-03 0.  1.
         11    1    4    4    0    0 -0.43018841493E-01 -0.44643278914E-01  0.22472352938E-01  0.65946272397E-01  0.51100000000E-03 0. -1.
</event>
<event>
 8    1  0.1083484E+005  0.1043930E+01  0.7957747E-01            NaN
         13   -1    0    0    0    0  0.00000000000E+00  0.00000000000E+00  0.74505805969E-08  0.10566000000E+00  0.10566000000E+00 0. -1.
     999900   -1    0    0    0    0 -0.00000000000E+00 -0.00000000000E+00 -0.74505805969E-08  0.93827000000E+00  0.93827000000E+00 0.  1.
     999902    2    1    2    0    0 -0.18192677947E-01  0.14011292896E-01 -0.43945243295E-02  0.10205504854E+01  0.10202826528E+01 0.  0.
     999903    2    3    3    0    0  0.93739565274E-02 -0.77799592641E-01  0.10058548241E+00  0.12914151087E+00  0.20480304691E-01 0.  0.
         14    1    1    2    0    0  0.18192677947E-01 -0.14011292896E-01  0.43945243295E-02  0.23379514614E-01  0.00000000000E+00 0. -1.
     999901    1    3    3    0    0 -0.27566634475E-01  0.91810885538E-01 -0.10498000674E+00  0.89140897452E+00  0.88000000000E+00 0.  1.
        -11    1    4    4    0    0 -0.62012196480E-03 -0.38243885856E-01  0.34706189724E-01  0.51650363820E-01  0.51100000000E-03 0. -1.
         11    1    4    4    0    0  0.99940784922E-02 -0.39555706786E-01  0.65879292689E-01  0.77491147045E-01  0.51100000000E-03 0.  1.
</event>
<event>
 8    1  0.1083484E+005  0.1043930E+01  0.7957747E-01            NaN
         13   -1    0    0    0    0  0.00000000000E+00  0.00000000000E+00  0.74505805969E-08  0.10566000000E+00  0.10566000000E+00 0.  1.
     999900   -1    0    0    0    0 -0.00000000000E+00 -0.00000000000E+00 -0.74505805969E-08  0.93827000000E+00  0.93827000000E+00 0. -1.
     999902    2    1    2    0    0 -0.79650714715E-02  0.72214681302E-03 -0.24403334631E-01  0.10182495288E+01  0.10179256438E+01 0.  0.
     999903    2    3    3    0    0 -0.92468803814E-01 -0.88233457272E-01 -0.79478169325E-02  0.12958493272E+00  0.19835935395E-01 0.  0.
         14    1    1    2    0    0  0.79650714715E-02 -0.72214681302E-03  0.24403334631E-01  0.25680471192E-01  0.00000000000E+00 0.  1.
     999901    1    3    3    0    0  0.84503732342E-01  0.88955604085E-01 -0.16455517698E-01  0.88866459609E+00  0.88000000000E+00 0. -1.
        -11    1    4    4    0    0 -0.75457480391E-01 -0.62339836524E-01 -0.10773900142E-01  0.98470425053E-01  0.51100000000E-03 0. -1.
         11    1    4    4    0    0 -0.17011323423E-01 -0.25893620748E-01  0.28260832090E-02  0.31114507667E-01  0.51100000000E-03 0.  1.
</event>
<event>
 8    1  0.1083484E+005  0.1043930E+01  0.7957747E-01            NaN
         13   -1    0    0    0    0  0.00000000000E+00  0.00000000000E+00  0.74505805969E-08  0.10566000000E+00  0.10566000000E+00 0. -1.
     999900   -1    0    0    0    0 -0.00000000000E+00 -0.00000000000E+00 -0.74505805969E-08  0.93827000000E+00  0.93827000000E+00 0. -1.
     999902    2    1    2    0    0  0.17161688321E-01  0.34652449909E-02 -0.18169452630E-01  0.10186978681E+01  0.10183853328E+01 0.  0.
     999903    2    3    3    0    0  0.82255702785E-02 -0.12701687861E+00 -0.28398930710E-02  0.12889989435E+00  0.20153667438E-01 0.  0.
         14    1    1    2    0    0 -0.17161688321E-01 -0.34652449909E-02  0.18169452630E-01  0.25232131851E-01  0.00000000000E+00 0.  1.
     999901    1    3    3    0    0  0.89361180428E-02  0.13048212360E+00 -0.15329559559E-01  0.88979797380E+00  0.88000000000E+00 0.  1.
        -11    1    4    4    0    0  0.81993159051E-02 -0.90349846888E-01  0.68192624240E-02  0.90978497871E-01  0.51100000000E-03 0.  1.
         11    1    4    4    0    0  0.26254373476E-04 -0.36667031725E-01 -0.96591554950E-02  0.37921396476E-01  0.51100000000E-03 0. -1.
</event>
<event>
 8    1  0.1083484E+005  0.1043930E+01  0.7957747E-01            NaN
         13   -1    0    0    0    0  0.00000000000E+00  0.00000000000E+00  0.74505805969E-08  0.10566000000E+00  0.10566000000E+00 0.  1.
     999900   -1    0    0    0    0 -0.00000000000E+00 -0.00000000000E+00 -0.74505805969E-08  0.93827000000E+00  0.93827000000E+00 0.  1.
     999902    2    1    2    0    0  0.15341948655E-01  0.10559181275E-01 -0.14517999793E-01  0.10203155126E+01  0.10200422056E+01 0.  0.
     999903    2    3    3    0    0  0.10726987179E+00 -0.35972461081E-02  0.72652134520E-01  0.13113061629E+00  0.19928379360E-01 0.  0.
         14    1    1    2    0    0 -0.15341948655E-01 -0.10559181275E-01  0.14517999793E-01  0.23614487412E-01  0.00000000000E+00 0. -1.
     999901    1    3    3    0    0 -0.91927923139E-01  0.14156427383E-01 -0.87170134313E-01  0.88918489630E+00  0.88000000000E+00 0.  1.
        -11    1    4    4    0    0  0.52680532300E-01 -0.11036142008E-01  0.40265857972E-01  0.67220795540E-01  0.51100000000E-03 0.  1.
         11    1    4    4    0    0  0.54589339494E-01  0.74388958996E-02  0.32386276548E-01  0.63909820749E-01  0.51100000000E-03 0. -1.
</event>
<event>
 8    1  0.1083484E+005  0.1043930E+01  0.7957747E-01            NaN
         13   -1    0    0    0    0  0.00000000000E+00  0.00000000000E+00  0.74505805969E-08  0.10566000000E+00  0.10566000000E+00 0. -1.
     999900   -1    0    0    0    0 -0.00000000000E+00 -0.00000000000E+00 -0.74505805969E-08  0.93827000000E+00  0.93827000000E+00 0.  1.
     999902    2    1    2    0    0  0.17240301909E-01 -0.13451652284E-01 -0.69198118215E-02  0.10209940292E+01  0.10207363759E+01 0.  0.
     999903    2    3    3    0    0  0.52846725526E-01 -0.93380405379E-01 -0.77537199107E-01  0.13383945513E+00  0.19705481400E-01 0.  0.
         14    1    1    2    0    0 -0.17240301909E-01  0.13451652284E-01  0.69198118215E-02  0.22935970760E-01  0.00000000000E+00 0. -1.
     999901    1    3    3    0    0 -0.35606423617E-01  0.79928753095E-01  0.70617387285E-01  0.88715457411E+00  0.88000000000E+00 0. -1.
        -11    1    4    4    0    0  0.29318187220E-01 -0.68126568941E-01 -0.47453981869E-01  0.88050707060E-01  0.51100000000E-03 0. -1.
         11    1    4    4    0    0  0.23528538305E-01 -0.25253836438E-01 -0.30083217238E-01  0.45788748072E-01  0.51100000000E-03 0.  1.
</event>
<event>
 8    1  0.1083484E+005  0.1043930E+01  0.7957747E-01            NaN
         13   -1    0    0    0    0  0.00000000000E+00  0.00000000000E+00  0.74505805969E-08  0.10566000000E+00  0.10566000000E+00 0.  1.
     999900   -1    0    0    0    0 -0.00000000000E+00 -0.00000000000E+00 -0.74505805969E-08  0.93827000000E+00  0.93827000000E+00 0.  1.
     999902    2    1    2    0    0 -0.57056004493E-02 -0.11512361688E-01  0.20626306426E-01  0.10196291180E+01  0.10193394947E+01 0.  0.
     999903    2    3    3    0    0  0.34488440680E-01 -0.83478091507E-01  0.95760040921E-01  0.13258926251E+00  0.15870815765E-01 0.  0.
         14    1    1    2    0    0  0.57056004493E-02  0.11512361688E-01 -0.20626306426E-01  0.24300881978E-01  0.00000000000E+00 0. -1.
     999901    1    3    3    0    0 -0.40194041129E-01  0.71965729818E-01 -0.75133734495E-01  0.88703985551E+00  0.88000000000E+00 0.  1.
        -11    1    4    4    0    0  0.17513816664E-01 -0.26049692110E-01  0.39132007510E-01  0.50168669166E-01  0.51100000000E-03 0. -1.
         11    1    4    4    0    0  0.16974624016E-01 -0.57428399397E-01  0.56628033411E-01  0.82420593342E-01  0.51100000000E-03 0.  1.
</event>
<event>
 8    1  0.1083484E+005  0.1043930E+01  0.7957747E-01            NaN
         13   -1    0    0    0    0  0.00000000000E+00  0.00000000000E+00  0.74505805969E-08  0.10566000000E+00  0.10566000000E+00 0.  1.
     999900   -1    0    0    0    0 -0.00000000000E+00 -0.00000000000E+00 -0.74505805969E-08  0.93827000000E+00  0.93827000000E+00 0.  1.
     999902    2    1    2    0    0 -0.46265302672E-02 -0.18603577442E-01  0.14209294002E-01  0.10200678561E+01  0.10197887179E+01 0.  0.
     999903    2    3    3    0    0  0.84204328746E-01 -0.99070334010E-01  0.15302809069E-01  0.13194229278E+00  0.16410137068E-01 0.  0.
         14    1    1    2    0    0  0.46265302672E-02  0.18603577442E-01 -0.14209294002E-01  0.23862143911E-01  0.00000000000E+00 0. -1.
     999901    1    3    3    0    0 -0.88830859014E-01  0.80466756568E-01 -0.10935150669E-02  0.88812556331E+00  0.88000000000E+00 0. -1.
        -11    1    4    4    0    0  0.70880360851E-01 -0.89590766795E-01  0.16985677284E-01  0.11549591076E+00  0.51100000000E-03 0. -1.
         11    1    4    4    0    0  0.13323967896E-01 -0.94795672154E-02 -0.16828682148E-02  0.16446382019E-01  0.51100000000E-03 0.  1.
</event>
<event>
 8    1  0.1083484E+005  0.1043930E+01  0.7957747E-01            NaN
         13   -1    0    0    0    0  0.00000000000E+00  0.00000000000E+00  0.74505805969E-08  0.10566000000E+00  0.10566000000E+00 0.  1.
     999900   -1    0    0    0    0 -0.00000000000E+00 -0.00000000000E+00 -0.74505805969E-08  0.93827000000E+00  0.93827000000E+00 0. -1.
     999902    2    1    2    0    0  0.12113185429E-01 -0.71024955411E-02  0.18692701521E-01  0.10205506973E+01  0.10202828696E+01 0.  0.
     999903    2    3    3    0    0  0.62075713870E-02  0.12292337521E+00 -0.34693749130E-01  0.12937635047E+00  0.19644177696E-01 0.  0.
         14    1    1    2    0    0 -0.12113185429E-01  0.71024955411E-02 -0.18692701521E-01  0.23379302691E-01  0.00000000000E+00 0. -1.
     999901    1    3    3    0    0  0.59056140424E-02 -0.13002587075E+00  0.53386450651E-01  0.89117434683E+00  0.88000000000E+00 0. -1.
        -11    1    4    4    0    0  0.88165677919E-03  0.10676897696E+00 -0.24531802545E-01  0.10955574936E+00  0.51100000000E-03 0.  1.
         11    1    4    4    0    0  0.53259146078E-02  0.16154398249E-01 -0.10161946585E-01  0.19820601116E-01  0.51100000000E-03 0. -1.
</event>
<event>
 8    1  0.1083484E+005  0.1043930E+01  0.7957747E-01            NaN
         13   -1    0    0    0    0  0.00000000000E+00  0.00000000000E+00  0.74505805969E-08  0.10566000000E+00  0.10566000000E+00 0. -1.
     999900   -1    0    0    0    0 -0.00000000000E+00 -0.00000000000E+00 -0.74505805969E-08  0.93827000000E+00  0.93827000000E+00 0. -1.
     999902    2    1    2    0    0 -0.20161429215E-01  0.84868982211E-02  0.85705262057E-02  0.10204360734E+01  0.10201655823E+01 0.  0.
     999903    2    3    3    0    0  0.11323069420E+00 -0.26898131764E-01 -0.50219407780E-01  0.12774250036E+00  0.15857423481E-01 0.  0.
         14    1    1    2    0    0  0.20161429215E-01 -0.84868982211E-02 -0.85705262057E-02  0.23493926638E-01  0.00000000000E+00 0.  1.
     999901    1    3    3    0    0 -0.13339212342E+00  0.35385029985E-01  0.58789933985E-01  0.89269357300E+00  0.88000000000E+00 0. -1.
        -11    1    4    4    0    0  0.67398800949E-01 -0.15135228479E-01 -0.21314857433E-01  0.72292861189E-01  0.51100000000E-03 0.  1.
         11    1    4    4    0    0  0.45831893253E-01 -0.11762903284E-01 -0.28904550346E-01  0.55449639174E-01  0.51100000000E-03 0. -1.
</event>
<event>
 8    1  0.1083484E+005  0.1043930E+01  0.7957747E-01            NaN
         13   -1    0    0    0    0  0.00000000000E+00  0.00000000000E+00  0.74505805969E-08  0.10566000000E+00  0.10566000000E+00 0.  1.
     999900   -1    0    0    0    0 -0.00000000000E+00 -0.00000000000E+00 -0.74505805969E-08  0.93827000000E+00  0.93827000000E+00 0.  1.
     999902    2    1    2    0    0 -0.91839985458E-02  0.10171367111E-01 -0.19823884197E-01  0.10198304373E+01  0.10195456497E+01 0.  0.
     999903    2    3    3    0    0  0.87260927261E-01  0.88488835781E-01 -0.36242163841E-01  0.13095203755E+00  0.19753435520E-01 0.  0.
         14    1    1    2    0    0  0.91839985458E-02 -0.10171367111E-01  0.19823884197E-01  0.24099562711E-01  0.00000000000E+00 0.  1.
     999901    1    3    3    0    0 -0.96444925807E-01 -0.78317468669E-01  0.16418279644E-01  0.88887839974E+00  0.88000000000E+00 0.  1.
        -11    1    4    4    0    0  0.35539752463E-01  0.23557140399E-01 -0.15639376365E-01  0.45418763556E-01  0.51100000000E-03 0.  1.
         11    1    4    4    0    0  0.51721174798E-01  0.64931695382E-01 -0.20602787476E-01  0.85533273996E-01  0.51100000000E-03 0. -1.
</event>
<event>
 8    1  0.1083484E+005  0.1043930E+01  0.7957747E-01            NaN
         13   -1    0    0    0    0  0.00000000000E+00  0.00000000000E+00  0.74505805969E-08  0.10566000000E+00  0.10566000000E+00 0.  1.
     999900   -1    0    0    0    0 -0.00000000000E+00 -0.00000000000E+00 -0.74505805969E-08  0.93827000000E+00  0.93827000000E+00 0.  1.
     999902    2    1    2    0    0 -0.20743026938E-01  0.10856581841E-01  0.58633034982E-03  0.10205103006E+01  0.10202415358E+01 0.  0.
     999903    2    3    3    0    0 -0.10355431621E+00 -0.20375764824E-01  0.77968307806E-01  0.13269211003E+00  0.19735015649E-01 0.  0.
         14    1    1    2    0    0  0.20743026938E-01 -0.10856581841E-01 -0.58633034982E-03  0.23419699381E-01  0.00000000000E+00 0.  1.
     999901    1    3    3    0    0  0.82811289276E-01  0.31232346666E-01 -0.77381977456E-01  0.88781819059E+00  0.88000000000E+00 0.  1.
        -11    1    4    4    0    0 -0.46136217206E-01 -0.18362787881E-02  0.25601968015E-01  0.52798147175E-01  0.51100000000E-03 0.  1.
         11    1    4    4    0    0 -0.57418099008E-01 -0.18539486036E-01  0.52366339791E-01  0.79893962852E-01  0.51100000000E-03 0. -1.
</event>
<event>
 8    1  0.1083484E+005  0.1043930E+01  0.7957747E-01            NaN
         13   -1    0    0    0    0  0.00000000000E+00  0.00000000000E+00  0.74505805969E-08  0.10566000000E+00  0.10566000000E+00 0.  1.
     999900   -1    0    0    0    0 -0.00000000000E+00 -0.00000000000E+00 -0.74505805969E-08  0.93827000000E+00  0.93827000000E+00 0. -1.
     999902    2    1    2    0    0 -0.16359094008E-02 -0.22952842753E-01 -0.81084879365E-03  0.10209046517E+01  0.10206449633E+01 0.  0.
     999903    2    3    3    0    0 -0.78616686961E-01  0.28658596227E-01 -0.98453683896E-01  0.13066653521E+00  0.19460651194E-01 0.  0.
         14    1    1    2    0    0  0.16359094008E-02  0.22952842753E-01  0.81084879365E-03  0.23025348331E-01  0.00000000000E+00 0.  1.
     999901    1    3    3    0    0  0.76980777560E-01 -0.51611438980E-01  0.97642835103E-01  0.89023811646E+00  0.88000000000E+00 0.  1.
        -11    1    4    4    0    0 -0.32814196337E-01  0.15363894977E-01 -0.56627355591E-01  0.67229006183E-01  0.51100000000E-03 0. -1.
         11    1    4    4    0    0 -0.45802490624E-01  0.13294701250E-01 -0.41826328305E-01  0.63437529028E-01  0.51100000000E-03 0.  1.
</event>
<event>
 8    1  0.1083484E+005  0.1043930E+01  0.7957747E-01            NaN
         13   -1    0    0    0    0  0.00000000000E+00  0.00000000000E+00  0.74505805969E-08  0.10566000000E+00  0.10566000000E+00 0.  1.
     999900   -1    0    0    0    0 -0.00000000000E+00 -0.00000000000E+00 -0.74505805969E-08  0.93827000000E+00  0.93827000000E+00 0.  1.
     999902    2    1    2    0    0 -0.55439228233E-02 -0.13254817797E-01  0.18947341046E-01  0.10201512909E+01  0.10198741242E+01 0.  0.
     999903    2    3    3    0    0  0.30703890211E-01 -0.12602565888E-01 -0.12219040804E+00  0.12816799865E+00  0.19874267768E-01 0.  0.
         14    1    1    2    0    0  0.55439228233E-02  0.13254817797E-01 -0.18947341046E-01  0.23778709128E-01  0.00000000000E+00 0. -1.
     999901    1    3    3    0    0 -0.36247813034E-01 -0.65225190916E-03  0.14113774909E+00  0.89198329222E+00  0.88000000000E+00 0. -1.
        -11    1    4    4    0    0  0.12880998298E-01 -0.92348064937E-02 -0.27412506249E-01  0.31668728866E-01  0.51100000000E-03 0. -1.
         11    1    4    4    0    0  0.17822891912E-01 -0.33677593938E-02 -0.94777901794E-01  0.96499269785E-01  0.51100000000E-03 0.  1.
</event>
<event>
 8    1  0.1083484E+005  0.1043930E+01  0.7957747E-01            NaN
         13   -1    0    0    0    0  0.00000000000E+00  0.00000000000E+00  0.74505805969E-08  0.10566000000E+00  0.10566000000E+00 0. -1.
     999900   -1    0    0    0    0 -0.00000000000E+00 -0.00000000000E+00 -0.74505805969E-08  0.93827000000E+00  0.93827000000E+00 0. -1.
     999902    2    1    2    0    0  0.14059431841E-01 -0.14632205528E-01 -0.14134195011E-01  0.10192005736E+01  0.10189005175E+01 0.  0.
     999903    2    3    3    0    0 -0.70262902856E-01 -0.33142326217E-01  0.99420050963E-01  0.12771448425E+00  0.19782660306E-01 0.  0.
         14    1    1    2    0    0 -0.14059431841E-01  0.14632205528E-01  0.14134195011E-01  0.24729426417E-01  0.00000000000E+00 0. -1.
     999901    1    3    3    0    0  0.84322334697E-01  0.18510120689E-01 -0.11355424597E+00  0.89148608933E+00  0.88000000000E+00 0. -1.
        -11    1    4    4    0    0 -0.22780342023E-01 -0.11177700767E-01  0.18713558448E-01  0.31533210555E-01  0.51100000000E-03 0.  1.
         11    1    4    4    0    0 -0.47482560833E-01 -0.21964625450E-01  0.80706492515E-01  0.96181273694E-01  0.51100000000E-03 0. -1.
</event>
<event>
 8    1  0.1083484E+005  0.1043930E+01  0.7957747E-01            NaN
         13   -1    0    0    0    0  0.00000000000E+00  0.00000000000E+00  0.74505805969E-08  0.10566000000E+00  0.10566000000E+00 0.  1.
     999900   -1    0    0    0    0 -0.00000000000E+00 -0.00000000000E+00 -0.74505805969E-08  0.93827000000E+00  0.93827000000E+00 0.  1.
     999902    2    1    2    0    0 -0.22050766043E-01  0.77869300073E-02  0.55648081859E-02  0.10198917045E+01  0.10196083803E+01 0.  0.
     999903    2    3    3    0    0  0.72894996809E-01  0.47798537824E-01 -0.92932388388E-01  0.12842251017E+00  0.16047788924E-01 0.  0.
         14    1    1    2    0    0  0.22050766043E-01 -0.77869300073E-02 -0.55648081859E-02  0.24038295534E-01  0.00000000000E+00 0. -1.
     999901    1    3    3    0    0 -0.94945762852E-01 -0.40011607817E-01  0.98497196573E-01  0.89146919429E+00  0.88000000000E+00 0. -1.
        -11    1    4    4    0    0  0.63061813608E-01  0.47007915316E-01 -0.80566648262E-01  0.11259565876E+00  0.51100000000E-03 0.  1.
         11    1    4    4    0    0  0.98331832009E-02  0.79062250801E-03 -0.12365740125E-01  0.15826851413E-01  0.51100000000E-03 0. -1.
</event>
<event>
 8    1  0.1083484E+005  0.1043930E+01  0.7957747E-01            NaN
         13   -1    0    0    0    0  0.00000000000E+00  0.00000000000E+00  0.74505805969E-08  0.10566000000E+00  0.10566000000E+00 0.  1.
     999900   -1    0    0    0    0 -0.00000000000E+00 -0.00000000000E+00 -0.74505805969E-08  0.93827000000E+00  0.93827000000E+00 0. -1.
     999902    2    1    2    0    0  0.95646557084E-02  0.22666786427E-01  0.22512695004E-02  0.10192250600E+01  0.10189256052E+01 0.  0.
     999903    2    3    3    0    0  0.22467853512E-01 -0.12274440069E+00  0.11669953178E-01  0.12714904449E+00  0.21440600908E-01 0.  0.
         14    1    1    2    0    0 -0.95646557084E-02 -0.22666786427E-01 -0.22512695004E-02  0.24704939994E-01  0.00000000000E+00 0. -1.
     999901    1    3    3    0    0 -0.12903197803E-01  0.14541118711E+00 -0.94186836777E-02  0.89207601551E+00  0.88000000000E+00 0. -1.
        -11    1    4    4    0    0  0.12540753010E-01 -0.62783080401E-01 -0.47175217213E-02  0.64198923690E-01  0.51100000000E-03 0.  1.
         11    1    4    4    0    0  0.99271005012E-02 -0.59961320284E-01  0.16387474899E-01  0.62950120804E-01  0.51100000000E-03 0. -1.
</event>
<event>
 8    1  0.1083484E+005  0.1043930E+01  0.7957747E-01            NaN
         13   -1    0    0    0    0  0.00000000000E+00  0.00000000000E+00  0.74505805969E-08  0.10566000000E+00  0.10566000000E+00 0.  1.
     999900   -1    0    0    0    0 -0.00000000000E+00 -0.00000000000E+00 -0.74505805969E-08  0.93827000000E+00  0.93827000000E+00 0. -1.
     999902    2    1    2    0    0  0.10868055913E-01  0.49566192188E-02 -0.20285988257E-01  0.10203884615E+01  0.10201168602E+01 0.  0.
     999903    2    3    3    0    0  0.63267080545E-01 -0.16803687108E-01  0.10936809932E+00  0.12908079797E+00  0.20380968478E-01 0.  0.
         14    1    1    2    0    0 -0.10868055913E-01 -0.49566192188E-02  0.20285988257E-01  0.23541538458E-01  0.00000000000E+00 0.  1.
     999901    1    3    3    0    0 -0.52399024632E-01  0.21760306326E-01 -0.12965408757E+00  0.89130766357E+00  0.88000000000E+00 0. -1.
        -11    1    4    4    0    0  0.25755732627E-01  0.27203464663E-02  0.35227619354E-01  0.43726471781E-01  0.51100000000E-03 0. -1.
         11    1    4    4    0    0  0.37511347918E-01 -0.19524033574E-01  0.74140479962E-01  0.85354326192E-01  0.51100000000E-03 0.  1.
</event>
<event>
 8    1  0.1083484E+005  0.1043930E+01  0.7957747E-01            NaN
         13   -1    0    0    0    0  0.00000000000E+00  0.00000000000E+00  0.74505805969E-08  0.10566000000E+00  0.10566000000E+00 0.  1.
     999900   -1    0    0    0    0 -0.00000000000E+00 -0.00000000000E+00 -0.74505805969E-08  0.93827000000E+00  0.93827000000E+00 0.  1.
     999902    2    1    2    0    0 -0.19106017553E-01  0.16315954137E-01  0.13887732540E-01  0.10152225205E+01  0.10148165581E+01 0.  0.
     999903    2    3    3    0    0  0.11515528947E+00 -0.14060081461E-01  0.39412577074E-01  0.12415556463E+00  0.20070535948E-01 0.  0.
         14    1    1    2    0    0  0.19106017553E-01 -0.16315954137E-01 -0.13887732540E-01  0.28707479535E-01  0.00000000000E+00 0.  1.
     999901    1    3    3    0    0 -0.13426130702E+00  0.30376035598E-01 -0.25524844534E-01  0.89106695584E+00  0.88000000000E+00 0. -1.
        -11    1    4    4    0    0  0.46386187265E-01 -0.16234699829E-02  0.63735549037E-02  0.46852933173E-01  0.51100000000E-03 0. -1.
         11    1    4    4    0    0  0.68769102200E-01 -0.12436611478E-01  0.33039022170E-01  0.77302631452E-01  0.51100000000E-03 0.  1.
</event>
<event>
 8    1  0.1083484E+005  0.1043930E+01  0.7957747E-01            NaN
         13   -1    0    0    0    0  0.00000000000E+00  0.00000000000E+00  0.74505805969E-08  0.10566000000E+00  0.10566000000E+00 0.  1.
     999900   -1    0    0    0    0 -0.00000000000E+00 -0.00000000000E+00 -0.74505805969E-08  0.93827000000E+00  0.93827000000E+00 0. -1.
     999902    2    1    2    0    0 -0.19075378116E-02 -0.15184925201E-02  0.22665344016E-01  0.10211338964E+01  0.10208794111E+01 0.  0.
     999903    2    3    3    0    0  0.43968269747E-01  0.11852304906E+00  0.30455259448E-01  0.13176600615E+00  0.21303418607E-01 0.  0.
         14    1    1    2    0    0  0.19075378116E-02  0.15184925201E-02 -0.22665344016E-01  0.22796103601E-01  0.00000000000E+00 0. -1.
     999901    1    3    3    0    0 -0.45875807559E-01 -0.12004154158E+00 -0.77899154322E-02  0.88936789025E+00  0.88000000000E+00 0. -1.
        -11    1    4    4    0    0  0.44143831638E-02  0.26533051572E-01 -0.65321370338E-03  0.26910544654E-01  0.51100000000E-03 0.  1.
         11    1    4    4    0    0  0.39553886584E-01  0.91989997492E-01  0.31108473151E-01  0.10485546150E+00  0.51100000000E-03 0. -1.
</event>
<event>
 8    1  0.1083484E+005  0.1043930E+01  0.7957747E-01            NaN
         13   -1    0    0    0    0  0.00000000000E+00  0.00000000000E+00  0.74505805969E-08  0.10566000000E+00  0.10566000000E+00 0. -1.
     999900   -1    0    0    0    0 -0.00000000000E+00 -0.00000000000E+00 -0.74505805969E-08  0.93827000000E+00  0.93827000000E+00 0. -1.
     999902    2    1    2    0    0 -0.16049846028E-01  0.16649650710E-01  0.44452311702E-02  0.10203807217E+01  0.10201089397E+01 0.  0.
     999903    2    3    3    0    0 -0.18078835388E-01 -0.12565424457E+00  0.94400297428E-02  0.12893276285E+00  0.20462397388E-01 0.  0.
         14    1    1    2    0    0  0.16049846028E-01 -0.16649650710E-01 -0.44452311702E-02  0.23549278257E-01  0.00000000000E+00 0.  1.
     999901    1    3    3    0    0  0.20289893603E-02  0.14230389528E+00 -0.49947985726E-02  0.89144795890E+00  0.88000000000E+00 0. -1.
        -11    1    4    4    0    0 -0.10629631634E-01 -0.75921699148E-01 -0.43474593921E-02  0.76787075699E-01  0.51100000000E-03 0.  1.
         11    1    4    4    0    0 -0.74492037542E-02 -0.49732545419E-01  0.13787489135E-01  0.52145687147E-01  0.51100000000E-03 0. -1.
</event>
<event>
 8    1  0.1143665E+005  0.1043930E+01  0.7957747E-01            NaN
         13   -1    0    0    0    0  0.00000000000E+00  0.00000000000E+00  0.74505805969E-08  0.10566000000E+00  0.10566000000E+00 0.  1.
     999900   -1    0    0    0    0 -0.00000000000E+00 -0.00000000000E+00 -0.74505805969E-08  0.93827000000E+00  0.93827000000E+00 0.  1.
     999902    2    1    2    0    0  0.20790198554E-01  0.75735033117E-02 -0.74332424170E-02  0.10205881192E+01  0.10203211581E+01 0.  0.
     999903    2    3    3    0    0  0.72007651808E-02  0.87945461242E-02 -0.12998413207E+00  0.13199097523E+00  0.19913510246E-01 0.  0.
         14    1    1    2    0    0 -0.20790198554E-01 -0.75735033117E-02  0.74332424170E-02  0.23341880840E-01  0.00000000000E+00 0.  1.
     999901    1    3    3    0    0  0.13589433374E-01 -0.12210428124E-02  0.12255088966E+00  0.88859714393E+00  0.88000000000E+00 0. -1.
        -11    1    4    4    0    0  0.39462494213E-02 -0.63015595202E-02 -0.45228451165E-01  0.45838373146E-01  0.51100000000E-03 0.  1.
         11    1    4    4    0    0  0.32545157595E-02  0.15096105644E-01 -0.84755680908E-01  0.86152602083E-01  0.51100000000E-03 0. -1.
</event>
<event>
 8    1  0.1083484E+005  0.1043930E+01  0.7957747E-01            NaN
         13   -1    0    0    0    0  0.00000000000E+00  0.00000000000E+00  0.74505805969E-08  0.10566000000E+00  0.10566000000E+00 0.  1.
     999900   -1    0    0    0    0 -0.00000000000E+00 -0.00000000000E+00 -0.74505805969E-08  0.93827000000E+00  0.93827000000E+00 0. -1.
     999902    2    1    2    0    0 -0.11104576032E-01  0.19863497082E-01 -0.97405347579E-02  0.10191762499E+01  0.10188755961E+01 0.  0.
     999903    2    3    3    0    0  0.86944124627E-01 -0.65489033245E-01  0.61875814335E-01  0.12674837968E+00  0.19708908401E-01 0.  0.
         14    1    1    2    0    0  0.11104576032E-01 -0.19863497082E-01  0.97405347579E-02  0.24753750070E-01  0.00000000000E+00 0.  1.
     999901    1    3    3    0    0 -0.98048700659E-01  0.85352530327E-01 -0.71616349093E-01  0.89242787025E+00  0.88000000000E+00 0.  1.
        -11    1    4    4    0    0  0.18089730917E-01 -0.21822753763E-01  0.97717087278E-02  0.29986969819E-01  0.51100000000E-03 0. -1.
         11    1    4    4    0    0  0.68854393710E-01 -0.43666279482E-01  0.52104105607E-01  0.96761409865E-01  0.51100000000E-03 0.  1.
</event>
<event>
 8    1  0.1083484E+005  0.1043930E+01  0.7957747E-01            NaN
         13   -1    0    0    0    0  0.00000000000E+00  0.00000000000E+00  0.74505805969E-08  0.10566000000E+00  0.10566000000E+00 0.  1.
     999900   -1    0    0    0    0 -0.00000000000E+00 -0.00000000000E+00 -0.74505805969E-08  0.93827000000E+00  0.93827000000E+00 0.  1.
     999902    2    1    2    0    0 -0.14878516657E-01  0.15869178283E-02 -0.15448596729E-01  0.10224230777E+01  0.10221968510E+01 0.  0.
     999903    2    3    3    0    0  0.71724364963E-01 -0.98631645312E-01 -0.47696443912E-01  0.13192673118E+00  0.16035138064E-01 0.  0.
         14    1    1    2    0    0  0.14878516657E-01 -0.15869178283E-02  0.15448596729E-01  0.21506922304E-01  0.00000000000E+00 0. -1.
     999901    1    3    3    0    0 -0.86602881621E-01  0.10021856314E+00  0.32247847183E-01  0.89049634651E+00  0.88000000000E+00 0.  1.
        -11    1    4    4    0    0  0.16425016338E-01 -0.33678774451E-01 -0.18245873509E-01  0.41679899608E-01  0.51100000000E-03 0. -1.
         11    1    4    4    0    0  0.55299348625E-01 -0.64952870861E-01 -0.29450570402E-01  0.90246831576E-01  0.51100000000E-03 0.  1.
</event>
<event>
 8    1  0.1083484E+005  0.1043930E+01  0.7957747E-01            NaN
         13   -1    0    0    0    0  0.00000000000E+00  0.00000000000E+00  0.74505805969E-08  0.10566000000E+00  0.10566000000E+00 0.  1.
     999900   -1    0    0    0    0 -0.00000000000E+00 -0.00000000000E+00 -0.74505805969E-08  0.93827000000E+00  0.93827000000E+00 0. -1.
     999902    2    1    2    0    0  0.18639952915E-01 -0.54151947763E-02 -0.12785334761E-01  0.10206870018E+01  0.10204223237E+01 0.  0.
     999903    2    3    3    0    0  0.66450547546E-01 -0.11114805816E+00  0.19546961702E-01  0.13248056819E+00  0.19986273630E-01 0.  0.
         14    1    1    2    0    0 -0.18639952915E-01  0.54151947763E-02  0.12785334761E-01  0.23242998173E-01  0.00000000000E+00 0.  1.
     999901    1    3    3    0    0 -0.47810594631E-01  0.10573286339E+00 -0.32332296463E-01  0.88820643364E+00  0.88000000000E+00 0. -1.
        -11    1    4    4    0    0  0.69143677371E-02 -0.23858662730E-01 -0.88842983803E-03  0.24861510353E-01  0.51100000000E-03 0.  1.
         11    1    4    4    0    0  0.59536179809E-01 -0.87289395433E-01  0.20435391540E-01  0.10761905784E+00  0.51100000000E-03 0. -1.
</event>
<event>
 8    1  0.1083484E+005  0.1043930E+01  0.7957747E-01            NaN
         13   -1    0    0    0    0  0.00000000000E+00  0.00000000000E+00  0.74505805969E-08  0.10566000000E+00  0.10566000000E+00 0. -1.
     999900   -1    0    0    0    0 -0.00000000000E+00 -0.00000000000E+00 -0.74505805969E-08  0.93827000000E+00  0.93827000000E+00 0.  1.
     999902    2    1    2    0    0 -0.15313639137E-01  0.39716120054E-02  0.17274149502E-01  0.10205061343E+01  0.10202372727E+01 0.  0.
     999903    2    3    3    0    0 -0.80111287719E-01  0.10293282087E+00  0.10957499299E-01  0.13256922422E+00  0.21013052797E-01 0.  0.
         14    1    1    2    0    0  0.15313639137E-01 -0.39716120054E-02 -0.17274149502E-01  0.23423865747E-01  0.00000000000E+00 0.  1.
     999901    1    3    3    0    0  0.64797648583E-01 -0.98961208866E-01  0.63166502028E-02  0.88793691003E+00  0.88000000000E+00 0. -1.
        -11    1    4    4    0    0 -0.28835840503E-01  0.40073746843E-01  0.14227543023E-01  0.51381854628E-01  0.51100000000E-03 0.  1.
         11    1    4    4    0    0 -0.51275447216E-01  0.62859074029E-01 -0.32700437236E-02  0.81187369596E-01  0.51100000000E-03 0. -1.
</event>
<event>
 8    1  0.1083484E+005  0.1043930E+01  0.7957747E-01            NaN
         13   -1    0    0    0    0  0.00000000000E+00  0.00000000000E+00  0.74505805969E-08  0.10566000000E+00  0.10566000000E+00 0.  1.
     999900   -1    0    0    0    0 -0.00000000000E+00 -0.00000000000E+00 -0.74505805969E-08  0.93827000000E+00  0.93827000000E+00 0. -1.
     999902    2    1    2    0    0  0.45502862420E-02  0.22862593187E-01 -0.10792999594E-01  0.10182416347E+01  0.10179175480E+01 0.  0.
     999903    2    3    3    0    0 -0.75814162306E-01 -0.56557959531E-01  0.81382595315E-01  0.12624252646E+00  0.19169211624E-01 0.  0.
         14    1    1    2    0    0 -0.45502862420E-02 -0.22862593187E-01  0.10792999594E-01  0.25688365311E-01  0.00000000000E+00 0.  1.
     999901    1    3    3    0    0  0.80364448548E-01  0.79420552718E-01 -0.92175594909E-01  0.89199910823E+00  0.88000000000E+00 0. -1.
        -11    1    4    4    0    0 -0.46892019255E-01 -0.23305256835E-01  0.41807354830E-01  0.67008301760E-01  0.51100000000E-03 0.  1.
         11    1    4    4    0    0 -0.28922143050E-01 -0.33252702696E-01  0.39575240486E-01  0.59234224699E-01  0.51100000000E-03 0. -1.
</event>
<event>
 8    1  0.1083484E+005  0.1043930E+01  0.7957747E-01            NaN
         13   -1    0    0    0    0  0.00000000000E+00  0.00000000000E+00  0.74505805969E-08  0.10566000000E+00  0.10566000000E+00 0. -1.
     999900   -1    0    0    0    0 -0.00000000000E+00 -0.00000000000E+00 -0.74505805969E-08  0.93827000000E+00  0.93827000000E+00 0.  1.
     999902    2    1    2    0    0  0.48491312573E-02 -0.89712213056E-02 -0.21429135310E-01  0.10201980653E+01  0.10199220008E+01 0.  0.
     999903    2    3    3    0    0  0.72933775156E-01 -0.10597212909E+00 -0.22425736231E-01  0.13225342282E+00  0.20943411834E-01 0.  0.
         14    1    1    2    0    0 -0.48491312573E-02  0.89712213056E-02  0.21429135310E-01  0.23731934726E-01  0.00000000000E+00 0. -1.
     999901    1    3    3    0    0 -0.68084643899E-01  0.97000907789E-01  0.99660092056E-03  0.88794464245E+00  0.88000000000E+00 0. -1.
        -11    1    4    4    0    0  0.38415822058E-01 -0.61221839210E-01 -0.22618172910E-01  0.75734614592E-01  0.51100000000E-03 0. -1.
         11    1    4    4    0    0  0.34517953098E-01 -0.44750289885E-01  0.19243667869E-03  0.56518808230E-01  0.51100000000E-03 0.  1.
</event>
<event>
 8    1  0.1083484E+005  0.1043930E+01  0.7957747E-01            NaN
         13   -1    0    0    0    0  0.00000000000E+00  0.00000000000E+00  0.74505805969E-08  0.10566000000E+00  0.10566000000E+00 0. -1.
     999900   -1    0    0    0    0 -0.00000000000E+00 -0.00000000000E+00 -0.74505805969E-08  0.93827000000E+00  0.93827000000E+00 0.  1.
     999902    2    1    2    0    0 -0.52388227546E-02 -0.76604157159E-02 -0.23360575095E-01  0.10187934986E+01  0.10184833573E+01 0.  0.
     999903    2    3    3    0    0  0.12369771074E+00  0.28542007829E-01 -0.22017610220E-02  0.12840990682E+00  0.19196003827E-01 0.  0.
         14    1    1    2    0    0  0.52388227546E-02  0.76604157159E-02  0.23360575095E-01  0.25136501379E-01  0.00000000000E+00 0. -1.
     999901    1    3    3    0    0 -0.12893653350E+00 -0.36202423545E-01 -0.21158814073E-01  0.89038359180E+00  0.88000000000E+00 0.  1.
        -11    1    4    4    0    0  0.99280280380E-01  0.15300040747E-01  0.88306929085E-03  0.10045748480E+00  0.51100000000E-03 0.  1.
         11    1    4    4    0    0  0.24417430364E-01  0.13241967082E-01 -0.30848303129E-02  0.27952422021E-01  0.51100000000E-03 0. -1.
</event>
<event>
 8    1  0.1083484E+005  0.1043930E+01  0.7957747E-01            NaN
         13   -1    0    0    0    0  0.00000000000E+00  0.00000000000E+00  0.74505805969E-08  0.10566000000E+00  0.10566000000E+00 0. -1.
     999900   -1    0    0    0    0 -0.00000000000E+00 -0.00000000000E+00 -0.74505805969E-08  0.93827000000E+00  0.93827000000E+00 0. -1.
     999902    2    1    2    0    0  0.93414765192E-02 -0.14945682505E-01 -0.14514565147E-01  0.10210978032E+01  0.10208425023E+01 0.  0.
     999903    2    3    3    0    0 -0.81072736234E-01 -0.10020374532E+00  0.19276538473E-01  0.13172414392E+00  0.19133374522E-01 0.  0.
         14    1    1    2    0    0 -0.93414765192E-02  0.14945682505E-01  0.14514565147E-01  0.22832196795E-01  0.00000000000E+00 0. -1.
     999901    1    3    3    0    0  0.90414212754E-01  0.85258062811E-01 -0.33791103620E-01  0.88937365928E+00  0.88000000000E+00 0.  1.
        -11    1    4    4    0    0 -0.59300143518E-01 -0.68455400993E-01  0.21748941619E-01  0.93144653786E-01  0.51100000000E-03 0. -1.
         11    1    4    4    0    0 -0.21772592717E-01 -0.31748344323E-01 -0.24724031456E-02  0.38579490136E-01  0.51100000000E-03 0.  1.
</event>
<event>
 8    1  0.1083484E+005  0.1043930E+01  0.7957747E-01            NaN
         13   -1    0    0    0    0  0.00000000000E+00  0.00000000000E+00  0.74505805969E-08  0.10566000000E+00  0.10566000000E+00 0. -1.
     999900   -1    0    0    0    0 -0.00000000000E+00 -0.00000000000E+00 -0.74505805969E-08  0.93827000000E+00  0.93827000000E+00 0.  1.
     999902    2    1    2    0    0  0.68421577569E-02 -0.22477462391E-01  0.22115984877E-02  0.10203303685E+01  0.10200574093E+01 0.  0.
     999903    2    3    3    0    0 -0.56128615035E-02  0.61524748819E-01 -0.11112198634E+00  0.12900775552E+00  0.21865639815E-01 0.  0.
         14    1    1    2    0    0 -0.68421577569E-02  0.22477462391E-01 -0.22115984877E-02  0.23599631484E-01  0.00000000000E+00 0.  1.
     999901    1    3    3    0    0  0.12455019260E-01 -0.84002211210E-01  0.11333358483E+00  0.89132261300E+00  0.88000000000E+00 0. -1.
        -11    1    4    4    0    0  0.54550898292E-02  0.23682956474E-01 -0.28496857931E-01  0.37456274045E-01  0.51100000000E-03 0.  1.
         11    1    4    4    0    0 -0.11067951333E-01  0.37841792346E-01 -0.82625128407E-01  0.91551481473E-01  0.51100000000E-03 0. -1.
</event>
<event>
 8    1  0.1083484E+005  0.1043930E+01  0.7957747E-01            NaN
         13   -1    0    0    0    0  0.00000000000E+00  0.00000000000E+00  0.74505805969E-08  0.10566000000E+00  0.10566000000E+00 0.  1.
     999900   -1    0    0    0    0 -0.00000000000E+00 -0.00000000000E+00 -0.74505805969E-08  0.93827000000E+00  0.93827000000E+00 0.  1.
     999902    2    1    2    0    0  0.27801455179E-02  0.18265598469E-01  0.15191172087E-01  0.10200106980E+01  0.10197302051E+01 0.  0.
     999903    2    3    3    0    0 -0.29421387042E-01  0.12746894701E+00  0.67512757129E-02  0.13263617628E+00  0.20804448220E-01 0.  0.
         14    1    1    2    0    0 -0.27801455179E-02 -0.18265598469E-01 -0.15191172087E-01  0.23919301953E-01  0.00000000000E+00 0. -1.
     999901    1    3    3    0    0  0.32201532560E-01 -0.10920334855E+00  0.84398963746E-02  0.88737452177E+00  0.88000000000E+00 0.  1.
        -11    1    4    4    0    0 -0.59460905274E-02  0.64738408103E-01 -0.22565746902E-02  0.65052061663E-01  0.51100000000E-03 0. -1.
         11    1    4    4    0    0 -0.23475296514E-01  0.62730538911E-01  0.90078504031E-02  0.67584114615E-01  0.51100000000E-03 0.  1.
</event>
<event>
 8    1  0.1083484E+005  0.1043930E+01  0.7957747E-01            NaN
         13   -1    0    0    0    0  0.00000000000E+00  0.00000000000E+00  0.74505805969E-08  0.10566000000E+00  0.10566000000E+00 0. -1.
     999900   -1    0    0    0    0 -0.00000000000E+00 -0.00000000000E+00 -0.74505805969E-08  0.93827000000E+00  0.93827000000E+00 0. -1.
     999902    2    1    2    0    0  0.19156930765E-01  0.72026842180E-02 -0.11359253938E-01  0.10205227510E+01  0.10202542752E+01 0.  0.
     999903    2    3    3    0    0  0.83573635540E-01 -0.93673502260E-01  0.32981470180E-01  0.13131432960E+00  0.19909751379E-01 0.  0.
         14    1    1    2    0    0 -0.19156930765E-01 -0.72026842180E-02  0.11359253938E-01  0.23407249012E-01  0.00000000000E+00 0. -1.
     999901    1    3    3    0    0 -0.64416704775E-01  0.10087618648E+00 -0.44340724118E-01  0.88920842139E+00  0.88000000000E+00 0.  1.
        -11    1    4    4    0    0  0.15048157620E-01 -0.29612289571E-01  0.66248610039E-02  0.33874542738E-01  0.51100000000E-03 0.  1.
         11    1    4    4    0    0  0.68525477920E-01 -0.64061212689E-01  0.26356609176E-01  0.97439786862E-01  0.51100000000E-03 0. -1.
</event>
<event>
 8    1  0.1083484E+005  0.1043930E+01  0.7957747E-01            NaN
         13   -1    0    0    0    0  0.00000000000E+00  0.00000000000E+00  0.74505805969E-08  0.10566000000E+00  0.10566000000E+00 0. -1.
     999900   -1    0    0    0    0 -0.00000000000E+00 -0.00000000000E+00 -0.74505805969E-08  0.93827000000E+00  0.93827000000E+00 0.  1.
     999902    2    1    2    0    0  0.18838604671E-01  0.10477666011E-01 -0.67091853595E-02  0.10213537364E+01  0.10211041901E+01 0.  0.
     999903    2    3    3    0    0  0.11432420880E+00 -0.61713041895E-01 -0.19795137981E-01  0.13315317284E+00  0.21433517970E-01 0.  0.
         14    1    1    2    0    0 -0.18838604671E-01 -0.10477666011E-01  0.67091853595E-02  0.22576263623E-01  0.00000000000E+00 0.  1.
     999901    1    3    3    0    0 -0.95485604131E-01  0.72190707906E-01  0.13085952622E-01  0.88820056353E+00  0.88000000000E+00 0.  1.
        -11    1    4    4    0    0  0.77141749075E-02 -0.43084921166E-02  0.40676349950E-02  0.97405530785E-02  0.51100000000E-03 0.  1.
         11    1    4    4    0    0  0.10661003389E+00 -0.57404549778E-01 -0.23862772976E-01  0.12341261977E+00  0.51100000000E-03 0. -1.
</event>
<event>
 8    1  0.1083484E+005  0.1043930E+01  0.7957747E-01            NaN
         13   -1    0    0    0    0  0.00000000000E+00  0.00000000000E+00  0.74505805969E-08  0.10566000000E+00  0.10566000000E+00 0.  1.
     999900   -1    0    0    0    0 -0.00000000000E+00 -0.00000000000E+00 -0.74505805969E-08  0.93827000000E+00  0.93827000000E+00 0.  1.
     999902    2    1    2    0    0  0.81024303795E-02  0.16118978828E-01 -0.14080921910E-01  0.10210445632E+01  0.10207880567E+01 0.  0.
     999903    2    3    3    0    0 -0.58863924087E-01 -0.10813349897E+00 -0.35231836728E-01  0.12954552669E+00  0.19569006295E-01 0.  0.
         14    1    1    2    0    0 -0.81024303795E-02 -0.16118978828E-01  0.14080921910E-01  0.22885436818E-01  0.00000000000E+00 0. -1.
     999901    1    3    3    0    0  0.66966354466E-01  0.12425247780E+00  0.21150914818E-01  0.89149903649E+00  0.88000000000E+00 0. -1.
        -11    1    4    4    0    0 -0.35132560998E-01 -0.52383420585E-01 -0.98039121347E-02  0.63833356551E-01  0.51100000000E-03 0. -1.
         11    1    4    4    0    0 -0.23731363088E-01 -0.55750078386E-01 -0.25427924594E-01  0.65712170138E-01  0.51100000000E-03 0.  1.
</event>
<event>
 8    1  0.1083484E+005  0.1043930E+01  0.7957747E-01            NaN
         13   -1    0    0    0    0  0.00000000000E+00  0.00000000000E+00  0.74505805969E-08  0.10566000000E+00  0.10566000000E+00 0.  1.
     999900   -1    0    0    0    0 -0.00000000000E+00 -0.00000000000E+00 -0.74505805969E-08  0.93827000000E+00  0.93827000000E+00 0. -1.
     999902    2    1    2    0    0  0.28244922509E-02  0.39359592842E-02 -0.22927306312E-01  0.10204964577E+01  0.10202273713E+01 0.  0.
     999903    2    3    3    0    0 -0.10802827082E+00 -0.60385600712E-01  0.32257413456E-01  0.12950209659E+00  0.20340212121E-01 0.  0.
         14    1    1    2    0    0 -0.28244922509E-02 -0.39359592842E-02  0.22927306312E-01  0.23433542342E-01  0.00000000000E+00 0.  1.
     999901    1    3    3    0    0  0.11085276307E+00  0.64321559996E-01 -0.55184719768E-01  0.89099436107E+00  0.88000000000E+00 0. -1.
        -11    1    4    4    0    0 -0.93564435197E-01 -0.45910456228E-01  0.21649444687E-01  0.10644732548E+00  0.51100000000E-03 0. -1.
         11    1    4    4    0    0 -0.14463835620E-01 -0.14475144484E-01  0.10607968769E-01  0.23054771113E-01  0.51100000000E-03 0.  1.
</event>
<event>
 8    1  0.1083484E+005  0.1043930E+01  0.7957747E-01            NaN
         13   -1    0    0    0    0  0.00000000000E+00  0.00000000000E+00  0.74505805969E-08  0.10566000000E+00  0.10566000000E+00 0. -1.
     999900   -1    0    0    0    0 -0.00000000000E+00 -0.00000000000E+00 -0.74505805969E-08  0.93827000000E+00  0.93827000000E+00 0.  1.
     999902    2    1    2    0    0  0.33801344791E-03 -0.87254747918E-02  0.21992953126E-01  0.10202669877E+01  0.10199925431E+01 0.  0.
     999903    2    3    3    0    0 -0.94246803021E-01 -0.76163334227E-01 -0.43196686620E-01  0.13024235798E+00  0.20342190579E-01 0.  0.
         14    1    1    2    0    0 -0.33801344791E-03  0.87254747918E-02 -0.21992953126E-01  0.23663012290E-01  0.00000000000E+00 0.  1.
     999901    1    3    3    0    0  0.94584816469E-01  0.67437859435E-01  0.65189639747E-01  0.89002462973E+00  0.88000000000E+00 0. -1.
        -11    1    4    4    0    0 -0.58183369212E-01 -0.34905785343E-01 -0.20034039546E-01  0.70748442844E-01  0.51100000000E-03 0.  1.
         11    1    4    4    0    0 -0.36063433809E-01 -0.41257548884E-01 -0.23162647075E-01  0.59493915138E-01  0.51100000000E-03 0. -1.
</event>
<event>
 8    1  0.1083484E+005  0.1043930E+01  0.7957747E-01            NaN
         13   -1    0    0    0    0  0.00000000000E+00  0.00000000000E+00  0.74505805969E-08  0.10566000000E+00  0.10566000000E+00 0.  1.
     999900   -1    0    0    0    0 -0.00000000000E+00 -0.00000000000E+00 -0.74505805969E-08  0.93827000000E+00  0.93827000000E+00 0. -1.
     999902    2    1    2    0    0 -0.19127760752E-01  0.14656416310E-01 -0.14624765088E-03  0.10198322167E+01  0.10195474717E+01 0.  0.
     999903    2    3    3    0    0  0.52423659974E-01 -0.10322322976E+00  0.49861289248E-01  0.12769098883E+00  0.20385415749E-01 0.  0.
         14    1    1    2    0    0  0.19127760752E-01 -0.14656416310E-01  0.14624765088E-03  0.24097783276E-01  0.00000000000E+00 0.  1.
     999901    1    3    3    0    0 -0.71551420726E-01  0.11787964607E+00 -0.50007536899E-01  0.89214122790E+00  0.88000000000E+00 0. -1.
        -11    1    4    4    0    0  0.36255080636E-01 -0.55994456233E-01  0.20562355085E-01  0.69806028166E-01  0.51100000000E-03 0. -1.
         11    1    4    4    0    0  0.16168579338E-01 -0.47228773527E-01  0.29298934163E-01  0.57884960662E-01  0.51100000000E-03 0.  1.
</event>
<event>
 8    1  0.1083484E+005  0.1043930E+01  0.7957747E-01            NaN
         13   -1    0    0    0    0  0.00000000000E+00  0.00000000000E+00  0.74505805969E-08  0.10566000000E+00  0.10566000000E+00 0. -1.
     999900   -1    0    0    0    0 -0.00000000000E+00 -0.00000000000E+00 -0.74505805969E-08  0.93827000000E+00  0.93827000000E+00 0. -1.
     999902    2    1    2    0    0 -0.87514208523E-02  0.31862739989E-02  0.18911915588E-01  0.10228491969E+01  0.10226319374E+01 0.  0.
     999903    2    3    3    0    0 -0.74320952057E-01  0.35418384989E-01  0.10576629986E+00  0.13556009153E+00  0.20296854948E-01 0.  0.
         14    1    1    2    0    0  0.87514208523E-02 -0.31862739989E-02 -0.18911915588E-01  0.21080803119E-01  0.00000000000E+00 0.  1.
     999901    1    3    3    0    0  0.65569531204E-01 -0.32232110990E-01 -0.86854384272E-01  0.88728910535E+00  0.88000000000E+00 0. -1.
        -11    1    4    4    0    0 -0.67205815611E-01  0.27142746594E-01  0.99041128491E-01  0.12273042246E+00  0.51100000000E-03 0. -1.
         11    1    4    4    0    0 -0.71151364461E-02  0.82756383948E-02  0.67251713689E-02  0.12829669069E-01  0.51100000000E-03 0.  1.
</event>
<event>
 8    1  0.1083484E+005  0.1043930E+01  0.7957747E-01            NaN
         13   -1    0    0    0    0  0.00000000000E+00  0.00000000000E+00  0.74505805969E-08  0.10566000000E+00  0.10566000000E+00 0.  1.
     999900   -1    0    0    0    0 -0.00000000000E+00 -0.00000000000E+00 -0.74505805969E-08  0.93827000000E+00  0.93827000000E+00 0.  1.
     999902    2    1    2    0    0  0.30310353246E-02 -0.20679596406E-01  0.11427652097E-01  0.10201093343E+01  0.10198311771E+01 0.  0.
     999903    2    3    3    0    0 -0.50046875652E-01  0.64918914650E-01 -0.96872848185E-01  0.12776782562E+00  0.14869879140E-01 0.  0.
         14    1    1    2    0    0 -0.30310353246E-02  0.20679596406E-01 -0.11427652097E-01  0.23820665715E-01  0.00000000000E+00 0.  1.
     999901    1    3    3    0    0  0.53077910977E-01 -0.85598511056E-01  0.10830050028E+00  0.89234150867E+00  0.88000000000E+00 0.  1.
        -11    1    4    4    0    0 -0.24477739176E-01  0.30734542602E-01 -0.57818536449E-01  0.69907196356E-01  0.51100000000E-03 0. -1.
         11    1    4    4    0    0 -0.25569136476E-01  0.34184372048E-01 -0.39054311736E-01  0.57860629262E-01  0.51100000000E-03 0.  1.
</event>
<event>
 8    1  0.1083484E+005  0.1043930E+01  0.7957747E-01            NaN
         13   -1    0    0    0    0  0.00000000000E+00  0.00000000000E+00  0.74505805969E-08  0.10566000000E+00  0.10566000000E+00 0. -1.
     999900   -1    0    0    0    0 -0.00000000000E+00 -0.00000000000E+00 -0.74505805969E-08  0.93827000000E+00  0.93827000000E+00 0.  1.
     999902    2    1    2    0    0 -0.17702633353E-01  0.23879018080E-01  0.98121974650E-03  0.10141885554E+01  0.10137523724E+01 0.  0.
     999903    2    3    3    0    0  0.22899316659E-02 -0.94693381172E-01  0.75897410406E-01  0.12285721854E+00  0.19010497544E-01 0.  0.
         14    1    1    2    0    0  0.17702633353E-01 -0.23879018080E-01 -0.98121974650E-03  0.29741444556E-01  0.00000000000E+00 0. -1.
     999901    1    3    3    0    0 -0.19992565019E-01  0.11857239925E+00 -0.74916190660E-01  0.89133133690E+00  0.88000000000E+00 0.  1.
        -11    1    4    4    0    0  0.68510104969E-02 -0.47503999704E-01  0.28525639011E-01  0.55834931134E-01  0.51100000000E-03 0. -1.
         11    1    4    4    0    0 -0.45610788310E-02 -0.47189381468E-01  0.47371771395E-01  0.67022287409E-01  0.51100000000E-03 0.  1.
</event>
<event>
 8    1  0.1083484E+005  0.1043930E+01  0.7957747E-01            NaN
         13   -1    0    0    0    0  0.00000000000E+00  0.00000000000E+00  0.74505805969E-08  0.10566000000E+00  0.10566000000E+00 0. -1.
     999900   -1    0    0    0    0 -0.00000000000E+00 -0.00000000000E+00 -0.74505805969E-08  0.93827000000E+00  0.93827000000E+00 0. -1.
     999902    2    1    2    0    0  0.19946815297E-01  0.53202457897E-02  0.11921416212E-01  0.10200909434E+01  0.10198123514E+01 0.  0.
     999903    2    3    3    0    0 -0.24929383321E-01 -0.88186144352E-01 -0.87731347276E-01  0.12841387658E+00  0.19876221840E-01 0.  0.
         14    1    1    2    0    0 -0.19946815297E-01 -0.53202457897E-02 -0.11921416212E-01  0.23839056614E-01  0.00000000000E+00 0.  1.
     999901    1    3    3    0    0  0.44876198618E-01  0.93506390141E-01  0.99652763488E-01  0.89167706681E+00  0.88000000000E+00 0.  1.
        -11    1    4    4    0    0 -0.77979999038E-02 -0.37251712054E-01 -0.23779779844E-01  0.44880261852E-01  0.51100000000E-03 0.  1.
         11    1    4    4    0    0 -0.17131383417E-01 -0.50934432297E-01 -0.63951567432E-01  0.83533614726E-01  0.51100000000E-03 0. -1.
</event>
<event>
 8    1  0.1083484E+005  0.1043930E+01  0.7957747E-01            NaN
         13   -1    0    0    0    0  0.00000000000E+00  0.00000000000E+00  0.74505805969E-08  0.10566000000E+00  0.10566000000E+00 0.  1.
     999900   -1    0    0    0    0 -0.00000000000E+00 -0.00000000000E+00 -0.74505805969E-08  0.93827000000E+00  0.93827000000E+00 0.  1.
     999902    2    1    2    0    0 -0.89308362168E-02  0.18832704268E-02 -0.21944642286E-01  0.10201629247E+01  0.10198860324E+01 0.  0.
     999903    2    3    3    0    0  0.38329610001E-02 -0.12266372758E+00  0.36983562978E-01  0.12935014830E+00  0.17395266040E-01 0.  0.
         14    1    1    2    0    0  0.89308362168E-02 -0.18832704268E-02  0.21944642286E-01  0.23767075295E-01  0.00000000000E+00 0.  1.
     999901    1    3    3    0    0 -0.12763797217E-01  0.12454699801E+00 -0.58928205264E-01  0.89081277641E+00  0.88000000000E+00 0.  1.
        -11    1    4    4    0    0  0.47971562827E-02 -0.97165755500E-01  0.36245763023E-01  0.10381817379E+00  0.51100000000E-03 0. -1.
         11    1    4    4    0    0 -0.96419528260E-03 -0.25497972080E-01  0.73779995572E-03  0.25531974513E-01  0.51100000000E-03 0.  1.
</event>
<event>
 8    1  0.1083484E+005  0.1043930E+01  0.7957747E-01            NaN
         13   -1    0    0    0    0  0.00000000000E+00  0.00000000000E+00  0.74505805969E-08  0.10566000000E+00  0.10566000000E+00 0.  1.
     999900   -1    0    0    0    0 -0.00000000000E+00 -0.00000000000E+00 -0.74505805969E-08  0.93827000000E+00  0.93827000000E+00 0. -1.
     999902    2    1    2    0    0 -0.86021801780E-02 -0.68638044581E-02 -0.21720895411E-01  0.10195803262E+01  0.10192895246E+01 0.  0.
     999903    2    3    3    0    0 -0.58828111355E-01  0.26490080762E-02  0.11170842298E+00  0.12805549720E+00  0.21252639119E-01 0.  0.
         14    1    1    2    0    0  0.86021801780E-02  0.68638044581E-02  0.21720895411E-01  0.24349673774E-01  0.00000000000E+00 0.  1.
     999901    1    3    3    0    0  0.50225931177E-01 -0.95128125343E-02 -0.13342931839E+00  0.89152482903E+00  0.88000000000E+00 0. -1.
        -11    1    4    4    0    0 -0.29559108062E-01  0.23337721348E-02  0.34560592558E-01  0.45539906025E-01  0.51100000000E-03 0. -1.
         11    1    4    4    0    0 -0.29269003293E-01  0.31523594139E-03  0.77147830419E-01  0.82515591174E-01  0.51100000000E-03 0.  1.
</event>
<event>
 8    1  0.1083484E+005  0.1043930E+01  0.7957747E-01            NaN
         13   -1    0    0    0    0  0.00000000000E+00  0.00000000000E+00  0.74505805969E-08  0.10566000000E+00  0.10566000000E+00 0. -1.
     999900   -1    0    0    0    0 -0.00000000000E+00 -0.00000000000E+00 -0.74505805969E-08  0.93827000000E+00  0.93827000000E+00 0.  1.
     999902    2    1    2    0    0 -0.16946274424E-01 -0.13390454508E-01  0.74258364243E-02  0.10210909209E+01  0.10208354643E+01 0.  0.
     999903    2    3    3    0    0  0.72002772779E-01  0.64291838835E-01 -0.82436330876E-01  0.12866631296E+00  0.21010273999E-01 0.  0.
         14    1    1    2    0    0  0.16946274424E-01  0.13390454508E-01 -0.74258364243E-02  0.22839079128E-01  0.00000000000E+00 0.  1.
     999901    1    3    3    0    0 -0.88949047203E-01 -0.77682293343E-01  0.89862167301E-01  0.89242460791E+00  0.88000000000E+00 0. -1.
        -11    1    4    4    0    0  0.22982504085E-01  0.34274905366E-01 -0.36172608967E-01  0.54878806404E-01  0.51100000000E-03 0.  1.
         11    1    4    4    0    0  0.49020268694E-01  0.30016933470E-01 -0.46263721909E-01  0.73787506555E-01  0.51100000000E-03 0. -1.
</event>
<event>
 8    1  0.1083484E+005  0.1043930E+01  0.7957747E-01            NaN
         13   -1    0    0    0    0  0.00000000000E+00  0.00000000000E+00  0.74505805969E-08  0.10566000000E+00  0.10566000000E+00 0.  1.
     999900   -1    0    0    0    0 -0.00000000000E+00 -0.00000000000E+00 -0.74505805969E-08  0.93827000000E+00  0.93827000000E+00 0. -1.
     999902    2    1    2    0    0  0.16454100810E-01  0.12151252469E-01 -0.14183862597E-01  0.10190387901E+01  0.10187347464E+01 0.  0.
     999903    2    3    3    0    0  0.19441281031E-01 -0.10990415249E+00  0.58681644832E-01  0.12762652452E+00  0.19700461379E-01 0.  0.
         14    1    1    2    0    0 -0.16454100810E-01 -0.12151252469E-01  0.14183862597E-01  0.24891209858E-01  0.00000000000E+00 0.  1.
     999901    1    3    3    0    0 -0.29871802206E-02  0.12205540496E+00 -0.72865507430E-01  0.89141226562E+00  0.88000000000E+00 0. -1.
        -11    1    4    4    0    0  0.98588583370E-02 -0.15193289797E-01  0.10293572615E-01  0.20838711591E-01  0.51100000000E-03 0. -1.
         11    1    4    4    0    0  0.95824226936E-02 -0.94710862692E-01  0.48388072217E-01  0.10678781293E+00  0.51100000000E-03 0.  1.
</event>
<event>
 8    1  0.1083484E+005  0.1043930E+01  0.7957747E-01            NaN
         13   -1    0    0    0    0  0.00000000000E+00  0.00000000000E+00  0.74505805969E-08  0.10566000000E+00  0.10566000000E+00 0. -1.
     999900   -1    0    0    0    0 -0.00000000000E+00 -0.00000000000E+00 -0.74505805969E-08  0.93827000000E+00  0.93827000000E+00 0.  1.
     999902    2    1    2    0    0 -0.65152585926E-02  0.18761430543E-01 -0.12907865539E-01  0.10202434455E+01  0.10199684482E+01 0.  0.
     999903    2    3    3    0    0 -0.94197758568E-01 -0.19269292832E-01  0.85034378562E-01  0.12966653143E+00  0.18385876923E-01 0.  0.
         14    1    1    2    0    0  0.65152585926E-02 -0.18761430543E-01  0.12907865539E-01  0.23686554484E-01  0.00000000000E+00 0. -1.
     999901    1    3    3    0    0  0.87682499975E-01  0.38030723375E-01 -0.97942244101E-01  0.89057691409E+00  0.88000000000E+00 0.  1.
        -11    1    4    4    0    0 -0.16270479861E-01 -0.51444066826E-02  0.25056895172E-01  0.30320002501E-01  0.51100000000E-03 0.  1.
         11    1    4    4    0    0 -0.77927278707E-01 -0.14124886149E-01  0.59977483390E-01  0.99346528929E-01  0.51100000000E-03 0. -1.
</event>
<event>
 8    1  0.1083484E+005  0.1043930E+01  0.7957747E-01            NaN
         13   -1    0    0    0    0  0.00000000000E+00  0.00000000000E+00  0.74505805969E-08  0.10566000000E+00  0.10566000000E+00 0.  1.
     999900   -1    0    0    0    0 -0.00000000000E+00 -0.00000000000E+00 -0.74505805969E-08  0.93827000000E+00  0.93827000000E+00 0. -1.
     999902    2    1    2    0    0 -0.10386127112E-01 -0.15957452392E-02 -0.20210339024E-01  0.10211511536E+01  0.10208970578E+01 0.  0.
     999903    2    3    3    0    0  0.63011303637E-01 -0.88915260811E-01  0.67450223627E-01  0.12946945318E+00  0.18342809182E-01 0.  0.
         14    1    1    2    0    0  0.10386127112E-01  0.15957452392E-02  0.20210339024E-01  0.22778846387E-01  0.00000000000E+00 0. -1.
     999901    1    3    3    0    0 -0.73397430749E-01  0.87319515571E-01 -0.87660562651E-01  0.89168170043E+00  0.88000000000E+00 0. -1.
        -11    1    4    4    0    0  0.40380189091E-01 -0.54689543229E-01  0.52124601555E-01  0.85666452115E-01  0.51100000000E-03 0. -1.
         11    1    4    4    0    0  0.22631114546E-01 -0.34225717581E-01  0.15325622072E-01  0.43803001067E-01  0.51100000000E-03 0.  1.
</event>
<event>
 8    1  0.1083484E+005  0.1043930E+01  0.7957747E-01            NaN
         13   -1    0    0    0    0  0.00000000000E+00  0.00000000000E+00  0.74505805969E-08  0.10566000000E+00  0.10566000000E+00 0.  1.
     999900   -1    0    0    0    0 -0.00000000000E+00 -0.00000000000E+00 -0.74505805969E-08  0.93827000000E+00  0.93827000000E+00 0. -1.
     999902    2    1    2    0    0 -0.14189957233E-01  0.18227309450E-01  0.68872413540E-02  0.10198255649E+01  0.10195406608E+01 0.  0.
     999903    2    3    3    0    0 -0.10308682441E+00 -0.19863112707E-01 -0.72409407490E-01  0.13098278257E+00  0.29865204215E-01 0.  0.
         14    1    1    2    0    0  0.14189957233E-01 -0.18227309450E-01 -0.68872413540E-02  0.24104435059E-01  0.00000000000E+00 0. -1.
     999901    1    3    3    0    0  0.88896867179E-01  0.38090422157E-01  0.79296648844E-01  0.88884278237E+00  0.88000000000E+00 0.  1.
        -11    1    4    4    0    0 -0.62665996382E-01  0.16729187530E-02 -0.48850875771E-01  0.79476379789E-01  0.51100000000E-03 0. -1.
         11    1    4    4    0    0 -0.40420828030E-01 -0.21536031460E-01 -0.23558531719E-01  0.51506402781E-01  0.51100000000E-03 0.  1.
</event>
<event>
 8    1  0.1083484E+005  0.1043930E+01  0.7957747E-01            NaN
         13   -1    0    0    0    0  0.00000000000E+00  0.00000000000E+00  0.74505805969E-08  0.10566000000E+00  0.10566000000E+00 0.  1.
     999900   -1    0    0    0    0 -0.00000000000E+00 -0.00000000000E+00 -0.74505805969E-08  0.93827000000E+00  0.93827000000E+00 0. -1.
     999902    2    1    2    0    0  0.15192570925E-01  0.70315793724E-02  0.18568785622E-01  0.10189288576E+01  0.10186220888E+01 0.  0.
     999903    2    3    3    0    0  0.12689121927E+00  0.25824242164E-01  0.12868083854E-01  0.13165085711E+00  0.19952132351E-01 0.  0.
         14    1    1    2    0    0 -0.15192570925E-01 -0.70315793724E-02 -0.18568785622E-01  0.25001142359E-01  0.00000000000E+00 0. -1.
     999901    1    3    3    0    0 -0.11169864835E+00 -0.18792662792E-01  0.57007017673E-02  0.88727800053E+00  0.88000000000E+00 0. -1.
        -11    1    4    4    0    0  0.56267065787E-01  0.21574809542E-01  0.63636516990E-02  0.60598781201E-01  0.51100000000E-03 0.  1.
         11    1    4    4    0    0  0.70624153485E-01  0.42494326221E-02  0.65044321554E-02  0.71052075914E-01  0.51100000000E-03 0. -1.
</event>
<event>
 8    1  0.1083484E+005  0.1043930E+01  0.7957747E-01            NaN
         13   -1    0    0    0    0  0.00000000000E+00  0.00000000000E+00  0.74505805969E-08  0.10566000000E+00  0.10566000000E+00 0. -1.
     999900   -1    0    0    0    0 -0.00000000000E+00 -0.00000000000E+00 -0.74505805969E-08  0.93827000000E+00  0.93827000000E+00 0.  1.
     999902    2    1    2    0    0  0.55104327634E-02 -0.20973326942E-01  0.94415213617E-02  0.10202786229E+01  0.10200044513E+01 0.  0.
     999903    2    3    3    0    0 -0.11064247509E+00 -0.28816295265E-01  0.61440025049E-01  0.13108974841E+00  0.18371426025E-01 0.  0.
         14    1    1    2    0    0 -0.55104327634E-02  0.20973326942E-01 -0.94415213617E-02  0.23651377082E-01  0.00000000000E+00 0. -1.
     999901    1    3    3    0    0  0.11615290786E+00  0.78429683233E-02 -0.51998503687E-01  0.88918887450E+00  0.88000000000E+00 0.  1.
        -11    1    4    4    0    0 -0.34149959114E-01 -0.17474935203E-01  0.23018473914E-01  0.44740410483E-01  0.51100000000E-03 0.  1.
         11    1    4    4    0    0 -0.76492515978E-01 -0.11341360062E-01  0.38421551135E-01  0.86349337932E-01  0.51100000000E-03 0. -1.
</event>
<event>
 8    1  0.1083484E+005  0.1043930E+01  0.7957747E-01            NaN
         13   -1    0    0    0    0  0.00000000000E+00  0.00000000000E+00  0.74505805969E-08  0.10566000000E+00  0.10566000000E+00 0. -1.
     999900   -1    0    0    0    0 -0.00000000000E+00 -0.00000000000E+00 -0.74505805969E-08  0.93827000000E+00  0.93827000000E+00 0.  1.
     999902    2    1    2    0    0  0.12209349751E-01  0.19438345117E-01 -0.69289298374E-02  0.10199523531E+01  0.10196704738E+01 0.  0.
     999903    2    3    3    0    0  0.10561720398E+00  0.77222838493E-01 -0.13166397332E-01  0.13310232017E+00  0.20603714570E-01 0.  0.
         14    1    1    2    0    0 -0.12209349751E-01 -0.19438345117E-01  0.69289298374E-02  0.23977646901E-01  0.00000000000E+00 0. -1.
     999901    1    3    3    0    0 -0.93407854229E-01 -0.57784493376E-01  0.62374674949E-02  0.88685003293E+00  0.88000000000E+00 0.  1.
        -11    1    4    4    0    0  0.88791111768E-01  0.72152681758E-01 -0.76124095253E-02  0.11466508149E+00  0.51100000000E-03 0. -1.
         11    1    4    4    0    0  0.16826092213E-01  0.50701567355E-02 -0.55539878070E-02  0.18437238677E-01  0.51100000000E-03 0.  1.
</event>
<event>
 8    1  0.1083484E+005  0.1043930E+01  0.7957747E-01            NaN
         13   -1    0    0    0    0  0.00000000000E+00  0.00000000000E+00  0.74505805969E-08  0.10566000000E+00  0.10566000000E+00 0.  1.
     999900   -1    0    0    0    0 -0.00000000000E+00 -0.00000000000E+00 -0.74505805969E-08  0.93827000000E+00  0.93827000000E+00 0. -1.
     999902    2    1    2    0    0  0.16854618662E-01  0.14076268230E-01 -0.87413906035E-02  0.10202946154E+01  0.10200208188E+01 0.  0.
     999903    2    3    3    0    0  0.19641358051E-01 -0.12073393545E+00  0.35530175357E-01  0.12892402549E+00  0.19913434482E-01 0.  0.
         14    1    1    2    0    0 -0.16854618662E-01 -0.14076268230E-01  0.87413906035E-02  0.23635384643E-01  0.00000000000E+00 0.  1.
     999901    1    3    3    0    0 -0.27867393888E-02  0.13481020368E+00 -0.44271565960E-01  0.89137058987E+00  0.88000000000E+00 0.  1.
        -11    1    4    4    0    0  0.77345865131E-02 -0.82288850455E-01  0.16005915742E-01  0.84188652427E-01  0.51100000000E-03 0.  1.
         11    1    4    4    0    0  0.11906771538E-01 -0.38445084990E-01  0.19524259615E-01  0.44735373060E-01  0.51100000000E-03 0. -1.
</event>
<event>
 8    1  0.1083484E+005  0.1043930E+01  0.7957747E-01            NaN
         13   -1    0    0    0    0  0.00000000000E+00  0.00000000000E+00  0.74505805969E-08  0.10566000000E+00  0.10566000000E+00 0. -1.
     999900   -1    0    0    0    0 -0.00000000000E+00 -0.00000000000E+00 -0.74505805969E-08  0.93827000000E+00  0.93827000000E+00 0. -1.
     999902    2    1    2    0    0 -0.36452716458E-02  0.16928776776E-01 -0.20953126289E-01  0.10167471931E+01  0.10163837611E+01 0.  0.
     999903    2    3    3    0    0  0.42177241818E-01  0.40071237365E-01  0.10954536483E+00  0.12564387004E+00  0.20039244789E-01 0.  0.
         14    1    1    2    0    0  0.36452716458E-02 -0.16928776776E-01  0.20953126289E-01  0.27182806878E-01  0.00000000000E+00 0. -1.
     999901    1    3    3    0    0 -0.45822513464E-01 -0.23142460589E-01 -0.13049849112E+00  0.89110332308E+00  0.88000000000E+00 0. -1.
        -11    1    4    4    0    0  0.17330179389E-01  0.25003466752E-01  0.39898770033E-01  0.50176502852E-01  0.51100000000E-03 0.  1.
         11    1    4    4    0    0  0.24847062429E-01  0.15067770612E-01  0.69646594797E-01  0.75467367189E-01  0.51100000000E-03 0. -1.
</event>
<event>
 8    1  0.1083484E+005  0.1043930E+01  0.7957747E-01            NaN
         13   -1    0    0    0    0  0.00000000000E+00  0.00000000000E+00  0.74505805969E-08  0.10566000000E+00  0.10566000000E+00 0.  1.
     999900   -1    0    0    0    0 -0.00000000000E+00 -0.00000000000E+00 -0.74505805969E-08  0.93827000000E+00  0.93827000000E+00 0.  1.
     999902    2    1    2    0    0  0.23409156583E-01  0.11428796268E-01 -0.37009642437E-02  0.10176183461E+01  0.10172781307E+01 0.  0.
     999903    2    3    3    0    0  0.72704386371E-02 -0.60484405023E-01 -0.11085822027E+00  0.12805966658E+00  0.19962732130E-01 0.  0.
         14    1    1    2    0    0 -0.23409156583E-01 -0.11428796268E-01  0.37009642437E-02  0.26311653928E-01  0.00000000000E+00 0.  1.
     999901    1    3    3    0    0  0.16138717946E-01  0.71913201292E-01  0.10715725603E+00  0.88955867949E+00  0.88000000000E+00 0. -1.
        -11    1    4    4    0    0  0.41805920066E-02 -0.60228753230E-01 -0.10836189428E+00  0.12404652885E+00  0.51100000000E-03 0. -1.
         11    1    4    4    0    0  0.30898466304E-02 -0.25565179356E-03 -0.24963259884E-02  0.40131377349E-02  0.51100000000E-03 0.  1.
</event>
<event>
 8    1  0.1083484E+005  0.1043930E+01  0.7957747E-01            NaN
         13   -1    0    0    0    0  0.00000000000E+00  0.00000000000E+00  0.74505805969E-08  0.10566000000E+00  0.10566000000E+00 0.  1.
     999900   -1    0    0    0    0 -0.00000000000E+00 -0.00000000000E+00 -0.74505805969E-08  0.93827000000E+00  0.93827000000E+00 0.  1.
     999902    2    1    2    0    0  0.16174956416E-01 -0.40068922966E-02  0.17607329834E-01  0.10196874245E+01  0.10193992061E+01 0.  0.
     999903    2    3    3    0    0 -0.14273769015E-01 -0.67822559918E-01 -0.10614025881E+00  0.12822063884E+00  0.19264931084E-01 0.  0.
         14    1    1    2    0    0 -0.16174956416E-01  0.40068922966E-02 -0.17607329834E-01  0.24242575458E-01  0.00000000000E+00 0. -1.
     999901    1    3    3    0    0  0.30448725431E-01  0.63815667621E-01  0.12374758864E+00  0.89146678570E+00  0.88000000000E+00 0. -1.
        -11    1    4    4    0    0  0.21649255954E-02 -0.34119951528E-01 -0.45387236811E-01  0.56825349814E-01  0.51100000000E-03 0.  1.
         11    1    4    4    0    0 -0.16438694610E-01 -0.33702608389E-01 -0.60753021995E-01  0.71395289027E-01  0.51100000000E-03 0. -1.
</event>
<event>
 8    1  0.1083484E+005  0.1043930E+01  0.7957747E-01            NaN
         13   -1    0    0    0    0  0.00000000000E+00  0.00000000000E+00  0.74505805969E-08  0.10566000000E+00  0.10566000000E+00 0. -1.
     999900   -1    0    0    0    0 -0.00000000000E+00 -0.00000000000E+00 -0.74505805969E-08  0.93827000000E+00  0.93827000000E+00 0.  1.
     999902    2    1    2    0    0 -0.97916780254E-02  0.97428437270E-02 -0.18869097840E-01  0.10205453295E+01  0.10202773773E+01 0.  0.
     999903    2    3    3    0    0  0.39901661737E-02  0.10706924012E+00  0.71300226983E-01  0.13049315471E+00  0.21563799557E-01 0.  0.
         14    1    1    2    0    0  0.97916780254E-02 -0.97428437270E-02  0.18869097840E-01  0.23384670529E-01  0.00000000000E+00 0. -1.
     999901    1    3    3    0    0 -0.13781844199E-01 -0.97326396394E-01 -0.90169324823E-01  0.89005217476E+00  0.88000000000E+00 0.  1.
        -11    1    4    4    0    0  0.11606215020E-01  0.84071619144E-01  0.52194640162E-01  0.99635751391E-01  0.51100000000E-03 0. -1.
         11    1    4    4    0    0 -0.76160488462E-02  0.22997620977E-01  0.19105586821E-01  0.30857403316E-01  0.51100000000E-03 0.  1.
</event>
<event>
 7    1  0.1083484E+005  0.1043930E+01  0.7957747E-01            NaN
         13   -1    0    0    0    0  0.00000000000E+00  0.00000000000E+00  0.74505805969E-08  0.10566000000E+00  0.10566000000E+00 0.  1.
     999900   -1    0    0    0    0 -0.00000000000E+00 -0.00000000000E+00 -0.74505805969E-08  0.93827000000E+00  0.93827000000E+00 0. -1.
     999903    2    1    2    0    0 -0.90656084587E-01  0.33501447275E-01  0.39349230503E-01  0.10679289954E+00  0.22704378614E-01 0.  0.
         14    1    1    2    0    0 -0.52988642499E-02 -0.26472376338E-02 -0.50964342579E-01  0.51307407301E-01  0.00000000000E+00 0. -1.
     999901    1    1    2    0    0  0.95954948837E-01 -0.30854209641E-01  0.11615112076E-01  0.88582969316E+00  0.88000000000E+00 0.  1.
        -11    1    3    3    0    0 -0.10802315100E-01  0.12098856588E-01  0.30986408900E-02  0.16520745704E-01  0.51100000000E-03 0. -1.
         11    1    3    3    0    0 -0.79853769487E-01  0.21402590687E-01  0.36250589613E-01  0.90272153833E-01  0.51100000000E-03 0.  1.
</event>
<event>
 8    1  0.1083484E+005  0.1043930E+01  0.7957747E-01            NaN
         13   -1    0    0    0    0  0.00000000000E+00  0.00000000000E+00  0.74505805969E-08  0.10566000000E+00  0.10566000000E+00 0. -1.
     999900   -1    0    0    0    0 -0.00000000000E+00 -0.00000000000E+00 -0.74505805969E-08  0.93827000000E+00  0.93827000000E+00 0. -1.
     999902    2    1    2    0    0 -0.29184218549E-02 -0.14999692992E-01  0.18245860211E-01  0.10201304330E+01  0.10198527741E+01 0.  0.
     999903    2    3    3    0    0 -0.63060171846E-01 -0.11196167393E+00 -0.21656544839E-01  0.13186760150E+00  0.20200413062E-01 0.  0.
         14    1    1    2    0    0  0.29184218549E-02  0.14999692992E-01 -0.18245860211E-01  0.23799567030E-01  0.00000000000E+00 0.  1.
     999901    1    3    3    0    0  0.60141749991E-01  0.96961980943E-01  0.39902405050E-01  0.88826283147E+00  0.88000000000E+00 0.  1.
        -11    1    4    4    0    0 -0.13409932542E-01 -0.41196633845E-01 -0.11489089929E-01  0.44824649908E-01  0.51100000000E-03 0.  1.
         11    1    4    4    0    0 -0.49650239303E-01 -0.70765040090E-01 -0.10167454910E-01  0.87042951593E-01  0.51100000000E-03 0. -1.
</event>
<event>
 8    1  0.1083484E+005  0.1043930E+01  0.7957747E-01            NaN
         13   -1    0    0    0    0  0.00000000000E+00  0.00000000000E+00  0.74505805969E-08  0.10566000000E+00  0.10566000000E+00 0.  1.
     999900   -1    0    0    0    0 -0.00000000000E+00 -0.00000000000E+00 -0.74505805969E-08  0.93827000000E+00  0.93827000000E+00 0. -1.
     999902    2    1    2    0    0  0.22049201709E-01  0.10846215418E-01  0.81526987986E-02  0.10180403460E+01  0.10177110945E+01 0.  0.
     999903    2    3    3    0    0  0.11144599410E+00  0.81734037465E-02 -0.64247790651E-01  0.13054907211E+00  0.20694624791E-01 0.  0.
         14    1    1    2    0    0 -0.22049201709E-01 -0.10846215418E-01 -0.81526987986E-02  0.25889653968E-01  0.00000000000E+00 0.  1.
     999901    1    3    3    0    0 -0.89396792394E-01  0.26728116711E-02  0.72400489449E-01  0.88749127392E+00  0.88000000000E+00 0. -1.
        -11    1    4    4    0    0  0.71660260867E-01  0.14298820256E-01 -0.46009487246E-01  0.86352668088E-01  0.51100000000E-03 0.  1.
         11    1    4    4    0    0  0.39785733236E-01 -0.61254165093E-02 -0.18238303404E-01  0.44196404024E-01  0.51100000000E-03 0. -1.
</event>
<event>
 8    1  0.1083484E+005  0.1043930E+01  0.7957747E-01            NaN
         13   -1    0    0    0    0  0.00000000000E+00  0.00000000000E+00  0.74505805969E-08  0.10566000000E+00  0.10566000000E+00 0.  1.
     999900   -1    0    0    0    0 -0.00000000000E+00 -0.00000000000E+00 -0.74505805969E-08  0.93827000000E+00  0.93827000000E+00 0.  1.
     999902    2    1    2    0    0  0.10164765037E-01 -0.22168879912E-01  0.65879778701E-03  0.10195329572E+01  0.10192410093E+01 0.  0.
     999903    2    3    3    0    0  0.83924949470E-01  0.68467119004E-01 -0.67500277587E-01  0.12919531971E+00  0.20099742090E-01 0.  0.
         14    1    1    2    0    0 -0.10164765037E-01  0.22168879912E-01 -0.65879778701E-03  0.24397042840E-01  0.00000000000E+00 0. -1.
     999901    1    3    3    0    0 -0.73760184433E-01 -0.90635998916E-01  0.68159075374E-01  0.89033763745E+00  0.88000000000E+00 0. -1.
        -11    1    4    4    0    0  0.69899924332E-01  0.51468383892E-01 -0.61391104318E-01  0.10632084825E+00  0.51100000000E-03 0.  1.
         11    1    4    4    0    0  0.14025025138E-01  0.16998735112E-01 -0.61091732696E-02  0.22874471460E-01  0.51100000000E-03 0. -1.
</event>
<event>
 8    1  0.1083484E+005  0.1043930E+01  0.7957747E-01            NaN
         13   -1    0    0    0    0  0.00000000000E+00  0.00000000000E+00  0.74505805969E-08  0.10566000000E+00  0.10566000000E+00 0. -1.
     999900   -1    0    0    0    0 -0.00000000000E+00 -0.00000000000E+00 -0.74505805969E-08  0.93827000000E+00  0.93827000000E+00 0.  1.
     999902    2    1    2    0    0 -0.21711595564E-01  0.65018394779E-02 -0.57512522374E-02  0.10205474381E+01  0.10202795348E+01 0.  0.
     999903    2    3    3    0    0  0.39724153741E-02 -0.46520342112E-01 -0.12079640349E+00  0.13110581158E+00  0.20421567526E-01 0.  0.
         14    1    1    2    0    0  0.21711595564E-01 -0.65018394779E-02  0.57512522374E-02  0.23382561896E-01  0.00000000000E+00 0. -1.
     999901    1    3    3    0    0 -0.25684010938E-01  0.53022181590E-01  0.11504515126E+00  0.88944162652E+00  0.88000000000E+00 0. -1.
        -11    1    4    4    0    0 -0.52265967462E-02 -0.68837921097E-02 -0.36338401065E-01  0.37355647770E-01  0.51100000000E-03 0. -1.
         11    1    4    4    0    0  0.91990121203E-02 -0.39636550003E-01 -0.84458002428E-01  0.93750163814E-01  0.51100000000E-03 0.  1.
</event>
<event>
 8    1  0.1083484E+005  0.1043930E+01  0.7957747E-01            NaN
         13   -1    0    0    0    0  0.00000000000E+00  0.00000000000E+00  0.74505805969E-08  0.10566000000E+00  0.10566000000E+00 0. -1.
     999900   -1    0    0    0    0 -0.00000000000E+00 -0.00000000000E+00 -0.74505805969E-08  0.93827000000E+00  0.93827000000E+00 0. -1.
     999902    2    1    2    0    0  0.49651828980E-02 -0.13485030148E-01 -0.22331821379E-01  0.10173742224E+01  0.10170275803E+01 0.  0.
     999903    2    3    3    0    0  0.57118429863E-01  0.79390248367E-01 -0.81685222470E-01  0.12896631789E+00  0.19862250975E-01 0.  0.
         14    1    1    2    0    0 -0.49651828980E-02  0.13485030148E-01  0.22331821379E-01  0.26555777628E-01  0.00000000000E+00 0.  1.
     999901    1    3    3    0    0 -0.52153246965E-01 -0.92875278515E-01  0.59353401091E-01  0.88840790448E+00  0.88000000000E+00 0.  1.
        -11    1    4    4    0    0  0.21266751896E-01  0.19566224776E-01 -0.33226497453E-01  0.44038314479E-01  0.51100000000E-03 0. -1.
         11    1    4    4    0    0  0.35851677967E-01  0.59824023591E-01 -0.48458725017E-01  0.84928003409E-01  0.51100000000E-03 0.  1.
</event>
<event>
 8    1  0.1083484E+005  0.1043930E+01  0.7957747E-01            NaN
         13   -1    0    0    0    0  0.00000000000E+00  0.00000000000E+00  0.74505805969E-08  0.10566000000E+00  0.10566000000E+00 0. -1.
     999900   -1    0    0    0    0 -0.00000000000E+00 -0.00000000000E+00 -0.74505805969E-08  0.93827000000E+00  0.93827000000E+00 0.  1.
     999902    2    1    2    0    0  0.14263310433E-01 -0.18120321377E-01 -0.11056926929E-01  0.10183557218E+01  0.10180345438E+01 0.  0.
     999903    2    3    3    0    0  0.57197809769E-01  0.32060804384E-01 -0.11078666800E+00  0.13026364446E+00  0.19885840229E-01 0.  0.
         14    1    1    2    0    0 -0.14263310433E-01  0.18120321377E-01  0.11056926929E-01  0.25574278180E-01  0.00000000000E+00 0.  1.
     999901    1    3    3    0    0 -0.42934499335E-01 -0.50181125761E-01  0.99729741069E-01  0.88809207736E+00  0.88000000000E+00 0. -1.
        -11    1    4    4    0    0  0.30689371619E-01  0.84391662037E-02 -0.40467797210E-01  0.51487481863E-01  0.51100000000E-03 0.  1.
         11    1    4    4    0    0  0.26508438150E-01  0.23621638181E-01 -0.70318870788E-01  0.78776162597E-01  0.51100000000E-03 0. -1.
</event>
<event>
 8    1  0.1083484E+005  0.1043930E+01  0.7957747E-01            NaN
         13   -1    0    0    0    0  0.00000000000E+00  0.00000000000E+00  0.74505805969E-08  0.10566000000E+00  0.10566000000E+00 0. -1.
     999900   -1    0    0    0    0 -0.00000000000E+00 -0.00000000000E+00 -0.74505805969E-08  0.93827000000E+00  0.93827000000E+00 0. -1.
     999902    2    1    2    0    0 -0.16959551221E-02 -0.20800816028E-01  0.13444960273E-01  0.10191042640E+01  0.10188018373E+01 0.  0.
     999903    2    3    3    0    0 -0.61414286746E-01 -0.78713615528E-01 -0.81761008184E-01  0.13006863597E+00  0.16292320818E-01 0.  0.
         14    1    1    2    0    0  0.16959551221E-02  0.20800816028E-01 -0.13444960273E-01  0.24825736000E-01  0.00000000000E+00 0.  1.
     999901    1    3    3    0    0  0.59718331623E-01  0.57912799500E-01  0.95205968457E-01  0.88903562803E+00  0.88000000000E+00 0.  1.
        -11    1    4    4    0    0 -0.27411458253E-01 -0.45548075946E-01 -0.49565406112E-01  0.72684289018E-01  0.51100000000E-03 0. -1.
         11    1    4    4    0    0 -0.34002828493E-01 -0.33165539582E-01 -0.32195602072E-01  0.57384346952E-01  0.51100000000E-03 0.  1.
</event>
<event>
 8    1  0.1083484E+005  0.1043930E+01  0.7957747E-01            NaN
         13   -1    0    0    0    0  0.00000000000E+00  0.00000000000E+00  0.74505805969E-08  0.10566000000E+00  0.10566000000E+00 0. -1.
     999900   -1    0    0    0    0 -0.00000000000E+00 -0.00000000000E+00 -0.74505805969E-08  0.93827000000E+00  0.93827000000E+00 0. -1.
     999902    2    1    2    0    0 -0.21794824461E-01 -0.40054902675E-02 -0.55935996911E-02  0.10210750950E+01  0.10208192802E+01 0.  0.
     999903    2    3    3    0    0  0.50876726824E-01  0.74677430056E-01 -0.91611189756E-01  0.13041737054E+00  0.21234890117E-01 0.  0.
         14    1    1    2    0    0  0.21794824461E-01  0.40054902675E-02  0.55935996911E-02  0.22854905012E-01  0.00000000000E+00 0. -1.
     999901    1    3    3    0    0 -0.72671551285E-01 -0.78682920323E-01  0.86017590065E-01  0.89065772445E+00  0.88000000000E+00 0. -1.
        -11    1    4    4    0    0  0.28227631645E-01  0.39771189550E-01 -0.34448287229E-01  0.59711743573E-01  0.51100000000E-03 0. -1.
         11    1    4    4    0    0  0.22649095178E-01  0.34906240506E-01 -0.57162902527E-01  0.70705626968E-01  0.51100000000E-03 0.  1.
</event>
<event>
 8    1  0.1083484E+005  0.1043930E+01  0.7957747E-01            NaN
         13   -1    0    0    0    0  0.00000000000E+00  0.00000000000E+00  0.74505805969E-08  0.10566000000E+00  0.10566000000E+00 0. -1.
     999900   -1    0    0    0    0 -0.00000000000E+00 -0.00000000000E+00 -0.74505805969E-08  0.93827000000E+00  0.93827000000E+00 0.  1.
     999902    2    1    2    0    0 -0.88680336684E-02 -0.13747038493E-01  0.17515458298E-01  0.10199630568E+01  0.10196814320E+01 0.  0.
     999903    2    3    3    0    0  0.37582876558E-01 -0.12475048701E+00 -0.12334438523E-01  0.13127274570E+00  0.10258595014E-01 0.  0.
         14    1    1    2    0    0  0.88680336684E-02  0.13747038493E-01 -0.17515458298E-01  0.23966943231E-01  0.00000000000E+00 0. -1.
     999901    1    3    3    0    0 -0.46450910227E-01  0.11100344851E+00  0.29849896821E-01  0.88869031107E+00  0.88000000000E+00 0. -1.
        -11    1    4    4    0    0  0.15255195460E-01 -0.60816369413E-01 -0.10119241494E-01  0.63513872079E-01  0.51100000000E-03 0.  1.
         11    1    4    4    0    0  0.22327681099E-01 -0.63934117594E-01 -0.22151970283E-02  0.67758873623E-01  0.51100000000E-03 0. -1.
</event>
<event>
 8    1  0.1083484E+005  0.1043930E+01  0.7957747E-01            NaN
         13   -1    0    0    0    0  0.00000000000E+00  0.00000000000E+00  0.74505805969E-08  0.10566000000E+00  0.10566000000E+00 0.  1.
     999900   -1    0    0    0    0 -0.00000000000E+00 -0.00000000000E+00 -0.74505805969E-08  0.93827000000E+00  0.93827000000E+00 0.  1.
     999902    2    1    2    0    0 -0.21688832708E-01 -0.67641704278E-02  0.62944761035E-02  0.10203550155E+01  0.10200826328E+01 0.  0.
     999903    2    3    3    0    0  0.72163384154E-01 -0.26307737961E-01 -0.10129489253E+00  0.12863439674E+00  0.19659646056E-01 0.  0.
         14    1    1    2    0    0  0.21688832708E-01  0.67641704278E-02 -0.62944761035E-02  0.23574984522E-01  0.00000000000E+00 0.  1.
     999901    1    3    3    0    0 -0.93852216862E-01  0.19543567533E-01  0.10758936863E+00  0.89172061874E+00  0.88000000000E+00 0. -1.
        -11    1    4    4    0    0  0.42653899313E-02  0.50051013270E-03 -0.14963785581E-01  0.15576265970E-01  0.51100000000E-03 0.  1.
         11    1    4    4    0    0  0.67897994223E-01 -0.26808248093E-01 -0.86331106946E-01  0.11305813077E+00  0.51100000000E-03 0. -1.
</event>
<event>
 8    1  0.1083484E+005  0.1043930E+01  0.7957747E-01            NaN
         13   -1    0    0    0    0  0.00000000000E+00  0.00000000000E+00  0.74505805969E-08  0.10566000000E+00  0.10566000000E+00 0.  1.
     999900   -1    0    0    0    0 -0.00000000000E+00 -0.00000000000E+00 -0.74505805969E-08  0.93827000000E+00  0.93827000000E+00 0.  1.
     999902    2    1    2    0    0  0.23256044737E-01 -0.34024645093E-03  0.35879607324E-02  0.10203963465E+01  0.10201249292E+01 0.  0.
     999903    2    3    3    0    0  0.58663647454E-02  0.62741423179E-01  0.11330493713E+00  0.13117223925E+00  0.19931060046E-01 0.  0.
         14    1    1    2    0    0 -0.23256044737E-01  0.34024645093E-03 -0.35879607324E-02  0.23533653492E-01  0.00000000000E+00 0. -1.
     999901    1    3    3    0    0  0.17389679992E-01 -0.63081669630E-01 -0.10971697640E+00  0.88922410726E+00  0.88000000000E+00 0.  1.
        -11    1    4    4    0    0 -0.17031265860E-02  0.69497670689E-02  0.28416880063E-01  0.29308362220E-01  0.51100000000E-03 0. -1.
         11    1    4    4    0    0  0.75694913314E-02  0.55791656110E-01  0.84888057067E-01  0.10186387703E+00  0.51100000000E-03 0.  1.
</event>
<event>
 8    1  0.1083484E+005  0.1043930E+01  0.7957747E-01            NaN
         13   -1    0    0    0    0  0.00000000000E+00  0.00000000000E+00  0.74505805969E-08  0.10566000000E+00  0.10566000000E+00 0.  1.
     999900   -1    0    0    0    0 -0.00000000000E+00 -0.00000000000E+00 -0.74505805969E-08  0.93827000000E+00  0.93827000000E+00 0. -1.
     999902    2    1    2    0    0  0.35468478219E-02  0.14245507052E-01 -0.17832664459E-01  0.10208319801E+01  0.10205706311E+01 0.  0.
     999903    2    3    3    0    0 -0.10286664466E+00 -0.24050850104E-01 -0.76003507272E-01  0.13168953410E+00  0.20139769134E-01 0.  0.
         14    1    1    2    0    0 -0.35468478219E-02 -0.14245507052E-01  0.17832664459E-01  0.23098019879E-01  0.00000000000E+00 0. -1.
     999901    1    3    3    0    0  0.10641349248E+00  0.38296357157E-01  0.58170842813E-01  0.88914244602E+00  0.88000000000E+00 0.  1.
        -11    1    4    4    0    0 -0.23278469083E-01 -0.39934100062E-02 -0.27883138162E-01  0.36545382213E-01  0.51100000000E-03 0.  1.
         11    1    4    4    0    0 -0.79588175577E-01 -0.20057440098E-01 -0.48120369110E-01  0.95144151892E-01  0.51100000000E-03 0. -1.
</event>
<event>
 8    1  0.1083484E+005  0.1043930E+01  0.7957747E-01            NaN
         13   -1    0    0    0    0  0.00000000000E+00  0.00000000000E+00  0.74505805969E-08  0.10566000000E+00  0.10566000000E+00 0. -1.
     999900   -1    0    0    0    0 -0.00000000000E+00 -0.00000000000E+00 -0.74505805969E-08  0.93827000000E+00  0.93827000000E+00 0.  1.
     999902    2    1    2    0    0 -0.16094555708E-01  0.99942538738E-02 -0.12700146361E-01  0.10211218096E+01  0.10208670513E+01 0.  0.
     999903    2    3    3    0    0  0.73159649711E-01 -0.98510389253E-01  0.33535241039E-01  0.12877810794E+00  0.20063837009E-01 0.  0.
         14    1    1    2    0    0  0.16094555708E-01 -0.99942538738E-02  0.12700146361E-01  0.22808190448E-01  0.00000000000E+00 0.  1.
     999901    1    3    3    0    0 -0.89254205418E-01  0.10850464313E+00 -0.46235387400E-01  0.89234370162E+00  0.88000000000E+00 0.  1.
        -11    1    4    4    0    0  0.52836063335E-01 -0.84008118093E-01  0.29032712916E-01  0.10340296434E+00  0.51100000000E-03 0.  1.
         11    1    4    4    0    0  0.20323586376E-01 -0.14502271160E-01  0.45025281227E-02  0.25375143595E-01  0.51100000000E-03 0. -1.
</event>
<event>
 8    1  0.1083484E+005  0.1043930E+01  0.7957747E-01            NaN
         13   -1    0    0    0    0  0.00000000000E+00  0.00000000000E+00  0.74505805969E-08  0.10566000000E+00  0.10566000000E+00 0.  1.
     999900   -1    0    0    0    0 -0.00000000000E+00 -0.00000000000E+00 -0.74505805969E-08  0.93827000000E+00  0.93827000000E+00 0.  1.
     999902    2    1    2    0    0  0.74982632099E-02  0.20281971568E-01  0.90456358775E-02  0.10204905919E+01  0.10202213693E+01 0.  0.
     999903    2    3    3    0    0 -0.58963013070E-01 -0.88183668295E-01  0.71339073472E-01  0.12916440662E+00  0.18471173979E-01 0.  0.
         14    1    1    2    0    0 -0.74982632099E-02 -0.20281971568E-01 -0.90456358775E-02  0.23439408061E-01  0.00000000000E+00 0. -1.
     999901    1    3    3    0    0  0.66461276280E-01  0.10846563986E+00 -0.62293437594E-01  0.89132618532E+00  0.88000000000E+00 0.  1.
        -11    1    4    4    0    0 -0.35902981766E-01 -0.61141775181E-01  0.38064497189E-01  0.80476753409E-01  0.51100000000E-03 0.  1.
         11    1    4    4    0    0 -0.23060031304E-01 -0.27041893114E-01  0.33274576283E-01  0.48687653207E-01  0.51100000000E-03 0. -1.
</event>
<event>
 8    1  0.1083484E+005  0.1043930E+01  0.7957747E-01            NaN
         13   -1    0    0    0    0  0.00000000000E+00  0.00000000000E+00  0.74505805969E-08  0.10566000000E+00  0.10566000000E+00 0. -1.
     999900   -1    0    0    0    0 -0.00000000000E+00 -0.00000000000E+00 -0.74505805969E-08  0.93827000000E+00  0.93827000000E+00 0.  1.
     999902    2    1    2    0    0 -0.84226258278E-02  0.13445995281E-01 -0.13497810511E-01  0.10230991022E+01  0.10228870156E+01 0.  0.
     999903    2    3    3    0    0 -0.74220686267E-01 -0.96864536058E-01  0.45863313016E-01  0.13179581988E+00  0.19371268417E-01 0.  0.
         14    1    1    2    0    0  0.84226258278E-02 -0.13445995281E-01  0.13497810511E-01  0.20830897808E-01  0.00000000000E+00 0. -1.
     999901    1    3    3    0    0  0.65798060439E-01  0.11031053134E+00 -0.59361123526E-01  0.89130328232E+00  0.88000000000E+00 0. -1.
        -11    1    4    4    0    0 -0.43741320213E-01 -0.71876089017E-01  0.31039436270E-01  0.89683794474E-01  0.51100000000E-03 0. -1.
         11    1    4    4    0    0 -0.30479366054E-01 -0.24988447041E-01  0.14823876745E-01  0.42112025401E-01  0.51100000000E-03 0.  1.
</event>
<event>
 8    1  0.1083484E+005  0.1043930E+01  0.7957747E-01            NaN
         13   -1    0    0    0    0  0.00000000000E+00  0.00000000000E+00  0.74505805969E-08  0.10566000000E+00  0.10566000000E+00 0. -1.
     999900   -1    0    0    0    0 -0.00000000000E+00 -0.00000000000E+00 -0.74505805969E-08  0.93827000000E+00  0.93827000000E+00 0.  1.
     999902    2    1    2    0    0 -0.14013804541E-01 -0.11271054150E-01 -0.18080489483E-01  0.10184284808E+01  0.10181091509E+01 0.  0.
     999903    2    3    3    0    0  0.23606866166E-01  0.10793479411E+00 -0.62654118838E-01  0.12847783190E+00  0.19334186591E-01 0.  0.
         14    1    1    2    0    0  0.14013804541E-01  0.11271054150E-01  0.18080489483E-01  0.25501519157E-01  0.00000000000E+00 0. -1.
     999901    1    3    3    0    0 -0.37620670707E-01 -0.11920584826E+00  0.44573629354E-01  0.88995064895E+00  0.88000000000E+00 0. -1.
        -11    1    4    4    0    0  0.49213503516E-02  0.65334286664E-02 -0.92512814126E-02  0.12359316656E-01  0.51100000000E-03 0.  1.
         11    1    4    4    0    0  0.18685515814E-01  0.10140136545E+00 -0.53402837425E-01  0.11611851524E+00  0.51100000000E-03 0. -1.
</event>
<event>
 8    1  0.1083484E+005  0.1043930E+01  0.7957747E-01            NaN
         13   -1    0    0    0    0  0.00000000000E+00  0.00000000000E+00  0.74505805969E-08  0.10566000000E+00  0.10566000000E+00 0.  1.
     999900   -1    0    0    0    0 -0.00000000000E+00 -0.00000000000E+00 -0.74505805969E-08  0.93827000000E+00  0.93827000000E+00 0. -1.
     999902    2    1    2    0    0  0.18002787506E-01 -0.69826728324E-02  0.82243836240E-02  0.10229419424E+01  0.10227266100E+01 0.  0.
     999903    2    3    3    0    0  0.94243815309E-03  0.42023246961E-01  0.12519682441E+00  0.13368653045E+00  0.20760590223E-01 0.  0.
         14    1    1    2    0    0 -0.18002787506E-01  0.69826728324E-02 -0.82243836240E-02  0.20988057649E-01  0.00000000000E+00 0. -1.
     999901    1    3    3    0    0  0.17060349353E-01 -0.49005919794E-01 -0.11697244079E+00  0.88925541190E+00  0.88000000000E+00 0. -1.
        -11    1    4    4    0    0  0.10201435231E-01  0.29676102531E-01  0.80821629547E-01  0.86701425973E-01  0.51100000000E-03 0. -1.
         11    1    4    4    0    0 -0.92589970782E-02  0.12347144430E-01  0.44375194862E-01  0.46985104475E-01  0.51100000000E-03 0.  1.
</event>
<event>
 8    1  0.1083484E+005  0.1043930E+01  0.7957747E-01            NaN
         13   -1    0    0    0    0  0.00000000000E+00  0.00000000000E+00  0.74505805969E-08  0.10566000000E+00  0.10566000000E+00 0. -1.
     999900   -1    0    0    0    0 -0.00000000000E+00 -0.00000000000E+00 -0.74505805969E-08  0.93827000000E+00  0.93827000000E+00 0. -1.
     999902    2    1    2    0    0 -0.17080755939E-01 -0.16592635676E-01 -0.79250983904E-03  0.10201036311E+01  0.10198253391E+01 0.  0.
     999903    2    3    3    0    0 -0.47176304160E-01 -0.96112014923E-01 -0.75973058792E-01  0.13281495846E+00  0.20119255472E-01 0.  0.
         14    1    1    2    0    0  0.17080755939E-01  0.16592635676E-01  0.79250983904E-03  0.23826368879E-01  0.00000000000E+00 0.  1.
     999901    1    3    3    0    0  0.30095548221E-01  0.79519379246E-01  0.75180548953E-01  0.88728867266E+00  0.88000000000E+00 0.  1.
        -11    1    4    4    0    0 -0.14677607095E-01 -0.19460096067E-01 -0.26312413236E-01  0.35871042642E-01  0.51100000000E-03 0. -1.
         11    1    4    4    0    0 -0.32498697065E-01 -0.76651918856E-01 -0.49660645556E-01  0.96943915814E-01  0.51100000000E-03 0.  1.
</event>
<event>
 8    1  0.1083484E+005  0.1043930E+01  0.7957747E-01            NaN
         13   -1    0    0    0    0  0.00000000000E+00  0.00000000000E+00  0.74505805969E-08  0.10566000000E+00  0.10566000000E+00 0. -1.
     999900   -1    0    0    0    0 -0.00000000000E+00 -0.00000000000E+00 -0.74505805969E-08  0.93827000000E+00  0.93827000000E+00 0. -1.
     999902    2    1    2    0    0  0.14202491111E-01  0.18293149908E-01  0.46864966871E-02  0.10203013450E+01  0.10200277061E+01 0.  0.
     999903    2    3    3    0    0 -0.35799534661E-01 -0.81642028556E-01  0.92776491974E-01  0.12887154418E+00  0.73054723585E-02 0.  0.
         14    1    1    2    0    0 -0.14202491111E-01 -0.18293149908E-01 -0.46864966871E-02  0.23628655030E-01  0.00000000000E+00 0. -1.
     999901    1    3    3    0    0  0.50002025773E-01  0.99935178463E-01 -0.88089995287E-01  0.89142980080E+00  0.88000000000E+00 0. -1.
        -11    1    4    4    0    0 -0.60811883948E-02 -0.18572167962E-01  0.23735334751E-01  0.30749528644E-01  0.51100000000E-03 0.  1.
         11    1    4    4    0    0 -0.29718346267E-01 -0.63069860593E-01  0.69041157224E-01  0.98122015531E-01  0.51100000000E-03 0. -1.
</event>
<event>
 8    1  0.1083484E+005  0.1043930E+01  0.7957747E-01            NaN
         13   -1    0    0    0    0  0.00000000000E+00  0.00000000000E+00  0.74505805969E-08  0.10566000000E+00  0.10566000000E+00 0.  1.
     999900   -1    0    0    0    0 -0.00000000000E+00 -0.00000000000E+00 -0.74505805969E-08  0.93827000000E+00  0.93827000000E+00 0.  1.
     999902    2    1    2    0    0  0.14173470760E-01 -0.82513954528E-02 -0.16349219833E-01  0.10207725004E+01  0.10205097881E+01 0.  0.
     999903    2    3    3    0    0  0.22550133677E-01 -0.12539502331E+00  0.27373575635E-01  0.13189428549E+00  0.20356067923E-01 0.  0.
         14    1    1    2    0    0 -0.14173470760E-01  0.82513954528E-02  0.16349219833E-01  0.23157499637E-01  0.00000000000E+00 0.  1.
     999901    1    3    3    0    0 -0.83766629173E-02  0.11714362786E+00 -0.43722795468E-01  0.88887821487E+00  0.88000000000E+00 0.  1.
        -11    1    4    4    0    0  0.15776912487E-01 -0.38156821908E-01  0.51413814595E-02  0.41611884721E-01  0.51100000000E-03 0. -1.
         11    1    4    4    0    0  0.67732211899E-02 -0.87238201406E-01  0.22232194176E-01  0.90282400770E-01  0.51100000000E-03 0.  1.
</event>
<event>
 8    1  0.1083484E+005  0.1043930E+01  0.7957747E-01            NaN
         13   -1    0    0    0    0  0.00000000000E+00  0.00000000000E+00  0.74505805969E-08  0.10566000000E+00  0.10566000000E+00 0.  1.
     999900   -1    0    0    0    0 -0.00000000000E+00 -0.00000000000E+00 -0.74505805969E-08  0.93827000000E+00  0.93827000000E+00 0. -1.
     999902    2    1    2    0    0  0.16654059663E-01 -0.15354368460E-02  0.17146726028E-01  0.10199774326E+01  0.10196961497E+01 0.  0.
     999903    2    3    3    0    0 -0.59741636536E-01 -0.10958215756E+00  0.29630457756E-01  0.12999639924E+00  0.21066262080E-01 0.  0.
         14    1    1    2    0    0 -0.16654059663E-01  0.15354368460E-02 -0.17146726028E-01  0.23952567357E-01  0.00000000000E+00 0.  1.
     999901    1    3    3    0    0  0.76395696199E-01  0.10804672071E+00 -0.12483731728E-01  0.88998103340E+00  0.88000000000E+00 0.  1.
        -11    1    4    4    0    0 -0.21923691635E-01 -0.59574645920E-01  0.20021099734E-01  0.66564947585E-01  0.51100000000E-03 0. -1.
         11    1    4    4    0    0 -0.37817944901E-01 -0.50007511638E-01  0.96093580216E-02  0.63431451658E-01  0.51100000000E-03 0.  1.
</event>
<event>
 8    1  0.1083484E+005  0.1043930E+01  0.7957747E-01            NaN
         13   -1    0    0    0    0  0.00000000000E+00  0.00000000000E+00  0.74505805969E-08  0.10566000000E+00  0.10566000000E+00 0. -1.
     999900   -1    0    0    0    0 -0.00000000000E+00 -0.00000000000E+00 -0.74505805969E-08  0.93827000000E+00  0.93827000000E+00 0.  1.
     999902    2    1    2    0    0 -0.12391444050E-01 -0.50002233708E-02 -0.19601666388E-01  0.10202071114E+01  0.10199312598E+01 0.  0.
     999903    2    3    3    0    0 -0.55092124315E-01 -0.59263084366E-01  0.99085187001E-01  0.12955882201E+00  0.20502652237E-01 0.  0.
         14    1    1    2    0    0  0.12391444050E-01  0.50002233708E-02  0.19601666388E-01  0.23722888622E-01  0.00000000000E+00 0. -1.
     999901    1    3    3    0    0  0.42700680266E-01  0.54262860995E-01 -0.11868685339E+00  0.89064828936E+00  0.88000000000E+00 0.  1.
        -11    1    4    4    0    0 -0.12761544605E-01 -0.27943667131E-01  0.39414247145E-01  0.49974489016E-01  0.51100000000E-03 0. -1.
         11    1    4    4    0    0 -0.42330579710E-01 -0.31319417236E-01  0.59670939855E-01  0.79584332999E-01  0.51100000000E-03 0.  1.
</event>
<event>
 8    1  0.1083484E+005  0.1043930E+01  0.7957747E-01            NaN
         13   -1    0    0    0    0  0.00000000000E+00  0.00000000000E+00  0.74505805969E-08  0.10566000000E+00  0.10566000000E+00 0.  1.
     999900   -1    0    0    0    0 -0.00000000000E+00 -0.00000000000E+00 -0.74505805969E-08  0.93827000000E+00  0.93827000000E+00 0. -1.
     999902    2    1    2    0    0 -0.14483645386E-01 -0.35452088308E-02 -0.17960582791E-01  0.10205863280E+01  0.10203193254E+01 0.  0.
     999903    2    3    3    0    0 -0.11745355385E+00 -0.55739824557E-01 -0.19936068196E-01  0.13304422616E+00  0.20026331300E-01 0.  0.
         14    1    1    2    0    0  0.14483645386E-01  0.35452088308E-02  0.17960582791E-01  0.23343672023E-01  0.00000000000E+00 0. -1.
     999901    1    3    3    0    0  0.10296990846E+00  0.52194615726E-01  0.19754854047E-02  0.88754210182E+00  0.88000000000E+00 0.  1.
        -11    1    4    4    0    0 -0.18827244322E-01 -0.14131399661E-01  0.24824309982E-02  0.23676679873E-01  0.51100000000E-03 0.  1.
         11    1    4    4    0    0 -0.98626309526E-01 -0.41608424896E-01 -0.22418499194E-01  0.10936754628E+00  0.51100000000E-03 0. -1.
</event>
<event>
 8    1  0.1083484E+005  0.1043930E+01  0.7957747E-01            NaN
         13   -1    0    0    0    0  0.00000000000E+00  0.00000000000E+00  0.74505805969E-08  0.10566000000E+00  0.10566000000E+00 0. -1.
     999900   -1    0    0    0    0 -0.00000000000E+00 -0.00000000000E+00 -0.74505805969E-08  0.93827000000E+00  0.93827000000E+00 0. -1.
     999902    2    1    2    0    0  0.10234368665E-01  0.12455627598E-01 -0.17063464062E-01  0.10204556147E+01  0.10201855786E+01 0.  0.
     999903    2    3    3    0    0  0.82299091449E-01  0.63542278600E-01 -0.81534043945E-01  0.13368640803E+00  0.20334545630E-01 0.  0.
         14    1    1    2    0    0 -0.10234368665E-01 -0.12455627598E-01  0.17063464062E-01  0.23474385330E-01  0.00000000000E+00 0. -1.
     999901    1    3    3    0    0 -0.72064722785E-01 -0.51086651002E-01  0.64470579883E-01  0.88676920664E+00  0.88000000000E+00 0.  1.
        -11    1    4    4    0    0  0.54671137211E-01  0.43923937048E-01 -0.42544711716E-01  0.82027794714E-01  0.51100000000E-03 0. -1.
         11    1    4    4    0    0  0.27627954239E-01  0.19618341551E-01 -0.38989332229E-01  0.51658613312E-01  0.51100000000E-03 0.  1.
</event>
<event>
 8    1  0.1083484E+005  0.1043930E+01  0.7957747E-01            NaN
         13   -1    0    0    0    0  0.00000000000E+00  0.00000000000E+00  0.74505805969E-08  0.10566000000E+00  0.10566000000E+00 0. -1.
     999900   -1    0    0    0    0 -0.00000000000E+00 -0.00000000000E+00 -0.74505805969E-08  0.93827000000E+00  0.93827000000E+00 0.  1.
     999902    2    1    2    0    0  0.14760575348E-01 -0.17601068091E-01 -0.43002064022E-02  0.10205598490E+01  0.10202922334E+01 0.  0.
     999903    2    3    3    0    0  0.63375645718E-01 -0.11528134097E+00  0.12705504945E-01  0.13365847061E+00  0.19922270522E-01 0.  0.
         14    1    1    2    0    0 -0.14760575348E-01  0.17601068091E-01  0.43002064022E-02  0.23370150997E-01  0.00000000000E+00 0.  1.
     999901    1    3    3    0    0 -0.48615070370E-01  0.97680272884E-01 -0.17005711347E-01  0.88690137839E+00  0.88000000000E+00 0.  1.
        -11    1    4    4    0    0  0.91798963033E-02 -0.58465181115E-02  0.19100605188E-02  0.11061723299E-01  0.51100000000E-03 0. -1.
         11    1    4    4    0    0  0.54195749415E-01 -0.10943482286E+00  0.10795444426E-01  0.12259674731E+00  0.51100000000E-03 0.  1.
</event>
<event>
 8    1  0.1083484E+005  0.1043930E+01  0.7957747E-01            NaN
         13   -1    0    0    0    0  0.00000000000E+00  0.00000000000E+00  0.74505805969E-08  0.10566000000E+00  0.10566000000E+00 0. -1.
     999900   -1    0    0    0    0 -0.00000000000E+00 -0.00000000000E+00 -0.74505805969E-08  0.93827000000E+00  0.93827000000E+00 0. -1.
     999902    2    1    2    0    0  0.15770064732E-01  0.14185168381E-01  0.35291245045E-02  0.10224272406E+01  0.10222011023E+01 0.  0.
     999903    2    3    3    0    0 -0.97366551298E-01  0.82653893686E-01 -0.26313890648E-01  0.13204616159E+00  0.20781157268E-01 0.  0.
         14    1    1    2    0    0 -0.15770064732E-01 -0.14185168381E-01 -0.35291245045E-02  0.21502759438E-01  0.00000000000E+00 0. -1.
     999901    1    3    3    0    0  0.11313661603E+00 -0.68468725305E-01  0.29843015153E-01  0.89038107897E+00  0.88000000000E+00 0.  1.
        -11    1    4    4    0    0 -0.53668685795E-01  0.42986732016E-01 -0.24504301665E-01  0.72999375926E-01  0.51100000000E-03 0. -1.
         11    1    4    4    0    0 -0.43697865503E-01  0.39667161670E-01 -0.18095889833E-02  0.59046785668E-01  0.51100000000E-03 0.  1.
</event>
<event>
 8    1  0.1083484E+005  0.1043930E+01  0.7957747E-01            NaN
         13   -1    0    0    0    0  0.00000000000E+00  0.00000000000E+00  0.74505805969E-08  0.10566000000E+00  0.10566000000E+00 0. -1.
     999900   -1    0    0    0    0 -0.00000000000E+00 -0.00000000000E+00 -0.74505805969E-08  0.93827000000E+00  0.93827000000E+00 0.  1.
     999902    2    1    2    0    0  0.14327323322E-02  0.48128254052E-02 -0.21648009670E-01  0.10217072114E+01  0.10214655028E+01 0.  0.
     999903    2    3    3    0    0  0.25317294047E-01 -0.33694289501E-01 -0.12610678112E+00  0.13437136454E+00  0.19402908062E-01 0.  0.
         14    1    1    2    0    0 -0.14327323322E-02 -0.48128254052E-02  0.21648009670E-01  0.22222788596E-01  0.00000000000E+00 0. -1.
     999901    1    3    3    0    0 -0.23884561715E-01  0.38507114907E-01  0.10445877145E+00  0.88733584686E+00  0.88000000000E+00 0. -1.
        -11    1    4    4    0    0  0.28028304483E-01 -0.27433714225E-01 -0.11249849950E+00  0.11914011935E+00  0.51100000000E-03 0. -1.
         11    1    4    4    0    0 -0.27110104358E-02 -0.62605752764E-02 -0.13608281625E-01  0.15231245194E-01  0.51100000000E-03 0.  1.
</event>
<event>
 8    1  0.1083484E+005  0.1043930E+01  0.7957747E-01            NaN
         13   -1    0    0    0    0  0.00000000000E+00  0.00000000000E+00  0.74505805969E-08  0.10566000000E+00  0.10566000000E+00 0. -1.
     999900   -1    0    0    0    0 -0.00000000000E+00 -0.00000000000E+00 -0.74505805969E-08  0.93827000000E+00  0.93827000000E+00 0.  1.
     999902    2    1    2    0    0  0.27029423061E-02 -0.19879007476E-01 -0.13468910568E-01  0.10197661347E+01  0.10194798071E+01 0.  0.
     999903    2    3    3    0    0 -0.12637043023E+00 -0.23082699285E-01  0.56118623058E-02  0.13014021609E+00  0.20067042659E-01 0.  0.
         14    1    1    2    0    0 -0.27029423061E-02  0.19879007476E-01  0.13468910568E-01  0.24163865321E-01  0.00000000000E+00 0.  1.
     999901    1    3    3    0    0  0.12907337254E+00  0.32036918092E-02 -0.19080772874E-01  0.88962591859E+00  0.88000000000E+00 0.  1.
        -11    1    4    4    0    0 -0.72936518699E-01 -0.20727364933E-01 -0.33794714396E-02  0.75901524129E-01  0.51100000000E-03 0.  1.
         11    1    4    4    0    0 -0.53433911533E-01 -0.23553343523E-02  0.89913337454E-02  0.54238691956E-01  0.51100000000E-03 0. -1.
</event>
<event>
 8    1  0.1083484E+005  0.1043930E+01  0.7957747E-01            NaN
         13   -1    0    0    0    0  0.00000000000E+00  0.00000000000E+00  0.74505805969E-08  0.10566000000E+00  0.10566000000E+00 0.  1.
     999900   -1    0    0    0    0 -0.00000000000E+00 -0.00000000000E+00 -0.74505805969E-08  0.93827000000E+00  0.93827000000E+00 0.  1.
     999902    2    1    2    0    0 -0.16285868484E-01  0.14588062390E-01 -0.66827180020E-02  0.10210673712E+01  0.10208113815E+01 0.  0.
     999903    2    3    3    0    0 -0.96751997327E-01 -0.22554680061E-01  0.84393736969E-01  0.13193897671E+00  0.20394316757E-01 0.  0.
         14    1    1    2    0    0  0.16285868484E-01 -0.14588062390E-01  0.66827180020E-02  0.22862628818E-01  0.00000000000E+00 0.  1.
     999901    1    3    3    0    0  0.80466128843E-01  0.37142742451E-01 -0.91076454971E-01  0.88912839447E+00  0.88000000000E+00 0.  1.
        -11    1    4    4    0    0 -0.40545571246E-01 -0.13155416999E-01  0.24081640037E-01  0.48961156562E-01  0.51100000000E-03 0.  1.
         11    1    4    4    0    0 -0.56206426082E-01 -0.93992630623E-02  0.60312096932E-01  0.82977820147E-01  0.51100000000E-03 0. -1.
</event>
<event>
 8    1  0.1083484E+005  0.1043930E+01  0.7957747E-01            NaN
         13   -1    0    0    0    0  0.00000000000E+00  0.00000000000E+00  0.74505805969E-08  0.10566000000E+00  0.10566000000E+00 0. -1.
     999900   -1    0    0    0    0 -0.00000000000E+00 -0.00000000000E+00 -0.74505805969E-08  0.93827000000E+00  0.93827000000E+00 0.  1.
     999902    2    1    2    0    0  0.13901370267E-04  0.13703671328E-02  0.23007753732E-01  0.10208814679E+01  0.10206212504E+01 0.  0.
     999903    2    3    3    0    0  0.79647374354E-01  0.32690828138E-01 -0.94082894349E-01  0.12901114037E+00  0.19490737396E-01 0.  0.
         14    1    1    2    0    0 -0.13901370267E-04 -0.13703671328E-02 -0.23007753732E-01  0.23048532081E-01  0.00000000000E+00 0.  1.
     999901    1    3    3    0    0 -0.79633472983E-01 -0.31320461005E-01  0.11709064808E+00  0.89187032755E+00  0.88000000000E+00 0. -1.
        -11    1    4    4    0    0  0.72979791024E-01  0.23118170401E-01 -0.82936369262E-01  0.11286807417E+00  0.51100000000E-03 0. -1.
         11    1    4    4    0    0  0.66675833299E-02  0.95726577369E-02 -0.11146525087E-01  0.16143066194E-01  0.51100000000E-03 0.  1.
</event>
<event>
 8    1  0.1083484E+005  0.1043930E+01  0.7957747E-01            NaN
         13   -1    0    0    0    0  0.00000000000E+00  0.00000000000E+00  0.74505805969E-08  0.10566000000E+00  0.10566000000E+00 0.  1.
     999900   -1    0    0    0    0 -0.00000000000E+00 -0.00000000000E+00 -0.74505805969E-08  0.93827000000E+00  0.93827000000E+00 0. -1.
     999902    2    1    2    0    0 -0.10468377887E-02 -0.41452917932E-02  0.22918157825E-01  0.10206164573E+01  0.10203501515E+01 0.  0.
     999903    2    3    3    0    0 -0.10135515891E-01 -0.10585028180E+00  0.77329045553E-01  0.13304276813E+00  0.20336814579E-01 0.  0.
         14    1    1    2    0    0  0.10468377887E-02  0.41452917932E-02 -0.22918157825E-01  0.23313542663E-01  0.00000000000E+00 0. -1.
     999901    1    3    3    0    0  0.90886781028E-02  0.10170499001E+00 -0.54410887728E-01  0.88757368920E+00  0.88000000000E+00 0. -1.
        -11    1    4    4    0    0 -0.11981735223E-01 -0.54371122172E-01  0.30818961071E-01  0.63638434831E-01  0.51100000000E-03 0. -1.
         11    1    4    4    0    0  0.18462193315E-02 -0.51479159627E-01  0.46510084482E-01  0.69404333303E-01  0.51100000000E-03 0.  1.
</event>
<event>
 8    1  0.1083484E+005  0.1043930E+01  0.7957747E-01            NaN
         13   -1    0    0    0    0  0.00000000000E+00  0.00000000000E+00  0.74505805969E-08  0.10566000000E+00  0.10566000000E+00 0.  1.
     999900   -1    0    0    0    0 -0.00000000000E+00 -0.00000000000E+00 -0.74505805969E-08  0.93827000000E+00  0.93827000000E+00 0.  1.
     999902    2    1    2    0    0  0.18183807023E-01  0.54679795636E-02  0.18209867707E-01  0.10176212767E+01  0.10172811381E+01 0.  0.
     999903    2    3    3    0    0 -0.58082568360E-01 -0.18730939348E-01  0.11074012136E+00  0.12915968750E+00  0.26351803752E-01 0.  0.
         14    1    1    2    0    0 -0.18183807023E-01 -0.54679795636E-02 -0.18209867707E-01  0.26308723273E-01  0.00000000000E+00 0. -1.
     999901    1    3    3    0    0  0.76266375384E-01  0.24198918911E-01 -0.92530253649E-01  0.88846158923E+00  0.88000000000E+00 0.  1.
        -11    1    4    4    0    0 -0.26288523959E-01  0.32255514438E-02  0.58145037783E-01  0.63895204936E-01  0.51100000000E-03 0.  1.
         11    1    4    4    0    0 -0.31794044401E-01 -0.21956490792E-01  0.52595083573E-01  0.65264482564E-01  0.51100000000E-03 0. -1.
</event>
<event>
 8    1  0.1083484E+005  0.1043930E+01  0.7957747E-01            NaN
         13   -1    0    0    0    0  0.00000000000E+00  0.00000000000E+00  0.74505805969E-08  0.10566000000E+00  0.10566000000E+00 0.  1.
     999900   -1    0    0    0    0 -0.00000000000E+00 -0.00000000000E+00 -0.74505805969E-08  0.93827000000E+00  0.93827000000E+00 0. -1.
     999902    2    1    2    0    0 -0.12622985966E-01 -0.15532928387E-01 -0.16360312351E-01  0.10180790530E+01  0.10177507980E+01 0.  0.
     999903    2    3    3    0    0  0.52089207142E-01 -0.10716397094E+00  0.45274485117E-01  0.12881938108E+00  0.18634692700E-01 0.  0.
         14    1    1    2    0    0  0.12622985966E-01  0.15532928387E-01  0.16360312351E-01  0.25850946969E-01  0.00000000000E+00 0.  1.
     999901    1    3    3    0    0 -0.64712193108E-01  0.91631042550E-01 -0.61634797468E-01  0.88925967195E+00  0.88000000000E+00 0. -1.
        -11    1    4    4    0    0  0.26198370595E-01 -0.73950423833E-01  0.28089794652E-01  0.83332571612E-01  0.51100000000E-03 0. -1.
         11    1    4    4    0    0  0.25890836547E-01 -0.33213547104E-01  0.17184690466E-01  0.45486809470E-01  0.51100000000E-03 0.  1.
</event>
<event>
 8    1  0.1083484E+005  0.1043930E+01  0.7957747E-01            NaN
         13   -1    0    0    0    0  0.00000000000E+00  0.00000000000E+00  0.74505805969E-08  0.10566000000E+00  0.10566000000E+00 0. -1.
     999900   -1    0    0    0    0 -0.00000000000E+00 -0.00000000000E+00 -0.74505805969E-08  0.93827000000E+00  0.93827000000E+00 0.  1.
     999902    2    1    2    0    0 -0.13895851220E-01  0.15473692394E-01 -0.12063244002E-01  0.10198872944E+01  0.10196038650E+01 0.  0.
     999903    2    3    3    0    0 -0.30656389887E-01 -0.64134445353E-01 -0.10796297842E+00  0.13094684064E+00  0.20929143346E-01 0.  0.
         14    1    1    2    0    0  0.13895851220E-01 -0.15473692394E-01  0.12063244002E-01  0.24042705615E-01  0.00000000000E+00 0.  1.
     999901    1    3    3    0    0  0.16760538667E-01  0.79608137747E-01  0.95899734418E-01  0.88894045375E+00  0.88000000000E+00 0. -1.
        -11    1    4    4    0    0 -0.14294774987E-01 -0.33543546022E-01 -0.36964762912E-01  0.51924607748E-01  0.51100000000E-03 0. -1.
         11    1    4    4    0    0 -0.16361614900E-01 -0.30590899332E-01 -0.70998215509E-01  0.79022232887E-01  0.51100000000E-03 0.  1.
</event>
<event>
 8    1  0.1083484E+005  0.1043930E+01  0.7957747E-01            NaN
         13   -1    0    0    0    0  0.00000000000E+00  0.00000000000E+00  0.74505805969E-08  0.10566000000E+00  0.10566000000E+00 0. -1.
     999900   -1    0    0    0    0 -0.00000000000E+00 -0.00000000000E+00 -0.74505805969E-08  0.93827000000E+00  0.93827000000E+00 0.  1.
     999902    2    1    2    0    0 -0.47066398076E-02  0.16759436551E-01  0.15956041831E-01  0.10203158847E+01  0.10200425864E+01 0.  0.
     999903    2    3    3    0    0 -0.67979710945E-01  0.89734032329E-01  0.68723924078E-01  0.13346007759E+00  0.20375890441E-01 0.  0.
         14    1    1    2    0    0  0.47066398076E-02 -0.16759436551E-01 -0.15956041831E-01  0.23614115328E-01  0.00000000000E+00 0.  1.
     999901    1    3    3    0    0  0.63273071137E-01 -0.72974595777E-01 -0.52767882247E-01  0.88685580708E+00  0.88000000000E+00 0. -1.
        -11    1    4    4    0    0 -0.63071469032E-01  0.70733530234E-01  0.56518551478E-01  0.11034423541E+00  0.51100000000E-03 0. -1.
         11    1    4    4    0    0 -0.49082419134E-02  0.19000502094E-01  0.12205372600E-01  0.23115842183E-01  0.51100000000E-03 0.  1.
</event>
<event>
 8    1  0.1083484E+005  0.1043930E+01  0.7957747E-01            NaN
         13   -1    0    0    0    0  0.00000000000E+00  0.00000000000E+00  0.74505805969E-08  0.10566000000E+00  0.10566000000E+00 0. -1.
     999900   -1    0    0    0    0 -0.00000000000E+00 -0.00000000000E+00 -0.74505805969E-08  0.93827000000E+00  0.93827000000E+00 0.  1.
     999902    2    1    2    0    0 -0.10385094331E-01 -0.20130020516E-01  0.67483676106E-02  0.10202951026E+01  0.10200213174E+01 0.  0.
     999903    2    3    3    0    0  0.13152156542E-01  0.12511131459E+00  0.14482273726E-01  0.12804577594E+00  0.18977993156E-01 0.  0.
         14    1    1    2    0    0  0.10385094331E-01  0.20130020516E-01 -0.67483676106E-02  0.23634897411E-01  0.00000000000E+00 0.  1.
     999901    1    3    3    0    0 -0.23537250874E-01 -0.14524133510E+00 -0.77339061150E-02  0.89224932665E+00  0.88000000000E+00 0. -1.
        -11    1    4    4    0    0  0.14451643911E-01  0.72628083761E-01  0.14921931981E-01  0.75542132201E-01  0.51100000000E-03 0.  1.
         11    1    4    4    0    0 -0.12994873686E-02  0.52483230827E-01 -0.43965825523E-03  0.52503643739E-01  0.51100000000E-03 0. -1.
</event>
<event>
 8    1  0.1083484E+005  0.1043930E+01  0.7957747E-01            NaN
         13   -1    0    0    0    0  0.00000000000E+00  0.00000000000E+00  0.74505805969E-08  0.10566000000E+00  0.10566000000E+00 0. -1.
     999900   -1    0    0    0    0 -0.00000000000E+00 -0.00000000000E+00 -0.74505805969E-08  0.93827000000E+00  0.93827000000E+00 0.  1.
     999902    2    1    2    0    0 -0.69547945392E-02  0.16235788733E-01  0.14228718297E-01  0.10212490294E+01  0.10209971369E+01 0.  0.
     999903    2    3    3    0    0 -0.11754667201E+00 -0.10769182659E-01 -0.54141833920E-01  0.13128590418E+00  0.19273169440E-01 0.  0.
         14    1    1    2    0    0  0.69547945392E-02 -0.16235788733E-01 -0.14228718297E-01  0.22680970598E-01  0.00000000000E+00 0.  1.
     999901    1    3    3    0    0  0.11059187747E+00  0.27004971393E-01  0.68370552217E-01  0.88996312522E+00  0.88000000000E+00 0. -1.
        -11    1    4    4    0    0 -0.10542000374E+00 -0.13697055835E-01 -0.43435438559E-01  0.11483851693E+00  0.51100000000E-03 0. -1.
         11    1    4    4    0    0 -0.12126668268E-01  0.29278731757E-02 -0.10706395361E-01  0.16447387247E-01  0.51100000000E-03 0.  1.
</event>
<event>
 8    1  0.1083484E+005  0.1043930E+01  0.7957747E-01            NaN
         13   -1    0    0    0    0  0.00000000000E+00  0.00000000000E+00  0.74505805969E-08  0.10566000000E+00  0.10566000000E+00 0. -1.
     999900   -1    0    0    0    0 -0.00000000000E+00 -0.00000000000E+00 -0.74505805969E-08  0.93827000000E+00  0.93827000000E+00 0. -1.
     999902    2    1    2    0    0 -0.13347354585E-01 -0.10961132929E-01  0.16909448464E-01  0.10197591962E+01  0.10194727022E+01 0.  0.
     999903    2    3    3    0    0  0.29142429690E-01 -0.88060329858E-01 -0.89103390154E-01  0.12903567574E+00  0.10338693009E-01 0.  0.
         14    1    1    2    0    0  0.13347354585E-01  0.10961132929E-01 -0.16909448464E-01  0.24170803811E-01  0.00000000000E+00 0.  1.
     999901    1    3    3    0    0 -0.42489784275E-01  0.77099196929E-01  0.10601283862E+00  0.89072352045E+00  0.88000000000E+00 0.  1.
        -11    1    4    4    0    0  0.21212890119E-01 -0.64217133106E-01 -0.71038760052E-01  0.98084623883E-01  0.51100000000E-03 0. -1.
         11    1    4    4    0    0  0.79295395717E-02 -0.23843196752E-01 -0.18064630102E-01  0.30951051854E-01  0.51100000000E-03 0.  1.
</event>
<event>
 8    1  0.1083484E+005  0.1043930E+01  0.7957747E-01            NaN
         13   -1    0    0    0    0  0.00000000000E+00  0.00000000000E+00  0.74505805969E-08  0.10566000000E+00  0.10566000000E+00 0. -1.
     999900   -1    0    0    0    0 -0.00000000000E+00 -0.00000000000E+00 -0.74505805969E-08  0.93827000000E+00  0.93827000000E+00 0.  1.
     999902    2    1    2    0    0  0.23620186000E-01 -0.50185502384E-05 -0.62009424514E-02  0.10195094165E+01  0.10192168981E+01 0.  0.
     999903    2    3    3    0    0  0.42127015720E-01 -0.15189715347E-01 -0.12333888762E+00  0.13142474937E+00  0.73871945290E-02 0.  0.
         14    1    1    2    0    0 -0.23620186000E-01  0.50185502384E-05  0.62009424514E-02  0.24420583514E-01  0.00000000000E+00 0. -1.
     999901    1    3    3    0    0 -0.18506829720E-01  0.15184696797E-01  0.11713794517E+00  0.88808466711E+00  0.88000000000E+00 0. -1.
        -11    1    4    4    0    0  0.19813388426E-01 -0.51446651347E-02 -0.65323530590E-01  0.68457743974E-01  0.51100000000E-03 0. -1.
         11    1    4    4    0    0  0.22313627294E-01 -0.10045050212E-01 -0.58015357029E-01  0.62967005400E-01  0.51100000000E-03 0.  1.
</event>
<event>
 8    1  0.1083484E+005  0.1043930E+01  0.7957747E-01            NaN
         13   -1    0    0    0    0  0.00000000000E+00  0.00000000000E+00  0.74505805969E-08  0.10566000000E+00  0.10566000000E+00 0. -1.
     999900   -1    0    0    0    0 -0.00000000000E+00 -0.00000000000E+00 -0.74505805969E-08  0.93827000000E+00  0.93827000000E+00 0.  1.
     999902    2    1    2    0    0  0.22456609281E-01 -0.37764506572E-02 -0.65447096110E-03  0.10211486653E+01  0.10208945133E+01 0.  0.
     999903    2    3    3    0    0 -0.12032294573E+00 -0.21197574555E-01  0.36032922818E-01  0.12871633632E+00  0.18508789076E-01 0.  0.
         14    1    1    2    0    0 -0.22456609281E-01  0.37764506572E-02  0.65447096110E-03  0.22781334733E-01  0.00000000000E+00 0.  1.
     999901    1    3    3    0    0  0.14277955501E+00  0.17421123898E-01 -0.36687393779E-01  0.89243232895E+00  0.88000000000E+00 0. -1.
        -11    1    4    4    0    0 -0.67198970999E-01 -0.19769068592E-01  0.15504571769E-01  0.71743784700E-01  0.51100000000E-03 0.  1.
         11    1    4    4    0    0 -0.53123974730E-01 -0.14285059633E-02  0.20528351049E-01  0.56972551621E-01  0.51100000000E-03 0. -1.
</event>
<event>
 8    1  0.1083484E+005  0.1043930E+01  0.7957747E-01            NaN
         13   -1    0    0    0    0  0.00000000000E+00  0.00000000000E+00  0.74505805969E-08  0.10566000000E+00  0.10566000000E+00 0.  1.
     999900   -1    0    0    0    0 -0.00000000000E+00 -0.00000000000E+00 -0.74505805969E-08  0.93827000000E+00  0.93827000000E+00 0.  1.
     999902    2    1    2    0    0 -0.19683474904E-01  0.27202711798E-02 -0.13217754346E-01  0.10200647933E+01  0.10197855826E+01 0.  0.
     999903    2    3    3    0    0  0.36390256413E-01  0.68952953488E-01  0.10029953696E+00  0.12853957945E+00  0.19587389153E-01 0.  0.
         14    1    1    2    0    0  0.19683474904E-01 -0.27202711798E-02  0.13217754346E-01  0.23865206673E-01  0.00000000000E+00 0. -1.
     999901    1    3    3    0    0 -0.56073731317E-01 -0.66232682308E-01 -0.11351729131E+00  0.89152521388E+00  0.88000000000E+00 0.  1.
        -11    1    4    4    0    0  0.89832226397E-02  0.30936166513E-01  0.29829392467E-01  0.43906701806E-01  0.51100000000E-03 0.  1.
         11    1    4    4    0    0  0.27407033774E-01  0.38016786975E-01  0.70470144497E-01  0.84632877646E-01  0.51100000000E-03 0. -1.
</event>
<event>
 8    1  0.1083484E+005  0.1043930E+01  0.7957747E-01            NaN
         13   -1    0    0    0    0  0.00000000000E+00  0.00000000000E+00  0.74505805969E-08  0.10566000000E+00  0.10566000000E+00 0.  1.
     999900   -1    0    0    0    0 -0.00000000000E+00 -0.00000000000E+00 -0.74505805969E-08  0.93827000000E+00  0.93827000000E+00 0. -1.
     999902    2    1    2    0    0 -0.19657534108E-01 -0.11995477859E-01  0.43304285515E-02  0.10204979120E+01  0.10202288595E+01 0.  0.
     999903    2    3    3    0    0  0.12206572990E+00  0.27112526976E-01 -0.18493420789E-01  0.12800934194E+00  0.20230014224E-01 0.  0.
         14    1    1    2    0    0  0.19657534108E-01  0.11995477859E-01 -0.43304285515E-02  0.23432087993E-01  0.00000000000E+00 0. -1.
     999901    1    3    3    0    0 -0.14172326401E+00 -0.39108004835E-01  0.22823849340E-01  0.89248857007E+00  0.88000000000E+00 0.  1.
        -11    1    4    4    0    0  0.66344221900E-01  0.44033595867E-02 -0.94883774475E-02  0.67165733694E-01  0.51100000000E-03 0.  1.
         11    1    4    4    0    0  0.55721508003E-01  0.22709167389E-01 -0.90050433413E-02  0.60843608245E-01  0.51100000000E-03 0. -1.
</event>
<event>
 8    1  0.1083484E+005  0.1043930E+01  0.7957747E-01            NaN
         13   -1    0    0    0    0  0.00000000000E+00  0.00000000000E+00  0.74505805969E-08  0.10566000000E+00  0.10566000000E+00 0. -1.
     999900   -1    0    0    0    0 -0.00000000000E+00 -0.00000000000E+00 -0.74505805969E-08  0.93827000000E+00  0.93827000000E+00 0.  1.
     999902    2    1    2    0    0 -0.21449810353E-01  0.10019997255E-01  0.38700396997E-02  0.10199410043E+01  0.10196588548E+01 0.  0.
     999903    2    3    3    0    0  0.42737287960E-01 -0.10349342224E+00  0.61478751894E-01  0.12846804129E+00  0.13676127735E-01 0.  0.
         14    1    1    2    0    0  0.21449810353E-01 -0.10019997255E-01 -0.38700396997E-02  0.23988995737E-01  0.00000000000E+00 0. -1.
     999901    1    3    3    0    0 -0.64187098314E-01  0.11351341949E+00 -0.57608712194E-01  0.89147296297E+00  0.88000000000E+00 0. -1.
        -11    1    4    4    0    0  0.42620428649E-02 -0.10069846498E-01  0.17192481686E-02  0.11080783057E-01  0.51100000000E-03 0. -1.
         11    1    4    4    0    0  0.38475245095E-01 -0.93423575737E-01  0.59759503725E-01  0.11738725823E+00  0.51100000000E-03 0.  1.
</event>
<event>
 8    1  0.1083484E+005  0.1043930E+01  0.7957747E-01            NaN
         13   -1    0    0    0    0  0.00000000000E+00  0.00000000000E+00  0.74505805969E-08  0.10566000000E+00  0.10566000000E+00 0. -1.
     999900   -1    0    0    0    0 -0.00000000000E+00 -0.00000000000E+00 -0.74505805969E-08  0.93827000000E+00  0.93827000000E+00 0.  1.
     999902    2    1    2    0    0  0.48606472042E-02  0.19062502641E-01  0.10186764815E-01  0.10217765561E+01  0.10215363702E+01 0.  0.
     999903    2    3    3    0    0 -0.61825207089E-01  0.55298067989E-02  0.11555374260E+00  0.13288267212E+00  0.21265044643E-01 0.  0.
         14    1    1    2    0    0 -0.48606472042E-02 -0.19062502641E-01 -0.10186764815E-01  0.22153443876E-01  0.00000000000E+00 0.  1.
     999901    1    3    3    0    0  0.66685854293E-01  0.13532695842E-01 -0.10536697779E+00  0.88889388401E+00  0.88000000000E+00 0.  1.
        -11    1    4    4    0    0 -0.51667974196E-01  0.24663612175E-02  0.76048156399E-01  0.91974157827E-01  0.51100000000E-03 0. -1.
         11    1    4    4    0    0 -0.10157232893E-01  0.30634455814E-02  0.39505586205E-01  0.40908514288E-01  0.51100000000E-03 0.  1.
</event>
<event>
 8    1  0.1083484E+005  0.1043930E+01  0.7957747E-01            NaN
         13   -1    0    0    0    0  0.00000000000E+00  0.00000000000E+00  0.74505805969E-08  0.10566000000E+00  0.10566000000E+00 0.  1.
     999900   -1    0    0    0    0 -0.00000000000E+00 -0.00000000000E+00 -0.74505805969E-08  0.93827000000E+00  0.93827000000E+00 0.  1.
     999902    2    1    2    0    0  0.16998268738E-01 -0.70612012890E-02 -0.14935763129E-01  0.10202260188E+01  0.10199506119E+01 0.  0.
     999903    2    3    3    0    0 -0.12236950645E+00  0.19002163052E-01 -0.28363746780E-01  0.12877608390E+00  0.21057049745E-01 0.  0.
         14    1    1    2    0    0 -0.16998268738E-01  0.70612012890E-02  0.14935763129E-01  0.23703981184E-01  0.00000000000E+00 0.  1.
     999901    1    3    3    0    0  0.13936777519E+00 -0.26063364341E-01  0.13427983651E-01  0.89144993492E+00  0.88000000000E+00 0.  1.
        -11    1    4    4    0    0 -0.25949952350E-01  0.12409549632E-01 -0.34857761831E-02  0.28979453163E-01  0.51100000000E-03 0. -1.
         11    1    4    4    0    0 -0.96419554097E-01  0.65926134195E-02 -0.24877970597E-01  0.99796630735E-01  0.51100000000E-03 0.  1.
</event>
<event>
 7    1  0.1083484E+005  0.1043930E+01  0.7957747E-01            NaN
         13   -1    0    0    0    0  0.00000000000E+00  0.00000000000E+00  0.74505805969E-08  0.10566000000E+00  0.10566000000E+00 0. -1.
     999900   -1    0    0    0    0 -0.00000000000E+00 -0.00000000000E+00 -0.74505805969E-08  0.93827000000E+00  0.93827000000E+00 0.  1.
     999903    2    1    2    0    0  0.11930956825E-01  0.66970249730E-01  0.78716269740E-01  0.10525345988E+00  0.15958621953E-01 0.  0.
         14    1    1    2    0    0  0.31802091436E-01 -0.19322442642E-01 -0.41183727131E-01  0.55505217680E-01  0.00000000000E+00 0.  1.
     999901    1    1    2    0    0 -0.43733048260E-01 -0.47647807088E-01 -0.37532542609E-01  0.88317132244E+00  0.88000000000E+00 0.  1.
        -11    1    3    3    0    0 -0.23119297728E-02  0.10569156597E-01  0.69441975659E-02  0.12866044119E-01  0.51100000000E-03 0. -1.
         11    1    3    3    0    0  0.14242886598E-01  0.56401093133E-01  0.71772072174E-01  0.92387415758E-01  0.51100000000E-03 0.  1.
</event>
<event>
 8    1  0.1083484E+005  0.1043930E+01  0.7957747E-01            NaN
         13   -1    0    0    0    0  0.00000000000E+00  0.00000000000E+00  0.74505805969E-08  0.10566000000E+00  0.10566000000E+00 0.  1.
     999900   -1    0    0    0    0 -0.00000000000E+00 -0.00000000000E+00 -0.74505805969E-08  0.93827000000E+00  0.93827000000E+00 0.  1.
     999902    2    1    2    0    0  0.95056938886E-02  0.11965527529E-01 -0.17220460391E-01  0.10209066136E+01  0.10206469700E+01 0.  0.
     999903    2    3    3    0    0 -0.10272402144E+00  0.17472787733E-01 -0.78090499191E-01  0.13167604702E+00  0.19568658660E-01 0.  0.
         14    1    1    2    0    0 -0.95056938886E-02 -0.11965527529E-01  0.17220460391E-01  0.23023386403E-01  0.00000000000E+00 0.  1.
     999901    1    3    3    0    0  0.11222971533E+00 -0.55072602035E-02  0.60870038800E-01  0.88923056658E+00  0.88000000000E+00 0. -1.
        -11    1    4    4    0    0 -0.35915946008E-01 -0.27783793882E-02 -0.22966109237E-01  0.42724441063E-01  0.51100000000E-03 0.  1.
         11    1    4    4    0    0 -0.66808075433E-01  0.20251167121E-01 -0.55124389954E-01  0.88951605953E-01  0.51100000000E-03 0. -1.
</event>
<event>
 8    1  0.1186244E+005  0.1043930E+01  0.7957747E-01            NaN
         13   -1    0    0    0    0  0.00000000000E+00  0.00000000000E+00  0.74505805969E-08  0.10566000000E+00  0.10566000000E+00 0.  1.
     999900   -1    0    0    0    0 -0.00000000000E+00 -0.00000000000E+00 -0.74505805969E-08  0.93827000000E+00  0.93827000000E+00 0.  1.
     999902    2    1    2    0    0  0.88587791922E-02 -0.99156721637E-02  0.19441393172E-01  0.10203765227E+01  0.10201046426E+01 0.  0.
     999903    2    3    3    0    0  0.50188534055E-01  0.10724210471E+00  0.53174755349E-01  0.13101043779E+00  0.17788261016E-01 0.  0.
         14    1    1    2    0    0 -0.88587791922E-02  0.99156721637E-02 -0.19441393172E-01  0.23553477274E-01  0.00000000000E+00 0. -1.
     999901    1    3    3    0    0 -0.41329754863E-01 -0.11715777687E+00 -0.33733362177E-01  0.88936608494E+00  0.88000000000E+00 0.  1.
        -11    1    4    4    0    0  0.27299500566E-01  0.52254973325E-01  0.35752126918E-01  0.68951582059E-01  0.51100000000E-03 0.  1.
         11    1    4    4    0    0  0.22889033489E-01  0.54987131382E-01  0.17422628431E-01  0.62058855726E-01  0.51100000000E-03 0. -1.
</event>
<event>
 8    1  0.1083484E+005  0.1043930E+01  0.7957747E-01            NaN
         13   -1    0    0    0    0  0.00000000000E+00  0.00000000000E+00  0.74505805969E-08  0.10566000000E+00  0.10566000000E+00 0.  1.
     999900   -1    0    0    0    0 -0.00000000000E+00 -0.00000000000E+00 -0.74505805969E-08  0.93827000000E+00  0.93827000000E+00 0.  1.
     999902    2    1    2    0    0 -0.13415092506E-01 -0.31025691605E-02 -0.18609435095E-01  0.10207804489E+01  0.10205179191E+01 0.  0.
     999903    2    3    3    0    0  0.56363890642E-01  0.38365957008E-01  0.10705619594E+00  0.12815477371E+00  0.17713895991E-01 0.  0.
         14    1    1    2    0    0  0.13415092506E-01  0.31025691605E-02  0.18609435095E-01  0.23149551117E-01  0.00000000000E+00 0.  1.
     999901    1    3    3    0    0 -0.69778983148E-01 -0.41468526168E-01 -0.12566563103E+00  0.89262567517E+00  0.88000000000E+00 0.  1.
        -11    1    4    4    0    0  0.37441538542E-01  0.16415902512E-01  0.70554155763E-01  0.81544470567E-01  0.51100000000E-03 0.  1.
         11    1    4    4    0    0  0.18922352101E-01  0.21950054495E-01  0.36502040175E-01  0.46610303145E-01  0.51100000000E-03 0. -1.
</event>
<event>
 8    1  0.1083484E+005  0.1043930E+01  0.7957747E-01            NaN
         13   -1    0    0    0    0  0.00000000000E+00  0.00000000000E+00  0.74505805969E-08  0.10566000000E+00  0.10566000000E+00 0.  1.
     999900   -1    0    0    0    0 -0.00000000000E+00 -0.00000000000E+00 -0.74505805969E-08  0.93827000000E+00  0.93827000000E+00 0.  1.
     999902    2    1    2    0    0 -0.12738466430E-01 -0.20546372494E-01 -0.17800124096E-03  0.10197545241E+01  0.10194679180E+01 0.  0.
     999903    2    3    3    0    0 -0.63026093224E-01 -0.35717089627E-02  0.11307641185E+00  0.13091058579E+00  0.19137947224E-01 0.  0.
         14    1    1    2    0    0  0.12738466430E-01  0.20546372494E-01  0.17800124096E-03  0.24175475881E-01  0.00000000000E+00 0.  1.
     999901    1    3    3    0    0  0.50287626793E-01 -0.16974663531E-01 -0.11325441309E+00  0.88884393832E+00  0.88000000000E+00 0.  1.
        -11    1    4    4    0    0 -0.29737351292E-01 -0.11091301899E-02  0.72467084425E-01  0.78340791914E-01  0.51100000000E-03 0.  1.
         11    1    4    4    0    0 -0.33288741932E-01 -0.24625787727E-02  0.40609327426E-01  0.52569793880E-01  0.51100000000E-03 0. -1.
</event>
<event>
 8    1  0.1083484E+005  0.1043930E+01  0.7957747E-01            NaN
         13   -1    0    0    0    0  0.00000000000E+00  0.00000000000E+00  0.74505805969E-08  0.10566000000E+00  0.10566000000E+00 0.  1.
     999900   -1    0    0    0    0 -0.00000000000E+00 -0.00000000000E+00 -0.74505805969E-08  0.93827000000E+00  0.93827000000E+00 0. -1.
     999902    2    1    2    0    0 -0.12201364033E-01  0.71391558468E-02  0.18620277255E-01  0.10205514723E+01  0.10202836626E+01 0.  0.
     999903    2    3    3    0    0  0.43378427314E-01  0.46726584627E-01  0.11481513850E+00  0.13268339146E+00  0.18902504404E-01 0.  0.
         14    1    1    2    0    0  0.12201364033E-01 -0.71391558468E-02 -0.18620277255E-01  0.23378527659E-01  0.00000000000E+00 0. -1.
     999901    1    3    3    0    0 -0.55579791347E-01 -0.39587428780E-01 -0.96194861244E-01  0.88786808088E+00  0.88000000000E+00 0. -1.
        -11    1    4    4    0    0  0.16868020430E-01  0.28338694455E-01  0.45208604204E-01  0.55961511164E-01  0.51100000000E-03 0.  1.
         11    1    4    4    0    0  0.26510406884E-01  0.18387890172E-01  0.69606534294E-01  0.76721880292E-01  0.51100000000E-03 0. -1.
</event>
<event>
 8    1  0.1083484E+005  0.1043930E+01  0.7957747E-01            NaN
         13   -1    0    0    0    0  0.00000000000E+00  0.00000000000E+00  0.74505805969E-08  0.10566000000E+00  0.10566000000E+00 0.  1.
     999900   -1    0    0    0    0 -0.00000000000E+00 -0.00000000000E+00 -0.74505805969E-08  0.93827000000E+00  0.93827000000E+00 0.  1.
     999902    2    1    2    0    0  0.16776968618E-01 -0.13434418936E-01  0.10120395422E-01  0.10201734705E+01  0.10198968268E+01 0.  0.
     999903    2    3    3    0    0 -0.10437309182E+00  0.70952259654E-01  0.38245224454E-03  0.12782080696E+00  0.20249616717E-01 0.  0.
         14    1    1    2    0    0 -0.16776968618E-01  0.13434418936E-01 -0.10120395422E-01  0.23756529453E-01  0.00000000000E+00 0. -1.
     999901    1    3    3    0    0  0.12115006044E+00 -0.84386678590E-01  0.97379431778E-02  0.89235266358E+00  0.88000000000E+00 0. -1.
        -11    1    4    4    0    0 -0.60233807505E-01  0.29289635538E-01 -0.28094258828E-02  0.67038409224E-01  0.51100000000E-03 0.  1.
         11    1    4    4    0    0 -0.44139284314E-01  0.41662624116E-01  0.31918781274E-02  0.60782397739E-01  0.51100000000E-03 0. -1.
</event>
<event>
 8    1  0.1083484E+005  0.1043930E+01  0.7957747E-01            NaN
         13   -1    0    0    0    0  0.00000000000E+00  0.00000000000E+00  0.74505805969E-08  0.10566000000E+00  0.10566000000E+00 0.  1.
     999900   -1    0    0    0    0 -0.00000000000E+00 -0.00000000000E+00 -0.74505805969E-08  0.93827000000E+00  0.93827000000E+00 0. -1.
     999902    2    1    2    0    0 -0.71496028785E-02 -0.18314619272E-02 -0.23619125520E-01  0.10191846133E+01  0.10188841650E+01 0.  0.
     999903    2    3    3    0    0 -0.15633152910E-01  0.81746307105E-01  0.94241329947E-01  0.12736159212E+00  0.20314838933E-01 0.  0.
         14    1    1    2    0    0  0.71496028785E-02  0.18314619272E-02  0.23619125520E-01  0.24745386730E-01  0.00000000000E+00 0.  1.
     999901    1    3    3    0    0  0.84835500316E-02 -0.83577769032E-01 -0.11786045547E+00  0.89182302115E+00  0.88000000000E+00 0. -1.
        -11    1    4    4    0    0 -0.18711024406E-01  0.50548590587E-01  0.53424271350E-01  0.75892531483E-01  0.51100000000E-03 0.  1.
         11    1    4    4    0    0  0.30778714958E-02  0.31197716518E-01  0.40817058597E-01  0.51469060633E-01  0.51100000000E-03 0. -1.
</event>
<event>
 8    1  0.1083484E+005  0.1043930E+01  0.7957747E-01            NaN
         13   -1    0    0    0    0  0.00000000000E+00  0.00000000000E+00  0.74505805969E-08  0.10566000000E+00  0.10566000000E+00 0. -1.
     999900   -1    0    0    0    0 -0.00000000000E+00 -0.00000000000E+00 -0.74505805969E-08  0.93827000000E+00  0.93827000000E+00 0.  1.
     999902    2    1    2    0    0  0.26137881356E-01 -0.42496863955E-02  0.11576129986E-01  0.10150292135E+01  0.10146176860E+01 0.  0.
     999903    2    3    3    0    0  0.78735693289E-01  0.73701127837E-01 -0.63407189265E-01  0.12684828741E+00  0.20948764322E-01 0.  0.
         14    1    1    2    0    0 -0.26137881356E-01  0.42496863955E-02 -0.11576129986E-01  0.28900786523E-01  0.00000000000E+00 0.  1.
     999901    1    3    3    0    0 -0.52597811933E-01 -0.77950814232E-01  0.74983319251E-01  0.88818092606E+00  0.88000000000E+00 0. -1.
        -11    1    4    4    0    0  0.41039161341E-01  0.38846341860E-01 -0.21107182171E-01  0.60324334225E-01  0.51100000000E-03 0.  1.
         11    1    4    4    0    0  0.37696531948E-01  0.34854785977E-01 -0.42300007095E-01  0.66523953186E-01  0.51100000000E-03 0. -1.
</event>
<event>
 8    1  0.1083484E+005  0.1043930E+01  0.7957747E-01            NaN
         13   -1    0    0    0    0  0.00000000000E+00  0.00000000000E+00  0.74505805969E-08  0.10566000000E+00  0.10566000000E+00 0.  1.
     999900   -1    0    0    0    0 -0.00000000000E+00 -0.00000000000E+00 -0.74505805969E-08  0.93827000000E+00  0.93827000000E+00 0.  1.
     999902    2    1    2    0    0 -0.11425212138E-01  0.19264807757E-01  0.84882528954E-02  0.10199775737E+01  0.10196962940E+01 0.  0.
     999903    2    3    3    0    0  0.86689578213E-02  0.71249350355E-01 -0.10729086628E+00  0.13064581736E+00  0.20134022228E-01 0.  0.
         14    1    1    2    0    0  0.11425212138E-01 -0.19264807757E-01 -0.84882528954E-02  0.23952426339E-01  0.00000000000E+00 0. -1.
     999901    1    3    3    0    0 -0.20094169959E-01 -0.51984542599E-01  0.11577911917E+00  0.88933175630E+00  0.88000000000E+00 0.  1.
        -11    1    4    4    0    0 -0.35508527345E-02  0.11853342568E-01 -0.96259184803E-02  0.15685334321E-01  0.51100000000E-03 0.  1.
         11    1    4    4    0    0  0.12219810556E-01  0.59396007788E-01 -0.97664947795E-01  0.11496048304E+00  0.51100000000E-03 0. -1.
</event>
<event>
 8    1  0.1083484E+005  0.1043930E+01  0.7957747E-01            NaN
         13   -1    0    0    0    0  0.00000000000E+00  0.00000000000E+00  0.74505805969E-08  0.10566000000E+00  0.10566000000E+00 0. -1.
     999900   -1    0    0    0    0 -0.00000000000E+00 -0.00000000000E+00 -0.74505805969E-08  0.93827000000E+00  0.93827000000E+00 0. -1.
     999902    2    1    2    0    0  0.46178891108E-02 -0.24450088570E-01  0.36065976851E-02  0.10187876199E+01  0.10184773317E+01 0.  0.
     999903    2    3    3    0    0 -0.10397812431E+00  0.57182091394E-01  0.42216798661E-01  0.12752578711E+00  0.19983152376E-01 0.  0.
         14    1    1    2    0    0 -0.46178891108E-02  0.24450088570E-01 -0.36065976851E-02  0.25142380114E-01  0.00000000000E+00 0. -1.
     999901    1    3    3    0    0  0.10859601342E+00 -0.81632179964E-01 -0.38610200976E-01  0.89126183277E+00  0.88000000000E+00 0. -1.
        -11    1    4    4    0    0 -0.52919113702E-01  0.34455395360E-01  0.31679665452E-01  0.70650330421E-01  0.51100000000E-03 0. -1.
         11    1    4    4    0    0 -0.51059010608E-01  0.22726696034E-01  0.10537133209E-01  0.56875456694E-01  0.51100000000E-03 0.  1.
</event>
<event>
 8    1  0.1083484E+005  0.1043930E+01  0.7957747E-01            NaN
         13   -1    0    0    0    0  0.00000000000E+00  0.00000000000E+00  0.74505805969E-08  0.10566000000E+00  0.10566000000E+00 0. -1.
     999900   -1    0    0    0    0 -0.00000000000E+00 -0.00000000000E+00 -0.74505805969E-08  0.93827000000E+00  0.93827000000E+00 0. -1.
     999902    2    1    2    0    0  0.85094642713E-02  0.92584315020E-02 -0.26412843756E-01  0.10146764899E+01  0.10142547073E+01 0.  0.
     999903    2    3    3    0    0 -0.98612343951E-01 -0.72087020221E-01 -0.12223414341E-01  0.12434312303E+00  0.19770369808E-01 0.  0.
         14    1    1    2    0    0 -0.85094642713E-02 -0.92584315020E-02  0.26412843756E-01  0.29253510069E-01  0.00000000000E+00 0. -1.
     999901    1    3    3    0    0  0.10712180822E+00  0.81345451723E-01 -0.14189429415E-01  0.89033336690E+00  0.88000000000E+00 0. -1.
        -11    1    4    4    0    0 -0.15796872408E-01 -0.13266254269E-01 -0.95248391538E-02  0.22727040329E-01  0.51100000000E-03 0. -1.
         11    1    4    4    0    0 -0.82815471543E-01 -0.58820765953E-01 -0.26985751870E-02  0.10161608270E+00  0.51100000000E-03 0.  1.
</event>
<event>
 8    1  0.1083484E+005  0.1043930E+01  0.7957747E-01            NaN
         13   -1    0    0    0    0  0.00000000000E+00  0.00000000000E+00  0.74505805969E-08  0.10566000000E+00  0.10566000000E+00 0.  1.
     999900   -1    0    0    0    0 -0.00000000000E+00 -0.00000000000E+00 -0.74505805969E-08  0.93827000000E+00  0.93827000000E+00 0.  1.
     999902    2    1    2    0    0 -0.36621671823E-02 -0.11933149665E-01  0.23324568227E-01  0.10174753782E+01  0.10171314066E+01 0.  0.
     999903    2    3    3    0    0  0.11462210115E+00  0.43872456636E-01  0.28679721688E-01  0.12779334993E+00  0.21109128996E-01 0.  0.
         14    1    1    2    0    0  0.36621671823E-02  0.11933149665E-01 -0.23324568227E-01  0.26454621758E-01  0.00000000000E+00 0. -1.
     999901    1    3    3    0    0 -0.11828426833E+00 -0.55805606301E-01 -0.53551534609E-02  0.88968202831E+00  0.88000000000E+00 0.  1.
        -11    1    4    4    0    0  0.69186769360E-01  0.15631646932E-01  0.18903308693E-01  0.73408130618E-01  0.51100000000E-03 0.  1.
         11    1    4    4    0    0  0.45435331792E-01  0.28240809704E-01  0.97764129952E-02  0.54385219314E-01  0.51100000000E-03 0. -1.
</event>
<event>
 8    1  0.1083484E+005  0.1043930E+01  0.7957747E-01            NaN
         13   -1    0    0    0    0  0.00000000000E+00  0.00000000000E+00  0.74505805969E-08  0.10566000000E+00  0.10566000000E+00 0.  1.
     999900   -1    0    0    0    0 -0.00000000000E+00 -0.00000000000E+00 -0.74505805969E-08  0.93827000000E+00  0.93827000000E+00 0.  1.
     999902    2    1    2    0    0  0.18237402717E-01  0.13556921420E-01  0.64380797149E-02  0.10203113242E+01  0.10200379191E+01 0.  0.
     999903    2    3    3    0    0 -0.10004660187E+00 -0.62058286009E-01 -0.45389337643E-01  0.12767766668E+00  0.19515152837E-01 0.  0.
         14    1    1    2    0    0 -0.18237402717E-01 -0.13556921420E-01 -0.64380797149E-02  0.23618675802E-01  0.00000000000E+00 0. -1.
     999901    1    3    3    0    0  0.11828400459E+00  0.75615207429E-01  0.51827417358E-01  0.89263365751E+00  0.88000000000E+00 0. -1.
        -11    1    4    4    0    0 -0.42067812657E-01 -0.29444709758E-01 -0.29725890587E-01  0.59334488173E-01  0.51100000000E-03 0. -1.
         11    1    4    4    0    0 -0.57978789213E-01 -0.32613576251E-01 -0.15663447056E-01  0.68343178512E-01  0.51100000000E-03 0.  1.
</event>
<event>
 8    1  0.1083484E+005  0.1043930E+01  0.7957747E-01            NaN
         13   -1    0    0    0    0  0.00000000000E+00  0.00000000000E+00  0.74505805969E-08  0.10566000000E+00  0.10566000000E+00 0. -1.
     999900   -1    0    0    0    0 -0.00000000000E+00 -0.00000000000E+00 -0.74505805969E-08  0.93827000000E+00  0.93827000000E+00 0. -1.
     999902    2    1    2    0    0 -0.47370050625E-02  0.22363224267E-01  0.22408774340E-02  0.10209610090E+01  0.10207026047E+01 0.  0.
     999903    2    3    3    0    0  0.88828412315E-03 -0.55797059738E-01 -0.11534644160E+00  0.12968807017E+00  0.20002325582E-01 0.  0.
         14    1    1    2    0    0  0.47370050625E-02 -0.22363224267E-01 -0.22408774340E-02  0.22968991015E-01  0.00000000000E+00 0. -1.
     999901    1    3    3    0    0 -0.56252891856E-02  0.78160284005E-01  0.11758731904E+00  0.89127293882E+00  0.88000000000E+00 0.  1.
        -11    1    4    4    0    0  0.53507041996E-02 -0.35314726745E-01 -0.53036769952E-01  0.63944663956E-01  0.51100000000E-03 0.  1.
         11    1    4    4    0    0 -0.44624200764E-02 -0.20482332993E-01 -0.62309671651E-01  0.65743406209E-01  0.51100000000E-03 0. -1.
</event>
<event>
 8    1  0.1083484E+005  0.1043930E+01  0.7957747E-01            NaN
         13   -1    0    0    0    0  0.00000000000E+00  0.00000000000E+00  0.74505805969E-08  0.10566000000E+00  0.10566000000E+00 0. -1.
     999900   -1    0    0    0    0 -0.00000000000E+00 -0.00000000000E+00 -0.74505805969E-08  0.93827000000E+00  0.93827000000E+00 0. -1.
     999902    2    1    2    0    0 -0.12692289033E-01 -0.20706364603E-01  0.61982431044E-02  0.10188647660E+01  0.10185564027E+01 0.  0.
     999903    2    3    3    0    0  0.63386876999E-01 -0.10786926882E+00  0.32682463663E-01  0.13089695958E+00  0.20302592536E-01 0.  0.
         14    1    1    2    0    0  0.12692289033E-01  0.20706364603E-01 -0.61982431044E-02  0.25065233962E-01  0.00000000000E+00 0.  1.
     999901    1    3    3    0    0 -0.76079166032E-01  0.87162904216E-01 -0.26484220559E-01  0.88796780646E+00  0.88000000000E+00 0.  1.
        -11    1    4    4    0    0  0.40443123036E-01 -0.80543789460E-01  0.30486345759E-01  0.95145292160E-01  0.51100000000E-03 0.  1.
         11    1    4    4    0    0  0.22943753962E-01 -0.27325479359E-01  0.21961179040E-02  0.35751667415E-01  0.51100000000E-03 0. -1.
</event>
<event>
 8    1  0.1083484E+005  0.1043930E+01  0.7957747E-01            NaN
         13   -1    0    0    0    0  0.00000000000E+00  0.00000000000E+00  0.74505805969E-08  0.10566000000E+00  0.10566000000E+00 0. -1.
     999900   -1    0    0    0    0 -0.00000000000E+00 -0.00000000000E+00 -0.74505805969E-08  0.93827000000E+00  0.93827000000E+00 0. -1.
     999902    2    1    2    0    0 -0.17190592946E-01 -0.37404647428E-02 -0.40400690474E-02  0.10258792460E+01  0.10257204286E+01 0.  0.
     999903    2    3    3    0    0 -0.13004468130E+00 -0.33417836665E-01  0.23754456415E-01  0.13774112199E+00  0.19492858826E-01 0.  0.
         14    1    1    2    0    0  0.17190592946E-01  0.37404647428E-02  0.40400690474E-02  0.18050754008E-01  0.00000000000E+00 0. -1.
     999901    1    3    3    0    0  0.11285408835E+00  0.29677371923E-01 -0.27794525462E-01  0.88813812400E+00  0.88000000000E+00 0. -1.
        -11    1    4    4    0    0 -0.39748715707E-02  0.11592771568E-02  0.35186798251E-02  0.54576328423E-02  0.51100000000E-03 0. -1.
         11    1    4    4    0    0 -0.12606980973E+00 -0.34577113822E-01  0.20235776589E-01  0.13228348915E+00  0.51100000000E-03 0.  1.
</event>
<event>
 8    1  0.1083484E+005  0.1043930E+01  0.7957747E-01            NaN
         13   -1    0    0    0    0  0.00000000000E+00  0.00000000000E+00  0.74505805969E-08  0.10566000000E+00  0.10566000000E+00 0. -1.
     999900   -1    0    0    0    0 -0.00000000000E+00 -0.00000000000E+00 -0.74505805969E-08  0.93827000000E+00  0.93827000000E+00 0.  1.
     999902    2    1    2    0    0  0.18203698235E-01 -0.51720534917E-02 -0.14552231931E-01  0.10200575845E+01  0.10197782031E+01 0.  0.
     999903    2    3    3    0    0  0.48497785832E-01  0.10922077146E+00 -0.50831346890E-01  0.13139588042E+00  0.19995985021E-01 0.  0.
         14    1    1    2    0    0 -0.18203698235E-01  0.51720534917E-02  0.14552231931E-01  0.23872415482E-01  0.00000000000E+00 0. -1.
     999901    1    3    3    0    0 -0.30294087597E-01 -0.11439282495E+00  0.36279114959E-01  0.88866170410E+00  0.88000000000E+00 0. -1.
        -11    1    4    4    0    0  0.43188563470E-01  0.79935261164E-01 -0.32821298574E-01  0.96604330922E-01  0.51100000000E-03 0. -1.
         11    1    4    4    0    0  0.53092223620E-02  0.29285510295E-01 -0.18010048316E-01  0.34791549501E-01  0.51100000000E-03 0.  1.
</event>
<event>
 8    1  0.1083484E+005  0.1043930E+01  0.7957747E-01            NaN
         13   -1    0    0    0    0  0.00000000000E+00  0.00000000000E+00  0.74505805969E-08  0.10566000000E+00  0.10566000000E+00 0.  1.
     999900   -1    0    0    0    0 -0.00000000000E+00 -0.00000000000E+00 -0.74505805969E-08  0.93827000000E+00  0.93827000000E+00 0. -1.
     999902    2    1    2    0    0  0.18736877901E-01  0.14715655650E-01  0.15256430700E-02  0.10200564016E+01  0.10197769921E+01 0.  0.
     999903    2    3    3    0    0 -0.11344953890E+00 -0.45528065966E-01  0.31046494566E-01  0.12765848840E+00  0.19728207424E-01 0.  0.
         14    1    1    2    0    0 -0.18736877901E-01 -0.14715655650E-01 -0.15256430700E-02  0.23873598419E-01  0.00000000000E+00 0.  1.
     999901    1    3    3    0    0  0.13218641680E+00  0.60243721616E-01 -0.29520851496E-01  0.89239791318E+00  0.88000000000E+00 0.  1.
        -11    1    4    4    0    0 -0.46515213177E-01 -0.12358741022E-01  0.20086590711E-01  0.52154920994E-01  0.51100000000E-03 0.  1.
         11    1    4    4    0    0 -0.66934325723E-01 -0.33169324944E-01  0.10959903855E-01  0.75503567404E-01  0.51100000000E-03 0. -1.
</event>
<event>
 8    1  0.1083484E+005  0.1043930E+01  0.7957747E-01            NaN
         13   -1    0    0    0    0  0.00000000000E+00  0.00000000000E+00  0.74505805969E-08  0.10566000000E+00  0.10566000000E+00 0. -1.
     999900   -1    0    0    0    0 -0.00000000000E+00 -0.00000000000E+00 -0.74505805969E-08  0.93827000000E+00  0.93827000000E+00 0.  1.
     999902    2    1    2    0    0 -0.17372573522E-01  0.14822654023E-01 -0.21457984113E-02  0.10209926542E+01  0.10207349695E+01 0.  0.
     999903    2    3    3    0    0  0.48953800784E-01 -0.11502519809E+00  0.21843670628E-01  0.12867256179E+00  0.21265262893E-01 0.  0.
         14    1    1    2    0    0  0.17372573522E-01 -0.14822654023E-01  0.21457984113E-02  0.22937345834E-01  0.00000000000E+00 0. -1.
     999901    1    3    3    0    0 -0.66326374306E-01  0.12984785211E+00 -0.23989469039E-01  0.89232009237E+00  0.88000000000E+00 0.  1.
        -11    1    4    4    0    0  0.25095171321E-01 -0.42582875829E-01  0.35440344983E-03  0.49431322664E-01  0.51100000000E-03 0.  1.
         11    1    4    4    0    0  0.23858629463E-01 -0.72442322258E-01  0.21489267178E-01  0.79241239130E-01  0.51100000000E-03 0. -1.
</event>
<event>
 8    1  0.1083484E+005  0.1043930E+01  0.7957747E-01            NaN
         13   -1    0    0    0    0  0.00000000000E+00  0.00000000000E+00  0.74505805969E-08  0.10566000000E+00  0.10566000000E+00 0.  1.
     999900   -1    0    0    0    0 -0.00000000000E+00 -0.00000000000E+00 -0.74505805969E-08  0.93827000000E+00  0.93827000000E+00 0. -1.
     999902    2    1    2    0    0  0.18729801913E-01  0.11930761559E-01 -0.30832885073E-02  0.10215100263E+01  0.10212639613E+01 0.  0.
     999903    2    3    3    0    0  0.20268372546E-01  0.10874041646E+00  0.71230298941E-01  0.13308614903E+00  0.20071932634E-01 0.  0.
         14    1    1    2    0    0 -0.18729801913E-01 -0.11930761559E-01  0.30832885073E-02  0.22419973664E-01  0.00000000000E+00 0.  1.
     999901    1    3    3    0    0 -0.15385706336E-02 -0.96809654901E-01 -0.74313587449E-01  0.88842387730E+00  0.88000000000E+00 0. -1.
        -11    1    4    4    0    0  0.23468483706E-01  0.96533771674E-01  0.66736114177E-01  0.11968086254E+00  0.51100000000E-03 0.  1.
         11    1    4    4    0    0 -0.32001111595E-02  0.12206644786E-01  0.44941847645E-02  0.13405286497E-01  0.51100000000E-03 0. -1.
</event>
<event>
 8    1  0.1083484E+005  0.1043930E+01  0.7957747E-01            NaN
         13   -1    0    0    0    0  0.00000000000E+00  0.00000000000E+00  0.74505805969E-08  0.10566000000E+00  0.10566000000E+00 0.  1.
     999900   -1    0    0    0    0 -0.00000000000E+00 -0.00000000000E+00 -0.74505805969E-08  0.93827000000E+00  0.93827000000E+00 0.  1.
     999902    2    1    2    0    0  0.17887777967E-01 -0.22421699093E-01  0.40616586767E-02  0.10149610121E+01  0.10145475118E+01 0.  0.
     999903    2    3    3    0    0 -0.10332720734E+00  0.88586031660E-03 -0.65279611526E-01  0.12364483542E+00  0.18690134286E-01 0.  0.
         14    1    1    2    0    0 -0.17887777967E-01  0.22421699093E-01 -0.40616586767E-02  0.28968987935E-01  0.00000000000E+00 0. -1.
     999901    1    3    3    0    0  0.12121498531E+00 -0.23307559409E-01  0.69341270203E-01  0.89131617664E+00  0.88000000000E+00 0. -1.
        -11    1    4    4    0    0 -0.91761971664E-01 -0.24312603266E-02 -0.63139479926E-01  0.11141375820E+00  0.51100000000E-03 0. -1.
         11    1    4    4    0    0 -0.11565235681E-01  0.33171206432E-02 -0.21401316003E-02  0.12231077221E-01  0.51100000000E-03 0.  1.
</event>
<event>
 8    1  0.1083484E+005  0.1043930E+01  0.7957747E-01            NaN
         13   -1    0    0    0    0  0.00000000000E+00  0.00000000000E+00  0.74505805969E-08  0.10566000000E+00  0.10566000000E+00 0.  1.
     999900   -1    0    0    0    0 -0.00000000000E+00 -0.00000000000E+00 -0.74505805969E-08  0.93827000000E+00  0.93827000000E+00 0. -1.
     999902    2    1    2    0    0 -0.16991406491E-01  0.17041020323E-01 -0.33245527782E-02  0.10196368545E+01  0.10193474178E+01 0.  0.
     999903    2    3    3    0    0 -0.12319080649E+00  0.33887183887E-02  0.42301564711E-01  0.13197338192E+00  0.20978392283E-01 0.  0.
         14    1    1    2    0    0  0.16991406491E-01 -0.17041020323E-01  0.33245527782E-02  0.24293145522E-01  0.00000000000E+00 0.  1.
     999901    1    3    3    0    0  0.10619940000E+00  0.13652301934E-01 -0.45626117489E-01  0.88766347255E+00  0.88000000000E+00 0. -1.
        -11    1    4    4    0    0 -0.33064569044E-01  0.10178856992E-01  0.10477356991E-01  0.36151223856E-01  0.51100000000E-03 0.  1.
         11    1    4    4    0    0 -0.90126237449E-01 -0.67901386031E-02  0.31824207719E-01  0.95822158068E-01  0.51100000000E-03 0. -1.
</event>
<event>
 8    1  0.1083484E+005  0.1043930E+01  0.7957747E-01            NaN
         13   -1    0    0    0    0  0.00000000000E+00  0.00000000000E+00  0.74505805969E-08  0.10566000000E+00  0.10566000000E+00 0. -1.
     999900   -1    0    0    0    0 -0.00000000000E+00 -0.00000000000E+00 -0.74505805969E-08  0.93827000000E+00  0.93827000000E+00 0. -1.
     999902    2    1    2    0    0 -0.18221652950E-01 -0.10723769481E-01 -0.96882788403E-02  0.10206729448E+01  0.10204079428E+01 0.  0.
     999903    2    3    3    0    0 -0.12503885854E+00 -0.37082225792E-01 -0.22526762190E-01  0.13372902875E+00  0.19136104647E-01 0.  0.
         14    1    1    2    0    0  0.18221652950E-01  0.10723769481E-01  0.96882788403E-02  0.23257055166E-01  0.00000000000E+00 0. -1.
     999901    1    3    3    0    0  0.10681720559E+00  0.26358456311E-01  0.12838483349E-01  0.88694391609E+00  0.88000000000E+00 0.  1.
        -11    1    4    4    0    0 -0.52881261956E-01 -0.21868556446E-01 -0.23601307832E-02  0.57275587866E-01  0.51100000000E-03 0. -1.
         11    1    4    4    0    0 -0.72157596581E-01 -0.15213669346E-01 -0.20166631407E-01  0.76453440881E-01  0.51100000000E-03 0.  1.
</event>
<event>
 8    1  0.1083484E+005  0.1043930E+01  0.7957747E-01            NaN
         13   -1    0    0    0    0  0.00000000000E+00  0.00000000000E+00  0.74505805969E-08  0.10566000000E+00  0.10566000000E+00 0. -1.
     999900   -1    0    0    0    0 -0.00000000000E+00 -0.00000000000E+00 -0.74505805969E-08  0.93827000000E+00  0.93827000000E+00 0.  1.
     999902    2    1    2    0    0  0.21733908976E-01 -0.80020506685E-02  0.63580299144E-02  0.10199129194E+01  0.10196301011E+01 0.  0.
     999903    2    3    3    0    0 -0.27994990371E-01  0.37033922357E-02  0.12569065611E+00  0.13039043153E+00  0.20151650046E-01 0.  0.
         14    1    1    2    0    0 -0.21733908976E-01  0.80020506685E-02 -0.63580299144E-02  0.24017080561E-01  0.00000000000E+00 0. -1.
     999901    1    3    3    0    0  0.49728899347E-01 -0.11705442904E-01 -0.11933262620E+00  0.88952248791E+00  0.88000000000E+00 0.  1.
        -11    1    4    4    0    0 -0.27150111190E-01 -0.28632312643E-02  0.11027660732E+00  0.11360685664E+00  0.51100000000E-03 0. -1.
         11    1    4    4    0    0 -0.84487918115E-03  0.65666234999E-02  0.15414048790E-01  0.16783574891E-01  0.51100000000E-03 0.  1.
</event>
<event>
 8    1  0.1083484E+005  0.1043930E+01  0.7957747E-01            NaN
         13   -1    0    0    0    0  0.00000000000E+00  0.00000000000E+00  0.74505805969E-08  0.10566000000E+00  0.10566000000E+00 0.  1.
     999900   -1    0    0    0    0 -0.00000000000E+00 -0.00000000000E+00 -0.74505805969E-08  0.93827000000E+00  0.93827000000E+00 0.  1.
     999902    2    1    2    0    0  0.27020343315E-01  0.26152201719E-02  0.65337839883E-02  0.10160081687E+01  0.10156244238E+01 0.  0.
     999903    2    3    3    0    0 -0.98710158349E-01  0.43874732593E-02  0.73476590595E-01  0.12455281970E+00  0.18752339740E-01 0.  0.
         14    1    1    2    0    0 -0.27020343315E-01 -0.26152201719E-02 -0.65337839883E-02  0.27921831291E-01  0.00000000000E+00 0.  1.
     999901    1    3    3    0    0  0.12573050166E+00 -0.17722530875E-02 -0.66942806606E-01  0.89145534901E+00  0.88000000000E+00 0. -1.
        -11    1    4    4    0    0 -0.73540417141E-01 -0.47113361026E-02  0.56432360394E-01  0.92818436001E-01  0.51100000000E-03 0. -1.
         11    1    4    4    0    0 -0.25169741208E-01  0.90988093619E-02  0.17044230201E-01  0.31734383694E-01  0.51100000000E-03 0.  1.
</event>
<event>
 8    1  0.1083484E+005  0.1043930E+01  0.7957747E-01            NaN
         13   -1    0    0    0    0  0.00000000000E+00  0.00000000000E+00  0.74505805969E-08  0.10566000000E+00  0.10566000000E+00 0.  1.
     999900   -1    0    0    0    0 -0.00000000000E+00 -0.00000000000E+00 -0.74505805969E-08  0.93827000000E+00  0.93827000000E+00 0. -1.
     999902    2    1    2    0    0  0.32023962219E-02 -0.21177413460E-01  0.10865045888E-01  0.10199136013E+01  0.10196307993E+01 0.  0.
     999903    2    3    3    0    0 -0.10216818959E+00 -0.38224555240E-01  0.70772177943E-01  0.13144163787E+00  0.19202796903E-01 0.  0.
         14    1    1    2    0    0 -0.32023962219E-02  0.21177413460E-01 -0.10865045888E-01  0.24016398660E-01  0.00000000000E+00 0.  1.
     999901    1    3    3    0    0  0.10537058581E+00  0.17047141780E-01 -0.59907132055E-01  0.88847196347E+00  0.88000000000E+00 0.  1.
        -11    1    4    4    0    0 -0.39835866081E-01 -0.10448093844E-01  0.36701660056E-01  0.55166401580E-01  0.51100000000E-03 0. -1.
         11    1    4    4    0    0 -0.62332323507E-01 -0.27776461397E-01  0.34070517887E-01  0.76275236293E-01  0.51100000000E-03 0.  1.
</event>
<event>
 8    1  0.1083484E+005  0.1043930E+01  0.7957747E-01            NaN
         13   -1    0    0    0    0  0.00000000000E+00  0.00000000000E+00  0.74505805969E-08  0.10566000000E+00  0.10566000000E+00 0.  1.
     999900   -1    0    0    0    0 -0.00000000000E+00 -0.00000000000E+00 -0.74505805969E-08  0.93827000000E+00  0.93827000000E+00 0.  1.
     999902    2    1    2    0    0 -0.98392975011E-02 -0.17375271453E-01 -0.12076929261E-01  0.10205941038E+01  0.10203272811E+01 0.  0.
     999903    2    3    3    0    0  0.18040212693E-01 -0.23250687336E-01  0.12452558913E+00  0.12959913427E+00  0.20573515035E-01 0.  0.
         14    1    1    2    0    0  0.98392975011E-02  0.17375271453E-01  0.12076929261E-01  0.23335896249E-01  0.00000000000E+00 0.  1.
     999901    1    3    3    0    0 -0.27879510194E-01  0.58754158837E-02 -0.13660251839E+00  0.89099496948E+00  0.88000000000E+00 0.  1.
        -11    1    4    4    0    0 -0.88077013946E-03 -0.15134124425E-01  0.47161643318E-01  0.49540884122E-01  0.51100000000E-03 0.  1.
         11    1    4    4    0    0  0.18920982833E-01 -0.81165629112E-02  0.77363945813E-01  0.80058250153E-01  0.51100000000E-03 0. -1.
</event>
<event>
 8    1  0.1083484E+005  0.1043930E+01  0.7957747E-01            NaN
         13   -1    0    0    0    0  0.00000000000E+00  0.00000000000E+00  0.74505805969E-08  0.10566000000E+00  0.10566000000E+00 0. -1.
     999900   -1    0    0    0    0 -0.00000000000E+00 -0.00000000000E+00 -0.74505805969E-08  0.93827000000E+00  0.93827000000E+00 0.  1.
     999902    2    1    2    0    0 -0.87671951313E-02 -0.13991384441E-01  0.17254694449E-01  0.10200480606E+01  0.10197684536E+01 0.  0.
     999903    2    3    3    0    0 -0.60908374425E-03  0.11697122455E+00  0.52461110930E-01  0.12962274004E+00  0.19163721396E-01 0.  0.
         14    1    1    2    0    0  0.87671951313E-02  0.13991384441E-01 -0.17254694449E-01  0.23881939402E-01  0.00000000000E+00 0.  1.
     999901    1    3    3    0    0 -0.81581113871E-02 -0.13096260900E+00 -0.35206416480E-01  0.89042532056E+00  0.88000000000E+00 0.  1.
        -11    1    4    4    0    0 -0.78244631895E-02  0.94831461291E-01  0.44081463991E-01  0.10486975190E+00  0.51100000000E-03 0. -1.
         11    1    4    4    0    0  0.72153794452E-02  0.22139763264E-01  0.83796469389E-02  0.24752988138E-01  0.51100000000E-03 0.  1.
</event>
<event>
 8    1  0.1083484E+005  0.1043930E+01  0.7957747E-01            NaN
         13   -1    0    0    0    0  0.00000000000E+00  0.00000000000E+00  0.74505805969E-08  0.10566000000E+00  0.10566000000E+00 0.  1.
     999900   -1    0    0    0    0 -0.00000000000E+00 -0.00000000000E+00 -0.74505805969E-08  0.93827000000E+00  0.93827000000E+00 0.  1.
     999902    2    1    2    0    0  0.12325990689E-02  0.16317791083E-01 -0.19742548753E-01  0.10182871094E+01  0.10179641837E+01 0.  0.
     999903    2    3    3    0    0 -0.12453863845E+00  0.18172113314E-01 -0.22497844141E-01  0.12933861015E+00  0.19550573273E-01 0.  0.
         14    1    1    2    0    0 -0.12325990689E-02 -0.16317791083E-01  0.19742548753E-01  0.25642890585E-01  0.00000000000E+00 0.  1.
     999901    1    3    3    0    0  0.12577123752E+00 -0.18543222316E-02  0.27552953879E-02  0.88894849927E+00  0.88000000000E+00 0. -1.
        -11    1    4    4    0    0 -0.52412611144E-01 -0.11566769769E-02 -0.51735474315E-02  0.52682505850E-01  0.51100000000E-03 0. -1.
         11    1    4    4    0    0 -0.72126027303E-01  0.19328790291E-01 -0.17324296710E-01  0.76656104298E-01  0.51100000000E-03 0.  1.
</event>
<event>
 8    1  0.1083484E+005  0.1043930E+01  0.7957747E-01            NaN
         13   -1    0    0    0    0  0.00000000000E+00  0.00000000000E+00  0.74505805969E-08  0.10566000000E+00  0.10566000000E+00 0. -1.
     999900   -1    0    0    0    0 -0.00000000000E+00 -0.00000000000E+00 -0.74505805969E-08  0.93827000000E+00  0.93827000000E+00 0.  1.
     999902    2    1    2    0    0  0.91562976455E-02  0.11865443886E-01  0.20202286668E-01  0.10187753000E+01  0.10184647038E+01 0.  0.
     999903    2    3    3    0    0 -0.12118844004E+00 -0.29806587325E-01  0.19352693514E-01  0.12819850341E+00  0.22028592416E-01 0.  0.
         14    1    1    2    0    0 -0.91562976455E-02 -0.11865443886E-01 -0.20202286668E-01  0.25154699994E-01  0.00000000000E+00 0.  1.
     999901    1    3    3    0    0  0.13034473768E+00  0.41672031211E-01  0.84959315410E-03  0.89057679660E+00  0.88000000000E+00 0. -1.
        -11    1    4    4    0    0 -0.41382569275E-01 -0.70708349648E-03  0.11082377872E-01  0.42849705100E-01  0.51100000000E-03 0. -1.
         11    1    4    4    0    0 -0.79805870761E-01 -0.29099503829E-01  0.82703156417E-02  0.85348798310E-01  0.51100000000E-03 0.  1.
</event>
<event>
 8    1  0.1083484E+005  0.1043930E+01  0.7957747E-01            NaN
         13   -1    0    0    0    0  0.00000000000E+00  0.00000000000E+00  0.74505805969E-08  0.10566000000E+00  0.10566000000E+00 0.  1.
     999900   -1    0    0    0    0 -0.00000000000E+00 -0.00000000000E+00 -0.74505805969E-08  0.93827000000E+00  0.93827000000E+00 0.  1.
     999902    2    1    2    0    0  0.53844098498E-02  0.18975072445E-01 -0.13559853390E-01  0.10199943599E+01  0.10197134790E+01 0.  0.
     999903    2    3    3    0    0  0.94615691455E-01 -0.77931137978E-01 -0.41692101779E-01  0.12974469904E+00  0.83704385938E-02 0.  0.
         14    1    1    2    0    0 -0.53844098498E-02 -0.18975072445E-01  0.13559853390E-01  0.23935640115E-01  0.00000000000E+00 0. -1.
     999901    1    3    3    0    0 -0.89231281605E-01  0.96906210423E-01  0.28132248389E-01  0.89024966085E+00  0.88000000000E+00 0.  1.
        -11    1    4    4    0    0  0.40006069723E-01 -0.32114033367E-01 -0.13190170227E-01  0.52972053627E-01  0.51100000000E-03 0.  1.
         11    1    4    4    0    0  0.54609621732E-01 -0.45817104611E-01 -0.28501931553E-01  0.76772645414E-01  0.51100000000E-03 0. -1.
</event>
<event>
 8    1  0.1083484E+005  0.1043930E+01  0.7957747E-01            NaN
         13   -1    0    0    0    0  0.00000000000E+00  0.00000000000E+00  0.74505805969E-08  0.10566000000E+00  0.10566000000E+00 0. -1.
     999900   -1    0    0    0    0 -0.00000000000E+00 -0.00000000000E+00 -0.74505805969E-08  0.93827000000E+00  0.93827000000E+00 0. -1.
     999902    2    1    2    0    0  0.23697579454E-01 -0.89767529124E-03  0.19364132174E-02  0.10201364969E+01  0.10198589812E+01 0.  0.
     999903    2    3    3    0    0 -0.22701332923E-01 -0.11314313627E+00 -0.56179846934E-01  0.12989529237E+00  0.19997299222E-01 0.  0.
         14    1    1    2    0    0 -0.23697579454E-01  0.89767529124E-03 -0.19364132174E-02  0.23793503085E-01  0.00000000000E+00 0. -1.
     999901    1    3    3    0    0  0.46398912378E-01  0.11224546098E+00  0.58116260151E-01  0.89024120455E+00  0.88000000000E+00 0.  1.
        -11    1    4    4    0    0 -0.10665775539E-01 -0.92085404331E-01 -0.47199238800E-01  0.10402648568E+00  0.51100000000E-03 0. -1.
         11    1    4    4    0    0 -0.12035557385E-01 -0.21057731939E-01 -0.89806081343E-02  0.25868806687E-01  0.51100000000E-03 0.  1.
</event>
<event>
 8    1  0.1083484E+005  0.1043930E+01  0.7957747E-01            NaN
         13   -1    0    0    0    0  0.00000000000E+00  0.00000000000E+00  0.74505805969E-08  0.10566000000E+00  0.10566000000E+00 0.  1.
     999900   -1    0    0    0    0 -0.00000000000E+00 -0.00000000000E+00 -0.74505805969E-08  0.93827000000E+00  0.93827000000E+00 0.  1.
     999902    2    1    2    0    0  0.67643025602E-02 -0.86726645435E-03  0.22768630654E-01  0.10201619862E+01  0.10198850717E+01 0.  0.
     999903    2    3    3    0    0  0.89070217700E-01 -0.80674932522E-01  0.51446140100E-01  0.13226225827E+00  0.20115944253E-01 0.  0.
         14    1    1    2    0    0 -0.67643025602E-02  0.86726645435E-03 -0.22768630654E-01  0.23768013844E-01  0.00000000000E+00 0. -1.
     999901    1    3    3    0    0 -0.82305915140E-01  0.79807666068E-01 -0.28677509447E-01  0.88789972789E+00  0.88000000000E+00 0.  1.
        -11    1    4    4    0    0  0.71265485400E-01 -0.71650197588E-01  0.37008436190E-01  0.10762158563E+00  0.51100000000E-03 0.  1.
         11    1    4    4    0    0  0.17804732300E-01 -0.90247349341E-02  0.14437703911E-01  0.24640672639E-01  0.51100000000E-03 0. -1.
</event>
<event>
 8    1  0.1083484E+005  0.1043930E+01  0.7957747E-01            NaN
         13   -1    0    0    0    0  0.00000000000E+00  0.00000000000E+00  0.74505805969E-08  0.10566000000E+00  0.10566000000E+00 0.  1.
     999900   -1    0    0    0    0 -0.00000000000E+00 -0.00000000000E+00 -0.74505805969E-08  0.93827000000E+00  0.93827000000E+00 0.  1.
     999902    2    1    2    0    0 -0.11962068388E-01 -0.31450895585E-02 -0.20248359935E-01  0.10202028268E+01  0.10199268744E+01 0.  0.
     999903    2    3    3    0    0  0.73525793821E-01 -0.50061325783E-01 -0.95219552687E-01  0.13164782706E+00  0.18767217668E-01 0.  0.
         14    1    1    2    0    0  0.11962068388E-01  0.31450895585E-02  0.20248359935E-01  0.23727173209E-01  0.00000000000E+00 0.  1.
     999901    1    3    3    0    0 -0.85487862209E-01  0.46916236224E-01  0.74971192752E-01  0.88855499973E+00  0.88000000000E+00 0. -1.
        -11    1    4    4    0    0  0.40357591159E-01 -0.21194529453E-01 -0.37152006792E-01  0.58808808630E-01  0.51100000000E-03 0. -1.
         11    1    4    4    0    0  0.33168202662E-01 -0.28866796330E-01 -0.58067545896E-01  0.72839018428E-01  0.51100000000E-03 0.  1.
</event>
<event>
 8    1  0.1083484E+005  0.1043930E+01  0.7957747E-01            NaN
         13   -1    0    0    0    0  0.00000000000E+00  0.00000000000E+00  0.74505805969E-08  0.10566000000E+00  0.10566000000E+00 0.  1.
     999900   -1    0    0    0    0 -0.00000000000E+00 -0.00000000000E+00 -0.74505805969E-08  0.93827000000E+00  0.93827000000E+00 0. -1.
     999902    2    1    2    0    0 -0.31429114475E-02  0.15480662172E-01  0.17247783365E-01  0.10205416519E+01  0.10202736145E+01 0.  0.
     999903    2    3    3    0    0 -0.77146189535E-02  0.81356310723E-02 -0.12662392458E+00  0.12881640371E+00  0.20840915337E-01 0.  0.
         14    1    1    2    0    0  0.31429114475E-02 -0.15480662172E-01 -0.17247783365E-01  0.23388348054E-01  0.00000000000E+00 0. -1.
     999901    1    3    3    0    0  0.45717075060E-02  0.73450310999E-02  0.14387170794E+00  0.89172524823E+00  0.88000000000E+00 0.  1.
        -11    1    4    4    0    0 -0.75968350942E-02  0.90722439639E-02 -0.30985779294E-01  0.33172234677E-01  0.51100000000E-03 0. -1.
         11    1    4    4    0    0 -0.11778385936E-03 -0.93661289160E-03 -0.95638145281E-01  0.95644169036E-01  0.51100000000E-03 0.  1.
</event>
<event>
 8    1  0.1083484E+005  0.1043930E+01  0.7957747E-01            NaN
         13   -1    0    0    0    0  0.00000000000E+00  0.00000000000E+00  0.74505805969E-08  0.10566000000E+00  0.10566000000E+00 0. -1.
     999900   -1    0    0    0    0 -0.00000000000E+00 -0.00000000000E+00 -0.74505805969E-08  0.93827000000E+00  0.93827000000E+00 0. -1.
     999902    2    1    2    0    0 -0.60500342391E-02 -0.12672397080E-01 -0.18693184923E-01  0.10205499289E+01  0.10202820834E+01 0.  0.
     999903    2    3    3    0    0 -0.99441217880E-01  0.66655443865E-01  0.45993710663E-01  0.12970807201E+00  0.19423143756E-01 0.  0.
         14    1    1    2    0    0  0.60500342391E-02  0.12672397080E-01  0.18693184923E-01  0.23380071099E-01  0.00000000000E+00 0. -1.
     999901    1    3    3    0    0  0.93391183641E-01 -0.79327840945E-01 -0.64686895586E-01  0.89084185689E+00  0.88000000000E+00 0. -1.
        -11    1    4    4    0    0 -0.19172215248E-01  0.18486577679E-01  0.33817745877E-02  0.26851907048E-01  0.51100000000E-03 0. -1.
         11    1    4    4    0    0 -0.80269002632E-01  0.48168866186E-01  0.42611936075E-01  0.10285616496E+00  0.51100000000E-03 0.  1.
</event>
<event>
 8    1  0.1083484E+005  0.1043930E+01  0.7957747E-01            NaN
         13   -1    0    0    0    0  0.00000000000E+00  0.00000000000E+00  0.74505805969E-08  0.10566000000E+00  0.10566000000E+00 0.  1.
     999900   -1    0    0    0    0 -0.00000000000E+00 -0.00000000000E+00 -0.74505805969E-08  0.93827000000E+00  0.93827000000E+00 0. -1.
     999902    2    1    2    0    0 -0.43183678008E-03 -0.19648603354E-01 -0.96737991461E-02  0.10220248297E+01  0.10217900548E+01 0.  0.
     999903    2    3    3    0    0  0.74166361783E-01 -0.10702487223E+00  0.24299499096E-01  0.13390676963E+00  0.19636313329E-01 0.  0.
         14    1    1    2    0    0  0.43183678008E-03  0.19648603354E-01  0.96737991461E-02  0.21905170319E-01  0.00000000000E+00 0.  1.
     999901    1    3    3    0    0 -0.74598198563E-01  0.87376268876E-01 -0.33973298242E-01  0.88811806005E+00  0.88000000000E+00 0.  1.
        -11    1    4    4    0    0  0.57098280461E-01 -0.91093450730E-01  0.25602401519E-01  0.11051685157E+00  0.51100000000E-03 0.  1.
         11    1    4    4    0    0  0.17068081322E-01 -0.15931421500E-01 -0.13029024229E-02  0.23389918058E-01  0.51100000000E-03 0. -1.
</event>
<event>
 8    1  0.1083484E+005  0.1043930E+01  0.7957747E-01            NaN
         13   -1    0    0    0    0  0.00000000000E+00  0.00000000000E+00  0.74505805969E-08  0.10566000000E+00  0.10566000000E+00 0.  1.
     999900   -1    0    0    0    0 -0.00000000000E+00 -0.00000000000E+00 -0.74505805969E-08  0.93827000000E+00  0.93827000000E+00 0. -1.
     999902    2    1    2    0    0  0.56881272938E-02 -0.15951115166E-01  0.11244559430E-01  0.10236018672E+01  0.10233999949E+01 0.  0.
     999903    2    3    3    0    0  0.31440269996E-01 -0.78661240486E-01  0.10466461493E+00  0.13606424012E+00  0.19563089960E-01 0.  0.
         14    1    1    2    0    0 -0.56881272938E-02  0.15951115166E-01 -0.11244559430E-01  0.20328132820E-01  0.00000000000E+00 0. -1.
     999901    1    3    3    0    0 -0.25752142702E-01  0.62710125320E-01 -0.93420055504E-01  0.88753762706E+00  0.88000000000E+00 0. -1.
        -11    1    4    4    0    0  0.17403841478E-01 -0.48430909019E-01  0.77654843914E-01  0.93161057051E-01  0.51100000000E-03 0. -1.
         11    1    4    4    0    0  0.14036428518E-01 -0.30230331467E-01  0.27009771020E-01  0.42903183072E-01  0.51100000000E-03 0.  1.
</event>
<event>
 8    1  0.1083484E+005  0.1043930E+01  0.7957747E-01            NaN
         13   -1    0    0    0    0  0.00000000000E+00  0.00000000000E+00  0.74505805969E-08  0.10566000000E+00  0.10566000000E+00 0. -1.
     999900   -1    0    0    0    0 -0.00000000000E+00 -0.00000000000E+00 -0.74505805969E-08  0.93827000000E+00  0.93827000000E+00 0. -1.
     999902    2    1    2    0    0  0.84432592076E-02 -0.20950491096E-02  0.21927855749E-01  0.10203395631E+01  0.10200668190E+01 0.  0.
     999903    2    3    3    0    0  0.11013681116E+00  0.51277004159E-01  0.48988935363E-01  0.13246431473E+00  0.19683255869E-01 0.  0.
         14    1    1    2    0    0 -0.84432592076E-02  0.20950491096E-02 -0.21927855749E-01  0.23590436930E-01  0.00000000000E+00 0.  1.
     999901    1    3    3    0    0 -0.10169355195E+00 -0.53372053269E-01 -0.27061079615E-01  0.88787524834E+00  0.88000000000E+00 0.  1.
        -11    1    4    4    0    0  0.70071181864E-01  0.41252565381E-01  0.27049603621E-01  0.85695314081E-01  0.51100000000E-03 0. -1.
         11    1    4    4    0    0  0.40065629297E-01  0.10024438778E-01  0.21939331742E-01  0.46769000652E-01  0.51100000000E-03 0.  1.
</event>
<event>
 8    1  0.1083484E+005  0.1043930E+01  0.7957747E-01            NaN
         13   -1    0    0    0    0  0.00000000000E+00  0.00000000000E+00  0.74505805969E-08  0.10566000000E+00  0.10566000000E+00 0. -1.
     999900   -1    0    0    0    0 -0.00000000000E+00 -0.00000000000E+00 -0.74505805969E-08  0.93827000000E+00  0.93827000000E+00 0. -1.
     999902    2    1    2    0    0 -0.37591960272E-02 -0.15684881386E-01 -0.18920233369E-01  0.10190679347E+01  0.10187646113E+01 0.  0.
     999903    2    3    3    0    0 -0.11843902333E+00 -0.20984018434E-01 -0.48016250728E-01  0.13113431003E+00  0.20555185616E-01 0.  0.
         14    1    1    2    0    0  0.37591960272E-02  0.15684881386E-01  0.18920233369E-01  0.24862065272E-01  0.00000000000E+00 0. -1.
     999901    1    3    3    0    0  0.11467982730E+00  0.52991370476E-02  0.29096017360E-01  0.88793362470E+00  0.88000000000E+00 0.  1.
        -11    1    4    4    0    0 -0.86023121404E-01 -0.19336125820E-01 -0.26049477469E-01  0.91938564135E-01  0.51100000000E-03 0. -1.
         11    1    4    4    0    0 -0.32415901927E-01 -0.16478926134E-02 -0.21966773259E-01  0.39195745895E-01  0.51100000000E-03 0.  1.
</event>
<event>
 8    1  0.1083484E+005  0.1043930E+01  0.7957747E-01            NaN
         13   -1    0    0    0    0  0.00000000000E+00  0.00000000000E+00  0.74505805969E-08  0.10566000000E+00  0.10566000000E+00 0. -1.
     999900   -1    0    0    0    0 -0.00000000000E+00 -0.00000000000E+00 -0.74505805969E-08  0.93827000000E+00  0.93827000000E+00 0.  1.
     999902    2    1    2    0    0  0.17950680938E-01 -0.14243562436E-01  0.14231143377E-02  0.10209706605E+01  0.10207124758E+01 0.  0.
     999903    2    3    3    0    0  0.37239014163E-01  0.78009624726E-02 -0.12445966792E+00  0.13153011960E+00  0.19035866989E-01 0.  0.
         14    1    1    2    0    0 -0.17950680938E-01  0.14243562436E-01 -0.14231143377E-02  0.22959339525E-01  0.00000000000E+00 0. -1.
     999901    1    3    3    0    0 -0.19288333226E-01 -0.22044524909E-01  0.12588278226E+00  0.88944054087E+00  0.88000000000E+00 0. -1.
        -11    1    4    4    0    0  0.19247095079E-01  0.10686039086E-01 -0.88696696367E-01  0.91389316486E-01  0.51100000000E-03 0. -1.
         11    1    4    4    0    0  0.17991919084E-01 -0.28850766136E-02 -0.35762971556E-01  0.40140803117E-01  0.51100000000E-03 0.  1.
</event>
<event>
 8    1  0.1083484E+005  0.1043930E+01  0.7957747E-01            NaN
         13   -1    0    0    0    0  0.00000000000E+00  0.00000000000E+00  0.74505805969E-08  0.10566000000E+00  0.10566000000E+00 0.  1.
     999900   -1    0    0    0    0 -0.00000000000E+00 -0.00000000000E+00 -0.74505805969E-08  0.93827000000E+00  0.93827000000E+00 0.  1.
     999902    2    1    2    0    0  0.13671700540E-01 -0.14673365798E-01  0.13899230839E-01  0.10195289411E+01  0.10192368959E+01 0.  0.
     999903    2    3    3    0    0  0.52783613197E-01  0.10933898938E+00 -0.37121957495E-01  0.12851156322E+00  0.19901199252E-01 0.  0.
         14    1    1    2    0    0 -0.13671700540E-01  0.14673365798E-01 -0.13899230839E-01  0.24401058941E-01  0.00000000000E+00 0.  1.
     999901    1    3    3    0    0 -0.39111912658E-01 -0.12401235518E+00  0.51021188335E-01  0.89101737784E+00  0.88000000000E+00 0. -1.
        -11    1    4    4    0    0  0.99198184703E-02  0.39059945265E-01 -0.73209406669E-02  0.40962658798E-01  0.51100000000E-03 0.  1.
         11    1    4    4    0    0  0.42863794727E-01  0.70279044119E-01 -0.29801016829E-01  0.87548904423E-01  0.51100000000E-03 0. -1.
</event>
<event>
 8    1  0.1083484E+005  0.1043930E+01  0.7957747E-01            NaN
         13   -1    0    0    0    0  0.00000000000E+00  0.00000000000E+00  0.74505805969E-08  0.10566000000E+00  0.10566000000E+00 0. -1.
     999900   -1    0    0    0    0 -0.00000000000E+00 -0.00000000000E+00 -0.74505805969E-08  0.93827000000E+00  0.93827000000E+00 0. -1.
     999902    2    1    2    0    0  0.18505323474E-01  0.37482566791E-02 -0.13815089435E-01  0.10205344209E+01  0.10202662158E+01 0.  0.
     999903    2    3    3    0    0 -0.85743200554E-02  0.42934265990E-01 -0.12334092400E+00  0.13246642866E+00  0.20432841888E-01 0.  0.
         14    1    1    2    0    0 -0.18505323474E-01 -0.37482566791E-02  0.13815089435E-01  0.23395579094E-01  0.00000000000E+00 0.  1.
     999901    1    3    3    0    0  0.27079643530E-01 -0.39186009311E-01  0.10952583456E+00  0.88806799225E+00  0.88000000000E+00 0.  1.
        -11    1    4    4    0    0 -0.96621115195E-02  0.27277060688E-01 -0.52934654366E-01  0.60330201331E-01  0.51100000000E-03 0.  1.
         11    1    4    4    0    0  0.10877914640E-02  0.15657205302E-01 -0.70406269634E-01  0.72136227327E-01  0.51100000000E-03 0. -1.
</event>
<event>
 8    1  0.1083484E+005  0.1043930E+01  0.7957747E-01            NaN
         13   -1    0    0    0    0  0.00000000000E+00  0.00000000000E+00  0.74505805969E-08  0.10566000000E+00  0.10566000000E+00 0.  1.
     999900   -1    0    0    0    0 -0.00000000000E+00 -0.00000000000E+00 -0.74505805969E-08  0.93827000000E+00  0.93827000000E+00 0.  1.
     999902    2    1    2    0    0 -0.58501022182E-02 -0.20266949182E-01 -0.13796081020E-03  0.10228351675E+01  0.10226176157E+01 0.  0.
     999903    2    3    3    0    0  0.29756187996E-01 -0.11803245268E+00 -0.54721396006E-01  0.13502592392E+00  0.20505568560E-01 0.  0.
         14    1    1    2    0    0  0.58501022182E-02  0.20266949182E-01  0.13796081020E-03  0.21094832503E-01  0.00000000000E+00 0. -1.
     999901    1    3    3    0    0 -0.35606290214E-01  0.97765503493E-01  0.54583435196E-01  0.88780924357E+00  0.88000000000E+00 0. -1.
        -11    1    4    4    0    0  0.62042840056E-02 -0.57183442872E-01 -0.18649781456E-01  0.60469122270E-01  0.51100000000E-03 0. -1.
         11    1    4    4    0    0  0.23551903990E-01 -0.60849009804E-01 -0.36071614550E-01  0.74556801655E-01  0.51100000000E-03 0.  1.
</event>
<event>
 8    1  0.1083484E+005  0.1043930E+01  0.7957747E-01            NaN
         13   -1    0    0    0    0  0.00000000000E+00  0.00000000000E+00  0.74505805969E-08  0.10566000000E+00  0.10566000000E+00 0. -1.
     999900   -1    0    0    0    0 -0.00000000000E+00 -0.00000000000E+00 -0.74505805969E-08  0.93827000000E+00  0.93827000000E+00 0. -1.
     999902    2    1    2    0    0 -0.23718572336E-01 -0.48213892777E-03  0.28897945403E-02  0.10200311707E+01  0.10197511633E+01 0.  0.
     999903    2    3    3    0    0 -0.23917825617E-01 -0.38852344056E-01 -0.12055197947E+00  0.13058742094E+00  0.20945828519E-01 0.  0.
         14    1    1    2    0    0  0.23718572336E-01  0.48213892777E-03 -0.28897945403E-02  0.23898829346E-01  0.00000000000E+00 0.  1.
     999901    1    3    3    0    0  0.19925328044E-03  0.38370205128E-01  0.12344177401E+00  0.88944374972E+00  0.88000000000E+00 0.  1.
        -11    1    4    4    0    0 -0.21966042398E-01 -0.21540072357E-01 -0.58046136874E-01  0.65697008020E-01  0.51100000000E-03 0.  1.
         11    1    4    4    0    0 -0.19517832184E-02 -0.17312271699E-01 -0.62505842593E-01  0.64890412915E-01  0.51100000000E-03 0. -1.
</event>
<event>
 8    1  0.1083484E+005  0.1043930E+01  0.7957747E-01            NaN
         13   -1    0    0    0    0  0.00000000000E+00  0.00000000000E+00  0.74505805969E-08  0.10566000000E+00  0.10566000000E+00 0. -1.
     999900   -1    0    0    0    0 -0.00000000000E+00 -0.00000000000E+00 -0.74505805969E-08  0.93827000000E+00  0.93827000000E+00 0. -1.
     999902    2    1    2    0    0 -0.87046358224E-02 -0.10456868982E-01  0.20075566771E-01  0.10196782954E+01  0.10193898572E+01 0.  0.
     999903    2    3    3    0    0 -0.90878985188E-01  0.74916748966E-01 -0.49008229974E-01  0.12905275722E+00  0.19526861379E-01 0.  0.
         14    1    1    2    0    0  0.87046358224E-02  0.10456868982E-01 -0.20075566771E-01  0.24251704576E-01  0.00000000000E+00 0.  1.
     999901    1    3    3    0    0  0.82174349366E-01 -0.85373617948E-01  0.69083796745E-01  0.89062553821E+00  0.88000000000E+00 0.  1.
        -11    1    4    4    0    0 -0.46026445660E-01  0.31546579063E-01 -0.32235636163E-01  0.64443911353E-01  0.51100000000E-03 0.  1.
         11    1    4    4    0    0 -0.44852539528E-01  0.43370169903E-01 -0.16772593811E-01  0.64608845863E-01  0.51100000000E-03 0. -1.
</event>
<event>
 8    1  0.1083484E+005  0.1043930E+01  0.7957747E-01            NaN
         13   -1    0    0    0    0  0.00000000000E+00  0.00000000000E+00  0.74505805969E-08  0.10566000000E+00  0.10566000000E+00 0. -1.
     999900   -1    0    0    0    0 -0.00000000000E+00 -0.00000000000E+00 -0.74505805969E-08  0.93827000000E+00  0.93827000000E+00 0. -1.
     999902    2    1    2    0    0 -0.79898715910E-03  0.24532589967E-01 -0.41176841544E-02  0.10190414148E+01  0.10187374359E+01 0.  0.
     999903    2    3    3    0    0 -0.45337511632E-01  0.69566821232E-01 -0.10002014679E+00  0.13156800984E+00  0.20275080085E-01 0.  0.
         14    1    1    2    0    0  0.79898715910E-03 -0.24532589967E-01  0.41176841544E-02  0.24888585210E-01  0.00000000000E+00 0. -1.
     999901    1    3    3    0    0  0.44538524473E-01 -0.45034231266E-01  0.95902462638E-01  0.88747340495E+00  0.88000000000E+00 0.  1.
        -11    1    4    4    0    0 -0.26851766020E-01  0.54531415050E-01 -0.79787261884E-01  0.10030434111E+00  0.51100000000E-03 0. -1.
         11    1    4    4    0    0 -0.18485745612E-01  0.15035406182E-01 -0.20232884908E-01  0.31263668732E-01  0.51100000000E-03 0.  1.
</event>
<event>
 8    1  0.1083484E+005  0.1043930E+01  0.7957747E-01            NaN
         13   -1    0    0    0    0  0.00000000000E+00  0.00000000000E+00  0.74505805969E-08  0.10566000000E+00  0.10566000000E+00 0. -1.
     999900   -1    0    0    0    0 -0.00000000000E+00 -0.00000000000E+00 -0.74505805969E-08  0.93827000000E+00  0.93827000000E+00 0. -1.
     999902    2    1    2    0    0 -0.99766754081E-02 -0.10882238933E-01 -0.21217414829E-01  0.10180816757E+01  0.10177534881E+01 0.  0.
     999903    2    3    3    0    0 -0.21449816446E-01  0.44584919537E-01  0.11409743922E+00  0.12593911515E+00  0.19862663804E-01 0.  0.
         14    1    1    2    0    0  0.99766754081E-02  0.10882238933E-01  0.21217414829E-01  0.25848324286E-01  0.00000000000E+00 0. -1.
     999901    1    3    3    0    0  0.11473141037E-01 -0.55467158470E-01 -0.13531485405E+00  0.89214256056E+00  0.88000000000E+00 0. -1.
        -11    1    4    4    0    0 -0.89314459312E-02  0.27132568113E-01  0.42673417865E-01  0.51353954980E-01  0.51100000000E-03 0.  1.
         11    1    4    4    0    0 -0.12518370514E-01  0.17452351424E-01  0.71424021356E-01  0.74585160174E-01  0.51100000000E-03 0. -1.
</event>
<event>
 8    1  0.1083484E+005  0.1043930E+01  0.7957747E-01            NaN
         13   -1    0    0    0    0  0.00000000000E+00  0.00000000000E+00  0.74505805969E-08  0.10566000000E+00  0.10566000000E+00 0. -1.
     999900   -1    0    0    0    0 -0.00000000000E+00 -0.00000000000E+00 -0.74505805969E-08  0.93827000000E+00  0.93827000000E+00 0.  1.
     999902    2    1    2    0    0  0.11496521517E-01 -0.16198763787E-01 -0.10341172579E-01  0.10215355854E+01  0.10212900873E+01 0.  0.
     999903    2    3    3    0    0  0.40811611080E-01  0.32631408283E-01 -0.12047798602E+00  0.13284335641E+00  0.20050332231E-01 0.  0.
         14    1    1    2    0    0 -0.11496521517E-01  0.16198763787E-01  0.10341172579E-01  0.22394414605E-01  0.00000000000E+00 0.  1.
     999901    1    3    3    0    0 -0.29315089563E-01 -0.48830172069E-01  0.11013681344E+00  0.88869222898E+00  0.88000000000E+00 0. -1.
        -11    1    4    4    0    0  0.75116341756E-02 -0.21184267517E-02 -0.15814751507E-01  0.17643125180E-01  0.51100000000E-03 0. -1.
         11    1    4    4    0    0  0.33299976904E-01  0.34749835034E-01 -0.10466323451E+00  0.11520023123E+00  0.51100000000E-03 0.  1.
</event>
<event>
 8    1  0.1083484E+005  0.1043930E+01  0.7957747E-01            NaN
         13   -1    0    0    0    0  0.00000000000E+00  0.00000000000E+00  0.74505805969E-08  0.10566000000E+00  0.10566000000E+00 0.  1.
     999900   -1    0    0    0    0 -0.00000000000E+00 -0.00000000000E+00 -0.74505805969E-08  0.93827000000E+00  0.93827000000E+00 0.  1.
     999902    2    1    2    0    0  0.58683377194E-02 -0.25050630514E-02  0.23573719397E-01  0.10195080227E+01  0.10192154705E+01 0.  0.
     999903    2    3    3    0    0  0.62270260891E-01 -0.98267205444E-01 -0.52574326912E-01  0.12925519918E+00  0.20219238530E-01 0.  0.
         14    1    1    2    0    0 -0.58683377194E-02  0.25050630514E-02 -0.23573719397E-01  0.24421977289E-01  0.00000000000E+00 0. -1.
     999901    1    3    3    0    0 -0.56401923172E-01  0.95762142393E-01  0.76148046309E-01  0.89025282353E+00  0.88000000000E+00 0. -1.
        -11    1    4    4    0    0  0.41955873491E-01 -0.68034913124E-01 -0.25615026642E-01  0.83937092129E-01  0.51100000000E-03 0.  1.
         11    1    4    4    0    0  0.20314387401E-01 -0.30232292321E-01 -0.26959300270E-01  0.45318107048E-01  0.51100000000E-03 0. -1.
</event>
<event>
 8    1  0.1083484E+005  0.1043930E+01  0.7957747E-01            NaN
         13   -1    0    0    0    0  0.00000000000E+00  0.00000000000E+00  0.74505805969E-08  0.10566000000E+00  0.10566000000E+00 0.  1.
     999900   -1    0    0    0    0 -0.00000000000E+00 -0.00000000000E+00 -0.74505805969E-08  0.93827000000E+00  0.93827000000E+00 0.  1.
     999902    2    1    2    0    0  0.20857643559E-01  0.45597220715E-02 -0.63137871168E-02  0.10216657626E+01  0.10214231416E+01 0.  0.
     999903    2    3    3    0    0 -0.10239567513E+00 -0.74045900901E-01 -0.20016020001E-01  0.12950099320E+00  0.20054836249E-01 0.  0.
         14    1    1    2    0    0 -0.20857643559E-01 -0.45597220715E-02  0.63137871168E-02  0.22264237422E-01  0.00000000000E+00 0.  1.
     999901    1    3    3    0    0  0.12325331869E+00  0.78605622972E-01  0.13702232884E-01  0.89216476938E+00  0.88000000000E+00 0. -1.
        -11    1    4    4    0    0 -0.65407643464E-01 -0.35301811178E-01 -0.13405438945E-01  0.75527111757E-01  0.51100000000E-03 0. -1.
         11    1    4    4    0    0 -0.36988031670E-01 -0.38744089723E-01 -0.66105810559E-02  0.53973881444E-01  0.51100000000E-03 0.  1.
</event>
<event>
 8    1  0.1083484E+005  0.1043930E+01  0.7957747E-01            NaN
         13   -1    0    0    0    0  0.00000000000E+00  0.00000000000E+00  0.74505805969E-08  0.10566000000E+00  0.10566000000E+00 0. -1.
     999900   -1    0    0    0    0 -0.00000000000E+00 -0.00000000000E+00 -0.74505805969E-08  0.93827000000E+00  0.93827000000E+00 0. -1.
     999902    2    1    2    0    0 -0.63723344783E-02 -0.14779551251E-01 -0.17067793954E-01  0.10204704311E+01  0.10202007398E+01 0.  0.
     999903    2    3    3    0    0  0.46526645559E-01 -0.11627753265E+00  0.34315465667E-01  0.13157202202E+00  0.21176695869E-01 0.  0.
         14    1    1    2    0    0  0.63723344783E-02  0.14779551251E-01  0.17067793954E-01  0.23459568887E-01  0.00000000000E+00 0. -1.
     999901    1    3    3    0    0 -0.52898980037E-01  0.10149798140E+00 -0.51383259621E-01  0.88889840909E+00  0.88000000000E+00 0. -1.
        -11    1    4    4    0    0  0.18494870646E-01 -0.30743904760E-01  0.17814169121E-01  0.40060624840E-01  0.51100000000E-03 0.  1.
         11    1    4    4    0    0  0.28031774913E-01 -0.85533627893E-01  0.16501296546E-01  0.91511397181E-01  0.51100000000E-03 0. -1.
</event>
<event>
 8    1  0.1083484E+005  0.1043930E+01  0.7957747E-01            NaN
         13   -1    0    0    0    0  0.00000000000E+00  0.00000000000E+00  0.74505805969E-08  0.10566000000E+00  0.10566000000E+00 0.  1.
     999900   -1    0    0    0    0 -0.00000000000E+00 -0.00000000000E+00 -0.74505805969E-08  0.93827000000E+00  0.93827000000E+00 0.  1.
     999902    2    1    2    0    0  0.12541171477E-01  0.17902672963E-01 -0.90343388317E-02  0.10202782356E+01  0.10200040549E+01 0.  0.
     999903    2    3    3    0    0 -0.54079393073E-01  0.46470718230E-01  0.10660884098E+00  0.12975716461E+00  0.19681676362E-01 0.  0.
         14    1    1    2    0    0 -0.12541171477E-01 -0.17902672963E-01  0.90343388317E-02  0.23651764402E-01  0.00000000000E+00 0.  1.
     999901    1    3    3    0    0  0.66620564549E-01 -0.28568045268E-01 -0.11564317982E+00  0.89052107099E+00  0.88000000000E+00 0.  1.
        -11    1    4    4    0    0 -0.32323776432E-01  0.26096591872E-01  0.78335933576E-01  0.88671518766E-01  0.51100000000E-03 0. -1.
         11    1    4    4    0    0 -0.21755616641E-01  0.20374126358E-01  0.28272907408E-01  0.41085645846E-01  0.51100000000E-03 0.  1.
</event>
<event>
 8    1  0.1083484E+005  0.1043930E+01  0.7957747E-01            NaN
         13   -1    0    0    0    0  0.00000000000E+00  0.00000000000E+00  0.74505805969E-08  0.10566000000E+00  0.10566000000E+00 0.  1.
     999900   -1    0    0    0    0 -0.00000000000E+00 -0.00000000000E+00 -0.74505805969E-08  0.93827000000E+00  0.93827000000E+00 0. -1.
     999902    2    1    2    0    0  0.62263521329E-02  0.75504376194E-02  0.25305270326E-01  0.10167982239E+01  0.10164361735E+01 0.  0.
     999903    2    3    3    0    0 -0.66312580068E-01 -0.43041697593E-01 -0.94044319780E-01  0.12434890572E+00  0.19192974319E-01 0.  0.
         14    1    1    2    0    0 -0.62263521329E-02 -0.75504376194E-02 -0.25305270326E-01  0.27131776120E-01  0.00000000000E+00 0. -1.
     999901    1    3    3    0    0  0.72538932201E-01  0.50592135213E-01  0.11934959011E+00  0.89244931816E+00  0.88000000000E+00 0.  1.
        -11    1    4    4    0    0 -0.21777120127E-01 -0.25326965963E-01 -0.37452043062E-01  0.50185802937E-01  0.51100000000E-03 0.  1.
         11    1    4    4    0    0 -0.44535459940E-01 -0.17714731630E-01 -0.56592276718E-01  0.74163102780E-01  0.51100000000E-03 0. -1.
</event>
<event>
 8    1  0.1083484E+005  0.1043930E+01  0.7957747E-01            NaN
         13   -1    0    0    0    0  0.00000000000E+00  0.00000000000E+00  0.74505805969E-08  0.10566000000E+00  0.10566000000E+00 0.  1.
     999900   -1    0    0    0    0 -0.00000000000E+00 -0.00000000000E+00 -0.74505805969E-08  0.93827000000E+00  0.93827000000E+00 0.  1.
     999902    2    1    2    0    0 -0.23054928169E-01  0.51473162968E-02  0.85944152017E-03  0.10202918271E+01  0.10200179652E+01 0.  0.
     999903    2    3    3    0    0 -0.33014188586E-01 -0.11238007666E+00  0.54858129695E-01  0.13078199957E+00  0.19372628595E-01 0.  0.
         14    1    1    2    0    0  0.23054928169E-01 -0.51473162968E-02 -0.85944152017E-03  0.23638172892E-01  0.00000000000E+00 0.  1.
     999901    1    3    3    0    0  0.99592604175E-02  0.11752739296E+00 -0.53998688175E-01  0.88950982754E+00  0.88000000000E+00 0. -1.
        -11    1    4    4    0    0 -0.25108584150E-01 -0.90985753146E-01  0.52071015184E-01  0.10779842307E+00  0.51100000000E-03 0. -1.
         11    1    4    4    0    0 -0.79056044365E-02 -0.21394323518E-01  0.27871145109E-02  0.22983576497E-01  0.51100000000E-03 0.  1.
</event>
<event>
 8    1  0.1083484E+005  0.1043930E+01  0.7957747E-01            NaN
         13   -1    0    0    0    0  0.00000000000E+00  0.00000000000E+00  0.74505805969E-08  0.10566000000E+00  0.10566000000E+00 0. -1.
     999900   -1    0    0    0    0 -0.00000000000E+00 -0.00000000000E+00 -0.74505805969E-08  0.93827000000E+00  0.93827000000E+00 0. -1.
     999902    2    1    2    0    0  0.51056754271E-02  0.43971678389E-02  0.22396631394E-01  0.10205417101E+01  0.10202736740E+01 0.  0.
     999903    2    3    3    0    0 -0.86906499612E-01  0.94973914998E-01  0.14091135124E-01  0.13108155431E+00  0.20273864582E-01 0.  0.
         14    1    1    2    0    0 -0.51056754271E-02 -0.43971678389E-02 -0.22396631394E-01  0.23388289898E-01  0.00000000000E+00 0.  1.
     999901    1    3    3    0    0  0.92012175039E-01 -0.90576747159E-01  0.83054962702E-02  0.88946015580E+00  0.88000000000E+00 0. -1.
        -11    1    4    4    0    0 -0.41788137997E-01  0.38927192930E-01  0.15272892382E-01  0.59119346997E-01  0.51100000000E-03 0.  1.
         11    1    4    4    0    0 -0.45118361615E-01  0.56046722068E-01 -0.11817572581E-02  0.71962207308E-01  0.51100000000E-03 0. -1.
</event>
<event>
 8    1  0.1083484E+005  0.1043930E+01  0.7957747E-01            NaN
         13   -1    0    0    0    0  0.00000000000E+00  0.00000000000E+00  0.74505805969E-08  0.10566000000E+00  0.10566000000E+00 0.  1.
     999900   -1    0    0    0    0 -0.00000000000E+00 -0.00000000000E+00 -0.74505805969E-08  0.93827000000E+00  0.93827000000E+00 0.  1.
     999902    2    1    2    0    0 -0.12402272620E-01 -0.18967978760E-01 -0.67910830911E-02  0.10202716105E+01  0.10199972744E+01 0.  0.
     999903    2    3    3    0    0 -0.19856108773E-01  0.12402505771E+00  0.17330645790E-01  0.12837227427E+00  0.20065132002E-01 0.  0.
         14    1    1    2    0    0  0.12402272620E-01  0.18967978760E-01  0.67910830911E-02  0.23658389504E-01  0.00000000000E+00 0.  1.
     999901    1    3    3    0    0  0.74538361532E-02 -0.14299303647E+00 -0.24121728881E-01  0.89189933622E+00  0.88000000000E+00 0. -1.
        -11    1    4    4    0    0 -0.13663376686E-01  0.66107778012E-01  0.18895681742E-01  0.70101598310E-01  0.51100000000E-03 0.  1.
         11    1    4    4    0    0 -0.61927320875E-02  0.57917279700E-01 -0.15650359520E-02  0.58270675962E-01  0.51100000000E-03 0. -1.
</event>
<event>
 8    1  0.1083484E+005  0.1043930E+01  0.7957747E-01            NaN
         13   -1    0    0    0    0  0.00000000000E+00  0.00000000000E+00  0.74505805969E-08  0.10566000000E+00  0.10566000000E+00 0. -1.
     999900   -1    0    0    0    0 -0.00000000000E+00 -0.00000000000E+00 -0.74505805969E-08  0.93827000000E+00  0.93827000000E+00 0.  1.
     999902    2    1    2    0    0 -0.21310458057E-01  0.65235255419E-02 -0.71627875194E-02  0.10205206529E+01  0.10202521283E+01 0.  0.
     999903    2    3    3    0    0  0.33412994911E-01  0.40226182654E-01 -0.11867427536E+00  0.13115833226E+00  0.19604858812E-01 0.  0.
         14    1    1    2    0    0  0.21310458057E-01 -0.65235255419E-02  0.71627875194E-02  0.23409347132E-01  0.00000000000E+00 0. -1.
     999901    1    3    3    0    0 -0.54723452968E-01 -0.33702657112E-01  0.11151148784E+00  0.88936232061E+00  0.88000000000E+00 0. -1.
        -11    1    4    4    0    0  0.27078545106E-02  0.14411186166E-01 -0.44114829799E-01  0.46490795777E-01  0.51100000000E-03 0. -1.
         11    1    4    4    0    0  0.30705140400E-01  0.25814996488E-01 -0.74559445559E-01  0.84667536480E-01  0.51100000000E-03 0.  1.
</event>
<event>
 8    1  0.1083484E+005  0.1043930E+01  0.7957747E-01            NaN
         13   -1    0    0    0    0  0.00000000000E+00  0.00000000000E+00  0.74505805969E-08  0.10566000000E+00  0.10566000000E+00 0.  1.
     999900   -1    0    0    0    0 -0.00000000000E+00 -0.00000000000E+00 -0.74505805969E-08  0.93827000000E+00  0.93827000000E+00 0.  1.
     999902    2    1    2    0    0  0.25507279595E-01 -0.30681220583E-02 -0.67509794667E-03  0.10182299914E+01  0.10179056071E+01 0.  0.
     999903    2    3    3    0    0  0.96727436181E-01 -0.77358910593E-02  0.86008548244E-01  0.13109519144E+00  0.19298650887E-01 0.  0.
         14    1    1    2    0    0 -0.25507279595E-01  0.30681220583E-02  0.67509794667E-03  0.25700008610E-01  0.00000000000E+00 0.  1.
     999901    1    3    3    0    0 -0.71220156586E-01  0.46677690010E-02 -0.86683646190E-01  0.88713479995E+00  0.88000000000E+00 0.  1.
        -11    1    4    4    0    0  0.79407129953E-01 -0.92066657456E-03  0.76157969081E-01  0.11003016536E+00  0.51100000000E-03 0. -1.
         11    1    4    4    0    0  0.17320306228E-01 -0.68152244847E-02  0.98505791627E-02  0.21065026073E-01  0.51100000000E-03 0.  1.
</event>
<event>
 8    1  0.1083484E+005  0.1043930E+01  0.7957747E-01            NaN
         13   -1    0    0    0    0  0.00000000000E+00  0.00000000000E+00  0.74505805969E-08  0.10566000000E+00  0.10566000000E+00 0.  1.
     999900   -1    0    0    0    0 -0.00000000000E+00 -0.00000000000E+00 -0.74505805969E-08  0.93827000000E+00  0.93827000000E+00 0. -1.
     999902    2    1    2    0    0  0.21840554565E-01 -0.72858882631E-02  0.45397777036E-02  0.10204629258E+01  0.10201930598E+01 0.  0.
     999903    2    3    3    0    0 -0.51837625336E-01 -0.73640605656E-01 -0.91147508241E-01  0.12973991641E+00  0.20359259522E-01 0.  0.
         14    1    1    2    0    0 -0.21840554565E-01  0.72858882631E-02 -0.45397777036E-02  0.23467074234E-01  0.00000000000E+00 0.  1.
     999901    1    3    3    0    0  0.73678179901E-01  0.66354717393E-01  0.95687285945E-01  0.89072300936E+00  0.88000000000E+00 0.  1.
        -11    1    4    4    0    0 -0.13825885551E-01 -0.29428456348E-01 -0.44239586016E-01  0.54905293426E-01  0.51100000000E-03 0.  1.
         11    1    4    4    0    0 -0.38011739785E-01 -0.44212149309E-01 -0.46907922225E-01  0.74834622980E-01  0.51100000000E-03 0. -1.
</event>
<event>
 8    1  0.1083484E+005  0.1043930E+01  0.7957747E-01            NaN
         13   -1    0    0    0    0  0.00000000000E+00  0.00000000000E+00  0.74505805969E-08  0.10566000000E+00  0.10566000000E+00 0.  1.
     999900   -1    0    0    0    0 -0.00000000000E+00 -0.00000000000E+00 -0.74505805969E-08  0.93827000000E+00  0.93827000000E+00 0. -1.
     999902    2    1    2    0    0 -0.83885973652E-02  0.10438028565E-01 -0.19008302900E-01  0.10206784068E+01  0.10204135307E+01 0.  0.
     999903    2    3    3    0    0  0.26231942175E-01  0.12440941679E+00 -0.30138633379E-01  0.13258384916E+00  0.22457116051E-01 0.  0.
         14    1    1    2    0    0  0.83885973652E-02 -0.10438028565E-01  0.19008302900E-01  0.23251593176E-01  0.00000000000E+00 0.  1.
     999901    1    3    3    0    0 -0.34620539540E-01 -0.11397138822E+00  0.11130330478E-01  0.88809455766E+00  0.88000000000E+00 0. -1.
        -11    1    4    4    0    0  0.27418857111E-01  0.80288808741E-01 -0.16989627008E-01  0.86527423868E-01  0.51100000000E-03 0.  1.
         11    1    4    4    0    0 -0.11869149364E-02  0.44120608045E-01 -0.13149006370E-01  0.46056425294E-01  0.51100000000E-03 0. -1.
</event>
<event>
 8    1  0.1150621E+005  0.1043930E+01  0.7957747E-01            NaN
         13   -1    0    0    0    0  0.00000000000E+00  0.00000000000E+00  0.74505805969E-08  0.10566000000E+00  0.10566000000E+00 0. -1.
     999900   -1    0    0    0    0 -0.00000000000E+00 -0.00000000000E+00 -0.74505805969E-08  0.93827000000E+00  0.93827000000E+00 0.  1.
     999902    2    1    2    0    0 -0.17268161832E-01  0.18097319031E-01  0.22386294721E-01  0.10103614349E+01  0.10098036347E+01 0.  0.
     999903    2    3    3    0    0 -0.41619712823E-01  0.11299778268E+00  0.27661173026E-01  0.12490848848E+00  0.18338228251E-01 0.  0.
         14    1    1    2    0    0  0.17268161832E-01 -0.18097319031E-01 -0.22386294721E-01  0.33568565065E-01  0.00000000000E+00 0.  1.
     999901    1    3    3    0    0  0.24351550991E-01 -0.94900463653E-01 -0.52748783047E-02  0.88545294645E+00  0.88000000000E+00 0. -1.
        -11    1    4    4    0    0 -0.26882975689E-01  0.66657235880E-01  0.25379147372E-01  0.76224954703E-01  0.51100000000E-03 0. -1.
         11    1    4    4    0    0 -0.14736737134E-01  0.46340546804E-01  0.22820256539E-02  0.48683533782E-01  0.51100000000E-03 0.  1.
</event>
<event>
 8    1  0.1083484E+005  0.1043930E+01  0.7957747E-01            NaN
         13   -1    0    0    0    0  0.00000000000E+00  0.00000000000E+00  0.74505805969E-08  0.10566000000E+00  0.10566000000E+00 0. -1.
     999900   -1    0    0    0    0 -0.00000000000E+00 -0.00000000000E+00 -0.74505805969E-08  0.93827000000E+00  0.93827000000E+00 0. -1.
     999902    2    1    2    0    0  0.19815320827E-02 -0.20668869535E-01 -0.11227136927E-01  0.10203253979E+01  0.10200523224E+01 0.  0.
     999903    2    3    3    0    0 -0.17440082218E-01  0.12083926975E+00 -0.34678569855E-01  0.12850045863E+00  0.20086788656E-01 0.  0.
         14    1    1    2    0    0 -0.19815320827E-02  0.20668869535E-01  0.11227136927E-01  0.23604602111E-01  0.00000000000E+00 0. -1.
     999901    1    3    3    0    0  0.19421614300E-01 -0.14150813928E+00  0.23451432929E-01  0.89182493926E+00  0.88000000000E+00 0.  1.
        -11    1    4    4    0    0 -0.15961795545E-01  0.42877913120E-01 -0.12712034915E-01  0.47488433363E-01  0.51100000000E-03 0.  1.
         11    1    4    4    0    0 -0.14782866726E-02  0.77961356629E-01 -0.21966534940E-01  0.81012025262E-01  0.51100000000E-03 0. -1.
</event>
<event>
 8    1  0.1083484E+005  0.1043930E+01  0.7957747E-01            NaN
         13   -1    0    0    0    0  0.00000000000E+00  0.00000000000E+00  0.74505805969E-08  0.10566000000E+00  0.10566000000E+00 0.  1.
     999900   -1    0    0    0    0 -0.00000000000E+00 -0.00000000000E+00 -0.74505805969E-08  0.93827000000E+00  0.93827000000E+00 0.  1.
     999902    2    1    2    0    0 -0.18688274057E-01  0.71593083853E-02 -0.12149785634E-01  0.10205179395E+01  0.10202493521E+01 0.  0.
     999903    2    3    3    0    0  0.33608543385E-01 -0.10423794202E+00 -0.67680707456E-01  0.13022136660E+00  0.19540814052E-01 0.  0.
         14    1    1    2    0    0  0.18688274057E-01 -0.71593083853E-02  0.12149785634E-01  0.23412060455E-01  0.00000000000E+00 0.  1.
     999901    1    3    3    0    0 -0.52296817443E-01  0.11139725040E+00  0.55530921822E-01  0.89029657294E+00  0.88000000000E+00 0.  1.
        -11    1    4    4    0    0  0.18325528445E-01 -0.55828353040E-01 -0.24848940599E-01  0.63799380607E-01  0.51100000000E-03 0.  1.
         11    1    4    4    0    0  0.15283014940E-01 -0.48409588978E-01 -0.42831766857E-01  0.66421985997E-01  0.51100000000E-03 0. -1.
</event>
<event>
 8    1  0.1083484E+005  0.1043930E+01  0.7957747E-01            NaN
         13   -1    0    0    0    0  0.00000000000E+00  0.00000000000E+00  0.74505805969E-08  0.10566000000E+00  0.10566000000E+00 0.  1.
     999900   -1    0    0    0    0 -0.00000000000E+00 -0.00000000000E+00 -0.74505805969E-08  0.93827000000E+00  0.93827000000E+00 0. -1.
     999902    2    1    2    0    0  0.14615339975E-01  0.53550505633E-02  0.18741811451E-01  0.10195673190E+01  0.10192762029E+01 0.  0.
     999903    2    3    3    0    0  0.81402938922E-01  0.99172098274E-01  0.21451875108E-01  0.13205981691E+00  0.22761123787E-01 0.  0.
         14    1    1    2    0    0 -0.14615339975E-01 -0.53550505633E-02 -0.18741811451E-01  0.24362681002E-01  0.00000000000E+00 0. -1.
     999901    1    3    3    0    0 -0.66787598947E-01 -0.93817047711E-01 -0.27100636568E-02  0.88750750209E+00  0.88000000000E+00 0. -1.
        -11    1    4    4    0    0  0.34521270912E-01  0.56734023676E-01  0.17589925990E-01  0.68703232859E-01  0.51100000000E-03 0.  1.
         11    1    4    4    0    0  0.46881668010E-01  0.42438074598E-01  0.38619491177E-02  0.63356584054E-01  0.51100000000E-03 0. -1.
</event>
<event>
 8    1  0.1083484E+005  0.1043930E+01  0.7957747E-01            NaN
         13   -1    0    0    0    0  0.00000000000E+00  0.00000000000E+00  0.74505805969E-08  0.10566000000E+00  0.10566000000E+00 0. -1.
     999900   -1    0    0    0    0 -0.00000000000E+00 -0.00000000000E+00 -0.74505805969E-08  0.93827000000E+00  0.93827000000E+00 0.  1.
     999902    2    1    2    0    0  0.21002815753E-01 -0.90343805463E-02  0.44927165690E-02  0.10206292961E+01  0.10203632869E+01 0.  0.
     999903    2    3    3    0    0  0.10999470916E+00  0.68065721065E-01 -0.20366620870E-01  0.13243901836E+00  0.19837235479E-01 0.  0.
         14    1    1    2    0    0 -0.21002815753E-01  0.90343805463E-02 -0.44927165690E-02  0.23300703929E-01  0.00000000000E+00 0.  1.
     999901    1    3    3    0    0 -0.88991893407E-01 -0.77100101612E-01  0.24859337439E-01  0.88819027771E+00  0.88000000000E+00 0.  1.
        -11    1    4    4    0    0  0.59684796230E-01  0.45767829415E-01 -0.54011529652E-02  0.75408240164E-01  0.51100000000E-03 0.  1.
         11    1    4    4    0    0  0.50309912930E-01  0.22297891650E-01 -0.14965467905E-01  0.57030778197E-01  0.51100000000E-03 0. -1.
</event>
<event>
 8    1  0.1083484E+005  0.1043930E+01  0.7957747E-01            NaN
         13   -1    0    0    0    0  0.00000000000E+00  0.00000000000E+00  0.74505805969E-08  0.10566000000E+00  0.10566000000E+00 0. -1.
     999900   -1    0    0    0    0 -0.00000000000E+00 -0.00000000000E+00 -0.74505805969E-08  0.93827000000E+00  0.93827000000E+00 0.  1.
     999902    2    1    2    0    0  0.51672779086E-02  0.21656031777E-01  0.10374863279E-01  0.10193673808E+01  0.10190714081E+01 0.  0.
     999903    2    3    3    0    0  0.10775070201E+00 -0.60354799904E-01 -0.30300279485E-01  0.12869145622E+00  0.19760271030E-01 0.  0.
         14    1    1    2    0    0 -0.51672779086E-02 -0.21656031777E-01 -0.10374863279E-01  0.24562619188E-01  0.00000000000E+00 0.  1.
     999901    1    3    3    0    0 -0.10258342410E+00  0.82010831680E-01  0.40675142765E-01  0.89067592459E+00  0.88000000000E+00 0. -1.
        -11    1    4    4    0    0  0.22568774246E-01 -0.16197971539E-01  0.89629229118E-03  0.27799070377E-01  0.51100000000E-03 0.  1.
         11    1    4    4    0    0  0.85181927765E-01 -0.44156828364E-01 -0.31196571777E-01  0.10089238584E+00  0.51100000000E-03 0. -1.
</event>
<event>
 8    1  0.1083484E+005  0.1043930E+01  0.7957747E-01            NaN
         13   -1    0    0    0    0  0.00000000000E+00  0.00000000000E+00  0.74505805969E-08  0.10566000000E+00  0.10566000000E+00 0.  1.
     999900   -1    0    0    0    0 -0.00000000000E+00 -0.00000000000E+00 -0.74505805969E-08  0.93827000000E+00  0.93827000000E+00 0. -1.
     999902    2    1    2    0    0  0.74841667205E-02  0.20325174377E-01 -0.53725754398E-02  0.10216143097E+01  0.10213705536E+01 0.  0.
     999903    2    3    3    0    0 -0.12502385708E+00  0.15418637813E-01 -0.31341659565E-01  0.13130153110E+00  0.19725445856E-01 0.  0.
         14    1    1    2    0    0 -0.74841667205E-02 -0.20325174377E-01  0.53725754398E-02  0.22315690261E-01  0.00000000000E+00 0.  1.
     999901    1    3    3    0    0  0.13250802380E+00  0.49065365637E-02  0.25969084125E-01  0.89031277864E+00  0.88000000000E+00 0. -1.
        -11    1    4    4    0    0 -0.10586270049E+00  0.61653368444E-02 -0.28664932383E-01  0.10984927038E+00  0.51100000000E-03 0.  1.
         11    1    4    4    0    0 -0.19161156593E-01  0.92533009690E-02 -0.26767271819E-02  0.21452260725E-01  0.51100000000E-03 0. -1.
</event>
<event>
 8    1  0.1083484E+005  0.1043930E+01  0.7957747E-01            NaN
         13   -1    0    0    0    0  0.00000000000E+00  0.00000000000E+00  0.74505805969E-08  0.10566000000E+00  0.10566000000E+00 0. -1.
     999900   -1    0    0    0    0 -0.00000000000E+00 -0.00000000000E+00 -0.74505805969E-08  0.93827000000E+00  0.93827000000E+00 0. -1.
     999902    2    1    2    0    0  0.10748175993E-01  0.98215725987E-02  0.21186829485E-01  0.10182226408E+01  0.10178980685E+01 0.  0.
     999903    2    3    3    0    0  0.11650498149E+00 -0.39551807233E-01 -0.32560059672E-01  0.12889089128E+00  0.20370277396E-01 0.  0.
         14    1    1    2    0    0 -0.10748175993E-01 -0.98215725987E-02 -0.21186829485E-01  0.25707359241E-01  0.00000000000E+00 0.  1.
     999901    1    3    3    0    0 -0.10575680549E+00  0.49373379831E-01  0.53746889157E-01  0.88933174948E+00  0.88000000000E+00 0. -1.
        -11    1    4    4    0    0  0.27060060669E-01 -0.18291468188E-01 -0.62131822873E-02  0.33251908923E-01  0.51100000000E-03 0. -1.
         11    1    4    4    0    0  0.89444920819E-01 -0.21260339045E-01 -0.26346877385E-01  0.95638982353E-01  0.51100000000E-03 0.  1.
</event>
<event>
 8    1  0.1083484E+005  0.1043930E+01  0.7957747E-01            NaN
         13   -1    0    0    0    0  0.00000000000E+00  0.00000000000E+00  0.74505805969E-08  0.10566000000E+00  0.10566000000E+00 0.  1.
     999900   -1    0    0    0    0 -0.00000000000E+00 -0.00000000000E+00 -0.74505805969E-08  0.93827000000E+00  0.93827000000E+00 0. -1.
     999902    2    1    2    0    0 -0.20841398682E-01  0.24648111565E-02  0.13201546766E-01  0.10191364518E+01  0.10188348185E+01 0.  0.
     999903    2    3    3    0    0 -0.12342211716E+00 -0.40310316574E-01 -0.11010123493E-01  0.13181535983E+00  0.19902905382E-01 0.  0.
         14    1    1    2    0    0  0.20841398682E-01 -0.24648111565E-02 -0.13201546766E-01  0.24793548154E-01  0.00000000000E+00 0.  1.
     999901    1    3    3    0    0  0.10258071848E+00  0.42775127730E-01  0.24211670260E-01  0.88732109201E+00  0.88000000000E+00 0.  1.
        -11    1    4    4    0    0 -0.29004028775E-01 -0.18351074638E-01 -0.74307618568E-03  0.34333786694E-01  0.51100000000E-03 0. -1.
         11    1    4    4    0    0 -0.94418088382E-01 -0.21959241936E-01 -0.10267047308E-01  0.97481573138E-01  0.51100000000E-03 0.  1.
</event>
<event>
 8    1  0.1083484E+005  0.1043930E+01  0.7957747E-01            NaN
         13   -1    0    0    0    0  0.00000000000E+00  0.00000000000E+00  0.74505805969E-08  0.10566000000E+00  0.10566000000E+00 0. -1.
     999900   -1    0    0    0    0 -0.00000000000E+00 -0.00000000000E+00 -0.74505805969E-08  0.93827000000E+00  0.93827000000E+00 0.  1.
     999902    2    1    2    0    0 -0.20883358082E-01 -0.16482170202E-02  0.11093712857E-01  0.10202255336E+01  0.10199501153E+01 0.  0.
     999903    2    3    3    0    0 -0.26970186438E-01  0.89382039777E-01 -0.88167511817E-01  0.12995796263E+00  0.19975533016E-01 0.  0.
         14    1    1    2    0    0  0.20883358082E-01  0.16482170202E-02 -0.11093712857E-01  0.23704466438E-01  0.00000000000E+00 0.  1.
     999901    1    3    3    0    0  0.60868283559E-02 -0.91030256797E-01  0.99261224675E-01  0.89026757093E+00  0.88000000000E+00 0. -1.
        -11    1    4    4    0    0 -0.12743949080E-01  0.48538580980E-01 -0.33904304687E-01  0.60565378551E-01  0.51100000000E-03 0.  1.
         11    1    4    4    0    0 -0.14226237359E-01  0.40843458797E-01 -0.54263207131E-01  0.69392584078E-01  0.51100000000E-03 0. -1.
</event>
<event>
 8    1  0.1083484E+005  0.1043930E+01  0.7957747E-01            NaN
         13   -1    0    0    0    0  0.00000000000E+00  0.00000000000E+00  0.74505805969E-08  0.10566000000E+00  0.10566000000E+00 0.  1.
     999900   -1    0    0    0    0 -0.00000000000E+00 -0.00000000000E+00 -0.74505805969E-08  0.93827000000E+00  0.93827000000E+00 0.  1.
     999902    2    1    2    0    0  0.12418827281E-01 -0.10919775152E-01  0.17388972057E-01  0.10199332271E+01  0.10196508925E+01 0.  0.
     999903    2    3    3    0    0 -0.71274262460E-01 -0.12104623053E-01 -0.10311427165E+00  0.12778583520E+00  0.21682349279E-01 0.  0.
         14    1    1    2    0    0 -0.12418827281E-01  0.10919775152E-01 -0.17388972057E-01  0.23996772900E-01  0.00000000000E+00 0. -1.
     999901    1    3    3    0    0  0.83693089741E-01  0.11848479014E-02  0.12050324371E+00  0.89214739190E+00  0.88000000000E+00 0. -1.
        -11    1    4    4    0    0 -0.40861379981E-01  0.29485005281E-02 -0.48540216662E-01  0.63519759004E-01  0.51100000000E-03 0. -1.
         11    1    4    4    0    0 -0.30412882479E-01 -0.15053123582E-01 -0.54574054990E-01  0.64266076193E-01  0.51100000000E-03 0.  1.
</event>
<event>
 8    1  0.1083484E+005  0.1043930E+01  0.7957747E-01            NaN
         13   -1    0    0    0    0  0.00000000000E+00  0.00000000000E+00  0.74505805969E-08  0.10566000000E+00  0.10566000000E+00 0.  1.
     999900   -1    0    0    0    0 -0.00000000000E+00 -0.00000000000E+00 -0.74505805969E-08  0.93827000000E+00  0.93827000000E+00 0. -1.
     999902    2    1    2    0    0  0.86973645186E-02 -0.57347391958E-02  0.20210468490E-01  0.10211924887E+01  0.10209393246E+01 0.  0.
     999903    2    3    3    0    0 -0.11079774183E-01 -0.57876384145E-01 -0.11344780872E+00  0.12935482331E+00  0.19744056643E-01 0.  0.
         14    1    1    2    0    0 -0.86973645186E-02  0.57347391958E-02 -0.20210468490E-01  0.22737511293E-01  0.00000000000E+00 0. -1.
     999901    1    3    3    0    0  0.19777138702E-01  0.52141644949E-01  0.13365827721E+00  0.89183766540E+00  0.88000000000E+00 0.  1.
        -11    1    4    4    0    0  0.53388992761E-02 -0.13673986531E-01 -0.21795014829E-01  0.26282418943E-01  0.51100000000E-03 0. -1.
         11    1    4    4    0    0 -0.16418673459E-01 -0.44202397614E-01 -0.91652793891E-01  0.10307240437E+00  0.51100000000E-03 0.  1.
</event>
<event>
 8    1  0.1083484E+005  0.1043930E+01  0.7957747E-01            NaN
         13   -1    0    0    0    0  0.00000000000E+00  0.00000000000E+00  0.74505805969E-08  0.10566000000E+00  0.10566000000E+00 0.  1.
     999900   -1    0    0    0    0 -0.00000000000E+00 -0.00000000000E+00 -0.74505805969E-08  0.93827000000E+00  0.93827000000E+00 0.  1.
     999902    2    1    2    0    0  0.44517831050E-02 -0.14104301849E-01  0.31375557882E-01  0.10092431821E+01  0.10086469280E+01 0.  0.
     999903    2    3    3    0    0  0.11504042432E+00 -0.22221047506E-01 -0.20761971982E-01  0.12075342350E+00  0.20548859481E-01 0.  0.
         14    1    1    2    0    0 -0.44517831050E-02  0.14104301849E-01 -0.31375557882E-01  0.34686817898E-01  0.00000000000E+00 0. -1.
     999901    1    3    3    0    0 -0.11058864121E+00  0.81167456567E-02  0.52137529865E-01  0.88848975860E+00  0.88000000000E+00 0. -1.
        -11    1    4    4    0    0  0.71877909748E-01 -0.21149528661E-01 -0.61894403010E-02  0.75181824695E-01  0.51100000000E-03 0. -1.
         11    1    4    4    0    0  0.43162514571E-01 -0.10715188446E-02 -0.14572531681E-01  0.45571598802E-01  0.51100000000E-03 0.  1.
</event>
<event>
 8    1  0.1083484E+005  0.1043930E+01  0.7957747E-01            NaN
         13   -1    0    0    0    0  0.00000000000E+00  0.00000000000E+00  0.74505805969E-08  0.10566000000E+00  0.10566000000E+00 0.  1.
     999900   -1    0    0    0    0 -0.00000000000E+00 -0.00000000000E+00 -0.74505805969E-08  0.93827000000E+00  0.93827000000E+00 0.  1.
     999902    2    1    2    0    0 -0.14474686579E-01  0.11717438122E-01 -0.14908408058E-01  0.10200746958E+01  0.10197957195E+01 0.  0.
     999903    2    3    3    0    0 -0.88265368822E-01  0.79777803517E-01 -0.56847341399E-01  0.13337511181E+00  0.20050609914E-01 0.  0.
         14    1    1    2    0    0  0.14474686579E-01 -0.11717438122E-01  0.14908408058E-01  0.23855304201E-01  0.00000000000E+00 0.  1.
     999901    1    3    3    0    0  0.73790682243E-01 -0.68060365395E-01  0.41938933341E-01  0.88669958399E+00  0.88000000000E+00 0. -1.
        -11    1    4    4    0    0 -0.26647327713E-01  0.12749473347E-01 -0.15756293901E-01  0.33483593943E-01  0.51100000000E-03 0.  1.
         11    1    4    4    0    0 -0.61618041109E-01  0.67028330170E-01 -0.41091047497E-01  0.99891517863E-01  0.51100000000E-03 0. -1.
</event>
<event>
 8    1  0.1083484E+005  0.1043930E+01  0.7957747E-01            NaN
         13   -1    0    0    0    0  0.00000000000E+00  0.00000000000E+00  0.74505805969E-08  0.10566000000E+00  0.10566000000E+00 0. -1.
     999900   -1    0    0    0    0 -0.00000000000E+00 -0.00000000000E+00 -0.74505805969E-08  0.93827000000E+00  0.93827000000E+00 0. -1.
     999902    2    1    2    0    0  0.13259658744E-01  0.12141476659E-01  0.16480838155E-01  0.10195404114E+01  0.10192486441E+01 0.  0.
     999903    2    3    3    0    0 -0.41852972636E-01 -0.81614050795E-01  0.89891979576E-01  0.12981197152E+00  0.18922350574E-01 0.  0.
         14    1    1    2    0    0 -0.13259658744E-01 -0.12141476659E-01 -0.16480838155E-01  0.24389588593E-01  0.00000000000E+00 0.  1.
     999901    1    3    3    0    0  0.55112631379E-01  0.93755527453E-01 -0.73411141421E-01  0.88972843989E+00  0.88000000000E+00 0. -1.
        -11    1    4    4    0    0 -0.10351794584E-01 -0.34970818931E-01  0.26800811737E-01  0.45262152607E-01  0.51100000000E-03 0.  1.
         11    1    4    4    0    0 -0.31501178051E-01 -0.46643231864E-01  0.63091167839E-01  0.84549818910E-01  0.51100000000E-03 0. -1.
</event>
<event>
 8    1  0.1083484E+005  0.1043930E+01  0.7957747E-01            NaN
         13   -1    0    0    0    0  0.00000000000E+00  0.00000000000E+00  0.74505805969E-08  0.10566000000E+00  0.10566000000E+00 0.  1.
     999900   -1    0    0    0    0 -0.00000000000E+00 -0.00000000000E+00 -0.74505805969E-08  0.93827000000E+00  0.93827000000E+00 0. -1.
     999902    2    1    2    0    0  0.11353299380E-01  0.62438796348E-03  0.21536462413E-01  0.10195762225E+01  0.10192853216E+01 0.  0.
     999903    2    3    3    0    0  0.47631951389E-02  0.11723857026E+00  0.55647782434E-01  0.13120362094E+00  0.18712137070E-01 0.  0.
         14    1    1    2    0    0 -0.11353299380E-01 -0.62438796348E-03 -0.21536462413E-01  0.24353777539E-01  0.00000000000E+00 0. -1.
     999901    1    3    3    0    0  0.65901042407E-02 -0.11661418229E+00 -0.34111320021E-01  0.88837260152E+00  0.88000000000E+00 0.  1.
        -11    1    4    4    0    0 -0.59437763318E-02  0.40392999285E-01  0.24341838885E-01  0.47536397735E-01  0.51100000000E-03 0. -1.
         11    1    4    4    0    0  0.10706971471E-01  0.76845570970E-01  0.31305943549E-01  0.83667223202E-01  0.51100000000E-03 0.  1.
</event>
<event>
 8    1  0.1083484E+005  0.1043930E+01  0.7957747E-01            NaN
         13   -1    0    0    0    0  0.00000000000E+00  0.00000000000E+00  0.74505805969E-08  0.10566000000E+00  0.10566000000E+00 0.  1.
     999900   -1    0    0    0    0 -0.00000000000E+00 -0.00000000000E+00 -0.74505805969E-08  0.93827000000E+00  0.93827000000E+00 0. -1.
     999902    2    1    2    0    0 -0.70634333122E-02  0.20330909427E-01 -0.87089308614E-02  0.10207118294E+01  0.10204477230E+01 0.  0.
     999903    2    3    3    0    0 -0.26660645822E-01 -0.68946073655E-01  0.10345530161E+00  0.12889612789E+00  0.21139092841E-01 0.  0.
         14    1    1    2    0    0  0.70634333122E-02 -0.20330909427E-01  0.87089308614E-02  0.23218170579E-01  0.00000000000E+00 0. -1.
     999901    1    3    3    0    0  0.19597212510E-01  0.89276983082E-01 -0.11216423247E+00  0.89181570153E+00  0.88000000000E+00 0. -1.
        -11    1    4    4    0    0 -0.36946152257E-02 -0.38809189652E-01  0.51922010355E-01  0.64930421710E-01  0.51100000000E-03 0. -1.
         11    1    4    4    0    0 -0.22966030596E-01 -0.30136884003E-01  0.51533291257E-01  0.63965706183E-01  0.51100000000E-03 0.  1.
</event>
<event>
 8    1  0.1083484E+005  0.1043930E+01  0.7957747E-01            NaN
         13   -1    0    0    0    0  0.00000000000E+00  0.00000000000E+00  0.74505805969E-08  0.10566000000E+00  0.10566000000E+00 0. -1.
     999900   -1    0    0    0    0 -0.00000000000E+00 -0.00000000000E+00 -0.74505805969E-08  0.93827000000E+00  0.93827000000E+00 0. -1.
     999902    2    1    2    0    0 -0.72847921638E-04 -0.13129816962E-01 -0.16927191823E-01  0.10225074132E+01  0.10222829760E+01 0.  0.
     999903    2    3    3    0    0 -0.56247857950E-01  0.11583522180E+00  0.10538145899E-01  0.13091223731E+00  0.21103109394E-01 0.  0.
         14    1    1    2    0    0  0.72847921638E-04  0.13129816962E-01  0.16927191823E-01  0.21422586755E-01  0.00000000000E+00 0. -1.
     999901    1    3    3    0    0  0.56175010028E-01 -0.12896503876E+00 -0.27465337722E-01  0.89159517593E+00  0.88000000000E+00 0. -1.
        -11    1    4    4    0    0 -0.54554614449E-02  0.31977112129E-01  0.29207348439E-02  0.32574369874E-01  0.51100000000E-03 0. -1.
         11    1    4    4    0    0 -0.50792396505E-01  0.83858109667E-01  0.76174110548E-02  0.98337867436E-01  0.51100000000E-03 0.  1.
</event>
<event>
 8    1  0.1083484E+005  0.1043930E+01  0.7957747E-01            NaN
         13   -1    0    0    0    0  0.00000000000E+00  0.00000000000E+00  0.74505805969E-08  0.10566000000E+00  0.10566000000E+00 0.  1.
     999900   -1    0    0    0    0 -0.00000000000E+00 -0.00000000000E+00 -0.74505805969E-08  0.93827000000E+00  0.93827000000E+00 0.  1.
     999902    2    1    2    0    0 -0.58288812333E-02  0.55697770399E-02 -0.21898855235E-01  0.10205942306E+01  0.10203274109E+01 0.  0.
     999903    2    3    3    0    0 -0.75545629179E-01  0.11983858940E-01  0.10207870514E+00  0.12915045735E+00  0.20224332559E-01 0.  0.
         14    1    1    2    0    0  0.58288812333E-02 -0.55697770399E-02  0.21898855235E-01  0.23335769396E-01  0.00000000000E+00 0.  1.
     999901    1    3    3    0    0  0.69716747945E-01 -0.64140819004E-02 -0.12397756038E+00  0.89144377325E+00  0.88000000000E+00 0.  1.
        -11    1    4    4    0    0 -0.36517577969E-01  0.15723442338E-01  0.47465967115E-01  0.61919619628E-01  0.51100000000E-03 0.  1.
         11    1    4    4    0    0 -0.39028051210E-01 -0.37395833973E-02  0.54612738029E-01  0.67230837725E-01  0.51100000000E-03 0. -1.
</event>
<event>
 8    1  0.1083484E+005  0.1043930E+01  0.7957747E-01            NaN
         13   -1    0    0    0    0  0.00000000000E+00  0.00000000000E+00  0.74505805969E-08  0.10566000000E+00  0.10566000000E+00 0.  1.
     999900   -1    0    0    0    0 -0.00000000000E+00 -0.00000000000E+00 -0.74505805969E-08  0.93827000000E+00  0.93827000000E+00 0.  1.
     999902    2    1    2    0    0  0.20862108284E-01 -0.10681903120E-02 -0.14496936714E-01  0.10185030504E+01  0.10181856088E+01 0.  0.
     999903    2    3    3    0    0  0.12050074088E+00  0.46564167384E-01 -0.15904023386E-01  0.13159906545E+00  0.19409426339E-01 0.  0.
         14    1    1    2    0    0 -0.20862108284E-01  0.10681903120E-02  0.14496936714E-01  0.25426949614E-01  0.00000000000E+00 0.  1.
     999901    1    3    3    0    0 -0.99638632594E-01 -0.47632357696E-01  0.14070866722E-02  0.88690398494E+00  0.88000000000E+00 0.  1.
        -11    1    4    4    0    0  0.88239103663E-01  0.38555512280E-01 -0.19199488280E-01  0.98191386657E-01  0.51100000000E-03 0. -1.
         11    1    4    4    0    0  0.32261637215E-01  0.80086551037E-02  0.32954648945E-02  0.33407678791E-01  0.51100000000E-03 0.  1.
</event>
<event>
 8    1  0.1083484E+005  0.1043930E+01  0.7957747E-01            NaN
         13   -1    0    0    0    0  0.00000000000E+00  0.00000000000E+00  0.74505805969E-08  0.10566000000E+00  0.10566000000E+00 0. -1.
     999900   -1    0    0    0    0 -0.00000000000E+00 -0.00000000000E+00 -0.74505805969E-08  0.93827000000E+00  0.93827000000E+00 0.  1.
     999902    2    1    2    0    0 -0.20150417688E-01  0.11470595291E-01  0.69421328154E-02  0.10197265478E+01  0.10194392700E+01 0.  0.
     999903    2    3    3    0    0  0.94933079434E-01  0.49678648808E-01 -0.66310647497E-01  0.12839606114E+00  0.24661484684E-01 0.  0.
         14    1    1    2    0    0  0.20150417688E-01 -0.11470595291E-01 -0.69421328154E-02  0.24203452179E-01  0.00000000000E+00 0.  1.
     999901    1    3    3    0    0 -0.11508349712E+00 -0.38208053517E-01  0.73252780312E-01  0.89133048668E+00  0.88000000000E+00 0. -1.
        -11    1    4    4    0    0  0.60274548544E-01  0.30894674440E-01 -0.27589998022E-01  0.73136661278E-01  0.51100000000E-03 0. -1.
         11    1    4    4    0    0  0.34658530889E-01  0.18783974368E-01 -0.38720649475E-01  0.55259399863E-01  0.51100000000E-03 0.  1.
</event>
<event>
 8    1  0.1083484E+005  0.1043930E+01  0.7957747E-01            NaN
         13   -1    0    0    0    0  0.00000000000E+00  0.00000000000E+00  0.74505805969E-08  0.10566000000E+00  0.10566000000E+00 0.  1.
     999900   -1    0    0    0    0 -0.00000000000E+00 -0.00000000000E+00 -0.74505805969E-08  0.93827000000E+00  0.93827000000E+00 0.  1.
     999902    2    1    2    0    0 -0.11287511333E-02 -0.31653029920E-02 -0.22798203073E-01  0.10208854500E+01  0.10206253234E+01 0.  0.
     999903    2    3    3    0    0 -0.71296182582E-01  0.91972040736E-01  0.53509537264E-01  0.12970788415E+00  0.20466135560E-01 0.  0.
         14    1    1    2    0    0  0.11287511333E-02  0.31653029920E-02  0.22798203073E-01  0.23044550017E-01  0.00000000000E+00 0.  1.
     999901    1    3    3    0    0  0.70167431449E-01 -0.95137343728E-01 -0.76307740336E-01  0.89117756583E+00  0.88000000000E+00 0.  1.
        -11    1    4    4    0    0 -0.47371107662E-01  0.46207526708E-01  0.34881882477E-01  0.74807514407E-01  0.51100000000E-03 0. -1.
         11    1    4    4    0    0 -0.23925074920E-01  0.45764514028E-01  0.18627654786E-01  0.54900369744E-01  0.51100000000E-03 0.  1.
</event>
<event>
 8    1  0.1083484E+005  0.1043930E+01  0.7957747E-01            NaN
         13   -1    0    0    0    0  0.00000000000E+00  0.00000000000E+00  0.74505805969E-08  0.10566000000E+00  0.10566000000E+00 0. -1.
     999900   -1    0    0    0    0 -0.00000000000E+00 -0.00000000000E+00 -0.74505805969E-08  0.93827000000E+00  0.93827000000E+00 0. -1.
     999902    2    1    2    0    0  0.13338283270E-01 -0.17343085986E-01  0.11005971072E-01  0.10194386989E+01  0.10191444632E+01 0.  0.
     999903    2    3    3    0    0  0.63805153490E-01 -0.11409656400E+00  0.29005765043E-02  0.13266147886E+00  0.22394890064E-01 0.  0.
         14    1    1    2    0    0 -0.13338283270E-01  0.17343085986E-01 -0.11005971072E-01  0.24491301136E-01  0.00000000000E+00 0.  1.
     999901    1    3    3    0    0 -0.50466870220E-01  0.96753478012E-01  0.81053945673E-02  0.88677722000E+00  0.88000000000E+00 0.  1.
        -11    1    4    4    0    0  0.33314801587E-01 -0.43218605876E-01 -0.63932967805E-02  0.54944146761E-01  0.51100000000E-03 0.  1.
         11    1    4    4    0    0  0.30490351904E-01 -0.70877958123E-01  0.92938732848E-02  0.77717332098E-01  0.51100000000E-03 0. -1.
</event>
<event>
 8    1  0.1083484E+005  0.1043930E+01  0.7957747E-01            NaN
         13   -1    0    0    0    0  0.00000000000E+00  0.00000000000E+00  0.74505805969E-08  0.10566000000E+00  0.10566000000E+00 0. -1.
     999900   -1    0    0    0    0 -0.00000000000E+00 -0.00000000000E+00 -0.74505805969E-08  0.93827000000E+00  0.93827000000E+00 0. -1.
     999902    2    1    2    0    0  0.52442937464E-02 -0.18388889304E-01 -0.13124599500E-01  0.10207371352E+01  0.10204736107E+01 0.  0.
     999903    2    3    3    0    0 -0.86177319980E-01 -0.95519266786E-01 -0.83396277224E-02  0.13263246649E+00  0.31166664407E-01 0.  0.
         14    1    1    2    0    0 -0.52442937464E-02  0.18388889304E-01  0.13124599500E-01  0.23192864825E-01  0.00000000000E+00 0.  1.
     999901    1    3    3    0    0  0.91421613726E-01  0.77130377482E-01 -0.47849717780E-02  0.88810466869E+00  0.88000000000E+00 0. -1.
        -11    1    4    4    0    0 -0.48601512827E-01 -0.71012535740E-01  0.38587432470E-02  0.86139644193E-01  0.51100000000E-03 0.  1.
         11    1    4    4    0    0 -0.37575807152E-01 -0.24506731046E-01 -0.12198370969E-01  0.46492822296E-01  0.51100000000E-03 0. -1.
</event>
<event>
 8    1  0.1083484E+005  0.1043930E+01  0.7957747E-01            NaN
         13   -1    0    0    0    0  0.00000000000E+00  0.00000000000E+00  0.74505805969E-08  0.10566000000E+00  0.10566000000E+00 0. -1.
     999900   -1    0    0    0    0 -0.00000000000E+00 -0.00000000000E+00 -0.74505805969E-08  0.93827000000E+00  0.93827000000E+00 0. -1.
     999902    2    1    2    0    0  0.16265252904E-01 -0.10823038243E-01  0.71252788943E-03  0.10243799538E+01  0.10241933829E+01 0.  0.
     999903    2    3    3    0    0  0.22200403565E-01  0.12945336561E+00 -0.73761167856E-02  0.13321323450E+00  0.20983969099E-01 0.  0.
         14    1    1    2    0    0 -0.16265252904E-01  0.10823038243E-01 -0.71252788943E-03  0.19550046159E-01  0.00000000000E+00 0.  1.
     999901    1    3    3    0    0 -0.59351506605E-02 -0.14027640386E+00  0.80886446750E-02  0.89116671934E+00  0.88000000000E+00 0.  1.
        -11    1    4    4    0    0  0.16269926326E-01  0.40343171067E-01  0.97984599886E-03  0.43514401910E-01  0.51100000000E-03 0.  1.
         11    1    4    4    0    0  0.59304772387E-02  0.89110194547E-01 -0.83559627844E-02  0.89698832588E-01  0.51100000000E-03 0. -1.
</event>
<event>
 8    1  0.1375151E+005  0.1043930E+01  0.7957747E-01            NaN
         13   -1    0    0    0    0  0.00000000000E+00  0.00000000000E+00  0.74505805969E-08  0.10566000000E+00  0.10566000000E+00 0.  1.
     999900   -1    0    0    0    0 -0.00000000000E+00 -0.00000000000E+00 -0.74505805969E-08  0.93827000000E+00  0.93827000000E+00 0. -1.
     999902    2    1    2    0    0 -0.19817301943E-01 -0.32216066299E-01  0.47944902870E-02  0.10058040571E+01  0.10050811976E+01 0.  0.
     999903    2    3    3    0    0  0.40312429407E-01  0.24641049847E-01  0.10445760633E+00  0.11632046932E+00  0.19666895052E-01 0.  0.
         14    1    1    2    0    0  0.19817301943E-01  0.32216066299E-01 -0.47944902870E-02  0.38125942889E-01  0.00000000000E+00 0. -1.
     999901    1    3    3    0    0 -0.60129731351E-01 -0.56857116146E-01 -0.99663116041E-01  0.88948358779E+00  0.88000000000E+00 0. -1.
        -11    1    4    4    0    0  0.91220909513E-02  0.97004213758E-02  0.50501848973E-01  0.52230341650E-01  0.51100000000E-03 0. -1.
         11    1    4    4    0    0  0.31190338456E-01  0.14940628471E-01  0.53955757354E-01  0.64090127670E-01  0.51100000000E-03 0.  1.
</event>
<event>
 8    1  0.1083484E+005  0.1043930E+01  0.7957747E-01            NaN
         13   -1    0    0    0    0  0.00000000000E+00  0.00000000000E+00  0.74505805969E-08  0.10566000000E+00  0.10566000000E+00 0.  1.
     999900   -1    0    0    0    0 -0.00000000000E+00 -0.00000000000E+00 -0.74505805969E-08  0.93827000000E+00  0.93827000000E+00 0. -1.
     999902    2    1    2    0    0 -0.24246607936E-02  0.23808220403E-01  0.11961427664E-02  0.10199687585E+01  0.10196872693E+01 0.  0.
     999903    2    3    3    0    0  0.50350020473E-01 -0.60753021710E-01  0.99929068479E-01  0.12885487052E+00  0.19791531575E-01 0.  0.
         14    1    1    2    0    0  0.24246607936E-02 -0.23808220403E-01 -0.11961427664E-02  0.23961241542E-01  0.00000000000E+00 0.  1.
     999901    1    3    3    0    0 -0.52774681267E-01  0.84561242112E-01 -0.98732925713E-01  0.89111388793E+00  0.88000000000E+00 0. -1.
        -11    1    4    4    0    0  0.21693240981E-01 -0.19034505231E-01  0.50145844438E-01  0.57859968277E-01  0.51100000000E-03 0. -1.
         11    1    4    4    0    0  0.28656779492E-01 -0.41718516479E-01  0.49783224041E-01  0.70994902246E-01  0.51100000000E-03 0.  1.
</event>
<event>
 8    1  0.1083484E+005  0.1043930E+01  0.7957747E-01            NaN
         13   -1    0    0    0    0  0.00000000000E+00  0.00000000000E+00  0.74505805969E-08  0.10566000000E+00  0.10566000000E+00 0. -1.
     999900   -1    0    0    0    0 -0.00000000000E+00 -0.00000000000E+00 -0.74505805969E-08  0.93827000000E+00  0.93827000000E+00 0.  1.
     999902    2    1    2    0    0  0.20502872614E-01  0.78274458790E-02 -0.71901189441E-02  0.10208359639E+01  0.10205747060E+01 0.  0.
     999903    2    3    3    0    0  0.11849320482E+00  0.57895933703E-01 -0.17762561115E-01  0.13391954435E+00  0.15045167124E-01 0.  0.
         14    1    1    2    0    0 -0.20502872614E-01 -0.78274458790E-02  0.71901189441E-02  0.23094036132E-01  0.00000000000E+00 0. -1.
     999901    1    3    3    0    0 -0.97990332205E-01 -0.50068487824E-01  0.10572442171E-01  0.88691641952E+00  0.88000000000E+00 0.  1.
        -11    1    4    4    0    0  0.28357276307E-01  0.20487302229E-01 -0.75689548828E-02  0.35796855604E-01  0.51100000000E-03 0. -1.
         11    1    4    4    0    0  0.90135928512E-01  0.37408631474E-01 -0.10193606232E-01  0.98122688745E-01  0.51100000000E-03 0.  1.
</event>
<event>
 8    1  0.1083484E+005  0.1043930E+01  0.7957747E-01            NaN
         13   -1    0    0    0    0  0.00000000000E+00  0.00000000000E+00  0.74505805969E-08  0.10566000000E+00  0.10566000000E+00 0. -1.
     999900   -1    0    0    0    0 -0.00000000000E+00 -0.00000000000E+00 -0.74505805969E-08  0.93827000000E+00  0.93827000000E+00 0. -1.
     999902    2    1    2    0    0 -0.20506502182E-01 -0.11772760803E-01 -0.56417834391E-02  0.10196206551E+01  0.10193308276E+01 0.  0.
     999903    2    3    3    0    0 -0.24249461267E-01  0.11835437899E-01 -0.12635581367E+00  0.13105820154E+00  0.21962390148E-01 0.  0.
         14    1    1    2    0    0  0.20506502182E-01  0.11772760803E-01  0.56417834391E-02  0.24309344891E-01  0.00000000000E+00 0. -1.
     999901    1    3    3    0    0  0.37429590850E-02 -0.23608198703E-01  0.12071403023E+00  0.88856245356E+00  0.88000000000E+00 0.  1.
        -11    1    4    4    0    0 -0.23138232995E-01  0.11994088850E-02 -0.71322398742E-01  0.74993080289E-01  0.51100000000E-03 0.  1.
         11    1    4    4    0    0 -0.11112282715E-02  0.10636029014E-01 -0.55033414931E-01  0.56065121256E-01  0.51100000000E-03 0. -1.
</event>
<event>
 8    1  0.1083484E+005  0.1043930E+01  0.7957747E-01            NaN
         13   -1    0    0    0    0  0.00000000000E+00  0.00000000000E+00  0.74505805969E-08  0.10566000000E+00  0.10566000000E+00 0. -1.
     999900   -1    0    0    0    0 -0.00000000000E+00 -0.00000000000E+00 -0.74505805969E-08  0.93827000000E+00  0.93827000000E+00 0.  1.
     999902    2    1    2    0    0  0.22051968451E-02  0.21668505215E-01  0.76163108719E-02  0.10208563093E+01  0.10205955169E+01 0.  0.
     999903    2    3    3    0    0 -0.26579885967E-02 -0.88481893256E-01 -0.90857929204E-01  0.12852568850E+00  0.20677982662E-01 0.  0.
         14    1    1    2    0    0 -0.22051968451E-02 -0.21668505215E-01 -0.76163108719E-02  0.23073690704E-01  0.00000000000E+00 0.  1.
     999901    1    3    3    0    0  0.48631854418E-02  0.11015039847E+00  0.98474240076E-01  0.89233062080E+00  0.88000000000E+00 0. -1.
        -11    1    4    4    0    0  0.72251060662E-02 -0.22805602032E-01 -0.18035533325E-01  0.29963965442E-01  0.51100000000E-03 0. -1.
         11    1    4    4    0    0 -0.98830946628E-02 -0.65676291224E-01 -0.72822395879E-01  0.98561723055E-01  0.51100000000E-03 0.  1.
</event>
<event>
 8    1  0.1083484E+005  0.1043930E+01  0.7957747E-01            NaN
         13   -1    0    0    0    0  0.00000000000E+00  0.00000000000E+00  0.74505805969E-08  0.10566000000E+00  0.10566000000E+00 0. -1.
     999900   -1    0    0    0    0 -0.00000000000E+00 -0.00000000000E+00 -0.74505805969E-08  0.93827000000E+00  0.93827000000E+00 0.  1.
     999902    2    1    2    0    0 -0.70789579628E-02  0.15403599061E-01 -0.15020980865E-01  0.10212802235E+01  0.10210290312E+01 0.  0.
     999903    2    3    3    0    0 -0.80250309305E-01  0.10106913210E+00 -0.29981245427E-01  0.13397168655E+00  0.19860919251E-01 0.  0.
         14    1    1    2    0    0  0.70789579628E-02 -0.15403599061E-01  0.15020980865E-01  0.22649776511E-01  0.00000000000E+00 0. -1.
     999901    1    3    3    0    0  0.73171351343E-01 -0.85665533036E-01  0.14960264561E-01  0.88730853694E+00  0.88000000000E+00 0. -1.
        -11    1    4    4    0    0 -0.15228658522E-01  0.33461344809E-01 -0.79607876265E-02  0.37619262319E-01  0.51100000000E-03 0. -1.
         11    1    4    4    0    0 -0.65021650784E-01  0.67607787288E-01 -0.22020457800E-01  0.96352424231E-01  0.51100000000E-03 0.  1.
</event>
<event>
 8    1  0.1083484E+005  0.1043930E+01  0.7957747E-01            NaN
         13   -1    0    0    0    0  0.00000000000E+00  0.00000000000E+00  0.74505805969E-08  0.10566000000E+00  0.10566000000E+00 0.  1.
     999900   -1    0    0    0    0 -0.00000000000E+00 -0.00000000000E+00 -0.74505805969E-08  0.93827000000E+00  0.93827000000E+00 0. -1.
     999902    2    1    2    0    0  0.17901563141E-01 -0.63304542408E-02  0.12306783627E-01  0.10213026374E+01  0.10210519476E+01 0.  0.
     999903    2    3    3    0    0  0.77072681001E-01 -0.89468630365E-01  0.60328075642E-01  0.13410524000E+00  0.19997617565E-01 0.  0.
         14    1    1    2    0    0 -0.17901563141E-01  0.63304542408E-02 -0.12306783627E-01  0.22627362573E-01  0.00000000000E+00 0. -1.
     999901    1    3    3    0    0 -0.59171117860E-01  0.83138176124E-01 -0.48021292015E-01  0.88719739743E+00  0.88000000000E+00 0.  1.
        -11    1    4    4    0    0  0.22555608461E-01 -0.18253130018E-01  0.73435409706E-02  0.29935279245E-01  0.51100000000E-03 0.  1.
         11    1    4    4    0    0  0.54517072540E-01 -0.71215500347E-01  0.52984534671E-01  0.10416996075E+00  0.51100000000E-03 0. -1.
</event>
<event>
 8    1  0.1083484E+005  0.1043930E+01  0.7957747E-01            NaN
         13   -1    0    0    0    0  0.00000000000E+00  0.00000000000E+00  0.74505805969E-08  0.10566000000E+00  0.10566000000E+00 0.  1.
     999900   -1    0    0    0    0 -0.00000000000E+00 -0.00000000000E+00 -0.74505805969E-08  0.93827000000E+00  0.93827000000E+00 0.  1.
     999902    2    1    2    0    0  0.62103588866E-02 -0.72791253942E-02 -0.21216140556E-01  0.10206560050E+01  0.10203906123E+01 0.  0.
     999903    2    3    3    0    0  0.34935862730E-01 -0.92488417489E-01  0.81793647464E-01  0.13009618416E+00  0.21452144270E-01 0.  0.
         14    1    1    2    0    0 -0.62103588866E-02  0.72791253942E-02  0.21216140556E-01  0.23273995018E-01  0.00000000000E+00 0.  1.
     999901    1    3    3    0    0 -0.28725503843E-01  0.85209292095E-01 -0.10300978802E+00  0.89055982082E+00  0.88000000000E+00 0.  1.
        -11    1    4    4    0    0  0.20246029835E-01 -0.59260808286E-01  0.38242616029E-01  0.73379179094E-01  0.51100000000E-03 0. -1.
         11    1    4    4    0    0  0.14689832895E-01 -0.33227609204E-01  0.43551031436E-01  0.56717005069E-01  0.51100000000E-03 0.  1.
</event>
<event>
 8    1  0.1083484E+005  0.1043930E+01  0.7957747E-01            NaN
         13   -1    0    0    0    0  0.00000000000E+00  0.00000000000E+00  0.74505805969E-08  0.10566000000E+00  0.10566000000E+00 0. -1.
     999900   -1    0    0    0    0 -0.00000000000E+00 -0.00000000000E+00 -0.74505805969E-08  0.93827000000E+00  0.93827000000E+00 0.  1.
     999902    2    1    2    0    0  0.99914173958E-02 -0.19304833409E-01 -0.80769217976E-02  0.10207407421E+01  0.10204773006E+01 0.  0.
     999903    2    3    3    0    0  0.47830360321E-01 -0.11603491675E+00 -0.42528997155E-01  0.13396261875E+00  0.19632176393E-01 0.  0.
         14    1    1    2    0    0 -0.99914173958E-02  0.19304833409E-01  0.80769217976E-02  0.23189257863E-01  0.00000000000E+00 0. -1.
     999901    1    3    3    0    0 -0.37838942925E-01  0.96730083339E-01  0.34452075357E-01  0.88677812339E+00  0.88000000000E+00 0. -1.
        -11    1    4    4    0    0  0.36450360239E-01 -0.65327288076E-01 -0.20939487010E-01  0.77685304699E-01  0.51100000000E-03 0. -1.
         11    1    4    4    0    0  0.11380000082E-01 -0.50707628671E-01 -0.21589510145E-01  0.56277314049E-01  0.51100000000E-03 0.  1.
</event>
<event>
 8    1  0.1083484E+005  0.1043930E+01  0.7957747E-01            NaN
         13   -1    0    0    0    0  0.00000000000E+00  0.00000000000E+00  0.74505805969E-08  0.10566000000E+00  0.10566000000E+00 0.  1.
     999900   -1    0    0    0    0 -0.00000000000E+00 -0.00000000000E+00 -0.74505805969E-08  0.93827000000E+00  0.93827000000E+00 0.  1.
     999902    2    1    2    0    0  0.17334391396E-02 -0.62878499497E-02 -0.22622410668E-01  0.10203860978E+01  0.10201144412E+01 0.  0.
     999903    2    3    3    0    0  0.74580973616E-01  0.42873968956E-02 -0.10831170508E+00  0.13316501240E+00  0.20513207278E-01 0.  0.
         14    1    1    2    0    0 -0.17334391396E-02  0.62878499497E-02  0.22622410668E-01  0.23543902239E-01  0.00000000000E+00 0.  1.
     999901    1    3    3    0    0 -0.72847534476E-01 -0.10575246845E-01  0.85689294416E-01  0.88722108536E+00  0.88000000000E+00 0.  1.
        -11    1    4    4    0    0  0.39208382646E-01 -0.72946490638E-02 -0.62422412786E-01  0.74076500415E-01  0.51100000000E-03 0.  1.
         11    1    4    4    0    0  0.35372590970E-01  0.11582045959E-01 -0.45889292297E-01  0.59088511988E-01  0.51100000000E-03 0. -1.
</event>
<event>
 8    1  0.1083484E+005  0.1043930E+01  0.7957747E-01            NaN
         13   -1    0    0    0    0  0.00000000000E+00  0.00000000000E+00  0.74505805969E-08  0.10566000000E+00  0.10566000000E+00 0. -1.
     999900   -1    0    0    0    0 -0.00000000000E+00 -0.00000000000E+00 -0.74505805969E-08  0.93827000000E+00  0.93827000000E+00 0. -1.
     999902    2    1    2    0    0  0.11927039179E-01 -0.20735134861E-01 -0.29488637960E-02  0.10198282183E+01  0.10195433777E+01 0.  0.
     999903    2    3    3    0    0 -0.90678507245E-01 -0.90473180306E-01 -0.18931689197E-01  0.13098248153E+00  0.19748761528E-01 0.  0.
         14    1    1    2    0    0 -0.11927039179E-01  0.20735134861E-01  0.29488637960E-02  0.24101781656E-01  0.00000000000E+00 0.  1.
     999901    1    3    3    0    0  0.10260554642E+00  0.69738045445E-01  0.15982825401E-01  0.88884573681E+00  0.88000000000E+00 0. -1.
        -11    1    4    4    0    0 -0.12427625890E-01 -0.23513690405E-01 -0.30592109919E-02  0.26776097823E-01  0.51100000000E-03 0.  1.
         11    1    4    4    0    0 -0.78250881355E-01 -0.66959489901E-01 -0.15872478205E-01  0.10420638371E+00  0.51100000000E-03 0. -1.
</event>
<event>
 8    1  0.1083484E+005  0.1043930E+01  0.7957747E-01            NaN
         13   -1    0    0    0    0  0.00000000000E+00  0.00000000000E+00  0.74505805969E-08  0.10566000000E+00  0.10566000000E+00 0. -1.
     999900   -1    0    0    0    0 -0.00000000000E+00 -0.00000000000E+00 -0.74505805969E-08  0.93827000000E+00  0.93827000000E+00 0. -1.
     999902    2    1    2    0    0  0.19683489682E-01  0.43916490788E-02 -0.94637293336E-02  0.10216524660E+01  0.10214095519E+01 0.  0.
     999903    2    3    3    0    0 -0.12102865613E+00 -0.95903480109E-02 -0.41618954926E-01  0.12978399883E+00  0.19283115996E-01 0.  0.
         14    1    1    2    0    0 -0.19683489682E-01 -0.43916490788E-02  0.94637293336E-02  0.22277533988E-01  0.00000000000E+00 0.  1.
     999901    1    3    3    0    0  0.14071214582E+00  0.13981997090E-01  0.32155225593E-01  0.89186846718E+00  0.88000000000E+00 0. -1.
        -11    1    4    4    0    0 -0.80319025189E-01 -0.44443784930E-02 -0.17989881226E-01  0.82430548069E-01  0.51100000000E-03 0. -1.
         11    1    4    4    0    0 -0.40709630944E-01 -0.51459695179E-02 -0.23629073701E-01  0.47353450760E-01  0.51100000000E-03 0.  1.
</event>
<event>
 8    1  0.1083484E+005  0.1043930E+01  0.7957747E-01            NaN
         13   -1    0    0    0    0  0.00000000000E+00  0.00000000000E+00  0.74505805969E-08  0.10566000000E+00  0.10566000000E+00 0. -1.
     999900   -1    0    0    0    0 -0.00000000000E+00 -0.00000000000E+00 -0.74505805969E-08  0.93827000000E+00  0.93827000000E+00 0. -1.
     999902    2    1    2    0    0 -0.12485137927E-01 -0.14852781248E-01 -0.12918044853E-01  0.10206199236E+01  0.10203536979E+01 0.  0.
     999903    2    3    3    0    0 -0.19225992438E-01  0.89733727405E-01 -0.91310889541E-01  0.13094064709E+00  0.19646727296E-01 0.  0.
         14    1    1    2    0    0  0.12485137927E-01  0.14852781248E-01  0.12918044853E-01  0.23310076419E-01  0.00000000000E+00 0. -1.
     999901    1    3    3    0    0  0.67408545115E-02 -0.10458650865E+00  0.78392844688E-01  0.88967927649E+00  0.88000000000E+00 0.  1.
        -11    1    4    4    0    0 -0.18500761072E-01  0.43687057631E-01 -0.40690770690E-01  0.62504696664E-01  0.51100000000E-03 0.  1.
         11    1    4    4    0    0 -0.72523136610E-03  0.46046669773E-01 -0.50620118850E-01  0.68435950429E-01  0.51100000000E-03 0. -1.
</event>
<event>
 8    1  0.1083484E+005  0.1043930E+01  0.7957747E-01            NaN
         13   -1    0    0    0    0  0.00000000000E+00  0.00000000000E+00  0.74505805969E-08  0.10566000000E+00  0.10566000000E+00 0. -1.
     999900   -1    0    0    0    0 -0.00000000000E+00 -0.00000000000E+00 -0.74505805969E-08  0.93827000000E+00  0.93827000000E+00 0.  1.
     999902    2    1    2    0    0  0.17157378279E-01  0.41282301207E-02 -0.16360963622E-01  0.10198655232E+01  0.10195815742E+01 0.  0.
     999903    2    3    3    0    0  0.22657000997E-01  0.11748427702E+00 -0.51830659627E-01  0.13186893618E+00  0.19674958954E-01 0.  0.
         14    1    1    2    0    0 -0.17157378279E-01 -0.41282301207E-02  0.16360963622E-01  0.24064476807E-01  0.00000000000E+00 0. -1.
     999901    1    3    3    0    0 -0.54996227176E-02 -0.11335604690E+00  0.35469696004E-01  0.88799658702E+00  0.88000000000E+00 0.  1.
        -11    1    4    4    0    0  0.11561393848E-01  0.77997686040E-01 -0.43350694208E-01  0.89982490878E-01  0.51100000000E-03 0.  1.
         11    1    4    4    0    0  0.11095607148E-01  0.39486590980E-01 -0.84799654187E-02  0.41886445298E-01  0.51100000000E-03 0. -1.
</event>
<event>
 8    1  0.1083484E+005  0.1043930E+01  0.7957747E-01            NaN
         13   -1    0    0    0    0  0.00000000000E+00  0.00000000000E+00  0.74505805969E-08  0.10566000000E+00  0.10566000000E+00 0.  1.
     999900   -1    0    0    0    0 -0.00000000000E+00 -0.00000000000E+00 -0.74505805969E-08  0.93827000000E+00  0.93827000000E+00 0. -1.
     999902    2    1    2    0    0  0.15540231203E-01 -0.90357921633E-02 -0.14238154578E-01  0.10209981581E+01  0.10207405986E+01 0.  0.
     999903    2    3    3    0    0  0.55626339282E-02 -0.13068585810E+00 -0.39366789153E-02  0.13251382434E+00  0.20848975905E-01 0.  0.
         14    1    1    2    0    0 -0.15540231203E-01  0.90357921633E-02  0.14238154578E-01  0.22931841872E-01  0.00000000000E+00 0. -1.
     999901    1    3    3    0    0  0.99775972751E-02  0.12165006594E+00 -0.10301475663E-01  0.88848433379E+00  0.88000000000E+00 0. -1.
        -11    1    4    4    0    0  0.99728228860E-03 -0.10640956930E+00  0.42086809808E-02  0.10649866256E+00  0.51100000000E-03 0. -1.
         11    1    4    4    0    0  0.45653516396E-02 -0.24276288804E-01 -0.81453598961E-02  0.26015161782E-01  0.51100000000E-03 0.  1.
</event>
<event>
 8    1  0.1083484E+005  0.1043930E+01  0.7957747E-01            NaN
         13   -1    0    0    0    0  0.00000000000E+00  0.00000000000E+00  0.74505805969E-08  0.10566000000E+00  0.10566000000E+00 0. -1.
     999900   -1    0    0    0    0 -0.00000000000E+00 -0.00000000000E+00 -0.74505805969E-08  0.93827000000E+00  0.93827000000E+00 0.  1.
     999902    2    1    2    0    0  0.11396082120E-01 -0.11770743595E-01 -0.17172611403E-01  0.10201956436E+01  0.10199195221E+01 0.  0.
     999903    2    3    3    0    0 -0.80624901422E-01 -0.10011328822E+00  0.77640736881E-02  0.13064850887E+00  0.22038757242E-01 0.  0.
         14    1    1    2    0    0 -0.11396082120E-01  0.11770743595E-01  0.17172611403E-01  0.23734356424E-01  0.00000000000E+00 0. -1.
     999901    1    3    3    0    0  0.92020983542E-01  0.88342544630E-01 -0.24936685091E-01  0.88954713471E+00  0.88000000000E+00 0.  1.
        -11    1    4    4    0    0 -0.70385214773E-01 -0.86910403617E-01  0.14200552755E-01  0.11273603477E+00  0.51100000000E-03 0. -1.
         11    1    4    4    0    0 -0.10239686649E-01 -0.13202884608E-01 -0.64364790669E-02  0.17912474101E-01  0.51100000000E-03 0.  1.
</event>
<event>
 8    1  0.1083484E+005  0.1043930E+01  0.7957747E-01            NaN
         13   -1    0    0    0    0  0.00000000000E+00  0.00000000000E+00  0.74505805969E-08  0.10566000000E+00  0.10566000000E+00 0.  1.
     999900   -1    0    0    0    0 -0.00000000000E+00 -0.00000000000E+00 -0.74505805969E-08  0.93827000000E+00  0.93827000000E+00 0. -1.
     999902    2    1    2    0    0 -0.13957074701E-01 -0.12345374828E-01  0.13689561325E-01  0.10208083153E+01  0.10205464244E+01 0.  0.
     999903    2    3    3    0    0 -0.65319895047E-01 -0.99026620714E-01 -0.55498274361E-01  0.13236094246E+00  0.19141586503E-01 0.  0.
         14    1    1    2    0    0  0.13957074701E-01  0.12345374828E-01 -0.13689561325E-01  0.23121684694E-01  0.00000000000E+00 0. -1.
     999901    1    3    3    0    0  0.51362820346E-01  0.86681245887E-01  0.69187835685E-01  0.88844737284E+00  0.88000000000E+00 0. -1.
        -11    1    4    4    0    0 -0.40114463130E-01 -0.43710040583E-01 -0.29196332140E-01  0.66124312710E-01  0.51100000000E-03 0.  1.
         11    1    4    4    0    0 -0.25205431917E-01 -0.55316580131E-01 -0.26301942221E-01  0.66236629754E-01  0.51100000000E-03 0. -1.
</event>
<event>
 8    1  0.1083484E+005  0.1043930E+01  0.7957747E-01            NaN
         13   -1    0    0    0    0  0.00000000000E+00  0.00000000000E+00  0.74505805969E-08  0.10566000000E+00  0.10566000000E+00 0.  1.
     999900   -1    0    0    0    0 -0.00000000000E+00 -0.00000000000E+00 -0.74505805969E-08  0.93827000000E+00  0.93827000000E+00 0.  1.
     999902    2    1    2    0    0  0.21840017254E-01  0.52104928817E-02 -0.10433783991E-01  0.10191711745E+01  0.10188703959E+01 0.  0.
     999903    2    3    3    0    0 -0.15094804051E-01  0.97594501255E-01  0.80447338410E-01  0.12891370367E+00  0.19860235468E-01 0.  0.
         14    1    1    2    0    0 -0.21840017254E-01 -0.52104928817E-02  0.10433783991E-01  0.24758825459E-01  0.00000000000E+00 0.  1.
     999901    1    3    3    0    0  0.36934821305E-01 -0.92384008373E-01 -0.90881122402E-01  0.89025747087E+00  0.88000000000E+00 0.  1.
        -11    1    4    4    0    0 -0.55718586201E-02  0.18010723163E-01  0.25576142338E-01  0.31777852905E-01  0.51100000000E-03 0.  1.
         11    1    4    4    0    0 -0.95229454314E-02  0.79583778092E-01  0.54871196072E-01  0.97135850768E-01  0.51100000000E-03 0. -1.
</event>
<event>
 8    1  0.1083484E+005  0.1043930E+01  0.7957747E-01            NaN
         13   -1    0    0    0    0  0.00000000000E+00  0.00000000000E+00  0.74505805969E-08  0.10566000000E+00  0.10566000000E+00 0.  1.
     999900   -1    0    0    0    0 -0.00000000000E+00 -0.00000000000E+00 -0.74505805969E-08  0.93827000000E+00  0.93827000000E+00 0.  1.
     999902    2    1    2    0    0 -0.46300120959E-02  0.75751534258E-02 -0.21632317341E-01  0.10205467343E+01  0.10202788147E+01 0.  0.
     999903    2    3    3    0    0  0.10432254678E+00 -0.21733030900E-01 -0.74807524743E-01  0.13175135152E+00  0.20167659047E-01 0.  0.
         14    1    1    2    0    0  0.46300120959E-02 -0.75751534258E-02  0.21632317341E-01  0.23383265704E-01  0.00000000000E+00 0.  1.
     999901    1    3    3    0    0 -0.10895255888E+00  0.29308184326E-01  0.53175207402E-01  0.88879538277E+00  0.88000000000E+00 0. -1.
        -11    1    4    4    0    0  0.38277371753E-01 -0.17981965264E-01 -0.29878487379E-01  0.51783138107E-01  0.51100000000E-03 0. -1.
         11    1    4    4    0    0  0.66045175027E-01 -0.37510656360E-02 -0.44929037364E-01  0.79968213418E-01  0.51100000000E-03 0.  1.
</event>
<event>
 8    1  0.1083484E+005  0.1043930E+01  0.7957747E-01            NaN
         13   -1    0    0    0    0  0.00000000000E+00  0.00000000000E+00  0.74505805969E-08  0.10566000000E+00  0.10566000000E+00 0. -1.
     999900   -1    0    0    0    0 -0.00000000000E+00 -0.00000000000E+00 -0.74505805969E-08  0.93827000000E+00  0.93827000000E+00 0. -1.
     999902    2    1    2    0    0  0.13567970560E-01 -0.13038336663E-01  0.15729749509E-01  0.10194042367E+01  0.10191091623E+01 0.  0.
     999903    2    3    3    0    0 -0.71800684084E-01  0.10093523581E+00  0.23480084911E-01  0.12792353012E+00  0.21676141474E-01 0.  0.
         14    1    1    2    0    0 -0.13567970560E-01  0.13038336663E-01 -0.15729749509E-01  0.24525763345E-01  0.00000000000E+00 0. -1.
     999901    1    3    3    0    0  0.85368654644E-01 -0.11397357247E+00 -0.77503354017E-02  0.89148070653E+00  0.88000000000E+00 0.  1.
        -11    1    4    4    0    0 -0.64759448602E-01  0.76130110547E-01  0.17985373811E-01  0.10155449132E+00  0.51100000000E-03 0.  1.
         11    1    4    4    0    0 -0.70412354820E-02  0.24805125262E-01  0.54947110998E-02  0.26369038804E-01  0.51100000000E-03 0. -1.
</event>
<event>
 8    1  0.1083484E+005  0.1043930E+01  0.7957747E-01            NaN
         13   -1    0    0    0    0  0.00000000000E+00  0.00000000000E+00  0.74505805969E-08  0.10566000000E+00  0.10566000000E+00 0. -1.
     999900   -1    0    0    0    0 -0.00000000000E+00 -0.00000000000E+00 -0.74505805969E-08  0.93827000000E+00  0.93827000000E+00 0. -1.
     999902    2    1    2    0    0 -0.24543585219E-01 -0.13093857613E-01  0.38878250813E-03  0.10161093632E+01  0.10157284332E+01 0.  0.
     999903    2    3    3    0    0 -0.75211564101E-02  0.54012054701E-01 -0.11211628188E+00  0.12624962361E+00  0.19875536535E-01 0.  0.
         14    1    1    2    0    0  0.24543585219E-01  0.13093857613E-01 -0.38878250813E-03  0.27820636845E-01  0.00000000000E+00 0.  1.
     999901    1    3    3    0    0 -0.17022428809E-01 -0.67105912314E-01  0.11250506439E+00  0.88985973954E+00  0.88000000000E+00 0.  1.
        -11    1    4    4    0    0 -0.11569776536E-01  0.50637307083E-01 -0.94267371656E-01  0.10763175683E+00  0.51100000000E-03 0. -1.
         11    1    4    4    0    0  0.40486201263E-02  0.33747476182E-02 -0.17848910223E-01  0.18617866783E-01  0.51100000000E-03 0.  1.
</event>
<event>
 8    1  0.1083484E+005  0.1043930E+01  0.7957747E-01            NaN
         13   -1    0    0    0    0  0.00000000000E+00  0.00000000000E+00  0.74505805969E-08  0.10566000000E+00  0.10566000000E+00 0.  1.
     999900   -1    0    0    0    0 -0.00000000000E+00 -0.00000000000E+00 -0.74505805969E-08  0.93827000000E+00  0.93827000000E+00 0. -1.
     999902    2    1    2    0    0 -0.42075616575E-02 -0.18065975173E-01 -0.13925782208E-01  0.10207349479E+01  0.10204713731E+01 0.  0.
     999903    2    3    3    0    0 -0.10639364560E+00 -0.64624308301E-01 -0.43330986208E-01  0.13311208866E+00  0.18583453234E-01 0.  0.
         14    1    1    2    0    0  0.42075616575E-02  0.18065975173E-01  0.13925782208E-01  0.23195052148E-01  0.00000000000E+00 0.  1.
     999901    1    3    3    0    0  0.10218608394E+00  0.46558333128E-01  0.29405204000E-01  0.88762285919E+00  0.88000000000E+00 0. -1.
        -11    1    4    4    0    0 -0.70510870028E-01 -0.34652020368E-01 -0.33067236912E-01  0.85242293409E-01  0.51100000000E-03 0. -1.
         11    1    4    4    0    0 -0.35882775574E-01 -0.29972287933E-01 -0.10263749297E-01  0.47869795252E-01  0.51100000000E-03 0.  1.
</event>
<event>
 8    1  0.1083484E+005  0.1043930E+01  0.7957747E-01            NaN
         13   -1    0    0    0    0  0.00000000000E+00  0.00000000000E+00  0.74505805969E-08  0.10566000000E+00  0.10566000000E+00 0.  1.
     999900   -1    0    0    0    0 -0.00000000000E+00 -0.00000000000E+00 -0.74505805969E-08  0.93827000000E+00  0.93827000000E+00 0.  1.
     999902    2    1    2    0    0 -0.17581089627E-01  0.11078571104E-01 -0.11245515290E-01  0.10203018163E+01  0.10200281885E+01 0.  0.
     999903    2    3    3    0    0 -0.13916110043E-01 -0.10432503500E+00  0.71692897081E-01  0.12889270450E+00  0.19901927908E-01 0.  0.
         14    1    1    2    0    0  0.17581089627E-01 -0.11078571104E-01  0.11245515290E-01  0.23628183687E-01  0.00000000000E+00 0. -1.
     999901    1    3    3    0    0 -0.36649795835E-02  0.11540360611E+00 -0.82938412371E-01  0.89140911181E+00  0.88000000000E+00 0. -1.
        -11    1    4    4    0    0 -0.12028181885E-01 -0.83944745088E-01  0.66507130472E-01  0.10777224555E+00  0.51100000000E-03 0.  1.
         11    1    4    4    0    0 -0.18879281585E-02 -0.20380289914E-01  0.51857666091E-02  0.21120458945E-01  0.51100000000E-03 0. -1.
</event>
<event>
 8    1  0.1083484E+005  0.1043930E+01  0.7957747E-01            NaN
         13   -1    0    0    0    0  0.00000000000E+00  0.00000000000E+00  0.74505805969E-08  0.10566000000E+00  0.10566000000E+00 0. -1.
     999900   -1    0    0    0    0 -0.00000000000E+00 -0.00000000000E+00 -0.74505805969E-08  0.93827000000E+00  0.93827000000E+00 0. -1.
     999902    2    1    2    0    0  0.34132544480E-02 -0.22529585417E-01  0.39201087402E-02  0.10208085862E+01  0.10205467014E+01 0.  0.
     999903    2    3    3    0    0  0.51516369643E-01  0.16848046570E-01  0.11789677823E+00  0.13128332583E+00  0.19946636527E-01 0.  0.
         14    1    1    2    0    0 -0.34132544480E-02  0.22529585417E-01 -0.39201087402E-02  0.23121413831E-01  0.00000000000E+00 0. -1.
     999901    1    3    3    0    0 -0.48103115195E-01 -0.39377631987E-01 -0.11397666949E+00  0.88952526034E+00  0.88000000000E+00 0. -1.
        -11    1    4    4    0    0  0.33360283022E-01  0.67746676610E-02  0.51683808088E-01  0.61889270029E-01  0.51100000000E-03 0. -1.
         11    1    4    4    0    0  0.18156086621E-01  0.10073378909E-01  0.66212970146E-01  0.69394055801E-01  0.51100000000E-03 0.  1.
</event>
<event>
 8    1  0.1083484E+005  0.1043930E+01  0.7957747E-01            NaN
         13   -1    0    0    0    0  0.00000000000E+00  0.00000000000E+00  0.74505805969E-08  0.10566000000E+00  0.10566000000E+00 0.  1.
     999900   -1    0    0    0    0 -0.00000000000E+00 -0.00000000000E+00 -0.74505805969E-08  0.93827000000E+00  0.93827000000E+00 0. -1.
     999902    2    1    2    0    0  0.12012990781E-01 -0.19519280715E-01  0.63025666605E-02  0.10201595012E+01  0.10198825282E+01 0.  0.
     999903    2    3    3    0    0 -0.11900413577E+00 -0.18049638369E-01  0.43404755444E-01  0.12968534676E+00  0.21131554432E-01 0.  0.
         14    1    1    2    0    0 -0.12012990781E-01  0.19519280715E-01 -0.63025666605E-02  0.23770498809E-01  0.00000000000E+00 0. -1.
     999901    1    3    3    0    0  0.13101712655E+00 -0.14696423458E-02 -0.37102188784E-01  0.89047415443E+00  0.88000000000E+00 0. -1.
        -11    1    4    4    0    0 -0.96802267321E-01 -0.11987357143E-01  0.43156751458E-01  0.10666368645E+00  0.51100000000E-03 0. -1.
         11    1    4    4    0    0 -0.22201868451E-01 -0.60622812263E-02  0.24800398585E-03  0.23021660309E-01  0.51100000000E-03 0.  1.
</event>
<event>
 8    1  0.1083484E+005  0.1043930E+01  0.7957747E-01            NaN
         13   -1    0    0    0    0  0.00000000000E+00  0.00000000000E+00  0.74505805969E-08  0.10566000000E+00  0.10566000000E+00 0.  1.
     999900   -1    0    0    0    0 -0.00000000000E+00 -0.00000000000E+00 -0.74505805969E-08  0.93827000000E+00  0.93827000000E+00 0.  1.
     999902    2    1    2    0    0  0.12189583487E-01 -0.19214040552E-01 -0.66092162653E-02  0.10202351263E+01  0.10199599335E+01 0.  0.
     999903    2    3    3    0    0 -0.37140767715E-01 -0.10190863886E+00  0.73004729512E-01  0.13140991261E+00  0.13193456720E-01 0.  0.
         14    1    1    2    0    0 -0.12189583487E-01  0.19214040552E-01  0.66092162653E-02  0.23694873698E-01  0.00000000000E+00 0.  1.
     999901    1    3    3    0    0  0.49330351203E-01  0.82694598304E-01 -0.79613945777E-01  0.88882521370E+00  0.88000000000E+00 0. -1.
        -11    1    4    4    0    0 -0.93303233981E-02 -0.32772300015E-01  0.16350544467E-01  0.37797883649E-01  0.51100000000E-03 0. -1.
         11    1    4    4    0    0 -0.27810444317E-01 -0.69136338841E-01  0.56654185045E-01  0.93612028958E-01  0.51100000000E-03 0.  1.
</event>
<event>
 8    1  0.1083484E+005  0.1043930E+01  0.7957747E-01            NaN
         13   -1    0    0    0    0  0.00000000000E+00  0.00000000000E+00  0.74505805969E-08  0.10566000000E+00  0.10566000000E+00 0.  1.
     999900   -1    0    0    0    0 -0.00000000000E+00 -0.00000000000E+00 -0.74505805969E-08  0.93827000000E+00  0.93827000000E+00 0.  1.
     999902    2    1    2    0    0 -0.27723998626E-02  0.22226215818E-01  0.77768436122E-02  0.10202198721E+01  0.10199443206E+01 0.  0.
     999903    2    3    3    0    0 -0.71290646002E-01 -0.71193361365E-01 -0.77264489832E-01  0.12856186819E+00  0.20186670224E-01 0.  0.
         14    1    1    2    0    0  0.27723998626E-02 -0.22226215818E-01 -0.77768436122E-02  0.23710127945E-01  0.00000000000E+00 0.  1.
     999901    1    3    3    0    0  0.68518246139E-01  0.93419577183E-01  0.85041333445E-01  0.89165800386E+00  0.88000000000E+00 0. -1.
        -11    1    4    4    0    0 -0.23236669895E-01 -0.37236038904E-01 -0.34133419371E-01  0.55604108302E-01  0.51100000000E-03 0. -1.
         11    1    4    4    0    0 -0.48053976107E-01 -0.33957322461E-01 -0.43131070461E-01  0.72957759892E-01  0.51100000000E-03 0.  1.
</event>
<event>
 8    1  0.1083484E+005  0.1043930E+01  0.7957747E-01            NaN
         13   -1    0    0    0    0  0.00000000000E+00  0.00000000000E+00  0.74505805969E-08  0.10566000000E+00  0.10566000000E+00 0.  1.
     999900   -1    0    0    0    0 -0.00000000000E+00 -0.00000000000E+00 -0.74505805969E-08  0.93827000000E+00  0.93827000000E+00 0.  1.
     999902    2    1    2    0    0  0.16125790769E-01  0.99037094796E-02 -0.14515841386E-01  0.10200797539E+01  0.10198008972E+01 0.  0.
     999903    2    3    3    0    0 -0.10596071407E+00  0.72030747233E-02 -0.72482532252E-01  0.12975815729E+00  0.17432862306E-01 0.  0.
         14    1    1    2    0    0 -0.16125790769E-01 -0.99037094796E-02  0.14515841386E-01  0.23850246131E-01  0.00000000000E+00 0.  1.
     999901    1    3    3    0    0  0.12208650484E+00  0.27006347563E-02  0.57966690866E-01  0.89032159658E+00  0.88000000000E+00 0.  1.
        -11    1    4    4    0    0 -0.42424834843E-01  0.29421475726E-02 -0.39498017479E-01  0.58042030888E-01  0.51100000000E-03 0.  1.
         11    1    4    4    0    0 -0.63535879230E-01  0.42609271506E-02 -0.32984514773E-01  0.71716126398E-01  0.51100000000E-03 0. -1.
</event>
<event>
 8    1  0.1083484E+005  0.1043930E+01  0.7957747E-01            NaN
         13   -1    0    0    0    0  0.00000000000E+00  0.00000000000E+00  0.74505805969E-08  0.10566000000E+00  0.10566000000E+00 0.  1.
     999900   -1    0    0    0    0 -0.00000000000E+00 -0.00000000000E+00 -0.74505805969E-08  0.93827000000E+00  0.93827000000E+00 0. -1.
     999902    2    1    2    0    0  0.22985072938E-02  0.28278848552E-02  0.21487927158E-01  0.10221352510E+01  0.10219028625E+01 0.  0.
     999903    2    3    3    0    0 -0.10918452209E+00 -0.67546482642E-01  0.24813459348E-01  0.13230825853E+00  0.20148953573E-01 0.  0.
         14    1    1    2    0    0 -0.22985072938E-02 -0.28278848552E-02 -0.21487927158E-01  0.21794748957E-01  0.00000000000E+00 0. -1.
     999901    1    3    3    0    0  0.11148302938E+00  0.70374367497E-01 -0.33255321892E-02  0.88982699251E+00  0.88000000000E+00 0. -1.
        -11    1    4    4    0    0 -0.32020141790E-01 -0.95122369144E-02  0.63207528784E-02  0.33999781901E-01  0.51100000000E-03 0.  1.
         11    1    4    4    0    0 -0.77164380296E-01 -0.58034245728E-01  0.18492706469E-01  0.98308476629E-01  0.51100000000E-03 0. -1.
</event>
<event>
 8    1  0.1083484E+005  0.1043930E+01  0.7957747E-01            NaN
         13   -1    0    0    0    0  0.00000000000E+00  0.00000000000E+00  0.74505805969E-08  0.10566000000E+00  0.10566000000E+00 0. -1.
     999900   -1    0    0    0    0 -0.00000000000E+00 -0.00000000000E+00 -0.74505805969E-08  0.93827000000E+00  0.93827000000E+00 0.  1.
     999902    2    1    2    0    0  0.44891716128E-02  0.21373127244E-01  0.10355436228E-01  0.10197598058E+01  0.10194733264E+01 0.  0.
     999903    2    3    3    0    0  0.64192146384E-02 -0.65379335161E-01 -0.10759890131E+00  0.12765950841E+00  0.20093848349E-01 0.  0.
         14    1    1    2    0    0 -0.44891716128E-02 -0.21373127244E-01 -0.10355436228E-01  0.24170194236E-01  0.00000000000E+00 0.  1.
     999901    1    3    3    0    0 -0.19300430256E-02  0.86752462404E-01  0.11795433754E+00  0.89210029736E+00  0.88000000000E+00 0. -1.
        -11    1    4    4    0    0 -0.56078462092E-02 -0.40406975931E-01 -0.59501243485E-01  0.72144512891E-01  0.51100000000E-03 0. -1.
         11    1    4    4    0    0  0.12027060848E-01 -0.24972359229E-01 -0.48097657824E-01  0.55514995517E-01  0.51100000000E-03 0.  1.
</event>
<event>
 8    1  0.1083484E+005  0.1043930E+01  0.7957747E-01            NaN
         13   -1    0    0    0    0  0.00000000000E+00  0.00000000000E+00  0.74505805969E-08  0.10566000000E+00  0.10566000000E+00 0.  1.
     999900   -1    0    0    0    0 -0.00000000000E+00 -0.00000000000E+00 -0.74505805969E-08  0.93827000000E+00  0.93827000000E+00 0. -1.
     999902    2    1    2    0    0  0.16342620944E-01  0.17510219807E-01 -0.83113042447E-03  0.10199637772E+01  0.10196821696E+01 0.  0.
     999903    2    3    3    0    0  0.11353494025E+00 -0.60674904248E-01  0.99117922326E-02  0.13110233078E+00  0.22758533540E-01 0.  0.
         14    1    1    2    0    0 -0.16342620944E-01 -0.17510219807E-01  0.83113042447E-03  0.23966222789E-01  0.00000000000E+00 0.  1.
     999901    1    3    3    0    0 -0.97192319306E-01  0.78185124054E-01 -0.10742922657E-01  0.88886144643E+00  0.88000000000E+00 0.  1.
        -11    1    4    4    0    0  0.77563709987E-01 -0.40301557118E-01 -0.39427637836E-02  0.87499434971E-01  0.51100000000E-03 0. -1.
         11    1    4    4    0    0  0.35971230263E-01 -0.20373347130E-01  0.13854556016E-01  0.43602895814E-01  0.51100000000E-03 0.  1.
</event>
<event>
 8    1  0.1083484E+005  0.1043930E+01  0.7957747E-01            NaN
         13   -1    0    0    0    0  0.00000000000E+00  0.00000000000E+00  0.74505805969E-08  0.10566000000E+00  0.10566000000E+00 0.  1.
     999900   -1    0    0    0    0 -0.00000000000E+00 -0.00000000000E+00 -0.74505805969E-08  0.93827000000E+00  0.93827000000E+00 0. -1.
     999902    2    1    2    0    0 -0.35313718934E-02 -0.22221302990E-01 -0.75283015835E-02  0.10202038073E+01  0.10199278780E+01 0.  0.
     999903    2    3    3    0    0  0.56029760867E-01 -0.95585783208E-01 -0.70187125975E-01  0.13292932682E+00  0.21633243414E-01 0.  0.
         14    1    1    2    0    0  0.35313718934E-02  0.22221302990E-01  0.75283015835E-02  0.23726192673E-01  0.00000000000E+00 0.  1.
     999901    1    3    3    0    0 -0.59561132761E-01  0.73364480218E-01  0.62658824392E-01  0.88727448051E+00  0.88000000000E+00 0. -1.
        -11    1    4    4    0    0  0.32239000796E-01 -0.69959633977E-01 -0.55779333634E-01  0.95106775469E-01  0.51100000000E-03 0. -1.
         11    1    4    4    0    0  0.23790760072E-01 -0.25626149231E-01 -0.14407792342E-01  0.37822551347E-01  0.51100000000E-03 0.  1.
</event>
<event>
 8    1  0.1083484E+005  0.1043930E+01  0.7957747E-01            NaN
         13   -1    0    0    0    0  0.00000000000E+00  0.00000000000E+00  0.74505805969E-08  0.10566000000E+00  0.10566000000E+00 0.  1.
     999900   -1    0    0    0    0 -0.00000000000E+00 -0.00000000000E+00 -0.74505805969E-08  0.93827000000E+00  0.93827000000E+00 0. -1.
     999902    2    1    2    0    0 -0.22055561842E-01 -0.75928455131E-03  0.93034731905E-02  0.10199804920E+01  0.10196992817E+01 0.  0.
     999903    2    3    3    0    0 -0.10083689509E+00 -0.59965287180E-01 -0.57335613852E-01  0.13197564000E+00  0.19138491565E-01 0.  0.
         14    1    1    2    0    0  0.22055561842E-01  0.75928455131E-03 -0.93034731905E-02  0.23949508024E-01  0.00000000000E+00 0. -1.
     999901    1    3    3    0    0  0.78781333246E-01  0.59206002629E-01  0.66639087042E-01  0.88800485198E+00  0.88000000000E+00 0.  1.
        -11    1    4    4    0    0 -0.35059989687E-01 -0.29699836530E-01 -0.28275746585E-01  0.53954259634E-01  0.51100000000E-03 0.  1.
         11    1    4    4    0    0 -0.65776905401E-01 -0.30265450650E-01 -0.29059867267E-01  0.78021380363E-01  0.51100000000E-03 0. -1.
</event>
<event>
 7    1  0.1083484E+005  0.1043930E+01  0.7957747E-01            NaN
         13   -1    0    0    0    0  0.00000000000E+00  0.00000000000E+00  0.74505805969E-08  0.10566000000E+00  0.10566000000E+00 0. -1.
     999900   -1    0    0    0    0 -0.00000000000E+00 -0.00000000000E+00 -0.74505805969E-08  0.93827000000E+00  0.93827000000E+00 0.  1.
     999903    2    1    2    0    0 -0.10354261074E+00  0.29271679177E-01 -0.10907086616E-01  0.11026977762E+00  0.21507112251E-01 0.  0.
         14    1    1    2    0    0 -0.14724491239E-01  0.35971142220E-01  0.19121228943E-01  0.43316914839E-01  0.00000000000E+00 0. -1.
     999901    1    1    2    0    0  0.11826710198E+00 -0.65242821397E-01 -0.82141423266E-02  0.89034330754E+00  0.88000000000E+00 0. -1.
        -11    1    3    3    0    0 -0.65396182134E-01  0.23687423309E-01 -0.16017185236E-01  0.71376228568E-01  0.51100000000E-03 0. -1.
         11    1    3    3    0    0 -0.38146428603E-01  0.55842558680E-02  0.51100986204E-02  0.38893549050E-01  0.51100000000E-03 0.  1.
</event>
<event>
 8    1  0.1083484E+005  0.1043930E+01  0.7957747E-01            NaN
         13   -1    0    0    0    0  0.00000000000E+00  0.00000000000E+00  0.74505805969E-08  0.10566000000E+00  0.10566000000E+00 0. -1.
     999900   -1    0    0    0    0 -0.00000000000E+00 -0.00000000000E+00 -0.74505805969E-08  0.93827000000E+00  0.93827000000E+00 0.  1.
     999902    2    1    2    0    0 -0.64439516703E-02 -0.16233012550E-01  0.15998942581E-01  0.10202445324E+01  0.10199695606E+01 0.  0.
     999903    2    3    3    0    0 -0.11950905579E+00 -0.46967329064E-01 -0.21109069536E-01  0.13170341323E+00  0.20294132760E-01 0.  0.
         14    1    1    2    0    0  0.64439516703E-02  0.16233012550E-01 -0.15998942581E-01  0.23685467555E-01  0.00000000000E+00 0. -1.
     999901    1    3    3    0    0  0.11306510411E+00  0.30734316513E-01  0.37108012118E-01  0.88854111922E+00  0.88000000000E+00 0. -1.
        -11    1    4    4    0    0 -0.50382432675E-01 -0.30283194909E-01 -0.12150654176E-01  0.60028001250E-01  0.51100000000E-03 0.  1.
         11    1    4    4    0    0 -0.69126623110E-01 -0.16684134155E-01 -0.89584153607E-02  0.71675411975E-01  0.51100000000E-03 0. -1.
</event>
<event>
 8    1  0.1083484E+005  0.1043930E+01  0.7957747E-01            NaN
         13   -1    0    0    0    0  0.00000000000E+00  0.00000000000E+00  0.74505805969E-08  0.10566000000E+00  0.10566000000E+00 0. -1.
     999900   -1    0    0    0    0 -0.00000000000E+00 -0.00000000000E+00 -0.74505805969E-08  0.93827000000E+00  0.93827000000E+00 0.  1.
     999902    2    1    2    0    0  0.23171069524E-01 -0.17472848293E-03  0.43510676913E-03  0.10207541869E+01  0.10204910543E+01 0.  0.
     999903    2    3    3    0    0 -0.10453335121E-01 -0.32944404046E-01 -0.12445353298E+00  0.13069709632E+00  0.19961040613E-01 0.  0.
         14    1    1    2    0    0 -0.23171069524E-01  0.17472848293E-03 -0.43510676913E-03  0.23175813056E-01  0.00000000000E+00 0. -1.
     999901    1    3    3    0    0  0.33624404644E-01  0.32769675563E-01  0.12488863975E+00  0.89005709062E+00  0.88000000000E+00 0. -1.
        -11    1    4    4    0    0 -0.75156116499E-02 -0.12550106712E-02 -0.17175629690E-01  0.18796883958E-01  0.51100000000E-03 0.  1.
         11    1    4    4    0    0 -0.29377234706E-02 -0.31689393374E-01 -0.10727790329E+00  0.11190021237E+00  0.51100000000E-03 0. -1.
</event>
<event>
 8    1  0.1083484E+005  0.1043930E+01  0.7957747E-01            NaN
         13   -1    0    0    0    0  0.00000000000E+00  0.00000000000E+00  0.74505805969E-08  0.10566000000E+00  0.10566000000E+00 0.  1.
     999900   -1    0    0    0    0 -0.00000000000E+00 -0.00000000000E+00 -0.74505805969E-08  0.93827000000E+00  0.93827000000E+00 0.  1.
     999902    2    1    2    0    0 -0.10104649787E-02  0.17163616238E-01  0.15926154171E-01  0.10204938495E+01  0.10202247026E+01 0.  0.
     999903    2    3    3    0    0  0.33230383234E-02 -0.32087505744E-02 -0.12697403391E+00  0.12872354484E+00  0.20639938098E-01 0.  0.
         14    1    1    2    0    0  0.10104649787E-02 -0.17163616238E-01 -0.15926154171E-01  0.23436150462E-01  0.00000000000E+00 0. -1.
     999901    1    3    3    0    0 -0.43335033021E-02  0.20372366812E-01  0.14290018808E+00  0.89177030469E+00  0.88000000000E+00 0. -1.
        -11    1    4    4    0    0  0.10446757747E-01  0.35492168820E-02 -0.56789235313E-01  0.57853349569E-01  0.51100000000E-03 0. -1.
         11    1    4    4    0    0 -0.71237194237E-02 -0.67579674563E-02 -0.70184798601E-01  0.70870195274E-01  0.51100000000E-03 0.  1.
</event>
<event>
 7    1  0.1775759E+005  0.1043930E+01  0.7957747E-01            NaN
         13   -1    0    0    0    0  0.00000000000E+00  0.00000000000E+00  0.74505805969E-08  0.10566000000E+00  0.10566000000E+00 0.  1.
     999900   -1    0    0    0    0 -0.00000000000E+00 -0.00000000000E+00 -0.74505805969E-08  0.93827000000E+00  0.93827000000E+00 0.  1.
     999903    2    1    2    0    0 -0.84316260239E-02  0.85111880369E-01 -0.12543392239E-01  0.89991011304E-01  0.25018411807E-01 0.  0.
         14    1    1    2    0    0 -0.27277927844E-01  0.31004214074E-01 -0.48257719631E-01  0.63514991473E-01  0.00000000000E+00 0. -1.
     999901    1    1    2    0    0  0.35709553868E-01 -0.11611609444E+00  0.60801111870E-01  0.89042399722E+00  0.88000000000E+00 0. -1.
        -11    1    3    3    0    0  0.18304947981E-02  0.65680344745E-01 -0.23193987847E-02  0.65748757622E-01  0.51100000000E-03 0. -1.
         11    1    3    3    0    0 -0.10262120822E-01  0.19431535623E-01 -0.10223993454E-01  0.24242253682E-01  0.51100000000E-03 0.  1.
</event>
<event>
 8    1  0.1083484E+005  0.1043930E+01  0.7957747E-01            NaN
         13   -1    0    0    0    0  0.00000000000E+00  0.00000000000E+00  0.74505805969E-08  0.10566000000E+00  0.10566000000E+00 0. -1.
     999900   -1    0    0    0    0 -0.00000000000E+00 -0.00000000000E+00 -0.74505805969E-08  0.93827000000E+00  0.93827000000E+00 0. -1.
     999902    2    1    2    0    0 -0.50205859682E-02 -0.41441414444E-02  0.23122767757E-01  0.10199082894E+01  0.10196253607E+01 0.  0.
     999903    2    3    3    0    0  0.86638069719E-01  0.86795546693E-01 -0.33583242826E-01  0.12868053642E+00  0.19779388339E-01 0.  0.
         14    1    1    2    0    0  0.50205859682E-02  0.41441414444E-02 -0.23122767757E-01  0.24021710607E-01  0.00000000000E+00 0.  1.
     999901    1    3    3    0    0 -0.91658655687E-01 -0.90939688137E-01  0.56706010583E-01  0.89122775298E+00  0.88000000000E+00 0.  1.
        -11    1    4    4    0    0  0.27212430822E-01  0.28831373161E-01 -0.14868358445E-02  0.39676646423E-01  0.51100000000E-03 0.  1.
         11    1    4    4    0    0  0.59425638897E-01  0.57964173532E-01 -0.32096406981E-01  0.89003889992E-01  0.51100000000E-03 0. -1.
</event>
<event>
 8    1  0.1083484E+005  0.1043930E+01  0.7957747E-01            NaN
         13   -1    0    0    0    0  0.00000000000E+00  0.00000000000E+00  0.74505805969E-08  0.10566000000E+00  0.10566000000E+00 0. -1.
     999900   -1    0    0    0    0 -0.00000000000E+00 -0.00000000000E+00 -0.74505805969E-08  0.93827000000E+00  0.93827000000E+00 0. -1.
     999902    2    1    2    0    0  0.47389276999E-02 -0.35523445762E-03 -0.23101451729E-01  0.10203448203E+01  0.10200721993E+01 0.  0.
     999903    2    3    3    0    0  0.53602716097E-01 -0.28725049821E-01  0.11112497136E+00  0.12837551096E+00  0.20811845005E-01 0.  0.
         14    1    1    2    0    0 -0.47389276999E-02  0.35523445762E-03  0.23101451729E-01  0.23585179653E-01  0.00000000000E+00 0. -1.
     999901    1    3    3    0    0 -0.48863788397E-01  0.28369815364E-01 -0.13422642309E+00  0.89196930939E+00  0.88000000000E+00 0. -1.
        -11    1    4    4    0    0  0.92137256765E-02 -0.13403075564E-01  0.19347669867E-01  0.25280993369E-01  0.51100000000E-03 0.  1.
         11    1    4    4    0    0  0.44388990421E-01 -0.15321974258E-01  0.91777301495E-01  0.10309451759E+00  0.51100000000E-03 0. -1.
</event>
<event>
 8    1  0.1083484E+005  0.1043930E+01  0.7957747E-01            NaN
         13   -1    0    0    0    0  0.00000000000E+00  0.00000000000E+00  0.74505805969E-08  0.10566000000E+00  0.10566000000E+00 0. -1.
     999900   -1    0    0    0    0 -0.00000000000E+00 -0.00000000000E+00 -0.74505805969E-08  0.93827000000E+00  0.93827000000E+00 0.  1.
     999902    2    1    2    0    0 -0.13497165915E-01  0.19153822419E-01  0.57680720769E-02  0.10197988364E+01  0.10195132925E+01 0.  0.
     999903    2    3    3    0    0  0.87300467374E-01  0.20159694647E-01  0.92215171803E-01  0.12983576093E+00  0.18052756404E-01 0.  0.
         14    1    1    2    0    0  0.13497165915E-01 -0.19153822419E-01 -0.57680720769E-02  0.24131163596E-01  0.00000000000E+00 0.  1.
     999901    1    3    3    0    0 -0.10079763329E+00 -0.10058722273E-02 -0.86447099726E-01  0.88996307547E+00  0.88000000000E+00 0.  1.
        -11    1    4    4    0    0  0.44897749661E-01  0.14745036861E-01  0.59607572332E-01  0.76069362012E-01  0.51100000000E-03 0.  1.
         11    1    4    4    0    0  0.42402717713E-01  0.54146577858E-02  0.32607599471E-01  0.53766398918E-01  0.51100000000E-03 0. -1.
</event>
<event>
 8    1  0.1083484E+005  0.1043930E+01  0.7957747E-01            NaN
         13   -1    0    0    0    0  0.00000000000E+00  0.00000000000E+00  0.74505805969E-08  0.10566000000E+00  0.10566000000E+00 0.  1.
     999900   -1    0    0    0    0 -0.00000000000E+00 -0.00000000000E+00 -0.74505805969E-08  0.93827000000E+00  0.93827000000E+00 0.  1.
     999902    2    1    2    0    0 -0.12950443837E-01 -0.20534526421E-01  0.18477871566E-02  0.10195826164E+01  0.10192918702E+01 0.  0.
     999903    2    3    3    0    0 -0.11264553370E+00 -0.51084881339E-01  0.43116705134E-01  0.13246618733E+00  0.19737253120E-01 0.  0.
         14    1    1    2    0    0  0.12950443837E-01  0.20534526421E-01 -0.18477871566E-02  0.24347383602E-01  0.00000000000E+00 0. -1.
     999901    1    3    3    0    0  0.99695089862E-01  0.30550354918E-01 -0.41268917978E-01  0.88711642907E+00  0.88000000000E+00 0.  1.
        -11    1    4    4    0    0 -0.69146142414E-01 -0.21161195459E-01  0.27991847608E-01  0.77542181150E-01  0.51100000000E-03 0. -1.
         11    1    4    4    0    0 -0.43499391285E-01 -0.29923685880E-01  0.15124857526E-01  0.54924006181E-01  0.51100000000E-03 0.  1.
</event>
<event>
 8    1  0.1083484E+005  0.1043930E+01  0.7957747E-01            NaN
         13   -1    0    0    0    0  0.00000000000E+00  0.00000000000E+00  0.74505805969E-08  0.10566000000E+00  0.10566000000E+00 0. -1.
     999900   -1    0    0    0    0 -0.00000000000E+00 -0.00000000000E+00 -0.74505805969E-08  0.93827000000E+00  0.93827000000E+00 0. -1.
     999902    2    1    2    0    0 -0.12237972279E-01 -0.20310263235E-01 -0.33089790638E-02  0.10199879011E+01  0.10197068668E+01 0.  0.
     999903    2    3    3    0    0  0.80526528547E-01 -0.13776953547E-01  0.98071795727E-01  0.12929940433E+00  0.20638134461E-01 0.  0.
         14    1    1    2    0    0  0.12237972279E-01  0.20310263235E-01  0.33089790638E-02  0.23942098918E-01  0.00000000000E+00 0.  1.
     999901    1    3    3    0    0 -0.92764500826E-01 -0.65333096879E-02 -0.10138077479E+00  0.89068849675E+00  0.88000000000E+00 0.  1.
        -11    1    4    4    0    0  0.64457766311E-01 -0.19254211715E-01  0.77749460902E-01  0.10281424074E+00  0.51100000000E-03 0. -1.
         11    1    4    4    0    0  0.16068762236E-01  0.54772581687E-02  0.20322334825E-01  0.26485163593E-01  0.51100000000E-03 0.  1.
</event>
<event>
 8    1  0.1083484E+005  0.1043930E+01  0.7957747E-01            NaN
         13   -1    0    0    0    0  0.00000000000E+00  0.00000000000E+00  0.74505805969E-08  0.10566000000E+00  0.10566000000E+00 0.  1.
     999900   -1    0    0    0    0 -0.00000000000E+00 -0.00000000000E+00 -0.74505805969E-08  0.93827000000E+00  0.93827000000E+00 0. -1.
     999902    2    1    2    0    0  0.10402745986E-01 -0.70718911057E-02  0.20085137605E-01  0.10202310228E+01  0.10199557335E+01 0.  0.
     999903    2    3    3    0    0  0.86007990245E-01 -0.78858173722E-01  0.60431916620E-01  0.13315871125E+00  0.21523008328E-01 0.  0.
         14    1    1    2    0    0 -0.10402745986E-01  0.70718911057E-02 -0.20085137605E-01  0.23698977203E-01  0.00000000000E+00 0. -1.
     999901    1    3    3    0    0 -0.75605244259E-01  0.71786282616E-01 -0.40346779016E-01  0.88707231154E+00  0.88000000000E+00 0. -1.
        -11    1    4    4    0    0  0.50301425740E-02 -0.39194168357E-02 -0.15842958747E-02  0.65905445197E-02  0.51100000000E-03 0.  1.
         11    1    4    4    0    0  0.80977847671E-01 -0.74938756886E-01  0.62016212495E-01  0.12656816673E+00  0.51100000000E-03 0. -1.
</event>
<event>
 8    1  0.1083484E+005  0.1043930E+01  0.7957747E-01            NaN
         13   -1    0    0    0    0  0.00000000000E+00  0.00000000000E+00  0.74505805969E-08  0.10566000000E+00  0.10566000000E+00 0.  1.
     999900   -1    0    0    0    0 -0.00000000000E+00 -0.00000000000E+00 -0.74505805969E-08  0.93827000000E+00  0.93827000000E+00 0.  1.
     999902    2    1    2    0    0  0.21452761573E-01 -0.10106276384E-01  0.25276801140E-02  0.10200815835E+01  0.10198027702E+01 0.  0.
     999903    2    3    3    0    0  0.41576823366E-01  0.67537248710E-01  0.10174906003E+00  0.13088060676E+00  0.22066939186E-01 0.  0.
         14    1    1    2    0    0 -0.21452761573E-01  0.10106276384E-01 -0.25276801140E-02  0.23848416472E-01  0.00000000000E+00 0. -1.
     999901    1    3    3    0    0 -0.20124061792E-01 -0.77643525094E-01 -0.99221379913E-01  0.88920097677E+00  0.88000000000E+00 0.  1.
        -11    1    4    4    0    0  0.12964412214E-01  0.40175433265E-01  0.59758223197E-01  0.73167258954E-01  0.51100000000E-03 0. -1.
         11    1    4    4    0    0  0.28612411152E-01  0.27361815445E-01  0.41990836830E-01  0.57713347807E-01  0.51100000000E-03 0.  1.
</event>
<event>
 8    1  0.1083484E+005  0.1043930E+01  0.7957747E-01            NaN
         13   -1    0    0    0    0  0.00000000000E+00  0.00000000000E+00  0.74505805969E-08  0.10566000000E+00  0.10566000000E+00 0. -1.
     999900   -1    0    0    0    0 -0.00000000000E+00 -0.00000000000E+00 -0.74505805969E-08  0.93827000000E+00  0.93827000000E+00 0.  1.
     999902    2    1    2    0    0  0.35960630581E-02  0.14468706033E-01  0.19015175144E-01  0.10197669702E+01  0.10194806626E+01 0.  0.
     999903    2    3    3    0    0 -0.20199261313E-01  0.12016210930E+00 -0.44226566043E-01  0.13087055846E+00  0.18004756606E-01 0.  0.
         14    1    1    2    0    0 -0.35960630581E-02 -0.14468706033E-01 -0.19015175144E-01  0.24163029808E-01  0.00000000000E+00 0.  1.
     999901    1    3    3    0    0  0.23795324371E-01 -0.10569340326E+00  0.63241741186E-01  0.88889641173E+00  0.88000000000E+00 0.  1.
        -11    1    4    4    0    0 -0.64345185366E-02  0.79686221582E-01 -0.23329792610E-01  0.83281674353E-01  0.51100000000E-03 0.  1.
         11    1    4    4    0    0 -0.13764742776E-01  0.40475887714E-01 -0.20896773433E-01  0.47588884110E-01  0.51100000000E-03 0. -1.
</event>
<event>
 8    1  0.1254610E+005  0.1043930E+01  0.7957747E-01            NaN
         13   -1    0    0    0    0  0.00000000000E+00  0.00000000000E+00  0.74505805969E-08  0.10566000000E+00  0.10566000000E+00 0. -1.
     999900   -1    0    0    0    0 -0.00000000000E+00 -0.00000000000E+00 -0.74505805969E-08  0.93827000000E+00  0.93827000000E+00 0. -1.
     999902    2    1    2    0    0 -0.71491365230E-02  0.22829658237E-01 -0.62228336871E-02  0.10192110375E+01  0.10189112385E+01 0.  0.
     999903    2    3    3    0    0  0.47941687745E-01 -0.10953705744E+00  0.36798445174E-01  0.12657069740E+00  0.19215709610E-01 0.  0.
         14    1    1    2    0    0  0.71491365230E-02 -0.22829658237E-01  0.62228336871E-02  0.24718962506E-01  0.00000000000E+00 0. -1.
     999901    1    3    3    0    0 -0.55090824268E-01  0.13236671568E+00 -0.43021278861E-01  0.89264034010E+00  0.88000000000E+00 0.  1.
        -11    1    4    4    0    0  0.16064449270E-01 -0.57717640742E-01  0.23054456358E-01  0.64196274519E-01  0.51100000000E-03 0. -1.
         11    1    4    4    0    0  0.31877238475E-01 -0.51819416697E-01  0.13743988816E-01  0.62374422877E-01  0.51100000000E-03 0.  1.
</event>
<event>
 8    1  0.1083484E+005  0.1043930E+01  0.7957747E-01            NaN
         13   -1    0    0    0    0  0.00000000000E+00  0.00000000000E+00  0.74505805969E-08  0.10566000000E+00  0.10566000000E+00 0. -1.
     999900   -1    0    0    0    0 -0.00000000000E+00 -0.00000000000E+00 -0.74505805969E-08  0.93827000000E+00  0.93827000000E+00 0.  1.
     999902    2    1    2    0    0  0.41953976696E-02  0.23034042000E-01 -0.86354857402E-02  0.10189752396E+01  0.10186696220E+01 0.  0.
     999903    2    3    3    0    0  0.11725901875E+00  0.16815280977E-01 -0.51438798039E-01  0.13068802313E+00  0.20024442418E-01 0.  0.
         14    1    1    2    0    0 -0.41953976696E-02 -0.23034042000E-01  0.86354857402E-02  0.24954760396E-01  0.00000000000E+00 0. -1.
     999901    1    3    3    0    0 -0.11306362108E+00  0.62187610232E-02  0.42803312298E-01  0.88828721647E+00  0.88000000000E+00 0. -1.
        -11    1    4    4    0    0  0.34484340041E-01  0.13839594350E-01 -0.12955073407E-01  0.39354785323E-01  0.51100000000E-03 0. -1.
         11    1    4    4    0    0  0.82774678710E-01  0.29756866266E-02 -0.38483724632E-01  0.91333237810E-01  0.51100000000E-03 0.  1.
</event>
<event>
 8    1  0.1083484E+005  0.1043930E+01  0.7957747E-01            NaN
         13   -1    0    0    0    0  0.00000000000E+00  0.00000000000E+00  0.74505805969E-08  0.10566000000E+00  0.10566000000E+00 0.  1.
     999900   -1    0    0    0    0 -0.00000000000E+00 -0.00000000000E+00 -0.74505805969E-08  0.93827000000E+00  0.93827000000E+00 0.  1.
     999902    2    1    2    0    0  0.12326061755E-01 -0.16359933484E-01  0.11040937878E-01  0.10206602443E+01  0.10203949494E+01 0.  0.
     999903    2    3    3    0    0  0.12100874049E+00 -0.46512876010E-01 -0.19161823709E-01  0.13294782947E+00  0.22391671722E-01 0.  0.
         14    1    1    2    0    0 -0.12326061755E-01  0.16359933484E-01 -0.11040937878E-01  0.23269755719E-01  0.00000000000E+00 0. -1.
     999901    1    3    3    0    0 -0.10868267874E+00  0.30152942526E-01  0.30202761586E-01  0.88771241481E+00  0.88000000000E+00 0.  1.
        -11    1    4    4    0    0  0.12361309851E-01 -0.12181465900E-01  0.24042213882E-03  0.17364014988E-01  0.51100000000E-03 0.  1.
         11    1    4    4    0    0  0.10864743064E+00 -0.34331410111E-01 -0.19402245847E-01  0.11558381448E+00  0.51100000000E-03 0. -1.
</event>
<event>
 8    1  0.1083484E+005  0.1043930E+01  0.7957747E-01            NaN
         13   -1    0    0    0    0  0.00000000000E+00  0.00000000000E+00  0.74505805969E-08  0.10566000000E+00  0.10566000000E+00 0. -1.
     999900   -1    0    0    0    0 -0.00000000000E+00 -0.00000000000E+00 -0.74505805969E-08  0.93827000000E+00  0.93827000000E+00 0. -1.
     999902    2    1    2    0    0  0.14143154987E-01  0.26718279803E-02 -0.19104691504E-01  0.10200102020E+01  0.10197296973E+01 0.  0.
     999903    2    3    3    0    0 -0.65477980734E-01 -0.70019490194E-01 -0.86809424748E-01  0.13084908957E+00  0.19887509875E-01 0.  0.
         14    1    1    2    0    0 -0.14143154987E-01 -0.26718279803E-02  0.19104691504E-01  0.23919797976E-01  0.00000000000E+00 0. -1.
     999901    1    3    3    0    0  0.79621135721E-01  0.72691318175E-01  0.67704733244E-01  0.88916111245E+00  0.88000000000E+00 0.  1.
        -11    1    4    4    0    0 -0.27179435621E-01 -0.38834052801E-01 -0.52358590953E-01  0.70629232936E-01  0.51100000000E-03 0.  1.
         11    1    4    4    0    0 -0.38298545113E-01 -0.31185437394E-01 -0.34450833795E-01  0.60219856637E-01  0.51100000000E-03 0. -1.
</event>
<event>
 8    1  0.1083484E+005  0.1043930E+01  0.7957747E-01            NaN
         13   -1    0    0    0    0  0.00000000000E+00  0.00000000000E+00  0.74505805969E-08  0.10566000000E+00  0.10566000000E+00 0.  1.
     999900   -1    0    0    0    0 -0.00000000000E+00 -0.00000000000E+00 -0.74505805969E-08  0.93827000000E+00  0.93827000000E+00 0. -1.
     999902    2    1    2    0    0  0.92464920201E-03 -0.13799462847E-01 -0.19886187019E-01  0.10197072713E+01  0.10194195302E+01 0.  0.
     999903    2    3    3    0    0 -0.99415597588E-02  0.12196943372E+00 -0.36128360670E-01  0.12908104445E+00  0.19526397989E-01 0.  0.
         14    1    1    2    0    0 -0.92464920201E-03  0.13799462847E-01  0.19886187019E-01  0.24222728689E-01  0.00000000000E+00 0.  1.
     999901    1    3    3    0    0  0.10866208961E-01 -0.13576889657E+00  0.16242173651E-01  0.89062622686E+00  0.88000000000E+00 0.  1.
        -11    1    4    4    0    0  0.15284817120E-02  0.82397274020E-01 -0.28323156514E-01  0.87144187059E-01  0.51100000000E-03 0.  1.
         11    1    4    4    0    0 -0.11470041471E-01  0.39572159700E-01 -0.78052041563E-02  0.41936857388E-01  0.51100000000E-03 0. -1.
</event>
<event>
 8    1  0.1083484E+005  0.1043930E+01  0.7957747E-01            NaN
         13   -1    0    0    0    0  0.00000000000E+00  0.00000000000E+00  0.74505805969E-08  0.10566000000E+00  0.10566000000E+00 0. -1.
     999900   -1    0    0    0    0 -0.00000000000E+00 -0.00000000000E+00 -0.74505805969E-08  0.93827000000E+00  0.93827000000E+00 0. -1.
     999902    2    1    2    0    0 -0.21476595504E-01 -0.17359667853E-04  0.90400486070E-02  0.10206283491E+01  0.10203623180E+01 0.  0.
     999903    2    3    3    0    0  0.14252841022E-01  0.12526859669E-01  0.12878494204E+00  0.13171171095E+00  0.20058609497E-01 0.  0.
         14    1    1    2    0    0  0.21476595504E-01  0.17359667853E-04 -0.90400486070E-02  0.23301650899E-01  0.00000000000E+00 0.  1.
     999901    1    3    3    0    0 -0.35729436526E-01 -0.12544219337E-01 -0.11974489343E+00  0.88891663815E+00  0.88000000000E+00 0. -1.
        -11    1    4    4    0    0  0.86660304376E-02  0.12723032397E-01  0.41827607796E-01  0.44573372453E-01  0.51100000000E-03 0. -1.
         11    1    4    4    0    0  0.55868105844E-02 -0.19617272805E-03  0.86957334246E-01  0.87138338499E-01  0.51100000000E-03 0.  1.
</event>
<event>
 8    1  0.1083484E+005  0.1043930E+01  0.7957747E-01            NaN
         13   -1    0    0    0    0  0.00000000000E+00  0.00000000000E+00  0.74505805969E-08  0.10566000000E+00  0.10566000000E+00 0.  1.
     999900   -1    0    0    0    0 -0.00000000000E+00 -0.00000000000E+00 -0.74505805969E-08  0.93827000000E+00  0.93827000000E+00 0.  1.
     999902    2    1    2    0    0 -0.12990944597E-01 -0.17796175333E-01 -0.65214336968E-02  0.10209518017E+01  0.10206931879E+01 0.  0.
     999903    2    3    3    0    0  0.10114141416E+00  0.23562700196E-01  0.73869895192E-01  0.12898794728E+00  0.19908355754E-01 0.  0.
         14    1    1    2    0    0  0.12990944597E-01  0.17796175333E-01  0.65214336968E-02  0.22978198265E-01  0.00000000000E+00 0.  1.
     999901    1    3    3    0    0 -0.11413235875E+00 -0.41358875530E-01 -0.80391328889E-01  0.89196385446E+00  0.88000000000E+00 0. -1.
        -11    1    4    4    0    0  0.29344477098E-01  0.15776838192E-01  0.27064817300E-01  0.42927525155E-01  0.51100000000E-03 0.  1.
         11    1    4    4    0    0  0.71796937060E-01  0.77858620036E-02  0.46805077892E-01  0.86060422121E-01  0.51100000000E-03 0. -1.
</event>
<event>
 8    1  0.1083484E+005  0.1043930E+01  0.7957747E-01            NaN
         13   -1    0    0    0    0  0.00000000000E+00  0.00000000000E+00  0.74505805969E-08  0.10566000000E+00  0.10566000000E+00 0.  1.
     999900   -1    0    0    0    0 -0.00000000000E+00 -0.00000000000E+00 -0.74505805969E-08  0.93827000000E+00  0.93827000000E+00 0. -1.
     999902    2    1    2    0    0 -0.23101449845E-01 -0.64306093910E-02  0.67264401093E-03  0.10199407905E+01  0.10196586360E+01 0.  0.
     999903    2    3    3    0    0 -0.34093682727E-01  0.12160043592E+00 -0.24816654782E-01  0.13024281810E+00  0.19956956042E-01 0.  0.
         14    1    1    2    0    0  0.23101449845E-01  0.64306093910E-02 -0.67264401093E-03  0.23989209492E-01  0.00000000000E+00 0.  1.
     999901    1    3    3    0    0  0.10992232882E-01 -0.12803104531E+00  0.25489298793E-01  0.88969797240E+00  0.88000000000E+00 0. -1.
        -11    1    4    4    0    0 -0.28317680713E-01  0.84389161283E-01 -0.92582975919E-02  0.89495244445E-01  0.51100000000E-03 0. -1.
         11    1    4    4    0    0 -0.57760020144E-02  0.37211274640E-01 -0.15558357190E-01  0.40747573658E-01  0.51100000000E-03 0.  1.
</event>
<event>
 8    1  0.1083484E+005  0.1043930E+01  0.7957747E-01            NaN
         13   -1    0    0    0    0  0.00000000000E+00  0.00000000000E+00  0.74505805969E-08  0.10566000000E+00  0.10566000000E+00 0.  1.
     999900   -1    0    0    0    0 -0.00000000000E+00 -0.00000000000E+00 -0.74505805969E-08  0.93827000000E+00  0.93827000000E+00 0. -1.
     999902    2    1    2    0    0 -0.99901189988E-03 -0.23873073631E-01  0.12922172618E-03  0.10200356834E+01  0.10197557830E+01 0.  0.
     999903    2    3    3    0    0 -0.68560242543E-01  0.47477461260E-01  0.96702953597E-01  0.12931580349E+00  0.20408322124E-01 0.  0.
         14    1    1    2    0    0  0.99901189988E-03  0.23873073631E-01 -0.12922172618E-03  0.23894316638E-01  0.00000000000E+00 0.  1.
     999901    1    3    3    0    0  0.67561230643E-01 -0.71350534891E-01 -0.96573731871E-01  0.89071987987E+00  0.88000000000E+00 0. -1.
        -11    1    4    4    0    0 -0.53398467681E-01  0.45589946938E-01  0.74655119240E-01  0.10248652381E+00  0.51100000000E-03 0.  1.
         11    1    4    4    0    0 -0.15161774862E-01  0.18875143222E-02  0.22047834358E-01  0.26829279680E-01  0.51100000000E-03 0. -1.
</event>
<event>
 8    1  0.1083484E+005  0.1043930E+01  0.7957747E-01            NaN
         13   -1    0    0    0    0  0.00000000000E+00  0.00000000000E+00  0.74505805969E-08  0.10566000000E+00  0.10566000000E+00 0.  1.
     999900   -1    0    0    0    0 -0.00000000000E+00 -0.00000000000E+00 -0.74505805969E-08  0.93827000000E+00  0.93827000000E+00 0. -1.
     999902    2    1    2    0    0  0.23443986358E-01 -0.21618504177E-01 -0.17405916558E-01  0.10075989368E+01  0.10069437280E+01 0.  0.
     999903    2    3    3    0    0  0.45703392513E-01  0.15807136354E-02 -0.11143120992E+00  0.12200623099E+00  0.19424394757E-01 0.  0.
         14    1    1    2    0    0 -0.23443986358E-01  0.21618504177E-01  0.17405916558E-01  0.36331063161E-01  0.00000000000E+00 0. -1.
     999901    1    3    3    0    0 -0.22259406155E-01 -0.23199217812E-01  0.94025293365E-01  0.88559270585E+00  0.88000000000E+00 0.  1.
        -11    1    4    4    0    0  0.36322272802E-01  0.69969838817E-02 -0.69937006119E-01  0.79118336881E-01  0.51100000000E-03 0.  1.
         11    1    4    4    0    0  0.93811197111E-02 -0.54162702463E-02 -0.41494203804E-01  0.42887894104E-01  0.51100000000E-03 0. -1.
</event>
<event>
 8    1  0.1083484E+005  0.1043930E+01  0.7957747E-01            NaN
         13   -1    0    0    0    0  0.00000000000E+00  0.00000000000E+00  0.74505805969E-08  0.10566000000E+00  0.10566000000E+00 0. -1.
     999900   -1    0    0    0    0 -0.00000000000E+00 -0.00000000000E+00 -0.74505805969E-08  0.93827000000E+00  0.93827000000E+00 0. -1.
     999902    2    1    2    0    0  0.10138882196E-01  0.82800094889E-02 -0.19841072614E-01  0.10201597738E+01  0.10198828072E+01 0.  0.
     999903    2    3    3    0    0 -0.27099223405E-01  0.87369873229E-01  0.88984304092E-01  0.12915761578E+00  0.19890215713E-01 0.  0.
         14    1    1    2    0    0 -0.10138882196E-01 -0.82800094889E-02  0.19841072614E-01  0.23770226162E-01  0.00000000000E+00 0. -1.
     999901    1    3    3    0    0  0.37238105601E-01 -0.79089863740E-01 -0.10882537671E+00  0.89100215806E+00  0.88000000000E+00 0. -1.
        -11    1    4    4    0    0 -0.13666637102E-01  0.55028367860E-01  0.42036523462E-01  0.70584903944E-01  0.51100000000E-03 0.  1.
         11    1    4    4    0    0 -0.13432586303E-01  0.32341505369E-01  0.46947780631E-01  0.58572711833E-01  0.51100000000E-03 0. -1.
</event>
<event>
 8    1  0.1083484E+005  0.1043930E+01  0.7957747E-01            NaN
         13   -1    0    0    0    0  0.00000000000E+00  0.00000000000E+00  0.74505805969E-08  0.10566000000E+00  0.10566000000E+00 0.  1.
     999900   -1    0    0    0    0 -0.00000000000E+00 -0.00000000000E+00 -0.74505805969E-08  0.93827000000E+00  0.93827000000E+00 0. -1.
     999902    2    1    2    0    0 -0.14486944679E-01  0.65278618813E-02  0.18017978088E-01  0.10199064266E+01  0.10196234535E+01 0.  0.
     999903    2    3    3    0    0 -0.12739139833E+00  0.26127410936E-01 -0.94064452460E-02  0.13205302819E+00  0.20935880019E-01 0.  0.
         14    1    1    2    0    0  0.14486944679E-01 -0.65278618813E-02 -0.18017978088E-01  0.24023573449E-01  0.00000000000E+00 0. -1.
     999901    1    3    3    0    0  0.11290445365E+00 -0.19599549055E-01  0.27424423334E-01  0.88785339836E+00  0.88000000000E+00 0.  1.
        -11    1    4    4    0    0 -0.66606266992E-01  0.21795465209E-01 -0.11773881257E-01  0.71065621134E-01  0.51100000000E-03 0. -1.
         11    1    4    4    0    0 -0.60785131340E-01  0.43319457272E-02  0.23674360115E-02  0.60987407061E-01  0.51100000000E-03 0.  1.
</event>
<event>
 8    1  0.1083484E+005  0.1043930E+01  0.7957747E-01            NaN
         13   -1    0    0    0    0  0.00000000000E+00  0.00000000000E+00  0.74505805969E-08  0.10566000000E+00  0.10566000000E+00 0.  1.
     999900   -1    0    0    0    0 -0.00000000000E+00 -0.00000000000E+00 -0.74505805969E-08  0.93827000000E+00  0.93827000000E+00 0. -1.
     999902    2    1    2    0    0  0.18510394953E-01 -0.19102911163E-01 -0.10706022166E-01  0.10152564085E+01  0.10148514178E+01 0.  0.
     999903    2    3    3    0    0  0.18957778012E-01 -0.14404570724E-01 -0.12419915552E+00  0.12795546418E+00  0.19500809645E-01 0.  0.
         14    1    1    2    0    0 -0.18510394953E-01  0.19102911163E-01  0.10706022166E-01  0.28673591453E-01  0.00000000000E+00 0.  1.
     999901    1    3    3    0    0 -0.44738305894E-03 -0.46983404390E-02  0.11349313335E+00  0.88730094437E+00  0.88000000000E+00 0.  1.
        -11    1    4    4    0    0  0.82048078234E-02 -0.17141572787E-01 -0.90420196203E-01  0.92397107051E-01  0.51100000000E-03 0. -1.
         11    1    4    4    0    0  0.10752970189E-01  0.27370020637E-02 -0.33778959318E-01  0.35558357130E-01  0.51100000000E-03 0.  1.
</event>
<event>
 8    1  0.1083484E+005  0.1043930E+01  0.7957747E-01            NaN
         13   -1    0    0    0    0  0.00000000000E+00  0.00000000000E+00  0.74505805969E-08  0.10566000000E+00  0.10566000000E+00 0. -1.
     999900   -1    0    0    0    0 -0.00000000000E+00 -0.00000000000E+00 -0.74505805969E-08  0.93827000000E+00  0.93827000000E+00 0. -1.
     999902    2    1    2    0    0 -0.43397783158E-02  0.18446978875E-01 -0.14310223709E-01  0.10201832695E+01  0.10199068566E+01 0.  0.
     999903    2    3    3    0    0 -0.95212494849E-01 -0.16011078355E-01 -0.87451799720E-01  0.13181684825E+00  0.20151684851E-01 0.  0.
         14    1    1    2    0    0  0.43397783158E-02 -0.18446978875E-01  0.14310223709E-01  0.23746730471E-01  0.00000000000E+00 0. -1.
     999901    1    3    3    0    0  0.90872716533E-01  0.34458057230E-01  0.73141576011E-01  0.88836642128E+00  0.88000000000E+00 0.  1.
        -11    1    4    4    0    0 -0.70340367057E-01 -0.18021546761E-01 -0.73053572076E-01  0.10300305286E+00  0.51100000000E-03 0. -1.
         11    1    4    4    0    0 -0.24872127792E-01  0.20104684064E-02 -0.14398227644E-01  0.28813795383E-01  0.51100000000E-03 0.  1.
</event>
<event>
 8    1  0.1083484E+005  0.1043930E+01  0.7957747E-01            NaN
         13   -1    0    0    0    0  0.00000000000E+00  0.00000000000E+00  0.74505805969E-08  0.10566000000E+00  0.10566000000E+00 0. -1.
     999900   -1    0    0    0    0 -0.00000000000E+00 -0.00000000000E+00 -0.74505805969E-08  0.93827000000E+00  0.93827000000E+00 0.  1.
     999902    2    1    2    0    0 -0.46095382059E-02 -0.15331269700E-01 -0.17637373081E-01  0.10201104156E+01  0.10198322839E+01 0.  0.
     999903    2    3    3    0    0 -0.11326226626E+00 -0.11535414570E-01 -0.63996194303E-01  0.13220897727E+00  0.20549794107E-01 0.  0.
         14    1    1    2    0    0  0.46095382059E-02  0.15331269700E-01  0.17637373081E-01  0.23819584428E-01  0.00000000000E+00 0. -1.
     999901    1    3    3    0    0  0.10865272806E+00 -0.37958551304E-02  0.46358821222E-01  0.88790143830E+00  0.88000000000E+00 0. -1.
        -11    1    4    4    0    0 -0.73925786694E-01 -0.13231410081E-01 -0.50843392024E-01  0.90694011846E-01  0.51100000000E-03 0. -1.
         11    1    4    4    0    0 -0.39336479568E-01  0.16959955108E-02 -0.13152802279E-01  0.41514965427E-01  0.51100000000E-03 0.  1.
</event>
<event>
 8    1  0.1083484E+005  0.1043930E+01  0.7957747E-01            NaN
         13   -1    0    0    0    0  0.00000000000E+00  0.00000000000E+00  0.74505805969E-08  0.10566000000E+00  0.10566000000E+00 0.  1.
     999900   -1    0    0    0    0 -0.00000000000E+00 -0.00000000000E+00 -0.74505805969E-08  0.93827000000E+00  0.93827000000E+00 0. -1.
     999902    2    1    2    0    0 -0.16110736184E-01 -0.62633260910E-02  0.16818710492E-01  0.10198124940E+01  0.10195272771E+01 0.  0.
     999903    2    3    3    0    0 -0.70008978063E-01  0.48949266256E-01  0.99355477349E-01  0.13258886449E+00  0.20273342898E-01 0.  0.
         14    1    1    2    0    0  0.16110736184E-01  0.62633260910E-02 -0.16818710492E-01  0.24117506022E-01  0.00000000000E+00 0. -1.
     999901    1    3    3    0    0  0.53898241879E-01 -0.55212592347E-01 -0.82536766857E-01  0.88722362948E+00  0.88000000000E+00 0. -1.
        -11    1    4    4    0    0 -0.98611302919E-03  0.65604848498E-02  0.96802459304E-02  0.11746517043E-01  0.51100000000E-03 0.  1.
         11    1    4    4    0    0 -0.69022865033E-01  0.42388781406E-01  0.89675231418E-01  0.12084234745E+00  0.51100000000E-03 0. -1.
</event>
<event>
 8    1  0.1083484E+005  0.1043930E+01  0.7957747E-01            NaN
         13   -1    0    0    0    0  0.00000000000E+00  0.00000000000E+00  0.74505805969E-08  0.10566000000E+00  0.10566000000E+00 0.  1.
     999900   -1    0    0    0    0 -0.00000000000E+00 -0.00000000000E+00 -0.74505805969E-08  0.93827000000E+00  0.93827000000E+00 0.  1.
     999902    2    1    2    0    0 -0.91361127130E-02  0.54105757369E-02  0.22003591834E-01  0.10194984438E+01  0.10192056593E+01 0.  0.
     999903    2    3    3    0    0 -0.41243723374E-01 -0.29899366371E-01  0.12075666043E+00  0.13268963732E+00  0.20720810478E-01 0.  0.
         14    1    1    2    0    0  0.91361127130E-02 -0.54105757369E-02 -0.22003591834E-01  0.24431556211E-01  0.00000000000E+00 0. -1.
     999901    1    3    3    0    0  0.32107610661E-01  0.35309942108E-01 -0.98753068596E-01  0.88680880647E+00  0.88000000000E+00 0.  1.
        -11    1    4    4    0    0 -0.94553553891E-02 -0.19218012134E-01  0.44904757785E-01  0.49753734821E-01  0.51100000000E-03 0.  1.
         11    1    4    4    0    0 -0.31788367985E-01 -0.10681354236E-01  0.75851902644E-01  0.82935902498E-01  0.51100000000E-03 0. -1.
</event>
<event>
 8    1  0.1083484E+005  0.1043930E+01  0.7957747E-01            NaN
         13   -1    0    0    0    0  0.00000000000E+00  0.00000000000E+00  0.74505805969E-08  0.10566000000E+00  0.10566000000E+00 0. -1.
     999900   -1    0    0    0    0 -0.00000000000E+00 -0.00000000000E+00 -0.74505805969E-08  0.93827000000E+00  0.93827000000E+00 0.  1.
     999902    2    1    2    0    0  0.12638224079E-01  0.20732583363E-01  0.68373440956E-02  0.10187047350E+01  0.10183923719E+01 0.  0.
     999903    2    3    3    0    0 -0.35051490276E-04  0.13009308304E+00  0.31245181053E-02  0.13183714854E+00  0.21143784897E-01 0.  0.
         14    1    1    2    0    0 -0.12638224079E-01 -0.20732583363E-01 -0.68373440956E-02  0.25225265015E-01  0.00000000000E+00 0. -1.
     999901    1    3    3    0    0  0.12673275569E-01 -0.10936049968E+00  0.37128259903E-02  0.88686758644E+00  0.88000000000E+00 0. -1.
        -11    1    4    4    0    0 -0.70404907957E-02  0.11426795292E+00  0.26032531173E-02  0.11451537724E+00  0.51100000000E-03 0.  1.
         11    1    4    4    0    0  0.70054393054E-02  0.15825130114E-01  0.52126498800E-03  0.17321771306E-01  0.51100000000E-03 0. -1.
</event>
<event>
 8    1  0.1083484E+005  0.1043930E+01  0.7957747E-01            NaN
         13   -1    0    0    0    0  0.00000000000E+00  0.00000000000E+00  0.74505805969E-08  0.10566000000E+00  0.10566000000E+00 0. -1.
     999900   -1    0    0    0    0 -0.00000000000E+00 -0.00000000000E+00 -0.74505805969E-08  0.93827000000E+00  0.93827000000E+00 0. -1.
     999902    2    1    2    0    0  0.13461946310E-01  0.19704173381E-01 -0.41532848981E-02  0.10197075265E+01  0.10194197915E+01 0.  0.
     999903    2    3    3    0    0 -0.20704900354E-01  0.15631272744E-01 -0.12620861224E+00  0.13061728088E+00  0.21429668088E-01 0.  0.
         14    1    1    2    0    0 -0.13461946310E-01 -0.19704173381E-01  0.41532848981E-02  0.24222473501E-01  0.00000000000E+00 0. -1.
     999901    1    3    3    0    0  0.34166846664E-01  0.40729006372E-02  0.12205532734E+00  0.88909024562E+00  0.88000000000E+00 0.  1.
        -11    1    4    4    0    0 -0.15888024936E-01  0.18202790179E-01 -0.68297772127E-01  0.72447344362E-01  0.51100000000E-03 0.  1.
         11    1    4    4    0    0 -0.48168754182E-02 -0.25715174358E-02 -0.57910840110E-01  0.58169936513E-01  0.51100000000E-03 0. -1.
</event>
<event>
 8    1  0.1083484E+005  0.1043930E+01  0.7957747E-01            NaN
         13   -1    0    0    0    0  0.00000000000E+00  0.00000000000E+00  0.74505805969E-08  0.10566000000E+00  0.10566000000E+00 0.  1.
     999900   -1    0    0    0    0 -0.00000000000E+00 -0.00000000000E+00 -0.74505805969E-08  0.93827000000E+00  0.93827000000E+00 0.  1.
     999902    2    1    2    0    0 -0.54723550537E-02 -0.12081522263E-01  0.19589811828E-01  0.10202726422E+01  0.10199983303E+01 0.  0.
     999903    2    3    3    0    0  0.54249733949E-01 -0.15097346422E-02 -0.11411643880E+00  0.12810906300E+00  0.21072671574E-01 0.  0.
         14    1    1    2    0    0  0.54723550537E-02  0.12081522263E-01 -0.19589811828E-01  0.23657357788E-01  0.00000000000E+00 0. -1.
     999901    1    3    3    0    0 -0.59722089002E-01 -0.10571787621E-01  0.13370625063E+00  0.89216357921E+00  0.88000000000E+00 0. -1.
        -11    1    4    4    0    0  0.36749027712E-01 -0.30915547657E-02 -0.53400103822E-01  0.64899005831E-01  0.51100000000E-03 0. -1.
         11    1    4    4    0    0  0.17500706237E-01  0.15818201236E-02 -0.60716334978E-01  0.63210057173E-01  0.51100000000E-03 0.  1.
</event>
<event>
 7    1  0.1083484E+005  0.1043930E+01  0.7957747E-01            NaN
         13   -1    0    0    0    0  0.00000000000E+00  0.00000000000E+00  0.74505805969E-08  0.10566000000E+00  0.10566000000E+00 0. -1.
     999900   -1    0    0    0    0 -0.00000000000E+00 -0.00000000000E+00 -0.74505805969E-08  0.93827000000E+00  0.93827000000E+00 0. -1.
     999902    2    1    2    0    0  0.69840162625E-02 -0.10403877644E-01  0.20720065754E-01  0.10197155771E+01  0.10194280356E+01 0.  0.
         14    1    1    2    0    0 -0.69840162625E-02  0.10403877644E-01 -0.20720065754E-01  0.24214422934E-01  0.00000000000E+00 0.  1.
     999901    1    3    3    0    0  0.90018116322E-01 -0.95890728926E-01  0.43064129276E-01  0.89081581283E+00  0.88000000000E+00 0. -1.
        -11    1    3    3    0    0 -0.67037281444E-02  0.31867997774E-01 -0.13299172859E-01  0.35180084890E-01  0.51100000000E-03 0.  1.
         11    1    3    3    0    0 -0.76330371915E-01  0.53618853508E-01 -0.90448906628E-02  0.93719679344E-01  0.51100000000E-03 0. -1.
</event>
<event>
 8    1  0.1083484E+005  0.1043930E+01  0.7957747E-01            NaN
         13   -1    0    0    0    0  0.00000000000E+00  0.00000000000E+00  0.74505805969E-08  0.10566000000E+00  0.10566000000E+00 0.  1.
     999900   -1    0    0    0    0 -0.00000000000E+00 -0.00000000000E+00 -0.74505805969E-08  0.93827000000E+00  0.93827000000E+00 0.  1.
     999902    2    1    2    0    0  0.89489849518E-02  0.22126951289E-01  0.51957601432E-02  0.10195029202E+01  0.10192102443E+01 0.  0.
     999903    2    3    3    0    0 -0.11815640136E-01 -0.12128078998E+00 -0.29672934097E-01  0.12697125366E+00  0.19813552640E-01 0.  0.
         14    1    1    2    0    0 -0.89489849518E-02 -0.22126951289E-01 -0.51957601432E-02  0.24427079819E-01  0.00000000000E+00 0. -1.
     999901    1    3    3    0    0  0.20764625088E-01  0.14340774127E+00  0.34868694240E-01  0.89253166652E+00  0.88000000000E+00 0.  1.
        -11    1    4    4    0    0 -0.19077740349E-02 -0.85980047146E-01 -0.14178515597E-01  0.87163636538E-01  0.51100000000E-03 0.  1.
         11    1    4    4    0    0 -0.99078661008E-02 -0.35300742830E-01 -0.15494418500E-01  0.39807617119E-01  0.51100000000E-03 0. -1.
</event>
<event>
 8    1  0.1083484E+005  0.1043930E+01  0.7957747E-01            NaN
         13   -1    0    0    0    0  0.00000000000E+00  0.00000000000E+00  0.74505805969E-08  0.10566000000E+00  0.10566000000E+00 0.  1.
     999900   -1    0    0    0    0 -0.00000000000E+00 -0.00000000000E+00 -0.74505805969E-08  0.93827000000E+00  0.93827000000E+00 0. -1.
     999902    2    1    2    0    0 -0.17096881585E-02  0.16435816839E-01 -0.15977928184E-01  0.10209440630E+01  0.10206852730E+01 0.  0.
     999903    2    3    3    0    0  0.10730582592E+00 -0.44205836197E-01  0.53826407876E-01  0.12940918558E+00  0.19513044337E-01 0.  0.
         14    1    1    2    0    0  0.17096881585E-02 -0.16435816839E-01  0.15977928184E-01  0.22985936958E-01  0.00000000000E+00 0.  1.
     999901    1    3    3    0    0 -0.10901551407E+00  0.60641653036E-01 -0.69804336060E-01  0.89153487746E+00  0.88000000000E+00 0. -1.
        -11    1    4    4    0    0  0.85020268146E-01 -0.30791377008E-01  0.49332957310E-01  0.10300755648E+00  0.51100000000E-03 0. -1.
         11    1    4    4    0    0  0.22285557770E-01 -0.13414459189E-01  0.44934505662E-02  0.26401629106E-01  0.51100000000E-03 0.  1.
</event>
<event>
 8    1  0.1083484E+005  0.1043930E+01  0.7957747E-01            NaN
         13   -1    0    0    0    0  0.00000000000E+00  0.00000000000E+00  0.74505805969E-08  0.10566000000E+00  0.10566000000E+00 0.  1.
     999900   -1    0    0    0    0 -0.00000000000E+00 -0.00000000000E+00 -0.74505805969E-08  0.93827000000E+00  0.93827000000E+00 0. -1.
     999902    2    1    2    0    0 -0.13885017043E-01 -0.10942297160E-02 -0.18499251240E-01  0.10207737194E+01  0.10205110351E+01 0.  0.
     999903    2    3    3    0    0  0.95573517968E-01 -0.28697379745E-01 -0.82684917817E-01  0.13124412200E+00  0.20745770255E-01 0.  0.
         14    1    1    2    0    0  0.13885017043E-01  0.10942297160E-02  0.18499251240E-01  0.23156280647E-01  0.00000000000E+00 0.  1.
     999901    1    3    3    0    0 -0.10945853501E+00  0.27603150029E-01  0.64185666577E-01  0.88952959736E+00  0.88000000000E+00 0.  1.
        -11    1    4    4    0    0  0.65501795159E-01 -0.10121973613E-01 -0.49127400873E-01  0.82502740297E-01  0.51100000000E-03 0.  1.
         11    1    4    4    0    0  0.30071722809E-01 -0.18575406133E-01 -0.33557516944E-01  0.48741381701E-01  0.51100000000E-03 0. -1.
</event>
<event>
 8    1  0.1083484E+005  0.1043930E+01  0.7957747E-01            NaN
         13   -1    0    0    0    0  0.00000000000E+00  0.00000000000E+00  0.74505805969E-08  0.10566000000E+00  0.10566000000E+00 0. -1.
     999900   -1    0    0    0    0 -0.00000000000E+00 -0.00000000000E+00 -0.74505805969E-08  0.93827000000E+00  0.93827000000E+00 0.  1.
     999902    2    1    2    0    0  0.23314300317E-01  0.68524769380E-02 -0.14390939409E-02  0.10195869511E+01  0.10192963096E+01 0.  0.
     999903    2    3    3    0    0  0.21296999054E-02  0.81000141731E-01  0.10017088088E+00  0.13038998163E+00  0.20044534208E-01 0.  0.
         14    1    1    2    0    0 -0.23314300317E-01 -0.68524769380E-02  0.14390939409E-02  0.24343048923E-01  0.00000000000E+00 0.  1.
     999901    1    3    3    0    0  0.21184600412E-01 -0.74147664794E-01 -0.10160997482E+00  0.88919696945E+00  0.88000000000E+00 0.  1.
        -11    1    4    4    0    0  0.10901527527E-01  0.39205135848E-01  0.46283943575E-01  0.61630759634E-01  0.51100000000E-03 0. -1.
         11    1    4    4    0    0 -0.87718276220E-02  0.41795005884E-01  0.53886937304E-01  0.68759221997E-01  0.51100000000E-03 0.  1.
</event>
<event>
 8    1  0.1083484E+005  0.1043930E+01  0.7957747E-01            NaN
         13   -1    0    0    0    0  0.00000000000E+00  0.00000000000E+00  0.74505805969E-08  0.10566000000E+00  0.10566000000E+00 0. -1.
     999900   -1    0    0    0    0 -0.00000000000E+00 -0.00000000000E+00 -0.74505805969E-08  0.93827000000E+00  0.93827000000E+00 0.  1.
     999902    2    1    2    0    0  0.59403337902E-02  0.14370106275E-01  0.18411262482E-01  0.10198309937E+01  0.10195462194E+01 0.  0.
     999903    2    3    3    0    0  0.62093444429E-01  0.20059009126E-01 -0.10922528899E+00  0.12883344894E+00  0.20246829945E-01 0.  0.
         14    1    1    2    0    0 -0.59403337902E-02 -0.14370106275E-01 -0.18411262482E-01  0.24099006330E-01  0.00000000000E+00 0.  1.
     999901    1    3    3    0    0 -0.56153110638E-01 -0.56889028507E-02  0.12763655147E+00  0.89099754473E+00  0.88000000000E+00 0. -1.
        -11    1    4    4    0    0  0.20920920244E-01  0.15173494783E-02 -0.51010161669E-01  0.55156912239E-01  0.51100000000E-03 0.  1.
         11    1    4    4    0    0  0.41172524185E-01  0.18541659647E-01 -0.58215127317E-01  0.73676536698E-01  0.51100000000E-03 0. -1.
</event>
<event>
 8    1  0.1083484E+005  0.1043930E+01  0.7957747E-01            NaN
         13   -1    0    0    0    0  0.00000000000E+00  0.00000000000E+00  0.74505805969E-08  0.10566000000E+00  0.10566000000E+00 0.  1.
     999900   -1    0    0    0    0 -0.00000000000E+00 -0.00000000000E+00 -0.74505805969E-08  0.93827000000E+00  0.93827000000E+00 0.  1.
     999902    2    1    2    0    0 -0.17874460840E-01  0.70866016829E-02  0.13956538625E-01  0.10201707651E+01  0.10198940576E+01 0.  0.
     999903    2    3    3    0    0 -0.98008758592E-01 -0.42465971335E-01  0.77502698568E-01  0.13286299569E+00  0.15389342302E-01 0.  0.
         14    1    1    2    0    0  0.17874460840E-01 -0.70866016829E-02 -0.13956538625E-01  0.23759234923E-01  0.00000000000E+00 0. -1.
     999901    1    3    3    0    0  0.80134297751E-01  0.49552573018E-01 -0.63546159943E-01  0.88730776939E+00  0.88000000000E+00 0.  1.
        -11    1    4    4    0    0 -0.35822072907E-01 -0.23581548164E-01  0.32428869254E-01  0.53769907971E-01  0.51100000000E-03 0.  1.
         11    1    4    4    0    0 -0.62186685685E-01 -0.18884423171E-01  0.45073829315E-01  0.79093087720E-01  0.51100000000E-03 0. -1.
</event>
<event>
 8    1  0.1083484E+005  0.1043930E+01  0.7957747E-01            NaN
         13   -1    0    0    0    0  0.00000000000E+00  0.00000000000E+00  0.74505805969E-08  0.10566000000E+00  0.10566000000E+00 0. -1.
     999900   -1    0    0    0    0 -0.00000000000E+00 -0.00000000000E+00 -0.74505805969E-08  0.93827000000E+00  0.93827000000E+00 0.  1.
     999902    2    1    2    0    0  0.42816490670E-02 -0.15748740284E-01 -0.15699477663E-01  0.10212842733E+01  0.10210331718E+01 0.  0.
     999903    2    3    3    0    0 -0.73232938810E-01 -0.79322877702E-01 -0.75897204776E-01  0.13354898131E+00  0.20488105381E-01 0.  0.
         14    1    1    2    0    0 -0.42816490670E-02  0.15748740284E-01  0.15699477663E-01  0.22645726708E-01  0.00000000000E+00 0. -1.
     999901    1    3    3    0    0  0.77514587877E-01  0.63574137418E-01  0.60197727114E-01  0.88773529198E+00  0.88000000000E+00 0. -1.
        -11    1    4    4    0    0 -0.69835482338E-01 -0.66524730727E-01 -0.69154847794E-01  0.11868103676E+00  0.51100000000E-03 0. -1.
         11    1    4    4    0    0 -0.33974564721E-02 -0.12798146975E-01 -0.67423569823E-02  0.14867944550E-01  0.51100000000E-03 0.  1.
</event>
<event>
 8    1  0.1083484E+005  0.1043930E+01  0.7957747E-01            NaN
         13   -1    0    0    0    0  0.00000000000E+00  0.00000000000E+00  0.74505805969E-08  0.10566000000E+00  0.10566000000E+00 0.  1.
     999900   -1    0    0    0    0 -0.00000000000E+00 -0.00000000000E+00 -0.74505805969E-08  0.93827000000E+00  0.93827000000E+00 0.  1.
     999902    2    1    2    0    0  0.16415164946E-01  0.63783749513E-02  0.19798802693E-01  0.10174321907E+01  0.10170870803E+01 0.  0.
     999903    2    3    3    0    0  0.80047241600E-01 -0.37690856067E-01 -0.89433340410E-01  0.12730703135E+00  0.19508878371E-01 0.  0.
         14    1    1    2    0    0 -0.16415164946E-01 -0.63783749513E-02 -0.19798802693E-01  0.26497809255E-01  0.00000000000E+00 0. -1.
     999901    1    3    3    0    0 -0.63632076654E-01  0.44069231019E-01  0.10923214310E+00  0.89012515940E+00  0.88000000000E+00 0. -1.
        -11    1    4    4    0    0  0.70869614954E-01 -0.29654326997E-01 -0.67793067762E-01  0.10245995604E+00  0.51100000000E-03 0.  1.
         11    1    4    4    0    0  0.91776266464E-02 -0.80365290708E-02 -0.21640272648E-01  0.24847075314E-01  0.51100000000E-03 0. -1.
</event>
<event>
 8    1  0.1083484E+005  0.1043930E+01  0.7957747E-01            NaN
         13   -1    0    0    0    0  0.00000000000E+00  0.00000000000E+00  0.74505805969E-08  0.10566000000E+00  0.10566000000E+00 0.  1.
     999900   -1    0    0    0    0 -0.00000000000E+00 -0.00000000000E+00 -0.74505805969E-08  0.93827000000E+00  0.93827000000E+00 0. -1.
     999902    2    1    2    0    0 -0.79297376524E-02 -0.14914710188E-01 -0.16382748120E-01  0.10203986644E+01  0.10201273011E+01 0.  0.
     999903    2    3    3    0    0 -0.66816048466E-01 -0.91234206631E-01 -0.68351199195E-01  0.13361064968E+00  0.19795314719E-01 0.  0.
         14    1    1    2    0    0  0.79297376524E-02  0.14914710188E-01  0.16382748120E-01  0.23531335601E-01  0.00000000000E+00 0.  1.
     999901    1    3    3    0    0  0.58886310814E-01  0.76319496443E-01  0.51968451075E-01  0.88678801472E+00  0.88000000000E+00 0.  1.
        -11    1    4    4    0    0 -0.55990408570E-01 -0.68534973619E-01 -0.44977045134E-01  0.99273179514E-01  0.51100000000E-03 0.  1.
         11    1    4    4    0    0 -0.10825639897E-01 -0.22699233012E-01 -0.23374154060E-01  0.34337470168E-01  0.51100000000E-03 0. -1.
</event>
<event>
 8    1  0.1083484E+005  0.1043930E+01  0.7957747E-01            NaN
         13   -1    0    0    0    0  0.00000000000E+00  0.00000000000E+00  0.74505805969E-08  0.10566000000E+00  0.10566000000E+00 0. -1.
     999900   -1    0    0    0    0 -0.00000000000E+00 -0.00000000000E+00 -0.74505805969E-08  0.93827000000E+00  0.93827000000E+00 0. -1.
     999902    2    1    2    0    0  0.41902121590E-02  0.84463596289E-02  0.21812013274E-01  0.10201673656E+01  0.10198905780E+01 0.  0.
     999903    2    3    3    0    0 -0.76155029537E-02  0.12311567629E+00 -0.38013977805E-01  0.13063514233E+00  0.20124916640E-01 0.  0.
         14    1    1    2    0    0 -0.41902121590E-02 -0.84463596289E-02 -0.21812013274E-01  0.23762634365E-01  0.00000000000E+00 0.  1.
     999901    1    3    3    0    0  0.11805715113E-01 -0.11466931666E+00  0.59825991078E-01  0.88953222331E+00  0.88000000000E+00 0.  1.
        -11    1    4    4    0    0 -0.69021057774E-02  0.18391703146E-01 -0.14349210260E-02  0.19703145133E-01  0.51100000000E-03 0. -1.
         11    1    4    4    0    0 -0.71339717633E-03  0.10472397314E+00 -0.36579056778E-01  0.11093199720E+00  0.51100000000E-03 0.  1.
</event>
<event>
 8    1  0.1363476E+005  0.1043930E+01  0.7957747E-01            NaN
         13   -1    0    0    0    0  0.00000000000E+00  0.00000000000E+00  0.74505805969E-08  0.10566000000E+00  0.10566000000E+00 0. -1.
     999900   -1    0    0    0    0 -0.00000000000E+00 -0.00000000000E+00 -0.74505805969E-08  0.93827000000E+00  0.93827000000E+00 0. -1.
     999902    2    1    2    0    0  0.55670116430E-02 -0.14212589503E-01  0.17766223307E-01  0.10205071904E+01  0.10202383534E+01 0.  0.
     999903    2    3    3    0    0  0.27039522643E-01  0.86368152376E-01 -0.88435329082E-01  0.12817523194E+00  0.20432550557E-01 0.  0.
         14    1    1    2    0    0 -0.55670116430E-02  0.14212589503E-01 -0.17766223307E-01  0.23422809601E-01  0.00000000000E+00 0.  1.
     999901    1    3    3    0    0 -0.21472511000E-01 -0.10058074188E+00  0.10620155239E+00  0.89233195846E+00  0.88000000000E+00 0.  1.
        -11    1    4    4    0    0  0.23457321765E-01  0.42592482160E-01 -0.41975180480E-01  0.64238169169E-01  0.51100000000E-03 0.  1.
         11    1    4    4    0    0  0.35822008777E-02  0.43775670216E-01 -0.46460148603E-01  0.63937062766E-01  0.51100000000E-03 0. -1.
</event>
<event>
 8    1  0.1083484E+005  0.1043930E+01  0.7957747E-01            NaN
         13   -1    0    0    0    0  0.00000000000E+00  0.00000000000E+00  0.74505805969E-08  0.10566000000E+00  0.10566000000E+00 0. -1.
     999900   -1    0    0    0    0 -0.00000000000E+00 -0.00000000000E+00 -0.74505805969E-08  0.93827000000E+00  0.93827000000E+00 0.  1.
     999902    2    1    2    0    0  0.17212316907E-01  0.12442952429E-01 -0.67705093281E-02  0.10216380572E+01  0.10213948253E+01 0.  0.
     999903    2    3    3    0    0 -0.92382137632E-01 -0.39645508403E-01 -0.80570271015E-01  0.13025118435E+00  0.19172291539E-01 0.  0.
         14    1    1    2    0    0 -0.17212316907E-01 -0.12442952429E-01  0.67705093281E-02  0.22291942827E-01  0.00000000000E+00 0.  1.
     999901    1    3    3    0    0  0.10959445454E+00  0.52088460832E-01  0.73799761687E-01  0.89138687282E+00  0.88000000000E+00 0. -1.
        -11    1    4    4    0    0 -0.89730757698E-02  0.13441084285E-02 -0.44487650979E-02  0.10118070376E-01  0.51100000000E-03 0.  1.
         11    1    4    4    0    0 -0.83409061862E-01 -0.40989616832E-01 -0.76121505917E-01  0.12013311397E+00  0.51100000000E-03 0. -1.
</event>
<event>
 8    1  0.1083484E+005  0.1043930E+01  0.7957747E-01            NaN
         13   -1    0    0    0    0  0.00000000000E+00  0.00000000000E+00  0.74505805969E-08  0.10566000000E+00  0.10566000000E+00 0.  1.
     999900   -1    0    0    0    0 -0.00000000000E+00 -0.00000000000E+00 -0.74505805969E-08  0.93827000000E+00  0.93827000000E+00 0. -1.
     999902    2    1    2    0    0 -0.19800818339E-01  0.10405458531E-01  0.71939494421E-02  0.10204332155E+01  0.10201626578E+01 0.  0.
     999903    2    3    3    0    0 -0.58829782166E-01 -0.10931341639E+00 -0.34917800148E-01  0.13047295318E+00  0.19838661001E-01 0.  0.
         14    1    1    2    0    0  0.19800818339E-01 -0.10405458531E-01 -0.71939494421E-02  0.23496784519E-01  0.00000000000E+00 0.  1.
     999901    1    3    3    0    0  0.39028963827E-01  0.11971887492E+00  0.42111749590E-01  0.88996026231E+00  0.88000000000E+00 0. -1.
        -11    1    4    4    0    0 -0.45432689930E-01 -0.66330693120E-01 -0.26600456229E-01  0.84686100138E-01  0.51100000000E-03 0.  1.
         11    1    4    4    0    0 -0.13397092237E-01 -0.42982723271E-01 -0.83173439191E-02  0.45786853037E-01  0.51100000000E-03 0. -1.
</event>
<event>
 8    1  0.1083484E+005  0.1043930E+01  0.7957747E-01            NaN
         13   -1    0    0    0    0  0.00000000000E+00  0.00000000000E+00  0.74505805969E-08  0.10566000000E+00  0.10566000000E+00 0.  1.
     999900   -1    0    0    0    0 -0.00000000000E+00 -0.00000000000E+00 -0.74505805969E-08  0.93827000000E+00  0.93827000000E+00 0.  1.
     999902    2    1    2    0    0 -0.19460700734E-01 -0.10678109687E-02 -0.13687675543E-01  0.10201137964E+01  0.10198357446E+01 0.  0.
     999903    2    3    3    0    0 -0.11010630457E+00  0.17823552934E-01 -0.70477958363E-01  0.13343536236E+00  0.19919236107E-01 0.  0.
         14    1    1    2    0    0  0.19460700734E-01  0.10678109687E-02  0.13687675543E-01  0.23816203625E-01  0.00000000000E+00 0.  1.
     999901    1    3    3    0    0  0.90645603840E-01 -0.18891363903E-01  0.56790282820E-01  0.88667843402E+00  0.88000000000E+00 0.  1.
        -11    1    4    4    0    0 -0.57029501994E-01  0.19260880161E-01 -0.36600955698E-01  0.70450242592E-01  0.51100000000E-03 0. -1.
         11    1    4    4    0    0 -0.53076802579E-01 -0.14373272272E-02 -0.33877002665E-01  0.62985119768E-01  0.51100000000E-03 0.  1.
</event>
<event>
 8    1  0.1083484E+005  0.1043930E+01  0.7957747E-01            NaN
         13   -1    0    0    0    0  0.00000000000E+00  0.00000000000E+00  0.74505805969E-08  0.10566000000E+00  0.10566000000E+00 0.  1.
     999900   -1    0    0    0    0 -0.00000000000E+00 -0.00000000000E+00 -0.74505805969E-08  0.93827000000E+00  0.93827000000E+00 0.  1.
     999902    2    1    2    0    0  0.12124545468E-01  0.86302759153E-02  0.18500076074E-01  0.10201868098E+01  0.10199104803E+01 0.  0.
     999903    2    3    3    0    0  0.10858449841E-01  0.99605338344E-02 -0.12589235067E+00  0.12841747558E+00  0.20616641593E-01 0.  0.
         14    1    1    2    0    0 -0.12124545468E-01 -0.86302759153E-02 -0.18500076074E-01  0.23743190180E-01  0.00000000000E+00 0. -1.
     999901    1    3    3    0    0  0.12660956267E-02 -0.13302579191E-02  0.14439242674E+00  0.89176933424E+00  0.88000000000E+00 0. -1.
        -11    1    4    4    0    0  0.76347856627E-03  0.26321715806E-02 -0.95765921937E-01  0.95806493267E-01  0.51100000000E-03 0. -1.
         11    1    4    4    0    0  0.10094971275E-01  0.73283622538E-02 -0.30126428734E-01  0.32610982316E-01  0.51100000000E-03 0.  1.
</event>
<event>
 8    1  0.1083484E+005  0.1043930E+01  0.7957747E-01            NaN
         13   -1    0    0    0    0  0.00000000000E+00  0.00000000000E+00  0.74505805969E-08  0.10566000000E+00  0.10566000000E+00 0.  1.
     999900   -1    0    0    0    0 -0.00000000000E+00 -0.00000000000E+00 -0.74505805969E-08  0.93827000000E+00  0.93827000000E+00 0. -1.
     999902    2    1    2    0    0 -0.34315982899E-02  0.13602502778E-01  0.18385104144E-01  0.10208039108E+01  0.10205419189E+01 0.  0.
     999903    2    3    3    0    0  0.64110282319E-01 -0.73696049244E-01 -0.80877353779E-01  0.12837129238E+00  0.19919999466E-01 0.  0.
         14    1    1    2    0    0  0.34315982899E-02 -0.13602502778E-01 -0.18385104144E-01  0.23126089229E-01  0.00000000000E+00 0. -1.
     999901    1    3    3    0    0 -0.67541880609E-01  0.87298552022E-01  0.99262457924E-01  0.89243261839E+00  0.88000000000E+00 0.  1.
        -11    1    4    4    0    0  0.11998266370E-01 -0.86861962441E-02 -0.48963931568E-02  0.15609105932E-01  0.51100000000E-03 0. -1.
         11    1    4    4    0    0  0.52112015950E-01 -0.65009853000E-01 -0.75980960623E-01  0.11276218644E+00  0.51100000000E-03 0.  1.
</event>
<event>
 8    1  0.1083484E+005  0.1043930E+01  0.7957747E-01            NaN
         13   -1    0    0    0    0  0.00000000000E+00  0.00000000000E+00  0.74505805969E-08  0.10566000000E+00  0.10566000000E+00 0.  1.
     999900   -1    0    0    0    0 -0.00000000000E+00 -0.00000000000E+00 -0.74505805969E-08  0.93827000000E+00  0.93827000000E+00 0.  1.
     999902    2    1    2    0    0 -0.13263941818E-01  0.96374583064E-02  0.17747937045E-01  0.10197680045E+01  0.10194817218E+01 0.  0.
     999903    2    3    3    0    0 -0.90885101969E-01 -0.82316170928E-02  0.94427973954E-01  0.13284964504E+00  0.20112797982E-01 0.  0.
         14    1    1    2    0    0  0.13263941818E-01 -0.96374583064E-02 -0.17747937045E-01  0.24161995458E-01  0.00000000000E+00 0.  1.
     999901    1    3    3    0    0  0.77621160152E-01  0.17869075399E-01 -0.76680036909E-01  0.88691835950E+00  0.88000000000E+00 0.  1.
        -11    1    4    4    0    0 -0.21195160807E-01 -0.35628401602E-02  0.35319325881E-01  0.41347848473E-01  0.51100000000E-03 0. -1.
         11    1    4    4    0    0 -0.69689941163E-01 -0.46687769326E-02  0.59108648072E-01  0.91501796568E-01  0.51100000000E-03 0.  1.
</event>
<event>
 7    1  0.1083484E+005  0.1043930E+01  0.7957747E-01            NaN
         13   -1    0    0    0    0  0.00000000000E+00  0.00000000000E+00  0.74505805969E-08  0.10566000000E+00  0.10566000000E+00 0.  1.
     999900   -1    0    0    0    0 -0.00000000000E+00 -0.00000000000E+00 -0.74505805969E-08  0.93827000000E+00  0.93827000000E+00 0. -1.
     999902    2    1    2    0    0 -0.12452903986E-01 -0.10303422452E-01  0.11575062425E-01  0.10240499245E+01  0.10238569385E+01 0.  0.
         14    1    1    2    0    0  0.12452903986E-01  0.10303422452E-01 -0.11575062425E-01  0.19880075504E-01  0.00000000000E+00 0.  1.
     999901    1    3    3    0    0  0.43396482051E-01  0.10621102784E+00 -0.74301779444E-02  0.88747915166E+00  0.88000000000E+00 0.  1.
        -11    1    3    3    0    0 -0.53912595209E-01 -0.96625478499E-01  0.28762869146E-01  0.11432678942E+00  0.51100000000E-03 0.  1.
         11    1    3    3    0    0 -0.19367908289E-02 -0.19888971792E-01 -0.97576287764E-02  0.22243983411E-01  0.51100000000E-03 0. -1.
</event>
<event>
 8    1  0.1083484E+005  0.1043930E+01  0.7957747E-01            NaN
         13   -1    0    0    0    0  0.00000000000E+00  0.00000000000E+00  0.74505805969E-08  0.10566000000E+00  0.10566000000E+00 0.  1.
     999900   -1    0    0    0    0 -0.00000000000E+00 -0.00000000000E+00 -0.74505805969E-08  0.93827000000E+00  0.93827000000E+00 0.  1.
     999902    2    1    2    0    0  0.39280055815E-02  0.21356109394E-01 -0.75350180875E-03  0.10222025887E+01  0.10219716493E+01 0.  0.
     999903    2    3    3    0    0 -0.20370055059E-01  0.95490451107E-01 -0.90191689583E-01  0.13423553651E+00  0.18742278284E-01 0.  0.
         14    1    1    2    0    0 -0.39280055815E-02 -0.21356109394E-01  0.75350180875E-03  0.21727411288E-01  0.00000000000E+00 0. -1.
     999901    1    3    3    0    0  0.24298060641E-01 -0.74134341713E-01  0.89438187774E-01  0.88796705221E+00  0.88000000000E+00 0. -1.
        -11    1    4    4    0    0 -0.26583793876E-02  0.38854010893E-01 -0.45825171769E-01  0.60140740203E-01  0.51100000000E-03 0. -1.
         11    1    4    4    0    0 -0.17711675672E-01  0.56636440214E-01 -0.44366517814E-01  0.74094796302E-01  0.51100000000E-03 0.  1.
</event>
<event>
 8    1  0.1083484E+005  0.1043930E+01  0.7957747E-01            NaN
         13   -1    0    0    0    0  0.00000000000E+00  0.00000000000E+00  0.74505805969E-08  0.10566000000E+00  0.10566000000E+00 0. -1.
     999900   -1    0    0    0    0 -0.00000000000E+00 -0.00000000000E+00 -0.74505805969E-08  0.93827000000E+00  0.93827000000E+00 0. -1.
     999902    2    1    2    0    0  0.10141483659E-01 -0.19923300591E-01  0.57653648851E-02  0.10208426219E+01  0.10205815164E+01 0.  0.
     999903    2    3    3    0    0  0.49431912273E-01 -0.37406065226E-01  0.11578739525E+00  0.13294947964E+00  0.20642566961E-01 0.  0.
         14    1    1    2    0    0 -0.10141483659E-01  0.19923300591E-01 -0.57653648851E-02  0.23087378143E-01  0.00000000000E+00 0.  1.
     999901    1    3    3    0    0 -0.39290428614E-01  0.17482764635E-01 -0.11002203036E+00  0.88789314222E+00  0.88000000000E+00 0. -1.
        -11    1    4    4    0    0  0.18197820181E-01 -0.26487345550E-01  0.53293754273E-01  0.62235243224E-01  0.51100000000E-03 0. -1.
         11    1    4    4    0    0  0.31234092092E-01 -0.10918719676E-01  0.62493640973E-01  0.70714236412E-01  0.51100000000E-03 0.  1.
</event>
<event>
 8    1  0.1083484E+005  0.1043930E+01  0.7957747E-01            NaN
         13   -1    0    0    0    0  0.00000000000E+00  0.00000000000E+00  0.74505805969E-08  0.10566000000E+00  0.10566000000E+00 0.  1.
     999900   -1    0    0    0    0 -0.00000000000E+00 -0.00000000000E+00 -0.74505805969E-08  0.93827000000E+00  0.93827000000E+00 0.  1.
     999902    2    1    2    0    0  0.69444875685E-02 -0.22048378539E-01  0.33135392532E-02  0.10205775602E+01  0.10203103547E+01 0.  0.
     999903    2    3    3    0    0 -0.31606126910E-01 -0.52753792105E-01  0.11520761079E+00  0.13212426621E+00  0.20052887499E-01 0.  0.
         14    1    1    2    0    0 -0.69444875685E-02  0.22048378539E-01 -0.33135392532E-02  0.23352439834E-01  0.00000000000E+00 0. -1.
     999901    1    3    3    0    0  0.38550614479E-01  0.30705413566E-01 -0.11189407154E+00  0.88845329396E+00  0.88000000000E+00 0.  1.
        -11    1    4    4    0    0 -0.63950323170E-02 -0.29094426010E-01  0.46891426112E-01  0.55555819020E-01  0.51100000000E-03 0. -1.
         11    1    4    4    0    0 -0.25211094593E-01 -0.23659366095E-01  0.68316184680E-01  0.76568447189E-01  0.51100000000E-03 0.  1.
</event>
<event>
 8    1  0.1083484E+005  0.1043930E+01  0.7957747E-01            NaN
         13   -1    0    0    0    0  0.00000000000E+00  0.00000000000E+00  0.74505805969E-08  0.10566000000E+00  0.10566000000E+00 0.  1.
     999900   -1    0    0    0    0 -0.00000000000E+00 -0.00000000000E+00 -0.74505805969E-08  0.93827000000E+00  0.93827000000E+00 0. -1.
     999902    2    1    2    0    0 -0.11023119816E-01  0.10187487093E-01  0.15778693707E-01  0.10221524602E+01  0.10219204424E+01 0.  0.
     999903    2    3    3    0    0 -0.12864080290E+00 -0.16858305636E-01  0.26302667273E-01  0.13385287770E+00  0.19801614158E-01 0.  0.
         14    1    1    2    0    0  0.11023119816E-01 -0.10187487093E-01 -0.15778693707E-01  0.21777539780E-01  0.00000000000E+00 0.  1.
     999901    1    3    3    0    0  0.11761768309E+00  0.27045792729E-01 -0.10523973566E-01  0.88829958252E+00  0.88000000000E+00 0.  1.
        -11    1    4    4    0    0 -0.65362279571E-01 -0.24154101558E-02  0.21139016480E-01  0.68739951525E-01  0.51100000000E-03 0.  1.
         11    1    4    4    0    0 -0.63278523333E-01 -0.14442895481E-01  0.51636507933E-02  0.65112926179E-01  0.51100000000E-03 0. -1.
</event>
<event>
 8    1  0.1083484E+005  0.1043930E+01  0.7957747E-01            NaN
         13   -1    0    0    0    0  0.00000000000E+00  0.00000000000E+00  0.74505805969E-08  0.10566000000E+00  0.10566000000E+00 0.  1.
     999900   -1    0    0    0    0 -0.00000000000E+00 -0.00000000000E+00 -0.74505805969E-08  0.93827000000E+00  0.93827000000E+00 0. -1.
     999902    2    1    2    0    0 -0.20112394301E-01 -0.13243353031E-02  0.12286608828E-01  0.10203244281E+01  0.10200513299E+01 0.  0.
     999903    2    3    3    0    0 -0.11987984042E+00 -0.49852506288E-01 -0.19555089040E-01  0.13278714977E+00  0.19838778088E-01 0.  0.
         14    1    1    2    0    0  0.20112394301E-01  0.13243353031E-02 -0.12286608828E-01  0.23605571906E-01  0.00000000000E+00 0. -1.
     999901    1    3    3    0    0  0.99767446117E-01  0.48528170985E-01  0.31841697867E-01  0.88753727832E+00  0.88000000000E+00 0. -1.
        -11    1    4    4    0    0 -0.29805130544E-01 -0.93624305967E-02  0.32998643286E-02  0.31418961456E-01  0.51100000000E-03 0.  1.
         11    1    4    4    0    0 -0.90074709874E-01 -0.40490075691E-01 -0.22854953368E-01  0.10136818832E+00  0.51100000000E-03 0. -1.
</event>
<event>
 8    1  0.1083484E+005  0.1043930E+01  0.7957747E-01            NaN
         13   -1    0    0    0    0  0.00000000000E+00  0.00000000000E+00  0.74505805969E-08  0.10566000000E+00  0.10566000000E+00 0.  1.
     999900   -1    0    0    0    0 -0.00000000000E+00 -0.00000000000E+00 -0.74505805969E-08  0.93827000000E+00  0.93827000000E+00 0.  1.
     999902    2    1    2    0    0  0.18417917047E-01 -0.98607146207E-02  0.10669269202E-01  0.10204718102E+01  0.10202021510E+01 0.  0.
     999903    2    3    3    0    0 -0.59918151912E-01 -0.35140074706E-01  0.10948772988E+00  0.13112335552E+00  0.19513113315E-01 0.  0.
         14    1    1    2    0    0 -0.18417917047E-01  0.98607146207E-02 -0.10669269202E-01  0.23458189753E-01  0.00000000000E+00 0. -1.
     999901    1    3    3    0    0  0.78336068959E-01  0.25279360085E-01 -0.98818460676E-01  0.88934845472E+00  0.88000000000E+00 0.  1.
        -11    1    4    4    0    0 -0.58632256044E-01 -0.29181265134E-01  0.94914953578E-01  0.11531867679E+00  0.51100000000E-03 0.  1.
         11    1    4    4    0    0 -0.12858958676E-02 -0.59588095717E-02  0.14572776300E-01  0.15804678731E-01  0.51100000000E-03 0. -1.
</event>
<event>
 8    1  0.1083484E+005  0.1043930E+01  0.7957747E-01            NaN
         13   -1    0    0    0    0  0.00000000000E+00  0.00000000000E+00  0.74505805969E-08  0.10566000000E+00  0.10566000000E+00 0. -1.
     999900   -1    0    0    0    0 -0.00000000000E+00 -0.00000000000E+00 -0.74505805969E-08  0.93827000000E+00  0.93827000000E+00 0. -1.
     999902    2    1    2    0    0 -0.34440315564E-02  0.22402755377E-01 -0.66771524527E-02  0.10203010100E+01  0.10200273633E+01 0.  0.
     999903    2    3    3    0    0 -0.91778675774E-01  0.87919567746E-01  0.32386749466E-01  0.13259528712E+00  0.19479037575E-01 0.  0.
         14    1    1    2    0    0  0.34440315564E-02 -0.22402755377E-01  0.66771524527E-02  0.23628989964E-01  0.00000000000E+00 0. -1.
     999901    1    3    3    0    0  0.88334644218E-01 -0.65516812369E-01 -0.39063901918E-01  0.88770572292E+00  0.88000000000E+00 0.  1.
        -11    1    4    4    0    0 -0.74517556150E-01  0.62375072058E-01  0.19188460245E-01  0.99055408315E-01  0.51100000000E-03 0. -1.
         11    1    4    4    0    0 -0.17261119624E-01  0.25544495688E-01  0.13198289221E-01  0.33539878801E-01  0.51100000000E-03 0.  1.
</event>
<event>
 8    1  0.1083484E+005  0.1043930E+01  0.7957747E-01            NaN
         13   -1    0    0    0    0  0.00000000000E+00  0.00000000000E+00  0.74505805969E-08  0.10566000000E+00  0.10566000000E+00 0.  1.
     999900   -1    0    0    0    0 -0.00000000000E+00 -0.00000000000E+00 -0.74505805969E-08  0.93827000000E+00  0.93827000000E+00 0. -1.
     999902    2    1    2    0    0  0.12475327848E-01  0.20859173874E-01  0.84143735749E-02  0.10182095680E+01  0.10178846613E+01 0.  0.
     999903    2    3    3    0    0 -0.56838219288E-01 -0.72190582990E-01 -0.83725385646E-01  0.12582379923E+00  0.19483962833E-01 0.  0.
         14    1    1    2    0    0 -0.12475327848E-01 -0.20859173874E-01 -0.84143735749E-02  0.25720432000E-01  0.00000000000E+00 0. -1.
     999901    1    3    3    0    0  0.69313547136E-01  0.93049756864E-01  0.92139759220E-01  0.89238576877E+00  0.88000000000E+00 0.  1.
        -11    1    4    4    0    0 -0.39205664553E-01 -0.48517750814E-01 -0.44032233404E-01  0.76355451519E-01  0.51100000000E-03 0.  1.
         11    1    4    4    0    0 -0.17632554735E-01 -0.23672832176E-01 -0.39693152241E-01  0.49468347714E-01  0.51100000000E-03 0. -1.
</event>
<event>
 8    1  0.1083484E+005  0.1043930E+01  0.7957747E-01            NaN
         13   -1    0    0    0    0  0.00000000000E+00  0.00000000000E+00  0.74505805969E-08  0.10566000000E+00  0.10566000000E+00 0.  1.
     999900   -1    0    0    0    0 -0.00000000000E+00 -0.00000000000E+00 -0.74505805969E-08  0.93827000000E+00  0.93827000000E+00 0. -1.
     999902    2    1    2    0    0 -0.92049949026E-02 -0.49807571089E-03 -0.21943114093E-01  0.10201291541E+01  0.10198514650E+01 0.  0.
     999903    2    3    3    0    0  0.13836123744E-03 -0.11355897865E+00  0.58089518751E-01  0.12924460017E+00  0.20835395541E-01 0.  0.
         14    1    1    2    0    0  0.92049949026E-02  0.49807571089E-03  0.21943114093E-01  0.23800845924E-01  0.00000000000E+00 0.  1.
     999901    1    3    3    0    0 -0.93433561400E-02  0.11306090294E+00 -0.80032632844E-01  0.89088455391E+00  0.88000000000E+00 0. -1.
        -11    1    4    4    0    0 -0.87370827933E-02 -0.74363351831E-01  0.42782757969E-01  0.86237290146E-01  0.51100000000E-03 0.  1.
         11    1    4    4    0    0  0.88754440307E-02 -0.39195626819E-01  0.15306760782E-01  0.43007310019E-01  0.51100000000E-03 0. -1.
</event>
<event>
 8    1  0.1083484E+005  0.1043930E+01  0.7957747E-01            NaN
         13   -1    0    0    0    0  0.00000000000E+00  0.00000000000E+00  0.74505805969E-08  0.10566000000E+00  0.10566000000E+00 0. -1.
     999900   -1    0    0    0    0 -0.00000000000E+00 -0.00000000000E+00 -0.74505805969E-08  0.93827000000E+00  0.93827000000E+00 0. -1.
     999902    2    1    2    0    0 -0.13930875696E-01 -0.15647594154E-01 -0.11855818262E-01  0.10198576730E+01  0.10195735365E+01 0.  0.
     999903    2    3    3    0    0  0.11280117601E-01  0.36118937652E-01 -0.12362541694E+00  0.13092133603E+00  0.20623622450E-01 0.  0.
         14    1    1    2    0    0  0.13930875696E-01  0.15647594154E-01  0.11855818262E-01  0.24072326999E-01  0.00000000000E+00 0. -1.
     999901    1    3    3    0    0 -0.25210993298E-01 -0.51766531806E-01  0.11176959868E+00  0.88893633697E+00  0.88000000000E+00 0.  1.
        -11    1    4    4    0    0  0.64189048058E-02  0.47051506824E-02 -0.51311052837E-01  0.51927122452E-01  0.51100000000E-03 0. -1.
         11    1    4    4    0    0  0.48612127954E-02  0.31413786969E-01 -0.72314364107E-01  0.78994213578E-01  0.51100000000E-03 0.  1.
</event>
<event>
 8    1  0.1083484E+005  0.1043930E+01  0.7957747E-01            NaN
         13   -1    0    0    0    0  0.00000000000E+00  0.00000000000E+00  0.74505805969E-08  0.10566000000E+00  0.10566000000E+00 0. -1.
     999900   -1    0    0    0    0 -0.00000000000E+00 -0.00000000000E+00 -0.74505805969E-08  0.93827000000E+00  0.93827000000E+00 0. -1.
     999902    2    1    2    0    0 -0.96340498767E-02  0.17106163288E-01  0.15288997986E-01  0.10190464874E+01  0.10187426340E+01 0.  0.
     999903    2    3    3    0    0 -0.34781794416E-01  0.12058135865E+00  0.36905128331E-01  0.13236346502E+00  0.20210420513E-01 0.  0.
         14    1    1    2    0    0  0.96340498767E-02 -0.17106163288E-01 -0.15288997986E-01  0.24883512591E-01  0.00000000000E+00 0. -1.
     999901    1    3    3    0    0  0.25147744540E-01 -0.10347519536E+00 -0.21616130345E-01  0.88668302239E+00  0.88000000000E+00 0. -1.
        -11    1    4    4    0    0 -0.13012070724E-01  0.32430124536E-01  0.19125671222E-01  0.39838164901E-01  0.51100000000E-03 0.  1.
         11    1    4    4    0    0 -0.21769723692E-01  0.88151234112E-01  0.17779457109E-01  0.92525300114E-01  0.51100000000E-03 0. -1.
</event>
<event>
 8    1  0.1083484E+005  0.1043930E+01  0.7957747E-01            NaN
         13   -1    0    0    0    0  0.00000000000E+00  0.00000000000E+00  0.74505805969E-08  0.10566000000E+00  0.10566000000E+00 0.  1.
     999900   -1    0    0    0    0 -0.00000000000E+00 -0.00000000000E+00 -0.74505805969E-08  0.93827000000E+00  0.93827000000E+00 0. -1.
     999902    2    1    2    0    0  0.37990998429E-02  0.22392626908E-01  0.16334844012E-02  0.10211587205E+01  0.10209047954E+01 0.  0.
     999903    2    3    3    0    0  0.12963238547E+00  0.15491379118E-01  0.45315284162E-02  0.13217613255E+00  0.20135964719E-01 0.  0.
         14    1    1    2    0    0 -0.37990998429E-02 -0.22392626908E-01 -0.16334844012E-02  0.22771279515E-01  0.00000000000E+00 0. -1.
     999901    1    3    3    0    0 -0.12583328563E+00  0.69012477895E-02 -0.28980440151E-02  0.88898258794E+00  0.88000000000E+00 0.  1.
        -11    1    4    4    0    0  0.51807262033E-01 -0.36937328518E-02  0.19682582954E-02  0.51978565039E-01  0.51100000000E-03 0. -1.
         11    1    4    4    0    0  0.77825123441E-01  0.19185111970E-01  0.25632701208E-02  0.80197567511E-01  0.51100000000E-03 0.  1.
</event>
<event>
 8    1  0.1083484E+005  0.1043930E+01  0.7957747E-01            NaN
         13   -1    0    0    0    0  0.00000000000E+00  0.00000000000E+00  0.74505805969E-08  0.10566000000E+00  0.10566000000E+00 0. -1.
     999900   -1    0    0    0    0 -0.00000000000E+00 -0.00000000000E+00 -0.74505805969E-08  0.93827000000E+00  0.93827000000E+00 0.  1.
     999902    2    1    2    0    0  0.38256991106E-02  0.16396256309E-01  0.16924717769E-01  0.10200570181E+01  0.10197776232E+01 0.  0.
     999903    2    3    3    0    0  0.83809445884E-01 -0.63888132260E-01  0.75083529052E-01  0.13088581401E+00  0.19693737880E-01 0.  0.
         14    1    1    2    0    0 -0.38256991106E-02 -0.16396256309E-01 -0.16924717769E-01  0.23872981930E-01  0.00000000000E+00 0.  1.
     999901    1    3    3    0    0 -0.79983746774E-01  0.80284388569E-01 -0.58158811283E-01  0.88917120406E+00  0.88000000000E+00 0.  1.
        -11    1    4    4    0    0  0.48907493224E-01 -0.40945178158E-01  0.56329256264E-01  0.85098159440E-01  0.51100000000E-03 0. -1.
         11    1    4    4    0    0  0.34901952661E-01 -0.22942954101E-01  0.18754272789E-01  0.45787654573E-01  0.51100000000E-03 0.  1.
</event>
<event>
 8    1  0.1083484E+005  0.1043930E+01  0.7957747E-01            NaN
         13   -1    0    0    0    0  0.00000000000E+00  0.00000000000E+00  0.74505805969E-08  0.10566000000E+00  0.10566000000E+00 0. -1.
     999900   -1    0    0    0    0 -0.00000000000E+00 -0.00000000000E+00 -0.74505805969E-08  0.93827000000E+00  0.93827000000E+00 0.  1.
     999902    2    1    2    0    0  0.76877902792E-02 -0.18903608207E-03  0.23820387728E-01  0.10188990447E+01  0.10185915347E+01 0.  0.
     999903    2    3    3    0    0  0.31343414593E-01  0.71314757640E-01 -0.98690679825E-01  0.12722570606E+00  0.19450596480E-01 0.  0.
         14    1    1    2    0    0 -0.76877902792E-02  0.18903608207E-03 -0.23820387728E-01  0.25030955346E-01  0.00000000000E+00 0.  1.
     999901    1    3    3    0    0 -0.23655624314E-01 -0.71503793723E-01  0.12251106755E+00  0.89167333859E+00  0.88000000000E+00 0. -1.
        -11    1    4    4    0    0  0.17029882919E-01  0.49859090930E-01 -0.78134942852E-01  0.94240523535E-01  0.51100000000E-03 0. -1.
         11    1    4    4    0    0  0.14313531674E-01  0.21455666710E-01 -0.20555736973E-01  0.32985182529E-01  0.51100000000E-03 0.  1.
</event>
<event>
 8    1  0.1083484E+005  0.1043930E+01  0.7957747E-01            NaN
         13   -1    0    0    0    0  0.00000000000E+00  0.00000000000E+00  0.74505805969E-08  0.10566000000E+00  0.10566000000E+00 0. -1.
     999900   -1    0    0    0    0 -0.00000000000E+00 -0.00000000000E+00 -0.74505805969E-08  0.93827000000E+00  0.93827000000E+00 0.  1.
     999902    2    1    2    0    0 -0.68215557007E-02 -0.19889361411E-01  0.11137731915E-01  0.10201356857E+01  0.10198581509E+01 0.  0.
     999903    2    3    3    0    0 -0.38359900496E-02 -0.12515666618E+00 -0.38564831793E-01  0.13246431416E+00  0.19510058118E-01 0.  0.
         14    1    1    2    0    0  0.68215557007E-02  0.19889361411E-01 -0.11137731915E-01  0.23794314273E-01  0.00000000000E+00 0. -1.
     999901    1    3    3    0    0 -0.29855656511E-02  0.10526730476E+00  0.49702563708E-01  0.88767137156E+00  0.88000000000E+00 0.  1.
        -11    1    4    4    0    0 -0.39712067590E-02 -0.69398200232E-01 -0.31288311067E-01  0.76230572666E-01  0.51100000000E-03 0.  1.
         11    1    4    4    0    0  0.13521670942E-03 -0.55758465943E-01 -0.72765207258E-02  0.56233741497E-01  0.51100000000E-03 0. -1.
</event>
<event>
 8    1  0.1083484E+005  0.1043930E+01  0.7957747E-01            NaN
         13   -1    0    0    0    0  0.00000000000E+00  0.00000000000E+00  0.74505805969E-08  0.10566000000E+00  0.10566000000E+00 0. -1.
     999900   -1    0    0    0    0 -0.00000000000E+00 -0.00000000000E+00 -0.74505805969E-08  0.93827000000E+00  0.93827000000E+00 0. -1.
     999902    2    1    2    0    0 -0.33076685366E-02  0.74214299704E-02 -0.26944761937E-01  0.10157868216E+01  0.10153968822E+01 0.  0.
     999903    2    3    3    0    0 -0.37304480788E-01  0.11347902928E+00 -0.43327606900E-01  0.12861581486E+00  0.19890498712E-01 0.  0.
         14    1    1    2    0    0  0.33076685366E-02 -0.74214299704E-02  0.26944761937E-01  0.28143178388E-01  0.00000000000E+00 0. -1.
     999901    1    3    3    0    0  0.33996812251E-01 -0.10605759931E+00  0.16382844963E-01  0.88717100675E+00  0.88000000000E+00 0. -1.
        -11    1    4    4    0    0  0.54074670687E-03  0.16999316914E-01 -0.23779882587E-02  0.17180952584E-01  0.51100000000E-03 0.  1.
         11    1    4    4    0    0 -0.37845227495E-01  0.96479712366E-01 -0.40949618641E-01  0.11143486228E+00  0.51100000000E-03 0. -1.
</event>
<event>
 8    1  0.1083484E+005  0.1043930E+01  0.7957747E-01            NaN
         13   -1    0    0    0    0  0.00000000000E+00  0.00000000000E+00  0.74505805969E-08  0.10566000000E+00  0.10566000000E+00 0. -1.
     999900   -1    0    0    0    0 -0.00000000000E+00 -0.00000000000E+00 -0.74505805969E-08  0.93827000000E+00  0.93827000000E+00 0. -1.
     999902    2    1    2    0    0 -0.15393712883E-01  0.12201727042E-01 -0.12546404158E-01  0.10206220444E+01  0.10203558676E+01 0.  0.
     999903    2    3    3    0    0 -0.34663665180E-01 -0.68831078839E-01 -0.10501725315E+00  0.13186532590E+00  0.20507403957E-01 0.  0.
         14    1    1    2    0    0  0.15393712883E-01 -0.12201727042E-01  0.12546404158E-01  0.23307955647E-01  0.00000000000E+00 0.  1.
     999901    1    3    3    0    0  0.19269952296E-01  0.81032805882E-01  0.92470848988E-01  0.88875671846E+00  0.88000000000E+00 0.  1.
        -11    1    4    4    0    0 -0.15434720202E-01 -0.27374225976E-01 -0.59899825483E-01  0.67644874525E-01  0.51100000000E-03 0.  1.
         11    1    4    4    0    0 -0.19228944978E-01 -0.41456852863E-01 -0.45117427664E-01  0.64220451371E-01  0.51100000000E-03 0. -1.
</event>
<event>
 8    1  0.1083484E+005  0.1043930E+01  0.7957747E-01            NaN
         13   -1    0    0    0    0  0.00000000000E+00  0.00000000000E+00  0.74505805969E-08  0.10566000000E+00  0.10566000000E+00 0. -1.
     999900   -1    0    0    0    0 -0.00000000000E+00 -0.00000000000E+00 -0.74505805969E-08  0.93827000000E+00  0.93827000000E+00 0. -1.
     999902    2    1    2    0    0 -0.46757230365E-02  0.22710199276E-01  0.22468645288E-02  0.10206348516E+01  0.10203689707E+01 0.  0.
     999903    2    3    3    0    0 -0.69689880244E-01 -0.83208014985E-01 -0.67433585790E-01  0.12917488400E+00  0.18936974324E-01 0.  0.
         14    1    1    2    0    0  0.46757230365E-02 -0.22710199276E-01 -0.22468645288E-02  0.23295148364E-01  0.00000000000E+00 0. -1.
     999901    1    3    3    0    0  0.65014157207E-01  0.10591821426E+00  0.69680450319E-01  0.89145996764E+00  0.88000000000E+00 0.  1.
        -11    1    4    4    0    0 -0.47409590003E-01 -0.42304042216E-01 -0.36916164558E-01  0.73487179417E-01  0.51100000000E-03 0. -1.
         11    1    4    4    0    0 -0.22280290241E-01 -0.40903972769E-01 -0.30517421232E-01  0.55687704578E-01  0.51100000000E-03 0.  1.
</event>
<event>
 8    1  0.1083484E+005  0.1043930E+01  0.7957747E-01            NaN
         13   -1    0    0    0    0  0.00000000000E+00  0.00000000000E+00  0.74505805969E-08  0.10566000000E+00  0.10566000000E+00 0. -1.
     999900   -1    0    0    0    0 -0.00000000000E+00 -0.00000000000E+00 -0.74505805969E-08  0.93827000000E+00  0.93827000000E+00 0.  1.
     999902    2    1    2    0    0  0.92729713261E-02  0.45947467758E-02 -0.21621026726E-01  0.10199598416E+01  0.10196781404E+01 0.  0.
     999903    2    3    3    0    0  0.80448158068E-01 -0.62151110024E-01  0.76839751567E-01  0.12910887685E+00  0.20738564225E-01 0.  0.
         14    1    1    2    0    0 -0.92729713261E-02 -0.45947467758E-02  0.21621026726E-01  0.23970158361E-01  0.00000000000E+00 0. -1.
     999901    1    3    3    0    0 -0.71175186742E-01  0.66745856800E-01 -0.98460778293E-01  0.89085096479E+00  0.88000000000E+00 0.  1.
        -11    1    4    4    0    0  0.25124240785E-01 -0.31275844498E-01  0.34409892217E-01  0.52855536393E-01  0.51100000000E-03 0. -1.
         11    1    4    4    0    0  0.55323917284E-01 -0.30875265527E-01  0.42429859351E-01  0.76253340454E-01  0.51100000000E-03 0.  1.
</event>
<event>
 8    1  0.1083484E+005  0.1043930E+01  0.7957747E-01            NaN
         13   -1    0    0    0    0  0.00000000000E+00  0.00000000000E+00  0.74505805969E-08  0.10566000000E+00  0.10566000000E+00 0. -1.
     999900   -1    0    0    0    0 -0.00000000000E+00 -0.00000000000E+00 -0.74505805969E-08  0.93827000000E+00  0.93827000000E+00 0. -1.
     999902    2    1    2    0    0 -0.20671537249E-01 -0.52603229214E-02 -0.10411687698E-01  0.10201942318E+01  0.10199180771E+01 0.  0.
     999903    2    3    3    0    0  0.27712730922E-01  0.12360932736E+00 -0.19965940125E-01  0.12944190492E+00  0.17587117977E-01 0.  0.
         14    1    1    2    0    0  0.20671537249E-01  0.52603229214E-02  0.10411687698E-01  0.23735768162E-01  0.00000000000E+00 0. -1.
     999901    1    3    3    0    0 -0.48384268171E-01 -0.12886965028E+00  0.95542524267E-02  0.89075232692E+00  0.88000000000E+00 0.  1.
        -11    1    4    4    0    0  0.78971353613E-02  0.58105789718E-01 -0.16490221402E-01  0.60916632117E-01  0.51100000000E-03 0. -1.
         11    1    4    4    0    0  0.19815595561E-01  0.65503537643E-01 -0.34757187235E-02  0.68525272803E-01  0.51100000000E-03 0.  1.
</event>
<event>
 8    1  0.1083484E+005  0.1043930E+01  0.7957747E-01            NaN
         13   -1    0    0    0    0  0.00000000000E+00  0.00000000000E+00  0.74505805969E-08  0.10566000000E+00  0.10566000000E+00 0.  1.
     999900   -1    0    0    0    0 -0.00000000000E+00 -0.00000000000E+00 -0.74505805969E-08  0.93827000000E+00  0.93827000000E+00 0. -1.
     999902    2    1    2    0    0  0.10577279219E-01 -0.17771500127E-01  0.92221659760E-02  0.10212859412E+01  0.10210348771E+01 0.  0.
     999903    2    3    3    0    0 -0.77222117978E-02  0.48131395429E-01 -0.11824177814E+00  0.12947591658E+00  0.20165095964E-01 0.  0.
         14    1    1    2    0    0 -0.10577279219E-01  0.17771500127E-01 -0.92221659760E-02  0.22644058773E-01  0.00000000000E+00 0. -1.
     999901    1    3    3    0    0  0.18299491017E-01 -0.65902895555E-01  0.12746394412E+00  0.89181002465E+00  0.88000000000E+00 0.  1.
        -11    1    4    4    0    0 -0.49134555863E-02  0.45322018147E-01 -0.89362572167E-01  0.10032027612E+00  0.51100000000E-03 0.  1.
         11    1    4    4    0    0 -0.28087562115E-02  0.28093772819E-02 -0.28879205973E-01  0.29155640462E-01  0.51100000000E-03 0. -1.
</event>
<event>
 8    1  0.1083484E+005  0.1043930E+01  0.7957747E-01            NaN
         13   -1    0    0    0    0  0.00000000000E+00  0.00000000000E+00  0.74505805969E-08  0.10566000000E+00  0.10566000000E+00 0. -1.
     999900   -1    0    0    0    0 -0.00000000000E+00 -0.00000000000E+00 -0.74505805969E-08  0.93827000000E+00  0.93827000000E+00 0.  1.
     999902    2    1    2    0    0  0.23521070518E-01  0.84110440610E-03  0.64552888981E-02  0.10195246938E+01  0.10192325458E+01 0.  0.
     999903    2    3    3    0    0 -0.12381592745E+00  0.43519806734E-02 -0.18829040169E-01  0.12691065936E+00  0.20061382791E-01 0.  0.
         14    1    1    2    0    0 -0.23521070518E-01 -0.84110440610E-03 -0.64552888981E-02  0.24405306179E-01  0.00000000000E+00 0.  1.
     999901    1    3    3    0    0  0.14733699797E+00 -0.35108762673E-02  0.25284329067E-01  0.89261403446E+00  0.88000000000E+00 0.  1.
        -11    1    4    4    0    0 -0.70274617438E-01 -0.12850110244E-03 -0.94934323020E-03  0.70283004647E-01  0.51100000000E-03 0.  1.
         11    1    4    4    0    0 -0.53541310010E-01  0.44804817759E-02 -0.17879696939E-01  0.56627654712E-01  0.51100000000E-03 0. -1.
</event>
<event>
 8    1  0.1083484E+005  0.1043930E+01  0.7957747E-01            NaN
         13   -1    0    0    0    0  0.00000000000E+00  0.00000000000E+00  0.74505805969E-08  0.10566000000E+00  0.10566000000E+00 0.  1.
     999900   -1    0    0    0    0 -0.00000000000E+00 -0.00000000000E+00 -0.74505805969E-08  0.93827000000E+00  0.93827000000E+00 0. -1.
     999902    2    1    2    0    0 -0.14200155234E-01  0.12141860379E-01  0.14964697145E-01  0.10199923447E+01  0.10197114160E+01 0.  0.
     999903    2    3    3    0    0 -0.62691552264E-01  0.10692504150E+00  0.44562703086E-01  0.13308123922E+00  0.19015427973E-01 0.  0.
         14    1    1    2    0    0  0.14200155234E-01 -0.12141860379E-01 -0.14964697145E-01  0.23937655332E-01  0.00000000000E+00 0.  1.
     999901    1    3    3    0    0  0.48491397031E-01 -0.94783181122E-01 -0.29598005941E-01  0.88691110545E+00  0.88000000000E+00 0.  1.
        -11    1    4    4    0    0 -0.47996091842E-01  0.94511233906E-01  0.40054889454E-01  0.11331660715E+00  0.51100000000E-03 0. -1.
         11    1    4    4    0    0 -0.14695460423E-01  0.12413807595E-01  0.45078136312E-02  0.19764632068E-01  0.51100000000E-03 0.  1.
</event>
<event>
 8    1  0.1083484E+005  0.1043930E+01  0.7957747E-01            NaN
         13   -1    0    0    0    0  0.00000000000E+00  0.00000000000E+00  0.74505805969E-08  0.10566000000E+00  0.10566000000E+00 0.  1.
     999900   -1    0    0    0    0 -0.00000000000E+00 -0.00000000000E+00 -0.74505805969E-08  0.93827000000E+00  0.93827000000E+00 0.  1.
     999902    2    1    2    0    0 -0.17062135321E-01  0.11517385674E-01 -0.86567448262E-02  0.10215982767E+01  0.10213541663E+01 0.  0.
     999903    2    3    3    0    0 -0.10823425651E+00 -0.45697757629E-01 -0.60496932595E-01  0.13352545684E+00  0.19137121982E-01 0.  0.
         14    1    1    2    0    0  0.17062135321E-01 -0.11517385674E-01  0.86567448262E-02  0.22331723298E-01  0.00000000000E+00 0.  1.
     999901    1    3    3    0    0  0.91172121186E-01  0.57215143303E-01  0.51840187769E-01  0.88807281986E+00  0.88000000000E+00 0. -1.
        -11    1    4    4    0    0 -0.65710415315E-01 -0.29660576835E-01 -0.47190475839E-01  0.86167340854E-01  0.51100000000E-03 0. -1.
         11    1    4    4    0    0 -0.42523841192E-01 -0.16037180794E-01 -0.13306456756E-01  0.47358115988E-01  0.51100000000E-03 0.  1.
</event>
<event>
 8    1  0.1083484E+005  0.1043930E+01  0.7957747E-01            NaN
         13   -1    0    0    0    0  0.00000000000E+00  0.00000000000E+00  0.74505805969E-08  0.10566000000E+00  0.10566000000E+00 0. -1.
     999900   -1    0    0    0    0 -0.00000000000E+00 -0.00000000000E+00 -0.74505805969E-08  0.93827000000E+00  0.93827000000E+00 0.  1.
     999902    2    1    2    0    0  0.93688380054E-02 -0.21031076454E-01  0.44073181013E-02  0.10204884609E+01  0.10202191887E+01 0.  0.
     999903    2    3    3    0    0  0.67990302628E-01  0.10767819033E+00  0.77175712113E-02  0.12918968426E+00  0.20325838002E-01 0.  0.
         14    1    1    2    0    0 -0.93688380054E-02  0.21031076454E-01 -0.44073181013E-02  0.23441539097E-01  0.00000000000E+00 0.  1.
     999901    1    3    3    0    0 -0.58621464622E-01 -0.12870926678E+00 -0.33102531101E-02  0.89129877664E+00  0.88000000000E+00 0. -1.
        -11    1    4    4    0    0  0.43289310601E-01  0.65658750799E-01 -0.50251714425E-02  0.78807039266E-01  0.51100000000E-03 0. -1.
         11    1    4    4    0    0  0.24700992026E-01  0.42019439527E-01  0.12742742654E-01  0.50382644994E-01  0.51100000000E-03 0.  1.
</event>
<event>
 8    1  0.1083484E+005  0.1043930E+01  0.7957747E-01            NaN
         13   -1    0    0    0    0  0.00000000000E+00  0.00000000000E+00  0.74505805969E-08  0.10566000000E+00  0.10566000000E+00 0.  1.
     999900   -1    0    0    0    0 -0.00000000000E+00 -0.00000000000E+00 -0.74505805969E-08  0.93827000000E+00  0.93827000000E+00 0. -1.
     999902    2    1    2    0    0 -0.16103266954E-01 -0.11214800127E-01 -0.12769155097E-01  0.10205176471E+01  0.10202490528E+01 0.  0.
     999903    2    3    3    0    0  0.74042917438E-01 -0.43156692438E-01  0.94143602294E-01  0.12890284416E+00  0.20200783536E-01 0.  0.
         14    1    1    2    0    0  0.16103266954E-01  0.11214800127E-01  0.12769155097E-01  0.23412352944E-01  0.00000000000E+00 0.  1.
     999901    1    3    3    0    0 -0.90146184392E-01  0.31941892310E-01 -0.10691275739E+00  0.89161480289E+00  0.88000000000E+00 0.  1.
        -11    1    4    4    0    0  0.23671557247E-01 -0.10495905875E-01  0.42207451123E-01  0.49520063751E-01  0.51100000000E-03 0.  1.
         11    1    4    4    0    0  0.50371360191E-01 -0.32660786563E-01  0.51936151171E-01  0.79382780412E-01  0.51100000000E-03 0. -1.
</event>
<event>
 8    1  0.1083484E+005  0.1043930E+01  0.7957747E-01            NaN
         13   -1    0    0    0    0  0.00000000000E+00  0.00000000000E+00  0.74505805969E-08  0.10566000000E+00  0.10566000000E+00 0. -1.
     999900   -1    0    0    0    0 -0.00000000000E+00 -0.00000000000E+00 -0.74505805969E-08  0.93827000000E+00  0.93827000000E+00 0.  1.
     999902    2    1    2    0    0  0.22222289607E-01  0.39466868627E-02  0.53577409609E-02  0.10207327614E+01  0.10204691363E+01 0.  0.
     999903    2    3    3    0    0 -0.93876466042E-01 -0.61697265621E-01  0.60136896800E-01  0.12899916578E+00  0.20124486420E-01 0.  0.
         14    1    1    2    0    0 -0.22222289607E-01 -0.39466868627E-02 -0.53577409609E-02  0.23197238645E-01  0.00000000000E+00 0.  1.
     999901    1    3    3    0    0  0.11609875565E+00  0.65643952484E-01 -0.54779155839E-01  0.89173359557E+00  0.88000000000E+00 0. -1.
        -11    1    4    4    0    0 -0.69648896171E-01 -0.50659691301E-01  0.37052426255E-01  0.93757754202E-01  0.51100000000E-03 0. -1.
         11    1    4    4    0    0 -0.24227569871E-01 -0.11037574320E-01  0.23084470545E-01  0.35241411579E-01  0.51100000000E-03 0.  1.
</event>
<event>
 8    1  0.1083484E+005  0.1043930E+01  0.7957747E-01            NaN
         13   -1    0    0    0    0  0.00000000000E+00  0.00000000000E+00  0.74505805969E-08  0.10566000000E+00  0.10566000000E+00 0.  1.
     999900   -1    0    0    0    0 -0.00000000000E+00 -0.00000000000E+00 -0.74505805969E-08  0.93827000000E+00  0.93827000000E+00 0. -1.
     999902    2    1    2    0    0  0.67340948843E-02 -0.16828719694E-01  0.16609214666E-01  0.10193450483E+01  0.10190485305E+01 0.  0.
     999903    2    3    3    0    0 -0.14177341780E-01 -0.12892879611E+00  0.13512882614E-01  0.13198193059E+00  0.20322414225E-01 0.  0.
         14    1    1    2    0    0 -0.67340948843E-02  0.16828719694E-01 -0.16609214666E-01  0.24584951744E-01  0.00000000000E+00 0. -1.
     999901    1    3    3    0    0  0.20911436665E-01  0.11210007642E+00  0.30963320516E-02  0.88736311766E+00  0.88000000000E+00 0. -1.
        -11    1    4    4    0    0 -0.13143820221E-01 -0.12223613434E+00  0.79419862375E-02  0.12319808771E+00  0.51100000000E-03 0. -1.
         11    1    4    4    0    0 -0.10335215590E-02 -0.66926617695E-02  0.55708963764E-02  0.87838428840E-02  0.51100000000E-03 0.  1.
</event>
<event>
 8    1  0.1083484E+005  0.1043930E+01  0.7957747E-01            NaN
         13   -1    0    0    0    0  0.00000000000E+00  0.00000000000E+00  0.74505805969E-08  0.10566000000E+00  0.10566000000E+00 0.  1.
     999900   -1    0    0    0    0 -0.00000000000E+00 -0.00000000000E+00 -0.74505805969E-08  0.93827000000E+00  0.93827000000E+00 0. -1.
     999902    2    1    2    0    0 -0.20797563710E-02  0.17664786167E-01  0.15953338678E-01  0.10200369242E+01  0.10197570532E+01 0.  0.
     999903    2    3    3    0    0  0.68331855881E-01 -0.15679139564E-01 -0.10564972734E+00  0.12826513825E+00  0.19364990549E-01 0.  0.
         14    1    1    2    0    0  0.20797563710E-02 -0.17664786167E-01 -0.15953338678E-01  0.23893075814E-01  0.00000000000E+00 0. -1.
     999901    1    3    3    0    0 -0.70411612252E-01  0.33343925731E-01  0.12160306601E+00  0.89177178593E+00  0.88000000000E+00 0.  1.
        -11    1    4    4    0    0  0.65853042995E-01 -0.18206547056E-01 -0.94910958511E-01  0.11694636717E+00  0.51100000000E-03 0.  1.
         11    1    4    4    0    0  0.24788128856E-02  0.25274074924E-02 -0.10738768825E-01  0.11318771084E-01  0.51100000000E-03 0. -1.
</event>
<event>
 8    1  0.1083484E+005  0.1043930E+01  0.7957747E-01            NaN
         13   -1    0    0    0    0  0.00000000000E+00  0.00000000000E+00  0.74505805969E-08  0.10566000000E+00  0.10566000000E+00 0. -1.
     999900   -1    0    0    0    0 -0.00000000000E+00 -0.00000000000E+00 -0.74505805969E-08  0.93827000000E+00  0.93827000000E+00 0.  1.
     999902    2    1    2    0    0  0.21806566790E-02 -0.83213546634E-02  0.22243497566E-01  0.10200810296E+01  0.10198022031E+01 0.  0.
     999903    2    3    3    0    0 -0.95474576890E-01 -0.30425059950E-01  0.83951797078E-01  0.13225614105E+00  0.20067473875E-01 0.  0.
         14    1    1    2    0    0 -0.21806566790E-02  0.83213546634E-02 -0.22243497566E-01  0.23848970438E-01  0.00000000000E+00 0.  1.
     999901    1    3    3    0    0  0.97655233569E-01  0.22103705286E-01 -0.61708299512E-01  0.88782488851E+00  0.88000000000E+00 0.  1.
        -11    1    4    4    0    0 -0.79918978167E-01 -0.17169938153E-01  0.66526577114E-01  0.10539400567E+00  0.51100000000E-03 0. -1.
         11    1    4    4    0    0 -0.15555598724E-01 -0.13255121797E-01  0.17425219964E-01  0.26862135383E-01  0.51100000000E-03 0.  1.
</event>
<event>
 8    1  0.1083484E+005  0.1043930E+01  0.7957747E-01            NaN
         13   -1    0    0    0    0  0.00000000000E+00  0.00000000000E+00  0.74505805969E-08  0.10566000000E+00  0.10566000000E+00 0.  1.
     999900   -1    0    0    0    0 -0.00000000000E+00 -0.00000000000E+00 -0.74505805969E-08  0.93827000000E+00  0.93827000000E+00 0.  1.
     999902    2    1    2    0    0 -0.31736540435E-02  0.10687882213E-01  0.19549084963E-01  0.10214251199E+01  0.10211771668E+01 0.  0.
     999903    2    3    3    0    0  0.33919664595E-01  0.99342761584E-01  0.81018392772E-01  0.13406156546E+00  0.19722967311E-01 0.  0.
         14    1    1    2    0    0  0.31736540435E-02 -0.10687882213E-01 -0.19549084963E-01  0.22504880117E-01  0.00000000000E+00 0. -1.
     999901    1    3    3    0    0 -0.37093318639E-01 -0.88654879371E-01 -0.61469307809E-01  0.88736355443E+00  0.88000000000E+00 0. -1.
        -11    1    4    4    0    0  0.33824320373E-02  0.27650540752E-01  0.13528907216E-01  0.30972337688E-01  0.51100000000E-03 0. -1.
         11    1    4    4    0    0  0.30537232558E-01  0.71692220832E-01  0.67489485557E-01  0.10308922777E+00  0.51100000000E-03 0.  1.
</event>
<event>
 8    1  0.1083484E+005  0.1043930E+01  0.7957747E-01            NaN
         13   -1    0    0    0    0  0.00000000000E+00  0.00000000000E+00  0.74505805969E-08  0.10566000000E+00  0.10566000000E+00 0.  1.
     999900   -1    0    0    0    0 -0.00000000000E+00 -0.00000000000E+00 -0.74505805969E-08  0.93827000000E+00  0.93827000000E+00 0.  1.
     999902    2    1    2    0    0  0.15940937286E-02 -0.23483238522E-01 -0.12451776546E-02  0.10203598050E+01  0.10200875342E+01 0.  0.
     999903    2    3    3    0    0 -0.12545885215E+00 -0.11503209994E-01  0.28163434322E-01  0.13066837610E+00  0.20218755102E-01 0.  0.
         14    1    1    2    0    0 -0.15940937286E-02  0.23483238522E-01  0.12451776546E-02  0.23570195029E-01  0.00000000000E+00 0.  1.
     999901    1    3    3    0    0  0.12705294588E+00 -0.11980028527E-01 -0.29408611977E-01  0.88969142887E+00  0.88000000000E+00 0. -1.
        -11    1    4    4    0    0 -0.80388748944E-01 -0.43955739225E-02  0.27356626906E-01  0.85031277678E-01  0.51100000000E-03 0. -1.
         11    1    4    4    0    0 -0.45070103207E-01 -0.71076360719E-02  0.80680741593E-03  0.45637098427E-01  0.51100000000E-03 0.  1.
</event>
<event>
 8    1  0.1083484E+005  0.1043930E+01  0.7957747E-01            NaN
         13   -1    0    0    0    0  0.00000000000E+00  0.00000000000E+00  0.74505805969E-08  0.10566000000E+00  0.10566000000E+00 0.  1.
     999900   -1    0    0    0    0 -0.00000000000E+00 -0.00000000000E+00 -0.74505805969E-08  0.93827000000E+00  0.93827000000E+00 0. -1.
     999902    2    1    2    0    0 -0.63588007124E-02 -0.14212862156E-01  0.16596586980E-01  0.10211728803E+01  0.10209192745E+01 0.  0.
     999903    2    3    3    0    0  0.62276251587E-01  0.20888998856E-01 -0.10904673203E+00  0.12891218149E+00  0.20309578624E-01 0.  0.
         14    1    1    2    0    0  0.63588007124E-02  0.14212862156E-01 -0.16596586980E-01  0.22757119689E-01  0.00000000000E+00 0. -1.
     999901    1    3    3    0    0 -0.68635052299E-01 -0.35101861012E-01  0.12564331901E+00  0.89226069882E+00  0.88000000000E+00 0.  1.
        -11    1    4    4    0    0  0.28521194745E-01  0.90650581468E-03 -0.56904514027E-01  0.63660546181E-01  0.51100000000E-03 0.  1.
         11    1    4    4    0    0  0.33755056841E-01  0.19982493041E-01 -0.52142218008E-01  0.65251635307E-01  0.51100000000E-03 0. -1.
</event>
<event>
 8    1  0.1083484E+005  0.1043930E+01  0.7957747E-01            NaN
         13   -1    0    0    0    0  0.00000000000E+00  0.00000000000E+00  0.74505805969E-08  0.10566000000E+00  0.10566000000E+00 0. -1.
     999900   -1    0    0    0    0 -0.00000000000E+00 -0.00000000000E+00 -0.74505805969E-08  0.93827000000E+00  0.93827000000E+00 0.  1.
     999902    2    1    2    0    0 -0.17298360422E-01  0.84583608723E-02  0.14779630181E-01  0.10196562568E+01  0.10193672878E+01 0.  0.
     999903    2    3    3    0    0 -0.12813163929E+00 -0.12465703518E-01 -0.20017861283E-01  0.13177524133E+00  0.19770905562E-01 0.  0.
         14    1    1    2    0    0  0.17298360422E-01 -0.84583608723E-02 -0.14779630181E-01  0.24273743226E-01  0.00000000000E+00 0. -1.
     999901    1    3    3    0    0  0.11083327886E+00  0.20924064390E-01  0.34797491464E-01  0.88788101544E+00  0.88000000000E+00 0.  1.
        -11    1    4    4    0    0 -0.58050113335E-01  0.33903099063E-02 -0.12933335854E-01  0.59572159242E-01  0.51100000000E-03 0.  1.
         11    1    4    4    0    0 -0.70081525951E-01 -0.15856013424E-01 -0.70845254295E-02  0.72203082087E-01  0.51100000000E-03 0. -1.
</event>
<event>
 8    1  0.1083484E+005  0.1043930E+01  0.7957747E-01            NaN
         13   -1    0    0    0    0  0.00000000000E+00  0.00000000000E+00  0.74505805969E-08  0.10566000000E+00  0.10566000000E+00 0.  1.
     999900   -1    0    0    0    0 -0.00000000000E+00 -0.00000000000E+00 -0.74505805969E-08  0.93827000000E+00  0.93827000000E+00 0. -1.
     999902    2    1    2    0    0 -0.89152860395E-02  0.17591061654E-01 -0.13646237300E-01  0.10199477656E+01  0.10196657771E+01 0.  0.
     999903    2    3    3    0    0  0.11948042949E-01 -0.11250642549E+00 -0.57912072313E-01  0.12903806263E+00  0.22283670741E-01 0.  0.
         14    1    1    2    0    0  0.89152860395E-02 -0.17591061654E-01  0.13646237300E-01  0.23982234419E-01  0.00000000000E+00 0. -1.
     999901    1    3    3    0    0 -0.20863328989E-01  0.13009748714E+00  0.44265835013E-01  0.89090970295E+00  0.88000000000E+00 0. -1.
        -11    1    4    4    0    0 -0.26546110978E-02 -0.64486411279E-01 -0.38930778308E-01  0.75375133966E-01  0.51100000000E-03 0.  1.
         11    1    4    4    0    0  0.14602654047E-01 -0.48020014211E-01 -0.18981294005E-01  0.53662928667E-01  0.51100000000E-03 0. -1.
</event>
<event>
 8    1  0.1083484E+005  0.1043930E+01  0.7957747E-01            NaN
         13   -1    0    0    0    0  0.00000000000E+00  0.00000000000E+00  0.74505805969E-08  0.10566000000E+00  0.10566000000E+00 0. -1.
     999900   -1    0    0    0    0 -0.00000000000E+00 -0.00000000000E+00 -0.74505805969E-08  0.93827000000E+00  0.93827000000E+00 0.  1.
     999902    2    1    2    0    0 -0.14566861156E-01  0.18496858670E-01  0.32995310011E-02  0.10201557675E+01  0.10198787065E+01 0.  0.
     999903    2    3    3    0    0  0.15912811879E-01 -0.10871365725E+00  0.63705929510E-01  0.12843806623E+00  0.19131506706E-01 0.  0.
         14    1    1    2    0    0  0.14566861156E-01 -0.18496858670E-01 -0.32995310011E-02  0.23774232468E-01  0.00000000000E+00 0.  1.
     999901    1    3    3    0    0 -0.30479673035E-01  0.12721051592E+00 -0.60406398509E-01  0.89171770130E+00  0.88000000000E+00 0.  1.
        -11    1    4    4    0    0  0.59032560956E-02 -0.65940593387E-01  0.28241149508E-01  0.71978010082E-01  0.51100000000E-03 0. -1.
         11    1    4    4    0    0  0.10009555783E-01 -0.42773063861E-01  0.35464780003E-01  0.56460056152E-01  0.51100000000E-03 0.  1.
</event>
<event>
 8    1  0.1083484E+005  0.1043930E+01  0.7957747E-01            NaN
         13   -1    0    0    0    0  0.00000000000E+00  0.00000000000E+00  0.74505805969E-08  0.10566000000E+00  0.10566000000E+00 0. -1.
     999900   -1    0    0    0    0 -0.00000000000E+00 -0.00000000000E+00 -0.74505805969E-08  0.93827000000E+00  0.93827000000E+00 0.  1.
     999902    2    1    2    0    0  0.21948161023E-01  0.88334563013E-02 -0.12005763212E-02  0.10202404853E+01  0.10199654184E+01 0.  0.
     999903    2    3    3    0    0 -0.72291556553E-01 -0.95467325341E-01  0.40735495429E-01  0.12809788935E+00  0.20238807067E-01 0.  0.
         14    1    1    2    0    0 -0.21948161023E-01 -0.88334563013E-02  0.12005763212E-02  0.23689514685E-01  0.00000000000E+00 0. -1.
     999901    1    3    3    0    0  0.94239717576E-01  0.10430078164E+00 -0.41936071750E-01  0.89214259596E+00  0.88000000000E+00 0.  1.
        -11    1    4    4    0    0 -0.12883850668E-01 -0.32045607688E-01  0.11087693312E-01  0.36278266829E-01  0.51100000000E-03 0. -1.
         11    1    4    4    0    0 -0.59407705885E-01 -0.63421717653E-01  0.29647802118E-01  0.91819622521E-01  0.51100000000E-03 0.  1.
</event>
<event>
 8    1  0.1083484E+005  0.1043930E+01  0.7957747E-01            NaN
         13   -1    0    0    0    0  0.00000000000E+00  0.00000000000E+00  0.74505805969E-08  0.10566000000E+00  0.10566000000E+00 0.  1.
     999900   -1    0    0    0    0 -0.00000000000E+00 -0.00000000000E+00 -0.74505805969E-08  0.93827000000E+00  0.93827000000E+00 0.  1.
     999902    2    1    2    0    0  0.76124926395E-02 -0.21550730262E-01  0.62347147680E-02  0.10202391645E+01  0.10199640666E+01 0.  0.
     999903    2    3    3    0    0 -0.72043813228E-01  0.44597425407E-01 -0.94471403339E-01  0.12846428943E+00  0.19974639727E-01 0.  0.
         14    1    1    2    0    0 -0.76124926395E-02  0.21550730262E-01 -0.62347147680E-02  0.23690835512E-01  0.00000000000E+00 0.  1.
     999901    1    3    3    0    0  0.79656305868E-01 -0.66148155669E-01  0.10070611811E+00  0.89177487506E+00  0.88000000000E+00 0. -1.
        -11    1    4    4    0    0 -0.15203863439E-01  0.78621046070E-02 -0.32322917374E-01  0.36578713221E-01  0.51100000000E-03 0. -1.
         11    1    4    4    0    0 -0.56839949790E-01  0.36735320800E-01 -0.62148485965E-01  0.91885576208E-01  0.51100000000E-03 0.  1.
</event>
<event>
 8    1  0.1083484E+005  0.1043930E+01  0.7957747E-01            NaN
         13   -1    0    0    0    0  0.00000000000E+00  0.00000000000E+00  0.74505805969E-08  0.10566000000E+00  0.10566000000E+00 0.  1.
     999900   -1    0    0    0    0 -0.00000000000E+00 -0.00000000000E+00 -0.74505805969E-08  0.93827000000E+00  0.93827000000E+00 0. -1.
     999902    2    1    2    0    0 -0.93668554242E-02  0.17110032626E-01  0.13290940528E-01  0.10203261805E+01  0.10200531232E+01 0.  0.
     999903    2    3    3    0    0  0.39991682954E-01  0.84491530393E-01 -0.88680835161E-01  0.13050891012E+00  0.20739616237E-01 0.  0.
         14    1    1    2    0    0  0.93668554242E-02 -0.17110032626E-01 -0.13290940528E-01  0.23603819546E-01  0.00000000000E+00 0. -1.
     999901    1    3    3    0    0 -0.49358538378E-01 -0.67381497766E-01  0.10197177569E+00  0.88981727034E+00  0.88000000000E+00 0.  1.
        -11    1    4    4    0    0  0.39253920552E-01  0.62948585717E-01 -0.69133830501E-01  0.10140583003E+00  0.51100000000E-03 0.  1.
         11    1    4    4    0    0  0.73776240226E-03  0.21542944676E-01 -0.19547004660E-01  0.29103080092E-01  0.51100000000E-03 0. -1.
</event>
<event>
 8    1  0.1083484E+005  0.1043930E+01  0.7957747E-01            NaN
         13   -1    0    0    0    0  0.00000000000E+00  0.00000000000E+00  0.74505805969E-08  0.10566000000E+00  0.10566000000E+00 0. -1.
     999900   -1    0    0    0    0 -0.00000000000E+00 -0.00000000000E+00 -0.74505805969E-08  0.93827000000E+00  0.93827000000E+00 0.  1.
     999902    2    1    2    0    0 -0.82808513673E-02 -0.20435886782E-01  0.90257207688E-02  0.10201043499E+01  0.10198260749E+01 0.  0.
     999903    2    3    3    0    0  0.33492037654E-01 -0.88140676790E-01 -0.88746798925E-01  0.13112269740E+00  0.20656039383E-01 0.  0.
         14    1    1    2    0    0  0.82808513673E-02  0.20435886782E-01 -0.90257207688E-02  0.23825650114E-01  0.00000000000E+00 0.  1.
     999901    1    3    3    0    0 -0.41772889022E-01  0.67704790008E-01  0.97772519694E-01  0.88898165248E+00  0.88000000000E+00 0. -1.
        -11    1    4    4    0    0  0.24883912800E-01 -0.46459022749E-01 -0.38494402012E-01  0.65266607222E-01  0.51100000000E-03 0. -1.
         11    1    4    4    0    0  0.86081248542E-02 -0.41681654042E-01 -0.50252396914E-01  0.65856090180E-01  0.51100000000E-03 0.  1.
</event>
<event>
 8    1  0.1083484E+005  0.1043930E+01  0.7957747E-01            NaN
         13   -1    0    0    0    0  0.00000000000E+00  0.00000000000E+00  0.74505805969E-08  0.10566000000E+00  0.10566000000E+00 0.  1.
     999900   -1    0    0    0    0 -0.00000000000E+00 -0.00000000000E+00 -0.74505805969E-08  0.93827000000E+00  0.93827000000E+00 0.  1.
     999902    2    1    2    0    0 -0.16792814174E-02  0.10727968339E-01 -0.19549371360E-01  0.10215673702E+01  0.10213225762E+01 0.  0.
     999903    2    3    3    0    0 -0.10691021738E+00 -0.11275510036E-01  0.70973014689E-01  0.13041530388E+00  0.20348242270E-01 0.  0.
         14    1    1    2    0    0  0.16792814174E-02 -0.10727968339E-01  0.19549371360E-01  0.22362629795E-01  0.00000000000E+00 0.  1.
     999901    1    3    3    0    0  0.10523093597E+00  0.22003478375E-01 -0.90522386050E-01  0.89115206633E+00  0.88000000000E+00 0.  1.
        -11    1    4    4    0    0 -0.10587958258E+00 -0.10876709598E-01  0.65875499221E-01  0.12517440368E+00  0.51100000000E-03 0.  1.
         11    1    4    4    0    0 -0.10306348049E-02 -0.39880043838E-03  0.50975154679E-02  0.52409001933E-02  0.51100000000E-03 0. -1.
</event>
<event>
 8    1  0.1083484E+005  0.1043930E+01  0.7957747E-01            NaN
         13   -1    0    0    0    0  0.00000000000E+00  0.00000000000E+00  0.74505805969E-08  0.10566000000E+00  0.10566000000E+00 0. -1.
     999900   -1    0    0    0    0 -0.00000000000E+00 -0.00000000000E+00 -0.74505805969E-08  0.93827000000E+00  0.93827000000E+00 0.  1.
     999902    2    1    2    0    0  0.10148723586E-01 -0.20941656394E-01 -0.54711601328E-02  0.10200242861E+01  0.10197441155E+01 0.  0.
     999903    2    3    3    0    0 -0.57940726220E-01  0.10440811819E+00  0.39909789240E-01  0.12738316577E+00  0.19377738432E-01 0.  0.
         14    1    1    2    0    0 -0.10148723586E-01  0.20941656394E-01  0.54711601328E-02  0.23905713881E-01  0.00000000000E+00 0. -1.
     999901    1    3    3    0    0  0.68089449805E-01 -0.12534977458E+00 -0.45380949373E-01  0.89264112034E+00  0.88000000000E+00 0.  1.
        -11    1    4    4    0    0 -0.16087427457E-01  0.36215787973E-01  0.45052407387E-02  0.39886676169E-01  0.51100000000E-03 0. -1.
         11    1    4    4    0    0 -0.41853298763E-01  0.68192330217E-01  0.35404548502E-01  0.87496489606E-01  0.51100000000E-03 0.  1.
</event>
<event>
 8    1  0.1083484E+005  0.1043930E+01  0.7957747E-01            NaN
         13   -1    0    0    0    0  0.00000000000E+00  0.00000000000E+00  0.74505805969E-08  0.10566000000E+00  0.10566000000E+00 0. -1.
     999900   -1    0    0    0    0 -0.00000000000E+00 -0.00000000000E+00 -0.74505805969E-08  0.93827000000E+00  0.93827000000E+00 0. -1.
     999902    2    1    2    0    0 -0.15883807543E-01  0.81168269473E-02  0.18616833757E-01  0.10181469684E+01  0.10178204579E+01 0.  0.
     999903    2    3    3    0    0  0.64773467667E-01 -0.10028602767E+00  0.40270385855E-01  0.12757094619E+00  0.19993820948E-01 0.  0.
         14    1    1    2    0    0  0.15883807543E-01 -0.81168269473E-02 -0.18616833757E-01  0.25783031647E-01  0.00000000000E+00 0.  1.
     999901    1    3    3    0    0 -0.80657275210E-01  0.10840285461E+00 -0.21653552097E-01  0.89057602216E+00  0.88000000000E+00 0. -1.
        -11    1    4    4    0    0  0.46094248484E-01 -0.69873711940E-01  0.18395293840E-01  0.85706845235E-01  0.51100000000E-03 0. -1.
         11    1    4    4    0    0  0.18679219184E-01 -0.30412315727E-01  0.21875092015E-01  0.41864100956E-01  0.51100000000E-03 0.  1.
</event>
<event>
 8    1  0.1083484E+005  0.1043930E+01  0.7957747E-01            NaN
         13   -1    0    0    0    0  0.00000000000E+00  0.00000000000E+00  0.74505805969E-08  0.10566000000E+00  0.10566000000E+00 0.  1.
     999900   -1    0    0    0    0 -0.00000000000E+00 -0.00000000000E+00 -0.74505805969E-08  0.93827000000E+00  0.93827000000E+00 0.  1.
     999902    2    1    2    0    0  0.71419425440E-02  0.21026201279E-01  0.94183108550E-02  0.10198091985E+01  0.10195239028E+01 0.  0.
     999903    2    3    3    0    0 -0.75858148949E-01 -0.31034438151E-01  0.98903523651E-01  0.12986148734E+00  0.19091982360E-01 0.  0.
         14    1    1    2    0    0 -0.71419425440E-02 -0.21026201279E-01 -0.94183108550E-02  0.24120801457E-01  0.00000000000E+00 0. -1.
     999901    1    3    3    0    0  0.83000091493E-01  0.52060639430E-01 -0.89485212796E-01  0.88994771120E+00  0.88000000000E+00 0.  1.
        -11    1    4    4    0    0 -0.30169057771E-01 -0.16648717819E-01  0.28570171612E-01  0.44764580627E-01  0.51100000000E-03 0. -1.
         11    1    4    4    0    0 -0.45689091178E-01 -0.14385720332E-01  0.70333352039E-01  0.85096906713E-01  0.51100000000E-03 0.  1.
</event>
<event>
 8    1  0.1083484E+005  0.1043930E+01  0.7957747E-01            NaN
         13   -1    0    0    0    0  0.00000000000E+00  0.00000000000E+00  0.74505805969E-08  0.10566000000E+00  0.10566000000E+00 0. -1.
     999900   -1    0    0    0    0 -0.00000000000E+00 -0.00000000000E+00 -0.74505805969E-08  0.93827000000E+00  0.93827000000E+00 0. -1.
     999902    2    1    2    0    0 -0.17337272911E-01 -0.68485285996E-02 -0.16542271699E-01  0.10190075176E+01  0.10187026999E+01 0.  0.
     999903    2    3    3    0    0 -0.11819570367E+00 -0.54783557222E-01  0.17787350266E-02  0.13176130075E+00  0.19657415112E-01 0.  0.
         14    1    1    2    0    0  0.17337272911E-01  0.68485285996E-02  0.16542271699E-01  0.24922482399E-01  0.00000000000E+00 0. -1.
     999901    1    3    3    0    0  0.10085843076E+00  0.47935028623E-01 -0.18321006725E-01  0.88724621685E+00  0.88000000000E+00 0.  1.
        -11    1    4    4    0    0 -0.93024648245E-01 -0.34821625378E-01 -0.24145470274E-02  0.99359055619E-01  0.51100000000E-03 0.  1.
         11    1    4    4    0    0 -0.25171055429E-01 -0.19961931844E-01  0.41932820539E-02  0.32402245134E-01  0.51100000000E-03 0. -1.
</event>
<event>
 8    1  0.1083484E+005  0.1043930E+01  0.7957747E-01            NaN
         13   -1    0    0    0    0  0.00000000000E+00  0.00000000000E+00  0.74505805969E-08  0.10566000000E+00  0.10566000000E+00 0. -1.
     999900   -1    0    0    0    0 -0.00000000000E+00 -0.00000000000E+00 -0.74505805969E-08  0.93827000000E+00  0.93827000000E+00 0. -1.
     999902    2    1    2    0    0  0.54599449358E-02  0.15850968221E-01 -0.16637113560E-01  0.10203109877E+01  0.10200375748E+01 0.  0.
     999903    2    3    3    0    0  0.55837525967E-01 -0.74824106045E-01  0.85300869579E-01  0.12837420626E+00  0.22073113286E-01 0.  0.
         14    1    1    2    0    0 -0.54599449358E-02 -0.15850968221E-01  0.16637113560E-01  0.23619012254E-01  0.00000000000E+00 0. -1.
     999901    1    3    3    0    0 -0.50377581032E-01  0.90675074266E-01 -0.10193798314E+00  0.89193678149E+00  0.88000000000E+00 0.  1.
        -11    1    4    4    0    0  0.37558420346E-01 -0.36128247541E-01  0.56040644608E-01  0.76529080606E-01  0.51100000000E-03 0. -1.
         11    1    4    4    0    0  0.18279105621E-01 -0.38695858504E-01  0.29260224971E-01  0.51845125653E-01  0.51100000000E-03 0.  1.
</event>
<event>
 8    1  0.1083484E+005  0.1043930E+01  0.7957747E-01            NaN
         13   -1    0    0    0    0  0.00000000000E+00  0.00000000000E+00  0.74505805969E-08  0.10566000000E+00  0.10566000000E+00 0.  1.
     999900   -1    0    0    0    0 -0.00000000000E+00 -0.00000000000E+00 -0.74505805969E-08  0.93827000000E+00  0.93827000000E+00 0.  1.
     999902    2    1    2    0    0  0.11344540196E-01  0.71283921194E-02  0.19361652944E-01  0.10203845934E+01  0.10201129017E+01 0.  0.
     999903    2    3    3    0    0 -0.28294614774E-01 -0.11239328308E+00 -0.52611205804E-01  0.12851196470E+00  0.17735579791E-01 0.  0.
         14    1    1    2    0    0 -0.11344540196E-01 -0.71283921194E-02 -0.19361652944E-01  0.23545406584E-01  0.00000000000E+00 0. -1.
     999901    1    3    3    0    0  0.39639154970E-01  0.11952167519E+00  0.71972858748E-01  0.89187262871E+00  0.88000000000E+00 0. -1.
        -11    1    4    4    0    0 -0.11595821471E-01 -0.74265892687E-01 -0.28383801889E-01  0.80347913618E-01  0.51100000000E-03 0.  1.
         11    1    4    4    0    0 -0.16698793303E-01 -0.38127390389E-01 -0.24227403915E-01  0.48164051087E-01  0.51100000000E-03 0. -1.
</event>
<event>
 8    1  0.1083484E+005  0.1043930E+01  0.7957747E-01            NaN
         13   -1    0    0    0    0  0.00000000000E+00  0.00000000000E+00  0.74505805969E-08  0.10566000000E+00  0.10566000000E+00 0. -1.
     999900   -1    0    0    0    0 -0.00000000000E+00 -0.00000000000E+00 -0.74505805969E-08  0.93827000000E+00  0.93827000000E+00 0.  1.
     999902    2    1    2    0    0 -0.14914924687E-01  0.41143131112E-02 -0.18213425561E-01  0.10200320624E+01  0.10197520762E+01 0.  0.
     999903    2    3    3    0    0 -0.24306667508E-01  0.55948540073E-01 -0.11546442235E+00  0.13310887052E+00  0.25785371096E-01 0.  0.
         14    1    1    2    0    0  0.14914924687E-01 -0.41143131112E-02  0.18213425561E-01  0.23897937598E-01  0.00000000000E+00 0. -1.
     999901    1    3    3    0    0  0.93917428207E-02 -0.51834226962E-01  0.97250996784E-01  0.88692319188E+00  0.88000000000E+00 0.  1.
        -11    1    4    4    0    0 -0.11688146512E-01  0.20134116319E-01 -0.70538739635E-01  0.74283041935E-01  0.51100000000E-03 0.  1.
         11    1    4    4    0    0 -0.12618520996E-01  0.35814423755E-01 -0.44925682710E-01  0.58825828587E-01  0.51100000000E-03 0. -1.
</event>
<event>
 8    1  0.1083484E+005  0.1043930E+01  0.7957747E-01            NaN
         13   -1    0    0    0    0  0.00000000000E+00  0.00000000000E+00  0.74505805969E-08  0.10566000000E+00  0.10566000000E+00 0. -1.
     999900   -1    0    0    0    0 -0.00000000000E+00 -0.00000000000E+00 -0.74505805969E-08  0.93827000000E+00  0.93827000000E+00 0.  1.
     999902    2    1    2    0    0 -0.75479472483E-02 -0.81609979695E-02  0.20884824600E-01  0.10202709786E+01  0.10199966277E+01 0.  0.
     999903    2    3    3    0    0 -0.99149713851E-01  0.68206513246E-01  0.49918203447E-01  0.13175208881E+00  0.19595705234E-01 0.  0.
         14    1    1    2    0    0  0.75479472483E-02  0.81609979695E-02 -0.20884824600E-01  0.23659021411E-01  0.00000000000E+00 0.  1.
     999901    1    3    3    0    0  0.91601766602E-01 -0.76367511216E-01 -0.29033378847E-01  0.88851888978E+00  0.88000000000E+00 0.  1.
        -11    1    4    4    0    0 -0.49970897875E-01  0.45088266668E-01  0.23186766098E-01  0.71189392950E-01  0.51100000000E-03 0.  1.
         11    1    4    4    0    0 -0.49178815976E-01  0.23118246578E-01  0.26731437349E-01  0.60562695856E-01  0.51100000000E-03 0. -1.
</event>
<event>
 8    1  0.1083484E+005  0.1043930E+01  0.7957747E-01            NaN
         13   -1    0    0    0    0  0.00000000000E+00  0.00000000000E+00  0.74505805969E-08  0.10566000000E+00  0.10566000000E+00 0. -1.
     999900   -1    0    0    0    0 -0.00000000000E+00 -0.00000000000E+00 -0.74505805969E-08  0.93827000000E+00  0.93827000000E+00 0. -1.
     999902    2    1    2    0    0  0.17798968157E-01  0.13978763208E-01  0.48657417768E-02  0.10207808201E+01  0.10205182988E+01 0.  0.
     999903    2    3    3    0    0  0.23804437161E-01 -0.42386685852E-01  0.12056701455E+00  0.13139906063E+00  0.19131799995E-01 0.  0.
         14    1    1    2    0    0 -0.17798968157E-01 -0.13978763208E-01 -0.48657417768E-02  0.23149179928E-01  0.00000000000E+00 0.  1.
     999901    1    3    3    0    0 -0.60054690044E-02  0.56365449061E-01 -0.11570127277E+00  0.88938175944E+00  0.88000000000E+00 0. -1.
        -11    1    4    4    0    0  0.24182714635E-01 -0.25235800115E-01  0.76508133940E-01  0.84115426496E-01  0.51100000000E-03 0.  1.
         11    1    4    4    0    0 -0.37827747375E-03 -0.17150885738E-01  0.44058880610E-01  0.47283634135E-01  0.51100000000E-03 0. -1.
</event>
<event>
 8    1  0.1083484E+005  0.1043930E+01  0.7957747E-01            NaN
         13   -1    0    0    0    0  0.00000000000E+00  0.00000000000E+00  0.74505805969E-08  0.10566000000E+00  0.10566000000E+00 0.  1.
     999900   -1    0    0    0    0 -0.00000000000E+00 -0.00000000000E+00 -0.74505805969E-08  0.93827000000E+00  0.93827000000E+00 0. -1.
     999902    2    1    2    0    0  0.19205144167E-01  0.48977453676E-02  0.53838191600E-02  0.10233919626E+01  0.10231858571E+01 0.  0.
     999903    2    3    3    0    0  0.12379601541E+00 -0.47446799077E-02  0.51795120472E-01  0.13593140819E+00  0.21134043866E-01 0.  0.
         14    1    1    2    0    0 -0.19205144167E-01 -0.48977453676E-02 -0.53838191600E-02  0.20538037416E-01  0.00000000000E+00 0. -1.
     999901    1    3    3    0    0 -0.10459087124E+00  0.96424252753E-02 -0.46411301312E-01  0.88746055439E+00  0.88000000000E+00 0. -1.
        -11    1    4    4    0    0  0.68639036793E-01  0.64044148992E-02  0.22700313795E-01  0.72580295325E-01  0.51100000000E-03 0.  1.
         11    1    4    4    0    0  0.55156978615E-01 -0.11149094807E-01  0.29094806678E-01  0.63351112868E-01  0.51100000000E-03 0. -1.
</event>
<event>
 8    1  0.1083484E+005  0.1043930E+01  0.7957747E-01            NaN
         13   -1    0    0    0    0  0.00000000000E+00  0.00000000000E+00  0.74505805969E-08  0.10566000000E+00  0.10566000000E+00 0. -1.
     999900   -1    0    0    0    0 -0.00000000000E+00 -0.00000000000E+00 -0.74505805969E-08  0.93827000000E+00  0.93827000000E+00 0.  1.
     999902    2    1    2    0    0  0.41831142006E-02 -0.14711896079E-01 -0.17134303508E-01  0.10209621379E+01  0.10207037594E+01 0.  0.
     999903    2    3    3    0    0  0.93664005004E-01  0.76314928440E-01 -0.47119213477E-01  0.13124768520E+00  0.20219308968E-01 0.  0.
         14    1    1    2    0    0 -0.41831142006E-02  0.14711896079E-01  0.17134303508E-01  0.22967862055E-01  0.00000000000E+00 0. -1.
     999901    1    3    3    0    0 -0.89480890803E-01 -0.91026824519E-01  0.29984909969E-01  0.88971445275E+00  0.88000000000E+00 0. -1.
        -11    1    4    4    0    0  0.90634986391E-01  0.77321754659E-01 -0.44855810703E-01  0.12730145080E+00  0.51100000000E-03 0. -1.
         11    1    4    4    0    0  0.30290186129E-02 -0.10068262189E-02 -0.22634027736E-02  0.39462343960E-02  0.51100000000E-03 0.  1.
</event>
<event>
 8    1  0.1083484E+005  0.1043930E+01  0.7957747E-01            NaN
         13   -1    0    0    0    0  0.00000000000E+00  0.00000000000E+00  0.74505805969E-08  0.10566000000E+00  0.10566000000E+00 0.  1.
     999900   -1    0    0    0    0 -0.00000000000E+00 -0.00000000000E+00 -0.74505805969E-08  0.93827000000E+00  0.93827000000E+00 0. -1.
     999902    2    1    2    0    0 -0.95044246672E-02 -0.20622487505E-01  0.83145263336E-02  0.10197483452E+01  0.10194615908E+01 0.  0.
     999903    2    3    3    0    0 -0.65240039972E-01  0.10838753558E+00 -0.97874730034E-02  0.12841354436E+00  0.19751533159E-01 0.  0.
         14    1    1    2    0    0  0.95044246672E-02  0.20622487505E-01 -0.83145263336E-02  0.24181654767E-01  0.00000000000E+00 0.  1.
     999901    1    3    3    0    0  0.55735615305E-01 -0.12901002308E+00  0.18101999337E-01  0.89133480087E+00  0.88000000000E+00 0.  1.
        -11    1    4    4    0    0 -0.20170416947E-01  0.26530379296E-01  0.53240302748E-02  0.33753713348E-01  0.51100000000E-03 0. -1.
         11    1    4    4    0    0 -0.45069623025E-01  0.81857156284E-01 -0.15111503278E-01  0.94659831010E-01  0.51100000000E-03 0.  1.
</event>
<event>
 8    1  0.1083484E+005  0.1043930E+01  0.7957747E-01            NaN
         13   -1    0    0    0    0  0.00000000000E+00  0.00000000000E+00  0.74505805969E-08  0.10566000000E+00  0.10566000000E+00 0.  1.
     999900   -1    0    0    0    0 -0.00000000000E+00 -0.00000000000E+00 -0.74505805969E-08  0.93827000000E+00  0.93827000000E+00 0.  1.
     999902    2    1    2    0    0  0.24765025120E-01  0.15634791648E-01 -0.65163591087E-02  0.10139263983E+01  0.10134823753E+01 0.  0.
     999903    2    3    3    0    0 -0.10452135992E+00  0.61399410131E-01 -0.12332833276E-01  0.12328438209E+00  0.18770664540E-01 0.  0.
         14    1    1    2    0    0 -0.24765025120E-01 -0.15634791648E-01  0.65163591087E-02  0.30003601702E-01  0.00000000000E+00 0.  1.
     999901    1    3    3    0    0  0.12928638504E+00 -0.45764618483E-01  0.58164741671E-02  0.89064201621E+00  0.88000000000E+00 0. -1.
        -11    1    4    4    0    0 -0.53823396433E-01  0.21917820654E-01 -0.16361340143E-02  0.58140234961E-01  0.51100000000E-03 0. -1.
         11    1    4    4    0    0 -0.50697963486E-01  0.39481589476E-01 -0.10696699262E-01  0.65144147130E-01  0.51100000000E-03 0.  1.
</event>
<event>
 8    1  0.1083484E+005  0.1043930E+01  0.7957747E-01            NaN
         13   -1    0    0    0    0  0.00000000000E+00  0.00000000000E+00  0.74505805969E-08  0.10566000000E+00  0.10566000000E+00 0. -1.
     999900   -1    0    0    0    0 -0.00000000000E+00 -0.00000000000E+00 -0.74505805969E-08  0.93827000000E+00  0.93827000000E+00 0. -1.
     999902    2    1    2    0    0  0.19603160546E-01 -0.11655880256E-01 -0.78401542324E-02  0.10198133778E+01  0.10195281821E+01 0.  0.
     999903    2    3    3    0    0 -0.78048588769E-01 -0.54496024843E-01  0.84204403499E-01  0.12861006613E+00  0.19717216022E-01 0.  0.
         14    1    1    2    0    0 -0.19603160546E-01  0.11655880256E-01  0.78401542324E-02  0.24116622199E-01  0.00000000000E+00 0. -1.
     999901    1    3    3    0    0  0.97651749315E-01  0.42840144587E-01 -0.92044557732E-01  0.89120331168E+00  0.88000000000E+00 0. -1.
        -11    1    4    4    0    0 -0.32356472553E-01 -0.34578851513E-01  0.41721158155E-01  0.63115405780E-01  0.51100000000E-03 0.  1.
         11    1    4    4    0    0 -0.45692116216E-01 -0.19917173330E-01  0.42483245345E-01  0.65494660345E-01  0.51100000000E-03 0. -1.
</event>
<event>
 8    1  0.1083484E+005  0.1043930E+01  0.7957747E-01            NaN
         13   -1    0    0    0    0  0.00000000000E+00  0.00000000000E+00  0.74505805969E-08  0.10566000000E+00  0.10566000000E+00 0. -1.
     999900   -1    0    0    0    0 -0.00000000000E+00 -0.00000000000E+00 -0.74505805969E-08  0.93827000000E+00  0.93827000000E+00 0. -1.
     999902    2    1    2    0    0  0.20873672904E-01  0.12215429409E-01  0.13491462057E-01  0.10162362013E+01  0.10158587847E+01 0.  0.
     999903    2    3    3    0    0 -0.72426834224E-01  0.11394010785E-01  0.10119028351E+00  0.12696866980E+00  0.22496662760E-01 0.  0.
         14    1    1    2    0    0 -0.20873672904E-01 -0.12215429409E-01 -0.13491462057E-01  0.27693798667E-01  0.00000000000E+00 0.  1.
     999901    1    3    3    0    0  0.93300507128E-01  0.82141862483E-03 -0.87698821456E-01  0.88926753154E+00  0.88000000000E+00 0.  1.
        -11    1    4    4    0    0 -0.38872153183E-01  0.12134148584E-01  0.39483009357E-01  0.56722579312E-01  0.51100000000E-03 0. -1.
         11    1    4    4    0    0 -0.33554681040E-01 -0.74013779960E-03  0.61707274156E-01  0.70246090485E-01  0.51100000000E-03 0.  1.
</event>
<event>
 8    1  0.1083484E+005  0.1043930E+01  0.7957747E-01            NaN
         13   -1    0    0    0    0  0.00000000000E+00  0.00000000000E+00  0.74505805969E-08  0.10566000000E+00  0.10566000000E+00 0. -1.
     999900   -1    0    0    0    0 -0.00000000000E+00 -0.00000000000E+00 -0.74505805969E-08  0.93827000000E+00  0.93827000000E+00 0.  1.
     999902    2    1    2    0    0 -0.12343919698E-02  0.19118756357E-01 -0.15434587332E-01  0.10193276210E+01  0.10190306776E+01 0.  0.
     999903    2    3    3    0    0 -0.11699595214E+00 -0.38230388344E-01  0.31365679309E-01  0.12866498665E+00  0.20524559426E-01 0.  0.
         14    1    1    2    0    0  0.12343919698E-02 -0.19118756357E-01  0.15434587332E-01  0.24602379037E-01  0.00000000000E+00 0. -1.
     999901    1    3    3    0    0  0.11576156017E+00  0.57349144701E-01 -0.46800266641E-01  0.89066263432E+00  0.88000000000E+00 0.  1.
        -11    1    4    4    0    0 -0.62271964060E-01 -0.19720032659E-01  0.60878711326E-02  0.65604881616E-01  0.51100000000E-03 0. -1.
         11    1    4    4    0    0 -0.54723988081E-01 -0.18510355685E-01  0.25277808177E-01  0.63060105029E-01  0.51100000000E-03 0.  1.
</event>
<event>
 8    1  0.1083484E+005  0.1043930E+01  0.7957747E-01            NaN
         13   -1    0    0    0    0  0.00000000000E+00  0.00000000000E+00  0.74505805969E-08  0.10566000000E+00  0.10566000000E+00 0. -1.
     999900   -1    0    0    0    0 -0.00000000000E+00 -0.00000000000E+00 -0.74505805969E-08  0.93827000000E+00  0.93827000000E+00 0.  1.
     999902    2    1    2    0    0 -0.83429471893E-02  0.20125588676E-01  0.59479602655E-02  0.10213463263E+01  0.10210966144E+01 0.  0.
     999903    2    3    3    0    0  0.29010593771E-01  0.12456085589E+00 -0.33353530005E-01  0.13351378622E+00  0.18879930495E-01 0.  0.
         14    1    1    2    0    0  0.83429471893E-02 -0.20125588676E-01 -0.59479602655E-02  0.22583673720E-01  0.00000000000E+00 0. -1.
     999901    1    3    3    0    0 -0.37353540960E-01 -0.10443526721E+00  0.39301490271E-01  0.88783254006E+00  0.88000000000E+00 0. -1.
        -11    1    4    4    0    0  0.34549737816E-02  0.71997847320E-02  0.21096152096E-02  0.82755870699E-02  0.51100000000E-03 0. -1.
         11    1    4    4    0    0  0.25555619990E-01  0.11736107116E+00 -0.35463145215E-01  0.12523819915E+00  0.51100000000E-03 0.  1.
</event>
<event>
 8    1  0.1083484E+005  0.1043930E+01  0.7957747E-01            NaN
         13   -1    0    0    0    0  0.00000000000E+00  0.00000000000E+00  0.74505805969E-08  0.10566000000E+00  0.10566000000E+00 0.  1.
     999900   -1    0    0    0    0 -0.00000000000E+00 -0.00000000000E+00 -0.74505805969E-08  0.93827000000E+00  0.93827000000E+00 0. -1.
     999902    2    1    2    0    0 -0.91157762062E-02 -0.19280575179E-02  0.21576398355E-01  0.10204277502E+01  0.10201570651E+01 0.  0.
     999903    2    3    3    0    0  0.48077071536E-01 -0.68367346546E-01 -0.95103177733E-01  0.12840794969E+00  0.21412338649E-01 0.  0.
         14    1    1    2    0    0  0.91157762062E-02  0.19280575179E-02 -0.21576398355E-01  0.23502249841E-01  0.00000000000E+00 0. -1.
     999901    1    3    3    0    0 -0.57192847742E-01  0.66439289028E-01  0.11667957609E+00  0.89201980047E+00  0.88000000000E+00 0.  1.
        -11    1    4    4    0    0  0.35087368358E-01 -0.58735951139E-01 -0.85816449214E-01  0.10975317513E+00  0.51100000000E-03 0. -1.
         11    1    4    4    0    0  0.12989703178E-01 -0.96313954071E-02 -0.92867285196E-02  0.18654774556E-01  0.51100000000E-03 0.  1.
</event>
<event>
 8    1  0.1083484E+005  0.1043930E+01  0.7957747E-01            NaN
         13   -1    0    0    0    0  0.00000000000E+00  0.00000000000E+00  0.74505805969E-08  0.10566000000E+00  0.10566000000E+00 0. -1.
     999900   -1    0    0    0    0 -0.00000000000E+00 -0.00000000000E+00 -0.74505805969E-08  0.93827000000E+00  0.93827000000E+00 0. -1.
     999902    2    1    2    0    0  0.99938807263E-02  0.14082215112E-01 -0.15069615766E-01  0.10210110176E+01  0.10207537501E+01 0.  0.
     999903    2    3    3    0    0  0.84806021653E-01 -0.81884663508E-01 -0.53950050303E-01  0.13178765624E+00  0.23668945531E-01 0.  0.
         14    1    1    2    0    0 -0.99938807263E-02 -0.14082215112E-01  0.15069615766E-01  0.22918982389E-01  0.00000000000E+00 0. -1.
     999901    1    3    3    0    0 -0.74812140927E-01  0.95966878619E-01  0.38880434537E-01  0.88922336137E+00  0.88000000000E+00 0.  1.
        -11    1    4    4    0    0  0.68998653831E-01 -0.61842721470E-01 -0.51829316622E-01  0.10616908972E+00  0.51100000000E-03 0. -1.
         11    1    4    4    0    0  0.15807367822E-01 -0.20041942037E-01 -0.21207336802E-02  0.25618566518E-01  0.51100000000E-03 0.  1.
</event>
<event>
 8    1  0.1083484E+005  0.1043930E+01  0.7957747E-01            NaN
         13   -1    0    0    0    0  0.00000000000E+00  0.00000000000E+00  0.74505805969E-08  0.10566000000E+00  0.10566000000E+00 0.  1.
     999900   -1    0    0    0    0 -0.00000000000E+00 -0.00000000000E+00 -0.74505805969E-08  0.93827000000E+00  0.93827000000E+00 0.  1.
     999902    2    1    2    0    0  0.16101696224E-01  0.57121522387E-02  0.16662382149E-01  0.10200652083E+01  0.10197860074E+01 0.  0.
     999903    2    3    3    0    0  0.76643512647E-01 -0.81972022548E-01 -0.62311456114E-01  0.13012661874E+00  0.21367705294E-01 0.  0.
         14    1    1    2    0    0 -0.16101696224E-01 -0.57121522387E-02 -0.16662382149E-01  0.23864791710E-01  0.00000000000E+00 0. -1.
     999901    1    3    3    0    0 -0.60541816423E-01  0.87684174787E-01  0.78973838263E-01  0.88993858955E+00  0.88000000000E+00 0. -1.
        -11    1    4    4    0    0  0.57826109910E-02 -0.41921754359E-02 -0.10840939721E-01  0.12992306177E-01  0.51100000000E-03 0.  1.
         11    1    4    4    0    0  0.70860901655E-01 -0.77779847113E-01 -0.51470516393E-01  0.11713431256E+00  0.51100000000E-03 0. -1.
</event>
<event>
 8    1  0.1083484E+005  0.1043930E+01  0.7957747E-01            NaN
         13   -1    0    0    0    0  0.00000000000E+00  0.00000000000E+00  0.74505805969E-08  0.10566000000E+00  0.10566000000E+00 0.  1.
     999900   -1    0    0    0    0 -0.00000000000E+00 -0.00000000000E+00 -0.74505805969E-08  0.93827000000E+00  0.93827000000E+00 0. -1.
     999902    2    1    2    0    0  0.41037309496E-02 -0.21755928712E-01  0.56165889519E-02  0.10210890912E+01  0.10208335933E+01 0.  0.
     999903    2    3    3    0    0 -0.45246806332E-01  0.17929441439E-01  0.12045733475E+00  0.13137070824E+00  0.19482174815E-01 0.  0.
         14    1    1    2    0    0 -0.41037309496E-02  0.21755928712E-01 -0.56165889519E-02  0.22840908767E-01  0.00000000000E+00 0. -1.
     999901    1    3    3    0    0  0.49350537282E-01 -0.39685370151E-01 -0.11484074580E+00  0.88971838299E+00  0.88000000000E+00 0. -1.
        -11    1    4    4    0    0 -0.41126345385E-01  0.17314908858E-01  0.88253557113E-01  0.98894559090E-01  0.51100000000E-03 0.  1.
         11    1    4    4    0    0 -0.41204609477E-02  0.61453258135E-03  0.32203777637E-01  0.32476149153E-01  0.51100000000E-03 0. -1.
</event>
<event>
 8    1  0.1083484E+005  0.1043930E+01  0.7957747E-01            NaN
         13   -1    0    0    0    0  0.00000000000E+00  0.00000000000E+00  0.74505805969E-08  0.10566000000E+00  0.10566000000E+00 0.  1.
     999900   -1    0    0    0    0 -0.00000000000E+00 -0.00000000000E+00 -0.74505805969E-08  0.93827000000E+00  0.93827000000E+00 0.  1.
     999902    2    1    2    0    0  0.22326505372E-01 -0.19110303236E-02 -0.90951357675E-02  0.10197464028E+01  0.10194596018E+01 0.  0.
     999903    2    3    3    0    0 -0.76739611967E-01 -0.78046340725E-01  0.63207970831E-01  0.12798498834E+00  0.20117413304E-01 0.  0.
         14    1    1    2    0    0 -0.22326505372E-01  0.19110303236E-02  0.90951357675E-02  0.24183597202E-01  0.00000000000E+00 0.  1.
     999901    1    3    3    0    0  0.99066117338E-01  0.76135310402E-01 -0.72303106599E-01  0.89176141446E+00  0.88000000000E+00 0.  1.
        -11    1    4    4    0    0 -0.49325549310E-01 -0.47036744326E-01  0.50011605398E-01  0.84539262636E-01  0.51100000000E-03 0.  1.
         11    1    4    4    0    0 -0.27414062657E-01 -0.31009596399E-01  0.13196365433E-01  0.43445725702E-01  0.51100000000E-03 0. -1.
</event>
<event>
 7    1  0.1083484E+005  0.1043930E+01  0.7957747E-01            NaN
         13   -1    0    0    0    0  0.00000000000E+00  0.00000000000E+00  0.74505805969E-08  0.10566000000E+00  0.10566000000E+00 0.  1.
     999900   -1    0    0    0    0 -0.00000000000E+00 -0.00000000000E+00 -0.74505805969E-08  0.93827000000E+00  0.93827000000E+00 0.  1.
     999902    2    1    2    0    0 -0.11584124489E-01 -0.24779242682E-02 -0.18319260624E-01  0.10221142406E+01  0.10218813989E+01 0.  0.
         14    1    1    2    0    0  0.11584124489E-01  0.24779242682E-02  0.18319260624E-01  0.21815759411E-01  0.00000000000E+00 0.  1.
     999901    1    3    3    0    0  0.11348994118E+00 -0.18874897191E-01  0.12581201062E-01  0.88757789242E+00  0.88000000000E+00 0. -1.
        -11    1    3    3    0    0 -0.79572843274E-01  0.23634776535E-01 -0.30566283572E-01  0.88459023627E-01  0.51100000000E-03 0. -1.
         11    1    3    3    0    0 -0.45501222399E-01 -0.72378036124E-02 -0.33417811306E-03  0.46077324542E-01  0.51100000000E-03 0.  1.
</event>
<event>
 8    1  0.1083484E+005  0.1043930E+01  0.7957747E-01            NaN
         13   -1    0    0    0    0  0.00000000000E+00  0.00000000000E+00  0.74505805969E-08  0.10566000000E+00  0.10566000000E+00 0.  1.
     999900   -1    0    0    0    0 -0.00000000000E+00 -0.00000000000E+00 -0.74505805969E-08  0.93827000000E+00  0.93827000000E+00 0. -1.
     999902    2    1    2    0    0 -0.38376972959E-02  0.64713600642E-02 -0.22836510835E-01  0.10198860268E+01  0.10196025672E+01 0.  0.
     999903    2    3    3    0    0 -0.51341141390E-01 -0.10373967435E+00  0.52056105692E-01  0.12858812297E+00  0.20669649137E-01 0.  0.
         14    1    1    2    0    0  0.38376972959E-02 -0.64713600642E-02  0.22836510835E-01  0.24043973231E-01  0.00000000000E+00 0.  1.
     999901    1    3    3    0    0  0.47503444095E-01  0.11021103441E+00 -0.74892616527E-01  0.89129790380E+00  0.88000000000E+00 0.  1.
        -11    1    4    4    0    0 -0.46009779414E-01 -0.74380166234E-01  0.34927444814E-01  0.94178004083E-01  0.51100000000E-03 0.  1.
         11    1    4    4    0    0 -0.53313619761E-02 -0.29359508116E-01  0.17128660877E-01  0.34410118886E-01  0.51100000000E-03 0. -1.
</event>
<event>
 8    1  0.1083484E+005  0.1043930E+01  0.7957747E-01            NaN
         13   -1    0    0    0    0  0.00000000000E+00  0.00000000000E+00  0.74505805969E-08  0.10566000000E+00  0.10566000000E+00 0.  1.
     999900   -1    0    0    0    0 -0.00000000000E+00 -0.00000000000E+00 -0.74505805969E-08  0.93827000000E+00  0.93827000000E+00 0.  1.
     999902    2    1    2    0    0 -0.37356831413E-03 -0.23680068050E-01 -0.12188964935E-02  0.10202156397E+01  0.10199399887E+01 0.  0.
     999903    2    3    3    0    0  0.79565685335E-01  0.93573823474E-01  0.31233380711E-01  0.12825605000E+00  0.19680741050E-01 0.  0.
         14    1    1    2    0    0  0.37356831413E-03  0.23680068050E-01  0.12188964935E-02  0.23714360307E-01  0.00000000000E+00 0. -1.
     999901    1    3    3    0    0 -0.79939253649E-01 -0.11725389152E+00 -0.32452277205E-01  0.89195958969E+00  0.88000000000E+00 0.  1.
        -11    1    4    4    0    0  0.45905686450E-01  0.43075284719E-01  0.88629079655E-02  0.63573771799E-01  0.51100000000E-03 0. -1.
         11    1    4    4    0    0  0.33659998884E-01  0.50498538755E-01  0.22370472746E-01  0.64682278200E-01  0.51100000000E-03 0.  1.
</event>
<event>
 8    1  0.1083484E+005  0.1043930E+01  0.7957747E-01            NaN
         13   -1    0    0    0    0  0.00000000000E+00  0.00000000000E+00  0.74505805969E-08  0.10566000000E+00  0.10566000000E+00 0.  1.
     999900   -1    0    0    0    0 -0.00000000000E+00 -0.00000000000E+00 -0.74505805969E-08  0.93827000000E+00  0.93827000000E+00 0.  1.
     999902    2    1    2    0    0  0.18000931341E-01  0.88317097118E-02  0.52074092262E-02  0.10232140705E+01  0.10230043423E+01 0.  0.
     999903    2    3    3    0    0 -0.83873142566E-01  0.10002621035E+00 -0.66129646362E-02  0.13257694732E+00  0.22202902037E-01 0.  0.
         14    1    1    2    0    0 -0.18000931341E-01 -0.88317097118E-02 -0.52074092262E-02  0.20715929533E-01  0.00000000000E+00 0. -1.
     999901    1    3    3    0    0  0.10187407391E+00 -0.91194500642E-01  0.11820373862E-01  0.89063712314E+00  0.88000000000E+00 0.  1.
        -11    1    4    4    0    0 -0.39649628637E-01  0.30716364632E-01 -0.39944693462E-02  0.50317044961E-01  0.51100000000E-03 0. -1.
         11    1    4    4    0    0 -0.44223513929E-01  0.69309845721E-01 -0.26184952900E-02  0.82259902363E-01  0.51100000000E-03 0.  1.
</event>
<event>
 8    1  0.1083484E+005  0.1043930E+01  0.7957747E-01            NaN
         13   -1    0    0    0    0  0.00000000000E+00  0.00000000000E+00  0.74505805969E-08  0.10566000000E+00  0.10566000000E+00 0. -1.
     999900   -1    0    0    0    0 -0.00000000000E+00 -0.00000000000E+00 -0.74505805969E-08  0.93827000000E+00  0.93827000000E+00 0.  1.
     999902    2    1    2    0    0  0.77634316692E-02 -0.19806598663E-01  0.76866598402E-02  0.10213101644E+01  0.10210596432E+01 0.  0.
     999903    2    3    3    0    0 -0.29024780643E-01  0.12336633006E+00  0.13548778694E-01  0.12896145203E+00  0.19641726546E-01 0.  0.
         14    1    1    2    0    0 -0.77634316692E-02  0.19806598663E-01 -0.76866598402E-02  0.22619835573E-01  0.00000000000E+00 0. -1.
     999901    1    3    3    0    0  0.36788212313E-01 -0.14317292872E+00 -0.58621188536E-02  0.89234871240E+00  0.88000000000E+00 0.  1.
        -11    1    4    4    0    0 -0.15213034145E-01  0.96491296152E-01  0.63234695011E-02  0.97888988290E-01  0.51100000000E-03 0. -1.
         11    1    4    4    0    0 -0.13811746498E-01  0.26875033905E-01  0.72253091927E-02  0.31072463737E-01  0.51100000000E-03 0.  1.
</event>
<event>
 8    1  0.1083484E+005  0.1043930E+01  0.7957747E-01            NaN
         13   -1    0    0    0    0  0.00000000000E+00  0.00000000000E+00  0.74505805969E-08  0.10566000000E+00  0.10566000000E+00 0.  1.
     999900   -1    0    0    0    0 -0.00000000000E+00 -0.00000000000E+00 -0.74505805969E-08  0.93827000000E+00  0.93827000000E+00 0. -1.
     999902    2    1    2    0    0 -0.13925337344E-01 -0.18030170685E-01  0.61204221505E-02  0.10203405608E+01  0.10200678401E+01 0.  0.
     999903    2    3    3    0    0  0.77653234687E-01  0.82571931192E-01 -0.55307064115E-01  0.12777081347E+00  0.20453868963E-01 0.  0.
         14    1    1    2    0    0  0.13925337344E-01  0.18030170685E-01 -0.61204221505E-02  0.23589439213E-01  0.00000000000E+00 0.  1.
     999901    1    3    3    0    0 -0.91578572031E-01 -0.10060210188E+00  0.61427486265E-01  0.89256974732E+00  0.88000000000E+00 0.  1.
        -11    1    4    4    0    0  0.22444929663E-01  0.14346349245E-01 -0.68227702416E-02  0.27502798384E-01  0.51100000000E-03 0. -1.
         11    1    4    4    0    0  0.55208305024E-01  0.68225581948E-01 -0.48484293873E-01  0.10026801509E+00  0.51100000000E-03 0.  1.
</event>
<event>
 8    1  0.1083484E+005  0.1043930E+01  0.7957747E-01            NaN
         13   -1    0    0    0    0  0.00000000000E+00  0.00000000000E+00  0.74505805969E-08  0.10566000000E+00  0.10566000000E+00 0.  1.
     999900   -1    0    0    0    0 -0.00000000000E+00 -0.00000000000E+00 -0.74505805969E-08  0.93827000000E+00  0.93827000000E+00 0.  1.
     999902    2    1    2    0    0  0.35528466425E-02 -0.93914904901E-02 -0.21468216332E-01  0.10202296387E+01  0.10199543169E+01 0.  0.
     999903    2    3    3    0    0 -0.65703905462E-01 -0.85489213830E-01 -0.74512918297E-01  0.13264803592E+00  0.20443032186E-01 0.  0.
         14    1    1    2    0    0 -0.35528466425E-02  0.93914904901E-02  0.21468216332E-01  0.23700361292E-01  0.00000000000E+00 0. -1.
     999901    1    3    3    0    0  0.69256752105E-01  0.76097723339E-01  0.53044701965E-01  0.88758160279E+00  0.88000000000E+00 0.  1.
        -11    1    4    4    0    0 -0.42604883127E-01 -0.66871720911E-01 -0.61012742008E-01  0.10004908262E+00  0.51100000000E-03 0. -1.
         11    1    4    4    0    0 -0.23099022335E-01 -0.18617492918E-01 -0.13500176288E-01  0.32598953300E-01  0.51100000000E-03 0.  1.
</event>
<event>
 8    1  0.1083484E+005  0.1043930E+01  0.7957747E-01            NaN
         13   -1    0    0    0    0  0.00000000000E+00  0.00000000000E+00  0.74505805969E-08  0.10566000000E+00  0.10566000000E+00 0.  1.
     999900   -1    0    0    0    0 -0.00000000000E+00 -0.00000000000E+00 -0.74505805969E-08  0.93827000000E+00  0.93827000000E+00 0.  1.
     999902    2    1    2    0    0 -0.11170382309E-01 -0.38859475508E-02 -0.17521855314E-01  0.10227901456E+01  0.10225716545E+01 0.  0.
     999903    2    3    3    0    0 -0.68526847358E-01 -0.99601247541E-01  0.51963644488E-01  0.13302645935E+00  0.19480277666E-01 0.  0.
         14    1    1    2    0    0  0.11170382309E-01  0.38859475508E-02  0.17521855314E-01  0.21139854374E-01  0.00000000000E+00 0.  1.
     999901    1    3    3    0    0  0.57356465049E-01  0.95715299990E-01 -0.69485499802E-01  0.88976368628E+00  0.88000000000E+00 0.  1.
        -11    1    4    4    0    0 -0.42840470443E-01 -0.71459295561E-01  0.43507195078E-01  0.93994010311E-01  0.51100000000E-03 0. -1.
         11    1    4    4    0    0 -0.25686376915E-01 -0.28141951980E-01  0.84564494099E-02  0.39032449038E-01  0.51100000000E-03 0.  1.
</event>
<event>
 8    1  0.1083484E+005  0.1043930E+01  0.7957747E-01            NaN
         13   -1    0    0    0    0  0.00000000000E+00  0.00000000000E+00  0.74505805969E-08  0.10566000000E+00  0.10566000000E+00 0.  1.
     999900   -1    0    0    0    0 -0.00000000000E+00 -0.00000000000E+00 -0.74505805969E-08  0.93827000000E+00  0.93827000000E+00 0. -1.
     999902    2    1    2    0    0  0.87608079098E-02  0.21640530932E-01 -0.33324394238E-02  0.10203467541E+01  0.10200741783E+01 0.  0.
     999903    2    3    3    0    0 -0.89140131736E-01  0.94762198697E-01  0.67169088214E-02  0.13184669126E+00  0.20312452943E-01 0.  0.
         14    1    1    2    0    0 -0.87608079098E-02 -0.21640530932E-01  0.33324394238E-02  0.23583245891E-01  0.00000000000E+00 0.  1.
     999901    1    3    3    0    0  0.97900939646E-01 -0.73121667765E-01 -0.10049348245E-01  0.88850006285E+00  0.88000000000E+00 0. -1.
        -11    1    4    4    0    0 -0.31862913058E-01  0.20817552957E-01  0.39836332798E-02  0.38272002754E-01  0.51100000000E-03 0.  1.
         11    1    4    4    0    0 -0.57277218678E-01  0.73944645740E-01  0.27332755415E-02  0.93574688508E-01  0.51100000000E-03 0. -1.
</event>
<event>
 8    1  0.1083484E+005  0.1043930E+01  0.7957747E-01            NaN
         13   -1    0    0    0    0  0.00000000000E+00  0.00000000000E+00  0.74505805969E-08  0.10566000000E+00  0.10566000000E+00 0. -1.
     999900   -1    0    0    0    0 -0.00000000000E+00 -0.00000000000E+00 -0.74505805969E-08  0.93827000000E+00  0.93827000000E+00 0. -1.
     999902    2    1    2    0    0 -0.13673284044E-02  0.24119159048E-01 -0.91480643027E-02  0.10180980334E+01  0.10177702663E+01 0.  0.
     999903    2    3    3    0    0  0.62925299120E-01 -0.77640626877E-01  0.74112661902E-01  0.12601006431E+00  0.19954684729E-01 0.  0.
         14    1    1    2    0    0  0.13673284044E-02 -0.24119159048E-01  0.91480643027E-02  0.25831966643E-01  0.00000000000E+00 0.  1.
     999901    1    3    3    0    0 -0.64292627524E-01  0.10175978593E+00 -0.83260726205E-01  0.89208796904E+00  0.88000000000E+00 0. -1.
        -11    1    4    4    0    0  0.98762780885E-02 -0.17768183995E-01  0.24662968308E-01  0.31965174145E-01  0.51100000000E-03 0.  1.
         11    1    4    4    0    0  0.53049021031E-01 -0.59872442883E-01  0.49449693594E-01  0.94044890168E-01  0.51100000000E-03 0. -1.
</event>
<event>
 8    1  0.1083484E+005  0.1043930E+01  0.7957747E-01            NaN
         13   -1    0    0    0    0  0.00000000000E+00  0.00000000000E+00  0.74505805969E-08  0.10566000000E+00  0.10566000000E+00 0. -1.
     999900   -1    0    0    0    0 -0.00000000000E+00 -0.00000000000E+00 -0.74505805969E-08  0.93827000000E+00  0.93827000000E+00 0. -1.
     999902    2    1    2    0    0  0.13717889491E-01 -0.12870154477E-01 -0.15221019191E-01  0.10197328763E+01  0.10194457505E+01 0.  0.
     999903    2    3    3    0    0  0.31277248402E-01  0.90571760116E-01 -0.86388277912E-01  0.13064720021E+00  0.20597241661E-01 0.  0.
         14    1    1    2    0    0 -0.13717889491E-01  0.12870154477E-01  0.15221019191E-01  0.24197123663E-01  0.00000000000E+00 0. -1.
     999901    1    3    3    0    0 -0.17559358911E-01 -0.10344191459E+00  0.71167258721E-01  0.88908567613E+00  0.88000000000E+00 0. -1.
        -11    1    4    4    0    0  0.10068990371E-01  0.58584740966E-01 -0.56329916123E-01  0.81895524985E-01  0.51100000000E-03 0. -1.
         11    1    4    4    0    0  0.21208258031E-01  0.31987019151E-01 -0.30058361789E-01  0.48751675225E-01  0.51100000000E-03 0.  1.
</event>
<event>
 8    1  0.1083484E+005  0.1043930E+01  0.7957747E-01            NaN
         13   -1    0    0    0    0  0.00000000000E+00  0.00000000000E+00  0.74505805969E-08  0.10566000000E+00  0.10566000000E+00 0.  1.
     999900   -1    0    0    0    0 -0.00000000000E+00 -0.00000000000E+00 -0.74505805969E-08  0.93827000000E+00  0.93827000000E+00 0.  1.
     999902    2    1    2    0    0  0.16463749396E-01  0.16408114209E-01  0.23184699470E-02  0.10205707072E+01  0.10203033431E+01 0.  0.
     999903    2    3    3    0    0 -0.43752114691E-01  0.10871695299E+00 -0.56269838923E-01  0.13176281913E+00  0.21483070643E-01 0.  0.
         14    1    1    2    0    0 -0.16463749396E-01 -0.16408114209E-01 -0.23184699470E-02  0.23359292775E-01  0.00000000000E+00 0. -1.
     999901    1    3    3    0    0  0.60215864087E-01 -0.92308838784E-01  0.58588308870E-01  0.88880788810E+00  0.88000000000E+00 0.  1.
        -11    1    4    4    0    0 -0.90737414683E-02  0.41845555163E-01 -0.28684532401E-01  0.51540729440E-01  0.51100000000E-03 0. -1.
         11    1    4    4    0    0 -0.34678373223E-01  0.66871397830E-01 -0.27585306522E-01  0.80222089689E-01  0.51100000000E-03 0.  1.
</event>
<event>
 8    1  0.1083484E+005  0.1043930E+01  0.7957747E-01            NaN
         13   -1    0    0    0    0  0.00000000000E+00  0.00000000000E+00  0.74505805969E-08  0.10566000000E+00  0.10566000000E+00 0.  1.
     999900   -1    0    0    0    0 -0.00000000000E+00 -0.00000000000E+00 -0.74505805969E-08  0.93827000000E+00  0.93827000000E+00 0.  1.
     999902    2    1    2    0    0 -0.13011828643E-02 -0.13962898177E-01  0.22260759598E-01  0.10176203626E+01  0.10172802000E+01 0.  0.
     999903    2    3    3    0    0 -0.46262164023E-01 -0.11190627121E+00  0.45274740646E-01  0.13074718256E+00  0.19540272530E-01 0.  0.
         14    1    1    2    0    0  0.13011828643E-02  0.13962898177E-01 -0.22260759598E-01  0.26309637402E-01  0.00000000000E+00 0. -1.
     999901    1    3    3    0    0  0.44960981158E-01  0.97943373033E-01 -0.23013981048E-01  0.88687318004E+00  0.88000000000E+00 0.  1.
        -11    1    4    4    0    0 -0.25010962520E-01 -0.80460708010E-01  0.36285044988E-01  0.91740609277E-01  0.51100000000E-03 0.  1.
         11    1    4    4    0    0 -0.21251201503E-01 -0.31445563200E-01  0.89896956578E-02  0.39006573283E-01  0.51100000000E-03 0. -1.
</event>
<event>
 8    1  0.1083484E+005  0.1043930E+01  0.7957747E-01            NaN
         13   -1    0    0    0    0  0.00000000000E+00  0.00000000000E+00  0.74505805969E-08  0.10566000000E+00  0.10566000000E+00 0.  1.
     999900   -1    0    0    0    0 -0.00000000000E+00 -0.00000000000E+00 -0.74505805969E-08  0.93827000000E+00  0.93827000000E+00 0. -1.
     999902    2    1    2    0    0 -0.47136952524E-02  0.12657933110E-01  0.19897218839E-01  0.10198812680E+01  0.10195976948E+01 0.  0.
     999903    2    3    3    0    0 -0.12394978361E+00 -0.27152045073E-01 -0.20264273697E-01  0.13004138093E+00  0.19983432040E-01 0.  0.
         14    1    1    2    0    0  0.47136952524E-02 -0.12657933110E-01 -0.19897218839E-01  0.24048732006E-01  0.00000000000E+00 0. -1.
     999901    1    3    3    0    0  0.11923608836E+00  0.39809978183E-01  0.40161492537E-01  0.88983988707E+00  0.88000000000E+00 0.  1.
        -11    1    4    4    0    0 -0.95078063726E-01 -0.18937183245E-01 -0.69389437125E-02  0.97194985324E-01  0.51100000000E-03 0.  1.
         11    1    4    4    0    0 -0.28871719886E-01 -0.82148618276E-02 -0.13325329985E-01  0.32846395605E-01  0.51100000000E-03 0. -1.
</event>
<event>
 8    1  0.1083484E+005  0.1043930E+01  0.7957747E-01            NaN
         13   -1    0    0    0    0  0.00000000000E+00  0.00000000000E+00  0.74505805969E-08  0.10566000000E+00  0.10566000000E+00 0. -1.
     999900   -1    0    0    0    0 -0.00000000000E+00 -0.00000000000E+00 -0.74505805969E-08  0.93827000000E+00  0.93827000000E+00 0. -1.
     999902    2    1    2    0    0 -0.41491371077E-02 -0.18606223014E-01  0.16266295101E-01  0.10188700872E+01  0.10185618564E+01 0.  0.
     999903    2    3    3    0    0 -0.53573941062E-02  0.95600698030E-01 -0.79961308475E-01  0.12628707571E+00  0.19657555868E-01 0.  0.
         14    1    1    2    0    0  0.41491371077E-02  0.18606223014E-01 -0.16266295101E-01  0.25059912807E-01  0.00000000000E+00 0.  1.
     999901    1    3    3    0    0  0.12082569986E-02 -0.11420692104E+00  0.96227603577E-01  0.89258301148E+00  0.88000000000E+00 0.  1.
        -11    1    4    4    0    0  0.67985890089E-02  0.52108159407E-01 -0.41362246012E-01  0.66877332524E-01  0.51100000000E-03 0. -1.
         11    1    4    4    0    0 -0.12155983115E-01  0.43492538623E-01 -0.38599062463E-01  0.59409743185E-01  0.51100000000E-03 0.  1.
</event>
<event>
 8    1  0.1083484E+005  0.1043930E+01  0.7957747E-01            NaN
         13   -1    0    0    0    0  0.00000000000E+00  0.00000000000E+00  0.74505805969E-08  0.10566000000E+00  0.10566000000E+00 0.  1.
     999900   -1    0    0    0    0 -0.00000000000E+00 -0.00000000000E+00 -0.74505805969E-08  0.93827000000E+00  0.93827000000E+00 0. -1.
     999902    2    1    2    0    0  0.19914633024E-01  0.13053156745E-01  0.19282242595E-02  0.10200407648E+01  0.10197609849E+01 0.  0.
     999903    2    3    3    0    0  0.22364531032E-01 -0.11263647349E+00  0.56263700617E-01  0.12944757533E+00  0.20097844249E-01 0.  0.
         14    1    1    2    0    0 -0.19914633024E-01 -0.13053156745E-01 -0.19282242595E-02  0.23889235197E-01  0.00000000000E+00 0. -1.
     999901    1    3    3    0    0 -0.24498980085E-02  0.12568963023E+00 -0.54335476357E-01  0.89059318947E+00  0.88000000000E+00 0.  1.
        -11    1    4    4    0    0 -0.19947752633E-02 -0.29261295646E-01  0.97254663675E-02  0.30903856852E-01  0.51100000000E-03 0. -1.
         11    1    4    4    0    0  0.24359306296E-01 -0.83375177840E-01  0.46538234250E-01  0.98543718477E-01  0.51100000000E-03 0.  1.
</event>
<event>
 8    1  0.1083484E+005  0.1043930E+01  0.7957747E-01            NaN
         13   -1    0    0    0    0  0.00000000000E+00  0.00000000000E+00  0.74505805969E-08  0.10566000000E+00  0.10566000000E+00 0. -1.
     999900   -1    0    0    0    0 -0.00000000000E+00 -0.00000000000E+00 -0.74505805969E-08  0.93827000000E+00  0.93827000000E+00 0. -1.
     999902    2    1    2    0    0  0.34066738003E-02 -0.57099068569E-02 -0.23551512535E-01  0.10194579301E+01  0.10191641620E+01 0.  0.
     999903    2    3    3    0    0 -0.12464964622E-01 -0.11570705531E+00 -0.59020189554E-01  0.13175904611E+00  0.18263774669E-01 0.  0.
         14    1    1    2    0    0 -0.34066738003E-02  0.57099068569E-02  0.23551512535E-01  0.24472069904E-01  0.00000000000E+00 0. -1.
     999901    1    3    3    0    0  0.15871638422E-01  0.10999714846E+00  0.35468677018E-01  0.88769888398E+00  0.88000000000E+00 0.  1.
        -11    1    4    4    0    0 -0.21105216698E-03 -0.54163805275E-02  0.10922927995E-02  0.55530122993E-02  0.51100000000E-03 0.  1.
         11    1    4    4    0    0 -0.12253912455E-01 -0.11029067479E+00 -0.60112482353E-01  0.12620603381E+00  0.51100000000E-03 0. -1.
</event>
<event>
 8    1  0.1083484E+005  0.1043930E+01  0.7957747E-01            NaN
         13   -1    0    0    0    0  0.00000000000E+00  0.00000000000E+00  0.74505805969E-08  0.10566000000E+00  0.10566000000E+00 0. -1.
     999900   -1    0    0    0    0 -0.00000000000E+00 -0.00000000000E+00 -0.74505805969E-08  0.93827000000E+00  0.93827000000E+00 0.  1.
     999902    2    1    2    0    0  0.17251843925E-02  0.16031897626E-01 -0.16774413859E-01  0.10206624483E+01  0.10203972042E+01 0.  0.
     999903    2    3    3    0    0  0.15453400722E-01  0.85048851723E-01 -0.10008230988E+00  0.13393136762E+00  0.21190273895E-01 0.  0.
         14    1    1    2    0    0 -0.17251843925E-02 -0.16031897626E-01  0.16774413859E-01  0.23267551719E-01  0.00000000000E+00 0. -1.
     999901    1    3    3    0    0 -0.13728216329E-01 -0.69016954097E-01  0.83307896020E-01  0.88673108066E+00  0.88000000000E+00 0. -1.
        -11    1    4    4    0    0  0.38581639041E-02  0.32649389756E-01 -0.53849329508E-01  0.63094211221E-01  0.51100000000E-03 0.  1.
         11    1    4    4    0    0  0.11595236818E-01  0.52399461966E-01 -0.46232980372E-01  0.70837156396E-01  0.51100000000E-03 0. -1.
</event>
<event>
 8    1  0.1083484E+005  0.1043930E+01  0.7957747E-01            NaN
         13   -1    0    0    0    0  0.00000000000E+00  0.00000000000E+00  0.74505805969E-08  0.10566000000E+00  0.10566000000E+00 0. -1.
     999900   -1    0    0    0    0 -0.00000000000E+00 -0.00000000000E+00 -0.74505805969E-08  0.93827000000E+00  0.93827000000E+00 0. -1.
     999902    2    1    2    0    0  0.21337284884E-01 -0.84340689784E-02 -0.44009934534E-02  0.10205680226E+01  0.10203005963E+01 0.  0.
     999903    2    3    3    0    0  0.10191606849E-01  0.22294524344E-01 -0.12803609167E+00  0.13132446196E+00  0.15873212402E-01 0.  0.
         14    1    1    2    0    0 -0.21337284884E-01  0.84340689784E-02  0.44009934534E-02  0.23361977424E-01  0.00000000000E+00 0. -1.
     999901    1    3    3    0    0  0.11145678036E-01 -0.30728593323E-01  0.12363509822E+00  0.88924356062E+00  0.88000000000E+00 0.  1.
        -11    1    4    4    0    0  0.14472337654E-01  0.18154661799E-01 -0.10092311346E+00  0.10356049562E+00  0.51100000000E-03 0.  1.
         11    1    4    4    0    0 -0.42807308052E-02  0.41398625450E-02 -0.27112978215E-01  0.27763966337E-01  0.51100000000E-03 0. -1.
</event>
<event>
 8    1  0.1083484E+005  0.1043930E+01  0.7957747E-01            NaN
         13   -1    0    0    0    0  0.00000000000E+00  0.00000000000E+00  0.74505805969E-08  0.10566000000E+00  0.10566000000E+00 0. -1.
     999900   -1    0    0    0    0 -0.00000000000E+00 -0.00000000000E+00 -0.74505805969E-08  0.93827000000E+00  0.93827000000E+00 0. -1.
     999902    2    1    2    0    0  0.21745510550E-01 -0.54967558319E-02 -0.55461354607E-02  0.10208249968E+01  0.10205634880E+01 0.  0.
     999903    2    3    3    0    0  0.25277056096E-01  0.11236530273E+00 -0.59953340323E-01  0.13129473842E+00  0.19468294662E-01 0.  0.
         14    1    1    2    0    0 -0.21745510550E-01  0.54967558319E-02  0.55461354607E-02  0.23105003188E-01  0.00000000000E+00 0. -1.
     999901    1    3    3    0    0 -0.35315455462E-02 -0.11786205856E+00  0.54407204862E-01  0.88953025840E+00  0.88000000000E+00 0. -1.
        -11    1    4    4    0    0  0.23736757495E-01  0.78519897416E-01 -0.49615700405E-01  0.95868591282E-01  0.51100000000E-03 0. -1.
         11    1    4    4    0    0  0.15402986011E-02  0.33845405314E-01 -0.10337639918E-01  0.35426147134E-01  0.51100000000E-03 0.  1.
</event>
<event>
 8    1  0.1083484E+005  0.1043930E+01  0.7957747E-01            NaN
         13   -1    0    0    0    0  0.00000000000E+00  0.00000000000E+00  0.74505805969E-08  0.10566000000E+00  0.10566000000E+00 0. -1.
     999900   -1    0    0    0    0 -0.00000000000E+00 -0.00000000000E+00 -0.74505805969E-08  0.93827000000E+00  0.93827000000E+00 0. -1.
     999902    2    1    2    0    0  0.19430693612E-01 -0.12635385284E-01  0.83776163543E-02  0.10192847313E+01  0.10189867389E+01 0.  0.
     999903    2    3    3    0    0 -0.97401627688E-01 -0.61646622981E-01  0.54271959484E-01  0.12902736204E+00  0.20377226681E-01 0.  0.
         14    1    1    2    0    0 -0.19430693612E-01  0.12635385284E-01 -0.83776163543E-02  0.24645268740E-01  0.00000000000E+00 0.  1.
     999901    1    3    3    0    0  0.11683232130E+00  0.49011237697E-01 -0.45894343130E-01  0.89025736922E+00  0.88000000000E+00 0.  1.
        -11    1    4    4    0    0 -0.33671065866E-01 -0.10930228418E-01  0.12976999180E-01  0.37707747195E-01  0.51100000000E-03 0. -1.
         11    1    4    4    0    0 -0.63730561822E-01 -0.50716394563E-01  0.41294960304E-01  0.91319614843E-01  0.51100000000E-03 0.  1.
</event>
<event>
 8    1  0.1083484E+005  0.1043930E+01  0.7957747E-01            NaN
         13   -1    0    0    0    0  0.00000000000E+00  0.00000000000E+00  0.74505805969E-08  0.10566000000E+00  0.10566000000E+00 0. -1.
     999900   -1    0    0    0    0 -0.00000000000E+00 -0.00000000000E+00 -0.74505805969E-08  0.93827000000E+00  0.93827000000E+00 0. -1.
     999902    2    1    2    0    0  0.56991823407E-02 -0.23591629472E-01  0.59091601237E-03  0.10196525446E+01  0.10193634861E+01 0.  0.
     999903    2    3    3    0    0 -0.18713529690E-02 -0.94711344200E-01 -0.90105192186E-01  0.13210473692E+00  0.18946640189E-01 0.  0.
         14    1    1    2    0    0 -0.56991823407E-02  0.23591629472E-01 -0.59091601237E-03  0.24277455432E-01  0.00000000000E+00 0.  1.
     999901    1    3    3    0    0  0.75705353097E-02  0.71119714728E-01  0.90696108198E-01  0.88754780765E+00  0.88000000000E+00 0.  1.
        -11    1    4    4    0    0  0.81033677700E-02 -0.56367788061E-01 -0.51421886668E-01  0.76729809394E-01  0.51100000000E-03 0. -1.
         11    1    4    4    0    0 -0.99747207389E-02 -0.38343556139E-01 -0.38683305518E-01  0.55374927521E-01  0.51100000000E-03 0.  1.
</event>
<event>
 8    1  0.1083484E+005  0.1043930E+01  0.7957747E-01            NaN
         13   -1    0    0    0    0  0.00000000000E+00  0.00000000000E+00  0.74505805969E-08  0.10566000000E+00  0.10566000000E+00 0.  1.
     999900   -1    0    0    0    0 -0.00000000000E+00 -0.00000000000E+00 -0.74505805969E-08  0.93827000000E+00  0.93827000000E+00 0.  1.
     999902    2    1    2    0    0  0.24915425557E-01  0.23938267954E-02  0.20378717397E-02  0.10188170201E+01  0.10185074662E+01 0.  0.
     999903    2    3    3    0    0  0.38691736562E-01  0.10360836749E+00 -0.66217460975E-01  0.13028285621E+00  0.18897782705E-01 0.  0.
         14    1    1    2    0    0 -0.24915425557E-01 -0.23938267954E-02 -0.20378717397E-02  0.25112979883E-01  0.00000000000E+00 0.  1.
     999901    1    3    3    0    0 -0.13776311005E-01 -0.10121454069E+00  0.68255332715E-01  0.88853416391E+00  0.88000000000E+00 0. -1.
        -11    1    4    4    0    0  0.24129005405E-01  0.39397015649E-01 -0.30684704100E-01  0.55463014078E-01  0.51100000000E-03 0.  1.
         11    1    4    4    0    0  0.14562731157E-01  0.64211351841E-01 -0.35532756875E-01  0.74819842128E-01  0.51100000000E-03 0. -1.
</event>
<event>
 8    1  0.1083484E+005  0.1043930E+01  0.7957747E-01            NaN
         13   -1    0    0    0    0  0.00000000000E+00  0.00000000000E+00  0.74505805969E-08  0.10566000000E+00  0.10566000000E+00 0.  1.
     999900   -1    0    0    0    0 -0.00000000000E+00 -0.00000000000E+00 -0.74505805969E-08  0.93827000000E+00  0.93827000000E+00 0.  1.
     999902    2    1    2    0    0  0.21483850680E-01  0.45730812155E-02  0.78186739582E-02  0.10206147566E+01  0.10203484115E+01 0.  0.
     999903    2    3    3    0    0  0.90619800835E-01 -0.25663336327E-01 -0.90203559889E-01  0.13196275561E+00  0.20172543654E-01 0.  0.
         14    1    1    2    0    0 -0.21483850680E-01 -0.45730812155E-02 -0.78186739582E-02  0.23315243389E-01  0.00000000000E+00 0. -1.
     999901    1    3    3    0    0 -0.69135950155E-01  0.30236417543E-01  0.98022233847E-01  0.88865200100E+00  0.88000000000E+00 0. -1.
        -11    1    4    4    0    0  0.31931426497E-01 -0.64243772716E-02 -0.19028568174E-01  0.37725802168E-01  0.51100000000E-03 0.  1.
         11    1    4    4    0    0  0.58688374338E-01 -0.19238959055E-01 -0.71174991714E-01  0.94236953445E-01  0.51100000000E-03 0. -1.
</event>
<event>
 8    1  0.1083484E+005  0.1043930E+01  0.7957747E-01            NaN
         13   -1    0    0    0    0  0.00000000000E+00  0.00000000000E+00  0.74505805969E-08  0.10566000000E+00  0.10566000000E+00 0.  1.
     999900   -1    0    0    0    0 -0.00000000000E+00 -0.00000000000E+00 -0.74505805969E-08  0.93827000000E+00  0.93827000000E+00 0.  1.
     999902    2    1    2    0    0 -0.18825970136E-01  0.63255989812E-02 -0.26119307782E-02  0.10238987111E+01  0.10237027488E+01 0.  0.
     999903    2    3    3    0    0  0.11903825247E+00  0.19420620238E-01 -0.49553733546E-01  0.13183281871E+00  0.19417866464E-01 0.  0.
         14    1    1    2    0    0  0.18825970136E-01 -0.63255989812E-02  0.26119307782E-02  0.20031288936E-01  0.00000000000E+00 0. -1.
     999901    1    3    3    0    0 -0.13786422261E+00 -0.13095021256E-01  0.46941802767E-01  0.89206589236E+00  0.88000000000E+00 0. -1.
        -11    1    4    4    0    0  0.53508690030E-01  0.18521142899E-01 -0.23313228382E-01  0.61237083386E-01  0.51100000000E-03 0.  1.
         11    1    4    4    0    0  0.65529562443E-01  0.89947733826E-03 -0.26240505164E-01  0.70595735322E-01  0.51100000000E-03 0. -1.
</event>
<event>
 8    1  0.1083484E+005  0.1043930E+01  0.7957747E-01            NaN
         13   -1    0    0    0    0  0.00000000000E+00  0.00000000000E+00  0.74505805969E-08  0.10566000000E+00  0.10566000000E+00 0.  1.
     999900   -1    0    0    0    0 -0.00000000000E+00 -0.00000000000E+00 -0.74505805969E-08  0.93827000000E+00  0.93827000000E+00 0.  1.
     999902    2    1    2    0    0 -0.64185253057E-02  0.72061273535E-02 -0.21629025191E-01  0.10202458182E+01  0.10199708766E+01 0.  0.
     999903    2    3    3    0    0  0.12378083144E-01 -0.54352818481E-01 -0.11863358406E+00  0.13257881937E+00  0.19893975492E-01 0.  0.
         14    1    1    2    0    0  0.64185253057E-02 -0.72061273535E-02  0.21629025191E-01  0.23684181836E-01  0.00000000000E+00 0.  1.
     999901    1    3    3    0    0 -0.18796608449E-01  0.61558945835E-01  0.97004558867E-01  0.88766699879E+00  0.88000000000E+00 0. -1.
        -11    1    4    4    0    0 -0.26775532480E-02 -0.21124990588E-01 -0.58337561099E-01  0.62104481921E-01  0.51100000000E-03 0.  1.
         11    1    4    4    0    0  0.15055636392E-01 -0.33227827893E-01 -0.60296022958E-01  0.70474337452E-01  0.51100000000E-03 0. -1.
</event>
<event>
 8    1  0.1083484E+005  0.1043930E+01  0.7957747E-01            NaN
         13   -1    0    0    0    0  0.00000000000E+00  0.00000000000E+00  0.74505805969E-08  0.10566000000E+00  0.10566000000E+00 0.  1.
     999900   -1    0    0    0    0 -0.00000000000E+00 -0.00000000000E+00 -0.74505805969E-08  0.93827000000E+00  0.93827000000E+00 0.  1.
     999902    2    1    2    0    0  0.40429821276E-02  0.13420044607E-01  0.18738490424E-01  0.10205296939E+01  0.10202613792E+01 0.  0.
     999903    2    3    3    0    0  0.47770811961E-01 -0.11228221507E+00 -0.35400613550E-01  0.12887716979E+00  0.21604979897E-01 0.  0.
         14    1    1    2    0    0 -0.40429821276E-02 -0.13420044607E-01 -0.18738490424E-01  0.23400306090E-01  0.00000000000E+00 0. -1.
     999901    1    3    3    0    0 -0.43727829834E-01  0.12570225968E+00  0.54139103974E-01  0.89165252412E+00  0.88000000000E+00 0. -1.
        -11    1    4    4    0    0  0.34272137154E-01 -0.54276126006E-01 -0.15003321822E-01  0.65922970397E-01  0.51100000000E-03 0. -1.
         11    1    4    4    0    0  0.13498674807E-01 -0.58006089067E-01 -0.20397291728E-01  0.62954199393E-01  0.51100000000E-03 0.  1.
</event>
<event>
 8    1  0.1083484E+005  0.1043930E+01  0.7957747E-01            NaN
         13   -1    0    0    0    0  0.00000000000E+00  0.00000000000E+00  0.74505805969E-08  0.10566000000E+00  0.10566000000E+00 0. -1.
     999900   -1    0    0    0    0 -0.00000000000E+00 -0.00000000000E+00 -0.74505805969E-08  0.93827000000E+00  0.93827000000E+00 0. -1.
     999902    2    1    2    0    0  0.12030687357E-01  0.19703446716E-01 -0.15033432730E-01  0.10163806379E+01  0.10160072017E+01 0.  0.
     999903    2    3    3    0    0 -0.12271833465E+00  0.10633915643E-01  0.14869420100E-01  0.12557553246E+00  0.19371238393E-01 0.  0.
         14    1    1    2    0    0 -0.12030687357E-01 -0.19703446716E-01  0.15033432730E-01  0.27549362069E-01  0.00000000000E+00 0. -1.
     999901    1    3    3    0    0  0.13474902201E+00  0.90695310732E-02 -0.29902852830E-01  0.89080510547E+00  0.88000000000E+00 0.  1.
        -11    1    4    4    0    0 -0.52635204239E-01  0.11521880113E-01 -0.19505045222E-03  0.53884298383E-01  0.51100000000E-03 0. -1.
         11    1    4    4    0    0 -0.70083130413E-01 -0.88796447013E-03  0.15064470553E-01  0.71691234077E-01  0.51100000000E-03 0.  1.
</event>
<event>
 8    1  0.1083484E+005  0.1043930E+01  0.7957747E-01            NaN
         13   -1    0    0    0    0  0.00000000000E+00  0.00000000000E+00  0.74505805969E-08  0.10566000000E+00  0.10566000000E+00 0.  1.
     999900   -1    0    0    0    0 -0.00000000000E+00 -0.00000000000E+00 -0.74505805969E-08  0.93827000000E+00  0.93827000000E+00 0. -1.
     999902    2    1    2    0    0  0.66514579571E-02 -0.16523938497E-01 -0.15992183956E-01  0.10199919052E+01  0.10197109660E+01 0.  0.
     999903    2    3    3    0    0  0.73093072303E-02 -0.16115271714E-03  0.12658545158E+00  0.12836611164E+00  0.20013248733E-01 0.  0.
         14    1    1    2    0    0 -0.66514579571E-02  0.16523938497E-01  0.15992183956E-01  0.23938094830E-01  0.00000000000E+00 0.  1.
     999901    1    3    3    0    0 -0.65784927320E-03 -0.16362785780E-01 -0.14257763554E+00  0.89162579353E+00  0.88000000000E+00 0. -1.
        -11    1    4    4    0    0  0.62793081861E-02  0.77978116367E-02  0.34410129554E-01  0.35840671234E-01  0.51100000000E-03 0.  1.
         11    1    4    4    0    0  0.10299990442E-02 -0.79589643538E-02  0.92175322026E-01  0.92525440411E-01  0.51100000000E-03 0. -1.
</event>
<event>
 8    1  0.1083484E+005  0.1043930E+01  0.7957747E-01            NaN
         13   -1    0    0    0    0  0.00000000000E+00  0.00000000000E+00  0.74505805969E-08  0.10566000000E+00  0.10566000000E+00 0.  1.
     999900   -1    0    0    0    0 -0.00000000000E+00 -0.00000000000E+00 -0.74505805969E-08  0.93827000000E+00  0.93827000000E+00 0. -1.
     999902    2    1    2    0    0 -0.18998607238E-01  0.13300729107E-01  0.25809834131E-02  0.10205950917E+01  0.10203282919E+01 0.  0.
     999903    2    3    3    0    0 -0.89157737673E-01  0.34826514347E-01 -0.90035604497E-01  0.13269673297E+00  0.18439755288E-01 0.  0.
         14    1    1    2    0    0  0.18998607238E-01 -0.13300729107E-01 -0.25809834131E-02  0.23334908338E-01  0.00000000000E+00 0.  1.
     999901    1    3    3    0    0  0.70159130435E-01 -0.21525785240E-01  0.92616587910E-01  0.88789835869E+00  0.88000000000E+00 0.  1.
        -11    1    4    4    0    0 -0.55800083926E-01  0.23950930842E-01 -0.68430499456E-01  0.91489293533E-01  0.51100000000E-03 0. -1.
         11    1    4    4    0    0 -0.33357653747E-01  0.10875583505E-01 -0.21605105041E-01  0.41207439436E-01  0.51100000000E-03 0.  1.
</event>
<event>
 8    1  0.1083484E+005  0.1043930E+01  0.7957747E-01            NaN
         13   -1    0    0    0    0  0.00000000000E+00  0.00000000000E+00  0.74505805969E-08  0.10566000000E+00  0.10566000000E+00 0.  1.
     999900   -1    0    0    0    0 -0.00000000000E+00 -0.00000000000E+00 -0.74505805969E-08  0.93827000000E+00  0.93827000000E+00 0.  1.
     999902    2    1    2    0    0 -0.10307719258E-01  0.20497623854E-01 -0.26822761733E-02  0.10208302973E+01  0.10205689098E+01 0.  0.
     999903    2    3    3    0    0  0.80621516384E-01  0.95243830462E-01  0.40026018929E-01  0.13196634832E+00  0.15550522603E-01 0.  0.
         14    1    1    2    0    0  0.10307719258E-01 -0.20497623854E-01  0.26822761733E-02  0.23099702714E-01  0.00000000000E+00 0.  1.
     999901    1    3    3    0    0 -0.90929235642E-01 -0.74746206607E-01 -0.42708295103E-01  0.88886394896E+00  0.88000000000E+00 0.  1.
        -11    1    4    4    0    0  0.34944510845E-01  0.37759174069E-01  0.24191964591E-01  0.56854079329E-01  0.51100000000E-03 0. -1.
         11    1    4    4    0    0  0.45677005539E-01  0.57484656393E-01  0.15834054338E-01  0.75112268994E-01  0.51100000000E-03 0.  1.
</event>
<event>
 8    1  0.1083484E+005  0.1043930E+01  0.7957747E-01            NaN
         13   -1    0    0    0    0  0.00000000000E+00  0.00000000000E+00  0.74505805969E-08  0.10566000000E+00  0.10566000000E+00 0.  1.
     999900   -1    0    0    0    0 -0.00000000000E+00 -0.00000000000E+00 -0.74505805969E-08  0.93827000000E+00  0.93827000000E+00 0.  1.
     999902    2    1    2    0    0  0.60712543814E-04  0.11735761770E-01  0.19787382853E-01  0.10209240810E+01  0.10206648357E+01 0.  0.
     999903    2    3    3    0    0 -0.62441151247E-01 -0.64429035904E-01  0.95536267097E-01  0.13219158306E+00  0.17246398559E-01 0.  0.
         14    1    1    2    0    0 -0.60712543814E-04 -0.11735761770E-01 -0.19787382853E-01  0.23005919032E-01  0.00000000000E+00 0. -1.
     999901    1    3    3    0    0  0.62501863791E-01  0.76164797674E-01 -0.75748884244E-01  0.88873249791E+00  0.88000000000E+00 0.  1.
        -11    1    4    4    0    0 -0.54700495193E-01 -0.55762448886E-01  0.73415813060E-01  0.10719952243E+00  0.51100000000E-03 0. -1.
         11    1    4    4    0    0 -0.77406560539E-02 -0.86665870181E-02  0.22120454037E-01  0.24992060629E-01  0.51100000000E-03 0.  1.
</event>
<event>
 7    1  0.1083484E+005  0.1043930E+01  0.7957747E-01            NaN
         13   -1    0    0    0    0  0.00000000000E+00  0.00000000000E+00  0.74505805969E-08  0.10566000000E+00  0.10566000000E+00 0.  1.
     999900   -1    0    0    0    0 -0.00000000000E+00 -0.00000000000E+00 -0.74505805969E-08  0.93827000000E+00  0.93827000000E+00 0. -1.
     999903    2    1    2    0    0  0.40095254595E-02  0.55111971741E-01 -0.74581862326E-01  0.95174692049E-01  0.21032405833E-01 0.  0.
         14    1    1    2    0    0  0.56805996795E-01 -0.10303413434E-01  0.28329105399E-01  0.64308784882E-01  0.00000000000E+00 0.  1.
     999901    1    1    2    0    0 -0.60815522255E-01 -0.44808558307E-01  0.46252756927E-01  0.88444652307E+00  0.88000000000E+00 0. -1.
        -11    1    3    3    0    0  0.93723637452E-02  0.27947777084E-01 -0.26266927419E-01  0.39485846111E-01  0.51100000000E-03 0. -1.
         11    1    3    3    0    0 -0.53628382858E-02  0.27164194657E-01 -0.48314934907E-01  0.55688845938E-01  0.51100000000E-03 0.  1.
</event>
<event>
 8    1  0.1083484E+005  0.1043930E+01  0.7957747E-01            NaN
         13   -1    0    0    0    0  0.00000000000E+00  0.00000000000E+00  0.74505805969E-08  0.10566000000E+00  0.10566000000E+00 0.  1.
     999900   -1    0    0    0    0 -0.00000000000E+00 -0.00000000000E+00 -0.74505805969E-08  0.93827000000E+00  0.93827000000E+00 0.  1.
     999902    2    1    2    0    0  0.35259309874E-03 -0.23522069903E-01 -0.51133017237E-02  0.10198559902E+01  0.10195718134E+01 0.  0.
     999903    2    3    3    0    0  0.32320169823E-02 -0.12931401801E+00  0.23250926404E-01  0.13306133706E+00  0.20788281622E-01 0.  0.
         14    1    1    2    0    0 -0.35259309874E-03  0.23522069903E-01  0.51133017237E-02  0.24074009822E-01  0.00000000000E+00 0. -1.
     999901    1    3    3    0    0 -0.28794238835E-02  0.10579194811E+00 -0.28364228127E-01  0.88679465312E+00  0.88000000000E+00 0. -1.
        -11    1    4    4    0    0 -0.84789622920E-02 -0.46355493794E-01  0.10922861800E-01  0.48376591832E-01  0.51100000000E-03 0.  1.
         11    1    4    4    0    0  0.11710979274E-01 -0.82958524218E-01  0.12328064603E-01  0.84684745225E-01  0.51100000000E-03 0. -1.
</event>
<event>
 8    1  0.1083484E+005  0.1043930E+01  0.7957747E-01            NaN
         13   -1    0    0    0    0  0.00000000000E+00  0.00000000000E+00  0.74505805969E-08  0.10566000000E+00  0.10566000000E+00 0.  1.
     999900   -1    0    0    0    0 -0.00000000000E+00 -0.00000000000E+00 -0.74505805969E-08  0.93827000000E+00  0.93827000000E+00 0. -1.
     999902    2    1    2    0    0 -0.12881679285E-01  0.15477350061E-01  0.12981421829E-01  0.10199716332E+01  0.10196902124E+01 0.  0.
     999903    2    3    3    0    0 -0.11048644521E+00 -0.17462263648E-01  0.67723270492E-01  0.13227327315E+00  0.19939714040E-01 0.  0.
         14    1    1    2    0    0  0.12881679285E-01 -0.15477350061E-01 -0.12981421829E-01  0.23958366781E-01  0.00000000000E+00 0. -1.
     999901    1    3    3    0    0  0.97604765923E-01  0.32939613708E-01 -0.54741848663E-01  0.88769836007E+00  0.88000000000E+00 0. -1.
        -11    1    4    4    0    0 -0.45281274150E-01 -0.12517899221E-01  0.38066914662E-01  0.60468526544E-01  0.51100000000E-03 0. -1.
         11    1    4    4    0    0 -0.65205171059E-01 -0.49443644263E-02  0.29656355831E-01  0.71804746602E-01  0.51100000000E-03 0.  1.
</event>
<event>
 8    1  0.1083484E+005  0.1043930E+01  0.7957747E-01            NaN
         13   -1    0    0    0    0  0.00000000000E+00  0.00000000000E+00  0.74505805969E-08  0.10566000000E+00  0.10566000000E+00 0. -1.
     999900   -1    0    0    0    0 -0.00000000000E+00 -0.00000000000E+00 -0.74505805969E-08  0.93827000000E+00  0.93827000000E+00 0.  1.
     999902    2    1    2    0    0 -0.11226662420E-01 -0.85027876264E-02  0.18233973772E-01  0.10208906175E+01  0.10206306089E+01 0.  0.
     999903    2    3    3    0    0  0.49920274853E-01  0.11657533972E+00 -0.14990557652E-01  0.12932606270E+00  0.20461427232E-01 0.  0.
         14    1    1    2    0    0  0.11226662420E-01  0.85027876264E-02 -0.18233973772E-01  0.23039382501E-01  0.00000000000E+00 0.  1.
     999901    1    3    3    0    0 -0.61146937273E-01 -0.12507812734E+00  0.33224531424E-01  0.89156455479E+00  0.88000000000E+00 0. -1.
        -11    1    4    4    0    0  0.35257739141E-01  0.75010676294E-01 -0.19098024173E-01  0.85057071286E-01  0.51100000000E-03 0.  1.
         11    1    4    4    0    0  0.14662535712E-01  0.41564663423E-01  0.41074665216E-02  0.44268991419E-01  0.51100000000E-03 0. -1.
</event>
<event>
 8    1  0.1083484E+005  0.1043930E+01  0.7957747E-01            NaN
         13   -1    0    0    0    0  0.00000000000E+00  0.00000000000E+00  0.74505805969E-08  0.10566000000E+00  0.10566000000E+00 0.  1.
     999900   -1    0    0    0    0 -0.00000000000E+00 -0.00000000000E+00 -0.74505805969E-08  0.93827000000E+00  0.93827000000E+00 0.  1.
     999902    2    1    2    0    0 -0.18824574606E-01  0.32981894820E-02  0.15485368704E-01  0.10193324532E+01  0.10190356279E+01 0.  0.
     999903    2    3    3    0    0  0.67333093260E-01 -0.97342003687E-01  0.46936320843E-01  0.12886024446E+00  0.19817498775E-01 0.  0.
         14    1    1    2    0    0  0.18824574606E-01 -0.32981894820E-02 -0.15485368704E-01  0.24597546765E-01  0.00000000000E+00 0. -1.
     999901    1    3    3    0    0 -0.86157667866E-01  0.10064019317E+00 -0.31450952139E-01  0.89047220878E+00  0.88000000000E+00 0. -1.
        -11    1    4    4    0    0  0.47136686484E-01 -0.80161776115E-01  0.31556080245E-01  0.98202977980E-01  0.51100000000E-03 0.  1.
         11    1    4    4    0    0  0.20196406776E-01 -0.17180227572E-01  0.15380240598E-01  0.30657266479E-01  0.51100000000E-03 0. -1.
</event>
<event>
 8    1  0.1083484E+005  0.1043930E+01  0.7957747E-01            NaN
         13   -1    0    0    0    0  0.00000000000E+00  0.00000000000E+00  0.74505805969E-08  0.10566000000E+00  0.10566000000E+00 0. -1.
     999900   -1    0    0    0    0 -0.00000000000E+00 -0.00000000000E+00 -0.74505805969E-08  0.93827000000E+00  0.93827000000E+00 0.  1.
     999902    2    1    2    0    0  0.17193671737E-01  0.75621829606E-02  0.12587012138E-01  0.10213193425E+01  0.10210690268E+01 0.  0.
     999903    2    3    3    0    0  0.28054038273E-01  0.10828401905E+00 -0.66973890382E-01  0.13194159763E+00  0.20263892695E-01 0.  0.
         14    1    1    2    0    0 -0.17193671737E-01 -0.75621829606E-02 -0.12587012138E-01  0.22610657520E-01  0.00000000000E+00 0. -1.
     999901    1    3    3    0    0 -0.10860366536E-01 -0.10072183609E+00  0.79560902520E-01  0.88937774485E+00  0.88000000000E+00 0. -1.
        -11    1    4    4    0    0  0.76862708885E-02  0.40638343833E-01 -0.35874473380E-01  0.54752102343E-01  0.51100000000E-03 0.  1.
         11    1    4    4    0    0  0.20367767385E-01  0.67645675216E-01 -0.31099417002E-01  0.77189495286E-01  0.51100000000E-03 0. -1.
</event>
<event>
 8    1  0.1083484E+005  0.1043930E+01  0.7957747E-01            NaN
         13   -1    0    0    0    0  0.00000000000E+00  0.00000000000E+00  0.74505805969E-08  0.10566000000E+00  0.10566000000E+00 0. -1.
     999900   -1    0    0    0    0 -0.00000000000E+00 -0.00000000000E+00 -0.74505805969E-08  0.93827000000E+00  0.93827000000E+00 0. -1.
     999902    2    1    2    0    0 -0.21901353605E-02 -0.18791152911E-01  0.12498972563E-01  0.10212555996E+01  0.10210038546E+01 0.  0.
     999903    2    3    3    0    0 -0.57809673987E-01  0.57724254056E-02 -0.11469526187E+00  0.13003437240E+00  0.19459075176E-01 0.  0.
         14    1    1    2    0    0  0.21901353605E-02  0.18791152911E-01 -0.12498972563E-01  0.22674400450E-01  0.00000000000E+00 0. -1.
     999901    1    3    3    0    0  0.55619538627E-01 -0.24563578317E-01  0.12719423444E+00  0.89122122715E+00  0.88000000000E+00 0.  1.
        -11    1    4    4    0    0 -0.10803283662E-01  0.25444406556E-02 -0.89540679292E-02  0.14269602994E-01  0.51100000000E-03 0. -1.
         11    1    4    4    0    0 -0.47006390325E-01  0.32279847500E-02 -0.10574119394E+00  0.11576476940E+00  0.51100000000E-03 0.  1.
</event>
<event>
 8    1  0.1083484E+005  0.1043930E+01  0.7957747E-01            NaN
         13   -1    0    0    0    0  0.00000000000E+00  0.00000000000E+00  0.74505805969E-08  0.10566000000E+00  0.10566000000E+00 0. -1.
     999900   -1    0    0    0    0 -0.00000000000E+00 -0.00000000000E+00 -0.74505805969E-08  0.93827000000E+00  0.93827000000E+00 0.  1.
     999902    2    1    2    0    0 -0.13930057942E-01 -0.12889241150E-01  0.13914276389E-01  0.10203973389E+01  0.10201259447E+01 0.  0.
     999903    2    3    3    0    0 -0.64651945824E-02  0.11253590975E+00  0.62319257354E-01  0.13015566673E+00  0.18726399014E-01 0.  0.
         14    1    1    2    0    0  0.13930057942E-01  0.12889241150E-01 -0.13914276389E-01  0.23532661114E-01  0.00000000000E+00 0. -1.
     999901    1    3    3    0    0 -0.74648633593E-02 -0.12542515090E+00 -0.48404980965E-01  0.89024167216E+00  0.88000000000E+00 0.  1.
        -11    1    4    4    0    0 -0.44114786996E-02  0.94516999273E-01  0.59555522682E-01  0.11180360325E+00  0.51100000000E-03 0. -1.
         11    1    4    4    0    0 -0.20537158828E-02  0.18018910477E-01  0.27637346718E-02  0.18352063482E-01  0.51100000000E-03 0.  1.
</event>
<event>
 8    1  0.1083484E+005  0.1043930E+01  0.7957747E-01            NaN
         13   -1    0    0    0    0  0.00000000000E+00  0.00000000000E+00  0.74505805969E-08  0.10566000000E+00  0.10566000000E+00 0. -1.
     999900   -1    0    0    0    0 -0.00000000000E+00 -0.00000000000E+00 -0.74505805969E-08  0.93827000000E+00  0.93827000000E+00 0. -1.
     999902    2    1    2    0    0  0.12251053356E-01 -0.97271373479E-02 -0.18151521331E-01  0.10199678791E+01  0.10196863691E+01 0.  0.
     999903    2    3    3    0    0  0.90328574846E-01 -0.43790158076E-01  0.80714956702E-01  0.13034381853E+00  0.19944357989E-01 0.  0.
         14    1    1    2    0    0 -0.12251053356E-01  0.97271373479E-02  0.18151521331E-01  0.23962120856E-01  0.00000000000E+00 0. -1.
     999901    1    3    3    0    0 -0.78077521490E-01  0.34063020728E-01 -0.98866478033E-01  0.88962406061E+00  0.88000000000E+00 0. -1.
        -11    1    4    4    0    0  0.40269469933E-01 -0.26889632429E-01  0.29186954867E-01  0.56540445667E-01  0.51100000000E-03 0. -1.
         11    1    4    4    0    0  0.50059104913E-01 -0.16900525648E-01  0.51528001836E-01  0.73803372863E-01  0.51100000000E-03 0.  1.
</event>
<event>
 8    1  0.1083484E+005  0.1043930E+01  0.7957747E-01            NaN
         13   -1    0    0    0    0  0.00000000000E+00  0.00000000000E+00  0.74505805969E-08  0.10566000000E+00  0.10566000000E+00 0.  1.
     999900   -1    0    0    0    0 -0.00000000000E+00 -0.00000000000E+00 -0.74505805969E-08  0.93827000000E+00  0.93827000000E+00 0.  1.
     999902    2    1    2    0    0  0.66031152507E-02  0.21661157733E-01 -0.16281454355E-02  0.10212263055E+01  0.10209739024E+01 0.  0.
     999903    2    3    3    0    0 -0.55712352641E-01  0.10438133786E+00 -0.58822551818E-01  0.13330905383E+00  0.17660161396E-01 0.  0.
         14    1    1    2    0    0 -0.66031152507E-02 -0.21661157733E-01  0.16281454355E-02  0.22703694477E-01  0.00000000000E+00 0.  1.
     999901    1    3    3    0    0  0.62315467892E-01 -0.82720180123E-01  0.57194406383E-01  0.88791725170E+00  0.88000000000E+00 0.  1.
        -11    1    4    4    0    0 -0.40220829136E-01  0.62755274760E-01 -0.29950864157E-01  0.80332154156E-01  0.51100000000E-03 0.  1.
         11    1    4    4    0    0 -0.15491523505E-01  0.41626063095E-01 -0.28871687662E-01  0.52976899671E-01  0.51100000000E-03 0. -1.
</event>
<event>
 8    1  0.1083484E+005  0.1043930E+01  0.7957747E-01            NaN
         13   -1    0    0    0    0  0.00000000000E+00  0.00000000000E+00  0.74505805969E-08  0.10566000000E+00  0.10566000000E+00 0. -1.
     999900   -1    0    0    0    0 -0.00000000000E+00 -0.00000000000E+00 -0.74505805969E-08  0.93827000000E+00  0.93827000000E+00 0. -1.
     999902    2    1    2    0    0  0.22986119581E-01  0.35727313028E-02 -0.23729491678E-02  0.10205471646E+01  0.10202792550E+01 0.  0.
     999903    2    3    3    0    0  0.23167275834E-01 -0.12694805529E+00  0.75206007909E-02  0.13086542890E+00  0.20412487184E-01 0.  0.
         14    1    1    2    0    0 -0.22986119581E-01 -0.35727313028E-02  0.23729491678E-02  0.23382835373E-01  0.00000000000E+00 0. -1.
     999901    1    3    3    0    0 -0.18115625333E-03  0.13052078660E+00 -0.98935499587E-02  0.88968173572E+00  0.88000000000E+00 0.  1.
        -11    1    4    4    0    0  0.16871306268E-01 -0.90360391662E-01  0.14576821226E-01  0.93071940963E-01  0.51100000000E-03 0.  1.
         11    1    4    4    0    0  0.62959695664E-02 -0.36587663631E-01 -0.70562204347E-02  0.37793487939E-01  0.51100000000E-03 0. -1.
</event>
<event>
 8    1  0.1083484E+005  0.1043930E+01  0.7957747E-01            NaN
         13   -1    0    0    0    0  0.00000000000E+00  0.00000000000E+00  0.74505805969E-08  0.10566000000E+00  0.10566000000E+00 0. -1.
     999900   -1    0    0    0    0 -0.00000000000E+00 -0.00000000000E+00 -0.74505805969E-08  0.93827000000E+00  0.93827000000E+00 0.  1.
     999902    2    1    2    0    0 -0.11823629975E-01  0.19483679731E-01  0.62190362292E-02  0.10203061050E+01  0.10200325777E+01 0.  0.
     999903    2    3    3    0    0  0.76329760946E-01 -0.87386249945E-01  0.53786892560E-01  0.12819910296E+00  0.89101684993E-02 0.  0.
         14    1    1    2    0    0  0.11823629975E-01 -0.19483679731E-01 -0.62190362292E-02  0.23623894964E-01  0.00000000000E+00 0.  1.
     999901    1    3    3    0    0 -0.88153390921E-01  0.10686992968E+00 -0.47567856331E-01  0.89210700208E+00  0.88000000000E+00 0. -1.
        -11    1    4    4    0    0  0.15712900234E-01 -0.13789510457E-01  0.11855483406E-01  0.24038707124E-01  0.51100000000E-03 0. -1.
         11    1    4    4    0    0  0.60616860713E-01 -0.73596739487E-01  0.41931409153E-01  0.10416039583E+00  0.51100000000E-03 0.  1.
</event>
<event>
 8    1  0.1083484E+005  0.1043930E+01  0.7957747E-01            NaN
         13   -1    0    0    0    0  0.00000000000E+00  0.00000000000E+00  0.74505805969E-08  0.10566000000E+00  0.10566000000E+00 0.  1.
     999900   -1    0    0    0    0 -0.00000000000E+00 -0.00000000000E+00 -0.74505805969E-08  0.93827000000E+00  0.93827000000E+00 0.  1.
     999902    2    1    2    0    0  0.13334714444E-01 -0.20274361536E-01  0.14214538626E-02  0.10196218763E+01  0.10193320783E+01 0.  0.
     999903    2    3    3    0    0 -0.97156880591E-01  0.55964344736E-01 -0.57630964816E-01  0.12748515976E+00  0.18964981567E-01 0.  0.
         14    1    1    2    0    0 -0.13334714444E-01  0.20274361536E-01 -0.14214538626E-02  0.24308123664E-01  0.00000000000E+00 0.  1.
     999901    1    3    3    0    0  0.11049159504E+00 -0.76238706272E-01  0.59052418679E-01  0.89213671657E+00  0.88000000000E+00 0. -1.
        -11    1    4    4    0    0 -0.19486475372E-01  0.30475904967E-02 -0.98667727622E-02  0.22059575155E-01  0.51100000000E-03 0. -1.
         11    1    4    4    0    0 -0.77670405219E-01  0.52916754239E-01 -0.47764192054E-01  0.10542558461E+00  0.51100000000E-03 0.  1.
</event>
<event>
 8    1  0.1083484E+005  0.1043930E+01  0.7957747E-01            NaN
         13   -1    0    0    0    0  0.00000000000E+00  0.00000000000E+00  0.74505805969E-08  0.10566000000E+00  0.10566000000E+00 0.  1.
     999900   -1    0    0    0    0 -0.00000000000E+00 -0.00000000000E+00 -0.74505805969E-08  0.93827000000E+00  0.93827000000E+00 0.  1.
     999902    2    1    2    0    0  0.13714575252E-01 -0.61184778017E-02 -0.18448615724E-01  0.10201418356E+01  0.10198644458E+01 0.  0.
     999903    2    3    3    0    0 -0.44024880338E-01 -0.20795227139E-01  0.11643249411E+00  0.12787384584E+00  0.20604931563E-01 0.  0.
         14    1    1    2    0    0 -0.13714575252E-01  0.61184778017E-02  0.18448615724E-01  0.23788164433E-01  0.00000000000E+00 0.  1.
     999901    1    3    3    0    0  0.57739455590E-01  0.14676749337E-01 -0.13488110983E+00  0.89226798973E+00  0.88000000000E+00 0.  1.
        -11    1    4    4    0    0 -0.13442478923E-01  0.29013175862E-02  0.38040484636E-01  0.40453151616E-01  0.51100000000E-03 0. -1.
         11    1    4    4    0    0 -0.30582401416E-01 -0.23696544725E-01  0.78392009474E-01  0.87420694224E-01  0.51100000000E-03 0.  1.
</event>
<event>
 8    1  0.1083484E+005  0.1043930E+01  0.7957747E-01            NaN
         13   -1    0    0    0    0  0.00000000000E+00  0.00000000000E+00  0.74505805969E-08  0.10566000000E+00  0.10566000000E+00 0.  1.
     999900   -1    0    0    0    0 -0.00000000000E+00 -0.00000000000E+00 -0.74505805969E-08  0.93827000000E+00  0.93827000000E+00 0. -1.
     999902    2    1    2    0    0  0.22501432067E-01  0.55741780522E-02 -0.27423720432E-02  0.10205867674E+01  0.10203197750E+01 0.  0.
     999903    2    3    3    0    0 -0.74759161542E-01 -0.48804250931E-01  0.90605216207E-01  0.12866165343E+00  0.19332064473E-01 0.  0.
         14    1    1    2    0    0 -0.22501432067E-01 -0.55741780522E-02  0.27423720432E-02  0.23343232648E-01  0.00000000000E+00 0.  1.
     999901    1    3    3    0    0  0.97260593609E-01  0.54378428983E-01 -0.93347588250E-01  0.89192511392E+00  0.88000000000E+00 0. -1.
        -11    1    4    4    0    0 -0.47205265836E-02 -0.66754792782E-02  0.16105343615E-01  0.18068995788E-01  0.51100000000E-03 0.  1.
         11    1    4    4    0    0 -0.70038634958E-01 -0.42128771652E-01  0.74499872592E-01  0.11059265764E+00  0.51100000000E-03 0. -1.
</event>
<event>
 8    1  0.1083484E+005  0.1043930E+01  0.7957747E-01            NaN
         13   -1    0    0    0    0  0.00000000000E+00  0.00000000000E+00  0.74505805969E-08  0.10566000000E+00  0.10566000000E+00 0. -1.
     999900   -1    0    0    0    0 -0.00000000000E+00 -0.00000000000E+00 -0.74505805969E-08  0.93827000000E+00  0.93827000000E+00 0.  1.
     999902    2    1    2    0    0  0.21689396184E-01  0.81154181922E-02 -0.24363620455E-02  0.10206442580E+01  0.10203785943E+01 0.  0.
     999903    2    3    3    0    0  0.10190965121E+00  0.25173383750E-01  0.78840475649E-01  0.13310147717E+00  0.21929577409E-01 0.  0.
         14    1    1    2    0    0 -0.21689396184E-01 -0.81154181922E-02  0.24363620455E-02  0.23285741974E-01  0.00000000000E+00 0.  1.
     999901    1    3    3    0    0 -0.80220255024E-01 -0.17057965558E-01 -0.81276837694E-01  0.88754278086E+00  0.88000000000E+00 0. -1.
        -11    1    4    4    0    0  0.34911132254E-01  0.26941249177E-02  0.15873557434E-01  0.38448360315E-01  0.51100000000E-03 0.  1.
         11    1    4    4    0    0  0.66998518954E-01  0.22479258833E-01  0.62966918215E-01  0.94653116854E-01  0.51100000000E-03 0. -1.
</event>
<event>
 8    1  0.1083484E+005  0.1043930E+01  0.7957747E-01            NaN
         13   -1    0    0    0    0  0.00000000000E+00  0.00000000000E+00  0.74505805969E-08  0.10566000000E+00  0.10566000000E+00 0. -1.
     999900   -1    0    0    0    0 -0.00000000000E+00 -0.00000000000E+00 -0.74505805969E-08  0.93827000000E+00  0.93827000000E+00 0.  1.
     999902    2    1    2    0    0 -0.21486223506E-01  0.46148150507E-02 -0.90696568625E-02  0.10201557914E+01  0.10198787309E+01 0.  0.
     999903    2    3    3    0    0  0.94416421338E-01  0.40218497982E-02  0.83586168409E-01  0.12773275459E+00  0.19959287359E-01 0.  0.
         14    1    1    2    0    0  0.21486223506E-01 -0.46148150507E-02  0.90696568625E-02  0.23774208590E-01  0.00000000000E+00 0. -1.
     999901    1    3    3    0    0 -0.11590264484E+00  0.59296525257E-03 -0.92655825271E-01  0.89242303682E+00  0.88000000000E+00 0.  1.
        -11    1    4    4    0    0  0.60308309381E-01  0.72610071992E-02  0.42016431887E-01  0.73861059263E-01  0.51100000000E-03 0.  1.
         11    1    4    4    0    0  0.34108111956E-01 -0.32391574010E-02  0.41569736522E-01  0.53871695327E-01  0.51100000000E-03 0. -1.
</event>
<event>
 8    1  0.1083484E+005  0.1043930E+01  0.7957747E-01            NaN
         13   -1    0    0    0    0  0.00000000000E+00  0.00000000000E+00  0.74505805969E-08  0.10566000000E+00  0.10566000000E+00 0.  1.
     999900   -1    0    0    0    0 -0.00000000000E+00 -0.00000000000E+00 -0.74505805969E-08  0.93827000000E+00  0.93827000000E+00 0. -1.
     999902    2    1    2    0    0 -0.21880075753E-01 -0.34051219405E-02  0.77850576598E-02  0.10204578954E+01  0.10201879124E+01 0.  0.
     999903    2    3    3    0    0  0.31633516137E-01  0.69202459523E-01 -0.10303328891E+00  0.12893320629E+00  0.14773398835E-01 0.  0.
         14    1    1    2    0    0  0.21880075753E-01  0.34051219405E-02 -0.77850576598E-02  0.23472104575E-01  0.00000000000E+00 0. -1.
     999901    1    3    3    0    0 -0.53513591890E-01 -0.72607581464E-01  0.11081834657E+00  0.89152468914E+00  0.88000000000E+00 0.  1.
        -11    1    4    4    0    0  0.17546485734E-02  0.15315698982E-01 -0.15318199008E-01  0.21738393886E-01  0.51100000000E-03 0. -1.
         11    1    4    4    0    0  0.29878867563E-01  0.53886760542E-01 -0.87715089902E-01  0.10719481240E+00  0.51100000000E-03 0.  1.
</event>
<event>
 8    1  0.1083484E+005  0.1043930E+01  0.7957747E-01            NaN
         13   -1    0    0    0    0  0.00000000000E+00  0.00000000000E+00  0.74505805969E-08  0.10566000000E+00  0.10566000000E+00 0. -1.
     999900   -1    0    0    0    0 -0.00000000000E+00 -0.00000000000E+00 -0.74505805969E-08  0.93827000000E+00  0.93827000000E+00 0.  1.
     999902    2    1    2    0    0 -0.21381153564E-01 -0.13045449353E-01 -0.55236379643E-02  0.10182814513E+01  0.10179583812E+01 0.  0.
     999903    2    3    3    0    0 -0.10771071039E+00 -0.69645817388E-02 -0.72265550387E-01  0.13152091300E+00  0.20623730312E-01 0.  0.
         14    1    1    2    0    0  0.21381153564E-01  0.13045449353E-01  0.55236379643E-02  0.25648548748E-01  0.00000000000E+00 0. -1.
     999901    1    3    3    0    0  0.86329556823E-01 -0.60808676138E-02  0.66741912422E-01  0.88676053825E+00  0.88000000000E+00 0.  1.
        -11    1    4    4    0    0 -0.33434475699E-01  0.73005233621E-02 -0.23866768712E-01  0.41725838234E-01  0.51100000000E-03 0. -1.
         11    1    4    4    0    0 -0.74276234688E-01 -0.14265105101E-01 -0.48398781674E-01  0.89795074762E-01  0.51100000000E-03 0.  1.
</event>
<event>
 8    1  0.1083484E+005  0.1043930E+01  0.7957747E-01            NaN
         13   -1    0    0    0    0  0.00000000000E+00  0.00000000000E+00  0.74505805969E-08  0.10566000000E+00  0.10566000000E+00 0.  1.
     999900   -1    0    0    0    0 -0.00000000000E+00 -0.00000000000E+00 -0.74505805969E-08  0.93827000000E+00  0.93827000000E+00 0.  1.
     999902    2    1    2    0    0 -0.14533157732E-01 -0.11382503665E-01  0.14615327276E-01  0.10203846851E+01  0.10201129955E+01 0.  0.
     999903    2    3    3    0    0  0.99281746140E-01  0.68645034456E-01 -0.37515444836E-01  0.12792972453E+00  0.19738286295E-01 0.  0.
         14    1    1    2    0    0  0.14533157732E-01  0.11382503665E-01 -0.14615327276E-01  0.23545314921E-01  0.00000000000E+00 0. -1.
     999901    1    3    3    0    0 -0.11381490387E+00 -0.80027538122E-01  0.52130772112E-01  0.89245496055E+00  0.88000000000E+00 0. -1.
        -11    1    4    4    0    0  0.37851444558E-01  0.29094869735E-01 -0.51561756013E-02  0.48021771810E-01  0.51100000000E-03 0. -1.
         11    1    4    4    0    0  0.61430301582E-01  0.39550164722E-01 -0.32359269235E-01  0.79907952723E-01  0.51100000000E-03 0.  1.
</event>
<event>
 8    1  0.1083484E+005  0.1043930E+01  0.7957747E-01            NaN
         13   -1    0    0    0    0  0.00000000000E+00  0.00000000000E+00  0.74505805969E-08  0.10566000000E+00  0.10566000000E+00 0.  1.
     999900   -1    0    0    0    0 -0.00000000000E+00 -0.00000000000E+00 -0.74505805969E-08  0.93827000000E+00  0.93827000000E+00 0. -1.
     999902    2    1    2    0    0  0.28986824913E-02  0.20132930613E-01  0.11326235711E-01  0.10206486583E+01  0.10203830961E+01 0.  0.
     999903    2    3    3    0    0  0.10806833212E+00 -0.61177228066E-01  0.33950510011E-01  0.13037687122E+00  0.20593051674E-01 0.  0.
         14    1    1    2    0    0 -0.28986824913E-02 -0.20132930613E-01 -0.11326235711E-01  0.23281341684E-01  0.00000000000E+00 0.  1.
     999901    1    3    3    0    0 -0.10516964963E+00  0.81310158679E-01 -0.22624274300E-01  0.89027178709E+00  0.88000000000E+00 0.  1.
        -11    1    4    4    0    0  0.67646641461E-01 -0.27179539395E-01  0.22860839139E-01  0.76404676230E-01  0.51100000000E-03 0.  1.
         11    1    4    4    0    0  0.40421690664E-01 -0.33997688671E-01  0.11089670873E-01  0.53972194991E-01  0.51100000000E-03 0. -1.
</event>
<event>
 8    1  0.1083484E+005  0.1043930E+01  0.7957747E-01            NaN
         13   -1    0    0    0    0  0.00000000000E+00  0.00000000000E+00  0.74505805969E-08  0.10566000000E+00  0.10566000000E+00 0. -1.
     999900   -1    0    0    0    0 -0.00000000000E+00 -0.00000000000E+00 -0.74505805969E-08  0.93827000000E+00  0.93827000000E+00 0.  1.
     999902    2    1    2    0    0  0.11131930174E-01 -0.89957981926E-02  0.18127222166E-01  0.10208336705E+01  0.10205723602E+01 0.  0.
     999903    2    3    3    0    0 -0.62979038432E-01  0.10681292391E+00  0.33261637290E-01  0.13002889595E+00  0.20635340299E-01 0.  0.
         14    1    1    2    0    0 -0.11131930174E-01  0.89957981926E-02 -0.18127222166E-01  0.23096329535E-01  0.00000000000E+00 0.  1.
     999901    1    3    3    0    0  0.74110968606E-01 -0.11580872211E+00 -0.15134415123E-01  0.89080477452E+00  0.88000000000E+00 0. -1.
        -11    1    4    4    0    0 -0.16116637845E-01  0.30342940343E-01 -0.29145979786E-04  0.34361344773E-01  0.51100000000E-03 0.  1.
         11    1    4    4    0    0 -0.46862400587E-01  0.76469983570E-01  0.33290783269E-01  0.95667551174E-01  0.51100000000E-03 0. -1.
</event>
<event>
 8    1  0.1083484E+005  0.1043930E+01  0.7957747E-01            NaN
         13   -1    0    0    0    0  0.00000000000E+00  0.00000000000E+00  0.74505805969E-08  0.10566000000E+00  0.10566000000E+00 0.  1.
     999900   -1    0    0    0    0 -0.00000000000E+00 -0.00000000000E+00 -0.74505805969E-08  0.93827000000E+00  0.93827000000E+00 0.  1.
     999902    2    1    2    0    0  0.16653339716E-01 -0.14816256139E-01 -0.46436393711E-02  0.10211611933E+01  0.10209073240E+01 0.  0.
     999903    2    3    3    0    0  0.10778423326E+00 -0.68337593376E-01  0.34786186187E-01  0.13396105559E+00  0.21166437060E-01 0.  0.
         14    1    1    2    0    0 -0.16653339716E-01  0.14816256139E-01  0.46436393711E-02  0.22768806650E-01  0.00000000000E+00 0.  1.
     999901    1    3    3    0    0 -0.91130893542E-01  0.53521337237E-01 -0.39429825558E-01  0.88720013776E+00  0.88000000000E+00 0.  1.
        -11    1    4    4    0    0  0.56107649021E-01 -0.32319264169E-01  0.70578664179E-02  0.65135840476E-01  0.51100000000E-03 0.  1.
         11    1    4    4    0    0  0.51676584237E-01 -0.36018329207E-01  0.27728319769E-01  0.68825215114E-01  0.51100000000E-03 0. -1.
</event>
<event>
 8    1  0.1083484E+005  0.1043930E+01  0.7957747E-01            NaN
         13   -1    0    0    0    0  0.00000000000E+00  0.00000000000E+00  0.74505805969E-08  0.10566000000E+00  0.10566000000E+00 0.  1.
     999900   -1    0    0    0    0 -0.00000000000E+00 -0.00000000000E+00 -0.74505805969E-08  0.93827000000E+00  0.93827000000E+00 0.  1.
     999902    2    1    2    0    0 -0.30092648126E-02  0.19503377405E-01 -0.13425846145E-01  0.10200618046E+01  0.10197825232E+01 0.  0.
     999903    2    3    3    0    0 -0.27316259662E-01 -0.12222853598E+00  0.12933647363E-01  0.12800037841E+00  0.23039630850E-01 0.  0.
         14    1    1    2    0    0  0.30092648126E-02 -0.19503377405E-01  0.13425846145E-01  0.23868195357E-01  0.00000000000E+00 0.  1.
     999901    1    3    3    0    0  0.24306994849E-01  0.14173191339E+00 -0.26359493508E-01  0.89206142623E+00  0.88000000000E+00 0. -1.
        -11    1    4    4    0    0 -0.79166690316E-02 -0.51463930343E-01 -0.54470691846E-02  0.52355911401E-01  0.51100000000E-03 0. -1.
         11    1    4    4    0    0 -0.19399590630E-01 -0.70764605637E-01  0.18380716547E-01  0.75644467011E-01  0.51100000000E-03 0.  1.
</event>
<event>
 8    1  0.1083484E+005  0.1043930E+01  0.7957747E-01            NaN
         13   -1    0    0    0    0  0.00000000000E+00  0.00000000000E+00  0.74505805969E-08  0.10566000000E+00  0.10566000000E+00 0. -1.
     999900   -1    0    0    0    0 -0.00000000000E+00 -0.00000000000E+00 -0.74505805969E-08  0.93827000000E+00  0.93827000000E+00 0.  1.
     999902    2    1    2    0    0 -0.10858834800E-01 -0.19581863416E-01 -0.37333881481E-03  0.10215357362E+01  0.10212902415E+01 0.  0.
     999903    2    3    3    0    0 -0.11255848815E+00 -0.69428797264E-01  0.10353726773E-01  0.13421245453E+00  0.20396375860E-01 0.  0.
         14    1    1    2    0    0  0.10858834800E-01  0.19581863416E-01  0.37333881481E-03  0.22394263773E-01  0.00000000000E+00 0. -1.
     999901    1    3    3    0    0  0.10169965335E+00  0.49846933848E-01 -0.10727065588E-01  0.88732328170E+00  0.88000000000E+00 0.  1.
        -11    1    4    4    0    0 -0.78942338266E-01 -0.54925924244E-01  0.36144212232E-04  0.96171785636E-01  0.51100000000E-03 0.  1.
         11    1    4    4    0    0 -0.33616149886E-01 -0.14502873020E-01  0.10317582561E-01  0.38040668893E-01  0.51100000000E-03 0. -1.
</event>
<event>
 8    1  0.1083484E+005  0.1043930E+01  0.7957747E-01            NaN
         13   -1    0    0    0    0  0.00000000000E+00  0.00000000000E+00  0.74505805969E-08  0.10566000000E+00  0.10566000000E+00 0. -1.
     999900   -1    0    0    0    0 -0.00000000000E+00 -0.00000000000E+00 -0.74505805969E-08  0.93827000000E+00  0.93827000000E+00 0.  1.
     999902    2    1    2    0    0 -0.19047696382E-01  0.56092876502E-02  0.13788154403E-02  0.10240257297E+01  0.10238322690E+01 0.  0.
     999903    2    3    3    0    0  0.12254633519E+00 -0.34983297810E-01 -0.25035334280E-01  0.13139235864E+00  0.19893429846E-01 0.  0.
         14    1    1    2    0    0  0.19047696382E-01 -0.56092876502E-02 -0.13788154403E-02  0.19904270331E-01  0.00000000000E+00 0. -1.
     999901    1    3    3    0    0 -0.14159403158E+00  0.40592585460E-01  0.26414149721E-01  0.89263337103E+00  0.88000000000E+00 0. -1.
        -11    1    4    4    0    0  0.72936568592E-01 -0.10599972825E-01 -0.14391437849E-01  0.75096451755E-01  0.51100000000E-03 0.  1.
         11    1    4    4    0    0  0.49609766602E-01 -0.24383324985E-01 -0.10643896432E-01  0.56295906883E-01  0.51100000000E-03 0. -1.
</event>
<event>
 8    1  0.1083484E+005  0.1043930E+01  0.7957747E-01            NaN
         13   -1    0    0    0    0  0.00000000000E+00  0.00000000000E+00  0.74505805969E-08  0.10566000000E+00  0.10566000000E+00 0. -1.
     999900   -1    0    0    0    0 -0.00000000000E+00 -0.00000000000E+00 -0.74505805969E-08  0.93827000000E+00  0.93827000000E+00 0. -1.
     999902    2    1    2    0    0  0.54163079453E-02 -0.67956115740E-03  0.24095093059E-01  0.10192242981E+01  0.10189248246E+01 0.  0.
     999903    2    3    3    0    0  0.11459690667E+00 -0.56983423205E-01 -0.11203021976E-01  0.12999064777E+00  0.19811594276E-01 0.  0.
         14    1    1    2    0    0 -0.54163079453E-02  0.67956115740E-03 -0.24095093059E-01  0.24705701865E-01  0.00000000000E+00 0.  1.
     999901    1    3    3    0    0 -0.10918059872E+00  0.56303862048E-01  0.35298115035E-01  0.88923365037E+00  0.88000000000E+00 0. -1.
        -11    1    4    4    0    0  0.56791150946E-01 -0.18217664453E-01 -0.92791274989E-02  0.60361257873E-01  0.51100000000E-03 0.  1.
         11    1    4    4    0    0  0.57805755722E-01 -0.38765758752E-01 -0.19238944776E-02  0.69629389895E-01  0.51100000000E-03 0. -1.
</event>
<event>
 8    1  0.1083484E+005  0.1043930E+01  0.7957747E-01            NaN
         13   -1    0    0    0    0  0.00000000000E+00  0.00000000000E+00  0.74505805969E-08  0.10566000000E+00  0.10566000000E+00 0.  1.
     999900   -1    0    0    0    0 -0.00000000000E+00 -0.00000000000E+00 -0.74505805969E-08  0.93827000000E+00  0.93827000000E+00 0.  1.
     999902    2    1    2    0    0 -0.91937367030E-02  0.22404748102E-01 -0.66528282101E-03  0.10197031526E+01  0.10194153125E+01 0.  0.
     999903    2    3    3    0    0  0.51162674492E-01 -0.98194793828E-01 -0.60029834399E-01  0.12745246148E+00  0.19511845697E-01 0.  0.
         14    1    1    2    0    0  0.91937367030E-02 -0.22404748102E-01  0.66528282101E-03  0.24226847366E-01  0.00000000000E+00 0.  1.
     999901    1    3    3    0    0 -0.60356411194E-01  0.12059954193E+00  0.59364551578E-01  0.89225069116E+00  0.88000000000E+00 0. -1.
        -11    1    4    4    0    0  0.47878481864E-01 -0.97761430894E-01 -0.56745623012E-01  0.12275981935E+00  0.51100000000E-03 0.  1.
         11    1    4    4    0    0  0.32841926278E-02 -0.43336293378E-03 -0.32842113875E-02  0.46926421221E-02  0.51100000000E-03 0. -1.
</event>
<event>
 8    1  0.1083484E+005  0.1043930E+01  0.7957747E-01            NaN
         13   -1    0    0    0    0  0.00000000000E+00  0.00000000000E+00  0.74505805969E-08  0.10566000000E+00  0.10566000000E+00 0.  1.
     999900   -1    0    0    0    0 -0.00000000000E+00 -0.00000000000E+00 -0.74505805969E-08  0.93827000000E+00  0.93827000000E+00 0.  1.
     999902    2    1    2    0    0  0.83079925334E-02 -0.72893291219E-02 -0.20877493455E-01  0.10203074093E+01  0.10200339125E+01 0.  0.
     999903    2    3    3    0    0  0.54068428074E-02  0.90258838753E-01 -0.93877810804E-01  0.13190822645E+00  0.20269309878E-01 0.  0.
         14    1    1    2    0    0 -0.83079925334E-02  0.72893291219E-02  0.20877493455E-01  0.23622590712E-01  0.00000000000E+00 0.  1.
     999901    1    3    3    0    0  0.29011497259E-02 -0.97548167875E-01  0.73000317349E-01  0.88839918283E+00  0.88000000000E+00 0. -1.
        -11    1    4    4    0    0 -0.36674914549E-02  0.71306534155E-01 -0.68386527257E-01  0.98868855248E-01  0.51100000000E-03 0. -1.
         11    1    4    4    0    0  0.90743342623E-02  0.18952304598E-01 -0.25491283547E-01  0.33039371207E-01  0.51100000000E-03 0.  1.
</event>
<event>
 8    1  0.1083484E+005  0.1043930E+01  0.7957747E-01            NaN
         13   -1    0    0    0    0  0.00000000000E+00  0.00000000000E+00  0.74505805969E-08  0.10566000000E+00  0.10566000000E+00 0.  1.
     999900   -1    0    0    0    0 -0.00000000000E+00 -0.00000000000E+00 -0.74505805969E-08  0.93827000000E+00  0.93827000000E+00 0.  1.
     999902    2    1    2    0    0  0.15680599432E-01  0.99360839121E-02 -0.14691433444E-01  0.10202562766E+01  0.10199815806E+01 0.  0.
     999903    2    3    3    0    0  0.47157470355E-01  0.73022457679E-01 -0.99176864568E-01  0.13340314784E+00  0.20105796471E-01 0.  0.
         14    1    1    2    0    0 -0.15680599432E-01 -0.99360839121E-02  0.14691433444E-01  0.23673723381E-01  0.00000000000E+00 0.  1.
     999901    1    3    3    0    0 -0.31476870923E-01 -0.63086373766E-01  0.84485431124E-01  0.88685312878E+00  0.88000000000E+00 0. -1.
        -11    1    4    4    0    0  0.17518028385E-01  0.29791884475E-01 -0.25367426525E-01  0.42874294730E-01  0.51100000000E-03 0. -1.
         11    1    4    4    0    0  0.29639441969E-01  0.43230573204E-01 -0.73809438043E-01  0.90528853107E-01  0.51100000000E-03 0.  1.
</event>
<event>
 8    1  0.1083484E+005  0.1043930E+01  0.7957747E-01            NaN
         13   -1    0    0    0    0  0.00000000000E+00  0.00000000000E+00  0.74505805969E-08  0.10566000000E+00  0.10566000000E+00 0.  1.
     999900   -1    0    0    0    0 -0.00000000000E+00 -0.00000000000E+00 -0.74505805969E-08  0.93827000000E+00  0.93827000000E+00 0.  1.
     999902    2    1    2    0    0 -0.53289235216E-02 -0.25270385121E-02  0.20723069030E-01  0.10223840273E+01  0.10221569695E+01 0.  0.
     999903    2    3    3    0    0  0.40275814436E-01  0.46968244984E-01  0.11770362765E+00  0.13450182568E+00  0.20209895663E-01 0.  0.
         14    1    1    2    0    0  0.53289235216E-02  0.25270385121E-02 -0.20723069030E-01  0.21545972700E-01  0.00000000000E+00 0. -1.
     999901    1    3    3    0    0 -0.45604737958E-01 -0.49495283497E-01 -0.96980558619E-01  0.88788220163E+00  0.88000000000E+00 0.  1.
        -11    1    4    4    0    0  0.16427731366E-01  0.28410527082E-01  0.44417567236E-01  0.55228704557E-01  0.51100000000E-03 0. -1.
         11    1    4    4    0    0  0.23848083071E-01  0.18557717903E-01  0.73286060414E-01  0.79273121119E-01  0.51100000000E-03 0.  1.
</event>
<event>
 8    1  0.1083484E+005  0.1043930E+01  0.7957747E-01            NaN
         13   -1    0    0    0    0  0.00000000000E+00  0.00000000000E+00  0.74505805969E-08  0.10566000000E+00  0.10566000000E+00 0.  1.
     999900   -1    0    0    0    0 -0.00000000000E+00 -0.00000000000E+00 -0.74505805969E-08  0.93827000000E+00  0.93827000000E+00 0.  1.
     999902    2    1    2    0    0  0.18877412394E-01  0.67717255760E-02 -0.12427123037E-01  0.10203366460E+01  0.10200638337E+01 0.  0.
     999903    2    3    3    0    0 -0.54939522773E-01 -0.40685618276E-02  0.11421530859E+00  0.12814565903E+00  0.18473463522E-01 0.  0.
         14    1    1    2    0    0 -0.18877412394E-01 -0.67717255760E-02  0.12427123037E-01  0.23593354000E-01  0.00000000000E+00 0.  1.
     999901    1    3    3    0    0  0.73816935167E-01  0.10840287404E-01 -0.12664243162E+00  0.89219098697E+00  0.88000000000E+00 0.  1.
        -11    1    4    4    0    0 -0.46190565560E-01 -0.65463883283E-02  0.78778930278E-01  0.91557656827E-01  0.51100000000E-03 0.  1.
         11    1    4    4    0    0 -0.87489572128E-02  0.24778265006E-02  0.35436378308E-01  0.36588002201E-01  0.51100000000E-03 0. -1.
</event>
<event>
 8    1  0.1083484E+005  0.1043930E+01  0.7957747E-01            NaN
         13   -1    0    0    0    0  0.00000000000E+00  0.00000000000E+00  0.74505805969E-08  0.10566000000E+00  0.10566000000E+00 0. -1.
     999900   -1    0    0    0    0 -0.00000000000E+00 -0.00000000000E+00 -0.74505805969E-08  0.93827000000E+00  0.93827000000E+00 0.  1.
     999902    2    1    2    0    0  0.69775099788E-02  0.39179541750E-02  0.22330188229E-01  0.10202092640E+01  0.10199334630E+01 0.  0.
     999903    2    3    3    0    0 -0.47962085415E-01  0.35000821409E-01 -0.11150811474E+00  0.12785440458E+00  0.19679176285E-01 0.  0.
         14    1    1    2    0    0 -0.69775099788E-02 -0.39179541750E-02 -0.22330188229E-01  0.23720736008E-01  0.00000000000E+00 0.  1.
     999901    1    3    3    0    0  0.54939595394E-01 -0.31082867234E-01  0.13383830297E+00  0.89235485941E+00  0.88000000000E+00 0. -1.
        -11    1    4    4    0    0 -0.32085698747E-01  0.31090849450E-01 -0.92843858010E-01  0.10303579997E+00  0.51100000000E-03 0.  1.
         11    1    4    4    0    0 -0.15876386668E-01  0.39099719585E-02 -0.18664256735E-01  0.24818604611E-01  0.51100000000E-03 0. -1.
</event>
<event>
 8    1  0.1083484E+005  0.1043930E+01  0.7957747E-01            NaN
         13   -1    0    0    0    0  0.00000000000E+00  0.00000000000E+00  0.74505805969E-08  0.10566000000E+00  0.10566000000E+00 0.  1.
     999900   -1    0    0    0    0 -0.00000000000E+00 -0.00000000000E+00 -0.74505805969E-08  0.93827000000E+00  0.93827000000E+00 0.  1.
     999902    2    1    2    0    0  0.22313700782E-01  0.34196301086E-03 -0.76715734813E-02  0.10203318810E+01  0.10200589572E+01 0.  0.
     999903    2    3    3    0    0  0.64089511390E-01  0.72805158402E-01  0.86409262316E-01  0.13137331238E+00  0.19604337048E-01 0.  0.
         14    1    1    2    0    0 -0.22313700782E-01 -0.34196301086E-03  0.76715734813E-02  0.23598119013E-01  0.00000000000E+00 0.  1.
     999901    1    3    3    0    0 -0.41775810608E-01 -0.72463195391E-01 -0.94080835797E-01  0.88895856861E+00  0.88000000000E+00 0.  1.
        -11    1    4    4    0    0  0.16217136030E-01  0.29776099493E-01  0.22701156397E-01  0.40807048714E-01  0.51100000000E-03 0.  1.
         11    1    4    4    0    0  0.47872375360E-01  0.43029058909E-01  0.63708105920E-01  0.90566263664E-01  0.51100000000E-03 0. -1.
</event>
<event>
 8    1  0.1083484E+005  0.1043930E+01  0.7957747E-01            NaN
         13   -1    0    0    0    0  0.00000000000E+00  0.00000000000E+00  0.74505805969E-08  0.10566000000E+00  0.10566000000E+00 0. -1.
     999900   -1    0    0    0    0 -0.00000000000E+00 -0.00000000000E+00 -0.74505805969E-08  0.93827000000E+00  0.93827000000E+00 0.  1.
     999902    2    1    2    0    0 -0.99481840024E-02 -0.15525382183E-01  0.14683527816E-01  0.10203586223E+01  0.10200863239E+01 0.  0.
     999903    2    3    3    0    0 -0.83745144404E-03 -0.11672061437E+00  0.61196204331E-01  0.13329215945E+00  0.19935425834E-01 0.  0.
         14    1    1    2    0    0  0.99481840024E-02  0.15525382183E-01 -0.14683527816E-01  0.23571377686E-01  0.00000000000E+00 0. -1.
     999901    1    3    3    0    0 -0.91107325584E-02  0.10119523218E+00 -0.46512676515E-01  0.88706646287E+00  0.88000000000E+00 0.  1.
        -11    1    4    4    0    0  0.89343710245E-02 -0.45543231459E-01  0.27340645552E-01  0.53868181123E-01  0.51100000000E-03 0. -1.
         11    1    4    4    0    0 -0.97718224686E-02 -0.71177382907E-01  0.33855558779E-01  0.79423978325E-01  0.51100000000E-03 0.  1.
</event>
<event>
 8    1  0.1083484E+005  0.1043930E+01  0.7957747E-01            NaN
         13   -1    0    0    0    0  0.00000000000E+00  0.00000000000E+00  0.74505805969E-08  0.10566000000E+00  0.10566000000E+00 0.  1.
     999900   -1    0    0    0    0 -0.00000000000E+00 -0.00000000000E+00 -0.74505805969E-08  0.93827000000E+00  0.93827000000E+00 0.  1.
     999902    2    1    2    0    0  0.10462363137E-01  0.12235102767E-01 -0.17709061638E-01  0.10199973937E+01  0.10197165849E+01 0.  0.
     999903    2    3    3    0    0  0.84797676387E-01  0.95381326571E-03 -0.10031185264E+00  0.13293695188E+00  0.20450176389E-01 0.  0.
         14    1    1    2    0    0 -0.10462363137E-01 -0.12235102767E-01  0.17709061638E-01  0.23932606340E-01  0.00000000000E+00 0.  1.
     999901    1    3    3    0    0 -0.74335313249E-01  0.11281289501E-01  0.82602791004E-01  0.88706044178E+00  0.88000000000E+00 0.  1.
        -11    1    4    4    0    0  0.75704300016E-01  0.73868887832E-02 -0.86573457313E-01  0.11524292516E+00  0.51100000000E-03 0. -1.
         11    1    4    4    0    0  0.90933763713E-02 -0.64330755174E-02 -0.13738395329E-01  0.17694026722E-01  0.51100000000E-03 0.  1.
</event>
<event>
 8    1  0.1083484E+005  0.1043930E+01  0.7957747E-01            NaN
         13   -1    0    0    0    0  0.00000000000E+00  0.00000000000E+00  0.74505805969E-08  0.10566000000E+00  0.10566000000E+00 0.  1.
     999900   -1    0    0    0    0 -0.00000000000E+00 -0.00000000000E+00 -0.74505805969E-08  0.93827000000E+00  0.93827000000E+00 0.  1.
     999902    2    1    2    0    0 -0.16613258989E-02  0.16652400430E-01  0.60690049852E-02  0.10261284477E+01  0.10259740230E+01 0.  0.
     999903    2    3    3    0    0 -0.11953667789E+00 -0.12013373190E-01  0.60689636546E-01  0.13612859454E+00  0.20357400873E-01 0.  0.
         14    1    1    2    0    0  0.16613258989E-02 -0.16652400430E-01 -0.60690049852E-02  0.17801552329E-01  0.00000000000E+00 0. -1.
     999901    1    3    3    0    0  0.11787535199E+00  0.28665773620E-01 -0.54620631561E-01  0.88999985313E+00  0.88000000000E+00 0.  1.
        -11    1    4    4    0    0 -0.35088465490E-02 -0.35811431603E-02  0.51863623189E-02  0.72316018655E-02  0.51100000000E-03 0.  1.
         11    1    4    4    0    0 -0.11602783134E+00 -0.84322300295E-02  0.55503274227E-01  0.12889699267E+00  0.51100000000E-03 0. -1.
</event>
<event>
 8    1  0.1083484E+005  0.1043930E+01  0.7957747E-01            NaN
         13   -1    0    0    0    0  0.00000000000E+00  0.00000000000E+00  0.74505805969E-08  0.10566000000E+00  0.10566000000E+00 0.  1.
     999900   -1    0    0    0    0 -0.00000000000E+00 -0.00000000000E+00 -0.74505805969E-08  0.93827000000E+00  0.93827000000E+00 0. -1.
     999902    2    1    2    0    0  0.11230511316E-01 -0.20687495015E-01 -0.47380664396E-02  0.10199186254E+01  0.10196359431E+01 0.  0.
     999903    2    3    3    0    0  0.67877474600E-02  0.87782964274E-01  0.90738822645E-01  0.12812189130E+00  0.20730720246E-01 0.  0.
         14    1    1    2    0    0 -0.11230511316E-01  0.20687495015E-01  0.47380664396E-02  0.24011374555E-01  0.00000000000E+00 0. -1.
     999901    1    3    3    0    0  0.44427638563E-02 -0.10847045929E+00 -0.95476889085E-01  0.89179673415E+00  0.88000000000E+00 0. -1.
        -11    1    4    4    0    0 -0.48075384605E-02  0.60074810681E-01  0.57116377812E-01  0.83033951127E-01  0.51100000000E-03 0.  1.
         11    1    4    4    0    0  0.11595285920E-01  0.27708153593E-01  0.33622444834E-01  0.45087940169E-01  0.51100000000E-03 0. -1.
</event>
<event>
 8    1  0.1083484E+005  0.1043930E+01  0.7957747E-01            NaN
         13   -1    0    0    0    0  0.00000000000E+00  0.00000000000E+00  0.74505805969E-08  0.10566000000E+00  0.10566000000E+00 0.  1.
     999900   -1    0    0    0    0 -0.00000000000E+00 -0.00000000000E+00 -0.74505805969E-08  0.93827000000E+00  0.93827000000E+00 0.  1.
     999902    2    1    2    0    0  0.21417872855E-01 -0.97362921688E-02  0.56656931002E-02  0.10197303979E+01  0.10194432126E+01 0.  0.
     999903    2    3    3    0    0  0.68300105310E-01  0.90717543411E-01 -0.60628802353E-01  0.13030143677E+00  0.20199893077E-01 0.  0.
         14    1    1    2    0    0 -0.21417872855E-01  0.97362921688E-02 -0.56656931002E-02  0.24199602086E-01  0.00000000000E+00 0. -1.
     999901    1    3    3    0    0 -0.46882232455E-01 -0.10045383558E+00  0.66294495453E-01  0.88942896115E+00  0.88000000000E+00 0. -1.
        -11    1    4    4    0    0  0.66022255241E-01  0.77437031446E-01 -0.51843817533E-01  0.11420803196E+00  0.51100000000E-03 0.  1.
         11    1    4    4    0    0  0.22778500689E-02  0.13280511965E-01 -0.87849848201E-02  0.16093404807E-01  0.51100000000E-03 0. -1.
</event>
<event>
 8    1  0.1083484E+005  0.1043930E+01  0.7957747E-01            NaN
         13   -1    0    0    0    0  0.00000000000E+00  0.00000000000E+00  0.74505805969E-08  0.10566000000E+00  0.10566000000E+00 0.  1.
     999900   -1    0    0    0    0 -0.00000000000E+00 -0.00000000000E+00 -0.74505805969E-08  0.93827000000E+00  0.93827000000E+00 0. -1.
     999902    2    1    2    0    0  0.10428383647E-01  0.17071968426E-01  0.12287655241E-01  0.10204525691E+01  0.10201824621E+01 0.  0.
     999903    2    3    3    0    0 -0.97500862718E-01 -0.89185638569E-02 -0.81208412248E-01  0.12856370569E+00  0.18651037239E-01 0.  0.
         14    1    1    2    0    0 -0.10428383647E-01 -0.17071968426E-01 -0.12287655241E-01  0.23477430923E-01  0.00000000000E+00 0. -1.
     999901    1    3    3    0    0  0.10792924637E+00  0.25990532283E-01  0.93496067489E-01  0.89188886338E+00  0.88000000000E+00 0. -1.
        -11    1    4    4    0    0 -0.12393036861E-01 -0.72474082367E-02 -0.91309068942E-02  0.17021952606E-01  0.51100000000E-03 0. -1.
         11    1    4    4    0    0 -0.85107825857E-01 -0.16711556202E-02 -0.72077505354E-01  0.11154175309E+00  0.51100000000E-03 0.  1.
</event>
<event>
 8    1  0.1083484E+005  0.1043930E+01  0.7957747E-01            NaN
         13   -1    0    0    0    0  0.00000000000E+00  0.00000000000E+00  0.74505805969E-08  0.10566000000E+00  0.10566000000E+00 0. -1.
     999900   -1    0    0    0    0 -0.00000000000E+00 -0.00000000000E+00 -0.74505805969E-08  0.93827000000E+00  0.93827000000E+00 0. -1.
     999902    2    1    2    0    0 -0.22961054238E-01 -0.10467579055E-01 -0.16643851682E-02  0.10186406663E+01  0.10183266944E+01 0.  0.
     999903    2    3    3    0    0  0.36129623593E-02  0.90931859522E-01 -0.88101298644E-01  0.12821415918E+00  0.19884044314E-01 0.  0.
         14    1    1    2    0    0  0.22961054238E-01  0.10467579055E-01  0.16643851682E-02  0.25289333739E-01  0.00000000000E+00 0.  1.
     999901    1    3    3    0    0 -0.26574016597E-01 -0.10139943858E+00  0.86436913476E-01  0.89042650708E+00  0.88000000000E+00 0.  1.
        -11    1    4    4    0    0  0.77491133544E-02  0.53287900045E-01 -0.40482426724E-01  0.67370149498E-01  0.51100000000E-03 0.  1.
         11    1    4    4    0    0 -0.41361509951E-02  0.37643959477E-01 -0.47618871920E-01  0.60844009681E-01  0.51100000000E-03 0. -1.
</event>
<event>
 8    1  0.1083484E+005  0.1043930E+01  0.7957747E-01            NaN
         13   -1    0    0    0    0  0.00000000000E+00  0.00000000000E+00  0.74505805969E-08  0.10566000000E+00  0.10566000000E+00 0. -1.
     999900   -1    0    0    0    0 -0.00000000000E+00 -0.00000000000E+00 -0.74505805969E-08  0.93827000000E+00  0.93827000000E+00 0. -1.
     999902    2    1    2    0    0  0.32834287614E-02  0.61701302963E-02 -0.22538309047E-01  0.10203328225E+01  0.10200599207E+01 0.  0.
     999903    2    3    3    0    0  0.10657615016E+00  0.74289558325E-01 -0.15667986963E-02  0.13142931421E+00  0.19844281671E-01 0.  0.
         14    1    1    2    0    0 -0.32834287614E-02 -0.61701302963E-02  0.22538309047E-01  0.23597177522E-01  0.00000000000E+00 0. -1.
     999901    1    3    3    0    0 -0.10329272140E+00 -0.68119428029E-01 -0.20971510351E-01  0.88890350827E+00  0.88000000000E+00 0.  1.
        -11    1    4    4    0    0  0.87189545451E-01  0.67845583122E-01  0.28802413794E-02  0.11051514329E+00  0.51100000000E-03 0.  1.
         11    1    4    4    0    0  0.19386604712E-01  0.64439752025E-02 -0.44470400757E-02  0.20914170916E-01  0.51100000000E-03 0. -1.
</event>
<event>
 8    1  0.1083484E+005  0.1043930E+01  0.7957747E-01            NaN
         13   -1    0    0    0    0  0.00000000000E+00  0.00000000000E+00  0.74505805969E-08  0.10566000000E+00  0.10566000000E+00 0.  1.
     999900   -1    0    0    0    0 -0.00000000000E+00 -0.00000000000E+00 -0.74505805969E-08  0.93827000000E+00  0.93827000000E+00 0. -1.
     999902    2    1    2    0    0 -0.89866801493E-03 -0.17995690056E-01  0.11797090209E-01  0.10223934310E+01  0.10221665735E+01 0.  0.
     999903    2    3    3    0    0  0.11657051621E+00  0.56728171005E-01 -0.55575494290E-02  0.13127960657E+00  0.19916779652E-01 0.  0.
         14    1    1    2    0    0  0.89866801493E-03  0.17995690056E-01 -0.11797090209E-01  0.21536568951E-01  0.00000000000E+00 0.  1.
     999901    1    3    3    0    0 -0.11746918422E+00 -0.74723861062E-01  0.17354639638E-01  0.89111382448E+00  0.88000000000E+00 0. -1.
        -11    1    4    4    0    0  0.88370254277E-01  0.33391880601E-01 -0.61188345843E-02  0.94667950166E-01  0.51100000000E-03 0.  1.
         11    1    4    4    0    0  0.28200261932E-01  0.23336290405E-01  0.56128515529E-03  0.36611656407E-01  0.51100000000E-03 0. -1.
</event>
<event>
 8    1  0.1083484E+005  0.1043930E+01  0.7957747E-01            NaN
         13   -1    0    0    0    0  0.00000000000E+00  0.00000000000E+00  0.74505805969E-08  0.10566000000E+00  0.10566000000E+00 0. -1.
     999900   -1    0    0    0    0 -0.00000000000E+00 -0.00000000000E+00 -0.74505805969E-08  0.93827000000E+00  0.93827000000E+00 0. -1.
     999902    2    1    2    0    0 -0.19239366447E-01 -0.13133426105E-01  0.33422366057E-02  0.10203968181E+01  0.10201254118E+01 0.  0.
     999903    2    3    3    0    0  0.66037081985E-01 -0.10451942100E+00 -0.37151422118E-01  0.13064224012E+00  0.20048969423E-01 0.  0.
         14    1    1    2    0    0  0.19239366447E-01  0.13133426105E-01 -0.33422366057E-02  0.23533181852E-01  0.00000000000E+00 0. -1.
     999901    1    3    3    0    0 -0.85276448432E-01  0.91385994898E-01  0.40493658724E-01  0.88975457803E+00  0.88000000000E+00 0. -1.
        -11    1    4    4    0    0  0.24240363310E-01 -0.23309177778E-01 -0.61682923347E-02  0.34193887369E-01  0.51100000000E-03 0. -1.
         11    1    4    4    0    0  0.41796718675E-01 -0.81210243226E-01 -0.30983129783E-01  0.96448352754E-01  0.51100000000E-03 0.  1.
</event>
<event>
 8    1  0.1083484E+005  0.1043930E+01  0.7957747E-01            NaN
         13   -1    0    0    0    0  0.00000000000E+00  0.00000000000E+00  0.74505805969E-08  0.10566000000E+00  0.10566000000E+00 0.  1.
     999900   -1    0    0    0    0 -0.00000000000E+00 -0.00000000000E+00 -0.74505805969E-08  0.93827000000E+00  0.93827000000E+00 0.  1.
     999902    2    1    2    0    0 -0.88989118283E-02  0.11705425328E-01 -0.18335782994E-01  0.10204266268E+01  0.10201559156E+01 0.  0.
     999903    2    3    3    0    0 -0.16544806965E-01 -0.12612596871E+00 -0.15060252329E-01  0.12965915883E+00  0.20079732243E-01 0.  0.
         14    1    1    2    0    0  0.88989118283E-02 -0.11705425328E-01  0.18335782994E-01  0.23503373202E-01  0.00000000000E+00 0. -1.
     999901    1    3    3    0    0  0.76458951368E-02  0.13783139404E+00 -0.32755306652E-02  0.89076746797E+00  0.88000000000E+00 0.  1.
        -11    1    4    4    0    0 -0.78117063527E-02 -0.18919014544E-01 -0.75919890176E-02  0.21836924823E-01  0.51100000000E-03 0.  1.
         11    1    4    4    0    0 -0.87331006124E-02 -0.10720695417E+00 -0.74682633115E-02  0.10782223400E+00  0.51100000000E-03 0. -1.
</event>
<event>
 8    1  0.1083484E+005  0.1043930E+01  0.7957747E-01            NaN
         13   -1    0    0    0    0  0.00000000000E+00  0.00000000000E+00  0.74505805969E-08  0.10566000000E+00  0.10566000000E+00 0.  1.
     999900   -1    0    0    0    0 -0.00000000000E+00 -0.00000000000E+00 -0.74505805969E-08  0.93827000000E+00  0.93827000000E+00 0.  1.
     999902    2    1    2    0    0  0.42682484099E-02  0.22539855293E-01  0.27142115309E-02  0.10208295679E+01  0.10205681636E+01 0.  0.
     999903    2    3    3    0    0 -0.77819065801E-01  0.43014775205E-01  0.95300241332E-01  0.13193715456E+00  0.20474346558E-01 0.  0.
         14    1    1    2    0    0 -0.42682484099E-02 -0.22539855293E-01 -0.27142115309E-02  0.23100432146E-01  0.00000000000E+00 0. -1.
     999901    1    3    3    0    0  0.82087314211E-01 -0.20474919913E-01 -0.92586029801E-01  0.88889241330E+00  0.88000000000E+00 0.  1.
        -11    1    4    4    0    0 -0.13294824340E-01  0.96121979033E-02  0.30236553621E-01  0.34404316570E-01  0.51100000000E-03 0. -1.
         11    1    4    4    0    0 -0.64524241461E-01  0.33402577302E-01  0.65063687711E-01  0.97532837988E-01  0.51100000000E-03 0.  1.
</event>
<event>
 8    1  0.1083484E+005  0.1043930E+01  0.7957747E-01            NaN
         13   -1    0    0    0    0  0.00000000000E+00  0.00000000000E+00  0.74505805969E-08  0.10566000000E+00  0.10566000000E+00 0. -1.
     999900   -1    0    0    0    0 -0.00000000000E+00 -0.00000000000E+00 -0.74505805969E-08  0.93827000000E+00  0.93827000000E+00 0.  1.
     999902    2    1    2    0    0 -0.14004523732E-01 -0.10957731405E-01  0.18065701217E-01  0.10185810725E+01  0.10182656005E+01 0.  0.
     999903    2    3    3    0    0 -0.12410781650E+00  0.23428017507E-01  0.33332696079E-01  0.13092224398E+00  0.88285456816E-02 0.  0.
         14    1    1    2    0    0  0.14004523732E-01  0.10957731405E-01 -0.18065701217E-01  0.25348927452E-01  0.00000000000E+00 0.  1.
     999901    1    3    3    0    0  0.11010329277E+00 -0.34385748912E-01 -0.15266994862E-01  0.88765882857E+00  0.88000000000E+00 0.  1.
        -11    1    4    4    0    0 -0.91783112826E-01  0.18050755176E-01  0.28547881494E-01  0.97801902953E-01  0.51100000000E-03 0. -1.
         11    1    4    4    0    0 -0.32324703677E-01  0.53772623308E-02  0.47848145849E-02  0.33120341025E-01  0.51100000000E-03 0.  1.
</event>
<event>
 8    1  0.1083484E+005  0.1043930E+01  0.7957747E-01            NaN
         13   -1    0    0    0    0  0.00000000000E+00  0.00000000000E+00  0.74505805969E-08  0.10566000000E+00  0.10566000000E+00 0. -1.
     999900   -1    0    0    0    0 -0.00000000000E+00 -0.00000000000E+00 -0.74505805969E-08  0.93827000000E+00  0.93827000000E+00 0. -1.
     999902    2    1    2    0    0 -0.17100831172E-01 -0.46085627476E-02 -0.15267443164E-01  0.10205468416E+01  0.10202789245E+01 0.  0.
     999903    2    3    3    0    0 -0.58795019000E-01 -0.10908632318E+00  0.39841829726E-01  0.13167618749E+00  0.19863705386E-01 0.  0.
         14    1    1    2    0    0  0.17100831172E-01  0.46085627476E-02  0.15267443164E-01  0.23383158429E-01  0.00000000000E+00 0. -1.
     999901    1    3    3    0    0  0.41694187829E-01  0.10447776044E+00 -0.55109272890E-01  0.88887065408E+00  0.88000000000E+00 0. -1.
        -11    1    4    4    0    0 -0.35513906664E-01 -0.46011096939E-01  0.21603153494E-01  0.62009805434E-01  0.51100000000E-03 0. -1.
         11    1    4    4    0    0 -0.23281112336E-01 -0.63075226244E-01  0.18238676232E-01  0.69666382058E-01  0.51100000000E-03 0.  1.
</event>
<event>
 8    1  0.1083484E+005  0.1043930E+01  0.7957747E-01            NaN
         13   -1    0    0    0    0  0.00000000000E+00  0.00000000000E+00  0.74505805969E-08  0.10566000000E+00  0.10566000000E+00 0.  1.
     999900   -1    0    0    0    0 -0.00000000000E+00 -0.00000000000E+00 -0.74505805969E-08  0.93827000000E+00  0.93827000000E+00 0. -1.
     999902    2    1    2    0    0 -0.16149777545E-01  0.96549546546E-02  0.14443218984E-01  0.10202099655E+01  0.10199341810E+01 0.  0.
     999903    2    3    3    0    0 -0.56001216807E-01 -0.39855512994E-01 -0.10805576202E+00  0.12945442999E+00  0.18915695525E-01 0.  0.
         14    1    1    2    0    0  0.16149777545E-01 -0.96549546546E-02 -0.14443218984E-01  0.23720034544E-01  0.00000000000E+00 0. -1.
     999901    1    3    3    0    0  0.39851439262E-01  0.49510467648E-01  0.12249898101E+00  0.89075553547E+00  0.88000000000E+00 0.  1.
        -11    1    4    4    0    0 -0.35930538135E-01 -0.35964165598E-01 -0.77239903646E-01  0.92469933568E-01  0.51100000000E-03 0.  1.
         11    1    4    4    0    0 -0.20070678672E-01 -0.38913473961E-02 -0.30815858378E-01  0.36984496421E-01  0.51100000000E-03 0. -1.
</event>
<event>
 7    1  0.1083484E+005  0.1043930E+01  0.7957747E-01            NaN
         13   -1    0    0    0    0  0.00000000000E+00  0.00000000000E+00  0.74505805969E-08  0.10566000000E+00  0.10566000000E+00 0. -1.
     999900   -1    0    0    0    0 -0.00000000000E+00 -0.00000000000E+00 -0.74505805969E-08  0.93827000000E+00  0.93827000000E+00 0.  1.
     999902    2    1    2    0    0  0.23401184943E-01 -0.44820469370E-02 -0.16282482517E-02  0.10200478855E+01  0.10197682743E+01 0.  0.
         14    1    1    2    0    0 -0.23401184943E-01  0.44820469370E-02  0.16282482517E-02  0.23882114518E-01  0.00000000000E+00 0. -1.
     999901    1    3    3    0    0  0.95636902858E-01 -0.55764258233E-01  0.85172647534E-01  0.89101652598E+00  0.88000000000E+00 0. -1.
        -11    1    3    3    0    0 -0.38078274172E-01  0.42799349367E-01 -0.68696703090E-01  0.89449636146E-01  0.51100000000E-03 0.  1.
         11    1    3    3    0    0 -0.34157443743E-01  0.84828619289E-02 -0.18104192695E-01  0.39581723354E-01  0.51100000000E-03 0. -1.
</event>
<event>
 8    1  0.1083484E+005  0.1043930E+01  0.7957747E-01            NaN
         13   -1    0    0    0    0  0.00000000000E+00  0.00000000000E+00  0.74505805969E-08  0.10566000000E+00  0.10566000000E+00 0. -1.
     999900   -1    0    0    0    0 -0.00000000000E+00 -0.00000000000E+00 -0.74505805969E-08  0.93827000000E+00  0.93827000000E+00 0.  1.
     999902    2    1    2    0    0  0.45362826852E-02 -0.37714223845E-02  0.22897305603E-01  0.10202849563E+01  0.10200109333E+01 0.  0.
     999903    2    3    3    0    0  0.86837111202E-01 -0.91426149858E-01 -0.28792445409E-01  0.13060602097E+00  0.18152218623E-01 0.  0.
         14    1    1    2    0    0 -0.45362826852E-02  0.37714223845E-02 -0.22897305603E-01  0.23645043693E-01  0.00000000000E+00 0.  1.
     999901    1    3    3    0    0 -0.82300828517E-01  0.87654727474E-01  0.51689751011E-01  0.88967893534E+00  0.88000000000E+00 0. -1.
        -11    1    4    4    0    0  0.45490470908E-01 -0.48477492484E-01 -0.58962163708E-02  0.66741866242E-01  0.51100000000E-03 0.  1.
         11    1    4    4    0    0  0.41346640295E-01 -0.42948657374E-01 -0.22896229038E-01  0.63864154728E-01  0.51100000000E-03 0. -1.
</event>
<event>
 8    1  0.1083484E+005  0.1043930E+01  0.7957747E-01            NaN
         13   -1    0    0    0    0  0.00000000000E+00  0.00000000000E+00  0.74505805969E-08  0.10566000000E+00  0.10566000000E+00 0.  1.
     999900   -1    0    0    0    0 -0.00000000000E+00 -0.00000000000E+00 -0.74505805969E-08  0.93827000000E+00  0.93827000000E+00 0.  1.
     999902    2    1    2    0    0  0.13693803671E-01  0.64524520973E-02 -0.24642125411E-01  0.10150096137E+01  0.10145975198E+01 0.  0.
     999903    2    3    3    0    0  0.83964232344E-01 -0.51891203895E-01  0.73608210136E-01  0.12484387424E+00  0.20618801614E-01 0.  0.
         14    1    1    2    0    0 -0.13693803671E-01 -0.64524520973E-02  0.24642125411E-01  0.28920386267E-01  0.00000000000E+00 0.  1.
     999901    1    3    3    0    0 -0.70270428672E-01  0.58343655992E-01 -0.98250335547E-01  0.89016573950E+00  0.88000000000E+00 0.  1.
        -11    1    4    4    0    0  0.37170572208E-01 -0.32351112141E-01  0.28229026046E-01  0.56792472455E-01  0.51100000000E-03 0. -1.
         11    1    4    4    0    0  0.46793660136E-01 -0.19540091754E-01  0.45379184090E-01  0.68051401780E-01  0.51100000000E-03 0.  1.
</event>
<event>
 8    1  0.1083484E+005  0.1043930E+01  0.7957747E-01            NaN
         13   -1    0    0    0    0  0.00000000000E+00  0.00000000000E+00  0.74505805969E-08  0.10566000000E+00  0.10566000000E+00 0. -1.
     999900   -1    0    0    0    0 -0.00000000000E+00 -0.00000000000E+00 -0.74505805969E-08  0.93827000000E+00  0.93827000000E+00 0.  1.
     999902    2    1    2    0    0 -0.48421800762E-03 -0.67552193376E-02  0.22940880777E-01  0.10200103122E+01  0.10197298100E+01 0.  0.
     999903    2    3    3    0    0  0.67561194087E-01 -0.89465320816E-01  0.67284737957E-01  0.13240819597E+00  0.20883865167E-01 0.  0.
         14    1    1    2    0    0  0.48421800762E-03  0.67552193376E-02 -0.22940880777E-01  0.23919687836E-01  0.00000000000E+00 0.  1.
     999901    1    3    3    0    0 -0.68045412094E-01  0.82710101478E-01 -0.44343857180E-01  0.88760211619E+00  0.88000000000E+00 0.  1.
        -11    1    4    4    0    0  0.37220742515E-01 -0.48732176923E-01  0.48747525855E-01  0.78337673817E-01  0.51100000000E-03 0.  1.
         11    1    4    4    0    0  0.30340451571E-01 -0.40733143892E-01  0.18537212101E-01  0.54070522158E-01  0.51100000000E-03 0. -1.
</event>
<event>
 8    1  0.1083484E+005  0.1043930E+01  0.7957747E-01            NaN
         13   -1    0    0    0    0  0.00000000000E+00  0.00000000000E+00  0.74505805969E-08  0.10566000000E+00  0.10566000000E+00 0. -1.
     999900   -1    0    0    0    0 -0.00000000000E+00 -0.00000000000E+00 -0.74505805969E-08  0.93827000000E+00  0.93827000000E+00 0. -1.
     999902    2    1    2    0    0 -0.31679002051E-03 -0.10058192762E-01 -0.21568682168E-01  0.10201292511E+01  0.10198515644E+01 0.  0.
     999903    2    3    3    0    0  0.89655312839E-01  0.40083353533E-01 -0.85523453952E-01  0.13181659962E+00  0.20410889446E-01 0.  0.
         14    1    1    2    0    0  0.31679002051E-03  0.10058192762E-01  0.21568682168E-01  0.23800748896E-01  0.00000000000E+00 0. -1.
     999901    1    3    3    0    0 -0.89972102860E-01 -0.50141546294E-01  0.63954771784E-01  0.88831265149E+00  0.88000000000E+00 0.  1.
        -11    1    4    4    0    0  0.32651868556E-01  0.21782723039E-01 -0.43943992002E-01  0.58923400252E-01  0.51100000000E-03 0. -1.
         11    1    4    4    0    0  0.57003444283E-01  0.18300630494E-01 -0.41579461950E-01  0.72893199365E-01  0.51100000000E-03 0.  1.
</event>
<event>
 8    1  0.1083484E+005  0.1043930E+01  0.7957747E-01            NaN
         13   -1    0    0    0    0  0.00000000000E+00  0.00000000000E+00  0.74505805969E-08  0.10566000000E+00  0.10566000000E+00 0. -1.
     999900   -1    0    0    0    0 -0.00000000000E+00 -0.00000000000E+00 -0.74505805969E-08  0.93827000000E+00  0.93827000000E+00 0. -1.
     999902    2    1    2    0    0 -0.43265247131E-02  0.11186331748E-02  0.25058126739E-01  0.10184765155E+01  0.10181584026E+01 0.  0.
     999903    2    3    3    0    0 -0.50747197029E-01 -0.11285347178E+00 -0.27402082718E-01  0.12836607681E+00  0.20390964650E-01 0.  0.
         14    1    1    2    0    0  0.43265247131E-02 -0.11186331748E-02 -0.25058126739E-01  0.25453484475E-01  0.00000000000E+00 0.  1.
     999901    1    3    3    0    0  0.46420672316E-01  0.11397210496E+00  0.52460209457E-01  0.89011043871E+00  0.88000000000E+00 0.  1.
        -11    1    4    4    0    0 -0.32966946481E-01 -0.79333567818E-01 -0.95876061413E-02  0.86445461740E-01  0.51100000000E-03 0.  1.
         11    1    4    4    0    0 -0.17780250548E-01 -0.33519903965E-01 -0.17814476577E-01  0.41920615073E-01  0.51100000000E-03 0. -1.
</event>
<event>
 8    1  0.1083484E+005  0.1043930E+01  0.7957747E-01            NaN
         13   -1    0    0    0    0  0.00000000000E+00  0.00000000000E+00  0.74505805969E-08  0.10566000000E+00  0.10566000000E+00 0. -1.
     999900   -1    0    0    0    0 -0.00000000000E+00 -0.00000000000E+00 -0.74505805969E-08  0.93827000000E+00  0.93827000000E+00 0.  1.
     999902    2    1    2    0    0  0.36274455049E-02 -0.15535097923E-02  0.22462655054E-01  0.10211233644E+01  0.10208686413E+01 0.  0.
     999903    2    3    3    0    0  0.12592017175E+00 -0.17784536507E-01  0.29748042026E-01  0.13248843716E+00  0.22272417563E-01 0.  0.
         14    1    1    2    0    0 -0.36274455049E-02  0.15535097923E-02 -0.22462655054E-01  0.22806635562E-01  0.00000000000E+00 0.  1.
     999901    1    3    3    0    0 -0.12229272624E+00  0.16231026714E-01 -0.72853869723E-02  0.88863492728E+00  0.88000000000E+00 0.  1.
        -11    1    4    4    0    0  0.41330692964E-01 -0.68592377479E-02  0.20648526982E-01  0.46710792232E-01  0.51100000000E-03 0. -1.
         11    1    4    4    0    0  0.84589478784E-01 -0.10925298759E-01  0.90995150444E-02  0.85777644926E-01  0.51100000000E-03 0.  1.
</event>
<event>
 8    1  0.1083484E+005  0.1043930E+01  0.7957747E-01            NaN
         13   -1    0    0    0    0  0.00000000000E+00  0.00000000000E+00  0.74505805969E-08  0.10566000000E+00  0.10566000000E+00 0.  1.
     999900   -1    0    0    0    0 -0.00000000000E+00 -0.00000000000E+00 -0.74505805969E-08  0.93827000000E+00  0.93827000000E+00 0.  1.
     999902    2    1    2    0    0 -0.14605356603E-01 -0.16625572967E-01  0.78087948620E-02  0.10204629296E+01  0.10201930637E+01 0.  0.
     999903    2    3    3    0    0  0.12415648534E+00 -0.22571324710E-01  0.22333179021E-01  0.12945161735E+00  0.18293517978E-01 0.  0.
         14    1    1    2    0    0  0.14605356603E-01  0.16625572967E-01 -0.78087948620E-02  0.23467070443E-01  0.00000000000E+00 0. -1.
     999901    1    3    3    0    0 -0.13876184194E+00  0.59457517440E-02 -0.14524384159E-01  0.89101131220E+00  0.88000000000E+00 0.  1.
        -11    1    4    4    0    0  0.94290212785E-01 -0.13286153407E-01  0.23746142411E-01  0.98139219988E-01  0.51100000000E-03 0.  1.
         11    1    4    4    0    0  0.29866272550E-01 -0.92851713035E-02 -0.14129633905E-02  0.31312397365E-01  0.51100000000E-03 0. -1.
</event>
<event>
 8    1  0.1083484E+005  0.1043930E+01  0.7957747E-01            NaN
         13   -1    0    0    0    0  0.00000000000E+00  0.00000000000E+00  0.74505805969E-08  0.10566000000E+00  0.10566000000E+00 0. -1.
     999900   -1    0    0    0    0 -0.00000000000E+00 -0.00000000000E+00 -0.74505805969E-08  0.93827000000E+00  0.93827000000E+00 0. -1.
     999902    2    1    2    0    0 -0.58080740008E-02 -0.79648073672E-02  0.21855040635E-01  0.10199547069E+01  0.10196728835E+01 0.  0.
     999903    2    3    3    0    0 -0.95563573266E-01  0.73392318054E-01  0.48154562806E-01  0.13126651836E+00  0.19829474017E-01 0.  0.
         14    1    1    2    0    0  0.58080740008E-02  0.79648073672E-02 -0.21855040635E-01  0.23975293140E-01  0.00000000000E+00 0.  1.
     999901    1    3    3    0    0  0.89755499265E-01 -0.81357125421E-01 -0.26299522171E-01  0.88868818850E+00  0.88000000000E+00 0.  1.
        -11    1    4    4    0    0 -0.65781071926E-01  0.45813678843E-01  0.41023705069E-01  0.90051363629E-01  0.51100000000E-03 0. -1.
         11    1    4    4    0    0 -0.29782501340E-01  0.27578639212E-01  0.71308577373E-02  0.41215154736E-01  0.51100000000E-03 0.  1.
</event>
<event>
 8    1  0.1083484E+005  0.1043930E+01  0.7957747E-01            NaN
         13   -1    0    0    0    0  0.00000000000E+00  0.00000000000E+00  0.74505805969E-08  0.10566000000E+00  0.10566000000E+00 0.  1.
     999900   -1    0    0    0    0 -0.00000000000E+00 -0.00000000000E+00 -0.74505805969E-08  0.93827000000E+00  0.93827000000E+00 0. -1.
     999902    2    1    2    0    0  0.12801389758E-01 -0.56049318357E-02 -0.17893713048E-01  0.10212259077E+01  0.10209734956E+01 0.  0.
     999903    2    3    3    0    0 -0.72355508874E-01  0.99049329721E-01  0.35878371298E-01  0.12932027990E+00  0.19758235830E-01 0.  0.
         14    1    1    2    0    0 -0.12801389758E-01  0.56049318357E-02  0.17893713048E-01  0.22704092302E-01  0.00000000000E+00 0.  1.
     999901    1    3    3    0    0  0.85156898632E-01 -0.10465426156E+00 -0.53772084346E-01  0.89190562780E+00  0.88000000000E+00 0.  1.
        -11    1    4    4    0    0 -0.19932273692E-01  0.43347260689E-01  0.15330622733E-01  0.50115563033E-01  0.51100000000E-03 0. -1.
         11    1    4    4    0    0 -0.52423235182E-01  0.55702069032E-01  0.20547748565E-01  0.79204716864E-01  0.51100000000E-03 0.  1.
</event>
<event>
 8    1  0.1083484E+005  0.1043930E+01  0.7957747E-01            NaN
         13   -1    0    0    0    0  0.00000000000E+00  0.00000000000E+00  0.74505805969E-08  0.10566000000E+00  0.10566000000E+00 0. -1.
     999900   -1    0    0    0    0 -0.00000000000E+00 -0.00000000000E+00 -0.74505805969E-08  0.93827000000E+00  0.93827000000E+00 0. -1.
     999902    2    1    2    0    0  0.22365742216E-01 -0.49163869455E-03  0.88300261640E-02  0.10198792725E+01  0.10195956517E+01 0.  0.
     999903    2    3    3    0    0 -0.30642194673E-01  0.14910220101E-01 -0.12248905478E+00  0.12842441681E+00  0.18110867835E-01 0.  0.
         14    1    1    2    0    0 -0.22365742216E-01  0.49163869455E-03 -0.88300261640E-02  0.24050727547E-01  0.00000000000E+00 0.  1.
     999901    1    3    3    0    0  0.53007936889E-01 -0.15401858796E-01  0.13131908095E+00  0.89145485564E+00  0.88000000000E+00 0.  1.
        -11    1    4    4    0    0 -0.17196765995E-01  0.17858684433E-01 -0.80657206186E-01  0.84383099025E-01  0.51100000000E-03 0. -1.
         11    1    4    4    0    0 -0.13445428679E-01 -0.29484643321E-02 -0.41831848596E-01  0.44041317785E-01  0.51100000000E-03 0.  1.
</event>
<event>
 8    1  0.1083484E+005  0.1043930E+01  0.7957747E-01            NaN
         13   -1    0    0    0    0  0.00000000000E+00  0.00000000000E+00  0.74505805969E-08  0.10566000000E+00  0.10566000000E+00 0. -1.
     999900   -1    0    0    0    0 -0.00000000000E+00 -0.00000000000E+00 -0.74505805969E-08  0.93827000000E+00  0.93827000000E+00 0.  1.
     999902    2    1    2    0    0 -0.10767424889E-01 -0.20589632835E-01  0.48346458865E-02  0.10201972332E+01  0.10199211491E+01 0.  0.
     999903    2    3    3    0    0  0.42416531390E-01 -0.44055783122E-01  0.11468160853E+00  0.13146468141E+00  0.19774148816E-01 0.  0.
         14    1    1    2    0    0  0.10767424889E-01  0.20589632835E-01 -0.48346458865E-02  0.23732766798E-01  0.00000000000E+00 0.  1.
     999901    1    3    3    0    0 -0.53183956280E-01  0.23466150287E-01 -0.10984696264E+00  0.88873255179E+00  0.88000000000E+00 0.  1.
        -11    1    4    4    0    0  0.35800345247E-01 -0.25855905545E-01  0.70042747900E-01  0.82803624473E-01  0.51100000000E-03 0.  1.
         11    1    4    4    0    0  0.66161861428E-02 -0.18199877576E-01  0.44638860630E-01  0.48661056936E-01  0.51100000000E-03 0. -1.
</event>
<event>
 8    1  0.1083484E+005  0.1043930E+01  0.7957747E-01            NaN
         13   -1    0    0    0    0  0.00000000000E+00  0.00000000000E+00  0.74505805969E-08  0.10566000000E+00  0.10566000000E+00 0. -1.
     999900   -1    0    0    0    0 -0.00000000000E+00 -0.00000000000E+00 -0.74505805969E-08  0.93827000000E+00  0.93827000000E+00 0.  1.
     999902    2    1    2    0    0  0.21710460935E-01  0.16791920479E-02 -0.34453999085E-02  0.10218838080E+01  0.10216459673E+01 0.  0.
     999903    2    3    3    0    0 -0.39927815482E-01  0.11950518833E+00 -0.31636132150E-01  0.13144742068E+00  0.20046422623E-01 0.  0.
         14    1    1    2    0    0 -0.21710460935E-01 -0.16791920479E-02  0.34453999085E-02  0.22046191972E-01  0.00000000000E+00 0. -1.
     999901    1    3    3    0    0  0.61638276417E-01 -0.11782599628E+00  0.28190732242E-01  0.89043638734E+00  0.88000000000E+00 0.  1.
        -11    1    4    4    0    0 -0.32617894940E-01  0.11270435159E+00 -0.26850447616E-01  0.12036363902E+00  0.51100000000E-03 0. -1.
         11    1    4    4    0    0 -0.73099205417E-02  0.68008367367E-02 -0.47856845340E-02  0.11083781670E-01  0.51100000000E-03 0.  1.
</event>
<event>
 8    1  0.1083484E+005  0.1043930E+01  0.7957747E-01            NaN
         13   -1    0    0    0    0  0.00000000000E+00  0.00000000000E+00  0.74505805969E-08  0.10566000000E+00  0.10566000000E+00 0.  1.
     999900   -1    0    0    0    0 -0.00000000000E+00 -0.00000000000E+00 -0.74505805969E-08  0.93827000000E+00  0.93827000000E+00 0.  1.
     999902    2    1    2    0    0  0.44578950386E-02 -0.21640535447E-01  0.85498987018E-02  0.10202385169E+01  0.10199634038E+01 0.  0.
     999903    2    3    3    0    0 -0.47096999167E-01 -0.83372991103E-01 -0.86382334252E-01  0.13148605867E+00  0.25641625874E-01 0.  0.
         14    1    1    2    0    0 -0.44578950386E-02  0.21640535447E-01 -0.85498987018E-02  0.23691483078E-01  0.00000000000E+00 0.  1.
     999901    1    3    3    0    0  0.51554894205E-01  0.61732455655E-01  0.94932232954E-01  0.88875245825E+00  0.88000000000E+00 0. -1.
        -11    1    4    4    0    0 -0.37743000483E-01 -0.51552021425E-01 -0.43607675671E-01  0.77356547860E-01  0.51100000000E-03 0.  1.
         11    1    4    4    0    0 -0.93539986837E-02 -0.31820969678E-01 -0.42774658581E-01  0.54129510808E-01  0.51100000000E-03 0. -1.
</event>
<event>
 8    1  0.1083484E+005  0.1043930E+01  0.7957747E-01            NaN
         13   -1    0    0    0    0  0.00000000000E+00  0.00000000000E+00  0.74505805969E-08  0.10566000000E+00  0.10566000000E+00 0.  1.
     999900   -1    0    0    0    0 -0.00000000000E+00 -0.00000000000E+00 -0.74505805969E-08  0.93827000000E+00  0.93827000000E+00 0. -1.
     999902    2    1    2    0    0 -0.20048264672E-01  0.85471739491E-03  0.11487092188E-01  0.10208082192E+01  0.10205463261E+01 0.  0.
     999903    2    3    3    0    0  0.10820984393E+00 -0.11935898910E-01  0.67573957287E-01  0.12965195982E+00  0.19787748087E-01 0.  0.
         14    1    1    2    0    0  0.20048264672E-01 -0.85471739491E-03 -0.11487092188E-01  0.23121780751E-01  0.00000000000E+00 0. -1.
     999901    1    3    3    0    0 -0.12825810860E+00  0.12790616305E-01 -0.56086865099E-01  0.89115625943E+00  0.88000000000E+00 0. -1.
        -11    1    4    4    0    0  0.79271259302E-01 -0.12396070557E-01  0.58562675298E-01  0.99335004785E-01  0.51100000000E-03 0. -1.
         11    1    4    4    0    0  0.28938584630E-01  0.46017164661E-03  0.90112819895E-02  0.30316955032E-01  0.51100000000E-03 0.  1.
</event>
<event>
 8    1  0.1083484E+005  0.1043930E+01  0.7957747E-01            NaN
         13   -1    0    0    0    0  0.00000000000E+00  0.00000000000E+00  0.74505805969E-08  0.10566000000E+00  0.10566000000E+00 0.  1.
     999900   -1    0    0    0    0 -0.00000000000E+00 -0.00000000000E+00 -0.74505805969E-08  0.93827000000E+00  0.93827000000E+00 0.  1.
     999902    2    1    2    0    0  0.21605538973E-01  0.15309497837E-01  0.78189361273E-03  0.10174386543E+01  0.10170937144E+01 0.  0.
     999903    2    3    3    0    0  0.34277886941E-01 -0.10295711816E+00 -0.63535278984E-01  0.12711046789E+00  0.18579495624E-01 0.  0.
         14    1    1    2    0    0 -0.21605538973E-01 -0.15309497837E-01 -0.78189361273E-03  0.26491345680E-01  0.00000000000E+00 0. -1.
     999901    1    3    3    0    0 -0.12672347968E-01  0.11826661600E+00  0.64317172597E-01  0.89032818643E+00  0.88000000000E+00 0. -1.
        -11    1    4    4    0    0  0.26776409416E-01 -0.51481234233E-01 -0.35204199180E-01  0.67874077086E-01  0.51100000000E-03 0.  1.
         11    1    4    4    0    0  0.75014775250E-02 -0.51475883929E-01 -0.28331079804E-01  0.59236390802E-01  0.51100000000E-03 0. -1.
</event>
<event>
 8    1  0.1083484E+005  0.1043930E+01  0.7957747E-01            NaN
         13   -1    0    0    0    0  0.00000000000E+00  0.00000000000E+00  0.74505805969E-08  0.10566000000E+00  0.10566000000E+00 0. -1.
     999900   -1    0    0    0    0 -0.00000000000E+00 -0.00000000000E+00 -0.74505805969E-08  0.93827000000E+00  0.93827000000E+00 0.  1.
     999902    2    1    2    0    0 -0.95570843370E-02 -0.17668821288E-01  0.11002160243E-01  0.10210264493E+01  0.10207695320E+01 0.  0.
     999903    2    3    3    0    0 -0.28882004447E-01 -0.12900342459E+00  0.76801201927E-03  0.13374206180E+00  0.20255752639E-01 0.  0.
         14    1    1    2    0    0  0.95570843370E-02  0.17668821288E-01 -0.11002160243E-01  0.22903550745E-01  0.00000000000E+00 0.  1.
     999901    1    3    3    0    0  0.19324920110E-01  0.11133460330E+00  0.10234148224E-01  0.88728438745E+00  0.88000000000E+00 0. -1.
        -11    1    4    4    0    0 -0.17413177399E-01 -0.38453567560E-01 -0.35551657576E-02  0.42365031923E-01  0.51100000000E-03 0.  1.
         11    1    4    4    0    0 -0.11468827049E-01 -0.90549857031E-01  0.43231777769E-02  0.91377029878E-01  0.51100000000E-03 0. -1.
</event>
<event>
 8    1  0.1083484E+005  0.1043930E+01  0.7957747E-01            NaN
         13   -1    0    0    0    0  0.00000000000E+00  0.00000000000E+00  0.74505805969E-08  0.10566000000E+00  0.10566000000E+00 0. -1.
     999900   -1    0    0    0    0 -0.00000000000E+00 -0.00000000000E+00 -0.74505805969E-08  0.93827000000E+00  0.93827000000E+00 0. -1.
     999902    2    1    2    0    0 -0.18794747825E-01  0.57726762812E-02  0.13693643046E-01  0.10199699875E+01  0.10196885276E+01 0.  0.
     999903    2    3    3    0    0  0.34568039983E-01  0.53516079182E-01  0.11306032220E+00  0.13148771052E+00  0.21153284446E-01 0.  0.
         14    1    1    2    0    0  0.18794747825E-01 -0.57726762812E-02 -0.13693643046E-01  0.23960012461E-01  0.00000000000E+00 0.  1.
     999901    1    3    3    0    0 -0.53362787808E-01 -0.47743402901E-01 -0.99366679157E-01  0.88848227702E+00  0.88000000000E+00 0. -1.
        -11    1    4    4    0    0  0.11744073271E-01  0.34853073176E-01  0.52165591371E-01  0.63829225367E-01  0.51100000000E-03 0.  1.
         11    1    4    4    0    0  0.22823966712E-01  0.18663006006E-01  0.60894730832E-01  0.67658485157E-01  0.51100000000E-03 0. -1.
</event>
<event>
 8    1  0.1083484E+005  0.1043930E+01  0.7957747E-01            NaN
         13   -1    0    0    0    0  0.00000000000E+00  0.00000000000E+00  0.74505805969E-08  0.10566000000E+00  0.10566000000E+00 0.  1.
     999900   -1    0    0    0    0 -0.00000000000E+00 -0.00000000000E+00 -0.74505805969E-08  0.93827000000E+00  0.93827000000E+00 0.  1.
     999902    2    1    2    0    0  0.13484259946E-01 -0.15038865321E-01 -0.13654015063E-01  0.10195491702E+01  0.10192576149E+01 0.  0.
     999903    2    3    3    0    0  0.41746735484E-01 -0.81202692082E-01 -0.94584029096E-01  0.13291165309E+00  0.19562766753E-01 0.  0.
         14    1    1    2    0    0 -0.13484259946E-01  0.15038865321E-01  0.13654015063E-01  0.24380829842E-01  0.00000000000E+00 0.  1.
     999901    1    3    3    0    0 -0.28262475538E-01  0.66163826761E-01  0.80930014034E-01  0.88663751706E+00  0.88000000000E+00 0.  1.
        -11    1    4    4    0    0  0.15821163113E-01 -0.25175145378E-01 -0.18878578891E-01  0.35224409279E-01  0.51100000000E-03 0.  1.
         11    1    4    4    0    0  0.25925572371E-01 -0.56027546703E-01 -0.75705450205E-01  0.97687243815E-01  0.51100000000E-03 0. -1.
</event>
<event>
 8    1  0.1083484E+005  0.1043930E+01  0.7957747E-01            NaN
         13   -1    0    0    0    0  0.00000000000E+00  0.00000000000E+00  0.74505805969E-08  0.10566000000E+00  0.10566000000E+00 0.  1.
     999900   -1    0    0    0    0 -0.00000000000E+00 -0.00000000000E+00 -0.74505805969E-08  0.93827000000E+00  0.93827000000E+00 0.  1.
     999902    2    1    2    0    0 -0.19116946334E-01 -0.60086827787E-02  0.13486246682E-01  0.10197754817E+01  0.10194893782E+01 0.  0.
     999903    2    3    3    0    0  0.13527611746E-01  0.18359061561E-01 -0.12443994044E+00  0.12810116488E+00  0.20113633356E-01 0.  0.
         14    1    1    2    0    0  0.19116946334E-01  0.60086827787E-02 -0.13486246682E-01  0.24154518323E-01  0.00000000000E+00 0. -1.
     999901    1    3    3    0    0 -0.32644558080E-01 -0.24367744339E-01  0.13792618712E+00  0.89167431679E+00  0.88000000000E+00 0. -1.
        -11    1    4    4    0    0 -0.12116479719E-02 -0.36567302426E-02 -0.14342521297E-01  0.14859636774E-01  0.51100000000E-03 0.  1.
         11    1    4    4    0    0  0.14739259718E-01  0.22015791803E-01 -0.11009741914E+00  0.11324152811E+00  0.51100000000E-03 0. -1.
</event>
<event>
 8    1  0.1083484E+005  0.1043930E+01  0.7957747E-01            NaN
         13   -1    0    0    0    0  0.00000000000E+00  0.00000000000E+00  0.74505805969E-08  0.10566000000E+00  0.10566000000E+00 0. -1.
     999900   -1    0    0    0    0 -0.00000000000E+00 -0.00000000000E+00 -0.74505805969E-08  0.93827000000E+00  0.93827000000E+00 0.  1.
     999902    2    1    2    0    0  0.87139964423E-02  0.66832527508E-02 -0.21345934549E-01  0.10199248230E+01  0.10196422883E+01 0.  0.
     999903    2    3    3    0    0  0.70710282054E-01  0.93075996548E-01  0.54039311456E-01  0.13032368713E+00  0.20023264561E-01 0.  0.
         14    1    1    2    0    0 -0.87139964423E-02 -0.66832527508E-02  0.21345934549E-01  0.24005177006E-01  0.00000000000E+00 0. -1.
     999901    1    3    3    0    0 -0.61996285611E-01 -0.86392743797E-01 -0.75385246005E-01  0.88960113586E+00  0.88000000000E+00 0.  1.
        -11    1    4    4    0    0  0.54619971413E-01  0.61251290512E-01  0.44716465748E-01  0.93460608261E-01  0.51100000000E-03 0.  1.
         11    1    4    4    0    0  0.16090310641E-01  0.31824706036E-01  0.93228457080E-02  0.36863078872E-01  0.51100000000E-03 0. -1.
</event>
<event>
 8    1  0.1083484E+005  0.1043930E+01  0.7957747E-01            NaN
         13   -1    0    0    0    0  0.00000000000E+00  0.00000000000E+00  0.74505805969E-08  0.10566000000E+00  0.10566000000E+00 0. -1.
     999900   -1    0    0    0    0 -0.00000000000E+00 -0.00000000000E+00 -0.74505805969E-08  0.93827000000E+00  0.93827000000E+00 0.  1.
     999902    2    1    2    0    0  0.16030276091E-01  0.16986802309E-01 -0.38699859259E-02  0.10202551611E+01  0.10199804389E+01 0.  0.
     999903    2    3    3    0    0  0.96493739585E-01 -0.44067295557E-01 -0.75273950901E-01  0.13160421839E+00  0.20013352980E-01 0.  0.
         14    1    1    2    0    0 -0.16030276091E-01 -0.16986802309E-01  0.38699859259E-02  0.23674838865E-01  0.00000000000E+00 0.  1.
     999901    1    3    3    0    0 -0.80463463494E-01  0.61054097865E-01  0.71403964976E-01  0.88865094274E+00  0.88000000000E+00 0. -1.
        -11    1    4    4    0    0  0.25216938609E-01 -0.11817267160E-01 -0.96089821739E-02  0.29464138463E-01  0.51100000000E-03 0. -1.
         11    1    4    4    0    0  0.71276800976E-01 -0.32250028397E-01 -0.65664968728E-01  0.10214007993E+00  0.51100000000E-03 0.  1.
</event>
<event>
 8    1  0.1083484E+005  0.1043930E+01  0.7957747E-01            NaN
         13   -1    0    0    0    0  0.00000000000E+00  0.00000000000E+00  0.74505805969E-08  0.10566000000E+00  0.10566000000E+00 0. -1.
     999900   -1    0    0    0    0 -0.00000000000E+00 -0.00000000000E+00 -0.74505805969E-08  0.93827000000E+00  0.93827000000E+00 0.  1.
     999902    2    1    2    0    0 -0.97399637684E-02 -0.20624662832E-01 -0.73268590556E-02  0.10199732374E+01  0.10196918547E+01 0.  0.
     999903    2    3    3    0    0  0.46190299239E-02  0.10452353749E+00 -0.72156157701E-01  0.12864215933E+00  0.19894439842E-01 0.  0.
         14    1    1    2    0    0  0.97399637684E-02  0.20624662832E-01  0.73268590556E-02  0.23956762610E-01  0.00000000000E+00 0.  1.
     999901    1    3    3    0    0 -0.14358993692E-01 -0.12514820032E+00  0.64829298645E-01  0.89133107806E+00  0.88000000000E+00 0. -1.
        -11    1    4    4    0    0 -0.17132538623E-03  0.69438198824E-01 -0.36754181862E-01  0.78567320266E-01  0.51100000000E-03 0.  1.
         11    1    4    4    0    0  0.47903553101E-02  0.35085338668E-01 -0.35401975839E-01  0.50074839069E-01  0.51100000000E-03 0. -1.
</event>
<event>
 8    1  0.1083484E+005  0.1043930E+01  0.7957747E-01            NaN
         13   -1    0    0    0    0  0.00000000000E+00  0.00000000000E+00  0.74505805969E-08  0.10566000000E+00  0.10566000000E+00 0. -1.
     999900   -1    0    0    0    0 -0.00000000000E+00 -0.00000000000E+00 -0.74505805969E-08  0.93827000000E+00  0.93827000000E+00 0. -1.
     999902    2    1    2    0    0  0.10063060107E-01 -0.21899663779E-03 -0.22636088084E-01  0.10191569174E+01  0.10188557880E+01 0.  0.
     999903    2    3    3    0    0  0.78988713185E-01 -0.86567605385E-01  0.50695593539E-01  0.12922188414E+00  0.19876745773E-01 0.  0.
         14    1    1    2    0    0 -0.10063060107E-01  0.21899663779E-03  0.22636088084E-01  0.24773082610E-01  0.00000000000E+00 0. -1.
     999901    1    3    3    0    0 -0.68925653078E-01  0.86348608747E-01 -0.73331681623E-01  0.88993503325E+00  0.88000000000E+00 0. -1.
        -11    1    4    4    0    0  0.29149747275E-01 -0.33995510899E-01  0.29915752605E-01  0.53857366278E-01  0.51100000000E-03 0.  1.
         11    1    4    4    0    0  0.49838965910E-01 -0.52572094485E-01  0.20779840933E-01  0.75364517857E-01  0.51100000000E-03 0. -1.
</event>
<event>
 8    1  0.1083484E+005  0.1043930E+01  0.7957747E-01            NaN
         13   -1    0    0    0    0  0.00000000000E+00  0.00000000000E+00  0.74505805969E-08  0.10566000000E+00  0.10566000000E+00 0. -1.
     999900   -1    0    0    0    0 -0.00000000000E+00 -0.00000000000E+00 -0.74505805969E-08  0.93827000000E+00  0.93827000000E+00 0. -1.
     999902    2    1    2    0    0 -0.20307807108E-01 -0.12236074991E-01  0.66389769290E-04  0.10202206565E+01  0.10199451235E+01 0.  0.
     999903    2    3    3    0    0 -0.12097199346E+00  0.19265181265E-01  0.47360519713E-01  0.13266088823E+00  0.18722233515E-01 0.  0.
         14    1    1    2    0    0  0.20307807108E-01  0.12236074991E-01 -0.66389769290E-04  0.23709343482E-01  0.00000000000E+00 0.  1.
     999901    1    3    3    0    0  0.10066418635E+00 -0.31501256256E-01 -0.47294129944E-01  0.88755976829E+00  0.88000000000E+00 0. -1.
        -11    1    4    4    0    0 -0.88572227471E-01  0.15074292880E-01  0.43297053501E-01  0.99735498935E-01  0.51100000000E-03 0.  1.
         11    1    4    4    0    0 -0.32399765987E-01  0.41908883854E-02  0.40634662117E-02  0.32925389294E-01  0.51100000000E-03 0. -1.
</event>
<event>
 8    1  0.1083484E+005  0.1043930E+01  0.7957747E-01            NaN
         13   -1    0    0    0    0  0.00000000000E+00  0.00000000000E+00  0.74505805969E-08  0.10566000000E+00  0.10566000000E+00 0.  1.
     999900   -1    0    0    0    0 -0.00000000000E+00 -0.00000000000E+00 -0.74505805969E-08  0.93827000000E+00  0.93827000000E+00 0.  1.
     999902    2    1    2    0    0 -0.18469402075E-01 -0.85163671757E-02 -0.12590265077E-01  0.10200100899E+01  0.10197295825E+01 0.  0.
     999903    2    3    3    0    0  0.31405485719E-01 -0.11891368290E+00 -0.41047060814E-01  0.13125542132E+00  0.20404801152E-01 0.  0.
         14    1    1    2    0    0  0.18469402075E-01  0.85163671757E-02  0.12590265077E-01  0.23919910067E-01  0.00000000000E+00 0.  1.
     999901    1    3    3    0    0 -0.49874887794E-01  0.11039731573E+00  0.28456795737E-01  0.88875466861E+00  0.88000000000E+00 0. -1.
        -11    1    4    4    0    0  0.17319893469E-02 -0.36627763864E-01 -0.66986713513E-02  0.37279031528E-01  0.51100000000E-03 0. -1.
         11    1    4    4    0    0  0.29673496372E-01 -0.82285919041E-01 -0.34348389463E-01  0.93976389796E-01  0.51100000000E-03 0.  1.
</event>
<event>
 8    1  0.1083484E+005  0.1043930E+01  0.7957747E-01            NaN
         13   -1    0    0    0    0  0.00000000000E+00  0.00000000000E+00  0.74505805969E-08  0.10566000000E+00  0.10566000000E+00 0. -1.
     999900   -1    0    0    0    0 -0.00000000000E+00 -0.00000000000E+00 -0.74505805969E-08  0.93827000000E+00  0.93827000000E+00 0.  1.
     999902    2    1    2    0    0 -0.78077486753E-02 -0.86287257086E-02 -0.20754572905E-01  0.10201357120E+01  0.10198581777E+01 0.  0.
     999903    2    3    3    0    0 -0.38122601246E-02 -0.10133164863E+00 -0.83336342922E-01  0.13304706150E+00  0.21770121289E-01 0.  0.
         14    1    1    2    0    0  0.78077486753E-02  0.86287257086E-02  0.20754572905E-01  0.23794288038E-01  0.00000000000E+00 0. -1.
     999901    1    3    3    0    0 -0.39954885507E-02  0.92702922917E-01  0.62581770016E-01  0.88708865047E+00  0.88000000000E+00 0.  1.
        -11    1    4    4    0    0 -0.13232941789E-02 -0.74084079995E-01 -0.72340225997E-01  0.10355467848E+00  0.51100000000E-03 0.  1.
         11    1    4    4    0    0 -0.24889659457E-02 -0.27247568631E-01 -0.10996116925E-01  0.29492383020E-01  0.51100000000E-03 0. -1.
</event>
<event>
 8    1  0.1083484E+005  0.1043930E+01  0.7957747E-01            NaN
         13   -1    0    0    0    0  0.00000000000E+00  0.00000000000E+00  0.74505805969E-08  0.10566000000E+00  0.10566000000E+00 0.  1.
     999900   -1    0    0    0    0 -0.00000000000E+00 -0.00000000000E+00 -0.74505805969E-08  0.93827000000E+00  0.93827000000E+00 0. -1.
     999902    2    1    2    0    0 -0.12347385713E-01 -0.14797323805E-01 -0.15020363731E-01  0.10194958016E+01  0.10192029530E+01 0.  0.
     999903    2    3    3    0    0  0.11673939679E+00  0.29211778208E-01  0.36002651854E-01  0.12752968866E+00  0.22050301598E-01 0.  0.
         14    1    1    2    0    0  0.12347385713E-01  0.14797323805E-01  0.15020363731E-01  0.24434198418E-01  0.00000000000E+00 0.  1.
     999901    1    3    3    0    0 -0.12908678250E+00 -0.44009102013E-01 -0.51023015585E-01  0.89196611292E+00  0.88000000000E+00 0. -1.
        -11    1    4    4    0    0  0.61961374415E-01  0.67297631943E-02  0.11178190909E-01  0.63322308115E-01  0.51100000000E-03 0. -1.
         11    1    4    4    0    0  0.54778022376E-01  0.22482015014E-01  0.24824460945E-01  0.64207380547E-01  0.51100000000E-03 0.  1.
</event>
<event>
 8    1  0.1083484E+005  0.1043930E+01  0.7957747E-01            NaN
         13   -1    0    0    0    0  0.00000000000E+00  0.00000000000E+00  0.74505805969E-08  0.10566000000E+00  0.10566000000E+00 0. -1.
     999900   -1    0    0    0    0 -0.00000000000E+00 -0.00000000000E+00 -0.74505805969E-08  0.93827000000E+00  0.93827000000E+00 0. -1.
     999902    2    1    2    0    0  0.19506230873E-02  0.14409850078E-01 -0.17465445691E-01  0.10212035726E+01  0.10209506580E+01 0.  0.
     999903    2    3    3    0    0 -0.21730631830E-01 -0.10200561106E+00 -0.77164899888E-01  0.13121627703E+00  0.19644962049E-01 0.  0.
         14    1    1    2    0    0 -0.19506230873E-02 -0.14409850078E-01  0.17465445691E-01  0.22726427412E-01  0.00000000000E+00 0. -1.
     999901    1    3    3    0    0  0.23681254917E-01  0.11641546114E+00  0.59699454197E-01  0.88998729556E+00  0.88000000000E+00 0.  1.
        -11    1    4    4    0    0 -0.11167031069E-01 -0.86524204017E-01 -0.60912062319E-01  0.10640338773E+00  0.51100000000E-03 0. -1.
         11    1    4    4    0    0 -0.10563600761E-01 -0.15481407047E-01 -0.16252837569E-01  0.24812889296E-01  0.51100000000E-03 0.  1.
</event>
<event>
 8    1  0.1083484E+005  0.1043930E+01  0.7957747E-01            NaN
         13   -1    0    0    0    0  0.00000000000E+00  0.00000000000E+00  0.74505805969E-08  0.10566000000E+00  0.10566000000E+00 0.  1.
     999900   -1    0    0    0    0 -0.00000000000E+00 -0.00000000000E+00 -0.74505805969E-08  0.93827000000E+00  0.93827000000E+00 0.  1.
     999902    2    1    2    0    0  0.19078828310E-01  0.55060139049E-02 -0.12834506907E-01  0.10202859215E+01  0.10200119211E+01 0.  0.
     999903    2    3    3    0    0  0.10250995465E+00  0.81209733117E-01 -0.14783478020E-01  0.13310183442E+00  0.19855365721E-01 0.  0.
         14    1    1    2    0    0 -0.19078828310E-01 -0.55060139049E-02  0.12834506907E-01  0.23644078463E-01  0.00000000000E+00 0.  1.
     999901    1    3    3    0    0 -0.83431126341E-01 -0.75703719213E-01  0.19489711130E-02  0.88718408712E+00  0.88000000000E+00 0.  1.
        -11    1    4    4    0    0  0.15857034031E-01  0.53153265327E-02 -0.51602081578E-02  0.17509628598E-01  0.51100000000E-03 0.  1.
         11    1    4    4    0    0  0.86652920620E-01  0.75894406585E-01 -0.96232698621E-02  0.11559220582E+00  0.51100000000E-03 0. -1.
</event>
<event>
 8    1  0.1083484E+005  0.1043930E+01  0.7957747E-01            NaN
         13   -1    0    0    0    0  0.00000000000E+00  0.00000000000E+00  0.74505805969E-08  0.10566000000E+00  0.10566000000E+00 0.  1.
     999900   -1    0    0    0    0 -0.00000000000E+00 -0.00000000000E+00 -0.74505805969E-08  0.93827000000E+00  0.93827000000E+00 0.  1.
     999902    2    1    2    0    0 -0.71030332560E-02 -0.18378997773E-01  0.13241195920E-01  0.10201903726E+01  0.10199141270E+01 0.  0.
     999903    2    3    3    0    0 -0.25267355066E-01 -0.10266534188E+00 -0.76125617146E-01  0.13147188078E+00  0.17638996446E-01 0.  0.
         14    1    1    2    0    0  0.71030332560E-02  0.18378997773E-01 -0.13241195920E-01  0.23739627418E-01  0.00000000000E+00 0. -1.
     999901    1    3    3    0    0  0.18164321810E-01  0.84286344105E-01  0.89366813066E-01  0.88871849180E+00  0.88000000000E+00 0. -1.
        -11    1    4    4    0    0 -0.17688810081E-01 -0.48813821829E-01 -0.28776881466E-01  0.59363736671E-01  0.51100000000E-03 0.  1.
         11    1    4    4    0    0 -0.75785449851E-02 -0.53851520048E-01 -0.47348735680E-01  0.72108144111E-01  0.51100000000E-03 0. -1.
</event>
<event>
 8    1  0.1083484E+005  0.1043930E+01  0.7957747E-01            NaN
         13   -1    0    0    0    0  0.00000000000E+00  0.00000000000E+00  0.74505805969E-08  0.10566000000E+00  0.10566000000E+00 0. -1.
     999900   -1    0    0    0    0 -0.00000000000E+00 -0.00000000000E+00 -0.74505805969E-08  0.93827000000E+00  0.93827000000E+00 0. -1.
     999902    2    1    2    0    0 -0.22202763832E-01 -0.76396730326E-02  0.38434857357E-02  0.10201371501E+01  0.10198596498E+01 0.  0.
     999903    2    3    3    0    0  0.64242738326E-01 -0.13770541843E-01 -0.10881046328E+00  0.12873301914E+00  0.20389115886E-01 0.  0.
         14    1    1    2    0    0  0.22202763832E-01  0.76396730326E-02 -0.38434857357E-02  0.23792849943E-01  0.00000000000E+00 0. -1.
     999901    1    3    3    0    0 -0.86445502158E-01  0.61308688101E-02  0.11265394901E+00  0.89140413092E+00  0.88000000000E+00 0. -1.
        -11    1    4    4    0    0  0.22652423312E-01 -0.14820468117E-01 -0.46512786572E-01  0.53818946411E-01  0.51100000000E-03 0. -1.
         11    1    4    4    0    0  0.41590315014E-01  0.10499262738E-02 -0.62297676707E-01  0.74914072725E-01  0.51100000000E-03 0.  1.
</event>
<event>
 8    1  0.1083484E+005  0.1043930E+01  0.7957747E-01            NaN
         13   -1    0    0    0    0  0.00000000000E+00  0.00000000000E+00  0.74505805969E-08  0.10566000000E+00  0.10566000000E+00 0. -1.
     999900   -1    0    0    0    0 -0.00000000000E+00 -0.00000000000E+00 -0.74505805969E-08  0.93827000000E+00  0.93827000000E+00 0. -1.
     999902    2    1    2    0    0 -0.21588802384E-01  0.71344500123E-02 -0.57710415535E-02  0.10204719164E+01  0.10202022596E+01 0.  0.
     999903    2    3    3    0    0  0.10443020241E+00  0.73325512665E-01 -0.30655061507E-02  0.12902962087E+00  0.18893060928E-01 0.  0.
         14    1    1    2    0    0  0.21588802384E-01 -0.71344500123E-02  0.57710415535E-02  0.23458083596E-01  0.00000000000E+00 0.  1.
     999901    1    3    3    0    0 -0.12601900479E+00 -0.66191062652E-01 -0.27055354028E-02  0.89144229553E+00  0.88000000000E+00 0. -1.
        -11    1    4    4    0    0  0.71966809019E-01  0.60304300969E-01 -0.46859345967E-02  0.94010900537E-01  0.51100000000E-03 0. -1.
         11    1    4    4    0    0  0.32463393391E-01  0.13021211696E-01  0.16204284460E-02  0.35018720334E-01  0.51100000000E-03 0.  1.
</event>
<event>
 8    1  0.1083484E+005  0.1043930E+01  0.7957747E-01            NaN
         13   -1    0    0    0    0  0.00000000000E+00  0.00000000000E+00  0.74505805969E-08  0.10566000000E+00  0.10566000000E+00 0. -1.
     999900   -1    0    0    0    0 -0.00000000000E+00 -0.00000000000E+00 -0.74505805969E-08  0.93827000000E+00  0.93827000000E+00 0.  1.
     999902    2    1    2    0    0  0.54726493709E-02  0.22510030647E-01 -0.34561700722E-02  0.10205078634E+01  0.10202390420E+01 0.  0.
     999903    2    3    3    0    0  0.78620393638E-01  0.14467703767E-01  0.10204261586E+00  0.13115682735E+00  0.19973411347E-01 0.  0.
         14    1    1    2    0    0 -0.54726493709E-02 -0.22510030647E-01  0.34561700722E-02  0.23422136589E-01  0.00000000000E+00 0.  1.
     999901    1    3    3    0    0 -0.73147744267E-01  0.80423268800E-02 -0.10549878593E+00  0.88935103606E+00  0.88000000000E+00 0.  1.
        -11    1    4    4    0    0  0.48675140601E-01  0.80803613160E-02  0.46873456587E-01  0.68058383797E-01  0.51100000000E-03 0.  1.
         11    1    4    4    0    0  0.29945253037E-01  0.63873424506E-02  0.55169159270E-01  0.63098443551E-01  0.51100000000E-03 0. -1.
</event>
<event>
 8    1  0.1083484E+005  0.1043930E+01  0.7957747E-01            NaN
         13   -1    0    0    0    0  0.00000000000E+00  0.00000000000E+00  0.74505805969E-08  0.10566000000E+00  0.10566000000E+00 0.  1.
     999900   -1    0    0    0    0 -0.00000000000E+00 -0.00000000000E+00 -0.74505805969E-08  0.93827000000E+00  0.93827000000E+00 0. -1.
     999902    2    1    2    0    0  0.22742191857E-01 -0.41528935059E-02 -0.55001074793E-02  0.10201664776E+01  0.10198896690E+01 0.  0.
     999903    2    3    3    0    0 -0.65572175868E-01  0.93237393906E-01 -0.57485275928E-01  0.12888271056E+00  0.17699555463E-01 0.  0.
         14    1    1    2    0    0 -0.22742191857E-01  0.41528935059E-02  0.55001074793E-02  0.23763522407E-01  0.00000000000E+00 0.  1.
     999901    1    3    3    0    0  0.88314367725E-01 -0.97390287412E-01  0.51985168448E-01  0.89128376703E+00  0.88000000000E+00 0. -1.
        -11    1    4    4    0    0 -0.27115551629E-01  0.50747549233E-01 -0.22796272295E-01  0.61891017481E-01  0.51100000000E-03 0. -1.
         11    1    4    4    0    0 -0.38456624239E-01  0.42489844673E-01 -0.34689003632E-01  0.66991693084E-01  0.51100000000E-03 0.  1.
</event>
<event>
 8    1  0.1083484E+005  0.1043930E+01  0.7957747E-01            NaN
         13   -1    0    0    0    0  0.00000000000E+00  0.00000000000E+00  0.74505805969E-08  0.10566000000E+00  0.10566000000E+00 0. -1.
     999900   -1    0    0    0    0 -0.00000000000E+00 -0.00000000000E+00 -0.74505805969E-08  0.93827000000E+00  0.93827000000E+00 0.  1.
     999902    2    1    2    0    0 -0.18096872467E-01 -0.14002698577E-01 -0.70017693254E-02  0.10200009981E+01  0.10197202748E+01 0.  0.
     999903    2    3    3    0    0 -0.21417508973E-01  0.91399035929E-01  0.85821634402E-01  0.12885749864E+00  0.20649662590E-01 0.  0.
         14    1    1    2    0    0  0.18096872467E-01  0.14002698577E-01  0.70017693254E-02  0.23929001948E-01  0.00000000000E+00 0.  1.
     999901    1    3    3    0    0  0.33206365062E-02 -0.10540173451E+00 -0.92823403728E-01  0.89114349941E+00  0.88000000000E+00 0. -1.
        -11    1    4    4    0    0 -0.66756995568E-02  0.42944749362E-01  0.52826794361E-01  0.68408682093E-01  0.51100000000E-03 0. -1.
         11    1    4    4    0    0 -0.14741809416E-01  0.48454286567E-01  0.32994840042E-01  0.60448816547E-01  0.51100000000E-03 0.  1.
</event>
<event>
 8    1  0.1083484E+005  0.1043930E+01  0.7957747E-01            NaN
         13   -1    0    0    0    0  0.00000000000E+00  0.00000000000E+00  0.74505805969E-08  0.10566000000E+00  0.10566000000E+00 0.  1.
     999900   -1    0    0    0    0 -0.00000000000E+00 -0.00000000000E+00 -0.74505805969E-08  0.93827000000E+00  0.93827000000E+00 0. -1.
     999902    2    1    2    0    0  0.55417025203E-02  0.21541535334E-01  0.28526322284E-02  0.10215048864E+01  0.10212587072E+01 0.  0.
     999903    2    3    3    0    0 -0.10309071561E+00  0.63978367783E-01  0.48613474704E-01  0.13263147483E+00  0.22514684141E-01 0.  0.
         14    1    1    2    0    0 -0.55417025203E-02 -0.21541535334E-01 -0.28526322284E-02  0.22425113646E-01  0.00000000000E+00 0.  1.
     999901    1    3    3    0    0  0.10863241813E+00 -0.42436832448E-01 -0.45760842475E-01  0.88887341153E+00  0.88000000000E+00 0. -1.
        -11    1    4    4    0    0 -0.48362320640E-01  0.38517851857E-01  0.33853257456E-01  0.70490021498E-01  0.51100000000E-03 0.  1.
         11    1    4    4    0    0 -0.54728394974E-01  0.25460515925E-01  0.14760217248E-01  0.62141453329E-01  0.51100000000E-03 0. -1.
</event>
<event>
 8    1  0.1152032E+005  0.1043930E+01  0.7957747E-01            NaN
         13   -1    0    0    0    0  0.00000000000E+00  0.00000000000E+00  0.74505805969E-08  0.10566000000E+00  0.10566000000E+00 0.  1.
     999900   -1    0    0    0    0 -0.00000000000E+00 -0.00000000000E+00 -0.74505805969E-08  0.93827000000E+00  0.93827000000E+00 0. -1.
     999902    2    1    2    0    0  0.21630896141E-01 -0.81727306687E-02  0.19887596388E-01  0.10134307265E+01  0.10129716836E+01 0.  0.
     999903    2    3    3    0    0  0.46627838287E-01  0.96061094248E-01 -0.58915003396E-01  0.12343107081E+00  0.19035821119E-01 0.  0.
         14    1    1    2    0    0 -0.21630896141E-01  0.81727306687E-02 -0.19887596388E-01  0.30499273508E-01  0.00000000000E+00 0. -1.
     999901    1    3    3    0    0 -0.24996942146E-01 -0.10423382492E+00  0.78802599783E-01  0.88999965568E+00  0.88000000000E+00 0. -1.
        -11    1    4    4    0    0  0.26160951783E-01  0.48785281864E-01 -0.19979038746E-01  0.58854245684E-01  0.51100000000E-03 0. -1.
         11    1    4    4    0    0  0.20466886504E-01  0.47275812384E-01 -0.38935964649E-01  0.64576825130E-01  0.51100000000E-03 0.  1.
</event>
<event>
 8    1  0.1083484E+005  0.1043930E+01  0.7957747E-01            NaN
         13   -1    0    0    0    0  0.00000000000E+00  0.00000000000E+00  0.74505805969E-08  0.10566000000E+00  0.10566000000E+00 0.  1.
     999900   -1    0    0    0    0 -0.00000000000E+00 -0.00000000000E+00 -0.74505805969E-08  0.93827000000E+00  0.93827000000E+00 0.  1.
     999902    2    1    2    0    0  0.14935169500E-01  0.11870740817E-03  0.17471261313E-01  0.10209448232E+01  0.10206860505E+01 0.  0.
     999903    2    3    3    0    0  0.10898491204E+00 -0.27535866499E-01  0.70081909867E-01  0.13393974440E+00  0.19810250920E-01 0.  0.
         14    1    1    2    0    0 -0.14935169500E-01 -0.11870740817E-03 -0.17471261313E-01  0.22985176774E-01  0.00000000000E+00 0. -1.
     999901    1    3    3    0    0 -0.94049742542E-01  0.27654573907E-01 -0.52610648554E-01  0.88700507883E+00  0.88000000000E+00 0. -1.
        -11    1    4    4    0    0  0.50067862550E-01 -0.30857701173E-02  0.34654069550E-01  0.60971128372E-01  0.51100000000E-03 0.  1.
         11    1    4    4    0    0  0.58917049492E-01 -0.24450096382E-01  0.35427840317E-01  0.72968616024E-01  0.51100000000E-03 0. -1.
</event>
<event>
 8    1  0.1083484E+005  0.1043930E+01  0.7957747E-01            NaN
         13   -1    0    0    0    0  0.00000000000E+00  0.00000000000E+00  0.74505805969E-08  0.10566000000E+00  0.10566000000E+00 0. -1.
     999900   -1    0    0    0    0 -0.00000000000E+00 -0.00000000000E+00 -0.74505805969E-08  0.93827000000E+00  0.93827000000E+00 0.  1.
     999902    2    1    2    0    0 -0.13348054207E-01  0.18083894267E-01 -0.59821160954E-02  0.10206709481E+01  0.10204059000E+01 0.  0.
     999903    2    3    3    0    0 -0.45784978188E-01 -0.89503728155E-02 -0.12192355895E+00  0.13206224691E+00  0.19967709695E-01 0.  0.
         14    1    1    2    0    0  0.13348054207E-01 -0.18083894267E-01  0.59821160954E-02  0.23259051914E-01  0.00000000000E+00 0. -1.
     999901    1    3    3    0    0  0.32436923980E-01  0.27034267082E-01  0.11594144286E+00  0.88860870118E+00  0.88000000000E+00 0. -1.
        -11    1    4    4    0    0 -0.33962376801E-01 -0.37959396689E-02 -0.62315855560E-01  0.71073055170E-01  0.51100000000E-03 0.  1.
         11    1    4    4    0    0 -0.11822601386E-01 -0.51544331465E-02 -0.59607703391E-01  0.60989191740E-01  0.51100000000E-03 0. -1.
</event>
<event>
 8    1  0.1083484E+005  0.1043930E+01  0.7957747E-01            NaN
         13   -1    0    0    0    0  0.00000000000E+00  0.00000000000E+00  0.74505805969E-08  0.10566000000E+00  0.10566000000E+00 0. -1.
     999900   -1    0    0    0    0 -0.00000000000E+00 -0.00000000000E+00 -0.74505805969E-08  0.93827000000E+00  0.93827000000E+00 0.  1.
     999902    2    1    2    0    0 -0.31063654702E-02 -0.22705975024E-01  0.60577681340E-02  0.10202254147E+01  0.10199499936E+01 0.  0.
     999903    2    3    3    0    0  0.80149181798E-01  0.68776759970E-01 -0.70087858050E-01  0.12831805780E+00  0.19977038234E-01 0.  0.
         14    1    1    2    0    0  0.31063654702E-02  0.22705975024E-01 -0.60577681340E-02  0.23704585274E-01  0.00000000000E+00 0. -1.
     999901    1    3    3    0    0 -0.83255547268E-01 -0.91482734994E-01  0.76145626184E-01  0.89190735693E+00  0.88000000000E+00 0. -1.
        -11    1    4    4    0    0  0.70669526427E-01  0.63443858335E-01 -0.68968051501E-01  0.11737188068E+00  0.51100000000E-03 0. -1.
         11    1    4    4    0    0  0.94796553711E-02  0.53329016353E-02 -0.11198065492E-02  0.10946177119E-01  0.51100000000E-03 0.  1.
</event>
<event>
 8    1  0.1083484E+005  0.1043930E+01  0.7957747E-01            NaN
         13   -1    0    0    0    0  0.00000000000E+00  0.00000000000E+00  0.74505805969E-08  0.10566000000E+00  0.10566000000E+00 0.  1.
     999900   -1    0    0    0    0 -0.00000000000E+00 -0.00000000000E+00 -0.74505805969E-08  0.93827000000E+00  0.93827000000E+00 0. -1.
     999902    2    1    2    0    0  0.10002908807E-01  0.64575139597E-02  0.20621582031E-01  0.10201180846E+01  0.10198401341E+01 0.  0.
     999903    2    3    3    0    0 -0.59970212860E-01  0.70780519703E-01  0.92035166705E-01  0.13212394782E+00  0.19492492835E-01 0.  0.
         14    1    1    2    0    0 -0.10002908807E-01 -0.64575139597E-02 -0.20621582031E-01  0.23811915433E-01  0.00000000000E+00 0. -1.
     999901    1    3    3    0    0  0.69973121667E-01 -0.64323005743E-01 -0.71413584674E-01  0.88799413675E+00  0.88000000000E+00 0. -1.
        -11    1    4    4    0    0 -0.32086482599E-01  0.52231632613E-01  0.59397967561E-01  0.85358452905E-01  0.51100000000E-03 0.  1.
         11    1    4    4    0    0 -0.27883730261E-01  0.18548887089E-01  0.32637199144E-01  0.46765494913E-01  0.51100000000E-03 0. -1.
</event>
<event>
 8    1  0.1083484E+005  0.1043930E+01  0.7957747E-01            NaN
         13   -1    0    0    0    0  0.00000000000E+00  0.00000000000E+00  0.74505805969E-08  0.10566000000E+00  0.10566000000E+00 0. -1.
     999900   -1    0    0    0    0 -0.00000000000E+00 -0.00000000000E+00 -0.74505805969E-08  0.93827000000E+00  0.93827000000E+00 0.  1.
     999902    2    1    2    0    0  0.10536302808E-01 -0.10360110274E-01 -0.19313253881E-01  0.10196123657E+01  0.10193223381E+01 0.  0.
     999903    2    3    3    0    0 -0.63192308188E-01  0.86631044775E-01 -0.70300168718E-01  0.12975683940E+00  0.19912757595E-01 0.  0.
         14    1    1    2    0    0 -0.10536302808E-01  0.10360110274E-01  0.19313253881E-01  0.24317634285E-01  0.00000000000E+00 0. -1.
     999901    1    3    3    0    0  0.73728610997E-01 -0.96991155050E-01  0.50986914837E-01  0.88985552632E+00  0.88000000000E+00 0. -1.
        -11    1    4    4    0    0 -0.28935137490E-01  0.52008429666E-01 -0.30627459072E-01  0.66935949296E-01  0.51100000000E-03 0.  1.
         11    1    4    4    0    0 -0.34257170699E-01  0.34622615109E-01 -0.39672709645E-01  0.62820890099E-01  0.51100000000E-03 0. -1.
</event>
<event>
 8    1  0.1175276E+005  0.1043930E+01  0.7957747E-01            NaN
         13   -1    0    0    0    0  0.00000000000E+00  0.00000000000E+00  0.74505805969E-08  0.10566000000E+00  0.10566000000E+00 0.  1.
     999900   -1    0    0    0    0 -0.00000000000E+00 -0.00000000000E+00 -0.74505805969E-08  0.93827000000E+00  0.93827000000E+00 0.  1.
     999902    2    1    2    0    0 -0.21131320311E-01  0.80562752958E-02 -0.65977651361E-02  0.10203722672E+01  0.10201002877E+01 0.  0.
     999903    2    3    3    0    0  0.99330650110E-01  0.77857989454E-01 -0.11053399601E-01  0.12941591682E+00  0.26416989030E-01 0.  0.
         14    1    1    2    0    0  0.21131320311E-01 -0.80562752958E-02  0.65977651361E-02  0.23557732797E-01  0.00000000000E+00 0. -1.
     999901    1    3    3    0    0 -0.12046197042E+00 -0.69801714158E-01  0.44556344645E-02  0.89095635039E+00  0.88000000000E+00 0.  1.
        -11    1    4    4    0    0  0.31087524259E-01  0.28925934365E-01  0.82277322513E-02  0.43256219696E-01  0.51100000000E-03 0.  1.
         11    1    4    4    0    0  0.68243125852E-01  0.48932055090E-01 -0.19281131852E-01  0.86159697120E-01  0.51100000000E-03 0. -1.
</event>
<event>
 8    1  0.1083484E+005  0.1043930E+01  0.7957747E-01            NaN
         13   -1    0    0    0    0  0.00000000000E+00  0.00000000000E+00  0.74505805969E-08  0.10566000000E+00  0.10566000000E+00 0.  1.
     999900   -1    0    0    0    0 -0.00000000000E+00 -0.00000000000E+00 -0.74505805969E-08  0.93827000000E+00  0.93827000000E+00 0.  1.
     999902    2    1    2    0    0  0.25329487175E-01 -0.34299232119E-02 -0.16048211483E-01  0.10137490062E+01  0.10132996374E+01 0.  0.
     999903    2    3    3    0    0  0.47344358859E-01 -0.87593204935E-01 -0.76964213954E-01  0.12736372209E+00  0.19595142466E-01 0.  0.
         14    1    1    2    0    0 -0.25329487175E-01  0.34299232119E-02  0.16048211483E-01  0.30180993781E-01  0.00000000000E+00 0.  1.
     999901    1    3    3    0    0 -0.22014871684E-01  0.84163281723E-01  0.60916002471E-01  0.88638528413E+00  0.88000000000E+00 0. -1.
        -11    1    4    4    0    0  0.25370953050E-01 -0.28240485051E-01 -0.24833703622E-01  0.45367215158E-01  0.51100000000E-03 0.  1.
         11    1    4    4    0    0  0.21973405809E-01 -0.59352719883E-01 -0.52130510332E-01  0.81996506931E-01  0.51100000000E-03 0. -1.
</event>
<event>
 8    1  0.1083484E+005  0.1043930E+01  0.7957747E-01            NaN
         13   -1    0    0    0    0  0.00000000000E+00  0.00000000000E+00  0.74505805969E-08  0.10566000000E+00  0.10566000000E+00 0.  1.
     999900   -1    0    0    0    0 -0.00000000000E+00 -0.00000000000E+00 -0.74505805969E-08  0.93827000000E+00  0.93827000000E+00 0. -1.
     999902    2    1    2    0    0 -0.97677121805E-02 -0.17024215093E-01 -0.97134856227E-02  0.10220305958E+01  0.10217959458E+01 0.  0.
     999903    2    3    3    0    0 -0.12904263709E+00  0.27667283606E-01 -0.33287618310E-02  0.13283736458E+00  0.14737842600E-01 0.  0.
         14    1    1    2    0    0  0.97677121805E-02  0.17024215093E-01  0.97134856227E-02  0.21899404186E-01  0.00000000000E+00 0. -1.
     999901    1    3    3    0    0  0.11927492491E+00 -0.44691498699E-01 -0.63847237917E-02  0.88919323123E+00  0.88000000000E+00 0.  1.
        -11    1    4    4    0    0 -0.86716454902E-01  0.13365475615E-01  0.25075748760E-02  0.87777722356E-01  0.51100000000E-03 0.  1.
         11    1    4    4    0    0 -0.42326182189E-01  0.14301807991E-01 -0.58363367069E-02  0.45059642227E-01  0.51100000000E-03 0. -1.
</event>
<event>
 8    1  0.1083484E+005  0.1043930E+01  0.7957747E-01            NaN
         13   -1    0    0    0    0  0.00000000000E+00  0.00000000000E+00  0.74505805969E-08  0.10566000000E+00  0.10566000000E+00 0.  1.
     999900   -1    0    0    0    0 -0.00000000000E+00 -0.00000000000E+00 -0.74505805969E-08  0.93827000000E+00  0.93827000000E+00 0. -1.
     999902    2    1    2    0    0  0.16325869668E-01  0.10634788900E-01  0.13549976884E-01  0.10201974353E+01  0.10199213559E+01 0.  0.
     999903    2    3    3    0    0 -0.53778440561E-01  0.32384126676E-01  0.11411830982E+00  0.13143332843E+00  0.17631757064E-01 0.  0.
         14    1    1    2    0    0 -0.16325869668E-01 -0.10634788900E-01 -0.13549976884E-01  0.23732564735E-01  0.00000000000E+00 0. -1.
     999901    1    3    3    0    0  0.70104310228E-01 -0.21749337777E-01 -0.10056833293E+00  0.88876410683E+00  0.88000000000E+00 0. -1.
        -11    1    4    4    0    0 -0.43306070891E-01  0.30923099562E-01  0.83298597537E-01  0.98846200408E-01  0.51100000000E-03 0.  1.
         11    1    4    4    0    0 -0.10472369670E-01  0.14610271146E-02  0.30819712281E-01  0.32587128024E-01  0.51100000000E-03 0. -1.
</event>
<event>
 8    1  0.1083484E+005  0.1043930E+01  0.7957747E-01            NaN
         13   -1    0    0    0    0  0.00000000000E+00  0.00000000000E+00  0.74505805969E-08  0.10566000000E+00  0.10566000000E+00 0.  1.
     999900   -1    0    0    0    0 -0.00000000000E+00 -0.00000000000E+00 -0.74505805969E-08  0.93827000000E+00  0.93827000000E+00 0. -1.
     999902    2    1    2    0    0 -0.73344348472E-02 -0.30289746943E-02 -0.20540173586E-01  0.10219102963E+01  0.10216730329E+01 0.  0.
     999903    2    3    3    0    0  0.10689595394E+00 -0.17080160090E-02  0.70714829409E-01  0.12984650805E+00  0.20733216505E-01 0.  0.
         14    1    1    2    0    0  0.73344348472E-02  0.30289746943E-02  0.20540173586E-01  0.22019703748E-01  0.00000000000E+00 0.  1.
     999901    1    3    3    0    0 -0.11423038879E+00 -0.13209586853E-02 -0.91255002995E-01  0.89206378820E+00  0.88000000000E+00 0. -1.
        -11    1    4    4    0    0  0.10190044234E+00 -0.45364256869E-02  0.61901773040E-01  0.11931626014E+00  0.51100000000E-03 0.  1.
         11    1    4    4    0    0  0.49955115977E-02  0.28284096779E-02  0.88130563694E-02  0.10530247908E-01  0.51100000000E-03 0. -1.
</event>
<event>
 8    1  0.1083484E+005  0.1043930E+01  0.7957747E-01            NaN
         13   -1    0    0    0    0  0.00000000000E+00  0.00000000000E+00  0.74505805969E-08  0.10566000000E+00  0.10566000000E+00 0. -1.
     999900   -1    0    0    0    0 -0.00000000000E+00 -0.00000000000E+00 -0.74505805969E-08  0.93827000000E+00  0.93827000000E+00 0.  1.
     999902    2    1    2    0    0 -0.77850976965E-02 -0.34782320574E-02 -0.23450610645E-01  0.10189773051E+01  0.10186717387E+01 0.  0.
     999903    2    3    3    0    0 -0.77081310880E-01 -0.89733957849E-01  0.48179740001E-01  0.12916107544E+00  0.19172490273E-01 0.  0.
         14    1    1    2    0    0  0.77850976965E-02  0.34782320574E-02  0.23450610645E-01  0.24952694925E-01  0.00000000000E+00 0. -1.
     999901    1    3    3    0    0  0.69296213184E-01  0.86255725791E-01 -0.71630350646E-01  0.88981622964E+00  0.88000000000E+00 0. -1.
        -11    1    4    4    0    0 -0.74348764960E-01 -0.80707915594E-01  0.47842043829E-01  0.11971060425E+00  0.51100000000E-03 0.  1.
         11    1    4    4    0    0 -0.27325459209E-02 -0.90260422552E-02  0.33769617113E-03  0.94504711897E-02  0.51100000000E-03 0. -1.
</event>
<event>
 8    1  0.1083484E+005  0.1043930E+01  0.7957747E-01            NaN
         13   -1    0    0    0    0  0.00000000000E+00  0.00000000000E+00  0.74505805969E-08  0.10566000000E+00  0.10566000000E+00 0. -1.
     999900   -1    0    0    0    0 -0.00000000000E+00 -0.00000000000E+00 -0.74505805969E-08  0.93827000000E+00  0.93827000000E+00 0.  1.
     999902    2    1    2    0    0 -0.75885603924E-03 -0.21567599127E-01  0.10155195583E-01  0.10200791050E+01  0.10198002330E+01 0.  0.
     999903    2    3    3    0    0  0.84196165214E-01 -0.38921283538E-01  0.91766341881E-01  0.13205946266E+00  0.20366139208E-01 0.  0.
         14    1    1    2    0    0  0.75885603924E-03  0.21567599127E-01 -0.10155195583E-01  0.23850894993E-01  0.00000000000E+00 0.  1.
     999901    1    3    3    0    0 -0.84955021253E-01  0.17353684410E-01 -0.81611146298E-01  0.88801964235E+00  0.88000000000E+00 0.  1.
        -11    1    4    4    0    0  0.34628263013E-01 -0.11279188638E-01  0.48698100496E-01  0.60812028486E-01  0.51100000000E-03 0. -1.
         11    1    4    4    0    0  0.49567902201E-01 -0.27642094900E-01  0.43068241385E-01  0.71247434172E-01  0.51100000000E-03 0.  1.
</event>
<event>
 8    1  0.1083484E+005  0.1043930E+01  0.7957747E-01            NaN
         13   -1    0    0    0    0  0.00000000000E+00  0.00000000000E+00  0.74505805969E-08  0.10566000000E+00  0.10566000000E+00 0. -1.
     999900   -1    0    0    0    0 -0.00000000000E+00 -0.00000000000E+00 -0.74505805969E-08  0.93827000000E+00  0.93827000000E+00 0. -1.
     999902    2    1    2    0    0 -0.13947783240E-01 -0.18904003187E-01  0.27890468715E-02  0.10202724267E+01  0.10199981097E+01 0.  0.
     999903    2    3    3    0    0 -0.71004547078E-01 -0.23675446376E-01 -0.10647040565E+00  0.13166910181E+00  0.19965786380E-01 0.  0.
         14    1    1    2    0    0  0.13947783240E-01  0.18904003187E-01 -0.27890468715E-02  0.23657573338E-01  0.00000000000E+00 0.  1.
     999901    1    3    3    0    0  0.57056763838E-01  0.47714431892E-02  0.10925945252E+00  0.88860332485E+00  0.88000000000E+00 0.  1.
        -11    1    4    4    0    0 -0.22098600256E-01 -0.16782724422E-01 -0.44159172093E-01  0.52156510364E-01  0.51100000000E-03 0. -1.
         11    1    4    4    0    0 -0.48905946822E-01 -0.68927219534E-02 -0.62311233556E-01  0.79512591448E-01  0.51100000000E-03 0.  1.
</event>
<event>
 8    1  0.1083484E+005  0.1043930E+01  0.7957747E-01            NaN
         13   -1    0    0    0    0  0.00000000000E+00  0.00000000000E+00  0.74505805969E-08  0.10566000000E+00  0.10566000000E+00 0. -1.
     999900   -1    0    0    0    0 -0.00000000000E+00 -0.00000000000E+00 -0.74505805969E-08  0.93827000000E+00  0.93827000000E+00 0.  1.
     999902    2    1    2    0    0  0.97036862136E-02  0.23352516423E-02 -0.21416642380E-01  0.10203018918E+01  0.10200282657E+01 0.  0.
     999903    2    3    3    0    0 -0.60402360000E-01  0.76174642305E-01  0.81633232726E-01  0.12845751631E+00  0.19655217821E-01 0.  0.
         14    1    1    2    0    0 -0.97036862136E-02 -0.23352516423E-02  0.21416642380E-01  0.23628108202E-01  0.00000000000E+00 0. -1.
     999901    1    3    3    0    0  0.70106046214E-01 -0.73839390663E-01 -0.10304987511E+00  0.89184437549E+00  0.88000000000E+00 0.  1.
        -11    1    4    4    0    0 -0.37993899548E-01  0.56201895346E-01  0.65828773008E-01  0.94529772664E-01  0.51100000000E-03 0. -1.
         11    1    4    4    0    0 -0.22408460452E-01  0.19972746959E-01  0.15804459718E-01  0.33927743646E-01  0.51100000000E-03 0.  1.
</event>
<event>
 8    1  0.1083484E+005  0.1043930E+01  0.7957747E-01            NaN
         13   -1    0    0    0    0  0.00000000000E+00  0.00000000000E+00  0.74505805969E-08  0.10566000000E+00  0.10566000000E+00 0. -1.
     999900   -1    0    0    0    0 -0.00000000000E+00 -0.00000000000E+00 -0.74505805969E-08  0.93827000000E+00  0.93827000000E+00 0. -1.
     999902    2    1    2    0    0 -0.16834058816E-01 -0.16389691072E-01  0.34971917095E-03  0.10204325573E+01  0.10201619843E+01 0.  0.
     999903    2    3    3    0    0 -0.66991312614E-01 -0.10367725706E-01 -0.11129509246E+00  0.13194137663E+00  0.20654383507E-01 0.  0.
         14    1    1    2    0    0  0.16834058816E-01  0.16389691072E-01 -0.34971917095E-03  0.23497442694E-01  0.00000000000E+00 0. -1.
     999901    1    3    3    0    0  0.50157253798E-01 -0.60219653667E-02  0.11164481163E+00  0.88849118068E+00  0.88000000000E+00 0.  1.
        -11    1    4    4    0    0 -0.64014588941E-01 -0.13144109832E-01 -0.96198121572E-01  0.11629692574E+00  0.51100000000E-03 0.  1.
         11    1    4    4    0    0 -0.29767236732E-02  0.27763841261E-02 -0.15096970892E-01  0.15644450893E-01  0.51100000000E-03 0. -1.
</event>
<event>
 8    1  0.1083484E+005  0.1043930E+01  0.7957747E-01            NaN
         13   -1    0    0    0    0  0.00000000000E+00  0.00000000000E+00  0.74505805969E-08  0.10566000000E+00  0.10566000000E+00 0.  1.
     999900   -1    0    0    0    0 -0.00000000000E+00 -0.00000000000E+00 -0.74505805969E-08  0.93827000000E+00  0.93827000000E+00 0. -1.
     999902    2    1    2    0    0  0.10786515832E-01  0.20445278708E-01 -0.50411472352E-02  0.10202705091E+01  0.10199961471E+01 0.  0.
     999903    2    3    3    0    0  0.79354124353E-01  0.56348738244E-01  0.87144996287E-01  0.13207635215E+00  0.19433349318E-01 0.  0.
         14    1    1    2    0    0 -0.10786515832E-01 -0.20445278708E-01  0.50411472352E-02  0.23659490922E-01  0.00000000000E+00 0.  1.
     999901    1    3    3    0    0 -0.68567608521E-01 -0.35903459537E-01 -0.92186143522E-01  0.88819415693E+00  0.88000000000E+00 0. -1.
        -11    1    4    4    0    0  0.62157814273E-01  0.33416288271E-01  0.62612802978E-01  0.94344403198E-01  0.51100000000E-03 0.  1.
         11    1    4    4    0    0  0.17196310080E-01  0.22932449973E-01  0.24532193309E-01  0.37731948951E-01  0.51100000000E-03 0. -1.
</event>
<event>
 8    1  0.1083484E+005  0.1043930E+01  0.7957747E-01            NaN
         13   -1    0    0    0    0  0.00000000000E+00  0.00000000000E+00  0.74505805969E-08  0.10566000000E+00  0.10566000000E+00 0.  1.
     999900   -1    0    0    0    0 -0.00000000000E+00 -0.00000000000E+00 -0.74505805969E-08  0.93827000000E+00  0.93827000000E+00 0.  1.
     999902    2    1    2    0    0  0.14001969399E-01 -0.43823856928E-02 -0.18642173272E-01  0.10202067819E+01  0.10199309226E+01 0.  0.
     999903    2    3    3    0    0  0.37337883695E-01 -0.10200850349E+00  0.68958788810E-01  0.13017905633E+00  0.19784332464E-01 0.  0.
         14    1    1    2    0    0 -0.14001969399E-01  0.43823856928E-02  0.18642173272E-01  0.23723218073E-01  0.00000000000E+00 0.  1.
     999901    1    3    3    0    0 -0.23335914296E-01  0.97626117793E-01 -0.87600962082E-01  0.89002772560E+00  0.88000000000E+00 0.  1.
        -11    1    4    4    0    0  0.24754438976E-01 -0.42429395214E-01  0.25360147169E-01  0.55285025212E-01  0.51100000000E-03 0. -1.
         11    1    4    4    0    0  0.12583444719E-01 -0.59579108271E-01  0.43598641641E-01  0.74894031119E-01  0.51100000000E-03 0.  1.
</event>
<event>
 8    1  0.1083484E+005  0.1043930E+01  0.7957747E-01            NaN
         13   -1    0    0    0    0  0.00000000000E+00  0.00000000000E+00  0.74505805969E-08  0.10566000000E+00  0.10566000000E+00 0. -1.
     999900   -1    0    0    0    0 -0.00000000000E+00 -0.00000000000E+00 -0.74505805969E-08  0.93827000000E+00  0.93827000000E+00 0.  1.
     999902    2    1    2    0    0  0.93544422774E-02  0.86162114274E-02  0.21155665279E-01  0.10192458581E+01  0.10189469134E+01 0.  0.
     999903    2    3    3    0    0 -0.12485213776E+00 -0.32201865398E-02  0.24787082366E-01  0.12898483250E+00  0.20597612922E-01 0.  0.
         14    1    1    2    0    0 -0.93544422774E-02 -0.86162114274E-02 -0.21155665279E-01  0.24684141935E-01  0.00000000000E+00 0.  1.
     999901    1    3    3    0    0  0.13420658004E+00  0.11836397967E-01 -0.36314170868E-02  0.89026102556E+00  0.88000000000E+00 0.  1.
        -11    1    4    4    0    0 -0.83841039008E-01 -0.10335532596E-01  0.11312073076E-01  0.85231257026E-01  0.51100000000E-03 0.  1.
         11    1    4    4    0    0 -0.41011098756E-01  0.71153460558E-02  0.13475009289E-01  0.43753575477E-01  0.51100000000E-03 0. -1.
</event>
