<event>
 8    1  0.1070112E+005  0.1043930E+01  0.7957747E-01            NaN
         13   -1    0    0    0    0  0.00000000000E+00  0.00000000000E+00  0.74505805969E-08  0.10566000000E+00  0.10566000000E+00 0. -1.
     999900   -1    0    0    0    0 -0.00000000000E+00 -0.00000000000E+00 -0.74505805969E-08  0.93827000000E+00  0.93827000000E+00 0. -1.
     999902    2    1    2    0    0 -0.13144213317E-03 -0.68539640999E-02  0.63758038497E-02  0.10345681105E+01  0.10345257514E+01 0.  0.
     999903    2    3    3    0    0 -0.14025529665E-01 -0.12728683484E+00  0.63789437209E-01  0.14440326769E+00  0.19610140609E-01 0.  0.
         14    1    1    2    0    0  0.13144213317E-03  0.68539640999E-02 -0.63758038497E-02  0.93618895340E-02  0.00000000000E+00 0.  1.
     999901    1    3    3    0    0  0.13894087532E-01  0.12043287074E+00 -0.57413633359E-01  0.89016484278E+00  0.88000000000E+00 0.  1.
        -11    1    4    4    0    0 -0.31203570081E-02 -0.10147101086E+00  0.50151204016E-01  0.11323209376E+00  0.51100000000E-03 0. -1.
         11    1    4    4    0    0 -0.10905172657E-01 -0.25815823977E-01  0.13638233193E-01  0.31171173925E-01  0.51100000000E-03 0.  1.
</event>
<event>
 8    1  0.1070112E+005  0.1043930E+01  0.7957747E-01            NaN
         13   -1    0    0    0    0  0.00000000000E+00  0.00000000000E+00  0.74505805969E-08  0.10566000000E+00  0.10566000000E+00 0. -1.
     999900   -1    0    0    0    0 -0.00000000000E+00 -0.00000000000E+00 -0.74505805969E-08  0.93827000000E+00  0.93827000000E+00 0.  1.
     999902    2    1    2    0    0  0.68419447136E-03  0.20271288942E-01  0.13310115165E-01  0.10196699002E+01  0.10193812598E+01 0.  0.
     999903    2    3    3    0    0  0.11645520259E+00  0.13700560950E-02 -0.52659793953E-01  0.12943835062E+00  0.20433830951E-01 0.  0.
         14    1    1    2    0    0 -0.68419447136E-03 -0.20271288942E-01 -0.13310115165E-01  0.24260099818E-01  0.00000000000E+00 0.  1.
     999901    1    3    3    0    0 -0.11577100812E+00  0.18901232847E-01  0.65969909119E-01  0.89023154956E+00  0.88000000000E+00 0. -1.
        -11    1    4    4    0    0  0.31460987344E-01 -0.84895741668E-02 -0.12332414272E-01  0.34845604557E-01  0.51100000000E-03 0.  1.
         11    1    4    4    0    0  0.84994215251E-01  0.98596302618E-02 -0.40327379681E-01  0.94592746064E-01  0.51100000000E-03 0. -1.
</event>
<event>
 8    1  0.1070112E+005  0.1043930E+01  0.7957747E-01            NaN
         13   -1    0    0    0    0  0.00000000000E+00  0.00000000000E+00  0.74505805969E-08  0.10566000000E+00  0.10566000000E+00 0.  1.
     999900   -1    0    0    0    0 -0.00000000000E+00 -0.00000000000E+00 -0.74505805969E-08  0.93827000000E+00  0.93827000000E+00 0.  1.
     999902    2    1    2    0    0  0.18188068786E-01  0.15164823012E-01  0.33848947389E-02  0.10200085616E+01  0.10197280179E+01 0.  0.
     999903    2    3    3    0    0  0.87377543674E-01  0.82617480414E-01 -0.53023087631E-01  0.13292406454E+00  0.19921744514E-01 0.  0.
         14    1    1    2    0    0 -0.18188068786E-01 -0.15164823012E-01 -0.33848947389E-02  0.23921438409E-01  0.00000000000E+00 0.  1.
     999901    1    3    3    0    0 -0.69189474888E-01 -0.67452657402E-01  0.56407982370E-01  0.88708449705E+00  0.88000000000E+00 0. -1.
        -11    1    4    4    0    0  0.81784434037E-01  0.80904590396E-01 -0.46329138067E-01  0.12401974259E+00  0.51100000000E-03 0. -1.
         11    1    4    4    0    0  0.55931096369E-02  0.17128900176E-02 -0.66939495646E-02  0.89043219504E-02  0.51100000000E-03 0.  1.
</event>
<event>
 8    1  0.1070112E+005  0.1043930E+01  0.7957747E-01            NaN
         13   -1    0    0    0    0  0.00000000000E+00  0.00000000000E+00  0.74505805969E-08  0.10566000000E+00  0.10566000000E+00 0. -1.
     999900   -1    0    0    0    0 -0.00000000000E+00 -0.00000000000E+00 -0.74505805969E-08  0.93827000000E+00  0.93827000000E+00 0. -1.
     999902    2    1    2    0    0  0.19995882035E-01 -0.77531282347E-02 -0.10345003502E-01  0.10201189649E+01  0.10198410352E+01 0.  0.
     999903    2    3    3    0    0  0.65746504597E-01 -0.11224522213E+00  0.14150963556E-01  0.13241869478E+00  0.20319158418E-01 0.  0.
         14    1    1    2    0    0 -0.19995882035E-01  0.77531282347E-02  0.10345003502E-01  0.23811035115E-01  0.00000000000E+00 0. -1.
     999901    1    3    3    0    0 -0.45750622562E-01  0.10449209389E+00 -0.24495967059E-01  0.88770027011E+00  0.88000000000E+00 0.  1.
        -11    1    4    4    0    0  0.57504859651E-01 -0.96878766740E-01  0.19138059183E-01  0.11427524123E+00  0.51100000000E-03 0. -1.
         11    1    4    4    0    0  0.82416449459E-02 -0.15366455389E-01 -0.49870956269E-02  0.18143453542E-01  0.51100000000E-03 0.  1.
</event>
<event>
 8    1  0.1070112E+005  0.1043930E+01  0.7957747E-01            NaN
         13   -1    0    0    0    0  0.00000000000E+00  0.00000000000E+00  0.74505805969E-08  0.10566000000E+00  0.10566000000E+00 0. -1.
     999900   -1    0    0    0    0 -0.00000000000E+00 -0.00000000000E+00 -0.74505805969E-08  0.93827000000E+00  0.93827000000E+00 0.  1.
     999902    2    1    2    0    0 -0.23669029912E-02  0.18155374026E-01 -0.12572381552E-01  0.10217199884E+01  0.10214785608E+01 0.  0.
     999903    2    3    3    0    0 -0.70258975566E-01  0.88668864117E-01 -0.70045528127E-01  0.13442936616E+00  0.19141247710E-01 0.  0.
         14    1    1    2    0    0  0.23669029912E-02 -0.18155374026E-01  0.12572381552E-01  0.22210011564E-01  0.00000000000E+00 0. -1.
     999901    1    3    3    0    0  0.67892072574E-01 -0.70513490092E-01  0.57473146575E-01  0.88729062228E+00  0.88000000000E+00 0. -1.
        -11    1    4    4    0    0 -0.52932397232E-01  0.55065986386E-01 -0.52902952090E-01  0.92914396055E-01  0.51100000000E-03 0. -1.
         11    1    4    4    0    0 -0.17326578334E-01  0.33602877731E-01 -0.17142576037E-01  0.41514970104E-01  0.51100000000E-03 0.  1.
</event>
<event>
 8    1  0.1070112E+005  0.1043930E+01  0.7957747E-01            NaN
         13   -1    0    0    0    0  0.00000000000E+00  0.00000000000E+00  0.74505805969E-08  0.10566000000E+00  0.10566000000E+00 0.  1.
     999900   -1    0    0    0    0 -0.00000000000E+00 -0.00000000000E+00 -0.74505805969E-08  0.93827000000E+00  0.93827000000E+00 0. -1.
     999902    2    1    2    0    0 -0.21294202581E-01 -0.80382693837E-02  0.33580700418E-02  0.10209227517E+01  0.10206634761E+01 0.  0.
     999903    2    3    3    0    0  0.11267928857E+00  0.37541051795E-01  0.45155449994E-01  0.12863726389E+00  0.20064355339E-01 0.  0.
         14    1    1    2    0    0  0.21294202581E-01  0.80382693837E-02 -0.33580700418E-02  0.23007248263E-01  0.00000000000E+00 0.  1.
     999901    1    3    3    0    0 -0.13397349115E+00 -0.45579321178E-01 -0.41797379952E-01  0.89228548785E+00  0.88000000000E+00 0. -1.
        -11    1    4    4    0    0  0.39199646916E-01  0.11925489767E-01  0.25887609275E-01  0.48469155754E-01  0.51100000000E-03 0.  1.
         11    1    4    4    0    0  0.73479641652E-01  0.25615562027E-01  0.19267840719E-01  0.80168108136E-01  0.51100000000E-03 0. -1.
</event>
<event>
 8    1  0.1070112E+005  0.1043930E+01  0.7957747E-01            NaN
         13   -1    0    0    0    0  0.00000000000E+00  0.00000000000E+00  0.74505805969E-08  0.10566000000E+00  0.10566000000E+00 0. -1.
     999900   -1    0    0    0    0 -0.00000000000E+00 -0.00000000000E+00 -0.74505805969E-08  0.93827000000E+00  0.93827000000E+00 0. -1.
     999902    2    1    2    0    0 -0.28707356922E-02 -0.18574552259E-02  0.22721323137E-01  0.10209528420E+01  0.10206942519E+01 0.  0.
     999903    2    3    3    0    0  0.25051572196E-01 -0.38237593415E-01  0.12428557860E+00  0.13392495762E+00  0.19982352345E-01 0.  0.
         14    1    1    2    0    0  0.28707356922E-02  0.18574552259E-02 -0.22721323137E-01  0.22977157971E-01  0.00000000000E+00 0.  1.
     999901    1    3    3    0    0 -0.27922307888E-01  0.36380138189E-01 -0.10156425546E+00  0.88702788441E+00  0.88000000000E+00 0. -1.
        -11    1    4    4    0    0  0.19770852236E-03 -0.15971961290E-01  0.49886041432E-01  0.52383402781E-01  0.51100000000E-03 0.  1.
         11    1    4    4    0    0  0.24853863673E-01 -0.22265632124E-01  0.74399537170E-01  0.81541554838E-01  0.51100000000E-03 0. -1.
</event>
<event>
 8    1  0.1070112E+005  0.1043930E+01  0.7957747E-01            NaN
         13   -1    0    0    0    0  0.00000000000E+00  0.00000000000E+00  0.74505805969E-08  0.10566000000E+00  0.10566000000E+00 0.  1.
     999900   -1    0    0    0    0 -0.00000000000E+00 -0.00000000000E+00 -0.74505805969E-08  0.93827000000E+00  0.93827000000E+00 0. -1.
     999902    2    1    2    0    0 -0.13866192873E-01  0.18868446154E-01 -0.42739645290E-02  0.10201275561E+01  0.10198498293E+01 0.  0.
     999903    2    3    3    0    0 -0.59904942109E-01 -0.11304032654E+00 -0.45812288324E-02  0.12910590359E+00  0.16751990039E-01 0.  0.
         14    1    1    2    0    0  0.13866192873E-01 -0.18868446154E-01  0.42739645290E-02  0.23802443947E-01  0.00000000000E+00 0.  1.
     999901    1    3    3    0    0  0.46038749235E-01  0.13190877270E+00  0.30726430340E-03  0.89102165246E+00  0.88000000000E+00 0. -1.
        -11    1    4    4    0    0 -0.19113077592E-01 -0.46025078684E-01  0.49030392316E-02  0.50079122572E-01  0.51100000000E-03 0.  1.
         11    1    4    4    0    0 -0.40791864517E-01 -0.67015247859E-01 -0.94842680640E-02  0.79026781018E-01  0.51100000000E-03 0. -1.
</event>
<event>
 8    1  0.1070112E+005  0.1043930E+01  0.7957747E-01            NaN
         13   -1    0    0    0    0  0.00000000000E+00  0.00000000000E+00  0.74505805969E-08  0.10566000000E+00  0.10566000000E+00 0. -1.
     999900   -1    0    0    0    0 -0.00000000000E+00 -0.00000000000E+00 -0.74505805969E-08  0.93827000000E+00  0.93827000000E+00 0. -1.
     999902    2    1    2    0    0 -0.14376615798E-01  0.15388851574E-01  0.89468858693E-03  0.10228514730E+01  0.10226342608E+01 0.  0.
     999903    2    3    3    0    0  0.12024888803E+00  0.26467160503E-01  0.40469886501E-01  0.13166521212E+00  0.23186433781E-01 0.  0.
         14    1    1    2    0    0  0.14376615798E-01 -0.15388851574E-01 -0.89468858693E-03  0.21078527042E-01  0.00000000000E+00 0.  1.
     999901    1    3    3    0    0 -0.13462550383E+00 -0.11078308929E-01 -0.39575197914E-01  0.89118626083E+00  0.88000000000E+00 0.  1.
        -11    1    4    4    0    0  0.21372707412E-01  0.10977738141E-01  0.15217144183E-01  0.28445139390E-01  0.51100000000E-03 0. -1.
         11    1    4    4    0    0  0.98876180622E-01  0.15489422362E-01  0.25252742318E-01  0.10322007273E+00  0.51100000000E-03 0.  1.
</event>
<event>
 8    1  0.1070112E+005  0.1043930E+01  0.7957747E-01            NaN
         13   -1    0    0    0    0  0.00000000000E+00  0.00000000000E+00  0.74505805969E-08  0.10566000000E+00  0.10566000000E+00 0.  1.
     999900   -1    0    0    0    0 -0.00000000000E+00 -0.00000000000E+00 -0.74505805969E-08  0.93827000000E+00  0.93827000000E+00 0.  1.
     999902    2    1    2    0    0 -0.19814518755E-01  0.33781845423E-02  0.12730045758E-01  0.10201375359E+01  0.10198600447E+01 0.  0.
     999903    2    3    3    0    0  0.12395429047E-02  0.12305417680E+00  0.33521747193E-01  0.13154431539E+00  0.32192118323E-01 0.  0.
         14    1    1    2    0    0  0.19814518755E-01 -0.33781845423E-02 -0.12730045758E-01  0.23792464128E-01  0.00000000000E+00 0. -1.
     999901    1    3    3    0    0 -0.21054061659E-01 -0.11967599226E+00 -0.20791701435E-01  0.88859322048E+00  0.88000000000E+00 0.  1.
        -11    1    4    4    0    0 -0.12580228068E-01  0.62842340624E-01  0.75751818026E-02  0.64537325741E-01  0.51100000000E-03 0. -1.
         11    1    4    4    0    0  0.13819770973E-01  0.60211836177E-01  0.25946565390E-01  0.67006989651E-01  0.51100000000E-03 0.  1.
</event>
<event>
 8    1  0.1070112E+005  0.1043930E+01  0.7957747E-01            NaN
         13   -1    0    0    0    0  0.00000000000E+00  0.00000000000E+00  0.74505805969E-08  0.10566000000E+00  0.10566000000E+00 0. -1.
     999900   -1    0    0    0    0 -0.00000000000E+00 -0.00000000000E+00 -0.74505805969E-08  0.93827000000E+00  0.93827000000E+00 0.  1.
     999902    2    1    2    0    0  0.14523231761E-01 -0.17512193813E-01  0.87994669215E-02  0.10195367261E+01  0.10192448695E+01 0.  0.
     999903    2    3    3    0    0 -0.83988042111E-01 -0.11295939750E-01 -0.94653144071E-01  0.12799561342E+00  0.15558595697E-01 0.  0.
         14    1    1    2    0    0 -0.14523231761E-01  0.17512193813E-01 -0.87994669215E-02  0.24393273889E-01  0.00000000000E+00 0. -1.
     999901    1    3    3    0    0  0.98511273872E-01 -0.62162540629E-02  0.10345261099E+00  0.89154111269E+00  0.88000000000E+00 0. -1.
        -11    1    4    4    0    0 -0.60292247619E-01 -0.10106483352E-01 -0.77517774318E-01  0.98724680729E-01  0.51100000000E-03 0.  1.
         11    1    4    4    0    0 -0.23695794492E-01 -0.11894563987E-02 -0.17135369752E-01  0.29270932692E-01  0.51100000000E-03 0. -1.
</event>
<event>
 8    1  0.1070112E+005  0.1043930E+01  0.7957747E-01            NaN
         13   -1    0    0    0    0  0.00000000000E+00  0.00000000000E+00  0.74505805969E-08  0.10566000000E+00  0.10566000000E+00 0. -1.
     999900   -1    0    0    0    0 -0.00000000000E+00 -0.00000000000E+00 -0.74505805969E-08  0.93827000000E+00  0.93827000000E+00 0.  1.
     999902    2    1    2    0    0  0.21495468205E-01  0.12177680468E-01 -0.22618124460E-02  0.10191213956E+01  0.10188193914E+01 0.  0.
     999903    2    3    3    0    0 -0.28164420062E-01 -0.11816963072E+00  0.33177565810E-01  0.12743059969E+00  0.19506683051E-01 0.  0.
         14    1    1    2    0    0 -0.21495468205E-01 -0.12177680468E-01  0.22618124460E-02  0.24808604363E-01  0.00000000000E+00 0.  1.
     999901    1    3    3    0    0  0.49659888267E-01  0.13034731119E+00 -0.35439378256E-01  0.89169079594E+00  0.88000000000E+00 0.  1.
        -11    1    4    4    0    0 -0.15029997686E-01 -0.26908579568E-01  0.77185446867E-02  0.31777500498E-01  0.51100000000E-03 0. -1.
         11    1    4    4    0    0 -0.13134422377E-01 -0.91261051151E-01  0.25459021123E-01  0.95653099197E-01  0.51100000000E-03 0.  1.
</event>
<event>
 8    1  0.1070112E+005  0.1043930E+01  0.7957747E-01            NaN
         13   -1    0    0    0    0  0.00000000000E+00  0.00000000000E+00  0.74505805969E-08  0.10566000000E+00  0.10566000000E+00 0. -1.
     999900   -1    0    0    0    0 -0.00000000000E+00 -0.00000000000E+00 -0.74505805969E-08  0.93827000000E+00  0.93827000000E+00 0.  1.
     999902    2    1    2    0    0  0.17599192067E-02  0.66791775867E-02  0.22823617584E-01  0.10200841146E+01  0.10198053612E+01 0.  0.
     999903    2    3    3    0    0 -0.58291010530E-01 -0.30172252810E-01 -0.10761444721E+00  0.12768385084E+00  0.20349195794E-01 0.  0.
         14    1    1    2    0    0 -0.17599192067E-02 -0.66791775867E-02 -0.22823617584E-01  0.23845885357E-01  0.00000000000E+00 0.  1.
     999901    1    3    3    0    0  0.60050929737E-01  0.36851430396E-01  0.13043806479E+00  0.89240026380E+00  0.88000000000E+00 0. -1.
        -11    1    4    4    0    0 -0.17529441611E-01 -0.10338884039E-01 -0.17652760609E-01  0.26945406371E-01  0.51100000000E-03 0. -1.
         11    1    4    4    0    0 -0.40761568919E-01 -0.19833368771E-01 -0.89961686600E-01  0.10073844447E+00  0.51100000000E-03 0.  1.
</event>
<event>
 8    1  0.1070112E+005  0.1043930E+01  0.7957747E-01            NaN
         13   -1    0    0    0    0  0.00000000000E+00  0.00000000000E+00  0.74505805969E-08  0.10566000000E+00  0.10566000000E+00 0. -1.
     999900   -1    0    0    0    0 -0.00000000000E+00 -0.00000000000E+00 -0.74505805969E-08  0.93827000000E+00  0.93827000000E+00 0. -1.
     999902    2    1    2    0    0 -0.65993612128E-02 -0.11930556613E-01  0.18919826786E-01  0.10206094169E+01  0.10203429484E+01 0.  0.
     999903    2    3    3    0    0 -0.10108967089E+00  0.67927562254E-01 -0.40745776661E-01  0.12995475769E+00  0.19868202173E-01 0.  0.
         14    1    1    2    0    0  0.65993612128E-02  0.11930556613E-01 -0.18919826786E-01  0.23320583079E-01  0.00000000000E+00 0. -1.
     999901    1    3    3    0    0  0.94490309673E-01 -0.79858118867E-01  0.59665603447E-01  0.89065465923E+00  0.88000000000E+00 0.  1.
        -11    1    4    4    0    0 -0.52226409743E-01  0.23765412310E-01 -0.15722007969E-01  0.59496515465E-01  0.51100000000E-03 0. -1.
         11    1    4    4    0    0 -0.48863261143E-01  0.44162149945E-01 -0.25023768692E-01  0.70458242228E-01  0.51100000000E-03 0.  1.
</event>
<event>
 8    1  0.1070112E+005  0.1043930E+01  0.7957747E-01            NaN
         13   -1    0    0    0    0  0.00000000000E+00  0.00000000000E+00  0.74505805969E-08  0.10566000000E+00  0.10566000000E+00 0.  1.
     999900   -1    0    0    0    0 -0.00000000000E+00 -0.00000000000E+00 -0.74505805969E-08  0.93827000000E+00  0.93827000000E+00 0. -1.
     999902    2    1    2    0    0 -0.18694449413E-01  0.11868769887E-01 -0.37564381949E-02  0.10214697915E+01  0.10212228327E+01 0.  0.
     999903    2    3    3    0    0  0.68226297791E-01  0.86059982294E-01 -0.69365029934E-01  0.13165855332E+00  0.21478338459E-01 0.  0.
         14    1    1    2    0    0  0.18694449413E-01 -0.11868769887E-01  0.37564381949E-02  0.22460208490E-01  0.00000000000E+00 0.  1.
     999901    1    3    3    0    0 -0.86920747204E-01 -0.74191212406E-01  0.65608591739E-01  0.88981123819E+00  0.88000000000E+00 0.  1.
        -11    1    4    4    0    0  0.18427021004E-01  0.24068763280E-01 -0.83995005866E-02  0.31459071824E-01  0.51100000000E-03 0.  1.
         11    1    4    4    0    0  0.49799276788E-01  0.61991219014E-01 -0.60965529347E-01  0.10019948150E+00  0.51100000000E-03 0. -1.
</event>
<event>
 8    1  0.1070112E+005  0.1043930E+01  0.7957747E-01            NaN
         13   -1    0    0    0    0  0.00000000000E+00  0.00000000000E+00  0.74505805969E-08  0.10566000000E+00  0.10566000000E+00 0. -1.
     999900   -1    0    0    0    0 -0.00000000000E+00 -0.00000000000E+00 -0.74505805969E-08  0.93827000000E+00  0.93827000000E+00 0.  1.
     999902    2    1    2    0    0  0.21997414351E-02  0.91461843084E-02 -0.21618161422E-01  0.10203538160E+01  0.10200814052E+01 0.  0.
     999903    2    3    3    0    0 -0.56713643226E-01  0.98016165720E-01 -0.66549077526E-01  0.13277990485E+00  0.19445239592E-01 0.  0.
         14    1    1    2    0    0 -0.21997414351E-02 -0.91461843084E-02  0.21618161422E-01  0.23576184022E-01  0.00000000000E+00 0. -1.
     999901    1    3    3    0    0  0.58913384661E-01 -0.88869981411E-01  0.44930916105E-01  0.88757391113E+00  0.88000000000E+00 0. -1.
        -11    1    4    4    0    0 -0.36592745382E-01  0.58603971820E-01 -0.50990015381E-01  0.85870235339E-01  0.51100000000E-03 0. -1.
         11    1    4    4    0    0 -0.20120897844E-01  0.39412193900E-01 -0.15559062146E-01  0.46909669514E-01  0.51100000000E-03 0.  1.
</event>
<event>
 8    1  0.1070112E+005  0.1043930E+01  0.7957747E-01            NaN
         13   -1    0    0    0    0  0.00000000000E+00  0.00000000000E+00  0.74505805969E-08  0.10566000000E+00  0.10566000000E+00 0.  1.
     999900   -1    0    0    0    0 -0.00000000000E+00 -0.00000000000E+00 -0.74505805969E-08  0.93827000000E+00  0.93827000000E+00 0. -1.
     999902    2    1    2    0    0  0.25734128759E-01  0.73110761720E-02  0.67856968412E-02  0.10163303098E+01  0.10159554890E+01 0.  0.
     999903    2    3    3    0    0  0.48425187051E-01  0.11653082569E+00  0.17603824862E-01  0.12922215985E+00  0.21541584658E-01 0.  0.
         14    1    1    2    0    0 -0.25734128759E-01 -0.73110761720E-02 -0.67856968412E-02  0.27599690205E-01  0.00000000000E+00 0.  1.
     999901    1    3    3    0    0 -0.22691058292E-01 -0.10921974951E+00 -0.10818128021E-01  0.88710814995E+00  0.88000000000E+00 0.  1.
        -11    1    4    4    0    0  0.20860988621E-01  0.36644505861E-01 -0.28729058319E-02  0.42267190171E-01  0.51100000000E-03 0. -1.
         11    1    4    4    0    0  0.27564198430E-01  0.79886319826E-01  0.20476730694E-01  0.86954969676E-01  0.51100000000E-03 0.  1.
</event>
<event>
 7    1  0.1070112E+005  0.1043930E+01  0.7957747E-01            NaN
         13   -1    0    0    0    0  0.00000000000E+00  0.00000000000E+00  0.74505805969E-08  0.10566000000E+00  0.10566000000E+00 0.  1.
     999900   -1    0    0    0    0 -0.00000000000E+00 -0.00000000000E+00 -0.74505805969E-08  0.93827000000E+00  0.93827000000E+00 0. -1.
     999903    2    1    2    0    0  0.10589101859E+00 -0.23787267597E-01  0.34658592313E-01  0.11528166343E+00  0.17604033216E-01 0.  0.
         14    1    1    2    0    0 -0.29838036968E-02 -0.23075731051E-01 -0.34258726184E-01  0.41413195576E-01  0.00000000000E+00 0. -1.
     999901    1    1    2    0    0 -0.10290721489E+00  0.46862998648E-01 -0.39986612959E-03  0.88723514099E+00  0.88000000000E+00 0. -1.
        -11    1    3    3    0    0  0.18088567695E-01 -0.97775449524E-02  0.24526378457E-02  0.20714082649E-01  0.51100000000E-03 0. -1.
         11    1    3    3    0    0  0.87802450891E-01 -0.14009722644E-01  0.32205954468E-01  0.94567580783E-01  0.51100000000E-03 0.  1.
</event>
<event>
 8    1  0.1070112E+005  0.1043930E+01  0.7957747E-01            NaN
         13   -1    0    0    0    0  0.00000000000E+00  0.00000000000E+00  0.74505805969E-08  0.10566000000E+00  0.10566000000E+00 0. -1.
     999900   -1    0    0    0    0 -0.00000000000E+00 -0.00000000000E+00 -0.74505805969E-08  0.93827000000E+00  0.93827000000E+00 0.  1.
     999902    2    1    2    0    0  0.11879261180E-01 -0.83068256987E-02  0.19205242665E-01  0.10198683802E+01  0.10195844994E+01 0.  0.
     999903    2    3    3    0    0  0.55527017213E-01  0.27453333640E-01 -0.11076980812E+00  0.12853374644E+00  0.20347933877E-01 0.  0.
         14    1    1    2    0    0 -0.11879261180E-01  0.83068256987E-02 -0.19205242665E-01  0.24061619754E-01  0.00000000000E+00 0.  1.
     999901    1    3    3    0    0 -0.43647756033E-01 -0.35760159338E-01  0.12997505079E+00  0.89133463381E+00  0.88000000000E+00 0. -1.
        -11    1    4    4    0    0  0.39264221429E-01  0.89062757733E-02 -0.62987432932E-01  0.74757465587E-01  0.51100000000E-03 0.  1.
         11    1    4    4    0    0  0.16262795784E-01  0.18547057866E-01 -0.47782375190E-01  0.53776280849E-01  0.51100000000E-03 0. -1.
</event>
<event>
 8    1  0.1070112E+005  0.1043930E+01  0.7957747E-01            NaN
         13   -1    0    0    0    0  0.00000000000E+00  0.00000000000E+00  0.74505805969E-08  0.10566000000E+00  0.10566000000E+00 0. -1.
     999900   -1    0    0    0    0 -0.00000000000E+00 -0.00000000000E+00 -0.74505805969E-08  0.93827000000E+00  0.93827000000E+00 0. -1.
     999902    2    1    2    0    0 -0.84768984232E-02 -0.72737876922E-02  0.20541618627E-01  0.10205478724E+01  0.10202799792E+01 0.  0.
     999903    2    3    3    0    0  0.17861016121E-01 -0.12656585064E+00  0.26201698866E-01  0.13209060359E+00  0.20578340266E-01 0.  0.
         14    1    1    2    0    0  0.84768984232E-02  0.72737876922E-02 -0.20541618627E-01  0.23382127578E-01  0.00000000000E+00 0.  1.
     999901    1    3    3    0    0 -0.26337914544E-01  0.11929206295E+00 -0.56600802392E-02  0.88845726883E+00  0.88000000000E+00 0. -1.
        -11    1    4    4    0    0  0.34348870334E-02 -0.86646580371E-01  0.13342845033E-01  0.87736656954E-01  0.51100000000E-03 0.  1.
         11    1    4    4    0    0  0.14426129087E-01 -0.39919270273E-01  0.12858853834E-01  0.44353946639E-01  0.51100000000E-03 0. -1.
</event>
<event>
 8    1  0.1070112E+005  0.1043930E+01  0.7957747E-01            NaN
         13   -1    0    0    0    0  0.00000000000E+00  0.00000000000E+00  0.74505805969E-08  0.10566000000E+00  0.10566000000E+00 0.  1.
     999900   -1    0    0    0    0 -0.00000000000E+00 -0.00000000000E+00 -0.74505805969E-08  0.93827000000E+00  0.93827000000E+00 0.  1.
     999902    2    1    2    0    0 -0.14011775872E-01 -0.13944360165E-01  0.12222781899E-01  0.10206884114E+01  0.10204237658E+01 0.  0.
     999903    2    3    3    0    0 -0.81320862286E-01  0.59251265511E-01  0.83568297643E-01  0.13221877469E+00  0.19348098146E-01 0.  0.
         14    1    1    2    0    0  0.14011775872E-01  0.13944360165E-01 -0.12222781899E-01  0.23241588604E-01  0.00000000000E+00 0. -1.
     999901    1    3    3    0    0  0.67309086415E-01 -0.73195625676E-01 -0.71345515744E-01  0.88846963671E+00  0.88000000000E+00 0.  1.
        -11    1    4    4    0    0 -0.15381953048E-01  0.12168981496E-01  0.27106587241E-01  0.33462169431E-01  0.51100000000E-03 0.  1.
         11    1    4    4    0    0 -0.65938909238E-01  0.47082284015E-01  0.56461710403E-01  0.98756605258E-01  0.51100000000E-03 0. -1.
</event>
<event>
 8    1  0.1070112E+005  0.1043930E+01  0.7957747E-01            NaN
         13   -1    0    0    0    0  0.00000000000E+00  0.00000000000E+00  0.74505805969E-08  0.10566000000E+00  0.10566000000E+00 0.  1.
     999900   -1    0    0    0    0 -0.00000000000E+00 -0.00000000000E+00 -0.74505805969E-08  0.93827000000E+00  0.93827000000E+00 0.  1.
     999902    2    1    2    0    0  0.61532862009E-02  0.26901388153E-01  0.14909595049E-01  0.10125637181E+01  0.10120777834E+01 0.  0.
     999903    2    3    3    0    0  0.90624549691E-01  0.15040912811E-01  0.83604041230E-01  0.12577457058E+00  0.19762814295E-01 0.  0.
         14    1    1    2    0    0 -0.61532862009E-02 -0.26901388153E-01 -0.14909595049E-01  0.31366281898E-01  0.00000000000E+00 0. -1.
     999901    1    3    3    0    0 -0.84471263491E-01  0.11860475341E-01 -0.68694446182E-01  0.88678914752E+00  0.88000000000E+00 0.  1.
        -11    1    4    4    0    0  0.16721366457E-01 -0.27590412376E-02  0.87142624083E-02  0.19063470173E-01  0.51100000000E-03 0.  1.
         11    1    4    4    0    0  0.73903183235E-01  0.17799954049E-01  0.74889778822E-01  0.10671110040E+00  0.51100000000E-03 0. -1.
</event>
<event>
 8    1  0.1070112E+005  0.1043930E+01  0.7957747E-01            NaN
         13   -1    0    0    0    0  0.00000000000E+00  0.00000000000E+00  0.74505805969E-08  0.10566000000E+00  0.10566000000E+00 0.  1.
     999900   -1    0    0    0    0 -0.00000000000E+00 -0.00000000000E+00 -0.74505805969E-08  0.93827000000E+00  0.93827000000E+00 0.  1.
     999902    2    1    2    0    0  0.19258572998E-01 -0.13004030642E-01 -0.58771104977E-02  0.10199604803E+01  0.10196787943E+01 0.  0.
     999903    2    3    3    0    0  0.37276153868E-01  0.53769078012E-01 -0.11167315835E+00  0.13092949940E+00  0.19774076951E-01 0.  0.
         14    1    1    2    0    0 -0.19258572998E-01  0.13004030642E-01  0.58771104977E-02  0.23969519700E-01  0.00000000000E+00 0.  1.
     999901    1    3    3    0    0 -0.18017580869E-01 -0.66773108653E-01  0.10579604785E+00  0.88903098090E+00  0.88000000000E+00 0. -1.
        -11    1    4    4    0    0  0.10384004559E-01  0.23084604210E-01 -0.27452249461E-01  0.37344526020E-01  0.51100000000E-03 0. -1.
         11    1    4    4    0    0  0.26892149308E-01  0.30684473802E-01 -0.84220908891E-01  0.93584973379E-01  0.51100000000E-03 0.  1.
</event>
<event>
 8    1  0.1070112E+005  0.1043930E+01  0.7957747E-01            NaN
         13   -1    0    0    0    0  0.00000000000E+00  0.00000000000E+00  0.74505805969E-08  0.10566000000E+00  0.10566000000E+00 0.  1.
     999900   -1    0    0    0    0 -0.00000000000E+00 -0.00000000000E+00 -0.74505805969E-08  0.93827000000E+00  0.93827000000E+00 0. -1.
     999902    2    1    2    0    0 -0.22558902090E-01 -0.28890741055E-02  0.70427968717E-02  0.10201213503E+01  0.10198434770E+01 0.  0.
     999903    2    3    3    0    0  0.42732857077E-01  0.49478070578E-01 -0.10902264673E+00  0.12856287277E+00  0.19191097209E-01 0.  0.
         14    1    1    2    0    0  0.22558902090E-01  0.28890741055E-02 -0.70427968717E-02  0.23808649699E-01  0.00000000000E+00 0.  1.
     999901    1    3    3    0    0 -0.65291759167E-01 -0.52367144684E-01  0.11606544361E+00  0.89155847753E+00  0.88000000000E+00 0.  1.
        -11    1    4    4    0    0  0.19961063632E-01  0.14732257566E-01 -0.55605558102E-01  0.60891072311E-01  0.51100000000E-03 0.  1.
         11    1    4    4    0    0  0.22771793445E-01  0.34745813012E-01 -0.53417088632E-01  0.67671800460E-01  0.51100000000E-03 0. -1.
</event>
<event>
 8    1  0.1070112E+005  0.1043930E+01  0.7957747E-01            NaN
         13   -1    0    0    0    0  0.00000000000E+00  0.00000000000E+00  0.74505805969E-08  0.10566000000E+00  0.10566000000E+00 0. -1.
     999900   -1    0    0    0    0 -0.00000000000E+00 -0.00000000000E+00 -0.74505805969E-08  0.93827000000E+00  0.93827000000E+00 0.  1.
     999902    2    1    2    0    0  0.11791748426E-01  0.14241638832E-01 -0.18889911745E-01  0.10174970968E+01  0.10171536971E+01 0.  0.
     999903    2    3    3    0    0 -0.31020124622E-01  0.98846553340E-01 -0.77117328728E-01  0.13049017452E+00  0.18647091368E-01 0.  0.
         14    1    1    2    0    0 -0.11791748426E-01 -0.14241638832E-01  0.18889911745E-01  0.26432903232E-01  0.00000000000E+00 0. -1.
     999901    1    3    3    0    0  0.42811873048E-01 -0.84604914509E-01  0.58227416983E-01  0.88700692225E+00  0.88000000000E+00 0. -1.
        -11    1    4    4    0    0 -0.25882962853E-01  0.75846835412E-01 -0.49570615638E-01  0.94234692464E-01  0.51100000000E-03 0. -1.
         11    1    4    4    0    0 -0.51371617699E-02  0.22999717928E-01 -0.27546713090E-01  0.36255482053E-01  0.51100000000E-03 0.  1.
</event>
<event>
 8    1  0.1070112E+005  0.1043930E+01  0.7957747E-01            NaN
         13   -1    0    0    0    0  0.00000000000E+00  0.00000000000E+00  0.74505805969E-08  0.10566000000E+00  0.10566000000E+00 0.  1.
     999900   -1    0    0    0    0 -0.00000000000E+00 -0.00000000000E+00 -0.74505805969E-08  0.93827000000E+00  0.93827000000E+00 0. -1.
     999902    2    1    2    0    0  0.18559002121E-01  0.13379127049E-02 -0.14769994575E-01  0.10201733313E+01  0.10198966842E+01 0.  0.
     999903    2    3    3    0    0 -0.31083400398E-01 -0.85796367517E-01 -0.92318294412E-01  0.13108925777E+00  0.18290203931E-01 0.  0.
         14    1    1    2    0    0 -0.18559002121E-01 -0.13379127049E-02  0.14769994575E-01  0.23756668745E-01  0.00000000000E+00 0.  1.
     999901    1    3    3    0    0  0.49642402519E-01  0.87134280222E-01  0.77548299837E-01  0.88908407349E+00  0.88000000000E+00 0.  1.
        -11    1    4    4    0    0 -0.24533837554E-01 -0.61662903240E-01 -0.55156596985E-01  0.86294461775E-01  0.51100000000E-03 0.  1.
         11    1    4    4    0    0 -0.65495628446E-02 -0.24133464277E-01 -0.37161697428E-01  0.44794795994E-01  0.51100000000E-03 0. -1.
</event>
<event>
 8    1  0.1070112E+005  0.1043930E+01  0.7957747E-01            NaN
         13   -1    0    0    0    0  0.00000000000E+00  0.00000000000E+00  0.74505805969E-08  0.10566000000E+00  0.10566000000E+00 0.  1.
     999900   -1    0    0    0    0 -0.00000000000E+00 -0.00000000000E+00 -0.74505805969E-08  0.93827000000E+00  0.93827000000E+00 0. -1.
     999902    2    1    2    0    0 -0.18306280671E-01  0.13517298773E-01  0.54576002042E-02  0.10205286608E+01  0.10202603221E+01 0.  0.
     999903    2    3    3    0    0 -0.12316157328E+00  0.47487665368E-01 -0.61837421237E-02  0.13357649799E+00  0.19508732781E-01 0.  0.
         14    1    1    2    0    0  0.18306280671E-01 -0.13517298773E-01 -0.54576002042E-02  0.23401339238E-01  0.00000000000E+00 0. -1.
     999901    1    3    3    0    0  0.10485529261E+00 -0.33970366595E-01  0.11641342328E-01  0.88695216277E+00  0.88000000000E+00 0.  1.
        -11    1    4    4    0    0 -0.10170899825E+00  0.46109035657E-01 -0.82291718341E-02  0.11197653274E+00  0.51100000000E-03 0. -1.
         11    1    4    4    0    0 -0.21452575031E-01  0.13786297117E-02  0.20454297104E-02  0.21599965256E-01  0.51100000000E-03 0.  1.
</event>
<event>
 8    1  0.1070112E+005  0.1043930E+01  0.7957747E-01            NaN
         13   -1    0    0    0    0  0.00000000000E+00  0.00000000000E+00  0.74505805969E-08  0.10566000000E+00  0.10566000000E+00 0.  1.
     999900   -1    0    0    0    0 -0.00000000000E+00 -0.00000000000E+00 -0.74505805969E-08  0.93827000000E+00  0.93827000000E+00 0. -1.
     999902    2    1    2    0    0 -0.10179321371E-01  0.21927484275E-01 -0.59946676540E-03  0.10197475165E+01  0.10194607422E+01 0.  0.
     999903    2    3    3    0    0 -0.82179412134E-01 -0.88798980759E-01 -0.40228961228E-01  0.12900913737E+00  0.19653840391E-01 0.  0.
         14    1    1    2    0    0  0.10179321371E-01 -0.21927484275E-01  0.59946676540E-03  0.24182483549E-01  0.00000000000E+00 0.  1.
     999901    1    3    3    0    0  0.72000090763E-01  0.11072646503E+00  0.39629494462E-01  0.89073837908E+00  0.88000000000E+00 0.  1.
        -11    1    4    4    0    0 -0.67416246324E-01 -0.60298858259E-01 -0.30850110302E-01  0.95566170806E-01  0.51100000000E-03 0. -1.
         11    1    4    4    0    0 -0.14763165810E-01 -0.28500122500E-01 -0.93788509260E-02  0.33442966569E-01  0.51100000000E-03 0.  1.
</event>
<event>
 8    1  0.1070112E+005  0.1043930E+01  0.7957747E-01            NaN
         13   -1    0    0    0    0  0.00000000000E+00  0.00000000000E+00  0.74505805969E-08  0.10566000000E+00  0.10566000000E+00 0. -1.
     999900   -1    0    0    0    0 -0.00000000000E+00 -0.00000000000E+00 -0.74505805969E-08  0.93827000000E+00  0.93827000000E+00 0. -1.
     999902    2    1    2    0    0  0.11772906771E-01  0.23789807109E-01  0.11227114732E-01  0.10151097925E+01  0.10147005895E+01 0.  0.
     999903    2    3    3    0    0 -0.12253965061E+00  0.36967333189E-02  0.11107560023E-01  0.12469213263E+00  0.19877581360E-01 0.  0.
         14    1    1    2    0    0 -0.11772906771E-01 -0.23789807109E-01 -0.11227114732E-01  0.28820207517E-01  0.00000000000E+00 0. -1.
     999901    1    3    3    0    0  0.13431255738E+00  0.20093073790E-01  0.11955470828E-03  0.89041765985E+00  0.88000000000E+00 0.  1.
        -11    1    4    4    0    0 -0.77460165234E-02 -0.44998900103E-02  0.23327903565E-02  0.92710740442E-02  0.51100000000E-03 0. -1.
         11    1    4    4    0    0 -0.11479363409E+00  0.81966233292E-02  0.87747696668E-02  0.11542105859E+00  0.51100000000E-03 0.  1.
</event>
<event>
 8    1  0.1070112E+005  0.1043930E+01  0.7957747E-01            NaN
         13   -1    0    0    0    0  0.00000000000E+00  0.00000000000E+00  0.74505805969E-08  0.10566000000E+00  0.10566000000E+00 0. -1.
     999900   -1    0    0    0    0 -0.00000000000E+00 -0.00000000000E+00 -0.74505805969E-08  0.93827000000E+00  0.93827000000E+00 0.  1.
     999902    2    1    2    0    0  0.61114252617E-02 -0.20067994871E-01  0.10108123315E-01  0.10206437789E+01  0.10203781041E+01 0.  0.
     999903    2    3    3    0    0  0.64989797138E-01 -0.11455923342E+00  0.10184142111E-01  0.13362897483E+00  0.20136893250E-01 0.  0.
         14    1    1    2    0    0 -0.61114252617E-02  0.20067994871E-01 -0.10108123315E-01  0.23286221115E-01  0.00000000000E+00 0.  1.
     999901    1    3    3    0    0 -0.58878371876E-01  0.94491238547E-01 -0.76018796105E-04  0.88701480406E+00  0.88000000000E+00 0.  1.
        -11    1    4    4    0    0  0.22456415594E-01 -0.23497484815E-01 -0.85473833359E-03  0.32517904185E-01  0.51100000000E-03 0.  1.
         11    1    4    4    0    0  0.42533381545E-01 -0.91061748603E-01  0.11038880445E-01  0.10111107064E+00  0.51100000000E-03 0. -1.
</event>
<event>
 8    1  0.1070112E+005  0.1043930E+01  0.7957747E-01            NaN
         13   -1    0    0    0    0  0.00000000000E+00  0.00000000000E+00  0.74505805969E-08  0.10566000000E+00  0.10566000000E+00 0. -1.
     999900   -1    0    0    0    0 -0.00000000000E+00 -0.00000000000E+00 -0.74505805969E-08  0.93827000000E+00  0.93827000000E+00 0. -1.
     999902    2    1    2    0    0  0.20369521915E-01 -0.11241776684E-01 -0.31454428564E-02  0.10204525901E+01  0.10201824836E+01 0.  0.
     999903    2    3    3    0    0 -0.12365098351E+00 -0.27963440345E-01 -0.78446006288E-02  0.12857614005E+00  0.19969134011E-01 0.  0.
         14    1    1    2    0    0 -0.20369521915E-01  0.11241776684E-01  0.31454428564E-02  0.23477409926E-01  0.00000000000E+00 0. -1.
     999901    1    3    3    0    0  0.14402050542E+00  0.16721663661E-01  0.46991577724E-02  0.89187645002E+00  0.88000000000E+00 0. -1.
        -11    1    4    4    0    0 -0.96233814237E-01 -0.26360571240E-01  0.78652336385E-03  0.99783297494E-01  0.51100000000E-03 0. -1.
         11    1    4    4    0    0 -0.27417169272E-01 -0.16028691057E-02 -0.86311239926E-02  0.28792842559E-01  0.51100000000E-03 0.  1.
</event>
<event>
 7    1  0.1070112E+005  0.1043930E+01  0.7957747E-01            NaN
         13   -1    0    0    0    0  0.00000000000E+00  0.00000000000E+00  0.74505805969E-08  0.10566000000E+00  0.10566000000E+00 0. -1.
     999900   -1    0    0    0    0 -0.00000000000E+00 -0.00000000000E+00 -0.74505805969E-08  0.93827000000E+00  0.93827000000E+00 0.  1.
     999902    2    1    2    0    0  0.12383236595E-01  0.68349729141E-02 -0.18400267073E-01  0.10207215698E+01  0.10204576874E+01 0.  0.
         14    1    1    2    0    0 -0.12383236595E-01 -0.68349729141E-02  0.18400267073E-01  0.23208430186E-01  0.00000000000E+00 0.  1.
     999901    1    3    3    0    0 -0.84123636820E-01 -0.42555889096E-01 -0.91700723542E-01  0.88977346143E+00  0.88000000000E+00 0.  1.
        -11    1    3    3    0    0  0.43123586180E-01  0.24483946594E-01  0.34299999547E-01  0.60298079702E-01  0.51100000000E-03 0. -1.
         11    1    3    3    0    0  0.53383287236E-01  0.24906915416E-01  0.39000456921E-01  0.70650028681E-01  0.51100000000E-03 0.  1.
</event>
<event>
 8    1  0.1070112E+005  0.1043930E+01  0.7957747E-01            NaN
         13   -1    0    0    0    0  0.00000000000E+00  0.00000000000E+00  0.74505805969E-08  0.10566000000E+00  0.10566000000E+00 0.  1.
     999900   -1    0    0    0    0 -0.00000000000E+00 -0.00000000000E+00 -0.74505805969E-08  0.93827000000E+00  0.93827000000E+00 0.  1.
     999902    2    1    2    0    0 -0.52994570659E-02  0.24974146007E-01  0.85941084708E-03  0.10183853176E+01  0.10180648919E+01 0.  0.
     999903    2    3    3    0    0  0.43092240674E-01 -0.40123352743E-02 -0.11922056028E+00  0.12844084066E+00  0.20259997898E-01 0.  0.
         14    1    1    2    0    0  0.52994570659E-02 -0.24974146007E-01 -0.85941084708E-03  0.25544682440E-01  0.00000000000E+00 0. -1.
     999901    1    3    3    0    0 -0.48391697740E-01  0.28986481281E-01  0.12007997112E+00  0.88994447690E+00  0.88000000000E+00 0. -1.
        -11    1    4    4    0    0  0.28480637836E-01 -0.12032013375E-01 -0.82749253914E-01  0.88338079115E-01  0.51100000000E-03 0.  1.
         11    1    4    4    0    0  0.14611602839E-01  0.80196781008E-02 -0.36471306363E-01  0.40102761540E-01  0.51100000000E-03 0. -1.
</event>
<event>
 8    1  0.1070112E+005  0.1043930E+01  0.7957747E-01            NaN
         13   -1    0    0    0    0  0.00000000000E+00  0.00000000000E+00  0.74505805969E-08  0.10566000000E+00  0.10566000000E+00 0.  1.
     999900   -1    0    0    0    0 -0.00000000000E+00 -0.00000000000E+00 -0.74505805969E-08  0.93827000000E+00  0.93827000000E+00 0.  1.
     999902    2    1    2    0    0  0.11261169900E-01  0.14440084798E-01  0.13441951710E-01  0.10212140131E+01  0.10209613335E+01 0.  0.
     999903    2    3    3    0    0  0.11497771013E+00 -0.45383434421E-01  0.43666206519E-01  0.13259177626E+00  0.19857280649E-01 0.  0.
         14    1    1    2    0    0 -0.11261169900E-01 -0.14440084798E-01 -0.13441951710E-01  0.22715986931E-01  0.00000000000E+00 0. -1.
     999901    1    3    3    0    0 -0.10371654023E+00  0.59823519218E-01 -0.30224254810E-01  0.88862223681E+00  0.88000000000E+00 0.  1.
        -11    1    4    4    0    0  0.52667203317E-01 -0.10254458657E-01  0.18189693927E-01  0.56657870713E-01  0.51100000000E-03 0.  1.
         11    1    4    4    0    0  0.62310506810E-01 -0.35128975763E-01  0.25476512592E-01  0.75933905549E-01  0.51100000000E-03 0. -1.
</event>
<event>
 8    1  0.1070112E+005  0.1043930E+01  0.7957747E-01            NaN
         13   -1    0    0    0    0  0.00000000000E+00  0.00000000000E+00  0.74505805969E-08  0.10566000000E+00  0.10566000000E+00 0.  1.
     999900   -1    0    0    0    0 -0.00000000000E+00 -0.00000000000E+00 -0.74505805969E-08  0.93827000000E+00  0.93827000000E+00 0.  1.
     999902    2    1    2    0    0 -0.12478891967E-01 -0.17030844501E-01  0.11859930758E-01  0.10197136756E+01  0.10194260885E+01 0.  0.
     999903    2    3    3    0    0 -0.88735764039E-01 -0.36494007503E-01 -0.86583488251E-01  0.13073390532E+00  0.19718142883E-01 0.  0.
         14    1    1    2    0    0  0.12478891967E-01  0.17030844501E-01 -0.11859930758E-01  0.24216324385E-01  0.00000000000E+00 0. -1.
     999901    1    3    3    0    0  0.76256872072E-01  0.19463163003E-01  0.98443419009E-01  0.88897977030E+00  0.88000000000E+00 0. -1.
        -11    1    4    4    0    0 -0.34822516087E-01 -0.23745435412E-01 -0.31620480201E-01  0.52693161024E-01  0.51100000000E-03 0.  1.
         11    1    4    4    0    0 -0.53913247952E-01 -0.12748572092E-01 -0.54963008050E-01  0.78040744294E-01  0.51100000000E-03 0. -1.
</event>
<event>
 8    1  0.1070112E+005  0.1043930E+01  0.7957747E-01            NaN
         13   -1    0    0    0    0  0.00000000000E+00  0.00000000000E+00  0.74505805969E-08  0.10566000000E+00  0.10566000000E+00 0. -1.
     999900   -1    0    0    0    0 -0.00000000000E+00 -0.00000000000E+00 -0.74505805969E-08  0.93827000000E+00  0.93827000000E+00 0. -1.
     999902    2    1    2    0    0 -0.60978196180E-02 -0.22722461816E-01 -0.58145989725E-02  0.10196956600E+01  0.10194076396E+01 0.  0.
     999903    2    3    3    0    0 -0.86973805520E-01 -0.18506085760E-01 -0.94775886228E-01  0.13151053651E+00  0.20140371039E-01 0.  0.
         14    1    1    2    0    0  0.60978196180E-02  0.22722461816E-01  0.58145989725E-02  0.24234340022E-01  0.00000000000E+00 0. -1.
     999901    1    3    3    0    0  0.80875985902E-01 -0.42163760565E-02  0.88961287256E-01  0.88818512347E+00  0.88000000000E+00 0. -1.
        -11    1    4    4    0    0 -0.61719534017E-01 -0.21940234586E-01 -0.71816024956E-01  0.97203278414E-01  0.51100000000E-03 0. -1.
         11    1    4    4    0    0 -0.25254271503E-01  0.34341488263E-02 -0.22959861272E-01  0.34307258094E-01  0.51100000000E-03 0.  1.
</event>
<event>
 8    1  0.1070112E+005  0.1043930E+01  0.7957747E-01            NaN
         13   -1    0    0    0    0  0.00000000000E+00  0.00000000000E+00  0.74505805969E-08  0.10566000000E+00  0.10566000000E+00 0.  1.
     999900   -1    0    0    0    0 -0.00000000000E+00 -0.00000000000E+00 -0.74505805969E-08  0.93827000000E+00  0.93827000000E+00 0.  1.
     999902    2    1    2    0    0 -0.15338113695E-02 -0.79880612946E-02  0.24739350291E-01  0.10178877813E+01  0.10175545873E+01 0.  0.
     999903    2    3    3    0    0 -0.97937128732E-01  0.72172273137E-01 -0.31216234703E-01  0.12724177628E+00  0.20383771193E-01 0.  0.
         14    1    1    2    0    0  0.15338113695E-02  0.79880612946E-02 -0.24739350291E-01  0.26042218672E-01  0.00000000000E+00 0. -1.
     999901    1    3    3    0    0  0.96403317362E-01 -0.80160334431E-01  0.55955584994E-01  0.89064600505E+00  0.88000000000E+00 0. -1.
        -11    1    4    4    0    0 -0.59910849375E-01  0.52436321698E-01 -0.12951183969E-01  0.80665184518E-01  0.51100000000E-03 0.  1.
         11    1    4    4    0    0 -0.38026279357E-01  0.19735951438E-01 -0.18265050735E-01  0.46576591763E-01  0.51100000000E-03 0. -1.
</event>
<event>
 8    1  0.1070112E+005  0.1043930E+01  0.7957747E-01            NaN
         13   -1    0    0    0    0  0.00000000000E+00  0.00000000000E+00  0.74505805969E-08  0.10566000000E+00  0.10566000000E+00 0.  1.
     999900   -1    0    0    0    0 -0.00000000000E+00 -0.00000000000E+00 -0.74505805969E-08  0.93827000000E+00  0.93827000000E+00 0. -1.
     999902    2    1    2    0    0 -0.20376115833E-01  0.47147862969E-02  0.10486471972E-01  0.10205338165E+01  0.10202655974E+01 0.  0.
     999903    2    3    3    0    0 -0.43689573406E-01 -0.55743786104E-01 -0.10748359515E+00  0.13030031176E+00  0.20231151862E-01 0.  0.
         14    1    1    2    0    0  0.20376115833E-01 -0.47147862969E-02 -0.10486471972E-01  0.23396183464E-01  0.00000000000E+00 0. -1.
     999901    1    3    3    0    0  0.23313457574E-01  0.60458572401E-01  0.11797006712E+00  0.89023350477E+00  0.88000000000E+00 0.  1.
        -11    1    4    4    0    0 -0.22180589908E-01 -0.13727924791E-01 -0.32220587156E-01  0.41459158764E-01  0.51100000000E-03 0.  1.
         11    1    4    4    0    0 -0.21508983499E-01 -0.42015861313E-01 -0.75263007996E-01  0.88841153001E-01  0.51100000000E-03 0. -1.
</event>
<event>
 8    1  0.1070112E+005  0.1043930E+01  0.7957747E-01            NaN
         13   -1    0    0    0    0  0.00000000000E+00  0.00000000000E+00  0.74505805969E-08  0.10566000000E+00  0.10566000000E+00 0. -1.
     999900   -1    0    0    0    0 -0.00000000000E+00 -0.00000000000E+00 -0.74505805969E-08  0.93827000000E+00  0.93827000000E+00 0. -1.
     999902    2    1    2    0    0  0.17506548819E-01 -0.13263032153E-01  0.92616814148E-02  0.10200937667E+01  0.10198152416E+01 0.  0.
     999903    2    3    3    0    0  0.10299648199E+00  0.14975441285E-02  0.81527402537E-01  0.13287973521E+00  0.19994717433E-01 0.  0.
         14    1    1    2    0    0 -0.17506548819E-01  0.13263032153E-01 -0.92616814148E-02  0.23836233261E-01  0.00000000000E+00 0. -1.
     999901    1    3    3    0    0 -0.85489933172E-01 -0.14760576281E-01 -0.72265721122E-01  0.88721403153E+00  0.88000000000E+00 0.  1.
        -11    1    4    4    0    0  0.44391357876E-01  0.10533200170E-01  0.34917808752E-01  0.57454812235E-01  0.51100000000E-03 0.  1.
         11    1    4    4    0    0  0.58605124115E-01 -0.90356560419E-02  0.46609593785E-01  0.75424922979E-01  0.51100000000E-03 0. -1.
</event>
<event>
 8    1  0.1070112E+005  0.1043930E+01  0.7957747E-01            NaN
         13   -1    0    0    0    0  0.00000000000E+00  0.00000000000E+00  0.74505805969E-08  0.10566000000E+00  0.10566000000E+00 0. -1.
     999900   -1    0    0    0    0 -0.00000000000E+00 -0.00000000000E+00 -0.74505805969E-08  0.93827000000E+00  0.93827000000E+00 0. -1.
     999902    2    1    2    0    0 -0.21170668771E-01 -0.79009311703E-02  0.85174508995E-02  0.10197811098E+01  0.10194951412E+01 0.  0.
     999903    2    3    3    0    0  0.27234390770E-01 -0.97564061329E-01  0.80506797719E-01  0.13098136137E+00  0.20354715515E-01 0.  0.
         14    1    1    2    0    0  0.21170668771E-01  0.79009311703E-02 -0.85174508995E-02  0.24148890231E-01  0.00000000000E+00 0. -1.
     999901    1    3    3    0    0 -0.48405059541E-01  0.89663130158E-01 -0.71989346820E-01  0.88879974840E+00  0.88000000000E+00 0. -1.
        -11    1    4    4    0    0  0.32840939236E-02 -0.32682953698E-01  0.35999005335E-01  0.48735513144E-01  0.51100000000E-03 0. -1.
         11    1    4    4    0    0  0.23950296847E-01 -0.64881107631E-01  0.44507792385E-01  0.82245848226E-01  0.51100000000E-03 0.  1.
</event>
<event>
 8    1  0.1070112E+005  0.1043930E+01  0.7957747E-01            NaN
         13   -1    0    0    0    0  0.00000000000E+00  0.00000000000E+00  0.74505805969E-08  0.10566000000E+00  0.10566000000E+00 0. -1.
     999900   -1    0    0    0    0 -0.00000000000E+00 -0.00000000000E+00 -0.74505805969E-08  0.93827000000E+00  0.93827000000E+00 0. -1.
     999902    2    1    2    0    0  0.22556444964E-01  0.18476850593E-02 -0.88284917567E-02  0.10196370089E+01  0.10193475759E+01 0.  0.
     999903    2    3    3    0    0  0.10592016504E+00 -0.75459342479E-01 -0.14543685371E-01  0.13230474320E+00  0.19489293447E-01 0.  0.
         14    1    1    2    0    0 -0.22556444964E-01 -0.18476850593E-02  0.88284917567E-02  0.24292991092E-01  0.00000000000E+00 0. -1.
     999901    1    3    3    0    0 -0.83363720077E-01  0.77307027538E-01  0.57151936145E-02  0.88733226571E+00  0.88000000000E+00 0.  1.
        -11    1    4    4    0    0  0.84963473351E-01 -0.53339545630E-01 -0.53065944490E-02  0.10046053950E+00  0.51100000000E-03 0. -1.
         11    1    4    4    0    0  0.20956691690E-01 -0.22119796849E-01 -0.92370909223E-02  0.31844203694E-01  0.51100000000E-03 0.  1.
</event>
<event>
 8    1  0.1070112E+005  0.1043930E+01  0.7957747E-01            NaN
         13   -1    0    0    0    0  0.00000000000E+00  0.00000000000E+00  0.74505805969E-08  0.10566000000E+00  0.10566000000E+00 0. -1.
     999900   -1    0    0    0    0 -0.00000000000E+00 -0.00000000000E+00 -0.74505805969E-08  0.93827000000E+00  0.93827000000E+00 0.  1.
     999902    2    1    2    0    0 -0.33946714226E-02 -0.10700884582E-01 -0.11521325710E-01  0.10278435563E+01  0.10277176668E+01 0.  0.
     999903    2    3    3    0    0 -0.10366117796E+00  0.71557927688E-01  0.48335953056E-01  0.13632643456E+00  0.19553914458E-01 0.  0.
         14    1    1    2    0    0  0.33946714226E-02  0.10700884582E-01  0.11521325710E-01  0.16086443703E-01  0.00000000000E+00 0. -1.
     999901    1    3    3    0    0  0.10026650654E+00 -0.82258812270E-01 -0.59857278766E-01  0.89151712174E+00  0.88000000000E+00 0. -1.
        -11    1    4    4    0    0 -0.77312811519E-01  0.60580589269E-01  0.31333214311E-01  0.10309854539E+00  0.51100000000E-03 0.  1.
         11    1    4    4    0    0 -0.26348366442E-01  0.10977338419E-01  0.17002738745E-01  0.33227889171E-01  0.51100000000E-03 0. -1.
</event>
<event>
 8    1  0.1571474E+005  0.1043930E+01  0.7957747E-01            NaN
         13   -1    0    0    0    0  0.00000000000E+00  0.00000000000E+00  0.74505805969E-08  0.10566000000E+00  0.10566000000E+00 0. -1.
     999900   -1    0    0    0    0 -0.00000000000E+00 -0.00000000000E+00 -0.74505805969E-08  0.93827000000E+00  0.93827000000E+00 0.  1.
     999902    2    1    2    0    0 -0.12289205964E-01 -0.20189577799E-01 -0.42090506079E-02  0.10199225065E+01  0.10196399166E+01 0.  0.
     999903    2    3    3    0    0 -0.16849862140E-01 -0.87480590751E-01  0.95048054004E-01  0.13177789398E+00  0.19862254662E-01 0.  0.
         14    1    1    2    0    0  0.12289205964E-01  0.20189577799E-01  0.42090506079E-02  0.24007493454E-01  0.00000000000E+00 0.  1.
     999901    1    3    3    0    0  0.45606561762E-02  0.67291012953E-01 -0.99257104612E-01  0.88814461256E+00  0.88000000000E+00 0.  1.
        -11    1    4    4    0    0 -0.11221523065E-02 -0.55752982576E-01  0.55200250943E-01  0.78466445804E-01  0.51100000000E-03 0.  1.
         11    1    4    4    0    0 -0.15727709834E-01 -0.31727608175E-01  0.39847803061E-01  0.53311448179E-01  0.51100000000E-03 0. -1.
</event>
<event>
 8    1  0.1070112E+005  0.1043930E+01  0.7957747E-01            NaN
         13   -1    0    0    0    0  0.00000000000E+00  0.00000000000E+00  0.74505805969E-08  0.10566000000E+00  0.10566000000E+00 0.  1.
     999900   -1    0    0    0    0 -0.00000000000E+00 -0.00000000000E+00 -0.74505805969E-08  0.93827000000E+00  0.93827000000E+00 0.  1.
     999902    2    1    2    0    0  0.20575080562E-01 -0.50639646149E-02 -0.13434395204E-01  0.10188409456E+01  0.10185319886E+01 0.  0.
     999903    2    3    3    0    0  0.10211338107E+00 -0.79938978422E-01  0.12452559163E-01  0.13152764321E+00  0.18085127367E-01 0.  0.
         14    1    1    2    0    0 -0.20575080562E-01  0.50639646149E-02  0.13434395204E-01  0.25089054431E-01  0.00000000000E+00 0.  1.
     999901    1    3    3    0    0 -0.81538300513E-01  0.74875013807E-01 -0.25886954367E-01  0.88731330236E+00  0.88000000000E+00 0.  1.
        -11    1    4    4    0    0  0.25787518157E-01 -0.21194620051E-01  0.11170510078E-01  0.35202974707E-01  0.51100000000E-03 0. -1.
         11    1    4    4    0    0  0.76325862918E-01 -0.58744358371E-01  0.12820490847E-02  0.96324668499E-01  0.51100000000E-03 0.  1.
</event>
<event>
 8    1  0.1070112E+005  0.1043930E+01  0.7957747E-01            NaN
         13   -1    0    0    0    0  0.00000000000E+00  0.00000000000E+00  0.74505805969E-08  0.10566000000E+00  0.10566000000E+00 0.  1.
     999900   -1    0    0    0    0 -0.00000000000E+00 -0.00000000000E+00 -0.74505805969E-08  0.93827000000E+00  0.93827000000E+00 0. -1.
     999902    2    1    2    0    0  0.17349884049E-01  0.60089886846E-02 -0.15839681885E-01  0.10196808362E+01  0.10193924592E+01 0.  0.
     999903    2    3    3    0    0  0.48302906494E-01  0.64987208247E-01  0.99287780356E-01  0.12968597526E+00  0.20096786807E-01 0.  0.
         14    1    1    2    0    0 -0.17349884049E-01 -0.60089886846E-02  0.15839681885E-01  0.24249163774E-01  0.00000000000E+00 0.  1.
     999901    1    3    3    0    0 -0.30953022445E-01 -0.58978219562E-01 -0.11512746224E+00  0.88999486096E+00  0.88000000000E+00 0. -1.
        -11    1    4    4    0    0  0.46298137010E-01  0.53329935095E-01  0.77242277077E-01  0.10466245725E+00  0.51100000000E-03 0. -1.
         11    1    4    4    0    0  0.20047694846E-02  0.11657273152E-01  0.22045503279E-01  0.25023518015E-01  0.51100000000E-03 0.  1.
</event>
<event>
 8    1  0.1070112E+005  0.1043930E+01  0.7957747E-01            NaN
         13   -1    0    0    0    0  0.00000000000E+00  0.00000000000E+00  0.74505805969E-08  0.10566000000E+00  0.10566000000E+00 0. -1.
     999900   -1    0    0    0    0 -0.00000000000E+00 -0.00000000000E+00 -0.74505805969E-08  0.93827000000E+00  0.93827000000E+00 0.  1.
     999902    2    1    2    0    0  0.16875756979E-01 -0.15011829854E-01 -0.71468666046E-02  0.10202398351E+01  0.10199647530E+01 0.  0.
     999903    2    3    3    0    0  0.41332771594E-01 -0.73021730856E-01  0.98325401429E-01  0.13170863506E+00  0.25272688786E-01 0.  0.
         14    1    1    2    0    0 -0.16875756979E-01  0.15011829854E-01  0.71468666046E-02  0.23690164867E-01  0.00000000000E+00 0. -1.
     999901    1    3    3    0    0 -0.24457014615E-01  0.58009901002E-01 -0.10547226803E+00  0.88853120007E+00  0.88000000000E+00 0.  1.
        -11    1    4    4    0    0  0.15694447531E-01 -0.42868541828E-01  0.37222500723E-01  0.58905035802E-01  0.51100000000E-03 0. -1.
         11    1    4    4    0    0  0.25638324063E-01 -0.30153189028E-01  0.61102900705E-01  0.72803599258E-01  0.51100000000E-03 0.  1.
</event>
<event>
 8    1  0.1070112E+005  0.1043930E+01  0.7957747E-01            NaN
         13   -1    0    0    0    0  0.00000000000E+00  0.00000000000E+00  0.74505805969E-08  0.10566000000E+00  0.10566000000E+00 0. -1.
     999900   -1    0    0    0    0 -0.00000000000E+00 -0.00000000000E+00 -0.74505805969E-08  0.93827000000E+00  0.93827000000E+00 0.  1.
     999902    2    1    2    0    0  0.44888436592E-02 -0.20373074456E-01 -0.31141500545E-01  0.10064466045E+01  0.10057483596E+01 0.  0.
     999903    2    3    3    0    0  0.44718678763E-01  0.10422219394E+00  0.12461819107E-01  0.11569205358E+00  0.19165812963E-01 0.  0.
         14    1    1    2    0    0 -0.44888436592E-02  0.20373074456E-01  0.31141500545E-01  0.37483395475E-01  0.00000000000E+00 0. -1.
     999901    1    3    3    0    0 -0.40229835104E-01 -0.12459526840E+00 -0.43603319651E-01  0.89075455094E+00  0.88000000000E+00 0. -1.
        -11    1    4    4    0    0  0.29922279095E-01  0.74477424955E-01  0.17321438852E-01  0.82112867317E-01  0.51100000000E-03 0.  1.
         11    1    4    4    0    0  0.14796399668E-01  0.29744768986E-01 -0.48596197456E-02  0.33579186266E-01  0.51100000000E-03 0. -1.
</event>
<event>
 8    1  0.1070112E+005  0.1043930E+01  0.7957747E-01            NaN
         13   -1    0    0    0    0  0.00000000000E+00  0.00000000000E+00  0.74505805969E-08  0.10566000000E+00  0.10566000000E+00 0. -1.
     999900   -1    0    0    0    0 -0.00000000000E+00 -0.00000000000E+00 -0.74505805969E-08  0.93827000000E+00  0.93827000000E+00 0. -1.
     999902    2    1    2    0    0  0.19356045619E-01 -0.73531687042E-02 -0.84440181744E-02  0.10215687157E+01  0.10213239515E+01 0.  0.
     999903    2    3    3    0    0  0.78084592765E-01 -0.10290435905E+00  0.27474009536E-01  0.13372347191E+00  0.20991307737E-01 0.  0.
         14    1    1    2    0    0 -0.19356045619E-01  0.73531687042E-02  0.84440181744E-02  0.22361284286E-01  0.00000000000E+00 0. -1.
     999901    1    3    3    0    0 -0.58728547147E-01  0.95551190351E-01 -0.35918027710E-01  0.88784524380E+00  0.88000000000E+00 0. -1.
        -11    1    4    4    0    0  0.73209745970E-01 -0.84721991512E-01  0.22003624656E-01  0.11411355472E+00  0.51100000000E-03 0.  1.
         11    1    4    4    0    0  0.48748467952E-02 -0.18182367543E-01  0.54703848799E-02  0.19609917197E-01  0.51100000000E-03 0. -1.
</event>
<event>
 8    1  0.1070112E+005  0.1043930E+01  0.7957747E-01            NaN
         13   -1    0    0    0    0  0.00000000000E+00  0.00000000000E+00  0.74505805969E-08  0.10566000000E+00  0.10566000000E+00 0.  1.
     999900   -1    0    0    0    0 -0.00000000000E+00 -0.00000000000E+00 -0.74505805969E-08  0.93827000000E+00  0.93827000000E+00 0.  1.
     999902    2    1    2    0    0  0.12641240689E-01  0.13032655896E-02  0.20288649879E-01  0.10199898918E+01  0.10197089048E+01 0.  0.
     999903    2    3    3    0    0 -0.81549092808E-01  0.93367689745E-01  0.33835638498E-01  0.13008472941E+00  0.20233792718E-01 0.  0.
         14    1    1    2    0    0 -0.12641240689E-01 -0.13032655896E-02 -0.20288649879E-01  0.23940108213E-01  0.00000000000E+00 0. -1.
     999901    1    3    3    0    0  0.94190333496E-01 -0.92064424156E-01 -0.13546988619E-01  0.88990516237E+00  0.88000000000E+00 0.  1.
        -11    1    4    4    0    0 -0.24880713562E-01  0.15621204595E-01  0.88029358846E-02  0.30672866536E-01  0.51100000000E-03 0.  1.
         11    1    4    4    0    0 -0.56668379246E-01  0.77746485150E-01  0.25032702613E-01  0.99411862877E-01  0.51100000000E-03 0. -1.
</event>
<event>
 8    1  0.1070112E+005  0.1043930E+01  0.7957747E-01            NaN
         13   -1    0    0    0    0  0.00000000000E+00  0.00000000000E+00  0.74505805969E-08  0.10566000000E+00  0.10566000000E+00 0. -1.
     999900   -1    0    0    0    0 -0.00000000000E+00 -0.00000000000E+00 -0.74505805969E-08  0.93827000000E+00  0.93827000000E+00 0. -1.
     999902    2    1    2    0    0  0.19265279623E-01  0.12669854752E-01 -0.38367835169E-02  0.10205548609E+01  0.10202871297E+01 0.  0.
     999903    2    3    3    0    0  0.13748260841E-01 -0.42223800285E-01  0.12064365227E+00  0.13008356452E+00  0.19874077054E-01 0.  0.
         14    1    1    2    0    0 -0.19265279623E-01 -0.12669854752E-01  0.38367835169E-02  0.23375139061E-01  0.00000000000E+00 0. -1.
     999901    1    3    3    0    0  0.55170187819E-02  0.54893655037E-01 -0.12448043578E+00  0.89047129642E+00  0.88000000000E+00 0. -1.
        -11    1    4    4    0    0  0.60314139351E-02 -0.22640612692E-01  0.36738441462E-01  0.43576937698E-01  0.51100000000E-03 0. -1.
         11    1    4    4    0    0  0.77168469056E-02 -0.19583187593E-01  0.83905210803E-01  0.86506626818E-01  0.51100000000E-03 0.  1.
</event>
<event>
 8    1  0.1070112E+005  0.1043930E+01  0.7957747E-01            NaN
         13   -1    0    0    0    0  0.00000000000E+00  0.00000000000E+00  0.74505805969E-08  0.10566000000E+00  0.10566000000E+00 0.  1.
     999900   -1    0    0    0    0 -0.00000000000E+00 -0.00000000000E+00 -0.74505805969E-08  0.93827000000E+00  0.93827000000E+00 0. -1.
     999902    2    1    2    0    0 -0.18014494091E-02 -0.16998481835E-01  0.16674381252E-01  0.10200505403E+01  0.10197709920E+01 0.  0.
     999903    2    3    3    0    0  0.11413885888E-01 -0.82952039269E-02 -0.12590691619E+00  0.12843413260E+00  0.21063894972E-01 0.  0.
         14    1    1    2    0    0  0.18014494091E-02  0.16998481835E-01 -0.16674381252E-01  0.23879459684E-01  0.00000000000E+00 0. -1.
     999901    1    3    3    0    0 -0.13215335297E-01 -0.87032779079E-02  0.14258129744E+00  0.89161640772E+00  0.88000000000E+00 0.  1.
        -11    1    4    4    0    0  0.42227543725E-02  0.35797186969E-02 -0.81798002647E-02  0.98902120205E-02  0.51100000000E-03 0. -1.
         11    1    4    4    0    0  0.71911315153E-02 -0.11874922624E-01 -0.11772711593E+00  0.11854392058E+00  0.51100000000E-03 0.  1.
</event>
<event>
 8    1  0.1070112E+005  0.1043930E+01  0.7957747E-01            NaN
         13   -1    0    0    0    0  0.00000000000E+00  0.00000000000E+00  0.74505805969E-08  0.10566000000E+00  0.10566000000E+00 0.  1.
     999900   -1    0    0    0    0 -0.00000000000E+00 -0.00000000000E+00 -0.74505805969E-08  0.93827000000E+00  0.93827000000E+00 0. -1.
     999902    2    1    2    0    0  0.22455089826E-01 -0.54801083592E-02 -0.62155885563E-02  0.10199947501E+01  0.10197138785E+01 0.  0.
     999903    2    3    3    0    0  0.50369292052E-01  0.41261805772E-01 -0.11289079277E+00  0.13188236508E+00  0.20224364805E-01 0.  0.
         14    1    1    2    0    0 -0.22455089826E-01  0.54801083592E-02  0.62155885563E-02  0.23935249901E-01  0.00000000000E+00 0. -1.
     999901    1    3    3    0    0 -0.27914202225E-01 -0.46741914131E-01  0.10667520421E+00  0.88811238501E+00  0.88000000000E+00 0.  1.
        -11    1    4    4    0    0  0.33819208215E-01  0.21172941902E-01 -0.83978091701E-01  0.92976412706E-01  0.51100000000E-03 0.  1.
         11    1    4    4    0    0  0.16550083837E-01  0.20088863870E-01 -0.28912701064E-01  0.38905952378E-01  0.51100000000E-03 0. -1.
</event>
<event>
 8    1  0.1070112E+005  0.1043930E+01  0.7957747E-01            NaN
         13   -1    0    0    0    0  0.00000000000E+00  0.00000000000E+00  0.74505805969E-08  0.10566000000E+00  0.10566000000E+00 0. -1.
     999900   -1    0    0    0    0 -0.00000000000E+00 -0.00000000000E+00 -0.74505805969E-08  0.93827000000E+00  0.93827000000E+00 0.  1.
     999902    2    1    2    0    0 -0.47686090369E-03  0.58724040990E-02 -0.22563324274E-01  0.10206101345E+01  0.10203436825E+01 0.  0.
     999903    2    3    3    0    0  0.17778559652E-01 -0.10287096560E+00  0.72222098149E-01  0.12867815436E+00  0.21059990538E-01 0.  0.
         14    1    1    2    0    0  0.47686090369E-03 -0.58724040990E-02  0.22563324274E-01  0.23319865534E-01  0.00000000000E+00 0. -1.
     999901    1    3    3    0    0 -0.18255420556E-01  0.10874336970E+00 -0.94785422423E-01  0.89193198011E+00  0.88000000000E+00 0. -1.
        -11    1    4    4    0    0  0.67433127016E-02 -0.11643342828E-01  0.16154363809E-01  0.21030080587E-01  0.51100000000E-03 0. -1.
         11    1    4    4    0    0  0.11035246951E-01 -0.91227622773E-01  0.56067734340E-01  0.10764807377E+00  0.51100000000E-03 0.  1.
</event>
<event>
 8    1  0.1070112E+005  0.1043930E+01  0.7957747E-01            NaN
         13   -1    0    0    0    0  0.00000000000E+00  0.00000000000E+00  0.74505805969E-08  0.10566000000E+00  0.10566000000E+00 0.  1.
     999900   -1    0    0    0    0 -0.00000000000E+00 -0.00000000000E+00 -0.74505805969E-08  0.93827000000E+00  0.93827000000E+00 0.  1.
     999902    2    1    2    0    0  0.72745401250E-03  0.26811337772E-02 -0.23361190415E-01  0.10204042081E+01  0.10201329742E+01 0.  0.
     999903    2    3    3    0    0 -0.19070405364E-01 -0.10909749274E+00 -0.68649578811E-01  0.13195755538E+00  0.20834789823E-01 0.  0.
         14    1    1    2    0    0 -0.72745401250E-03 -0.26811337772E-02  0.23361190415E-01  0.23525791916E-01  0.00000000000E+00 0.  1.
     999901    1    3    3    0    0  0.19797859377E-01  0.11177862652E+00  0.45288388396E-01  0.88844665271E+00  0.88000000000E+00 0. -1.
        -11    1    4    4    0    0  0.23207191959E-02 -0.19702877839E-01 -0.19052526311E-01  0.27510888982E-01  0.51100000000E-03 0.  1.
         11    1    4    4    0    0 -0.21391124560E-01 -0.89394614902E-01 -0.49597052500E-01  0.10444666640E+00  0.51100000000E-03 0. -1.
</event>
<event>
 8    1  0.1070112E+005  0.1043930E+01  0.7957747E-01            NaN
         13   -1    0    0    0    0  0.00000000000E+00  0.00000000000E+00  0.74505805969E-08  0.10566000000E+00  0.10566000000E+00 0.  1.
     999900   -1    0    0    0    0 -0.00000000000E+00 -0.00000000000E+00 -0.74505805969E-08  0.93827000000E+00  0.93827000000E+00 0. -1.
     999902    2    1    2    0    0  0.10205306143E-01 -0.22922368065E-01  0.34918707423E-02  0.10185966940E+01  0.10182816156E+01 0.  0.
     999903    2    3    3    0    0 -0.51666432665E-01  0.32773821100E-01  0.11080321997E+00  0.12817774586E+00  0.20214780811E-01 0.  0.
         14    1    1    2    0    0 -0.10205306143E-01  0.22922368065E-01 -0.34918707423E-02  0.25333305991E-01  0.00000000000E+00 0. -1.
     999901    1    3    3    0    0  0.61871738808E-01 -0.55696189165E-01 -0.10731134923E+00  0.89041894815E+00  0.88000000000E+00 0. -1.
        -11    1    4    4    0    0 -0.30721677567E-01  0.19098932618E-01  0.84278093627E-01  0.91715041766E-01  0.51100000000E-03 0.  1.
         11    1    4    4    0    0 -0.20944755098E-01  0.13674888482E-01  0.26525126346E-01  0.36462704093E-01  0.51100000000E-03 0. -1.
</event>
<event>
 8    1  0.1070112E+005  0.1043930E+01  0.7957747E-01            NaN
         13   -1    0    0    0    0  0.00000000000E+00  0.00000000000E+00  0.74505805969E-08  0.10566000000E+00  0.10566000000E+00 0.  1.
     999900   -1    0    0    0    0 -0.00000000000E+00 -0.00000000000E+00 -0.74505805969E-08  0.93827000000E+00  0.93827000000E+00 0.  1.
     999902    2    1    2    0    0  0.97032579675E-02  0.20788414261E-01 -0.46819638832E-02  0.10205156418E+01  0.10202470010E+01 0.  0.
     999903    2    3    3    0    0 -0.11874775511E-01  0.97474727899E-01  0.86334962726E-01  0.13224176337E+00  0.19794577986E-01 0.  0.
         14    1    1    2    0    0 -0.97032579675E-02 -0.20788414261E-01  0.46819638832E-02  0.23414358169E-01  0.00000000000E+00 0. -1.
     999901    1    3    3    0    0  0.21578033479E-01 -0.76686313638E-01 -0.91016926609E-01  0.88827387846E+00  0.88000000000E+00 0.  1.
        -11    1    4    4    0    0 -0.83599009932E-03  0.69557398810E-01  0.66644053392E-01  0.96335982801E-01  0.51100000000E-03 0.  1.
         11    1    4    4    0    0 -0.11038785412E-01  0.27917329088E-01  0.19690909334E-01  0.35905780568E-01  0.51100000000E-03 0. -1.
</event>
<event>
 8    1  0.1070112E+005  0.1043930E+01  0.7957747E-01            NaN
         13   -1    0    0    0    0  0.00000000000E+00  0.00000000000E+00  0.74505805969E-08  0.10566000000E+00  0.10566000000E+00 0. -1.
     999900   -1    0    0    0    0 -0.00000000000E+00 -0.00000000000E+00 -0.74505805969E-08  0.93827000000E+00  0.93827000000E+00 0. -1.
     999902    2    1    2    0    0 -0.12600693306E-01  0.34321161648E-02  0.20801630574E-01  0.10193685520E+01  0.10190726079E+01 0.  0.
     999903    2    3    3    0    0 -0.50135648865E-01  0.10066417180E+00  0.66222496890E-01  0.13205462749E+00  0.20153083539E-01 0.  0.
         14    1    1    2    0    0  0.12600693306E-01 -0.34321161648E-02 -0.20801630574E-01  0.24561447997E-01  0.00000000000E+00 0.  1.
     999901    1    3    3    0    0  0.37534955559E-01 -0.97232055638E-01 -0.45420866316E-01  0.88731392451E+00  0.88000000000E+00 0. -1.
        -11    1    4    4    0    0 -0.72167959037E-02  0.34066789479E-01  0.23794134922E-01  0.42178789293E-01  0.51100000000E-03 0. -1.
         11    1    4    4    0    0 -0.42918852962E-01  0.66597382324E-01  0.42428361968E-01  0.89875838201E-01  0.51100000000E-03 0.  1.
</event>
<event>
 8    1  0.1070112E+005  0.1043930E+01  0.7957747E-01            NaN
         13   -1    0    0    0    0  0.00000000000E+00  0.00000000000E+00  0.74505805969E-08  0.10566000000E+00  0.10566000000E+00 0.  1.
     999900   -1    0    0    0    0 -0.00000000000E+00 -0.00000000000E+00 -0.74505805969E-08  0.93827000000E+00  0.93827000000E+00 0.  1.
     999902    2    1    2    0    0 -0.35378551671E-02  0.20333346250E-01  0.71030586609E-02  0.10221030710E+01  0.10218699882E+01 0.  0.
     999903    2    3    3    0    0  0.77534886920E-01 -0.10117419664E+00 -0.14902733532E-01  0.12979083448E+00  0.19382788577E-01 0.  0.
         14    1    1    2    0    0  0.35378551671E-02 -0.20333346250E-01 -0.71030586609E-02  0.21826929039E-01  0.00000000000E+00 0. -1.
     999901    1    3    3    0    0 -0.81072742088E-01  0.12150754289E+00  0.22005792193E-01  0.89231223648E+00  0.88000000000E+00 0.  1.
        -11    1    4    4    0    0  0.14102442998E-02 -0.10145288408E-01 -0.71913977000E-03  0.10280756241E-01  0.51100000000E-03 0. -1.
         11    1    4    4    0    0  0.76124642621E-01 -0.91028908228E-01 -0.14183593762E-01  0.11951007824E+00  0.51100000000E-03 0.  1.
</event>
<event>
 8    1  0.1070112E+005  0.1043930E+01  0.7957747E-01            NaN
         13   -1    0    0    0    0  0.00000000000E+00  0.00000000000E+00  0.74505805969E-08  0.10566000000E+00  0.10566000000E+00 0. -1.
     999900   -1    0    0    0    0 -0.00000000000E+00 -0.00000000000E+00 -0.74505805969E-08  0.93827000000E+00  0.93827000000E+00 0. -1.
     999902    2    1    2    0    0 -0.19716773627E-01  0.26407797061E-02 -0.13928226691E-01  0.10196458410E+01  0.10193566210E+01 0.  0.
     999903    2    3    3    0    0  0.57757614924E-05  0.11691632429E+00 -0.56484598260E-01  0.13101829033E+00  0.17488728955E-01 0.  0.
         14    1    1    2    0    0  0.19716773627E-01 -0.26407797061E-02  0.13928226691E-01  0.24284159003E-01  0.00000000000E+00 0.  1.
     999901    1    3    3    0    0 -0.19722549389E-01 -0.11427554459E+00  0.42556371570E-01  0.88862755067E+00  0.88000000000E+00 0.  1.
        -11    1    4    4    0    0 -0.14006336074E-02  0.36912083702E-01 -0.26932278542E-01  0.45717310137E-01  0.51100000000E-03 0.  1.
         11    1    4    4    0    0  0.14064093689E-02  0.80004240592E-01 -0.29552319718E-01  0.85300980192E-01  0.51100000000E-03 0. -1.
</event>
<event>
 8    1  0.1070112E+005  0.1043930E+01  0.7957747E-01            NaN
         13   -1    0    0    0    0  0.00000000000E+00  0.00000000000E+00  0.74505805969E-08  0.10566000000E+00  0.10566000000E+00 0. -1.
     999900   -1    0    0    0    0 -0.00000000000E+00 -0.00000000000E+00 -0.74505805969E-08  0.93827000000E+00  0.93827000000E+00 0. -1.
     999902    2    1    2    0    0 -0.17453919088E-01 -0.97901446859E-02 -0.13229182185E-01  0.10199404713E+01  0.10196583092E+01 0.  0.
     999903    2    3    3    0    0 -0.85009196768E-01 -0.10040780337E+00  0.55501906498E-02  0.13251276134E+00  0.14850481160E-01 0.  0.
         14    1    1    2    0    0  0.17453919088E-01  0.97901446859E-02  0.13229182185E-01  0.23989528669E-01  0.00000000000E+00 0. -1.
     999901    1    3    3    0    0  0.67555277681E-01  0.90617658681E-01 -0.18779372835E-01  0.88742770999E+00  0.88000000000E+00 0.  1.
        -11    1    4    4    0    0 -0.47965995495E-01 -0.46092901832E-01 -0.91609956202E-04  0.66524896366E-01  0.51100000000E-03 0.  1.
         11    1    4    4    0    0 -0.37043201274E-01 -0.54314901535E-01  0.56418006060E-02  0.65987864979E-01  0.51100000000E-03 0. -1.
</event>
<event>
 8    1  0.1070112E+005  0.1043930E+01  0.7957747E-01            NaN
         13   -1    0    0    0    0  0.00000000000E+00  0.00000000000E+00  0.74505805969E-08  0.10566000000E+00  0.10566000000E+00 0. -1.
     999900   -1    0    0    0    0 -0.00000000000E+00 -0.00000000000E+00 -0.74505805969E-08  0.93827000000E+00  0.93827000000E+00 0. -1.
     999902    2    1    2    0    0 -0.46578724034E-02  0.15931303484E-01  0.16060420295E-01  0.10208336950E+01  0.10205723852E+01 0.  0.
     999903    2    3    3    0    0 -0.11027609808E+00  0.32670974784E-01 -0.60103502617E-01  0.13109419976E+00  0.18575461829E-01 0.  0.
         14    1    1    2    0    0  0.46578724034E-02 -0.15931303484E-01 -0.16060420295E-01  0.23096305031E-01  0.00000000000E+00 0.  1.
     999901    1    3    3    0    0  0.10561822567E+00 -0.16739671300E-01  0.76163922913E-01  0.88973949521E+00  0.88000000000E+00 0.  1.
        -11    1    4    4    0    0 -0.42666335062E-01  0.22144360498E-01 -0.24222177858E-01  0.53830882128E-01  0.51100000000E-03 0.  1.
         11    1    4    4    0    0 -0.67609763015E-01  0.10526614285E-01 -0.35881324759E-01  0.77263317627E-01  0.51100000000E-03 0. -1.
</event>
<event>
 8    1  0.1070112E+005  0.1043930E+01  0.7957747E-01            NaN
         13   -1    0    0    0    0  0.00000000000E+00  0.00000000000E+00  0.74505805969E-08  0.10566000000E+00  0.10566000000E+00 0. -1.
     999900   -1    0    0    0    0 -0.00000000000E+00 -0.00000000000E+00 -0.74505805969E-08  0.93827000000E+00  0.93827000000E+00 0. -1.
     999902    2    1    2    0    0  0.11788451793E-01  0.17472523133E-01 -0.66612691564E-02  0.10218250420E+01  0.10215859177E+01 0.  0.
     999903    2    3    3    0    0 -0.16306943555E-01 -0.30976773390E-01  0.12383399446E+00  0.13044089397E+00  0.21318811845E-01 0.  0.
         14    1    1    2    0    0 -0.11788451793E-01 -0.17472523133E-01  0.66612691564E-02  0.22104957975E-01  0.00000000000E+00 0.  1.
     999901    1    3    3    0    0  0.28095395347E-01  0.48449296522E-01 -0.13049526362E+00  0.89138414805E+00  0.88000000000E+00 0. -1.
        -11    1    4    4    0    0 -0.19794990733E-01 -0.30977098295E-01  0.11828337319E+00  0.12386540991E+00  0.51100000000E-03 0.  1.
         11    1    4    4    0    0  0.34880471781E-02  0.32490502657E-06  0.55506212707E-02  0.65754840668E-02  0.51100000000E-03 0. -1.
</event>
<event>
 8    1  0.1070112E+005  0.1043930E+01  0.7957747E-01            NaN
         13   -1    0    0    0    0  0.00000000000E+00  0.00000000000E+00  0.74505805969E-08  0.10566000000E+00  0.10566000000E+00 0.  1.
     999900   -1    0    0    0    0 -0.00000000000E+00 -0.00000000000E+00 -0.74505805969E-08  0.93827000000E+00  0.93827000000E+00 0.  1.
     999902    2    1    2    0    0 -0.13237789890E-01  0.36875501129E-02  0.19570301503E-01  0.10200169532E+01  0.10197366086E+01 0.  0.
     999903    2    3    3    0    0  0.10818136347E+00  0.46225948176E-01 -0.46735222675E-01  0.12819379322E+00  0.20234176434E-01 0.  0.
         14    1    1    2    0    0  0.13237789890E-01 -0.36875501129E-02 -0.19570301503E-01  0.23913046814E-01  0.00000000000E+00 0. -1.
     999901    1    3    3    0    0 -0.12141915336E+00 -0.42538398063E-01  0.66305524179E-01  0.89182315996E+00  0.88000000000E+00 0. -1.
        -11    1    4    4    0    0  0.47078442863E-01  0.19865588574E-01 -0.96306187383E-02  0.52000301250E-01  0.51100000000E-03 0.  1.
         11    1    4    4    0    0  0.61102920603E-01  0.26360359602E-01 -0.37104603937E-01  0.76193491972E-01  0.51100000000E-03 0. -1.
</event>
<event>
 8    1  0.1070112E+005  0.1043930E+01  0.7957747E-01            NaN
         13   -1    0    0    0    0  0.00000000000E+00  0.00000000000E+00  0.74505805969E-08  0.10566000000E+00  0.10566000000E+00 0. -1.
     999900   -1    0    0    0    0 -0.00000000000E+00 -0.00000000000E+00 -0.74505805969E-08  0.93827000000E+00  0.93827000000E+00 0. -1.
     999902    2    1    2    0    0  0.13197024433E-01  0.14447380105E-01  0.14018430278E-01  0.10198591746E+01  0.10195750740E+01 0.  0.
     999903    2    3    3    0    0  0.22572141842E-01  0.54490678828E-01  0.11722308076E+00  0.13287407980E+00  0.20869469405E-01 0.  0.
         14    1    1    2    0    0 -0.13197024433E-01 -0.14447380105E-01 -0.14018430278E-01  0.24070825354E-01  0.00000000000E+00 0.  1.
     999901    1    3    3    0    0 -0.93751174097E-02 -0.40043298723E-01 -0.10320465048E+00  0.88698509485E+00  0.88000000000E+00 0. -1.
        -11    1    4    4    0    0  0.11439348001E-01  0.40174149524E-01  0.97517544355E-01  0.10608842326E+00  0.51100000000E-03 0.  1.
         11    1    4    4    0    0  0.11132793841E-01  0.14316529304E-01  0.19705536405E-01  0.26785656535E-01  0.51100000000E-03 0. -1.
</event>
<event>
 8    1  0.1070112E+005  0.1043930E+01  0.7957747E-01            NaN
         13   -1    0    0    0    0  0.00000000000E+00  0.00000000000E+00  0.74505805969E-08  0.10566000000E+00  0.10566000000E+00 0.  1.
     999900   -1    0    0    0    0 -0.00000000000E+00 -0.00000000000E+00 -0.74505805969E-08  0.93827000000E+00  0.93827000000E+00 0. -1.
     999902    2    1    2    0    0 -0.99198232719E-03 -0.12061553168E-01  0.20823745298E-01  0.10198448705E+01  0.10195604281E+01 0.  0.
     999903    2    3    3    0    0  0.94030755654E-01 -0.34965440292E-02 -0.85094821615E-01  0.12837337747E+00  0.19610878286E-01 0.  0.
         14    1    1    2    0    0  0.99198232719E-03  0.12061553168E-01 -0.20823745298E-01  0.24085129478E-01  0.00000000000E+00 0. -1.
     999901    1    3    3    0    0 -0.95022737982E-01 -0.85650091386E-02  0.10591856691E+00  0.89147149306E+00  0.88000000000E+00 0.  1.
        -11    1    4    4    0    0  0.58689626912E-02 -0.49860786883E-02 -0.94097745015E-02  0.12170073168E-01  0.51100000000E-03 0. -1.
         11    1    4    4    0    0  0.88161792963E-01  0.14895346591E-02 -0.75685047113E-01  0.11620330430E+00  0.51100000000E-03 0.  1.
</event>
<event>
 8    1  0.1070112E+005  0.1043930E+01  0.7957747E-01            NaN
         13   -1    0    0    0    0  0.00000000000E+00  0.00000000000E+00  0.74505805969E-08  0.10566000000E+00  0.10566000000E+00 0.  1.
     999900   -1    0    0    0    0 -0.00000000000E+00 -0.00000000000E+00 -0.74505805969E-08  0.93827000000E+00  0.93827000000E+00 0.  1.
     999902    2    1    2    0    0 -0.18557208306E-01  0.13146735380E-01 -0.46611029721E-02  0.10207150800E+01  0.10204510483E+01 0.  0.
     999903    2    3    3    0    0  0.11532615865E+00  0.51059702643E-01  0.20450134388E-01  0.12942796389E+00  0.20643975813E-01 0.  0.
         14    1    1    2    0    0  0.18557208306E-01 -0.13146735380E-01  0.46611029721E-02  0.23214920034E-01  0.00000000000E+00 0.  1.
     999901    1    3    3    0    0 -0.13388336696E+00 -0.37912967263E-01 -0.25111237360E-01  0.89128711607E+00  0.88000000000E+00 0.  1.
        -11    1    4    4    0    0  0.26923891587E-01  0.28652647862E-02  0.55602945861E-02  0.27645680990E-01  0.51100000000E-03 0. -1.
         11    1    4    4    0    0  0.88402267066E-01  0.48194437857E-01  0.14889839802E-01  0.10178228290E+00  0.51100000000E-03 0.  1.
</event>
<event>
 8    1  0.1070112E+005  0.1043930E+01  0.7957747E-01            NaN
         13   -1    0    0    0    0  0.00000000000E+00  0.00000000000E+00  0.74505805969E-08  0.10566000000E+00  0.10566000000E+00 0.  1.
     999900   -1    0    0    0    0 -0.00000000000E+00 -0.00000000000E+00 -0.74505805969E-08  0.93827000000E+00  0.93827000000E+00 0. -1.
     999902    2    1    2    0    0 -0.11526568423E-01  0.44213281832E-02  0.20900330175E-01  0.10196558631E+01  0.10193668846E+01 0.  0.
     999903    2    3    3    0    0  0.31931503999E-01  0.12340774760E+00 -0.14796522945E-01  0.12986901365E+00  0.19948195396E-01 0.  0.
         14    1    1    2    0    0  0.11526568423E-01 -0.44213281832E-02 -0.20900330175E-01  0.24274136935E-01  0.00000000000E+00 0. -1.
     999901    1    3    3    0    0 -0.43458072421E-01 -0.11898641942E+00  0.35696853120E-01  0.88978684941E+00  0.88000000000E+00 0. -1.
        -11    1    4    4    0    0  0.17265746326E-01  0.75129380719E-01 -0.18485911905E-01  0.79274963913E-01  0.51100000000E-03 0. -1.
         11    1    4    4    0    0  0.14665757673E-01  0.48278366885E-01  0.36893889597E-02  0.50594049740E-01  0.51100000000E-03 0.  1.
</event>
<event>
 8    1  0.1070112E+005  0.1043930E+01  0.7957747E-01            NaN
         13   -1    0    0    0    0  0.00000000000E+00  0.00000000000E+00  0.74505805969E-08  0.10566000000E+00  0.10566000000E+00 0. -1.
     999900   -1    0    0    0    0 -0.00000000000E+00 -0.00000000000E+00 -0.74505805969E-08  0.93827000000E+00  0.93827000000E+00 0.  1.
     999902    2    1    2    0    0  0.15409049501E-01 -0.85166820383E-02  0.14029844279E-01  0.10214175765E+01  0.10211694553E+01 0.  0.
     999903    2    3    3    0    0 -0.29844265620E-01  0.12017853349E+00  0.39032477882E-01  0.13055538029E+00  0.13697185452E-01 0.  0.
         14    1    1    2    0    0 -0.15409049501E-01  0.85166820383E-02 -0.14029844279E-01  0.22512423458E-01  0.00000000000E+00 0.  1.
     999901    1    3    3    0    0  0.45253315121E-01 -0.12869521553E+00 -0.25002633603E-01  0.89086219626E+00  0.88000000000E+00 0.  1.
        -11    1    4    4    0    0 -0.15223464274E-01  0.49464497016E-01  0.22722271576E-01  0.56524800540E-01  0.51100000000E-03 0.  1.
         11    1    4    4    0    0 -0.14620801346E-01  0.70714036477E-01  0.16310206306E-01  0.74030579746E-01  0.51100000000E-03 0. -1.
</event>
<event>
 8    1  0.1070112E+005  0.1043930E+01  0.7957747E-01            NaN
         13   -1    0    0    0    0  0.00000000000E+00  0.00000000000E+00  0.74505805969E-08  0.10566000000E+00  0.10566000000E+00 0. -1.
     999900   -1    0    0    0    0 -0.00000000000E+00 -0.00000000000E+00 -0.74505805969E-08  0.93827000000E+00  0.93827000000E+00 0.  1.
     999902    2    1    2    0    0 -0.95590405032E-02  0.13497679896E-01  0.16448170539E-01  0.10206039431E+01  0.10203373480E+01 0.  0.
     999903    2    3    3    0    0 -0.71717526641E-01  0.61695029165E-01  0.92240240716E-01  0.13385082084E+00  0.21403270345E-01 0.  0.
         14    1    1    2    0    0  0.95590405032E-02 -0.13497679896E-01 -0.16448170539E-01  0.23326056932E-01  0.00000000000E+00 0.  1.
     999901    1    3    3    0    0  0.62158486138E-01 -0.48197349269E-01 -0.75792070177E-01  0.88675312223E+00  0.88000000000E+00 0.  1.
        -11    1    4    4    0    0 -0.53692500337E-01  0.33073642338E-01  0.57081476251E-01  0.85060604641E-01  0.51100000000E-03 0. -1.
         11    1    4    4    0    0 -0.18025026304E-01  0.28621386828E-01  0.35158764466E-01  0.48790216201E-01  0.51100000000E-03 0.  1.
</event>
<event>
 8    1  0.1070112E+005  0.1043930E+01  0.7957747E-01            NaN
         13   -1    0    0    0    0  0.00000000000E+00  0.00000000000E+00  0.74505805969E-08  0.10566000000E+00  0.10566000000E+00 0. -1.
     999900   -1    0    0    0    0 -0.00000000000E+00 -0.00000000000E+00 -0.74505805969E-08  0.93827000000E+00  0.93827000000E+00 0. -1.
     999902    2    1    2    0    0 -0.17582681344E-01  0.14234711260E-01  0.77092234277E-02  0.10200300039E+01  0.10197499689E+01 0.  0.
     999903    2    3    3    0    0 -0.58224341235E-01  0.90467808082E-01 -0.73972155489E-01  0.13203502799E+00  0.19669026859E-01 0.  0.
         14    1    1    2    0    0  0.17582681344E-01 -0.14234711260E-01 -0.77092234277E-02  0.23899996104E-01  0.00000000000E+00 0.  1.
     999901    1    3    3    0    0  0.40641659891E-01 -0.76233096823E-01  0.81681378917E-01  0.88799497590E+00  0.88000000000E+00 0.  1.
        -11    1    4    4    0    0 -0.30006562149E-01  0.32663621129E-01 -0.37527645617E-01  0.58102420120E-01  0.51100000000E-03 0.  1.
         11    1    4    4    0    0 -0.28217779086E-01  0.57804186953E-01 -0.36444509872E-01  0.73932607872E-01  0.51100000000E-03 0. -1.
</event>
<event>
 8    1  0.1070112E+005  0.1043930E+01  0.7957747E-01            NaN
         13   -1    0    0    0    0  0.00000000000E+00  0.00000000000E+00  0.74505805969E-08  0.10566000000E+00  0.10566000000E+00 0. -1.
     999900   -1    0    0    0    0 -0.00000000000E+00 -0.00000000000E+00 -0.74505805969E-08  0.93827000000E+00  0.93827000000E+00 0. -1.
     999902    2    1    2    0    0  0.12893705467E-01  0.15480766316E-01 -0.10889095749E-01  0.10210285989E+01  0.10207717304E+01 0.  0.
     999903    2    3    3    0    0  0.10662325445E+00 -0.13627578518E-03  0.75027115135E-01  0.13175321092E+00  0.19007988364E-01 0.  0.
         14    1    1    2    0    0 -0.12893705467E-01 -0.15480766316E-01  0.10889095749E-01  0.22901401106E-01  0.00000000000E+00 0.  1.
     999901    1    3    3    0    0 -0.93729548988E-01  0.15617042101E-01 -0.85916210884E-01  0.88927538797E+00  0.88000000000E+00 0. -1.
        -11    1    4    4    0    0  0.46609916353E-01 -0.85182114719E-02  0.37986440485E-01  0.60731170010E-01  0.51100000000E-03 0.  1.
         11    1    4    4    0    0  0.60013338102E-01  0.83819356867E-02  0.37040674649E-01  0.71022040913E-01  0.51100000000E-03 0. -1.
</event>
<event>
 8    1  0.1070112E+005  0.1043930E+01  0.7957747E-01            NaN
         13   -1    0    0    0    0  0.00000000000E+00  0.00000000000E+00  0.74505805969E-08  0.10566000000E+00  0.10566000000E+00 0.  1.
     999900   -1    0    0    0    0 -0.00000000000E+00 -0.00000000000E+00 -0.74505805969E-08  0.93827000000E+00  0.93827000000E+00 0.  1.
     999902    2    1    2    0    0 -0.15546121337E-01  0.13477601709E-01 -0.10603189241E-01  0.10207836124E+01  0.10205211551E+01 0.  0.
     999903    2    3    3    0    0  0.63420779351E-01  0.81197952781E-01 -0.80185636571E-01  0.13192843054E+00  0.18975554900E-01 0.  0.
         14    1    1    2    0    0  0.15546121337E-01 -0.13477601709E-01  0.10603189241E-01  0.23146387591E-01  0.00000000000E+00 0. -1.
     999901    1    3    3    0    0 -0.78966900688E-01 -0.67720351072E-01  0.69582447330E-01  0.88885518187E+00  0.88000000000E+00 0. -1.
        -11    1    4    4    0    0  0.37889281648E-01  0.61267536900E-01 -0.50365435512E-01  0.87899072560E-01  0.51100000000E-03 0. -1.
         11    1    4    4    0    0  0.25531497703E-01  0.19930415882E-01 -0.29820201060E-01  0.44029357983E-01  0.51100000000E-03 0.  1.
</event>
<event>
 8    1  0.1070112E+005  0.1043930E+01  0.7957747E-01            NaN
         13   -1    0    0    0    0  0.00000000000E+00  0.00000000000E+00  0.74505805969E-08  0.10566000000E+00  0.10566000000E+00 0. -1.
     999900   -1    0    0    0    0 -0.00000000000E+00 -0.00000000000E+00 -0.74505805969E-08  0.93827000000E+00  0.93827000000E+00 0. -1.
     999902    2    1    2    0    0  0.19906650896E-01 -0.15871820564E-01  0.16940636361E-02  0.10184141365E+01  0.10180944427E+01 0.  0.
     999903    2    3    3    0    0  0.10951858967E+00 -0.62542165924E-01  0.33923330140E-01  0.13204674862E+00  0.19486084534E-01 0.  0.
         14    1    1    2    0    0 -0.19906650896E-01  0.15871820564E-01 -0.16940636361E-02  0.25515863488E-01  0.00000000000E+00 0. -1.
     999901    1    3    3    0    0 -0.89611938774E-01  0.46670345360E-01 -0.32229266504E-01  0.88636738790E+00  0.88000000000E+00 0.  1.
        -11    1    4    4    0    0  0.46248891702E-02 -0.83165727001E-02  0.22927029542E-02  0.98016625706E-02  0.51100000000E-03 0.  1.
         11    1    4    4    0    0  0.10489370050E+00 -0.54225593224E-01  0.31630627186E-01  0.12224508605E+00  0.51100000000E-03 0. -1.
</event>
<event>
 8    1  0.1070112E+005  0.1043930E+01  0.7957747E-01            NaN
         13   -1    0    0    0    0  0.00000000000E+00  0.00000000000E+00  0.74505805969E-08  0.10566000000E+00  0.10566000000E+00 0. -1.
     999900   -1    0    0    0    0 -0.00000000000E+00 -0.00000000000E+00 -0.74505805969E-08  0.93827000000E+00  0.93827000000E+00 0. -1.
     999902    2    1    2    0    0  0.12351277436E-01 -0.37771313186E-02  0.18414043136E-01  0.10214378289E+01  0.10211901589E+01 0.  0.
     999903    2    3    3    0    0 -0.32285741679E-01  0.76921039061E-01 -0.95877782131E-01  0.12926784540E+00  0.23630729589E-01 0.  0.
         14    1    1    2    0    0 -0.12351277436E-01  0.37771313186E-02 -0.18414043136E-01  0.22492171080E-01  0.00000000000E+00 0.  1.
     999901    1    3    3    0    0  0.44637019115E-01 -0.80698170379E-01  0.11429182527E+00  0.89216998352E+00  0.88000000000E+00 0.  1.
        -11    1    4    4    0    0 -0.18230037970E-01  0.23871849705E-01 -0.21998987715E-01  0.37234608554E-01  0.51100000000E-03 0.  1.
         11    1    4    4    0    0 -0.14055703709E-01  0.53049189356E-01 -0.73878794417E-01  0.92033236841E-01  0.51100000000E-03 0. -1.
</event>
<event>
 8    1  0.1070112E+005  0.1043930E+01  0.7957747E-01            NaN
         13   -1    0    0    0    0  0.00000000000E+00  0.00000000000E+00  0.74505805969E-08  0.10566000000E+00  0.10566000000E+00 0. -1.
     999900   -1    0    0    0    0 -0.00000000000E+00 -0.00000000000E+00 -0.74505805969E-08  0.93827000000E+00  0.93827000000E+00 0. -1.
     999902    2    1    2    0    0 -0.61451913378E-02  0.64603919916E-02  0.22831598160E-01  0.10194191470E+01  0.10191244356E+01 0.  0.
     999903    2    3    3    0    0 -0.72873553341E-01  0.67769131007E-01 -0.79438275800E-01  0.12887405385E+00  0.19871391491E-01 0.  0.
         14    1    1    2    0    0  0.61451913378E-02 -0.64603919916E-02 -0.22831598160E-01  0.24510853021E-01  0.00000000000E+00 0.  1.
     999901    1    3    3    0    0  0.66728362003E-01 -0.61308739016E-01  0.10226987396E+00  0.89054509313E+00  0.88000000000E+00 0.  1.
        -11    1    4    4    0    0 -0.51014497282E-01  0.35440581044E-01 -0.53799056183E-01  0.82177328290E-01  0.51100000000E-03 0.  1.
         11    1    4    4    0    0 -0.21859056059E-01  0.32328549963E-01 -0.25639219617E-01  0.46696725560E-01  0.51100000000E-03 0. -1.
</event>
<event>
 8    1  0.1070112E+005  0.1043930E+01  0.7957747E-01            NaN
         13   -1    0    0    0    0  0.00000000000E+00  0.00000000000E+00  0.74505805969E-08  0.10566000000E+00  0.10566000000E+00 0.  1.
     999900   -1    0    0    0    0 -0.00000000000E+00 -0.00000000000E+00 -0.74505805969E-08  0.93827000000E+00  0.93827000000E+00 0. -1.
     999902    2    1    2    0    0  0.65790101644E-02 -0.75439166577E-02 -0.21028501393E-01  0.10206406908E+01  0.10203749447E+01 0.  0.
     999903    2    3    3    0    0 -0.12202190109E+00 -0.37223222350E-01 -0.21151419225E-01  0.13079853024E+00  0.19645873614E-01 0.  0.
         14    1    1    2    0    0 -0.65790101644E-02  0.75439166577E-02  0.21028501393E-01  0.23289309224E-01  0.00000000000E+00 0.  1.
     999901    1    3    3    0    0  0.12860091125E+00  0.29679305693E-01  0.12291783179E-03  0.88984216054E+00  0.88000000000E+00 0.  1.
        -11    1    4    4    0    0 -0.28509742853E-01 -0.42665364623E-02 -0.11988876382E-01  0.31225038812E-01  0.51100000000E-03 0.  1.
         11    1    4    4    0    0 -0.93512158235E-01 -0.32956685888E-01 -0.91625428435E-02  0.99573491427E-01  0.51100000000E-03 0. -1.
</event>
<event>
 8    1  0.1070112E+005  0.1043930E+01  0.7957747E-01            NaN
         13   -1    0    0    0    0  0.00000000000E+00  0.00000000000E+00  0.74505805969E-08  0.10566000000E+00  0.10566000000E+00 0.  1.
     999900   -1    0    0    0    0 -0.00000000000E+00 -0.00000000000E+00 -0.74505805969E-08  0.93827000000E+00  0.93827000000E+00 0.  1.
     999902    2    1    2    0    0  0.14015131164E-02  0.15862454699E-01 -0.18675280006E-01  0.10193872253E+01  0.10190917364E+01 0.  0.
     999903    2    3    3    0    0 -0.11946063689E-01  0.77660295485E-01  0.10058705207E+00  0.12909478187E+00  0.19335918066E-01 0.  0.
         14    1    1    2    0    0 -0.14015131164E-02 -0.15862454699E-01  0.18675280006E-01  0.24542774729E-01  0.00000000000E+00 0.  1.
     999901    1    3    3    0    0  0.13347576806E-01 -0.61797840786E-01 -0.11926233208E+00  0.89029244341E+00  0.88000000000E+00 0.  1.
        -11    1    4    4    0    0 -0.45928200419E-02  0.30522828267E-01  0.55192740164E-01  0.63239518729E-01  0.51100000000E-03 0. -1.
         11    1    4    4    0    0 -0.73532436475E-02  0.47137467219E-01  0.45394311909E-01  0.65855263136E-01  0.51100000000E-03 0.  1.
</event>
<event>
 8    1  0.1070112E+005  0.1043930E+01  0.7957747E-01            NaN
         13   -1    0    0    0    0  0.00000000000E+00  0.00000000000E+00  0.74505805969E-08  0.10566000000E+00  0.10566000000E+00 0.  1.
     999900   -1    0    0    0    0 -0.00000000000E+00 -0.00000000000E+00 -0.74505805969E-08  0.93827000000E+00  0.93827000000E+00 0.  1.
     999902    2    1    2    0    0 -0.21967950985E-01  0.67812108007E-02  0.73665078276E-02  0.10197878972E+01  0.10195020913E+01 0.  0.
     999903    2    3    3    0    0 -0.50789482460E-01  0.27670020618E-01  0.11704718927E+00  0.13226501020E+00  0.21184589644E-01 0.  0.
         14    1    1    2    0    0  0.21967950985E-01 -0.67812108007E-02 -0.73665078276E-02  0.24142102808E-01  0.00000000000E+00 0.  1.
     999901    1    3    3    0    0  0.28821531475E-01 -0.20888809817E-01 -0.10968068144E+00  0.88752288699E+00  0.88000000000E+00 0.  1.
        -11    1    4    4    0    0 -0.58204778340E-02  0.12621528769E-01  0.31949991719E-01  0.34846004685E-01  0.51100000000E-03 0. -1.
         11    1    4    4    0    0 -0.44969004626E-01  0.15048491849E-01  0.85097197548E-01  0.97419005515E-01  0.51100000000E-03 0.  1.
</event>
<event>
 8    1  0.1070112E+005  0.1043930E+01  0.7957747E-01            NaN
         13   -1    0    0    0    0  0.00000000000E+00  0.00000000000E+00  0.74505805969E-08  0.10566000000E+00  0.10566000000E+00 0.  1.
     999900   -1    0    0    0    0 -0.00000000000E+00 -0.00000000000E+00 -0.74505805969E-08  0.93827000000E+00  0.93827000000E+00 0. -1.
     999902    2    1    2    0    0  0.11109616020E-01  0.38132682350E-02 -0.22040555817E-01  0.10189549988E+01  0.10186488791E+01 0.  0.
     999903    2    3    3    0    0 -0.95709710374E-01  0.79948700991E-01  0.24070201228E-01  0.12803795750E+00  0.16192607082E-01 0.  0.
         14    1    1    2    0    0 -0.11109616020E-01 -0.38132682350E-02  0.22040555817E-01  0.24975001171E-01  0.00000000000E+00 0.  1.
     999901    1    3    3    0    0  0.10681932639E+00 -0.76135432756E-01 -0.46110757046E-01  0.89091704133E+00  0.88000000000E+00 0. -1.
        -11    1    4    4    0    0 -0.59362289695E-01  0.56279934619E-01  0.98701679997E-02  0.82395350694E-01  0.51100000000E-03 0. -1.
         11    1    4    4    0    0 -0.36347420678E-01  0.23668766372E-01  0.14200033229E-01  0.45642606808E-01  0.51100000000E-03 0.  1.
</event>
<event>
 8    1  0.1070112E+005  0.1043930E+01  0.7957747E-01            NaN
         13   -1    0    0    0    0  0.00000000000E+00  0.00000000000E+00  0.74505805969E-08  0.10566000000E+00  0.10566000000E+00 0. -1.
     999900   -1    0    0    0    0 -0.00000000000E+00 -0.00000000000E+00 -0.74505805969E-08  0.93827000000E+00  0.93827000000E+00 0.  1.
     999902    2    1    2    0    0  0.95077507569E-02  0.13920137391E-01  0.18688563574E-01  0.10187619656E+01  0.10184510359E+01 0.  0.
     999903    2    3    3    0    0  0.94942680076E-01 -0.22959921294E-01 -0.80787058918E-01  0.12828194593E+00  0.19708837547E-01 0.  0.
         14    1    1    2    0    0 -0.95077507569E-02 -0.13920137391E-01 -0.18688563574E-01  0.25168034447E-01  0.00000000000E+00 0.  1.
     999901    1    3    3    0    0 -0.85434929319E-01  0.36880058685E-01  0.99475622492E-01  0.89048001962E+00  0.88000000000E+00 0. -1.
        -11    1    4    4    0    0  0.53479088038E-01 -0.18550133280E-01 -0.56720767421E-01  0.80135054002E-01  0.51100000000E-03 0. -1.
         11    1    4    4    0    0  0.41463592038E-01 -0.44097880135E-02 -0.24066291497E-01  0.48146891929E-01  0.51100000000E-03 0.  1.
</event>
<event>
 7    1  0.1070112E+005  0.1043930E+01  0.7957747E-01            NaN
         13   -1    0    0    0    0  0.00000000000E+00  0.00000000000E+00  0.74505805969E-08  0.10566000000E+00  0.10566000000E+00 0.  1.
     999900   -1    0    0    0    0 -0.00000000000E+00 -0.00000000000E+00 -0.74505805969E-08  0.93827000000E+00  0.93827000000E+00 0.  1.
     999903    2    1    2    0    0 -0.48402682150E-01  0.18494531416E-01 -0.99232279203E-01  0.11368376947E+00  0.19801183612E-01 0.  0.
         14    1    1    2    0    0  0.28515679096E-01 -0.97691488564E-03 -0.28853609230E-01  0.40578677684E-01  0.00000000000E+00 0. -1.
     999901    1    1    2    0    0  0.19887003054E-01 -0.17517616530E-01  0.12808588843E+00  0.88966755285E+00  0.88000000000E+00 0. -1.
        -11    1    3    3    0    0 -0.33135463111E-01  0.20876383352E-01 -0.61572858135E-01  0.72974380965E-01  0.51100000000E-03 0.  1.
         11    1    3    3    0    0 -0.15267219039E-01 -0.23818519359E-02 -0.37659421068E-01  0.40709388500E-01  0.51100000000E-03 0. -1.
</event>
<event>
 8    1  0.1070112E+005  0.1043930E+01  0.7957747E-01            NaN
         13   -1    0    0    0    0  0.00000000000E+00  0.00000000000E+00  0.74505805969E-08  0.10566000000E+00  0.10566000000E+00 0. -1.
     999900   -1    0    0    0    0 -0.00000000000E+00 -0.00000000000E+00 -0.74505805969E-08  0.93827000000E+00  0.93827000000E+00 0.  1.
     999902    2    1    2    0    0 -0.13075588378E-01 -0.15829595071E-01  0.11730670077E-01  0.10202835264E+01  0.10200094699E+01 0.  0.
     999903    2    3    3    0    0  0.11417006893E+00  0.33693806759E-01 -0.42755654987E-01  0.12808804099E+00  0.20209476919E-01 0.  0.
         14    1    1    2    0    0  0.13075588378E-01  0.15829595071E-01 -0.11730670077E-01  0.23646473564E-01  0.00000000000E+00 0.  1.
     999901    1    3    3    0    0 -0.12724565731E+00 -0.49523401830E-01  0.54486325064E-01  0.89219548545E+00  0.88000000000E+00 0. -1.
        -11    1    4    4    0    0  0.57611281049E-01  0.12550936244E-01 -0.30829388460E-01  0.66537944201E-01  0.51100000000E-03 0.  1.
         11    1    4    4    0    0  0.56558787882E-01  0.21142870514E-01 -0.11926266527E-01  0.61550096788E-01  0.51100000000E-03 0. -1.
</event>
<event>
 8    1  0.1070112E+005  0.1043930E+01  0.7957747E-01            NaN
         13   -1    0    0    0    0  0.00000000000E+00  0.00000000000E+00  0.74505805969E-08  0.10566000000E+00  0.10566000000E+00 0.  1.
     999900   -1    0    0    0    0 -0.00000000000E+00 -0.00000000000E+00 -0.74505805969E-08  0.93827000000E+00  0.93827000000E+00 0.  1.
     999902    2    1    2    0    0 -0.35635146751E-02  0.16100536066E-01 -0.16400261770E-01  0.10206728616E+01  0.10204078577E+01 0.  0.
     999903    2    3    3    0    0 -0.86039422469E-01 -0.20893412196E-01 -0.96633689504E-01  0.13241150906E+00  0.18852609663E-01 0.  0.
         14    1    1    2    0    0  0.35635146751E-02 -0.16100536066E-01  0.16400261770E-01  0.23257138358E-01  0.00000000000E+00 0.  1.
     999901    1    3    3    0    0  0.82475907794E-01  0.36993948263E-01  0.80233427734E-01  0.88826135259E+00  0.88000000000E+00 0. -1.
        -11    1    4    4    0    0 -0.26350795923E-01 -0.56454566197E-02 -0.42891802991E-01  0.50657709295E-01  0.51100000000E-03 0. -1.
         11    1    4    4    0    0 -0.59688626546E-01 -0.15247955577E-01 -0.53741886513E-01  0.81753799760E-01  0.51100000000E-03 0.  1.
</event>
<event>
 8    1  0.1070112E+005  0.1043930E+01  0.7957747E-01            NaN
         13   -1    0    0    0    0  0.00000000000E+00  0.00000000000E+00  0.74505805969E-08  0.10566000000E+00  0.10566000000E+00 0. -1.
     999900   -1    0    0    0    0 -0.00000000000E+00 -0.00000000000E+00 -0.74505805969E-08  0.93827000000E+00  0.93827000000E+00 0. -1.
     999902    2    1    2    0    0  0.17996844735E-02  0.23195204369E-01  0.40307266217E-02  0.10203184959E+01  0.10200452588E+01 0.  0.
     999903    2    3    3    0    0  0.52659107443E-01 -0.11488579353E+00  0.60105980886E-02  0.12809825245E+00  0.20032669324E-01 0.  0.
         14    1    1    2    0    0 -0.17996844735E-02 -0.23195204369E-01 -0.40307266217E-02  0.23611504124E-01  0.00000000000E+00 0.  1.
     999901    1    3    3    0    0 -0.50859422969E-01  0.13808099790E+00 -0.19798714668E-02  0.89222024342E+00  0.88000000000E+00 0. -1.
        -11    1    4    4    0    0  0.29244701940E-01 -0.48461252040E-01 -0.49425242736E-02  0.56819320728E-01  0.51100000000E-03 0.  1.
         11    1    4    4    0    0  0.23414405503E-01 -0.66424541489E-01  0.10953122362E-01  0.71278931723E-01  0.51100000000E-03 0. -1.
</event>
<event>
 8    1  0.1070112E+005  0.1043930E+01  0.7957747E-01            NaN
         13   -1    0    0    0    0  0.00000000000E+00  0.00000000000E+00  0.74505805969E-08  0.10566000000E+00  0.10566000000E+00 0. -1.
     999900   -1    0    0    0    0 -0.00000000000E+00 -0.00000000000E+00 -0.74505805969E-08  0.93827000000E+00  0.93827000000E+00 0. -1.
     999902    2    1    2    0    0 -0.64440501015E-02  0.17646053746E-01  0.11920481232E-01  0.10216812502E+01  0.10214389704E+01 0.  0.
     999903    2    3    3    0    0  0.81106178901E-01  0.12039722724E-01 -0.99157953654E-01  0.13037047823E+00  0.20999872428E-01 0.  0.
         14    1    1    2    0    0  0.64440501015E-02 -0.17646053746E-01 -0.11920481232E-01  0.22248749792E-01  0.00000000000E+00 0. -1.
     999901    1    3    3    0    0 -0.87550229002E-01  0.56063310218E-02  0.11107843489E+00  0.89131077198E+00  0.88000000000E+00 0.  1.
        -11    1    4    4    0    0  0.46806816370E-01  0.39835205064E-02 -0.40914761873E-01  0.62297876003E-01  0.51100000000E-03 0.  1.
         11    1    4    4    0    0  0.34299362530E-01  0.80562022179E-02 -0.58243191781E-01  0.68072602228E-01  0.51100000000E-03 0. -1.
</event>
<event>
 8    1  0.1070112E+005  0.1043930E+01  0.7957747E-01            NaN
         13   -1    0    0    0    0  0.00000000000E+00  0.00000000000E+00  0.74505805969E-08  0.10566000000E+00  0.10566000000E+00 0. -1.
     999900   -1    0    0    0    0 -0.00000000000E+00 -0.00000000000E+00 -0.74505805969E-08  0.93827000000E+00  0.93827000000E+00 0. -1.
     999902    2    1    2    0    0  0.18898374213E-01  0.12150882435E-01  0.15645709398E-01  0.10165515283E+01  0.10161827734E+01 0.  0.
     999903    2    3    3    0    0 -0.12027617744E+00 -0.14131010260E-01 -0.20330064531E-01  0.12450077297E+00  0.20520395633E-01 0.  0.
         14    1    1    2    0    0 -0.18898374213E-01 -0.12150882435E-01 -0.15645709398E-01  0.27378471732E-01  0.00000000000E+00 0.  1.
     999901    1    3    3    0    0  0.13917455165E+00  0.26281892695E-01  0.35975773929E-01  0.89205075529E+00  0.88000000000E+00 0.  1.
        -11    1    4    4    0    0 -0.42594428065E-01 -0.11449424290E-01  0.18362443910E-03  0.44109743342E-01  0.51100000000E-03 0.  1.
         11    1    4    4    0    0 -0.77681749374E-01 -0.26815859700E-02 -0.20513688970E-01  0.80391029632E-01  0.51100000000E-03 0. -1.
</event>
<event>
 8    1  0.1070112E+005  0.1043930E+01  0.7957747E-01            NaN
         13   -1    0    0    0    0  0.00000000000E+00  0.00000000000E+00  0.74505805969E-08  0.10566000000E+00  0.10566000000E+00 0. -1.
     999900   -1    0    0    0    0 -0.00000000000E+00 -0.00000000000E+00 -0.74505805969E-08  0.93827000000E+00  0.93827000000E+00 0. -1.
     999902    2    1    2    0    0 -0.11842459617E-01  0.66280263306E-02  0.18124892551E-01  0.10212874226E+01  0.10210363917E+01 0.  0.
     999903    2    3    3    0    0 -0.32955386601E-01  0.58936717368E-01  0.11434576668E+00  0.13424716899E+00  0.19691466809E-01 0.  0.
         14    1    1    2    0    0  0.11842459617E-01 -0.66280263306E-02 -0.18124892551E-01  0.22642577433E-01  0.00000000000E+00 0.  1.
     999901    1    3    3    0    0  0.21112926983E-01 -0.52308691038E-01 -0.96220874127E-01  0.88704025357E+00  0.88000000000E+00 0. -1.
        -11    1    4    4    0    0 -0.69755208415E-02  0.40777488465E-02  0.24619582780E-01  0.25916614438E-01  0.51100000000E-03 0.  1.
         11    1    4    4    0    0 -0.25979865759E-01  0.54858968522E-01  0.89726183898E-01  0.10833055455E+00  0.51100000000E-03 0. -1.
</event>
<event>
 8    1  0.1070112E+005  0.1043930E+01  0.7957747E-01            NaN
         13   -1    0    0    0    0  0.00000000000E+00  0.00000000000E+00  0.74505805969E-08  0.10566000000E+00  0.10566000000E+00 0.  1.
     999900   -1    0    0    0    0 -0.00000000000E+00 -0.00000000000E+00 -0.74505805969E-08  0.93827000000E+00  0.93827000000E+00 0. -1.
     999902    2    1    2    0    0 -0.13125021251E-01 -0.16015119922E-01  0.11193713259E-01  0.10203917446E+01  0.10201202199E+01 0.  0.
     999903    2    3    3    0    0  0.37972968551E-01  0.86241430752E-01  0.88619364983E-01  0.12962682713E+00  0.83780512737E-02 0.  0.
         14    1    1    2    0    0  0.13125021251E-01  0.16015119922E-01 -0.11193713259E-01  0.23538255362E-01  0.00000000000E+00 0. -1.
     999901    1    3    3    0    0 -0.51097989801E-01 -0.10225655067E+00 -0.77425651724E-01  0.89076491751E+00  0.88000000000E+00 0. -1.
        -11    1    4    4    0    0  0.21570116084E-01  0.43933245809E-01  0.50936620348E-01  0.70641350558E-01  0.51100000000E-03 0. -1.
         11    1    4    4    0    0  0.16402852466E-01  0.42308184943E-01  0.37682744636E-01  0.58985476573E-01  0.51100000000E-03 0.  1.
</event>
<event>
 8    1  0.1070112E+005  0.1043930E+01  0.7957747E-01            NaN
         13   -1    0    0    0    0  0.00000000000E+00  0.00000000000E+00  0.74505805969E-08  0.10566000000E+00  0.10566000000E+00 0. -1.
     999900   -1    0    0    0    0 -0.00000000000E+00 -0.00000000000E+00 -0.74505805969E-08  0.93827000000E+00  0.93827000000E+00 0. -1.
     999902    2    1    2    0    0  0.21564063489E-01  0.10573256909E-01  0.27433632240E-02  0.10197571094E+01  0.10194705654E+01 0.  0.
     999903    2    3    3    0    0  0.37218392670E-01  0.12533083288E+00  0.12926824018E-02  0.13216685278E+00  0.19323030834E-01 0.  0.
         14    1    1    2    0    0 -0.21564063489E-01 -0.10573256909E-01 -0.27433632240E-02  0.24172890551E-01  0.00000000000E+00 0. -1.
     999901    1    3    3    0    0 -0.15654329181E-01 -0.11475757598E+00  0.14506808223E-02  0.88759025667E+00  0.88000000000E+00 0. -1.
        -11    1    4    4    0    0  0.81805051504E-02  0.10154468120E-01  0.29275339304E-02  0.13374059340E-01  0.51100000000E-03 0. -1.
         11    1    4    4    0    0  0.29037887520E-01  0.11517636476E+00 -0.16348515286E-02  0.11879279344E+00  0.51100000000E-03 0.  1.
</event>
<event>
 8    1  0.1070112E+005  0.1043930E+01  0.7957747E-01            NaN
         13   -1    0    0    0    0  0.00000000000E+00  0.00000000000E+00  0.74505805969E-08  0.10566000000E+00  0.10566000000E+00 0.  1.
     999900   -1    0    0    0    0 -0.00000000000E+00 -0.00000000000E+00 -0.74505805969E-08  0.93827000000E+00  0.93827000000E+00 0. -1.
     999902    2    1    2    0    0  0.18248223508E-01  0.11800235330E-01 -0.10306705395E-01  0.10198785678E+01  0.10195949302E+01 0.  0.
     999903    2    3    3    0    0 -0.83191313652E-01  0.96367278025E-01 -0.15225263231E-01  0.13001017493E+00  0.21526495390E-01 0.  0.
         14    1    1    2    0    0 -0.18248223508E-01 -0.11800235330E-01  0.10306705395E-01  0.24051432205E-01  0.00000000000E+00 0. -1.
     999901    1    3    3    0    0  0.10143953716E+00 -0.84567042695E-01  0.49185578352E-02  0.88986839287E+00  0.88000000000E+00 0.  1.
        -11    1    4    4    0    0 -0.47028594393E-01  0.63000260749E-01 -0.18251163706E-01  0.80709898046E-01  0.51100000000E-03 0.  1.
         11    1    4    4    0    0 -0.36162719259E-01  0.33367017276E-01  0.30259004758E-02  0.49300276883E-01  0.51100000000E-03 0. -1.
</event>
<event>
 8    1  0.1070112E+005  0.1043930E+01  0.7957747E-01            NaN
         13   -1    0    0    0    0  0.00000000000E+00  0.00000000000E+00  0.74505805969E-08  0.10566000000E+00  0.10566000000E+00 0.  1.
     999900   -1    0    0    0    0 -0.00000000000E+00 -0.00000000000E+00 -0.74505805969E-08  0.93827000000E+00  0.93827000000E+00 0.  1.
     999902    2    1    2    0    0  0.23229351988E-01 -0.24431319635E-02  0.88872228576E-02  0.10189389132E+01  0.10186323942E+01 0.  0.
     999903    2    3    3    0    0  0.11345678641E+00  0.34611008090E-01 -0.52287000163E-01  0.13143889364E+00  0.21722985779E-01 0.  0.
         14    1    1    2    0    0 -0.23229351988E-01  0.24431319635E-02 -0.88872228576E-02  0.24991086765E-01  0.00000000000E+00 0.  1.
     999901    1    3    3    0    0 -0.90227434426E-01 -0.37054140054E-01  0.61174223020E-01  0.88750001959E+00  0.88000000000E+00 0. -1.
        -11    1    4    4    0    0  0.56354868711E-01  0.11412479211E-01 -0.15090387315E-01  0.59448270114E-01  0.51100000000E-03 0.  1.
         11    1    4    4    0    0  0.57101917702E-01  0.23198528879E-01 -0.37196612848E-01  0.71990623527E-01  0.51100000000E-03 0. -1.
</event>
<event>
 8    1  0.1070112E+005  0.1043930E+01  0.7957747E-01            NaN
         13   -1    0    0    0    0  0.00000000000E+00  0.00000000000E+00  0.74505805969E-08  0.10566000000E+00  0.10566000000E+00 0. -1.
     999900   -1    0    0    0    0 -0.00000000000E+00 -0.00000000000E+00 -0.74505805969E-08  0.93827000000E+00  0.93827000000E+00 0.  1.
     999902    2    1    2    0    0  0.14253212643E-01 -0.13908715920E-01  0.12640273514E-01  0.10203422285E+01  0.10200695468E+01 0.  0.
     999903    2    3    3    0    0  0.73171259868E-02  0.11587414151E+00 -0.51459014868E-01  0.12848998842E+00  0.19526646185E-01 0.  0.
         14    1    1    2    0    0 -0.14253212643E-01  0.13908715920E-01 -0.12640273514E-01  0.23587771487E-01  0.00000000000E+00 0. -1.
     999901    1    3    3    0    0  0.69360866567E-02 -0.12978285743E+00  0.64099288382E-01  0.89185224009E+00  0.88000000000E+00 0. -1.
        -11    1    4    4    0    0 -0.73723789507E-03  0.53127461700E-01 -0.13922876362E-01  0.54928847736E-01  0.51100000000E-03 0.  1.
         11    1    4    4    0    0  0.80543638819E-02  0.62746679808E-01 -0.37536138507E-01  0.73561140689E-01  0.51100000000E-03 0. -1.
</event>
<event>
 8    1  0.1070112E+005  0.1043930E+01  0.7957747E-01            NaN
         13   -1    0    0    0    0  0.00000000000E+00  0.00000000000E+00  0.74505805969E-08  0.10566000000E+00  0.10566000000E+00 0. -1.
     999900   -1    0    0    0    0 -0.00000000000E+00 -0.00000000000E+00 -0.74505805969E-08  0.93827000000E+00  0.93827000000E+00 0.  1.
     999902    2    1    2    0    0  0.21075328774E-01  0.11791351024E-01  0.41127677789E-02  0.10194326471E+01  0.10191382642E+01 0.  0.
     999903    2    3    3    0    0  0.10796967672E+00 -0.64586760127E-01 -0.31469298956E-01  0.13114759876E+00  0.19505773762E-01 0.  0.
         14    1    1    2    0    0 -0.21075328774E-01 -0.11791351024E-01 -0.41127677789E-02  0.24497352933E-01  0.00000000000E+00 0. -1.
     999901    1    3    3    0    0 -0.86894347944E-01  0.76378111152E-01  0.35582066735E-01  0.88828504830E+00  0.88000000000E+00 0.  1.
        -11    1    4    4    0    0  0.55449307848E-01 -0.29666997480E-01 -0.61694138096E-02  0.63190816327E-01  0.51100000000E-03 0. -1.
         11    1    4    4    0    0  0.52520368870E-01 -0.34919762647E-01 -0.25299885146E-01  0.67956782435E-01  0.51100000000E-03 0.  1.
</event>
<event>
 8    1  0.1070112E+005  0.1043930E+01  0.7957747E-01            NaN
         13   -1    0    0    0    0  0.00000000000E+00  0.00000000000E+00  0.74505805969E-08  0.10566000000E+00  0.10566000000E+00 0.  1.
     999900   -1    0    0    0    0 -0.00000000000E+00 -0.00000000000E+00 -0.74505805969E-08  0.93827000000E+00  0.93827000000E+00 0. -1.
     999902    2    1    2    0    0 -0.87181349131E-03 -0.19371080227E-01 -0.13385596138E-01  0.10203678908E+01  0.10200958090E+01 0.  0.
     999903    2    3    3    0    0 -0.28048486360E-01  0.36547798989E-01 -0.12146609394E+00  0.13157832815E+00  0.20889836333E-01 0.  0.
         14    1    1    2    0    0  0.87181349131E-03  0.19371080227E-01  0.13385596138E-01  0.23562109241E-01  0.00000000000E+00 0.  1.
     999901    1    3    3    0    0  0.27176672869E-01 -0.55918879215E-01  0.10808049781E+00  0.88878956261E+00  0.88000000000E+00 0.  1.
        -11    1    4    4    0    0 -0.16740600563E-01  0.22878839155E-01 -0.98815626097E-01  0.10280310341E+00  0.51100000000E-03 0. -1.
         11    1    4    4    0    0 -0.11307885797E-01  0.13668959834E-01 -0.22650467848E-01  0.28775224740E-01  0.51100000000E-03 0.  1.
</event>
<event>
 8    1  0.1070112E+005  0.1043930E+01  0.7957747E-01            NaN
         13   -1    0    0    0    0  0.00000000000E+00  0.00000000000E+00  0.74505805969E-08  0.10566000000E+00  0.10566000000E+00 0.  1.
     999900   -1    0    0    0    0 -0.00000000000E+00 -0.00000000000E+00 -0.74505805969E-08  0.93827000000E+00  0.93827000000E+00 0.  1.
     999902    2    1    2    0    0  0.21003362781E-01  0.69177859732E-02 -0.70827876381E-02  0.10207101186E+01  0.10204459728E+01 0.  0.
     999903    2    3    3    0    0 -0.99491806228E-01 -0.75758107393E-01 -0.21627142864E-01  0.12854089287E+00  0.20423454374E-01 0.  0.
         14    1    1    2    0    0 -0.21003362781E-01 -0.69177859732E-02  0.70827876381E-02  0.23219881386E-01  0.00000000000E+00 0. -1.
     999901    1    3    3    0    0  0.12049516901E+00  0.82675893366E-01  0.14544355226E-01  0.89216922575E+00  0.88000000000E+00 0. -1.
        -11    1    4    4    0    0 -0.87088673748E-02 -0.13976833911E-02  0.14187754589E-02  0.89482922738E-02  0.51100000000E-03 0. -1.
         11    1    4    4    0    0 -0.90782938853E-01 -0.74360424002E-01 -0.23045918323E-01  0.11959260059E+00  0.51100000000E-03 0.  1.
</event>
<event>
 8    1  0.1070112E+005  0.1043930E+01  0.7957747E-01            NaN
         13   -1    0    0    0    0  0.00000000000E+00  0.00000000000E+00  0.74505805969E-08  0.10566000000E+00  0.10566000000E+00 0.  1.
     999900   -1    0    0    0    0 -0.00000000000E+00 -0.00000000000E+00 -0.74505805969E-08  0.93827000000E+00  0.93827000000E+00 0. -1.
     999902    2    1    2    0    0  0.24587323012E-02 -0.17307517753E-01 -0.16048892490E-01  0.10201989552E+01  0.10199229117E+01 0.  0.
     999903    2    3    3    0    0  0.42375155866E-01  0.17262592094E-01  0.11865921573E+00  0.12838356639E+00  0.17569283467E-01 0.  0.
         14    1    1    2    0    0 -0.24587323012E-02  0.17307517753E-01  0.16048892490E-01  0.23731044761E-01  0.00000000000E+00 0.  1.
     999901    1    3    3    0    0 -0.39916423564E-01 -0.34570109847E-01 -0.13470810822E+00  0.89181538885E+00  0.88000000000E+00 0. -1.
        -11    1    4    4    0    0  0.89505390103E-02 -0.13124757700E-02  0.38743363296E-01  0.39788742902E-01  0.51100000000E-03 0.  1.
         11    1    4    4    0    0  0.33424616855E-01  0.18575067864E-01  0.79915852433E-01  0.88594823490E-01  0.51100000000E-03 0. -1.
</event>
<event>
 8    1  0.1070112E+005  0.1043930E+01  0.7957747E-01            NaN
         13   -1    0    0    0    0  0.00000000000E+00  0.00000000000E+00  0.74505805969E-08  0.10566000000E+00  0.10566000000E+00 0.  1.
     999900   -1    0    0    0    0 -0.00000000000E+00 -0.00000000000E+00 -0.74505805969E-08  0.93827000000E+00  0.93827000000E+00 0.  1.
     999902    2    1    2    0    0  0.10339563701E-01 -0.17129174043E-01 -0.13029787960E-01  0.10200534308E+01  0.10197739510E+01 0.  0.
     999903    2    3    3    0    0  0.79569208720E-01  0.99910756365E-01  0.56565939391E-02  0.12941306013E+00  0.20058037370E-01 0.  0.
         14    1    1    2    0    0 -0.10339563701E-01  0.17129174043E-01  0.13029787960E-01  0.23876569167E-01  0.00000000000E+00 0.  1.
     999901    1    3    3    0    0 -0.69229645020E-01 -0.11703993041E+00 -0.18686381900E-01  0.89064037070E+00  0.88000000000E+00 0.  1.
        -11    1    4    4    0    0  0.47032463711E-01  0.44493926441E-01  0.70877257049E-02  0.65132627074E-01  0.51100000000E-03 0.  1.
         11    1    4    4    0    0  0.32536745009E-01  0.55416829924E-01 -0.14311317658E-02  0.64280433055E-01  0.51100000000E-03 0. -1.
</event>
<event>
 8    1  0.1070112E+005  0.1043930E+01  0.7957747E-01            NaN
         13   -1    0    0    0    0  0.00000000000E+00  0.00000000000E+00  0.74505805969E-08  0.10566000000E+00  0.10566000000E+00 0.  1.
     999900   -1    0    0    0    0 -0.00000000000E+00 -0.00000000000E+00 -0.74505805969E-08  0.93827000000E+00  0.93827000000E+00 0. -1.
     999902    2    1    2    0    0 -0.13913883440E-02  0.24159858137E-01  0.11957478058E-02  0.10197005857E+01  0.10194126838E+01 0.  0.
     999903    2    3    3    0    0 -0.94598620576E-01  0.85195723447E-01  0.29585017260E-01  0.13222161936E+00  0.20001826701E-01 0.  0.
         14    1    1    2    0    0  0.13913883440E-02 -0.24159858137E-01 -0.11957478058E-02  0.24229414346E-01  0.00000000000E+00 0.  1.
     999901    1    3    3    0    0  0.93207232232E-01 -0.61035865310E-01 -0.28389269454E-01  0.88747896629E+00  0.88000000000E+00 0. -1.
        -11    1    4    4    0    0 -0.76809160286E-01  0.63470425956E-01  0.30242745997E-01  0.10412985586E+00  0.51100000000E-03 0. -1.
         11    1    4    4    0    0 -0.17789460290E-01  0.21725297491E-01 -0.65772873679E-03  0.28091763501E-01  0.51100000000E-03 0.  1.
</event>
<event>
 8    1  0.1070112E+005  0.1043930E+01  0.7957747E-01            NaN
         13   -1    0    0    0    0  0.00000000000E+00  0.00000000000E+00  0.74505805969E-08  0.10566000000E+00  0.10566000000E+00 0.  1.
     999900   -1    0    0    0    0 -0.00000000000E+00 -0.00000000000E+00 -0.74505805969E-08  0.93827000000E+00  0.93827000000E+00 0. -1.
     999902    2    1    2    0    0  0.10133212276E-01 -0.86497321127E-02 -0.19349837545E-01  0.10204371060E+01  0.10201666389E+01 0.  0.
     999903    2    3    3    0    0  0.19970295579E-01 -0.12605682271E+00 -0.29589045564E-01  0.13252605496E+00  0.19962674418E-01 0.  0.
         14    1    1    2    0    0 -0.10133212276E-01  0.86497321127E-02  0.19349837545E-01  0.23492894025E-01  0.00000000000E+00 0.  1.
     999901    1    3    3    0    0 -0.98370833024E-02  0.11740709059E+00  0.10239208019E-01  0.88791105101E+00  0.88000000000E+00 0.  1.
        -11    1    4    4    0    0 -0.11618390512E-02 -0.15940488343E-01  0.17909672363E-02  0.16090920521E-01  0.51100000000E-03 0. -1.
         11    1    4    4    0    0  0.21132134630E-01 -0.11011633436E+00 -0.31380012800E-01  0.11643513444E+00  0.51100000000E-03 0.  1.
</event>
<event>
 8    1  0.1070112E+005  0.1043930E+01  0.7957747E-01            NaN
         13   -1    0    0    0    0  0.00000000000E+00  0.00000000000E+00  0.74505805969E-08  0.10566000000E+00  0.10566000000E+00 0. -1.
     999900   -1    0    0    0    0 -0.00000000000E+00 -0.00000000000E+00 -0.74505805969E-08  0.93827000000E+00  0.93827000000E+00 0.  1.
     999902    2    1    2    0    0  0.12302225772E-01  0.14539898981E-01  0.15125918696E-01  0.10196082641E+01  0.10193181375E+01 0.  0.
     999903    2    3    3    0    0  0.11590890917E+00 -0.54268037673E-01 -0.14549865842E-01  0.13036727922E+00  0.20100590942E-01 0.  0.
         14    1    1    2    0    0 -0.12302225772E-01 -0.14539898981E-01 -0.15125918696E-01  0.24321735911E-01  0.00000000000E+00 0.  1.
     999901    1    3    3    0    0 -0.10360668340E+00  0.68807936654E-01  0.29675784537E-01  0.88924098487E+00  0.88000000000E+00 0. -1.
        -11    1    4    4    0    0  0.92797207252E-01 -0.40972884865E-01 -0.35027409482E-02  0.10150186837E+00  0.51100000000E-03 0. -1.
         11    1    4    4    0    0  0.23111701918E-01 -0.13295152808E-01 -0.11047124894E-01  0.28865410843E-01  0.51100000000E-03 0.  1.
</event>
<event>
 8    1  0.1070112E+005  0.1043930E+01  0.7957747E-01            NaN
         13   -1    0    0    0    0  0.00000000000E+00  0.00000000000E+00  0.74505805969E-08  0.10566000000E+00  0.10566000000E+00 0. -1.
     999900   -1    0    0    0    0 -0.00000000000E+00 -0.00000000000E+00 -0.74505805969E-08  0.93827000000E+00  0.93827000000E+00 0.  1.
     999902    2    1    2    0    0  0.56399164628E-02  0.16369632045E-01 -0.15763921454E-01  0.10205147330E+01  0.10202460710E+01 0.  0.
     999903    2    3    3    0    0  0.93334442583E-01  0.14029892234E-01 -0.90754424187E-01  0.13297916759E+00  0.23215026497E-01 0.  0.
         14    1    1    2    0    0 -0.56399164628E-02 -0.16369632045E-01  0.15763921454E-01  0.23415267041E-01  0.00000000000E+00 0. -1.
     999901    1    3    3    0    0 -0.87694526120E-01  0.23397398110E-02  0.74990502733E-01  0.88753556537E+00  0.88000000000E+00 0. -1.
        -11    1    4    4    0    0  0.63991555912E-01 -0.97377696187E-03 -0.64212137530E-01  0.90660505165E-01  0.51100000000E-03 0. -1.
         11    1    4    4    0    0  0.29342886671E-01  0.15003669196E-01 -0.26542286657E-01  0.42318662426E-01  0.51100000000E-03 0.  1.
</event>
<event>
 8    1  0.1070112E+005  0.1043930E+01  0.7957747E-01            NaN
         13   -1    0    0    0    0  0.00000000000E+00  0.00000000000E+00  0.74505805969E-08  0.10566000000E+00  0.10566000000E+00 0.  1.
     999900   -1    0    0    0    0 -0.00000000000E+00 -0.00000000000E+00 -0.74505805969E-08  0.93827000000E+00  0.93827000000E+00 0.  1.
     999902    2    1    2    0    0 -0.14550877088E-01 -0.74883885266E-02  0.17500427445E-01  0.10199702640E+01  0.10196888107E+01 0.  0.
     999903    2    3    3    0    0  0.68842066357E-01 -0.79852428861E-01 -0.71446604592E-01  0.12862156018E+00  0.17979097333E-01 0.  0.
         14    1    1    2    0    0  0.14550877088E-01  0.74883885266E-02 -0.17500427445E-01  0.23959735965E-01  0.00000000000E+00 0.  1.
     999901    1    3    3    0    0 -0.83392943445E-01  0.72364040334E-01  0.88947032037E-01  0.89134870385E+00  0.88000000000E+00 0. -1.
        -11    1    4    4    0    0  0.38993116159E-01 -0.57199815484E-01 -0.42110329523E-01  0.81029765967E-01  0.51100000000E-03 0.  1.
         11    1    4    4    0    0  0.29848950198E-01 -0.22652613377E-01 -0.29336275070E-01  0.47591794216E-01  0.51100000000E-03 0. -1.
</event>
<event>
 8    1  0.1070112E+005  0.1043930E+01  0.7957747E-01            NaN
         13   -1    0    0    0    0  0.00000000000E+00  0.00000000000E+00  0.74505805969E-08  0.10566000000E+00  0.10566000000E+00 0.  1.
     999900   -1    0    0    0    0 -0.00000000000E+00 -0.00000000000E+00 -0.74505805969E-08  0.93827000000E+00  0.93827000000E+00 0.  1.
     999902    2    1    2    0    0  0.80562460944E-02  0.22412800079E-01 -0.20792141337E-03  0.10201123607E+01  0.10198342751E+01 0.  0.
     999903    2    3    3    0    0  0.45550264906E-01 -0.61044524457E-03 -0.12085804386E+00  0.13079108959E+00  0.20602016269E-01 0.  0.
         14    1    1    2    0    0 -0.80562460944E-02 -0.22412800079E-01  0.20792141337E-03  0.23817639258E-01  0.00000000000E+00 0. -1.
     999901    1    3    3    0    0 -0.37494018812E-01  0.23023245323E-01  0.12065012245E+00  0.88932127115E+00  0.88000000000E+00 0. -1.
        -11    1    4    4    0    0  0.16720942594E-01 -0.89711600597E-03 -0.21058999218E-01  0.26909799468E-01  0.51100000000E-03 0. -1.
         11    1    4    4    0    0  0.28829322312E-01  0.28667076140E-03 -0.99799044644E-01  0.10388129012E+00  0.51100000000E-03 0.  1.
</event>
<event>
 8    1  0.1070112E+005  0.1043930E+01  0.7957747E-01            NaN
         13   -1    0    0    0    0  0.00000000000E+00  0.00000000000E+00  0.74505805969E-08  0.10566000000E+00  0.10566000000E+00 0.  1.
     999900   -1    0    0    0    0 -0.00000000000E+00 -0.00000000000E+00 -0.74505805969E-08  0.93827000000E+00  0.93827000000E+00 0. -1.
     999902    2    1    2    0    0  0.60118014362E-02  0.21025756726E-01 -0.96063954666E-02  0.10200447109E+01  0.10197650245E+01 0.  0.
     999903    2    3    3    0    0 -0.50276495363E-01  0.73683469589E-01  0.94032546723E-01  0.13061667140E+00  0.16174527118E-01 0.  0.
         14    1    1    2    0    0 -0.60118014362E-02 -0.21025756726E-01  0.96063954666E-02  0.23885289118E-01  0.00000000000E+00 0.  1.
     999901    1    3    3    0    0  0.56288296799E-01 -0.52657712863E-01 -0.10363894219E+00  0.88942803948E+00  0.88000000000E+00 0. -1.
        -11    1    4    4    0    0 -0.25734472368E-01  0.32487998501E-01  0.54482566422E-01  0.68456878979E-01  0.51100000000E-03 0.  1.
         11    1    4    4    0    0 -0.24542022994E-01  0.41195471088E-01  0.39549980301E-01  0.62159792420E-01  0.51100000000E-03 0. -1.
</event>
<event>
 8    1  0.1070112E+005  0.1043930E+01  0.7957747E-01            NaN
         13   -1    0    0    0    0  0.00000000000E+00  0.00000000000E+00  0.74505805969E-08  0.10566000000E+00  0.10566000000E+00 0. -1.
     999900   -1    0    0    0    0 -0.00000000000E+00 -0.00000000000E+00 -0.74505805969E-08  0.93827000000E+00  0.93827000000E+00 0.  1.
     999902    2    1    2    0    0  0.15243896119E-01  0.21920985362E-01 -0.86439109443E-02  0.10158653752E+01  0.10154776400E+01 0.  0.
     999903    2    3    3    0    0 -0.92696372385E-01  0.82325765349E-01 -0.20579610528E-01  0.12713465112E+00  0.19223684699E-01 0.  0.
         14    1    1    2    0    0 -0.15243896119E-01 -0.21920985362E-01  0.86439109443E-02  0.28064624789E-01  0.00000000000E+00 0. -1.
     999901    1    3    3    0    0  0.10794026850E+00 -0.60404779988E-01  0.11935699584E-01  0.88873072409E+00  0.88000000000E+00 0.  1.
        -11    1    4    4    0    0 -0.59684908703E-01  0.53098927339E-01 -0.38702349539E-02  0.79981399406E-01  0.51100000000E-03 0. -1.
         11    1    4    4    0    0 -0.33011463683E-01  0.29226838011E-01 -0.16709375574E-01  0.47153251719E-01  0.51100000000E-03 0.  1.
</event>
<event>
 8    1  0.1070112E+005  0.1043930E+01  0.7957747E-01            NaN
         13   -1    0    0    0    0  0.00000000000E+00  0.00000000000E+00  0.74505805969E-08  0.10566000000E+00  0.10566000000E+00 0.  1.
     999900   -1    0    0    0    0 -0.00000000000E+00 -0.00000000000E+00 -0.74505805969E-08  0.93827000000E+00  0.93827000000E+00 0. -1.
     999902    2    1    2    0    0 -0.15615715574E-01 -0.66454217090E-02  0.86912491695E-02  0.10248630124E+01  0.10246856319E+01 0.  0.
     999903    2    3    3    0    0 -0.63699097438E-01  0.92415970956E-01 -0.71210025658E-01  0.13440841795E+00  0.19911513226E-01 0.  0.
         14    1    1    2    0    0  0.15615715574E-01  0.66454217090E-02 -0.86912491695E-02  0.19066987562E-01  0.00000000000E+00 0. -1.
     999901    1    3    3    0    0  0.48083381864E-01 -0.99061392665E-01  0.79901274827E-01  0.89045459449E+00  0.88000000000E+00 0.  1.
        -11    1    4    4    0    0 -0.28488796403E-01  0.58640655639E-01 -0.41318791619E-01  0.77187056403E-01  0.51100000000E-03 0.  1.
         11    1    4    4    0    0 -0.35210301035E-01  0.33775315318E-01 -0.29891234039E-01  0.57221361546E-01  0.51100000000E-03 0. -1.
</event>
<event>
 8    1  0.1070112E+005  0.1043930E+01  0.7957747E-01            NaN
         13   -1    0    0    0    0  0.00000000000E+00  0.00000000000E+00  0.74505805969E-08  0.10566000000E+00  0.10566000000E+00 0. -1.
     999900   -1    0    0    0    0 -0.00000000000E+00 -0.00000000000E+00 -0.74505805969E-08  0.93827000000E+00  0.93827000000E+00 0.  1.
     999902    2    1    2    0    0 -0.27793325669E-02  0.23413200258E-01 -0.25684605162E-02  0.10202129254E+01  0.10199372106E+01 0.  0.
     999903    2    3    3    0    0  0.59954738672E-01  0.92069103965E-01  0.70708369477E-01  0.13228348533E+00  0.20687106709E-01 0.  0.
         14    1    1    2    0    0  0.27793325669E-02 -0.23413200258E-01  0.25684605162E-02  0.23717074551E-01  0.00000000000E+00 0. -1.
     999901    1    3    3    0    0 -0.62734071239E-01 -0.68655903707E-01 -0.73276829993E-01  0.88792944011E+00  0.88000000000E+00 0.  1.
        -11    1    4    4    0    0  0.22304546507E-01  0.36731936918E-01  0.39737691631E-01  0.58532668159E-01  0.51100000000E-03 0. -1.
         11    1    4    4    0    0  0.37650192165E-01  0.55337167047E-01  0.30970677846E-01  0.73750817176E-01  0.51100000000E-03 0.  1.
</event>
<event>
 8    1  0.1070112E+005  0.1043930E+01  0.7957747E-01            NaN
         13   -1    0    0    0    0  0.00000000000E+00  0.00000000000E+00  0.74505805969E-08  0.10566000000E+00  0.10566000000E+00 0. -1.
     999900   -1    0    0    0    0 -0.00000000000E+00 -0.00000000000E+00 -0.74505805969E-08  0.93827000000E+00  0.93827000000E+00 0.  1.
     999902    2    1    2    0    0  0.93578749296E-02 -0.21167899940E-01 -0.43330889448E-02  0.10203837589E+01  0.10201120477E+01 0.  0.
     999903    2    3    3    0    0  0.32386821008E-01 -0.29096153817E-01 -0.12297366237E+00  0.13208832648E+00  0.20719845837E-01 0.  0.
         14    1    1    2    0    0 -0.93578749296E-02  0.21167899940E-01  0.43330889448E-02  0.23546241120E-01  0.00000000000E+00 0. -1.
     999901    1    3    3    0    0 -0.23028946078E-01  0.79282538769E-02  0.11864057343E+00  0.88829543240E+00  0.88000000000E+00 0. -1.
        -11    1    4    4    0    0  0.23674492936E-02  0.26415695610E-02 -0.41268855194E-02  0.54658037830E-02  0.51100000000E-03 0. -1.
         11    1    4    4    0    0  0.30019371714E-01 -0.31737723378E-01 -0.11884677685E+00  0.12662252269E+00  0.51100000000E-03 0.  1.
</event>
<event>
 8    1  0.1070112E+005  0.1043930E+01  0.7957747E-01            NaN
         13   -1    0    0    0    0  0.00000000000E+00  0.00000000000E+00  0.74505805969E-08  0.10566000000E+00  0.10566000000E+00 0. -1.
     999900   -1    0    0    0    0 -0.00000000000E+00 -0.00000000000E+00 -0.74505805969E-08  0.93827000000E+00  0.93827000000E+00 0. -1.
     999902    2    1    2    0    0  0.11047321897E-01 -0.72620681817E-02  0.22762345126E-01  0.10176069054E+01  0.10172663902E+01 0.  0.
     999903    2    3    3    0    0 -0.22795963930E-01  0.12269834622E+00 -0.10736387758E-01  0.12678860604E+00  0.19635184311E-01 0.  0.
         14    1    1    2    0    0 -0.11047321897E-01  0.72620681817E-02 -0.22762345126E-01  0.26323094632E-01  0.00000000000E+00 0.  1.
     999901    1    3    3    0    0  0.33843285826E-01 -0.12996041440E+00  0.33498732884E-01  0.89081829933E+00  0.88000000000E+00 0.  1.
        -11    1    4    4    0    0 -0.91863988915E-02  0.43402220680E-01 -0.13215890236E-01  0.46293234498E-01  0.51100000000E-03 0.  1.
         11    1    4    4    0    0 -0.13609565038E-01  0.79296125542E-01  0.24795024784E-02  0.80495371545E-01  0.51100000000E-03 0. -1.
</event>
<event>
 8    1  0.1070112E+005  0.1043930E+01  0.7957747E-01            NaN
         13   -1    0    0    0    0  0.00000000000E+00  0.00000000000E+00  0.74505805969E-08  0.10566000000E+00  0.10566000000E+00 0.  1.
     999900   -1    0    0    0    0 -0.00000000000E+00 -0.00000000000E+00 -0.74505805969E-08  0.93827000000E+00  0.93827000000E+00 0. -1.
     999902    2    1    2    0    0  0.12243186050E-01  0.51913422468E-02  0.17258802936E-01  0.10221421153E+01  0.10219098747E+01 0.  0.
     999903    2    3    3    0    0  0.10444005911E+00 -0.78385053394E-01  0.11920061650E-01  0.13337117777E+00  0.24368845845E-01 0.  0.
         14    1    1    2    0    0 -0.12243186050E-01 -0.51913422468E-02 -0.17258802936E-01  0.21787884655E-01  0.00000000000E+00 0.  1.
     999901    1    3    3    0    0 -0.92196873064E-01  0.83576395641E-01  0.53387412862E-02  0.88877093757E+00  0.88000000000E+00 0. -1.
        -11    1    4    4    0    0  0.59845780238E-01 -0.58852448645E-01  0.38950902928E-02  0.84027144264E-01  0.51100000000E-03 0.  1.
         11    1    4    4    0    0  0.44594278876E-01 -0.19532604749E-01  0.80249713568E-02  0.49344033510E-01  0.51100000000E-03 0. -1.
</event>
<event>
 8    1  0.1070112E+005  0.1043930E+01  0.7957747E-01            NaN
         13   -1    0    0    0    0  0.00000000000E+00  0.00000000000E+00  0.74505805969E-08  0.10566000000E+00  0.10566000000E+00 0.  1.
     999900   -1    0    0    0    0 -0.00000000000E+00 -0.00000000000E+00 -0.74505805969E-08  0.93827000000E+00  0.93827000000E+00 0.  1.
     999902    2    1    2    0    0  0.18369475275E-01  0.14145782601E-01  0.24756037776E-02  0.10206132806E+01  0.10203469014E+01 0.  0.
     999903    2    3    3    0    0 -0.10668599976E-01  0.80781927415E-01 -0.10119888837E+00  0.13155086106E+00  0.20612501430E-01 0.  0.
         14    1    1    2    0    0 -0.18369475275E-01 -0.14145782601E-01 -0.24756037776E-02  0.23316719352E-01  0.00000000000E+00 0. -1.
     999901    1    3    3    0    0  0.29038075252E-01 -0.66636144814E-01  0.10367449215E+00  0.88906241959E+00  0.88000000000E+00 0. -1.
        -11    1    4    4    0    0  0.29343923935E-02  0.50473929771E-01 -0.55909792822E-01  0.75381657581E-01  0.51100000000E-03 0. -1.
         11    1    4    4    0    0 -0.13602992370E-01  0.30307997644E-01 -0.45289095546E-01  0.56169203475E-01  0.51100000000E-03 0.  1.
</event>
<event>
 8    1  0.1070112E+005  0.1043930E+01  0.7957747E-01            NaN
         13   -1    0    0    0    0  0.00000000000E+00  0.00000000000E+00  0.74505805969E-08  0.10566000000E+00  0.10566000000E+00 0. -1.
     999900   -1    0    0    0    0 -0.00000000000E+00 -0.00000000000E+00 -0.74505805969E-08  0.93827000000E+00  0.93827000000E+00 0. -1.
     999902    2    1    2    0    0  0.87553181458E-02 -0.58363535714E-02  0.20931432373E-01  0.10205025913E+01  0.10202336474E+01 0.  0.
     999903    2    3    3    0    0 -0.36274070494E-01 -0.11560598487E+00 -0.42836338385E-01  0.13025355510E+00  0.21224627271E-01 0.  0.
         14    1    1    2    0    0 -0.87553181458E-02  0.58363535714E-02 -0.20931432373E-01  0.23427408735E-01  0.00000000000E+00 0.  1.
     999901    1    3    3    0    0  0.45029388640E-01  0.10976963130E+00  0.63767770757E-01  0.89024903616E+00  0.88000000000E+00 0.  1.
        -11    1    4    4    0    0 -0.18670277070E-01 -0.85643885482E-01 -0.24799683905E-01  0.91097419333E-01  0.51100000000E-03 0.  1.
         11    1    4    4    0    0 -0.17603793424E-01 -0.29962099390E-01 -0.18036654480E-01  0.39156135772E-01  0.51100000000E-03 0. -1.
</event>
<event>
 8    1  0.1070112E+005  0.1043930E+01  0.7957747E-01            NaN
         13   -1    0    0    0    0  0.00000000000E+00  0.00000000000E+00  0.74505805969E-08  0.10566000000E+00  0.10566000000E+00 0. -1.
     999900   -1    0    0    0    0 -0.00000000000E+00 -0.00000000000E+00 -0.74505805969E-08  0.93827000000E+00  0.93827000000E+00 0.  1.
     999902    2    1    2    0    0  0.22419942772E-01 -0.54128878640E-02  0.93505778525E-02  0.10190425233E+01  0.10187385719E+01 0.  0.
     999903    2    3    3    0    0 -0.70614957380E-01  0.23471866309E-01 -0.10079570682E+00  0.12684185885E+00  0.19790955737E-01 0.  0.
         14    1    1    2    0    0 -0.22419942772E-01  0.54128878640E-02 -0.93505778525E-02  0.24887476672E-01  0.00000000000E+00 0.  1.
     999901    1    3    3    0    0  0.93034900152E-01 -0.28884754173E-01  0.11014628467E+00  0.89220066448E+00  0.88000000000E+00 0. -1.
        -11    1    4    4    0    0 -0.14300776885E-01  0.12853236020E-01 -0.19629742906E-01  0.27482827788E-01  0.51100000000E-03 0.  1.
         11    1    4    4    0    0 -0.56314180496E-01  0.10618630289E-01 -0.81165963914E-01  0.99359031060E-01  0.51100000000E-03 0. -1.
</event>
<event>
 8    1  0.1070112E+005  0.1043930E+01  0.7957747E-01            NaN
         13   -1    0    0    0    0  0.00000000000E+00  0.00000000000E+00  0.74505805969E-08  0.10566000000E+00  0.10566000000E+00 0. -1.
     999900   -1    0    0    0    0 -0.00000000000E+00 -0.00000000000E+00 -0.74505805969E-08  0.93827000000E+00  0.93827000000E+00 0.  1.
     999902    2    1    2    0    0 -0.34262772173E-03  0.23030607301E-01  0.49488401835E-02  0.10203711952E+01  0.10200991906E+01 0.  0.
     999903    2    3    3    0    0 -0.61421786678E-01  0.11078520979E+00  0.37424858434E-01  0.13330511776E+00  0.17989880625E-01 0.  0.
         14    1    1    2    0    0  0.34262772173E-03 -0.23030607301E-01 -0.49488401835E-02  0.23558804841E-01  0.00000000000E+00 0.  1.
     999901    1    3    3    0    0  0.61079158957E-01 -0.87754602486E-01 -0.32476018251E-01  0.88706607740E+00  0.88000000000E+00 0.  1.
        -11    1    4    4    0    0 -0.12716622936E-01  0.35944400805E-01  0.16750627922E-01  0.41648014417E-01  0.51100000000E-03 0. -1.
         11    1    4    4    0    0 -0.48705163742E-01  0.74840808982E-01  0.20674230512E-01  0.91657103339E-01  0.51100000000E-03 0.  1.
</event>
<event>
 8    1  0.1128130E+005  0.1043930E+01  0.7957747E-01            NaN
         13   -1    0    0    0    0  0.00000000000E+00  0.00000000000E+00  0.74505805969E-08  0.10566000000E+00  0.10566000000E+00 0. -1.
     999900   -1    0    0    0    0 -0.00000000000E+00 -0.00000000000E+00 -0.74505805969E-08  0.93827000000E+00  0.93827000000E+00 0. -1.
     999902    2    1    2    0    0 -0.35295135235E-01  0.21463723438E-02  0.89748649847E-02  0.10074484747E+01  0.10067877271E+01 0.  0.
     999903    2    3    3    0    0 -0.99596368706E-01 -0.66144945699E-01 -0.15016671647E-01  0.12213838973E+00  0.19942299718E-01 0.  0.
         14    1    1    2    0    0  0.35295135235E-01 -0.21463723438E-02 -0.89748649847E-02  0.36481525283E-01  0.00000000000E+00 0. -1.
     999901    1    3    3    0    0  0.64301233471E-01  0.68291318043E-01  0.23991536631E-01  0.88531008498E+00  0.88000000000E+00 0.  1.
        -11    1    4    4    0    0 -0.53802153920E-01 -0.24199720610E-01 -0.99463100371E-02  0.59828826233E-01  0.51100000000E-03 0. -1.
         11    1    4    4    0    0 -0.45794214786E-01 -0.41945225089E-01 -0.50703616095E-02  0.62309563499E-01  0.51100000000E-03 0.  1.
</event>
<event>
 8    1  0.1070112E+005  0.1043930E+01  0.7957747E-01            NaN
         13   -1    0    0    0    0  0.00000000000E+00  0.00000000000E+00  0.74505805969E-08  0.10566000000E+00  0.10566000000E+00 0.  1.
     999900   -1    0    0    0    0 -0.00000000000E+00 -0.00000000000E+00 -0.74505805969E-08  0.93827000000E+00  0.93827000000E+00 0. -1.
     999902    2    1    2    0    0  0.92916750435E-02  0.22957337066E-01 -0.95698348127E-04  0.10191634155E+01  0.10188624459E+01 0.  0.
     999903    2    3    3    0    0  0.29511625299E-01  0.12433993901E+00  0.29600810961E-01  0.13261439765E+00  0.19468281717E-01 0.  0.
         14    1    1    2    0    0 -0.92916750435E-02 -0.22957337066E-01  0.95698348127E-04  0.24766584513E-01  0.00000000000E+00 0.  1.
     999901    1    3    3    0    0 -0.20219950256E-01 -0.10138260195E+00 -0.29696509309E-01  0.88654901784E+00  0.88000000000E+00 0. -1.
        -11    1    4    4    0    0  0.16153935786E-01  0.10125185939E+00  0.21896620897E-01  0.10484565704E+00  0.51100000000E-03 0. -1.
         11    1    4    4    0    0  0.13357689513E-01  0.23088079619E-01  0.77041900646E-02  0.27768740612E-01  0.51100000000E-03 0.  1.
</event>
<event>
 8    1  0.1070112E+005  0.1043930E+01  0.7957747E-01            NaN
         13   -1    0    0    0    0  0.00000000000E+00  0.00000000000E+00  0.74505805969E-08  0.10566000000E+00  0.10566000000E+00 0.  1.
     999900   -1    0    0    0    0 -0.00000000000E+00 -0.00000000000E+00 -0.74505805969E-08  0.93827000000E+00  0.93827000000E+00 0.  1.
     999902    2    1    2    0    0 -0.87741089112E-02 -0.29766397839E-02 -0.21014940864E-01  0.10209632172E+01  0.10207048632E+01 0.  0.
     999903    2    3    3    0    0 -0.80271857029E-01  0.47357851437E-01 -0.94310677958E-01  0.13359759130E+00  0.16354672139E-01 0.  0.
         14    1    1    2    0    0  0.87741089112E-02  0.29766397839E-02  0.21014940864E-01  0.22966782777E-01  0.00000000000E+00 0.  1.
     999901    1    3    3    0    0  0.71497748118E-01 -0.50334491221E-01  0.73295737094E-01  0.88736562592E+00  0.88000000000E+00 0. -1.
        -11    1    4    4    0    0 -0.27716273925E-01  0.76625045952E-02 -0.28723418406E-01  0.40647284078E-01  0.51100000000E-03 0. -1.
         11    1    4    4    0    0 -0.52555583104E-01  0.39695346842E-01 -0.65587259552E-01  0.92950307223E-01  0.51100000000E-03 0.  1.
</event>
<event>
 8    1  0.1070112E+005  0.1043930E+01  0.7957747E-01            NaN
         13   -1    0    0    0    0  0.00000000000E+00  0.00000000000E+00  0.74505805969E-08  0.10566000000E+00  0.10566000000E+00 0.  1.
     999900   -1    0    0    0    0 -0.00000000000E+00 -0.00000000000E+00 -0.74505805969E-08  0.93827000000E+00  0.93827000000E+00 0.  1.
     999902    2    1    2    0    0  0.92403866685E-03 -0.17934746047E-01 -0.13511281912E-01  0.10214563776E+01  0.10212091205E+01 0.  0.
     999903    2    3    3    0    0 -0.10837207304E+00 -0.33847283302E-01 -0.66221640134E-01  0.13298734006E+00  0.20252955131E-01 0.  0.
         14    1    1    2    0    0 -0.92403866685E-03  0.17934746047E-01  0.13511281912E-01  0.22473622364E-01  0.00000000000E+00 0.  1.
     999901    1    3    3    0    0  0.10929611170E+00  0.15912537255E-01  0.52710358222E-01  0.88846903758E+00  0.88000000000E+00 0. -1.
        -11    1    4    4    0    0 -0.94007866048E-01 -0.36246032585E-01 -0.57764789593E-01  0.11613907953E+00  0.51100000000E-03 0.  1.
         11    1    4    4    0    0 -0.14364206990E-01  0.23987492824E-02 -0.84568505416E-02  0.16848260523E-01  0.51100000000E-03 0. -1.
</event>
<event>
 8    1  0.1070112E+005  0.1043930E+01  0.7957747E-01            NaN
         13   -1    0    0    0    0  0.00000000000E+00  0.00000000000E+00  0.74505805969E-08  0.10566000000E+00  0.10566000000E+00 0.  1.
     999900   -1    0    0    0    0 -0.00000000000E+00 -0.00000000000E+00 -0.74505805969E-08  0.93827000000E+00  0.93827000000E+00 0.  1.
     999902    2    1    2    0    0 -0.32648496988E-02 -0.22394594441E-01  0.50422103589E-02  0.10207437759E+01  0.10204804040E+01 0.  0.
     999903    2    3    3    0    0 -0.10941873858E+00 -0.60630402534E-01  0.38656848646E-01  0.13290337972E+00  0.22813380515E-01 0.  0.
         14    1    1    2    0    0  0.32648496988E-02  0.22394594441E-01 -0.50422103589E-02  0.23186224122E-01  0.00000000000E+00 0.  1.
     999901    1    3    3    0    0  0.10615388888E+00  0.38235808092E-01 -0.33614638287E-01  0.88784039616E+00  0.88000000000E+00 0. -1.
        -11    1    4    4    0    0 -0.19262485957E-01 -0.44472780616E-02  0.12846709348E-01  0.23582211717E-01  0.51100000000E-03 0. -1.
         11    1    4    4    0    0 -0.90156252619E-01 -0.56183124472E-01  0.25810139299E-01  0.10932116800E+00  0.51100000000E-03 0.  1.
</event>
<event>
 8    1  0.1070112E+005  0.1043930E+01  0.7957747E-01            NaN
         13   -1    0    0    0    0  0.00000000000E+00  0.00000000000E+00  0.74505805969E-08  0.10566000000E+00  0.10566000000E+00 0. -1.
     999900   -1    0    0    0    0 -0.00000000000E+00 -0.00000000000E+00 -0.74505805969E-08  0.93827000000E+00  0.93827000000E+00 0.  1.
     999902    2    1    2    0    0 -0.22300091613E-03  0.75136468432E-02 -0.22704446024E-01  0.10200135519E+01  0.10197331267E+01 0.  0.
     999903    2    3    3    0    0 -0.38645261152E-01  0.61891019534E-04 -0.12581964430E+00  0.13312881148E+00  0.19980928788E-01 0.  0.
         14    1    1    2    0    0  0.22300091613E-03 -0.75136468432E-02  0.22704446024E-01  0.23916448054E-01  0.00000000000E+00 0. -1.
     999901    1    3    3    0    0  0.38422260236E-01  0.74517558237E-02  0.10311519828E+00  0.88688474046E+00  0.88000000000E+00 0. -1.
        -11    1    4    4    0    0 -0.18151198895E-01  0.86180110998E-02 -0.75387083146E-01  0.78020571408E-01  0.51100000000E-03 0. -1.
         11    1    4    4    0    0 -0.20494062257E-01 -0.85561200802E-02 -0.50432561156E-01  0.55108240077E-01  0.51100000000E-03 0.  1.
</event>
<event>
 8    1  0.1070112E+005  0.1043930E+01  0.7957747E-01            NaN
         13   -1    0    0    0    0  0.00000000000E+00  0.00000000000E+00  0.74505805969E-08  0.10566000000E+00  0.10566000000E+00 0. -1.
     999900   -1    0    0    0    0 -0.00000000000E+00 -0.00000000000E+00 -0.74505805969E-08  0.93827000000E+00  0.93827000000E+00 0. -1.
     999902    2    1    2    0    0 -0.12335908027E-01  0.10703009575E-01 -0.17299067961E-01  0.10201395231E+01  0.10198620788E+01 0.  0.
     999903    2    3    3    0    0 -0.57118251899E-01  0.39843727396E-01 -0.11214765911E+00  0.13343162583E+00  0.19413500864E-01 0.  0.
         14    1    1    2    0    0  0.12335908027E-01 -0.10703009575E-01  0.17299067961E-01  0.23790476942E-01  0.00000000000E+00 0. -1.
     999901    1    3    3    0    0  0.44782343872E-01 -0.29140717821E-01  0.94848591149E-01  0.88670789722E+00  0.88000000000E+00 0.  1.
        -11    1    4    4    0    0 -0.42856212335E-01  0.34437190322E-01 -0.99203861349E-01  0.11342064292E+00  0.51100000000E-03 0. -1.
         11    1    4    4    0    0 -0.14262039563E-01  0.54065370744E-02 -0.12943797761E-01  0.20010982913E-01  0.51100000000E-03 0.  1.
</event>
<event>
 8    1  0.1070112E+005  0.1043930E+01  0.7957747E-01            NaN
         13   -1    0    0    0    0  0.00000000000E+00  0.00000000000E+00  0.74505805969E-08  0.10566000000E+00  0.10566000000E+00 0. -1.
     999900   -1    0    0    0    0 -0.00000000000E+00 -0.00000000000E+00 -0.74505805969E-08  0.93827000000E+00  0.93827000000E+00 0. -1.
     999902    2    1    2    0    0 -0.33131420354E-02 -0.23010046975E-01  0.25962261586E-02  0.10205381304E+01  0.10202700114E+01 0.  0.
     999903    2    3    3    0    0  0.10950388003E+00  0.29241596902E-01  0.60287955766E-01  0.12992808645E+00  0.20012478791E-01 0.  0.
         14    1    1    2    0    0  0.33131420354E-02  0.23010046975E-01 -0.25962261586E-02  0.23391869575E-01  0.00000000000E+00 0.  1.
     999901    1    3    3    0    0 -0.11281702207E+00 -0.52251643877E-01 -0.57691729608E-01  0.89061004397E+00  0.88000000000E+00 0. -1.
        -11    1    4    4    0    0  0.51133480051E-01  0.22442806013E-01  0.23439693892E-01  0.60563955407E-01  0.51100000000E-03 0.  1.
         11    1    4    4    0    0  0.58370399983E-01  0.67987908888E-02  0.36848261874E-01  0.69364131047E-01  0.51100000000E-03 0. -1.
</event>
<event>
 8    1  0.1070112E+005  0.1043930E+01  0.7957747E-01            NaN
         13   -1    0    0    0    0  0.00000000000E+00  0.00000000000E+00  0.74505805969E-08  0.10566000000E+00  0.10566000000E+00 0. -1.
     999900   -1    0    0    0    0 -0.00000000000E+00 -0.00000000000E+00 -0.74505805969E-08  0.93827000000E+00  0.93827000000E+00 0.  1.
     999902    2    1    2    0    0  0.95989874669E-02  0.14714541829E-01  0.15714891370E-01  0.10203584894E+01  0.10200861879E+01 0.  0.
     999903    2    3    3    0    0 -0.43548144135E-01  0.84648922987E-01 -0.86410409698E-01  0.13010851754E+00  0.19989657606E-01 0.  0.
         14    1    1    2    0    0 -0.95989874669E-02 -0.14714541829E-01 -0.15714891370E-01  0.23571510610E-01  0.00000000000E+00 0.  1.
     999901    1    3    3    0    0  0.53147131602E-01 -0.69934381158E-01  0.10212530107E+00  0.89024997185E+00  0.88000000000E+00 0.  1.
        -11    1    4    4    0    0 -0.23291436579E-01  0.58910177435E-01 -0.66150408855E-01  0.91591690322E-01  0.51100000000E-03 0. -1.
         11    1    4    4    0    0 -0.20256707556E-01  0.25738745552E-01 -0.20260000842E-01  0.38516827215E-01  0.51100000000E-03 0.  1.
</event>
<event>
 8    1  0.1070112E+005  0.1043930E+01  0.7957747E-01            NaN
         13   -1    0    0    0    0  0.00000000000E+00  0.00000000000E+00  0.74505805969E-08  0.10566000000E+00  0.10566000000E+00 0.  1.
     999900   -1    0    0    0    0 -0.00000000000E+00 -0.00000000000E+00 -0.74505805969E-08  0.93827000000E+00  0.93827000000E+00 0. -1.
     999902    2    1    2    0    0  0.10086302938E-01 -0.16692806361E-01 -0.16537568858E-01  0.10183590306E+01  0.10180379368E+01 0.  0.
     999903    2    3    3    0    0  0.68123211582E-01  0.10087870646E+00 -0.34583633073E-01  0.12846184340E+00  0.22116332412E-01 0.  0.
         14    1    1    2    0    0 -0.10086302938E-01  0.16692806361E-01  0.16537568858E-01  0.25570969378E-01  0.00000000000E+00 0.  1.
     999901    1    3    3    0    0 -0.58036908643E-01 -0.11757151282E+00  0.18046064215E-01  0.88989718722E+00  0.88000000000E+00 0. -1.
        -11    1    4    4    0    0  0.47134752007E-01  0.82908911066E-01 -0.32463137551E-01  0.10074566393E+00  0.51100000000E-03 0. -1.
         11    1    4    4    0    0  0.20988459574E-01  0.17969795397E-01 -0.21204955223E-02  0.27716179466E-01  0.51100000000E-03 0.  1.
</event>
<event>
 8    1  0.1070112E+005  0.1043930E+01  0.7957747E-01            NaN
         13   -1    0    0    0    0  0.00000000000E+00  0.00000000000E+00  0.74505805969E-08  0.10566000000E+00  0.10566000000E+00 0. -1.
     999900   -1    0    0    0    0 -0.00000000000E+00 -0.00000000000E+00 -0.74505805969E-08  0.93827000000E+00  0.93827000000E+00 0. -1.
     999902    2    1    2    0    0  0.28411038277E-02 -0.23379943070E-01 -0.93850677319E-02  0.10185770297E+01  0.10182614557E+01 0.  0.
     999903    2    3    3    0    0  0.35819742511E-01 -0.12544878527E+00 -0.14178290928E-02  0.13202803719E+00  0.20222281900E-01 0.  0.
         14    1    1    2    0    0 -0.28411038277E-02  0.23379943070E-01  0.93850677319E-02  0.25352970344E-01  0.00000000000E+00 0. -1.
     999901    1    3    3    0    0 -0.32978638683E-01  0.10206884220E+00 -0.79672386390E-02  0.88654899247E+00  0.88000000000E+00 0. -1.
        -11    1    4    4    0    0 -0.11970571221E-02 -0.20112457208E-01  0.24872354118E-02  0.20307420853E-01  0.51100000000E-03 0. -1.
         11    1    4    4    0    0  0.37016799633E-01 -0.10533632806E+00 -0.39050645047E-02  0.11172061633E+00  0.51100000000E-03 0.  1.
</event>
<event>
 8    1  0.1070112E+005  0.1043930E+01  0.7957747E-01            NaN
         13   -1    0    0    0    0  0.00000000000E+00  0.00000000000E+00  0.74505805969E-08  0.10566000000E+00  0.10566000000E+00 0. -1.
     999900   -1    0    0    0    0 -0.00000000000E+00 -0.00000000000E+00 -0.74505805969E-08  0.93827000000E+00  0.93827000000E+00 0.  1.
     999902    2    1    2    0    0  0.11677518104E-01 -0.37433969041E-02 -0.20207248972E-01  0.10202929452E+01  0.10200191094E+01 0.  0.
     999903    2    3    3    0    0 -0.29469511526E-01  0.12344817096E+00  0.15594683858E-01  0.12947727885E+00  0.20329007628E-01 0.  0.
         14    1    1    2    0    0 -0.11677518104E-01  0.37433969041E-02  0.20207248972E-01  0.23637054817E-01  0.00000000000E+00 0. -1.
     999901    1    3    3    0    0  0.41147029630E-01 -0.12719156787E+00 -0.35801932830E-01  0.89081566633E+00  0.88000000000E+00 0.  1.
        -11    1    4    4    0    0 -0.10184351257E-01  0.63901251505E-01 -0.10123245467E-02  0.64717670512E-01  0.51100000000E-03 0.  1.
         11    1    4    4    0    0 -0.19285160269E-01  0.59546919457E-01  0.16607008405E-01  0.64759608341E-01  0.51100000000E-03 0. -1.
</event>
<event>
 8    1  0.1070112E+005  0.1043930E+01  0.7957747E-01            NaN
         13   -1    0    0    0    0  0.00000000000E+00  0.00000000000E+00  0.74505805969E-08  0.10566000000E+00  0.10566000000E+00 0. -1.
     999900   -1    0    0    0    0 -0.00000000000E+00 -0.00000000000E+00 -0.74505805969E-08  0.93827000000E+00  0.93827000000E+00 0. -1.
     999902    2    1    2    0    0  0.21050723323E-01 -0.68571688883E-02 -0.78511759328E-02  0.10204396896E+01  0.10201692828E+01 0.  0.
     999903    2    3    3    0    0  0.11422058848E+00  0.45604573158E-01  0.45497860214E-01  0.13236369187E+00  0.17999214297E-01 0.  0.
         14    1    1    2    0    0 -0.21050723323E-01  0.68571688883E-02  0.78511759328E-02  0.23490310366E-01  0.00000000000E+00 0. -1.
     999901    1    3    3    0    0 -0.93169865156E-01 -0.52461742046E-01 -0.53349036147E-01  0.88807599777E+00  0.88000000000E+00 0. -1.
        -11    1    4    4    0    0  0.37629390124E-01  0.22804424649E-01  0.11240645919E-01  0.45416142795E-01  0.51100000000E-03 0.  1.
         11    1    4    4    0    0  0.76591198354E-01  0.22800148509E-01  0.34257214295E-01  0.86947549072E-01  0.51100000000E-03 0. -1.
</event>
<event>
 8    1  0.1070112E+005  0.1043930E+01  0.7957747E-01            NaN
         13   -1    0    0    0    0  0.00000000000E+00  0.00000000000E+00  0.74505805969E-08  0.10566000000E+00  0.10566000000E+00 0.  1.
     999900   -1    0    0    0    0 -0.00000000000E+00 -0.00000000000E+00 -0.74505805969E-08  0.93827000000E+00  0.93827000000E+00 0. -1.
     999902    2    1    2    0    0 -0.98541229878E-02 -0.12674067451E-01 -0.59304766457E-02  0.10268154951E+01  0.10266728567E+01 0.  0.
     999903    2    3    3    0    0  0.23719143907E-01 -0.34088978455E-01  0.12819931127E+00  0.13576187005E+00  0.16479250892E-01 0.  0.
         14    1    1    2    0    0  0.98541229878E-02  0.12674067451E-01  0.59304766457E-02  0.17114504926E-01  0.00000000000E+00 0.  1.
     999901    1    3    3    0    0 -0.33573266895E-01  0.21414911004E-01 -0.13412978791E+00  0.89105362502E+00  0.88000000000E+00 0. -1.
        -11    1    4    4    0    0  0.80401553562E-02 -0.18317547797E-01  0.83093289944E-01  0.85468898496E-01  0.51100000000E-03 0.  1.
         11    1    4    4    0    0  0.15678988551E-01 -0.15771430658E-01  0.45106021325E-01  0.50292971554E-01  0.51100000000E-03 0. -1.
</event>
<event>
 8    1  0.1070112E+005  0.1043930E+01  0.7957747E-01            NaN
         13   -1    0    0    0    0  0.00000000000E+00  0.00000000000E+00  0.74505805969E-08  0.10566000000E+00  0.10566000000E+00 0. -1.
     999900   -1    0    0    0    0 -0.00000000000E+00 -0.00000000000E+00 -0.74505805969E-08  0.93827000000E+00  0.93827000000E+00 0.  1.
     999902    2    1    2    0    0 -0.20572682245E-01  0.73515551457E-02  0.87372538246E-02  0.10204008644E+01  0.10201295525E+01 0.  0.
     999903    2    3    3    0    0  0.31677629015E-01  0.11928422809E+00  0.39826431840E-01  0.13122958996E+00  0.20071406415E-01 0.  0.
         14    1    1    2    0    0  0.20572682245E-01 -0.73515551457E-02 -0.87372538246E-02  0.23529135602E-01  0.00000000000E+00 0.  1.
     999901    1    3    3    0    0 -0.52250311260E-01 -0.11193267295E+00 -0.31089178015E-01  0.88917127444E+00  0.88000000000E+00 0. -1.
        -11    1    4    4    0    0  0.29630169722E-01  0.10337464999E+00  0.27515860309E-01  0.11100292297E+00  0.51100000000E-03 0. -1.
         11    1    4    4    0    0  0.20474592930E-02  0.15909578098E-01  0.12310571531E-01  0.20226666983E-01  0.51100000000E-03 0.  1.
</event>
<event>
 8    1  0.1070112E+005  0.1043930E+01  0.7957747E-01            NaN
         13   -1    0    0    0    0  0.00000000000E+00  0.00000000000E+00  0.74505805969E-08  0.10566000000E+00  0.10566000000E+00 0.  1.
     999900   -1    0    0    0    0 -0.00000000000E+00 -0.00000000000E+00 -0.74505805969E-08  0.93827000000E+00  0.93827000000E+00 0.  1.
     999902    2    1    2    0    0  0.72195466079E-02 -0.73382896437E-02 -0.21212732248E-01  0.10203513580E+01  0.10200788898E+01 0.  0.
     999903    2    3    3    0    0  0.11556194085E+00 -0.59519789731E-01  0.71436583169E-02  0.13172035011E+00  0.20051215326E-01 0.  0.
         14    1    1    2    0    0 -0.72195466079E-02  0.73382896437E-02  0.21212732248E-01  0.23578641978E-01  0.00000000000E+00 0.  1.
     999901    1    3    3    0    0 -0.10834239424E+00  0.52181500087E-01 -0.28356390565E-01  0.88863100791E+00  0.88000000000E+00 0.  1.
        -11    1    4    4    0    0  0.12909524092E-01 -0.75167309039E-02  0.73258116886E-02  0.16645891195E-01  0.51100000000E-03 0. -1.
         11    1    4    4    0    0  0.10265241676E+00 -0.52003058827E-01 -0.18215337174E-03  0.11507445891E+00  0.51100000000E-03 0.  1.
</event>
<event>
 8    1  0.1070112E+005  0.1043930E+01  0.7957747E-01            NaN
         13   -1    0    0    0    0  0.00000000000E+00  0.00000000000E+00  0.74505805969E-08  0.10566000000E+00  0.10566000000E+00 0.  1.
     999900   -1    0    0    0    0 -0.00000000000E+00 -0.00000000000E+00 -0.74505805969E-08  0.93827000000E+00  0.93827000000E+00 0.  1.
     999902    2    1    2    0    0  0.13909580802E-01  0.74062003570E-02 -0.20483387731E-01  0.10180862887E+01  0.10177582197E+01 0.  0.
     999903    2    3    3    0    0  0.87966432800E-02  0.10412989621E+00 -0.77083322960E-01  0.13096444353E+00  0.17012659233E-01 0.  0.
         14    1    1    2    0    0 -0.13909580802E-01 -0.74062003570E-02  0.20483387731E-01  0.25843711319E-01  0.00000000000E+00 0.  1.
     999901    1    3    3    0    0  0.51129375219E-02 -0.96723695851E-01  0.56599935230E-01  0.88712184515E+00  0.88000000000E+00 0. -1.
        -11    1    4    4    0    0  0.83401045984E-02  0.31066467329E-01 -0.17116496980E-01  0.36440613701E-01  0.51100000000E-03 0. -1.
         11    1    4    4    0    0  0.45653868157E-03  0.73063428879E-01 -0.59966825981E-01  0.94523829833E-01  0.51100000000E-03 0.  1.
</event>
<event>
 8    1  0.1070112E+005  0.1043930E+01  0.7957747E-01            NaN
         13   -1    0    0    0    0  0.00000000000E+00  0.00000000000E+00  0.74505805969E-08  0.10566000000E+00  0.10566000000E+00 0.  1.
     999900   -1    0    0    0    0 -0.00000000000E+00 -0.00000000000E+00 -0.74505805969E-08  0.93827000000E+00  0.93827000000E+00 0. -1.
     999902    2    1    2    0    0  0.14521929059E-01  0.11423682677E-01  0.98617344618E-02  0.10229862478E+01  0.10227718330E+01 0.  0.
     999903    2    3    3    0    0 -0.51429628506E-01  0.11718554340E+00  0.27095687452E-01  0.13403619956E+00  0.29224446020E-01 0.  0.
         14    1    1    2    0    0 -0.14521929059E-01 -0.11423682677E-01 -0.98617344618E-02  0.20943752197E-01  0.00000000000E+00 0. -1.
     999901    1    3    3    0    0  0.65951557565E-01 -0.10576186072E+00 -0.17233952990E-01  0.88895004824E+00  0.88000000000E+00 0. -1.
        -11    1    4    4    0    0 -0.53477116583E-01  0.10748470638E+00  0.19707548596E-01  0.12166105661E+00  0.51100000000E-03 0. -1.
         11    1    4    4    0    0  0.20474880773E-02  0.97008370177E-02  0.73881388560E-02  0.12375142950E-01  0.51100000000E-03 0.  1.
</event>
<event>
 8    1  0.1070112E+005  0.1043930E+01  0.7957747E-01            NaN
         13   -1    0    0    0    0  0.00000000000E+00  0.00000000000E+00  0.74505805969E-08  0.10566000000E+00  0.10566000000E+00 0. -1.
     999900   -1    0    0    0    0 -0.00000000000E+00 -0.00000000000E+00 -0.74505805969E-08  0.93827000000E+00  0.93827000000E+00 0. -1.
     999902    2    1    2    0    0 -0.13965256715E-01  0.63205248811E-02  0.17622150166E-01  0.10205736817E+01  0.10203063864E+01 0.  0.
     999903    2    3    3    0    0  0.91008567567E-01 -0.82279726744E-01  0.37612214790E-01  0.12969259473E+00  0.18787698686E-01 0.  0.
         14    1    1    2    0    0  0.13965256715E-01 -0.63205248811E-02 -0.17622150166E-01  0.23356318340E-01  0.00000000000E+00 0.  1.
     999901    1    3    3    0    0 -0.10497382428E+00  0.88600251625E-01 -0.19990064624E-01  0.89088108693E+00  0.88000000000E+00 0.  1.
        -11    1    4    4    0    0  0.42483718338E-01 -0.49361317658E-01  0.24657875269E-01  0.69639629081E-01  0.51100000000E-03 0. -1.
         11    1    4    4    0    0  0.48524849229E-01 -0.32918409086E-01  0.12954339521E-01  0.60052965646E-01  0.51100000000E-03 0.  1.
</event>
<event>
 7    1  0.1312406E+005  0.1043930E+01  0.7957747E-01            NaN
         13   -1    0    0    0    0  0.00000000000E+00  0.00000000000E+00  0.74505805969E-08  0.10566000000E+00  0.10566000000E+00 0. -1.
     999900   -1    0    0    0    0 -0.00000000000E+00 -0.00000000000E+00 -0.74505805969E-08  0.93827000000E+00  0.93827000000E+00 0.  1.
     999903    2    1    2    0    0  0.39476677675E-01  0.84056834098E-01 -0.58463312351E-01  0.11197872978E+00  0.22300618651E-01 0.  0.
         14    1    1    2    0    0  0.10886340610E-01  0.82272841037E-02 -0.38079598683E-01  0.40450666885E-01  0.00000000000E+00 0.  1.
     999901    1    1    2    0    0 -0.50363018285E-01 -0.92284118202E-01  0.96542911034E-01  0.89150060334E+00  0.88000000000E+00 0. -1.
        -11    1    3    3    0    0  0.11213235183E-01  0.50004016911E-01 -0.31404966923E-01  0.60105502402E-01  0.51100000000E-03 0. -1.
         11    1    3    3    0    0  0.28263442492E-01  0.34052817188E-01 -0.27058345427E-01  0.51873227374E-01  0.51100000000E-03 0.  1.
</event>
<event>
 8    1  0.1070112E+005  0.1043930E+01  0.7957747E-01            NaN
         13   -1    0    0    0    0  0.00000000000E+00  0.00000000000E+00  0.74505805969E-08  0.10566000000E+00  0.10566000000E+00 0.  1.
     999900   -1    0    0    0    0 -0.00000000000E+00 -0.00000000000E+00 -0.74505805969E-08  0.93827000000E+00  0.93827000000E+00 0.  1.
     999902    2    1    2    0    0 -0.99147905067E-02 -0.19458165496E-01  0.94278157441E-02  0.10201433024E+01  0.10198659472E+01 0.  0.
     999903    2    3    3    0    0 -0.46957562852E-02  0.72691741082E-01 -0.10336967096E+00  0.12815556891E+00  0.20794749842E-01 0.  0.
         14    1    1    2    0    0  0.99147905067E-02  0.19458165496E-01 -0.94278157441E-02  0.23786697647E-01  0.00000000000E+00 0. -1.
     999901    1    3    3    0    0 -0.52190342215E-02 -0.92149906578E-01  0.11279748670E+00  0.89198773344E+00  0.88000000000E+00 0. -1.
        -11    1    4    4    0    0  0.67945483869E-02  0.14173672292E-01 -0.27165112149E-01  0.31388904299E-01  0.51100000000E-03 0. -1.
         11    1    4    4    0    0 -0.11490304672E-01  0.58518068789E-01 -0.76204558809E-01  0.96766664614E-01  0.51100000000E-03 0.  1.
</event>
<event>
 8    1  0.1070112E+005  0.1043930E+01  0.7957747E-01            NaN
         13   -1    0    0    0    0  0.00000000000E+00  0.00000000000E+00  0.74505805969E-08  0.10566000000E+00  0.10566000000E+00 0. -1.
     999900   -1    0    0    0    0 -0.00000000000E+00 -0.00000000000E+00 -0.74505805969E-08  0.93827000000E+00  0.93827000000E+00 0. -1.
     999902    2    1    2    0    0  0.21986307804E-01 -0.55775431281E-02 -0.20699514304E-01  0.10132220758E+01  0.10127566333E+01 0.  0.
     999903    2    3    3    0    0 -0.96757318481E-01 -0.49604708727E-02  0.69891086588E-01  0.12063757751E+00  0.16795123459E-01 0.  0.
         14    1    1    2    0    0 -0.21986307804E-01  0.55775431281E-02  0.20699514304E-01  0.30707924232E-01  0.00000000000E+00 0. -1.
     999901    1    3    3    0    0  0.11874362629E+00 -0.61707225543E-03 -0.90590600892E-01  0.89258449826E+00  0.88000000000E+00 0. -1.
        -11    1    4    4    0    0 -0.66955758240E-01 -0.91157502260E-02  0.41727546258E-01  0.79420524434E-01  0.51100000000E-03 0. -1.
         11    1    4    4    0    0 -0.29801560241E-01  0.41552793533E-02  0.28163540330E-01  0.41217053075E-01  0.51100000000E-03 0.  1.
</event>
<event>
 8    1  0.1070112E+005  0.1043930E+01  0.7957747E-01            NaN
         13   -1    0    0    0    0  0.00000000000E+00  0.00000000000E+00  0.74505805969E-08  0.10566000000E+00  0.10566000000E+00 0.  1.
     999900   -1    0    0    0    0 -0.00000000000E+00 -0.00000000000E+00 -0.74505805969E-08  0.93827000000E+00  0.93827000000E+00 0. -1.
     999902    2    1    2    0    0 -0.16447119146E-01  0.58522268533E-05 -0.17286314451E-01  0.10200694797E+01  0.10197903799E+01 0.  0.
     999903    2    3    3    0    0 -0.69317955819E-01  0.10767415311E+00 -0.24413685197E-01  0.13190362366E+00  0.20095662813E-01 0.  0.
         14    1    1    2    0    0  0.16447119146E-01 -0.58522268533E-05  0.17286314451E-01  0.23860520316E-01  0.00000000000E+00 0.  1.
     999901    1    3    3    0    0  0.52870836673E-01 -0.10766830088E+00  0.71273707457E-02  0.88816585602E+00  0.88000000000E+00 0.  1.
        -11    1    4    4    0    0 -0.35032512011E-01  0.36840031754E-01 -0.11949596552E-01  0.52225652855E-01  0.51100000000E-03 0. -1.
         11    1    4    4    0    0 -0.34285443808E-01  0.70834121356E-01 -0.12464088645E-01  0.79677970809E-01  0.51100000000E-03 0.  1.
</event>
<event>
 8    1  0.1070112E+005  0.1043930E+01  0.7957747E-01            NaN
         13   -1    0    0    0    0  0.00000000000E+00  0.00000000000E+00  0.74505805969E-08  0.10566000000E+00  0.10566000000E+00 0. -1.
     999900   -1    0    0    0    0 -0.00000000000E+00 -0.00000000000E+00 -0.74505805969E-08  0.93827000000E+00  0.93827000000E+00 0. -1.
     999902    2    1    2    0    0  0.12495644102E-01 -0.97791040304E-02 -0.16831741049E-01  0.10207982144E+01  0.10205360920E+01 0.  0.
     999903    2    3    3    0    0  0.22861635088E-02 -0.11010074464E+00  0.68254106433E-01  0.13096212474E+00  0.19106400966E-01 0.  0.
         14    1    1    2    0    0 -0.12495644102E-01  0.97791040304E-02  0.16831741049E-01  0.23131785575E-01  0.00000000000E+00 0. -1.
     999901    1    3    3    0    0  0.10209480593E-01  0.10032164061E+00 -0.85085847482E-01  0.88983608969E+00  0.88000000000E+00 0.  1.
        -11    1    4    4    0    0  0.80234190274E-02 -0.82238947012E-01  0.56911872104E-01  0.10033365321E+00  0.51100000000E-03 0.  1.
         11    1    4    4    0    0 -0.57372555187E-02 -0.27861797624E-01  0.11342234330E-01  0.30628471531E-01  0.51100000000E-03 0. -1.
</event>
<event>
 8    1  0.1070112E+005  0.1043930E+01  0.7957747E-01            NaN
         13   -1    0    0    0    0  0.00000000000E+00  0.00000000000E+00  0.74505805969E-08  0.10566000000E+00  0.10566000000E+00 0.  1.
     999900   -1    0    0    0    0 -0.00000000000E+00 -0.00000000000E+00 -0.74505805969E-08  0.93827000000E+00  0.93827000000E+00 0.  1.
     999902    2    1    2    0    0  0.46175931218E-02 -0.13118613392E-01  0.19301978270E-01  0.10201395282E+01  0.10198620840E+01 0.  0.
     999903    2    3    3    0    0  0.11086358689E+00  0.64976970463E-01  0.26459533917E-03  0.13011168966E+00  0.20401965272E-01 0.  0.
         14    1    1    2    0    0 -0.46175931218E-02  0.13118613392E-01 -0.19301978270E-01  0.23790471805E-01  0.00000000000E+00 0. -1.
     999901    1    3    3    0    0 -0.10624599377E+00 -0.78095583856E-01  0.19037382931E-01  0.89002783853E+00  0.88000000000E+00 0. -1.
        -11    1    4    4    0    0  0.57838329248E-01  0.25094922277E-01 -0.66561987594E-02  0.63400264646E-01  0.51100000000E-03 0.  1.
         11    1    4    4    0    0  0.53025257647E-01  0.39882048187E-01  0.69207940986E-02  0.66711425019E-01  0.51100000000E-03 0. -1.
</event>
<event>
 8    1  0.1070112E+005  0.1043930E+01  0.7957747E-01            NaN
         13   -1    0    0    0    0  0.00000000000E+00  0.00000000000E+00  0.74505805969E-08  0.10566000000E+00  0.10566000000E+00 0.  1.
     999900   -1    0    0    0    0 -0.00000000000E+00 -0.00000000000E+00 -0.74505805969E-08  0.93827000000E+00  0.93827000000E+00 0. -1.
     999902    2    1    2    0    0  0.15982894799E-01 -0.17517412526E-01  0.36735385192E-02  0.10199340096E+01  0.10196516937E+01 0.  0.
     999903    2    3    3    0    0  0.10444070774E+00  0.20132317376E-01  0.75296027442E-01  0.13180560240E+00  0.19749770626E-01 0.  0.
         14    1    1    2    0    0 -0.15982894799E-01  0.17517412526E-01 -0.36735385192E-02  0.23995990353E-01  0.00000000000E+00 0. -1.
     999901    1    3    3    0    0 -0.88457812944E-01 -0.37649729902E-01 -0.71622488923E-01  0.88812840724E+00  0.88000000000E+00 0. -1.
        -11    1    4    4    0    0  0.53558104889E-01  0.80312318667E-02  0.26587254601E-01  0.60333361524E-01  0.51100000000E-03 0. -1.
         11    1    4    4    0    0  0.50882602854E-01  0.12101085509E-01  0.48708772841E-01  0.71472240880E-01  0.51100000000E-03 0.  1.
</event>
<event>
 8    1  0.1070112E+005  0.1043930E+01  0.7957747E-01            NaN
         13   -1    0    0    0    0  0.00000000000E+00  0.00000000000E+00  0.74505805969E-08  0.10566000000E+00  0.10566000000E+00 0. -1.
     999900   -1    0    0    0    0 -0.00000000000E+00 -0.00000000000E+00 -0.74505805969E-08  0.93827000000E+00  0.93827000000E+00 0. -1.
     999902    2    1    2    0    0 -0.15676616987E-02  0.16456033261E-01 -0.15220076832E-01  0.10214598124E+01  0.10212126316E+01 0.  0.
     999903    2    3    3    0    0  0.83409406547E-01  0.67503473032E-01  0.73447180592E-01  0.13146609004E+00  0.19364826885E-01 0.  0.
         14    1    1    2    0    0  0.15676616987E-02 -0.16456033261E-01  0.15220076832E-01  0.22470187642E-01  0.00000000000E+00 0. -1.
     999901    1    3    3    0    0 -0.84977068246E-01 -0.51047439771E-01 -0.88667257424E-01  0.88999372232E+00  0.88000000000E+00 0. -1.
        -11    1    4    4    0    0  0.17752290809E-01  0.15253113373E-01  0.70106519827E-02  0.24437914370E-01  0.51100000000E-03 0. -1.
         11    1    4    4    0    0  0.65657115738E-01  0.52250359659E-01  0.66436528609E-01  0.10702817567E+00  0.51100000000E-03 0.  1.
</event>
<event>
 8    1  0.1195318E+005  0.1043930E+01  0.7957747E-01            NaN
         13   -1    0    0    0    0  0.00000000000E+00  0.00000000000E+00  0.74505805969E-08  0.10566000000E+00  0.10566000000E+00 0. -1.
     999900   -1    0    0    0    0 -0.00000000000E+00 -0.00000000000E+00 -0.74505805969E-08  0.93827000000E+00  0.93827000000E+00 0. -1.
     999902    2    1    2    0    0  0.18403001390E-01 -0.26401629956E-01 -0.86457035445E-02  0.10106063640E+01  0.10100568094E+01 0.  0.
     999903    2    3    3    0    0  0.73297077601E-01 -0.97819846783E-01 -0.22892430390E-01  0.12589347810E+00  0.19593888091E-01 0.  0.
         14    1    1    2    0    0 -0.18403001390E-01  0.26401629956E-01  0.86457035445E-02  0.33323635970E-01  0.00000000000E+00 0. -1.
     999901    1    3    3    0    0 -0.54894076211E-01  0.71418216827E-01  0.14246726845E-01  0.88471288593E+00  0.88000000000E+00 0.  1.
        -11    1    4    4    0    0  0.50215079606E-01 -0.63525549655E-01 -0.58872061155E-02  0.81190947744E-01  0.51100000000E-03 0. -1.
         11    1    4    4    0    0  0.23081997995E-01 -0.34294297128E-01 -0.17005224274E-01  0.44702530360E-01  0.51100000000E-03 0.  1.
</event>
<event>
 8    1  0.1070112E+005  0.1043930E+01  0.7957747E-01            NaN
         13   -1    0    0    0    0  0.00000000000E+00  0.00000000000E+00  0.74505805969E-08  0.10566000000E+00  0.10566000000E+00 0. -1.
     999900   -1    0    0    0    0 -0.00000000000E+00 -0.00000000000E+00 -0.74505805969E-08  0.93827000000E+00  0.93827000000E+00 0. -1.
     999902    2    1    2    0    0 -0.17583145955E-01 -0.73677756778E-02 -0.13392278062E-01  0.10206318402E+01  0.10203658897E+01 0.  0.
     999903    2    3    3    0    0 -0.75003567663E-01 -0.63935779059E-01  0.84796239761E-01  0.13150978506E+00  0.19776306107E-01 0.  0.
         14    1    1    2    0    0  0.17583145955E-01  0.73677756778E-02  0.13392278062E-01  0.23298159837E-01  0.00000000000E+00 0.  1.
     999901    1    3    3    0    0  0.57420421708E-01  0.56568003381E-01 -0.98188517823E-01  0.88912205510E+00  0.88000000000E+00 0. -1.
        -11    1    4    4    0    0 -0.72755330980E-01 -0.59908943444E-01  0.74231059993E-01  0.11997054255E+00  0.51100000000E-03 0.  1.
         11    1    4    4    0    0 -0.22482366828E-02 -0.40268356156E-02  0.10565179768E-01  0.11539242514E-01  0.51100000000E-03 0. -1.
</event>
<event>
 7    1  0.1070112E+005  0.1043930E+01  0.7957747E-01            NaN
         13   -1    0    0    0    0  0.00000000000E+00  0.00000000000E+00  0.74505805969E-08  0.10566000000E+00  0.10566000000E+00 0. -1.
     999900   -1    0    0    0    0 -0.00000000000E+00 -0.00000000000E+00 -0.74505805969E-08  0.93827000000E+00  0.93827000000E+00 0. -1.
     999903    2    1    2    0    0 -0.89653910168E-01  0.57679601237E-01  0.43801323016E-01  0.11696503300E+00  0.19937478242E-01 0.  0.
         14    1    1    2    0    0  0.16187423832E-01 -0.38690199390E-01 -0.96694854844E-02  0.43040250565E-01  0.00000000000E+00 0. -1.
     999901    1    1    2    0    0  0.73466486336E-01 -0.18989401847E-01 -0.34131837532E-01  0.88392471644E+00  0.88000000000E+00 0. -1.
        -11    1    3    3    0    0 -0.50070608915E-01  0.30625260579E-01  0.34621160085E-01  0.68145860544E-01  0.51100000000E-03 0.  1.
         11    1    3    3    0    0 -0.39583301253E-01  0.27054340658E-01  0.91801629315E-02  0.48819172453E-01  0.51100000000E-03 0. -1.
</event>
<event>
 8    1  0.1070112E+005  0.1043930E+01  0.7957747E-01            NaN
         13   -1    0    0    0    0  0.00000000000E+00  0.00000000000E+00  0.74505805969E-08  0.10566000000E+00  0.10566000000E+00 0.  1.
     999900   -1    0    0    0    0 -0.00000000000E+00 -0.00000000000E+00 -0.74505805969E-08  0.93827000000E+00  0.93827000000E+00 0.  1.
     999902    2    1    2    0    0  0.24030387842E-01 -0.32819193090E-02 -0.17463581829E-04  0.10196765293E+01  0.10193880486E+01 0.  0.
     999903    2    3    3    0    0 -0.11034587872E+00  0.58707915492E-01 -0.12449237058E-01  0.12723366303E+00  0.20263001057E-01 0.  0.
         14    1    1    2    0    0 -0.24030387842E-01  0.32819193090E-02  0.17463581829E-04  0.24253470662E-01  0.00000000000E+00 0.  1.
     999901    1    3    3    0    0  0.13437626656E+00 -0.61989834801E-01  0.12431773476E-01  0.89244286631E+00  0.88000000000E+00 0. -1.
        -11    1    4    4    0    0 -0.75280103614E-01  0.37405928045E-01 -0.17581489446E-01  0.85881705532E-01  0.51100000000E-03 0.  1.
         11    1    4    4    0    0 -0.35065775110E-01  0.21301987447E-01  0.51322523885E-02  0.41351957497E-01  0.51100000000E-03 0. -1.
</event>
<event>
 8    1  0.1070112E+005  0.1043930E+01  0.7957747E-01            NaN
         13   -1    0    0    0    0  0.00000000000E+00  0.00000000000E+00  0.74505805969E-08  0.10566000000E+00  0.10566000000E+00 0. -1.
     999900   -1    0    0    0    0 -0.00000000000E+00 -0.00000000000E+00 -0.74505805969E-08  0.93827000000E+00  0.93827000000E+00 0. -1.
     999902    2    1    2    0    0 -0.23830459272E-02  0.13192249555E-01  0.19076518910E-01  0.10206141700E+01  0.10203478113E+01 0.  0.
     999903    2    3    3    0    0  0.95529382919E-01 -0.84889054428E-01  0.98927405704E-02  0.12972072646E+00  0.19939558519E-01 0.  0.
         14    1    1    2    0    0  0.23830459272E-02 -0.13192249555E-01 -0.19076518910E-01  0.23315830029E-01  0.00000000000E+00 0.  1.
     999901    1    3    3    0    0 -0.97912428846E-01  0.98081303983E-01  0.91837783394E-02  0.89089344351E+00  0.88000000000E+00 0.  1.
        -11    1    4    4    0    0  0.55921977804E-01 -0.53678257355E-01  0.15265952210E-01  0.79005906945E-01  0.51100000000E-03 0.  1.
         11    1    4    4    0    0  0.39607405114E-01 -0.31210797072E-01 -0.53732116399E-02  0.50714819512E-01  0.51100000000E-03 0. -1.
</event>
<event>
 8    1  0.1070112E+005  0.1043930E+01  0.7957747E-01            NaN
         13   -1    0    0    0    0  0.00000000000E+00  0.00000000000E+00  0.74505805969E-08  0.10566000000E+00  0.10566000000E+00 0.  1.
     999900   -1    0    0    0    0 -0.00000000000E+00 -0.00000000000E+00 -0.74505805969E-08  0.93827000000E+00  0.93827000000E+00 0.  1.
     999902    2    1    2    0    0 -0.13816682292E-02  0.54653887911E-02 -0.22391006266E-01  0.10208402481E+01  0.10205790883E+01 0.  0.
     999903    2    3    3    0    0  0.11461800406E+00  0.19810447284E-01  0.54441241798E-01  0.12979316795E+00  0.18779695500E-01 0.  0.
         14    1    1    2    0    0  0.13816682292E-02 -0.54653887911E-02  0.22391006266E-01  0.23089751912E-01  0.00000000000E+00 0.  1.
     999901    1    3    3    0    0 -0.11599967229E+00 -0.14345058493E-01 -0.76832248064E-01  0.89104708013E+00  0.88000000000E+00 0.  1.
        -11    1    4    4    0    0  0.39936636035E-01  0.13218748741E-02  0.26448135753E-01  0.47921261010E-01  0.51100000000E-03 0.  1.
         11    1    4    4    0    0  0.74681368023E-01  0.18488572410E-01  0.27993106046E-01  0.81871906944E-01  0.51100000000E-03 0. -1.
</event>
<event>
 8    1  0.1070112E+005  0.1043930E+01  0.7957747E-01            NaN
         13   -1    0    0    0    0  0.00000000000E+00  0.00000000000E+00  0.74505805969E-08  0.10566000000E+00  0.10566000000E+00 0. -1.
     999900   -1    0    0    0    0 -0.00000000000E+00 -0.00000000000E+00 -0.74505805969E-08  0.93827000000E+00  0.93827000000E+00 0. -1.
     999902    2    1    2    0    0 -0.88383048413E-03 -0.19303101418E-01 -0.14105583309E-01  0.10200059878E+01  0.10197253830E+01 0.  0.
     999903    2    3    3    0    0 -0.20583180481E-01  0.96570292779E-01  0.77851105962E-01  0.12744184970E+00  0.20763949258E-01 0.  0.
         14    1    1    2    0    0  0.88383048413E-03  0.19303101418E-01  0.14105583309E-01  0.23924012229E-01  0.00000000000E+00 0. -1.
     999901    1    3    3    0    0  0.19699349997E-01 -0.11587339420E+00 -0.91956689270E-01  0.89256413807E+00  0.88000000000E+00 0. -1.
        -11    1    4    4    0    0 -0.46757271137E-02  0.66498879770E-01  0.55385529243E-01  0.86670533662E-01  0.51100000000E-03 0. -1.
         11    1    4    4    0    0 -0.15907453367E-01  0.30071413009E-01  0.22465576719E-01  0.40771316036E-01  0.51100000000E-03 0.  1.
</event>
<event>
 8    1  0.1070112E+005  0.1043930E+01  0.7957747E-01            NaN
         13   -1    0    0    0    0  0.00000000000E+00  0.00000000000E+00  0.74505805969E-08  0.10566000000E+00  0.10566000000E+00 0.  1.
     999900   -1    0    0    0    0 -0.00000000000E+00 -0.00000000000E+00 -0.74505805969E-08  0.93827000000E+00  0.93827000000E+00 0.  1.
     999902    2    1    2    0    0  0.29347101217E-02  0.23202150463E-01 -0.86504430710E-03  0.10205269957E+01  0.10202586183E+01 0.  0.
     999903    2    3    3    0    0 -0.15888396028E-01  0.12815005806E+00 -0.28275518523E-01  0.13366753289E+00  0.19814789790E-01 0.  0.
         14    1    1    2    0    0 -0.29347101217E-02 -0.23202150463E-01  0.86504430710E-03  0.23403004322E-01  0.00000000000E+00 0. -1.
     999901    1    3    3    0    0  0.18823106150E-01 -0.10494790759E+00  0.27410474216E-01  0.88685946278E+00  0.88000000000E+00 0.  1.
        -11    1    4    4    0    0 -0.16938001276E-01  0.10714059250E+00 -0.30030414258E-01  0.11255260703E+00  0.51100000000E-03 0.  1.
         11    1    4    4    0    0  0.10496052472E-02  0.21009465555E-01  0.17548957345E-02  0.21114925861E-01  0.51100000000E-03 0. -1.
</event>
<event>
 8    1  0.1070112E+005  0.1043930E+01  0.7957747E-01            NaN
         13   -1    0    0    0    0  0.00000000000E+00  0.00000000000E+00  0.74505805969E-08  0.10566000000E+00  0.10566000000E+00 0. -1.
     999900   -1    0    0    0    0 -0.00000000000E+00 -0.00000000000E+00 -0.74505805969E-08  0.93827000000E+00  0.93827000000E+00 0. -1.
     999902    2    1    2    0    0  0.63825013550E-02  0.16200268391E-01 -0.15677163165E-01  0.10205001373E+01  0.10202311365E+01 0.  0.
     999903    2    3    3    0    0 -0.63290336660E-01  0.15981785585E-01  0.10870778854E+00  0.12902609492E+00  0.23859289518E-01 0.  0.
         14    1    1    2    0    0 -0.63825013550E-02 -0.16200268391E-01  0.15677163165E-01  0.23429862663E-01  0.00000000000E+00 0. -1.
     999901    1    3    3    0    0  0.69672838015E-01  0.21848280557E-03 -0.12438495171E+00  0.89147404242E+00  0.88000000000E+00 0. -1.
        -11    1    4    4    0    0 -0.58978492419E-01  0.10758542578E-01  0.82698705170E-01  0.10214472950E+00  0.51100000000E-03 0.  1.
         11    1    4    4    0    0 -0.43118442411E-02  0.52232430071E-02  0.26009083369E-01  0.26881365423E-01  0.51100000000E-03 0. -1.
</event>
<event>
 8    1  0.1070112E+005  0.1043930E+01  0.7957747E-01            NaN
         13   -1    0    0    0    0  0.00000000000E+00  0.00000000000E+00  0.74505805969E-08  0.10566000000E+00  0.10566000000E+00 0. -1.
     999900   -1    0    0    0    0 -0.00000000000E+00 -0.00000000000E+00 -0.74505805969E-08  0.93827000000E+00  0.93827000000E+00 0.  1.
     999902    2    1    2    0    0  0.15038130156E-01 -0.13738173995E-01 -0.11919269898E-01  0.10203301742E+01  0.10200572104E+01 0.  0.
     999903    2    3    3    0    0 -0.14157585724E-01  0.87202930971E-01 -0.93084413452E-01  0.13036990709E+00  0.22952477914E-01 0.  0.
         14    1    1    2    0    0 -0.15038130156E-01  0.13738173995E-01  0.11919269898E-01  0.23599825809E-01  0.00000000000E+00 0. -1.
     999901    1    3    3    0    0  0.29195715881E-01 -0.10094110497E+00  0.81165143554E-01  0.88996026711E+00  0.88000000000E+00 0. -1.
        -11    1    4    4    0    0 -0.90095531416E-02  0.57562581758E-01 -0.44883246405E-01  0.73548553999E-01  0.51100000000E-03 0.  1.
         11    1    4    4    0    0 -0.51480325829E-02  0.29640349212E-01 -0.48201167047E-01  0.56821353087E-01  0.51100000000E-03 0. -1.
</event>
<event>
 8    1  0.1070112E+005  0.1043930E+01  0.7957747E-01            NaN
         13   -1    0    0    0    0  0.00000000000E+00  0.00000000000E+00  0.74505805969E-08  0.10566000000E+00  0.10566000000E+00 0. -1.
     999900   -1    0    0    0    0 -0.00000000000E+00 -0.00000000000E+00 -0.74505805969E-08  0.93827000000E+00  0.93827000000E+00 0. -1.
     999902    2    1    2    0    0  0.99294043993E-02 -0.54237708582E-03 -0.21861839943E-01  0.10199127710E+01  0.10196299491E+01 0.  0.
     999903    2    3    3    0    0 -0.23589470103E-01  0.12622353168E+00 -0.75648155685E-03  0.12994729595E+00  0.19921958041E-01 0.  0.
         14    1    1    2    0    0 -0.99294043993E-02  0.54237708582E-03  0.21861839943E-01  0.24017229031E-01  0.00000000000E+00 0. -1.
     999901    1    3    3    0    0  0.33518874503E-01 -0.12676590876E+00 -0.21105358386E-01  0.88996547502E+00  0.88000000000E+00 0.  1.
        -11    1    4    4    0    0 -0.72350250776E-02  0.36779083336E-01  0.88337830487E-02  0.38514197419E-01  0.51100000000E-03 0. -1.
         11    1    4    4    0    0 -0.16354445026E-01  0.89444448340E-01 -0.95902646055E-02  0.91433098532E-01  0.51100000000E-03 0.  1.
</event>
<event>
 8    1  0.1070112E+005  0.1043930E+01  0.7957747E-01            NaN
         13   -1    0    0    0    0  0.00000000000E+00  0.00000000000E+00  0.74505805969E-08  0.10566000000E+00  0.10566000000E+00 0.  1.
     999900   -1    0    0    0    0 -0.00000000000E+00 -0.00000000000E+00 -0.74505805969E-08  0.93827000000E+00  0.93827000000E+00 0.  1.
     999902    2    1    2    0    0 -0.17346712805E-01  0.46374886904E-02 -0.15493682340E-01  0.10202135724E+01  0.10199378728E+01 0.  0.
     999903    2    3    3    0    0 -0.12949618675E+00 -0.19864784644E-01 -0.55602429727E-02  0.13270214196E+00  0.20373269914E-01 0.  0.
         14    1    1    2    0    0  0.17346712805E-01 -0.46374886904E-02  0.15493682340E-01  0.23716427618E-01  0.00000000000E+00 0.  1.
     999901    1    3    3    0    0  0.11214947395E+00  0.24502273334E-01 -0.99334393674E-02  0.88751143042E+00  0.88000000000E+00 0.  1.
        -11    1    4    4    0    0 -0.10831508900E+00 -0.87822831594E-02 -0.49092242000E-02  0.10878257491E+00  0.51100000000E-03 0.  1.
         11    1    4    4    0    0 -0.21181097758E-01 -0.11082501484E-01 -0.65101877263E-03  0.23919567050E-01  0.51100000000E-03 0. -1.
</event>
<event>
 8    1  0.1070112E+005  0.1043930E+01  0.7957747E-01            NaN
         13   -1    0    0    0    0  0.00000000000E+00  0.00000000000E+00  0.74505805969E-08  0.10566000000E+00  0.10566000000E+00 0.  1.
     999900   -1    0    0    0    0 -0.00000000000E+00 -0.00000000000E+00 -0.74505805969E-08  0.93827000000E+00  0.93827000000E+00 0.  1.
     999902    2    1    2    0    0  0.19984846171E-02  0.34555425793E-04  0.23822925963E-01  0.10200233705E+01  0.10197431781E+01 0.  0.
     999903    2    3    3    0    0 -0.24210916355E-01 -0.42844689384E-01  0.12203214361E+00  0.13313520796E+00  0.20280622455E-01 0.  0.
         14    1    1    2    0    0 -0.19984846171E-02 -0.34555425793E-04 -0.23822925963E-01  0.23906629547E-01  0.00000000000E+00 0. -1.
     999901    1    3    3    0    0  0.26209400972E-01  0.42879244809E-01 -0.98209217643E-01  0.88688816249E+00  0.88000000000E+00 0.  1.
        -11    1    4    4    0    0 -0.20797635248E-01 -0.39610732578E-01  0.11984489909E+00  0.12792424605E+00  0.51100000000E-03 0. -1.
         11    1    4    4    0    0 -0.34132811071E-02 -0.32339568055E-02  0.21872445154E-02  0.52109619176E-02  0.51100000000E-03 0.  1.
</event>
<event>
 8    1  0.1070112E+005  0.1043930E+01  0.7957747E-01            NaN
         13   -1    0    0    0    0  0.00000000000E+00  0.00000000000E+00  0.74505805969E-08  0.10566000000E+00  0.10566000000E+00 0.  1.
     999900   -1    0    0    0    0 -0.00000000000E+00 -0.00000000000E+00 -0.74505805969E-08  0.93827000000E+00  0.93827000000E+00 0. -1.
     999902    2    1    2    0    0 -0.12020274233E-01 -0.14329533522E-01  0.16567693132E-01  0.10189437842E+01  0.10186373861E+01 0.  0.
     999903    2    3    3    0    0  0.43438093464E-01  0.21144967000E-01 -0.11503144039E+00  0.12672609627E+00  0.22210213969E-01 0.  0.
         14    1    1    2    0    0  0.12020274233E-01  0.14329533522E-01 -0.16567693132E-01  0.24986215786E-01  0.00000000000E+00 0.  1.
     999901    1    3    3    0    0 -0.55458367697E-01 -0.35474500522E-01  0.13159913352E+00  0.89221768794E+00  0.88000000000E+00 0.  1.
        -11    1    4    4    0    0  0.12452372338E-01 -0.31440702387E-02 -0.39643045851E-01  0.41674680081E-01  0.51100000000E-03 0. -1.
         11    1    4    4    0    0  0.30985721126E-01  0.24289037238E-01 -0.75388394539E-01  0.85051416189E-01  0.51100000000E-03 0.  1.
</event>
<event>
 8    1  0.1070112E+005  0.1043930E+01  0.7957747E-01            NaN
         13   -1    0    0    0    0  0.00000000000E+00  0.00000000000E+00  0.74505805969E-08  0.10566000000E+00  0.10566000000E+00 0. -1.
     999900   -1    0    0    0    0 -0.00000000000E+00 -0.00000000000E+00 -0.74505805969E-08  0.93827000000E+00  0.93827000000E+00 0. -1.
     999902    2    1    2    0    0 -0.14470679609E-01  0.10671048991E-01  0.15262919416E-01  0.10203455016E+01  0.10200728965E+01 0.  0.
     999903    2    3    3    0    0  0.52937026125E-01  0.91108729863E-01 -0.73031470318E-01  0.12972217015E+00  0.19776662483E-01 0.  0.
         14    1    1    2    0    0  0.14470679609E-01 -0.10671048991E-01 -0.15262919416E-01  0.23584498384E-01  0.00000000000E+00 0.  1.
     999901    1    3    3    0    0 -0.67407705734E-01 -0.80437680872E-01  0.88294389734E-01  0.89062333147E+00  0.88000000000E+00 0.  1.
        -11    1    4    4    0    0  0.33159889172E-01  0.71938706092E-01 -0.48847773590E-01  0.93065148094E-01  0.51100000000E-03 0.  1.
         11    1    4    4    0    0  0.19777136953E-01  0.19170023771E-01 -0.24183696728E-01  0.36657022054E-01  0.51100000000E-03 0. -1.
</event>
<event>
 8    1  0.1070112E+005  0.1043930E+01  0.7957747E-01            NaN
         13   -1    0    0    0    0  0.00000000000E+00  0.00000000000E+00  0.74505805969E-08  0.10566000000E+00  0.10566000000E+00 0.  1.
     999900   -1    0    0    0    0 -0.00000000000E+00 -0.00000000000E+00 -0.74505805969E-08  0.93827000000E+00  0.93827000000E+00 0. -1.
     999902    2    1    2    0    0  0.54666336100E-02  0.20343954667E-02 -0.23660979705E-01  0.10195606584E+01  0.10192693812E+01 0.  0.
     999903    2    3    3    0    0  0.92535638582E-01  0.10957370925E-01 -0.92171218190E-01  0.13256895391E+00  0.19901901710E-01 0.  0.
         14    1    1    2    0    0 -0.54666336100E-02 -0.20343954667E-02  0.23660979705E-01  0.24369341570E-01  0.00000000000E+00 0.  1.
     999901    1    3    3    0    0 -0.87069004972E-01 -0.89229754587E-02  0.68510238485E-01  0.88699170452E+00  0.88000000000E+00 0.  1.
        -11    1    4    4    0    0  0.47798487913E-01 -0.39442292749E-02 -0.42592548698E-01  0.64145449698E-01  0.51100000000E-03 0. -1.
         11    1    4    4    0    0  0.44737150670E-01  0.14901600200E-01 -0.49578669491E-01  0.68423504208E-01  0.51100000000E-03 0.  1.
</event>
<event>
 8    1  0.1070112E+005  0.1043930E+01  0.7957747E-01            NaN
         13   -1    0    0    0    0  0.00000000000E+00  0.00000000000E+00  0.74505805969E-08  0.10566000000E+00  0.10566000000E+00 0.  1.
     999900   -1    0    0    0    0 -0.00000000000E+00 -0.00000000000E+00 -0.74505805969E-08  0.93827000000E+00  0.93827000000E+00 0. -1.
     999902    2    1    2    0    0 -0.16323668494E-02  0.17130637489E-01 -0.21292844345E-01  0.10165528456E+01  0.10161841267E+01 0.  0.
     999903    2    3    3    0    0 -0.72724641475E-01 -0.76735169285E-01  0.62967565770E-01  0.12472062041E+00  0.20326316272E-01 0.  0.
         14    1    1    2    0    0  0.16323668494E-02 -0.17130637489E-01  0.21292844345E-01  0.27377154392E-01  0.00000000000E+00 0.  1.
     999901    1    3    3    0    0  0.71092274626E-01  0.93865806773E-01 -0.84260410114E-01  0.89183222520E+00  0.88000000000E+00 0.  1.
        -11    1    4    4    0    0 -0.63902858603E-01 -0.55473292185E-01  0.48802896068E-01  0.97687487782E-01  0.51100000000E-03 0. -1.
         11    1    4    4    0    0 -0.88217828724E-02 -0.21261877099E-01  0.14164669702E-01  0.27033132626E-01  0.51100000000E-03 0.  1.
</event>
<event>
 8    1  0.1070112E+005  0.1043930E+01  0.7957747E-01            NaN
         13   -1    0    0    0    0  0.00000000000E+00  0.00000000000E+00  0.74505805969E-08  0.10566000000E+00  0.10566000000E+00 0. -1.
     999900   -1    0    0    0    0 -0.00000000000E+00 -0.00000000000E+00 -0.74505805969E-08  0.93827000000E+00  0.93827000000E+00 0. -1.
     999902    2    1    2    0    0  0.27184667166E-02  0.76895680665E-02  0.21999523778E-01  0.10204672942E+01  0.10201975298E+01 0.  0.
     999903    2    3    3    0    0 -0.11113094523E+00  0.65704274087E-01  0.13976804169E-01  0.13120256489E+00  0.18751622821E-01 0.  0.
         14    1    1    2    0    0 -0.27184667166E-02 -0.76895680665E-02 -0.21999523778E-01  0.23462705829E-01  0.00000000000E+00 0.  1.
     999901    1    3    3    0    0  0.11384941194E+00 -0.58014706020E-01  0.80227196090E-02  0.88926472928E+00  0.88000000000E+00 0.  1.
        -11    1    4    4    0    0 -0.25069347788E-01  0.14963230961E-01 -0.46666951838E-02  0.29570418398E-01  0.51100000000E-03 0.  1.
         11    1    4    4    0    0 -0.86061597440E-01  0.50741043126E-01  0.18643499353E-01  0.10163214649E+00  0.51100000000E-03 0. -1.
</event>
<event>
 8    1  0.1070112E+005  0.1043930E+01  0.7957747E-01            NaN
         13   -1    0    0    0    0  0.00000000000E+00  0.00000000000E+00  0.74505805969E-08  0.10566000000E+00  0.10566000000E+00 0. -1.
     999900   -1    0    0    0    0 -0.00000000000E+00 -0.00000000000E+00 -0.74505805969E-08  0.93827000000E+00  0.93827000000E+00 0. -1.
     999902    2    1    2    0    0 -0.15430908314E-01 -0.18470332731E-01  0.97950557623E-03  0.10198421285E+01  0.10195576205E+01 0.  0.
     999903    2    3    3    0    0  0.94084959430E-03 -0.13066564040E+00 -0.84813605991E-02  0.13251731226E+00  0.20359513553E-01 0.  0.
         14    1    1    2    0    0  0.15430908314E-01  0.18470332731E-01 -0.97950557623E-03  0.24087871507E-01  0.00000000000E+00 0. -1.
     999901    1    3    3    0    0 -0.16371757908E-01  0.11219530767E+00  0.94608661754E-02  0.88732481624E+00  0.88000000000E+00 0.  1.
        -11    1    4    4    0    0  0.96873248492E-02 -0.41752976690E-01 -0.12787846159E-02  0.42884166499E-01  0.51100000000E-03 0.  1.
         11    1    4    4    0    0 -0.87464752549E-02 -0.88912663706E-01 -0.72025759833E-02  0.89633145758E-01  0.51100000000E-03 0. -1.
</event>
<event>
 8    1  0.1070112E+005  0.1043930E+01  0.7957747E-01            NaN
         13   -1    0    0    0    0  0.00000000000E+00  0.00000000000E+00  0.74505805969E-08  0.10566000000E+00  0.10566000000E+00 0. -1.
     999900   -1    0    0    0    0 -0.00000000000E+00 -0.00000000000E+00 -0.74505805969E-08  0.93827000000E+00  0.93827000000E+00 0. -1.
     999902    2    1    2    0    0  0.13702193005E-02 -0.95578705925E-02  0.21446037159E-01  0.10204105846E+01  0.10201394994E+01 0.  0.
     999903    2    3    3    0    0 -0.77383221907E-01  0.55514461871E-01  0.90453811534E-01  0.13181698464E+00  0.11126855320E-01 0.  0.
         14    1    1    2    0    0 -0.13702193005E-02  0.95578705925E-02 -0.21446037159E-01  0.23519415405E-01  0.00000000000E+00 0.  1.
     999901    1    3    3    0    0  0.78753441208E-01 -0.65072332463E-01 -0.69007774375E-01  0.88859359995E+00  0.88000000000E+00 0. -1.
        -11    1    4    4    0    0 -0.28482088036E-01  0.25103394052E-01  0.30682860290E-01  0.48817095043E-01  0.51100000000E-03 0.  1.
         11    1    4    4    0    0 -0.48901133871E-01  0.30411067819E-01  0.59770951243E-01  0.82999889598E-01  0.51100000000E-03 0. -1.
</event>
<event>
 8    1  0.1070112E+005  0.1043930E+01  0.7957747E-01            NaN
         13   -1    0    0    0    0  0.00000000000E+00  0.00000000000E+00  0.74505805969E-08  0.10566000000E+00  0.10566000000E+00 0. -1.
     999900   -1    0    0    0    0 -0.00000000000E+00 -0.00000000000E+00 -0.74505805969E-08  0.93827000000E+00  0.93827000000E+00 0.  1.
     999902    2    1    2    0    0 -0.40088965398E-02  0.22831491272E-01  0.57389355334E-02  0.10200493881E+01  0.10197698125E+01 0.  0.
     999903    2    3    3    0    0  0.42085834204E-01 -0.27304235701E-01 -0.11695051600E+00  0.12893154129E+00  0.20716670074E-01 0.  0.
         14    1    1    2    0    0  0.40088965398E-02 -0.22831491272E-01 -0.57389355334E-02  0.23880611931E-01  0.00000000000E+00 0.  1.
     999901    1    3    3    0    0 -0.46094730744E-01  0.50135726973E-01  0.12268945154E+00  0.89111784677E+00  0.88000000000E+00 0. -1.
        -11    1    4    4    0    0  0.37631001913E-02 -0.12427074566E-01 -0.32632515065E-01  0.35124567838E-01  0.51100000000E-03 0.  1.
         11    1    4    4    0    0  0.38322734013E-01 -0.14877161135E-01 -0.84318000939E-01  0.93806973456E-01  0.51100000000E-03 0. -1.
</event>
<event>
 7    1  0.1070112E+005  0.1043930E+01  0.7957747E-01            NaN
         13   -1    0    0    0    0  0.00000000000E+00  0.00000000000E+00  0.74505805969E-08  0.10566000000E+00  0.10566000000E+00 0. -1.
     999900   -1    0    0    0    0 -0.00000000000E+00 -0.00000000000E+00 -0.74505805969E-08  0.93827000000E+00  0.93827000000E+00 0.  1.
     999903    2    1    2    0    0 -0.10999941612E+00 -0.28106699657E-01 -0.26052147536E-01  0.11791349281E+00  0.18303531990E-01 0.  0.
         14    1    1    2    0    0  0.25214810801E-01  0.33001459471E-01  0.27082542315E-02  0.41619918933E-01  0.00000000000E+00 0. -1.
     999901    1    1    2    0    0  0.84784605314E-01 -0.48947598146E-02  0.23343893305E-01  0.88439658826E+00  0.88000000000E+00 0. -1.
        -11    1    3    3    0    0 -0.80587751221E-01 -0.26623902000E-01 -0.24846218984E-01  0.88435363534E-01  0.51100000000E-03 0. -1.
         11    1    3    3    0    0 -0.29411664894E-01 -0.14827976565E-02 -0.12059285524E-02  0.29478129273E-01  0.51100000000E-03 0.  1.
</event>
<event>
 8    1  0.1070112E+005  0.1043930E+01  0.7957747E-01            NaN
         13   -1    0    0    0    0  0.00000000000E+00  0.00000000000E+00  0.74505805969E-08  0.10566000000E+00  0.10566000000E+00 0.  1.
     999900   -1    0    0    0    0 -0.00000000000E+00 -0.00000000000E+00 -0.74505805969E-08  0.93827000000E+00  0.93827000000E+00 0.  1.
     999902    2    1    2    0    0 -0.21496397671E-01  0.46180987366E-02 -0.85765481886E-02  0.10203295948E+01  0.10200566175E+01 0.  0.
     999903    2    3    3    0    0 -0.75929389720E-01 -0.99195567867E-01 -0.37958399622E-01  0.13207089303E+00  0.19921038552E-01 0.  0.
         14    1    1    2    0    0  0.21496397671E-01 -0.46180987366E-02  0.85765481886E-02  0.23600405242E-01  0.00000000000E+00 0. -1.
     999901    1    3    3    0    0  0.54432992049E-01  0.10381366660E+00  0.29381851433E-01  0.88825870173E+00  0.88000000000E+00 0.  1.
        -11    1    4    4    0    0 -0.11930466706E-01 -0.27337061327E-01 -0.13733165291E-01  0.32840705043E-01  0.51100000000E-03 0.  1.
         11    1    4    4    0    0 -0.63998923014E-01 -0.71858506540E-01 -0.24225234330E-01  0.99230187990E-01  0.51100000000E-03 0. -1.
</event>
<event>
 8    1  0.1070112E+005  0.1043930E+01  0.7957747E-01            NaN
         13   -1    0    0    0    0  0.00000000000E+00  0.00000000000E+00  0.74505805969E-08  0.10566000000E+00  0.10566000000E+00 0.  1.
     999900   -1    0    0    0    0 -0.00000000000E+00 -0.00000000000E+00 -0.74505805969E-08  0.93827000000E+00  0.93827000000E+00 0.  1.
     999902    2    1    2    0    0  0.45145023727E-04 -0.22142079025E-01  0.81441796200E-02  0.10203375995E+01  0.10200648095E+01 0.  0.
     999903    2    3    3    0    0  0.10306534576E+00  0.69831781402E-01 -0.26786995135E-01  0.12888230628E+00  0.19853528025E-01 0.  0.
         14    1    1    2    0    0 -0.45145023727E-04  0.22142079025E-01 -0.81441796200E-02  0.23592400542E-01  0.00000000000E+00 0. -1.
     999901    1    3    3    0    0 -0.10302020073E+00 -0.91973860427E-01  0.34931174755E-01  0.89145529318E+00  0.88000000000E+00 0. -1.
        -11    1    4    4    0    0  0.22195262888E-01  0.25592597928E-01 -0.66151255531E-02  0.34520019850E-01  0.51100000000E-03 0.  1.
         11    1    4    4    0    0  0.80870082867E-01  0.44239183474E-01 -0.20171869582E-01  0.94362286433E-01  0.51100000000E-03 0. -1.
</event>
<event>
 8    1  0.1070112E+005  0.1043930E+01  0.7957747E-01            NaN
         13   -1    0    0    0    0  0.00000000000E+00  0.00000000000E+00  0.74505805969E-08  0.10566000000E+00  0.10566000000E+00 0.  1.
     999900   -1    0    0    0    0 -0.00000000000E+00 -0.00000000000E+00 -0.74505805969E-08  0.93827000000E+00  0.93827000000E+00 0. -1.
     999902    2    1    2    0    0 -0.78256560725E-03 -0.23374990708E-01  0.18015527683E-02  0.10204726303E+01  0.10202029901E+01 0.  0.
     999903    2    3    3    0    0  0.93525922634E-01  0.59255078379E-01  0.62979839261E-01  0.12948183239E+00  0.23255585302E-01 0.  0.
         14    1    1    2    0    0  0.78256560725E-03  0.23374990708E-01 -0.18015527683E-02  0.23457369671E-01  0.00000000000E+00 0.  1.
     999901    1    3    3    0    0 -0.94308488242E-01 -0.82630069087E-01 -0.61178286492E-01  0.89099079794E+00  0.88000000000E+00 0.  1.
        -11    1    4    4    0    0  0.72754171315E-01  0.38184833954E-01  0.54851968759E-01  0.98793980513E-01  0.51100000000E-03 0. -1.
         11    1    4    4    0    0  0.20771751319E-01  0.21070244425E-01  0.81278705012E-02  0.30687851878E-01  0.51100000000E-03 0.  1.
</event>
<event>
 8    1  0.1070112E+005  0.1043930E+01  0.7957747E-01            NaN
         13   -1    0    0    0    0  0.00000000000E+00  0.00000000000E+00  0.74505805969E-08  0.10566000000E+00  0.10566000000E+00 0.  1.
     999900   -1    0    0    0    0 -0.00000000000E+00 -0.00000000000E+00 -0.74505805969E-08  0.93827000000E+00  0.93827000000E+00 0.  1.
     999902    2    1    2    0    0  0.12170300398E-01  0.19479723377E-01 -0.47541708193E-02  0.10204741271E+01  0.10202045217E+01 0.  0.
     999903    2    3    3    0    0 -0.14043458376E-01 -0.11035404841E+00 -0.61544925572E-01  0.12875154730E+00  0.20345720540E-01 0.  0.
         14    1    1    2    0    0 -0.12170300398E-01 -0.19479723377E-01  0.47541708193E-02  0.23455872928E-01  0.00000000000E+00 0.  1.
     999901    1    3    3    0    0  0.26213758774E-01  0.12983377179E+00  0.56790754753E-01  0.89172257977E+00  0.88000000000E+00 0. -1.
        -11    1    4    4    0    0 -0.27357836418E-02 -0.31074255533E-01 -0.28018459646E-01  0.41933150025E-01  0.51100000000E-03 0.  1.
         11    1    4    4    0    0 -0.11307674734E-01 -0.79279792882E-01 -0.33526465926E-01  0.86818397277E-01  0.51100000000E-03 0. -1.
</event>
<event>
 8    1  0.1070112E+005  0.1043930E+01  0.7957747E-01            NaN
         13   -1    0    0    0    0  0.00000000000E+00  0.00000000000E+00  0.74505805969E-08  0.10566000000E+00  0.10566000000E+00 0. -1.
     999900   -1    0    0    0    0 -0.00000000000E+00 -0.00000000000E+00 -0.74505805969E-08  0.93827000000E+00  0.93827000000E+00 0.  1.
     999902    2    1    2    0    0 -0.61173978932E-02  0.10573381137E-01  0.19869785538E-01  0.10206056067E+01  0.10203390501E+01 0.  0.
     999903    2    3    3    0    0  0.80408217577E-01  0.43144665142E-01  0.94182861185E-01  0.13264727215E+00  0.19948530880E-01 0.  0.
         14    1    1    2    0    0  0.61173978932E-02 -0.10573381137E-01 -0.19869785538E-01  0.23324393304E-01  0.00000000000E+00 0.  1.
     999901    1    3    3    0    0 -0.86525615470E-01 -0.32571284004E-01 -0.74313075646E-01  0.88795833454E+00  0.88000000000E+00 0.  1.
        -11    1    4    4    0    0  0.31024872288E-01  0.59874389020E-02  0.32318440018E-01  0.45201048785E-01  0.51100000000E-03 0. -1.
         11    1    4    4    0    0  0.49383345289E-01  0.37157226240E-01  0.61864421167E-01  0.87446223367E-01  0.51100000000E-03 0.  1.
</event>
<event>
 8    1  0.1070112E+005  0.1043930E+01  0.7957747E-01            NaN
         13   -1    0    0    0    0  0.00000000000E+00  0.00000000000E+00  0.74505805969E-08  0.10566000000E+00  0.10566000000E+00 0.  1.
     999900   -1    0    0    0    0 -0.00000000000E+00 -0.00000000000E+00 -0.74505805969E-08  0.93827000000E+00  0.93827000000E+00 0. -1.
     999902    2    1    2    0    0  0.78147386112E-02  0.17090132545E-01  0.13977130291E-01  0.10205098604E+01  0.10202410853E+01 0.  0.
     999903    2    3    3    0    0 -0.62632052085E-01  0.66475382838E-01 -0.90856830558E-01  0.13012128641E+00  0.18298498439E-01 0.  0.
         14    1    1    2    0    0 -0.78147386112E-02 -0.17090132545E-01 -0.13977130291E-01  0.23420139648E-01  0.00000000000E+00 0.  1.
     999901    1    3    3    0    0  0.70446790696E-01 -0.49385250293E-01  0.10483396085E+00  0.89038857395E+00  0.88000000000E+00 0.  1.
        -11    1    4    4    0    0 -0.32044745612E-01  0.45623200977E-01 -0.60209877612E-01  0.82059933413E-01  0.51100000000E-03 0. -1.
         11    1    4    4    0    0 -0.30587306473E-01  0.20852181861E-01 -0.30646952946E-01  0.48061352993E-01  0.51100000000E-03 0.  1.
</event>
<event>
 8    1  0.1070112E+005  0.1043930E+01  0.7957747E-01            NaN
         13   -1    0    0    0    0  0.00000000000E+00  0.00000000000E+00  0.74505805969E-08  0.10566000000E+00  0.10566000000E+00 0.  1.
     999900   -1    0    0    0    0 -0.00000000000E+00 -0.00000000000E+00 -0.74505805969E-08  0.93827000000E+00  0.93827000000E+00 0. -1.
     999902    2    1    2    0    0 -0.11785791071E-01  0.20435982455E-02 -0.20419719593E-01  0.10202647066E+01  0.10199902085E+01 0.  0.
     999903    2    3    3    0    0  0.21159511590E-01 -0.72089551491E-01 -0.10696972370E+00  0.13230523673E+00  0.20433441081E-01 0.  0.
         14    1    1    2    0    0  0.11785791071E-01 -0.20435982455E-02  0.20419719593E-01  0.23665293432E-01  0.00000000000E+00 0.  1.
     999901    1    3    3    0    0 -0.32945302661E-01  0.74133149736E-01  0.86550004105E-01  0.88795946983E+00  0.88000000000E+00 0. -1.
        -11    1    4    4    0    0  0.13321029748E-01 -0.53001164363E-01 -0.60925208598E-01  0.81845680528E-01  0.51100000000E-03 0. -1.
         11    1    4    4    0    0  0.78384818420E-02 -0.19088387128E-01 -0.46044515100E-01  0.50459556206E-01  0.51100000000E-03 0.  1.
</event>
<event>
 8    1  0.1070112E+005  0.1043930E+01  0.7957747E-01            NaN
         13   -1    0    0    0    0  0.00000000000E+00  0.00000000000E+00  0.74505805969E-08  0.10566000000E+00  0.10566000000E+00 0.  1.
     999900   -1    0    0    0    0 -0.00000000000E+00 -0.00000000000E+00 -0.74505805969E-08  0.93827000000E+00  0.93827000000E+00 0.  1.
     999902    2    1    2    0    0  0.22585965915E-01 -0.55840156042E-02 -0.16082497472E-01  0.10156465453E+01  0.10152526538E+01 0.  0.
     999903    2    3    3    0    0  0.12753487964E+00  0.55410319514E-02 -0.67250960481E-02  0.12929131054E+00  0.19369241138E-01 0.  0.
         14    1    1    2    0    0 -0.22585965915E-01  0.55840156042E-02  0.16082497472E-01  0.28283454731E-01  0.00000000000E+00 0.  1.
     999901    1    3    3    0    0 -0.10494891373E+00 -0.11125047556E-01 -0.93574014242E-02  0.88635523473E+00  0.88000000000E+00 0. -1.
        -11    1    4    4    0    0  0.71356792810E-01 -0.23291429639E-02 -0.11682588956E-01  0.72346118021E-01  0.51100000000E-03 0. -1.
         11    1    4    4    0    0  0.56178086835E-01  0.78701749153E-02  0.49574929081E-02  0.56945192515E-01  0.51100000000E-03 0.  1.
</event>
<event>
 8    1  0.1070112E+005  0.1043930E+01  0.7957747E-01            NaN
         13   -1    0    0    0    0  0.00000000000E+00  0.00000000000E+00  0.74505805969E-08  0.10566000000E+00  0.10566000000E+00 0.  1.
     999900   -1    0    0    0    0 -0.00000000000E+00 -0.00000000000E+00 -0.74505805969E-08  0.93827000000E+00  0.93827000000E+00 0. -1.
     999902    2    1    2    0    0  0.19164935165E-01 -0.33949139343E-03 -0.14454423438E-01  0.10199229104E+01  0.10196403301E+01 0.  0.
     999903    2    3    3    0    0  0.38982137737E-01  0.69032842409E-01 -0.10419436049E+00  0.13242164363E+00  0.19846575236E-01 0.  0.
         14    1    1    2    0    0 -0.19164935165E-01  0.33949139343E-03  0.14454423438E-01  0.24007089603E-01  0.00000000000E+00 0.  1.
     999901    1    3    3    0    0 -0.19817202573E-01 -0.69372333802E-01  0.89739937056E-01  0.88750126677E+00  0.88000000000E+00 0.  1.
        -11    1    4    4    0    0  0.11926226832E-01  0.14315959583E-01 -0.38318186553E-01  0.42611338010E-01  0.51100000000E-03 0. -1.
         11    1    4    4    0    0  0.27055910905E-01  0.54716882826E-01 -0.65876173941E-01  0.89810305618E-01  0.51100000000E-03 0.  1.
</event>
<event>
 8    1  0.1070112E+005  0.1043930E+01  0.7957747E-01            NaN
         13   -1    0    0    0    0  0.00000000000E+00  0.00000000000E+00  0.74505805969E-08  0.10566000000E+00  0.10566000000E+00 0. -1.
     999900   -1    0    0    0    0 -0.00000000000E+00 -0.00000000000E+00 -0.74505805969E-08  0.93827000000E+00  0.93827000000E+00 0.  1.
     999902    2    1    2    0    0  0.77683627586E-02  0.17158164474E-01 -0.14682927147E-01  0.10200482409E+01  0.10197686381E+01 0.  0.
     999903    2    3    3    0    0 -0.42390952922E-01 -0.11079902942E+00 -0.46144954922E-01  0.12882500309E+00  0.19826919748E-01 0.  0.
         14    1    1    2    0    0 -0.77683627586E-02 -0.17158164474E-01  0.14682927147E-01  0.23881759099E-01  0.00000000000E+00 0. -1.
     999901    1    3    3    0    0  0.50159315680E-01  0.12795719389E+00  0.31462027775E-01  0.89122323781E+00  0.88000000000E+00 0.  1.
        -11    1    4    4    0    0 -0.28722362499E-01 -0.49268848990E-01 -0.25747266045E-01  0.62574566863E-01  0.51100000000E-03 0.  1.
         11    1    4    4    0    0 -0.13668590423E-01 -0.61530180431E-01 -0.20397688877E-01  0.66250436229E-01  0.51100000000E-03 0. -1.
</event>
<event>
 8    1  0.1070112E+005  0.1043930E+01  0.7957747E-01            NaN
         13   -1    0    0    0    0  0.00000000000E+00  0.00000000000E+00  0.74505805969E-08  0.10566000000E+00  0.10566000000E+00 0. -1.
     999900   -1    0    0    0    0 -0.00000000000E+00 -0.00000000000E+00 -0.74505805969E-08  0.93827000000E+00  0.93827000000E+00 0. -1.
     999902    2    1    2    0    0 -0.70658212725E-02 -0.21966990916E-01 -0.23278775069E-02  0.10207374681E+01  0.10204739513E+01 0.  0.
     999903    2    3    3    0    0  0.29279435750E-01  0.49609661688E-01  0.11413697635E+00  0.12944163786E+00  0.20235719676E-01 0.  0.
         14    1    1    2    0    0  0.70658212725E-02  0.21966990916E-01  0.23278775069E-02  0.23192531855E-01  0.00000000000E+00 0. -1.
     999901    1    3    3    0    0 -0.36345257022E-01 -0.71576652604E-01 -0.11646485385E+00  0.89129583029E+00  0.88000000000E+00 0. -1.
        -11    1    4    4    0    0  0.19742576116E-01  0.14234954718E-01  0.42543500136E-01  0.49016464299E-01  0.51100000000E-03 0. -1.
         11    1    4    4    0    0  0.95368596339E-02  0.35374706970E-01  0.71593476211E-01  0.80425173558E-01  0.51100000000E-03 0.  1.
</event>
<event>
 8    1  0.1070112E+005  0.1043930E+01  0.7957747E-01            NaN
         13   -1    0    0    0    0  0.00000000000E+00  0.00000000000E+00  0.74505805969E-08  0.10566000000E+00  0.10566000000E+00 0.  1.
     999900   -1    0    0    0    0 -0.00000000000E+00 -0.00000000000E+00 -0.74505805969E-08  0.93827000000E+00  0.93827000000E+00 0.  1.
     999902    2    1    2    0    0 -0.17550048005E-01  0.25626968038E-02  0.14490970178E-01  0.10210267291E+01  0.10207698182E+01 0.  0.
     999903    2    3    3    0    0 -0.51518798457E-01 -0.18286090106E-01  0.12043431327E+00  0.13377674188E+00  0.20080467370E-01 0.  0.
         14    1    1    2    0    0  0.17550048005E-01 -0.25626968038E-02 -0.14490970178E-01  0.22903270871E-01  0.00000000000E+00 0. -1.
     999901    1    3    3    0    0  0.33968750452E-01  0.20848786910E-01 -0.10594334309E+00  0.88724998725E+00  0.88000000000E+00 0.  1.
        -11    1    4    4    0    0  0.35945455269E-03 -0.40368726735E-02  0.52970764286E-02  0.66892217968E-02  0.51100000000E-03 0. -1.
         11    1    4    4    0    0 -0.51878253009E-01 -0.14249217433E-01  0.11513723684E+00  0.12708752009E+00  0.51100000000E-03 0.  1.
</event>
<event>
 8    1  0.1070112E+005  0.1043930E+01  0.7957747E-01            NaN
         13   -1    0    0    0    0  0.00000000000E+00  0.00000000000E+00  0.74505805969E-08  0.10566000000E+00  0.10566000000E+00 0.  1.
     999900   -1    0    0    0    0 -0.00000000000E+00 -0.00000000000E+00 -0.74505805969E-08  0.93827000000E+00  0.93827000000E+00 0.  1.
     999902    2    1    2    0    0 -0.93566320706E-02 -0.11284335798E-01 -0.18312378352E-01  0.10204731034E+01  0.10202034742E+01 0.  0.
     999903    2    3    3    0    0  0.30896715101E-01 -0.56004087313E-01  0.11005248316E+00  0.12912708426E+00  0.21706912229E-01 0.  0.
         14    1    1    2    0    0  0.93566320706E-02  0.11284335798E-01  0.18312378352E-01  0.23456896620E-01  0.00000000000E+00 0.  1.
     999901    1    3    3    0    0 -0.40253347171E-01  0.44719751514E-01 -0.12836486152E+00  0.89134601912E+00  0.88000000000E+00 0.  1.
        -11    1    4    4    0    0  0.22284240555E-01 -0.23203428895E-01  0.66952854430E-01  0.74282786209E-01  0.51100000000E-03 0. -1.
         11    1    4    4    0    0  0.86124745456E-02 -0.32800658418E-01  0.43099628733E-01  0.54844298048E-01  0.51100000000E-03 0.  1.
</event>
<event>
 8    1  0.1070112E+005  0.1043930E+01  0.7957747E-01            NaN
         13   -1    0    0    0    0  0.00000000000E+00  0.00000000000E+00  0.74505805969E-08  0.10566000000E+00  0.10566000000E+00 0. -1.
     999900   -1    0    0    0    0 -0.00000000000E+00 -0.00000000000E+00 -0.74505805969E-08  0.93827000000E+00  0.93827000000E+00 0. -1.
     999902    2    1    2    0    0  0.22059169457E-02 -0.25647202187E-01 -0.26431998864E-02  0.10180527599E+01  0.10177238281E+01 0.  0.
     999903    2    3    3    0    0  0.81761773082E-02 -0.10273152431E+00 -0.79033160897E-01  0.13136619585E+00  0.19754010433E-01 0.  0.
         14    1    1    2    0    0 -0.22059169457E-02  0.25647202187E-01  0.26431998864E-02  0.25877240101E-01  0.00000000000E+00 0. -1.
     999901    1    3    3    0    0 -0.59702603625E-02  0.77084322122E-01  0.76389961010E-01  0.88668656405E+00  0.88000000000E+00 0.  1.
        -11    1    4    4    0    0 -0.13313240119E-02 -0.36284418045E-01 -0.38636298655E-01  0.53022222806E-01  0.51100000000E-03 0. -1.
         11    1    4    4    0    0  0.95075013201E-02 -0.66447106263E-01 -0.40396862242E-01  0.78343973043E-01  0.51100000000E-03 0.  1.
</event>
<event>
 8    1  0.1070112E+005  0.1043930E+01  0.7957747E-01            NaN
         13   -1    0    0    0    0  0.00000000000E+00  0.00000000000E+00  0.74505805969E-08  0.10566000000E+00  0.10566000000E+00 0. -1.
     999900   -1    0    0    0    0 -0.00000000000E+00 -0.00000000000E+00 -0.74505805969E-08  0.93827000000E+00  0.93827000000E+00 0. -1.
     999902    2    1    2    0    0 -0.21765348265E-01 -0.97185106040E-02 -0.20057776060E-02  0.10200092354E+01  0.10197287077E+01 0.  0.
     999903    2    3    3    0    0 -0.84474354591E-01 -0.26017241544E-01 -0.96534389260E-01  0.13257826543E+00  0.21102007344E-01 0.  0.
         14    1    1    2    0    0  0.21765348265E-01  0.97185106040E-02  0.20057776060E-02  0.23920764562E-01  0.00000000000E+00 0. -1.
     999901    1    3    3    0    0  0.62709006327E-01  0.16298730940E-01  0.94528611654E-01  0.88743097001E+00  0.88000000000E+00 0.  1.
        -11    1    4    4    0    0 -0.55306008486E-01 -0.26834805558E-01 -0.61114653469E-01  0.86684043246E-01  0.51100000000E-03 0.  1.
         11    1    4    4    0    0 -0.29168346106E-01  0.81756401481E-03 -0.35419735791E-01  0.45894222185E-01  0.51100000000E-03 0. -1.
</event>
<event>
 8    1  0.1070112E+005  0.1043930E+01  0.7957747E-01            NaN
         13   -1    0    0    0    0  0.00000000000E+00  0.00000000000E+00  0.74505805969E-08  0.10566000000E+00  0.10566000000E+00 0.  1.
     999900   -1    0    0    0    0 -0.00000000000E+00 -0.00000000000E+00 -0.74505805969E-08  0.93827000000E+00  0.93827000000E+00 0. -1.
     999902    2    1    2    0    0 -0.46090575622E-02  0.12693065878E-01  0.19248779250E-01  0.10204167519E+01  0.10201458105E+01 0.  0.
     999903    2    3    3    0    0  0.65649518845E-01  0.97107983398E-01  0.58870092585E-01  0.13270509021E+00  0.20127925914E-01 0.  0.
         14    1    1    2    0    0  0.46090575622E-02 -0.12693065878E-01 -0.19248779250E-01  0.23513248087E-01  0.00000000000E+00 0. -1.
     999901    1    3    3    0    0 -0.70258576408E-01 -0.84414917520E-01 -0.39621313335E-01  0.88771166171E+00  0.88000000000E+00 0. -1.
        -11    1    4    4    0    0  0.30198959178E-01  0.30053176307E-01  0.26921560263E-01  0.50400417355E-01  0.51100000000E-03 0.  1.
         11    1    4    4    0    0  0.35450559667E-01  0.67054807091E-01  0.31948532322E-01  0.82304672852E-01  0.51100000000E-03 0. -1.
</event>
<event>
 8    1  0.1070112E+005  0.1043930E+01  0.7957747E-01            NaN
         13   -1    0    0    0    0  0.00000000000E+00  0.00000000000E+00  0.74505805969E-08  0.10566000000E+00  0.10566000000E+00 0. -1.
     999900   -1    0    0    0    0 -0.00000000000E+00 -0.00000000000E+00 -0.74505805969E-08  0.93827000000E+00  0.93827000000E+00 0. -1.
     999902    2    1    2    0    0 -0.10742692267E-02  0.22171565244E-01  0.30054118802E-02  0.10215298915E+01  0.10212842672E+01 0.  0.
     999903    2    3    3    0    0  0.54795325389E-01 -0.97158827813E-01  0.63159760575E-01  0.12968926675E+00  0.19692258566E-01 0.  0.
         14    1    1    2    0    0  0.10742692267E-02 -0.22171565244E-01 -0.30054118802E-02  0.22400108489E-01  0.00000000000E+00 0. -1.
     999901    1    3    3    0    0 -0.55869594616E-01  0.11933039306E+00 -0.60154348695E-01  0.89184062476E+00  0.88000000000E+00 0.  1.
        -11    1    4    4    0    0  0.42423164930E-01 -0.59710150581E-01  0.47208038904E-01  0.87142911721E-01  0.51100000000E-03 0.  1.
         11    1    4    4    0    0  0.12372160459E-01 -0.37448677232E-01  0.15951721671E-01  0.42546355028E-01  0.51100000000E-03 0. -1.
</event>
<event>
 8    1  0.1070112E+005  0.1043930E+01  0.7957747E-01            NaN
         13   -1    0    0    0    0  0.00000000000E+00  0.00000000000E+00  0.74505805969E-08  0.10566000000E+00  0.10566000000E+00 0. -1.
     999900   -1    0    0    0    0 -0.00000000000E+00 -0.00000000000E+00 -0.74505805969E-08  0.93827000000E+00  0.93827000000E+00 0. -1.
     999902    2    1    2    0    0  0.19039953902E-01  0.87364450606E-02 -0.10518256379E-01  0.10204890309E+01  0.10202197719E+01 0.  0.
     999903    2    3    3    0    0  0.95658006456E-01  0.67014884690E-01  0.59135664263E-01  0.13250346163E+00  0.20461954620E-01 0.  0.
         14    1    1    2    0    0 -0.19039953902E-01 -0.87364450606E-02  0.10518256379E-01  0.23440969139E-01  0.00000000000E+00 0.  1.
     999901    1    3    3    0    0 -0.76618052554E-01 -0.58278439629E-01 -0.69653920643E-01  0.88798556923E+00  0.88000000000E+00 0.  1.
        -11    1    4    4    0    0  0.22360360126E-01  0.14058427666E-01  0.43472201741E-02  0.26772832081E-01  0.51100000000E-03 0. -1.
         11    1    4    4    0    0  0.73297646330E-01  0.52956457024E-01  0.54788444089E-01  0.10573062955E+00  0.51100000000E-03 0.  1.
</event>
<event>
 8    1  0.1070112E+005  0.1043930E+01  0.7957747E-01            NaN
         13   -1    0    0    0    0  0.00000000000E+00  0.00000000000E+00  0.74505805969E-08  0.10566000000E+00  0.10566000000E+00 0. -1.
     999900   -1    0    0    0    0 -0.00000000000E+00 -0.00000000000E+00 -0.74505805969E-08  0.93827000000E+00  0.93827000000E+00 0. -1.
     999902    2    1    2    0    0  0.52851727775E-02  0.14796963649E-01 -0.18167433716E-01  0.10199104490E+01  0.10196275717E+01 0.  0.
     999903    2    3    3    0    0  0.76729901157E-02  0.11877637486E+00 -0.55053793697E-01  0.13301810871E+00  0.22275435881E-01 0.  0.
         14    1    1    2    0    0 -0.52851727775E-02 -0.14796963649E-01  0.18167433716E-01  0.24019551043E-01  0.00000000000E+00 0. -1.
     999901    1    3    3    0    0 -0.23878173382E-02 -0.10397941121E+00  0.36886359981E-01  0.88689234024E+00  0.88000000000E+00 0.  1.
        -11    1    4    4    0    0 -0.45590167986E-02  0.85570804020E-01 -0.38350118405E-01  0.93883650533E-01  0.51100000000E-03 0. -1.
         11    1    4    4    0    0  0.12232006914E-01  0.33205570839E-01 -0.16703675292E-01  0.39134458181E-01  0.51100000000E-03 0.  1.
</event>
<event>
 8    1  0.1070112E+005  0.1043930E+01  0.7957747E-01            NaN
         13   -1    0    0    0    0  0.00000000000E+00  0.00000000000E+00  0.74505805969E-08  0.10566000000E+00  0.10566000000E+00 0.  1.
     999900   -1    0    0    0    0 -0.00000000000E+00 -0.00000000000E+00 -0.74505805969E-08  0.93827000000E+00  0.93827000000E+00 0.  1.
     999902    2    1    2    0    0 -0.14869531014E-01  0.14981386627E-01 -0.11241074831E-01  0.10200154299E+01  0.10197350492E+01 0.  0.
     999903    2    3    3    0    0  0.55112462464E-01  0.68594657644E-01 -0.93307353054E-01  0.13181121003E+00  0.30419112081E-01 0.  0.
         14    1    1    2    0    0  0.14869531014E-01 -0.14981386627E-01  0.11241074831E-01  0.23914570061E-01  0.00000000000E+00 0.  1.
     999901    1    3    3    0    0 -0.69981993478E-01 -0.53613271017E-01  0.82066278223E-01  0.88820421991E+00  0.88000000000E+00 0. -1.
        -11    1    4    4    0    0  0.13586128897E-01  0.36077716313E-01 -0.52434063219E-01  0.65082844278E-01  0.51100000000E-03 0. -1.
         11    1    4    4    0    0  0.41526333567E-01  0.32516941332E-01 -0.40873289835E-01  0.66728365753E-01  0.51100000000E-03 0.  1.
</event>
<event>
 8    1  0.1070112E+005  0.1043930E+01  0.7957747E-01            NaN
         13   -1    0    0    0    0  0.00000000000E+00  0.00000000000E+00  0.74505805969E-08  0.10566000000E+00  0.10566000000E+00 0.  1.
     999900   -1    0    0    0    0 -0.00000000000E+00 -0.00000000000E+00 -0.74505805969E-08  0.93827000000E+00  0.93827000000E+00 0. -1.
     999902    2    1    2    0    0  0.18229730260E-01 -0.25706694992E-03  0.15561077328E-01  0.10199605136E+01  0.10196788284E+01 0.  0.
     999903    2    3    3    0    0  0.12712509001E-01 -0.94969666319E-01  0.88262078003E-01  0.13188036427E+00  0.20527802123E-01 0.  0.
         14    1    1    2    0    0 -0.18229730260E-01  0.25706694992E-03 -0.15561077328E-01  0.23969486360E-01  0.00000000000E+00 0. -1.
     999901    1    3    3    0    0  0.55172212587E-02  0.94712599369E-01 -0.72701000676E-01  0.88808014937E+00  0.88000000000E+00 0. -1.
        -11    1    4    4    0    0 -0.26015328421E-04 -0.60560291571E-01  0.62609192756E-01  0.87107529700E-01  0.51100000000E-03 0. -1.
         11    1    4    4    0    0  0.12738524330E-01 -0.34409374749E-01  0.25652885248E-01  0.44772834568E-01  0.51100000000E-03 0.  1.
</event>
<event>
 7    1  0.1070112E+005  0.1043930E+01  0.7957747E-01            NaN
         13   -1    0    0    0    0  0.00000000000E+00  0.00000000000E+00  0.74505805969E-08  0.10566000000E+00  0.10566000000E+00 0. -1.
     999900   -1    0    0    0    0 -0.00000000000E+00 -0.00000000000E+00 -0.74505805969E-08  0.93827000000E+00  0.93827000000E+00 0.  1.
     999903    2    1    2    0    0  0.83810910528E-01 -0.48866489730E-01  0.23118645381E-01  0.10160259807E+00  0.19401382105E-01 0.  0.
         14    1    1    2    0    0  0.38408794345E-01  0.28213205179E-01  0.22012376316E-01  0.52495382088E-01  0.00000000000E+00 0.  1.
     999901    1    1    2    0    0 -0.12221970487E+00  0.20653284551E-01 -0.45131021696E-01  0.88983201984E+00  0.88000000000E+00 0. -1.
        -11    1    3    3    0    0  0.76807022256E-01 -0.48700706345E-01  0.25019339534E-01  0.94325531740E-01  0.51100000000E-03 0. -1.
         11    1    3    3    0    0  0.70038882721E-02 -0.16578338522E-03 -0.19006941533E-02  0.72770663267E-02  0.51100000000E-03 0.  1.
</event>
<event>
 8    1  0.1070112E+005  0.1043930E+01  0.7957747E-01            NaN
         13   -1    0    0    0    0  0.00000000000E+00  0.00000000000E+00  0.74505805969E-08  0.10566000000E+00  0.10566000000E+00 0.  1.
     999900   -1    0    0    0    0 -0.00000000000E+00 -0.00000000000E+00 -0.74505805969E-08  0.93827000000E+00  0.93827000000E+00 0.  1.
     999902    2    1    2    0    0  0.99462832124E-02 -0.17771718701E-02 -0.22525974542E-01  0.10192418162E+01  0.10189427724E+01 0.  0.
     999903    2    3    3    0    0  0.12413054550E+00  0.31176222886E-01  0.11737738169E-01  0.13059229363E+00  0.23156499267E-01 0.  0.
         14    1    1    2    0    0 -0.99462832124E-02  0.17771718701E-02  0.22525974542E-01  0.24688183786E-01  0.00000000000E+00 0.  1.
     999901    1    3    3    0    0 -0.11418426229E+00 -0.32953394756E-01 -0.34263712711E-01  0.88864952258E+00  0.88000000000E+00 0.  1.
        -11    1    4    4    0    0  0.46555138243E-01  0.14129946051E-01 -0.65291441544E-02  0.49091008511E-01  0.51100000000E-03 0. -1.
         11    1    4    4    0    0  0.77575407258E-01  0.17046276835E-01  0.18266882323E-01  0.81501285119E-01  0.51100000000E-03 0.  1.
</event>
<event>
 8    1  0.1070112E+005  0.1043930E+01  0.7957747E-01            NaN
         13   -1    0    0    0    0  0.00000000000E+00  0.00000000000E+00  0.74505805969E-08  0.10566000000E+00  0.10566000000E+00 0.  1.
     999900   -1    0    0    0    0 -0.00000000000E+00 -0.00000000000E+00 -0.74505805969E-08  0.93827000000E+00  0.93827000000E+00 0. -1.
     999902    2    1    2    0    0  0.20118366419E-01  0.10918234503E-01  0.82418007242E-02  0.10196013381E+01  0.10193110442E+01 0.  0.
     999903    2    3    3    0    0  0.52316225687E-02 -0.49421987538E-01 -0.11688336740E+00  0.12858008960E+00  0.20030355458E-01 0.  0.
         14    1    1    2    0    0 -0.20118366419E-01 -0.10918234503E-01 -0.82418007242E-02  0.24328661928E-01  0.00000000000E+00 0. -1.
     999901    1    3    3    0    0  0.14886743850E-01  0.60340222041E-01  0.12512516812E+00  0.89102124848E+00  0.88000000000E+00 0.  1.
        -11    1    4    4    0    0  0.20970935871E-02  0.14564384825E-02 -0.58893936888E-02  0.64393395304E-02  0.51100000000E-03 0.  1.
         11    1    4    4    0    0  0.31345289816E-02 -0.50878426021E-01 -0.11099397371E+00  0.12214075007E+00  0.51100000000E-03 0. -1.
</event>
<event>
 8    1  0.1070112E+005  0.1043930E+01  0.7957747E-01            NaN
         13   -1    0    0    0    0  0.00000000000E+00  0.00000000000E+00  0.74505805969E-08  0.10566000000E+00  0.10566000000E+00 0. -1.
     999900   -1    0    0    0    0 -0.00000000000E+00 -0.00000000000E+00 -0.74505805969E-08  0.93827000000E+00  0.93827000000E+00 0. -1.
     999902    2    1    2    0    0  0.10605553396E-02 -0.22515578795E-01 -0.72587474743E-02  0.10202495127E+01  0.10199746578E+01 0.  0.
     999903    2    3    3    0    0 -0.96981554630E-01  0.30263754562E-01  0.77304860982E-01  0.12921140054E+00  0.19955643818E-01 0.  0.
         14    1    1    2    0    0 -0.10605553396E-02  0.22515578795E-01  0.72587474743E-02  0.23680487348E-01  0.00000000000E+00 0.  1.
     999901    1    3    3    0    0  0.98042109970E-01 -0.52779333357E-01 -0.84563608456E-01  0.89103811211E+00  0.88000000000E+00 0. -1.
        -11    1    4    4    0    0 -0.21130591568E-01  0.10672593067E-01  0.27895509637E-01  0.36589981165E-01  0.51100000000E-03 0.  1.
         11    1    4    4    0    0 -0.75850963062E-01  0.19591161494E-01  0.49409351345E-01  0.92621419378E-01  0.51100000000E-03 0. -1.
</event>
<event>
 8    1  0.1070112E+005  0.1043930E+01  0.7957747E-01            NaN
         13   -1    0    0    0    0  0.00000000000E+00  0.00000000000E+00  0.74505805969E-08  0.10566000000E+00  0.10566000000E+00 0. -1.
     999900   -1    0    0    0    0 -0.00000000000E+00 -0.00000000000E+00 -0.74505805969E-08  0.93827000000E+00  0.93827000000E+00 0.  1.
     999902    2    1    2    0    0 -0.16819458634E-01 -0.11590748233E-01  0.81387812285E-02  0.10219418352E+01  0.10217052584E+01 0.  0.
     999903    2    3    3    0    0 -0.80215978496E-01 -0.18139352462E-01 -0.10231185298E+00  0.13275043532E+00  0.19781898344E-01 0.  0.
         14    1    1    2    0    0  0.16819458634E-01  0.11590748233E-01 -0.81387812285E-02  0.21988164845E-01  0.00000000000E+00 0. -1.
     999901    1    3    3    0    0  0.63396519862E-01  0.65486042290E-02  0.11045063421E+00  0.88919139984E+00  0.88000000000E+00 0. -1.
        -11    1    4    4    0    0 -0.38567013834E-01 -0.37413733942E-02 -0.61468836100E-01  0.72664237170E-01  0.51100000000E-03 0.  1.
         11    1    4    4    0    0 -0.41648964662E-01 -0.14397979068E-01 -0.40843016883E-01  0.60086198147E-01  0.51100000000E-03 0. -1.
</event>
<event>
 8    1  0.1070112E+005  0.1043930E+01  0.7957747E-01            NaN
         13   -1    0    0    0    0  0.00000000000E+00  0.00000000000E+00  0.74505805969E-08  0.10566000000E+00  0.10566000000E+00 0. -1.
     999900   -1    0    0    0    0 -0.00000000000E+00 -0.00000000000E+00 -0.74505805969E-08  0.93827000000E+00  0.93827000000E+00 0.  1.
     999902    2    1    2    0    0 -0.63579841583E-02 -0.86631461321E-02  0.19525272492E-01  0.10216430009E+01  0.10213998781E+01 0.  0.
     999903    2    3    3    0    0  0.73035007073E-01  0.91827293010E-01  0.56280644197E-01  0.13161348859E+00  0.19703691731E-01 0.  0.
         14    1    1    2    0    0  0.63579841583E-02  0.86631461321E-02 -0.19525272492E-01  0.22286999110E-01  0.00000000000E+00 0.  1.
     999901    1    3    3    0    0 -0.79392991232E-01 -0.10049043914E+00 -0.36755371705E-01  0.89002951230E+00  0.88000000000E+00 0. -1.
        -11    1    4    4    0    0  0.43276346840E-01  0.43813816640E-01  0.21275257914E-01  0.65156660785E-01  0.51100000000E-03 0. -1.
         11    1    4    4    0    0  0.29758660233E-01  0.48013476370E-01  0.35005386283E-01  0.66456827804E-01  0.51100000000E-03 0.  1.
</event>
<event>
 8    1  0.1070112E+005  0.1043930E+01  0.7957747E-01            NaN
         13   -1    0    0    0    0  0.00000000000E+00  0.00000000000E+00  0.74505805969E-08  0.10566000000E+00  0.10566000000E+00 0.  1.
     999900   -1    0    0    0    0 -0.00000000000E+00 -0.00000000000E+00 -0.74505805969E-08  0.93827000000E+00  0.93827000000E+00 0.  1.
     999902    2    1    2    0    0 -0.15651413025E-01 -0.12311663464E-01  0.13848175861E-01  0.10196747787E+01  0.10193862558E+01 0.  0.
     999903    2    3    3    0    0 -0.34246895218E-01  0.12237830751E+00  0.10770213200E-01  0.12922733267E+00  0.20842409539E-01 0.  0.
         14    1    1    2    0    0  0.15651413025E-01  0.12311663464E-01 -0.13848175861E-01  0.24255221327E-01  0.00000000000E+00 0.  1.
     999901    1    3    3    0    0  0.18595482193E-01 -0.13468997097E+00  0.30779626617E-02  0.89044744600E+00  0.88000000000E+00 0. -1.
        -11    1    4    4    0    0 -0.22969583624E-01  0.75292404681E-01 -0.33474100805E-02  0.78790952842E-01  0.51100000000E-03 0.  1.
         11    1    4    4    0    0 -0.11277311594E-01  0.47085902830E-01  0.14117623280E-01  0.50436379828E-01  0.51100000000E-03 0. -1.
</event>
<event>
 8    1  0.1070112E+005  0.1043930E+01  0.7957747E-01            NaN
         13   -1    0    0    0    0  0.00000000000E+00  0.00000000000E+00  0.74505805969E-08  0.10566000000E+00  0.10566000000E+00 0. -1.
     999900   -1    0    0    0    0 -0.00000000000E+00 -0.00000000000E+00 -0.74505805969E-08  0.93827000000E+00  0.93827000000E+00 0.  1.
     999902    2    1    2    0    0 -0.40731593690E-02 -0.22368199590E-01  0.40389110716E-02  0.10208380147E+01  0.10205768039E+01 0.  0.
     999903    2    3    3    0    0  0.47422338177E-01 -0.12284488318E+00 -0.35067712084E-02  0.13359267803E+00  0.22247757114E-01 0.  0.
         14    1    1    2    0    0  0.40731593690E-02  0.22368199590E-01 -0.40389110716E-02  0.23091985250E-01  0.00000000000E+00 0. -1.
     999901    1    3    3    0    0 -0.51495497546E-01  0.10047668359E+00  0.75456822800E-02  0.88724533672E+00  0.88000000000E+00 0.  1.
        -11    1    4    4    0    0  0.15788422651E-01 -0.39208247316E-01 -0.11523501162E-01  0.43813390047E-01  0.51100000000E-03 0.  1.
         11    1    4    4    0    0  0.31633915526E-01 -0.83636635865E-01  0.80167299532E-02  0.89779287981E-01  0.51100000000E-03 0. -1.
</event>
<event>
 8    1  0.1070112E+005  0.1043930E+01  0.7957747E-01            NaN
         13   -1    0    0    0    0  0.00000000000E+00  0.00000000000E+00  0.74505805969E-08  0.10566000000E+00  0.10566000000E+00 0.  1.
     999900   -1    0    0    0    0 -0.00000000000E+00 -0.00000000000E+00 -0.74505805969E-08  0.93827000000E+00  0.93827000000E+00 0. -1.
     999902    2    1    2    0    0  0.12291975229E-01 -0.12543970275E-01  0.16048289293E-01  0.10201394255E+01  0.10198619789E+01 0.  0.
     999903    2    3    3    0    0  0.62846601447E-01  0.10679628411E+00  0.35457011865E-01  0.13043466265E+00  0.20021486386E-01 0.  0.
         14    1    1    2    0    0 -0.12291975229E-01  0.12543970275E-01 -0.16048289293E-01  0.23790574489E-01  0.00000000000E+00 0. -1.
     999901    1    3    3    0    0 -0.50554626217E-01 -0.11934025438E+00 -0.19408722572E-01  0.88970476286E+00  0.88000000000E+00 0. -1.
        -11    1    4    4    0    0  0.34810231124E-01  0.46257921778E-01  0.86684635847E-02  0.58540164845E-01  0.51100000000E-03 0. -1.
         11    1    4    4    0    0  0.28036370323E-01  0.60538362330E-01  0.26788548280E-01  0.71894497804E-01  0.51100000000E-03 0.  1.
</event>
<event>
 8    1  0.1070112E+005  0.1043930E+01  0.7957747E-01            NaN
         13   -1    0    0    0    0  0.00000000000E+00  0.00000000000E+00  0.74505805969E-08  0.10566000000E+00  0.10566000000E+00 0.  1.
     999900   -1    0    0    0    0 -0.00000000000E+00 -0.00000000000E+00 -0.74505805969E-08  0.93827000000E+00  0.93827000000E+00 0.  1.
     999902    2    1    2    0    0  0.11006832670E-01  0.12154656738E-01  0.10816619277E-01  0.10242860366E+01  0.10240976513E+01 0.  0.
     999903    2    3    3    0    0 -0.21709548799E-01  0.11518862178E+00  0.65998685018E-01  0.13595534369E+00  0.19705480367E-01 0.  0.
         14    1    1    2    0    0 -0.11006832670E-01 -0.12154656738E-01 -0.10816619277E-01  0.19643963409E-01  0.00000000000E+00 0. -1.
     999901    1    3    3    0    0  0.32716381469E-01 -0.10303396505E+00 -0.55182065740E-01  0.88833069290E+00  0.88000000000E+00 0. -1.
        -11    1    4    4    0    0 -0.64715772422E-03  0.55740939680E-01  0.29128142916E-01  0.62898179626E-01  0.51100000000E-03 0.  1.
         11    1    4    4    0    0 -0.21062391075E-01  0.59447682104E-01  0.36870542101E-01  0.73057164064E-01  0.51100000000E-03 0. -1.
</event>
<event>
 8    1  0.1070112E+005  0.1043930E+01  0.7957747E-01            NaN
         13   -1    0    0    0    0  0.00000000000E+00  0.00000000000E+00  0.74505805969E-08  0.10566000000E+00  0.10566000000E+00 0. -1.
     999900   -1    0    0    0    0 -0.00000000000E+00 -0.00000000000E+00 -0.74505805969E-08  0.93827000000E+00  0.93827000000E+00 0.  1.
     999902    2    1    2    0    0 -0.14998803935E-01 -0.18039840794E-01 -0.61311132450E-02  0.10196814841E+01  0.10193931226E+01 0.  0.
     999903    2    3    3    0    0  0.45236163745E-01 -0.55614716197E-01  0.10634458192E+00  0.12968659386E+00  0.19238902093E-01 0.  0.
         14    1    1    2    0    0  0.14998803935E-01  0.18039840794E-01  0.61311132450E-02  0.24248515934E-01  0.00000000000E+00 0. -1.
     999901    1    3    3    0    0 -0.60234967680E-01  0.37574875403E-01 -0.11247569517E+00  0.88999489021E+00  0.88000000000E+00 0.  1.
        -11    1    4    4    0    0  0.12301601801E-01 -0.11595221832E-01  0.40611118929E-01  0.43992075171E-01  0.51100000000E-03 0.  1.
         11    1    4    4    0    0  0.32934561944E-01 -0.44019494365E-01  0.65733462996E-01  0.85694518687E-01  0.51100000000E-03 0. -1.
</event>
<event>
 8    1  0.1070112E+005  0.1043930E+01  0.7957747E-01            NaN
         13   -1    0    0    0    0  0.00000000000E+00  0.00000000000E+00  0.74505805969E-08  0.10566000000E+00  0.10566000000E+00 0. -1.
     999900   -1    0    0    0    0 -0.00000000000E+00 -0.00000000000E+00 -0.74505805969E-08  0.93827000000E+00  0.93827000000E+00 0.  1.
     999902    2    1    2    0    0  0.36380671592E-03 -0.20443257978E-01 -0.13098529162E-01  0.10196476892E+01  0.10193585137E+01 0.  0.
     999903    2    3    3    0    0  0.14164029222E-01 -0.34586586060E-01  0.12171831501E+00  0.12916127080E+00  0.21689490645E-01 0.  0.
         14    1    1    2    0    0 -0.36380671592E-03  0.20443257978E-01  0.13098529162E-01  0.24282310810E-01  0.00000000000E+00 0. -1.
     999901    1    3    3    0    0 -0.13800222506E-01  0.14143328083E-01 -0.13481684418E+00  0.89048641839E+00  0.88000000000E+00 0.  1.
        -11    1    4    4    0    0 -0.42565164014E-02 -0.14272945162E-01  0.56009257410E-01  0.57958027331E-01  0.51100000000E-03 0.  1.
         11    1    4    4    0    0  0.18420545623E-01 -0.20313640899E-01  0.65709057605E-01  0.71203243465E-01  0.51100000000E-03 0. -1.
</event>
<event>
 8    1  0.1070112E+005  0.1043930E+01  0.7957747E-01            NaN
         13   -1    0    0    0    0  0.00000000000E+00  0.00000000000E+00  0.74505805969E-08  0.10566000000E+00  0.10566000000E+00 0. -1.
     999900   -1    0    0    0    0 -0.00000000000E+00 -0.00000000000E+00 -0.74505805969E-08  0.93827000000E+00  0.93827000000E+00 0. -1.
     999902    2    1    2    0    0  0.18629805089E-01  0.91977689797E-02 -0.11457953818E-01  0.10202033631E+01  0.10199274233E+01 0.  0.
     999903    2    3    3    0    0  0.83221062311E-01  0.52003715764E-01 -0.88187485936E-01  0.13347240015E+00  0.20192009832E-01 0.  0.
         14    1    1    2    0    0 -0.18629805089E-01 -0.91977689797E-02  0.11457953818E-01  0.23726636879E-01  0.00000000000E+00 0. -1.
     999901    1    3    3    0    0 -0.64591257222E-01 -0.42805946785E-01  0.76729532118E-01  0.88673096297E+00  0.88000000000E+00 0.  1.
        -11    1    4    4    0    0  0.59204497252E-01  0.37784806838E-01 -0.50201839452E-01  0.86332785939E-01  0.51100000000E-03 0. -1.
         11    1    4    4    0    0  0.24016565060E-01  0.14218908926E-01 -0.37985646484E-01  0.47139614213E-01  0.51100000000E-03 0.  1.
</event>
<event>
 8    1  0.1070112E+005  0.1043930E+01  0.7957747E-01            NaN
         13   -1    0    0    0    0  0.00000000000E+00  0.00000000000E+00  0.74505805969E-08  0.10566000000E+00  0.10566000000E+00 0. -1.
     999900   -1    0    0    0    0 -0.00000000000E+00 -0.00000000000E+00 -0.74505805969E-08  0.93827000000E+00  0.93827000000E+00 0.  1.
     999902    2    1    2    0    0  0.15727703004E-01  0.11313045728E-01  0.18830365566E-01  0.10169128145E+01  0.10165538569E+01 0.  0.
     999903    2    3    3    0    0 -0.54757012886E-01  0.81444954514E-01  0.81437093747E-01  0.12910304758E+00  0.20099392566E-01 0.  0.
         14    1    1    2    0    0 -0.15727703004E-01 -0.11313045728E-01 -0.18830365566E-01  0.27017185508E-01  0.00000000000E+00 0. -1.
     999901    1    3    3    0    0  0.70484715890E-01 -0.70131908786E-01 -0.62606728181E-01  0.88780976691E+00  0.88000000000E+00 0.  1.
        -11    1    4    4    0    0 -0.37510677050E-01  0.58053987841E-01  0.44935515412E-01  0.82442574337E-01  0.51100000000E-03 0. -1.
         11    1    4    4    0    0 -0.17246335836E-01  0.23390966673E-01  0.36501578335E-01  0.46660473247E-01  0.51100000000E-03 0.  1.
</event>
<event>
 8    1  0.1070112E+005  0.1043930E+01  0.7957747E-01            NaN
         13   -1    0    0    0    0  0.00000000000E+00  0.00000000000E+00  0.74505805969E-08  0.10566000000E+00  0.10566000000E+00 0. -1.
     999900   -1    0    0    0    0 -0.00000000000E+00 -0.00000000000E+00 -0.74505805969E-08  0.93827000000E+00  0.93827000000E+00 0. -1.
     999902    2    1    2    0    0  0.20229323461E-01  0.11916751483E-01 -0.29180782454E-02  0.10202709706E+01  0.10199966194E+01 0.  0.
     999903    2    3    3    0    0  0.85167393133E-01  0.99660382829E-01 -0.13221693954E-01  0.13346656020E+00  0.21279867037E-01 0.  0.
         14    1    1    2    0    0 -0.20229323461E-01 -0.11916751483E-01  0.29180782454E-02  0.23659029444E-01  0.00000000000E+00 0.  1.
     999901    1    3    3    0    0 -0.64938069673E-01 -0.87743631346E-01  0.10303615709E-01  0.88680441036E+00  0.88000000000E+00 0.  1.
        -11    1    4    4    0    0  0.54820319457E-01  0.48240746876E-01 -0.50339784453E-02  0.73198628024E-01  0.51100000000E-03 0. -1.
         11    1    4    4    0    0  0.30347073676E-01  0.51419635953E-01 -0.81877155088E-02  0.60267932174E-01  0.51100000000E-03 0.  1.
</event>
<event>
 8    1  0.1070112E+005  0.1043930E+01  0.7957747E-01            NaN
         13   -1    0    0    0    0  0.00000000000E+00  0.00000000000E+00  0.74505805969E-08  0.10566000000E+00  0.10566000000E+00 0. -1.
     999900   -1    0    0    0    0 -0.00000000000E+00 -0.00000000000E+00 -0.74505805969E-08  0.93827000000E+00  0.93827000000E+00 0.  1.
     999902    2    1    2    0    0  0.23087334424E-01  0.46548899693E-02  0.19587225211E-02  0.10202967690E+01  0.10200230229E+01 0.  0.
     999903    2    3    3    0    0 -0.11156770328E+00 -0.56498712216E-01  0.16786502453E-01  0.12783298530E+00  0.20494598555E-01 0.  0.
         14    1    1    2    0    0 -0.23087334424E-01 -0.46548899693E-02 -0.19587225211E-02  0.23633230955E-01  0.00000000000E+00 0.  1.
     999901    1    3    3    0    0  0.13465503770E+00  0.61153602186E-01 -0.14827779931E-01  0.89246378374E+00  0.88000000000E+00 0. -1.
        -11    1    4    4    0    0 -0.67280976723E-01 -0.24107528588E-01  0.45591443847E-02  0.71616685779E-01  0.51100000000E-03 0.  1.
         11    1    4    4    0    0 -0.44286726553E-01 -0.32391183628E-01  0.12227358068E-01  0.56216299521E-01  0.51100000000E-03 0. -1.
</event>
<event>
 8    1  0.1070112E+005  0.1043930E+01  0.7957747E-01            NaN
         13   -1    0    0    0    0  0.00000000000E+00  0.00000000000E+00  0.74505805969E-08  0.10566000000E+00  0.10566000000E+00 0.  1.
     999900   -1    0    0    0    0 -0.00000000000E+00 -0.00000000000E+00 -0.74505805969E-08  0.93827000000E+00  0.93827000000E+00 0. -1.
     999902    2    1    2    0    0  0.26275656484E-02  0.17660923767E-01  0.15744297182E-01  0.10201246388E+01  0.10198468431E+01 0.  0.
     999903    2    3    3    0    0 -0.65530360393E-01 -0.10004570378E+00 -0.40800364844E-01  0.12788159349E+00  0.19638258677E-01 0.  0.
         14    1    1    2    0    0 -0.26275656484E-02 -0.17660923767E-01 -0.15744297182E-01  0.23805361231E-01  0.00000000000E+00 0.  1.
     999901    1    3    3    0    0  0.68157926041E-01  0.11770662755E+00  0.56544662027E-01  0.89224304528E+00  0.88000000000E+00 0.  1.
        -11    1    4    4    0    0 -0.48099512328E-01 -0.84822629356E-01 -0.28111565198E-01  0.10148380539E+00  0.51100000000E-03 0. -1.
         11    1    4    4    0    0 -0.17430848065E-01 -0.15223074422E-01 -0.12688799646E-01  0.26397788100E-01  0.51100000000E-03 0.  1.
</event>
<event>
 8    1  0.1070112E+005  0.1043930E+01  0.7957747E-01            NaN
         13   -1    0    0    0    0  0.00000000000E+00  0.00000000000E+00  0.74505805969E-08  0.10566000000E+00  0.10566000000E+00 0. -1.
     999900   -1    0    0    0    0 -0.00000000000E+00 -0.00000000000E+00 -0.74505805969E-08  0.93827000000E+00  0.93827000000E+00 0. -1.
     999902    2    1    2    0    0  0.22904150472E-02 -0.22868844306E-01  0.55583654063E-02  0.10202841660E+01  0.10200101244E+01 0.  0.
     999903    2    3    3    0    0 -0.31075755625E-01  0.29778216396E-01 -0.12024590035E+00  0.12915469859E+00  0.19220167992E-01 0.  0.
         14    1    1    2    0    0 -0.22904150472E-02  0.22868844306E-01 -0.55583654063E-02  0.23645834030E-01  0.00000000000E+00 0.  1.
     999901    1    3    3    0    0  0.33366170672E-01 -0.52647060702E-01  0.12580426576E+00  0.89112946738E+00  0.88000000000E+00 0.  1.
        -11    1    4    4    0    0 -0.42680443996E-02  0.93896289697E-02 -0.52392596643E-01  0.53400623959E-01  0.51100000000E-03 0. -1.
         11    1    4    4    0    0 -0.26807711225E-01  0.20388587426E-01 -0.67853303708E-01  0.75754074633E-01  0.51100000000E-03 0.  1.
</event>
<event>
 8    1  0.1070112E+005  0.1043930E+01  0.7957747E-01            NaN
         13   -1    0    0    0    0  0.00000000000E+00  0.00000000000E+00  0.74505805969E-08  0.10566000000E+00  0.10566000000E+00 0. -1.
     999900   -1    0    0    0    0 -0.00000000000E+00 -0.00000000000E+00 -0.74505805969E-08  0.93827000000E+00  0.93827000000E+00 0.  1.
     999902    2    1    2    0    0 -0.36693760065E-02  0.26883380117E-01 -0.19143765942E-02  0.10167299029E+01  0.10163660020E+01 0.  0.
     999903    2    3    3    0    0  0.10797543960E-01 -0.12091991007E+00 -0.17720880319E-01  0.12414660147E+00  0.18977287733E-01 0.  0.
         14    1    1    2    0    0  0.36693760065E-02 -0.26883380117E-01  0.19143765942E-02  0.27200097142E-01  0.00000000000E+00 0.  1.
     999901    1    3    3    0    0 -0.14466919966E-01  0.14780329019E+00  0.15806503725E-01  0.89258330139E+00  0.88000000000E+00 0. -1.
        -11    1    4    4    0    0  0.83543361302E-02 -0.17599668212E-01 -0.39189593072E-02  0.19878697553E-01  0.51100000000E-03 0. -1.
         11    1    4    4    0    0  0.24432078294E-02 -0.10332024186E+00 -0.13801921012E-01  0.10426790391E+00  0.51100000000E-03 0.  1.
</event>
<event>
 8    1  0.1070112E+005  0.1043930E+01  0.7957747E-01            NaN
         13   -1    0    0    0    0  0.00000000000E+00  0.00000000000E+00  0.74505805969E-08  0.10566000000E+00  0.10566000000E+00 0.  1.
     999900   -1    0    0    0    0 -0.00000000000E+00 -0.00000000000E+00 -0.74505805969E-08  0.93827000000E+00  0.93827000000E+00 0.  1.
     999902    2    1    2    0    0 -0.52355931639E-02 -0.18366345810E-01 -0.12393271026E-01  0.10211631983E+01  0.10209093742E+01 0.  0.
     999903    2    3    3    0    0  0.86810152771E-01  0.36062262260E-02 -0.97187067358E-01  0.13203710982E+00  0.20963416155E-01 0.  0.
         14    1    1    2    0    0  0.52355931639E-02  0.18366345810E-01  0.12393271026E-01  0.22766801727E-01  0.00000000000E+00 0.  1.
     999901    1    3    3    0    0 -0.92045745935E-01 -0.21972572036E-01  0.84793796332E-01  0.88912608845E+00  0.88000000000E+00 0. -1.
        -11    1    4    4    0    0  0.53841521645E-01  0.11911595730E-01 -0.64657653096E-01  0.84980402392E-01  0.51100000000E-03 0. -1.
         11    1    4    4    0    0  0.32968631126E-01 -0.83053695043E-02 -0.32529414262E-01  0.47056707430E-01  0.51100000000E-03 0.  1.
</event>
<event>
 8    1  0.1070112E+005  0.1043930E+01  0.7957747E-01            NaN
         13   -1    0    0    0    0  0.00000000000E+00  0.00000000000E+00  0.74505805969E-08  0.10566000000E+00  0.10566000000E+00 0. -1.
     999900   -1    0    0    0    0 -0.00000000000E+00 -0.00000000000E+00 -0.74505805969E-08  0.93827000000E+00  0.93827000000E+00 0.  1.
     999902    2    1    2    0    0 -0.10071945975E-01  0.20638107782E-01  0.23834589739E-02  0.10208419844E+01  0.10205808643E+01 0.  0.
     999903    2    3    3    0    0  0.12664989009E+00 -0.12015812620E-01 -0.13278334989E-01  0.12954830059E+00  0.20539561677E-01 0.  0.
         14    1    1    2    0    0  0.10071945975E-01 -0.20638107782E-01 -0.23834589739E-02  0.23088015619E-01  0.00000000000E+00 0.  1.
     999901    1    3    3    0    0 -0.13672183606E+00  0.32653920403E-01  0.15661793963E-01  0.89129368379E+00  0.88000000000E+00 0.  1.
        -11    1    4    4    0    0  0.84601869394E-01  0.12119197323E-02 -0.55544358711E-02  0.84794209315E-01  0.51100000000E-03 0. -1.
         11    1    4    4    0    0  0.42048020693E-01 -0.13227732353E-01 -0.77238991177E-02  0.44754091276E-01  0.51100000000E-03 0.  1.
</event>
<event>
 8    1  0.1070112E+005  0.1043930E+01  0.7957747E-01            NaN
         13   -1    0    0    0    0  0.00000000000E+00  0.00000000000E+00  0.74505805969E-08  0.10566000000E+00  0.10566000000E+00 0.  1.
     999900   -1    0    0    0    0 -0.00000000000E+00 -0.00000000000E+00 -0.74505805969E-08  0.93827000000E+00  0.93827000000E+00 0. -1.
     999902    2    1    2    0    0  0.37026975934E-02 -0.19350675256E-01  0.12939356847E-01  0.10203591375E+01  0.10200868512E+01 0.  0.
     999903    2    3    3    0    0 -0.65505406042E-01 -0.16116962614E-01 -0.10846349328E+00  0.12932666307E+00  0.20256892738E-01 0.  0.
         14    1    1    2    0    0 -0.37026975934E-02  0.19350675256E-01 -0.12939356847E-01  0.23570862477E-01  0.00000000000E+00 0.  1.
     999901    1    3    3    0    0  0.69208103635E-01 -0.32337126419E-02  0.12140285012E+00  0.89103247445E+00  0.88000000000E+00 0.  1.
        -11    1    4    4    0    0 -0.24814263399E-01 -0.14292751397E-01 -0.56063557343E-01  0.62955651006E-01  0.51100000000E-03 0. -1.
         11    1    4    4    0    0 -0.40691142643E-01 -0.18242112165E-02 -0.52399935932E-01  0.66371012067E-01  0.51100000000E-03 0.  1.
</event>
<event>
 8    1  0.1070112E+005  0.1043930E+01  0.7957747E-01            NaN
         13   -1    0    0    0    0  0.00000000000E+00  0.00000000000E+00  0.74505805969E-08  0.10566000000E+00  0.10566000000E+00 0. -1.
     999900   -1    0    0    0    0 -0.00000000000E+00 -0.00000000000E+00 -0.74505805969E-08  0.93827000000E+00  0.93827000000E+00 0.  1.
     999902    2    1    2    0    0 -0.17723464518E-01  0.80088680053E-02  0.15075466528E-01  0.10193224229E+01  0.10190253524E+01 0.  0.
     999903    2    3    3    0    0  0.10479430690E+00  0.22725926908E-01 -0.63917473412E-01  0.12720859566E+00  0.24459535746E-01 0.  0.
         14    1    1    2    0    0  0.17723464518E-01 -0.80088680053E-02 -0.15075466528E-01  0.24607577132E-01  0.00000000000E+00 0.  1.
     999901    1    3    3    0    0 -0.12251777142E+00 -0.14717058903E-01  0.78992939940E-01  0.89211382721E+00  0.88000000000E+00 0. -1.
        -11    1    4    4    0    0  0.17278309232E-02  0.48699558782E-02 -0.47160786928E-02  0.70145840356E-02  0.51100000000E-03 0. -1.
         11    1    4    4    0    0  0.10306647598E+00  0.17855971030E-01 -0.59201394719E-01  0.12019401162E+00  0.51100000000E-03 0.  1.
</event>
<event>
 8    1  0.1070112E+005  0.1043930E+01  0.7957747E-01            NaN
         13   -1    0    0    0    0  0.00000000000E+00  0.00000000000E+00  0.74505805969E-08  0.10566000000E+00  0.10566000000E+00 0. -1.
     999900   -1    0    0    0    0 -0.00000000000E+00 -0.00000000000E+00 -0.74505805969E-08  0.93827000000E+00  0.93827000000E+00 0.  1.
     999902    2    1    2    0    0  0.10772044274E-01 -0.18975575764E-01  0.18396160545E-01  0.10153900607E+01  0.10149888902E+01 0.  0.
     999903    2    3    3    0    0 -0.94057619197E-01 -0.61500889877E-02  0.82386595093E-01  0.12676835986E+00  0.19950104958E-01 0.  0.
         14    1    1    2    0    0 -0.10772044274E-01  0.18975575764E-01 -0.18396160545E-01  0.28539939316E-01  0.00000000000E+00 0.  1.
     999901    1    3    3    0    0  0.10482966347E+00 -0.12825486776E-01 -0.63990434548E-01  0.88862170082E+00  0.88000000000E+00 0.  1.
        -11    1    4    4    0    0 -0.44404905447E-01  0.54026517753E-02  0.31320113078E-01  0.54609476084E-01  0.51100000000E-03 0.  1.
         11    1    4    4    0    0 -0.49652713751E-01 -0.11552740763E-01  0.51066482015E-01  0.72158883780E-01  0.51100000000E-03 0. -1.
</event>
<event>
 8    1  0.1070112E+005  0.1043930E+01  0.7957747E-01            NaN
         13   -1    0    0    0    0  0.00000000000E+00  0.00000000000E+00  0.74505805969E-08  0.10566000000E+00  0.10566000000E+00 0. -1.
     999900   -1    0    0    0    0 -0.00000000000E+00 -0.00000000000E+00 -0.74505805969E-08  0.93827000000E+00  0.93827000000E+00 0. -1.
     999902    2    1    2    0    0  0.19950913360E-01  0.12654106816E-01 -0.16886152239E-02  0.10202442071E+01  0.10199692277E+01 0.  0.
     999903    2    3    3    0    0 -0.20833092389E-01  0.50864295727E-02 -0.12719717231E+00  0.13037174279E+00  0.18915104271E-01 0.  0.
         14    1    1    2    0    0 -0.19950913360E-01 -0.12654106816E-01  0.16886152239E-02  0.23685792884E-01  0.00000000000E+00 0.  1.
     999901    1    3    3    0    0  0.40784005749E-01  0.75676772430E-02  0.12550855709E+00  0.88987246433E+00  0.88000000000E+00 0.  1.
        -11    1    4    4    0    0 -0.14639485117E-02  0.67621065794E-02 -0.15331770692E-01  0.16828355362E-01  0.51100000000E-03 0. -1.
         11    1    4    4    0    0 -0.19369143878E-01 -0.16756770067E-02 -0.11186540162E+00  0.11354338743E+00  0.51100000000E-03 0.  1.
</event>
<event>
 8    1  0.1070112E+005  0.1043930E+01  0.7957747E-01            NaN
         13   -1    0    0    0    0  0.00000000000E+00  0.00000000000E+00  0.74505805969E-08  0.10566000000E+00  0.10566000000E+00 0.  1.
     999900   -1    0    0    0    0 -0.00000000000E+00 -0.00000000000E+00 -0.74505805969E-08  0.93827000000E+00  0.93827000000E+00 0.  1.
     999902    2    1    2    0    0  0.95425709782E-02 -0.17876478851E-01 -0.13391927958E-01  0.10196406424E+01  0.10193512970E+01 0.  0.
     999903    2    3    3    0    0  0.45057077901E-02  0.10826047648E+00 -0.67211934882E-01  0.12900463673E+00  0.19598977987E-01 0.  0.
         14    1    1    2    0    0 -0.95425709782E-02  0.17876478851E-01  0.13391927958E-01  0.24289357575E-01  0.00000000000E+00 0.  1.
     999901    1    3    3    0    0  0.50368631882E-02 -0.12613695533E+00  0.53820006924E-01  0.89063600569E+00  0.88000000000E+00 0. -1.
        -11    1    4    4    0    0 -0.48102392165E-02  0.69474773482E-01 -0.48989733773E-01  0.85147740356E-01  0.51100000000E-03 0. -1.
         11    1    4    4    0    0  0.93159470066E-02  0.38785702996E-01 -0.18222201109E-01  0.43856896377E-01  0.51100000000E-03 0.  1.
</event>
<event>
 8    1  0.1070112E+005  0.1043930E+01  0.7957747E-01            NaN
         13   -1    0    0    0    0  0.00000000000E+00  0.00000000000E+00  0.74505805969E-08  0.10566000000E+00  0.10566000000E+00 0.  1.
     999900   -1    0    0    0    0 -0.00000000000E+00 -0.00000000000E+00 -0.74505805969E-08  0.93827000000E+00  0.93827000000E+00 0.  1.
     999902    2    1    2    0    0  0.77670308352E-02  0.21115369348E-01  0.58170088425E-02  0.10206916011E+01  0.10204270289E+01 0.  0.
     999903    2    3    3    0    0 -0.10311521790E+00 -0.32560416775E-02 -0.76019758457E-01  0.12963262706E+00  0.19551581883E-01 0.  0.
         14    1    1    2    0    0 -0.77670308352E-02 -0.21115369348E-01 -0.58170088425E-02  0.23238398881E-01  0.00000000000E+00 0. -1.
     999901    1    3    3    0    0  0.11088224873E+00  0.24371411026E-01  0.81836767300E-01  0.89105897405E+00  0.88000000000E+00 0. -1.
        -11    1    4    4    0    0 -0.90841416001E-01 -0.23220943853E-02 -0.58002019610E-01  0.10780561388E+00  0.51100000000E-03 0.  1.
         11    1    4    4    0    0 -0.12273801897E-01 -0.93394729223E-03 -0.18017738847E-01  0.21827013188E-01  0.51100000000E-03 0. -1.
</event>
<event>
 8    1  0.1070112E+005  0.1043930E+01  0.7957747E-01            NaN
         13   -1    0    0    0    0  0.00000000000E+00  0.00000000000E+00  0.74505805969E-08  0.10566000000E+00  0.10566000000E+00 0. -1.
     999900   -1    0    0    0    0 -0.00000000000E+00 -0.00000000000E+00 -0.74505805969E-08  0.93827000000E+00  0.93827000000E+00 0.  1.
     999902    2    1    2    0    0  0.12352527107E-02  0.14626901746E-01 -0.17680850158E-01  0.10209499094E+01  0.10206912525E+01 0.  0.
     999903    2    3    3    0    0 -0.12883190335E+00 -0.12472261985E-01  0.87890841659E-03  0.13078346739E+00  0.18717003525E-01 0.  0.
         14    1    1    2    0    0 -0.12352527107E-02 -0.14626901746E-01  0.17680850158E-01  0.22980090650E-01  0.00000000000E+00 0.  1.
     999901    1    3    3    0    0  0.13006715606E+00  0.27099163731E-01 -0.18559758575E-01  0.89016644196E+00  0.88000000000E+00 0. -1.
        -11    1    4    4    0    0 -0.46798139764E-01 -0.39761537127E-02 -0.86543553047E-02  0.47760178711E-01  0.51100000000E-03 0.  1.
         11    1    4    4    0    0 -0.82033763588E-01 -0.84961082725E-02  0.95332637212E-02  0.83023288675E-01  0.51100000000E-03 0. -1.
</event>
<event>
 8    1  0.1070112E+005  0.1043930E+01  0.7957747E-01            NaN
         13   -1    0    0    0    0  0.00000000000E+00  0.00000000000E+00  0.74505805969E-08  0.10566000000E+00  0.10566000000E+00 0.  1.
     999900   -1    0    0    0    0 -0.00000000000E+00 -0.00000000000E+00 -0.74505805969E-08  0.93827000000E+00  0.93827000000E+00 0.  1.
     999902    2    1    2    0    0  0.98054686486E-03 -0.23053441431E-01 -0.71394620097E-02  0.10197764381E+01  0.10194903576E+01 0.  0.
     999903    2    3    3    0    0 -0.95281938276E-01  0.82761054784E-01  0.76248666505E-02  0.12810320253E+00  0.20597377427E-01 0.  0.
         14    1    1    2    0    0 -0.98054686486E-03  0.23053441431E-01  0.71394620097E-02  0.24153561885E-01  0.00000000000E+00 0.  1.
     999901    1    3    3    0    0  0.96262485140E-01 -0.10581449621E+00 -0.14764328660E-01  0.89167323558E+00  0.88000000000E+00 0.  1.
        -11    1    4    4    0    0 -0.32416248689E-01  0.28817842042E-01  0.12438458354E-01  0.45124910706E-01  0.51100000000E-03 0.  1.
         11    1    4    4    0    0 -0.62865689587E-01  0.53943212742E-01 -0.48135917038E-02  0.82978291825E-01  0.51100000000E-03 0. -1.
</event>
<event>
 8    1  0.1070112E+005  0.1043930E+01  0.7957747E-01            NaN
         13   -1    0    0    0    0  0.00000000000E+00  0.00000000000E+00  0.74505805969E-08  0.10566000000E+00  0.10566000000E+00 0.  1.
     999900   -1    0    0    0    0 -0.00000000000E+00 -0.00000000000E+00 -0.74505805969E-08  0.93827000000E+00  0.93827000000E+00 0.  1.
     999902    2    1    2    0    0  0.47404473810E-03  0.17389212775E-01  0.16536650397E-01  0.10199285366E+01  0.10196460903E+01 0.  0.
     999903    2    3    3    0    0  0.46319597140E-01 -0.34324881646E-01  0.11654876703E+00  0.13157129668E+00  0.20091999262E-01 0.  0.
         14    1    1    2    0    0 -0.47404473810E-03 -0.17389212775E-01 -0.16536650397E-01  0.24001463407E-01  0.00000000000E+00 0. -1.
     999901    1    3    3    0    0 -0.45845552402E-01  0.51714094421E-01 -0.10001211663E+00  0.88835723992E+00  0.88000000000E+00 0.  1.
        -11    1    4    4    0    0  0.38211933525E-02 -0.62450337017E-02  0.48264038102E-02  0.87839204978E-02  0.51100000000E-03 0.  1.
         11    1    4    4    0    0  0.42498403788E-01 -0.28079847944E-01  0.11172236322E+00  0.12278737618E+00  0.51100000000E-03 0. -1.
</event>
<event>
 8    1  0.1070112E+005  0.1043930E+01  0.7957747E-01            NaN
         13   -1    0    0    0    0  0.00000000000E+00  0.00000000000E+00  0.74505805969E-08  0.10566000000E+00  0.10566000000E+00 0. -1.
     999900   -1    0    0    0    0 -0.00000000000E+00 -0.00000000000E+00 -0.74505805969E-08  0.93827000000E+00  0.93827000000E+00 0.  1.
     999902    2    1    2    0    0 -0.11336001474E-01  0.33859261418E-02 -0.20416454903E-01  0.10203333677E+01  0.10200604787E+01 0.  0.
     999903    2    3    3    0    0 -0.27960767245E-01  0.40056292263E-01 -0.12292962129E+00  0.13346807473E+00  0.17768627578E-01 0.  0.
         14    1    1    2    0    0  0.11336001474E-01 -0.33859261418E-02  0.20416454903E-01  0.23596632304E-01  0.00000000000E+00 0. -1.
     999901    1    3    3    0    0  0.16624765771E-01 -0.36670366121E-01  0.10251316639E+00  0.88686529297E+00  0.88000000000E+00 0. -1.
        -11    1    4    4    0    0 -0.10491406161E-01  0.10090131603E-01 -0.58579063096E-01  0.60362638388E-01  0.51100000000E-03 0.  1.
         11    1    4    4    0    0 -0.17469361085E-01  0.29966160660E-01 -0.64350558196E-01  0.73105436340E-01  0.51100000000E-03 0. -1.
</event>
<event>
 8    1  0.1070112E+005  0.1043930E+01  0.7957747E-01            NaN
         13   -1    0    0    0    0  0.00000000000E+00  0.00000000000E+00  0.74505805969E-08  0.10566000000E+00  0.10566000000E+00 0. -1.
     999900   -1    0    0    0    0 -0.00000000000E+00 -0.00000000000E+00 -0.74505805969E-08  0.93827000000E+00  0.93827000000E+00 0.  1.
     999902    2    1    2    0    0  0.42176765863E-02  0.53016168025E-02 -0.22729121727E-01  0.10202127297E+01  0.10199370103E+01 0.  0.
     999903    2    3    3    0    0 -0.10658875526E+00 -0.54357638291E-01 -0.48948510874E-01  0.13087322847E+00  0.20394352766E-01 0.  0.
         14    1    1    2    0    0 -0.42176765863E-02 -0.53016168025E-02  0.22729121727E-01  0.23717270310E-01  0.00000000000E+00 0. -1.
     999901    1    3    3    0    0  0.11080643185E+00  0.59659255094E-01  0.26219389148E-01  0.88933950122E+00  0.88000000000E+00 0. -1.
        -11    1    4    4    0    0 -0.63311117278E-01 -0.21558308381E-01 -0.23393853926E-01  0.70856134200E-01  0.51100000000E-03 0. -1.
         11    1    4    4    0    0 -0.43277637986E-01 -0.32799329911E-01 -0.25554656948E-01  0.60017094273E-01  0.51100000000E-03 0.  1.
</event>
<event>
 8    1  0.1070112E+005  0.1043930E+01  0.7957747E-01            NaN
         13   -1    0    0    0    0  0.00000000000E+00  0.00000000000E+00  0.74505805969E-08  0.10566000000E+00  0.10566000000E+00 0.  1.
     999900   -1    0    0    0    0 -0.00000000000E+00 -0.00000000000E+00 -0.74505805969E-08  0.93827000000E+00  0.93827000000E+00 0. -1.
     999902    2    1    2    0    0 -0.19439803186E-01 -0.72678975085E-02  0.12302169854E-01  0.10198038386E+01  0.10195184145E+01 0.  0.
     999903    2    3    3    0    0  0.25659027989E-01  0.63851829071E-01  0.10899437038E+00  0.13051125358E+00  0.20444381703E-01 0.  0.
         14    1    1    2    0    0  0.19439803186E-01  0.72678975085E-02 -0.12302169854E-01  0.24126161427E-01  0.00000000000E+00 0. -1.
     999901    1    3    3    0    0 -0.45098831175E-01 -0.71119726580E-01 -0.96692200525E-01  0.88929258499E+00  0.88000000000E+00 0. -1.
        -11    1    4    4    0    0  0.24366442849E-01  0.56377219571E-01  0.10564886713E+00  0.12220498628E+00  0.51100000000E-03 0. -1.
         11    1    4    4    0    0  0.12925851402E-02  0.74746095005E-02  0.33455032493E-02  0.83062673037E-02  0.51100000000E-03 0.  1.
</event>
<event>
 8    1  0.1070112E+005  0.1043930E+01  0.7957747E-01            NaN
         13   -1    0    0    0    0  0.00000000000E+00  0.00000000000E+00  0.74505805969E-08  0.10566000000E+00  0.10566000000E+00 0.  1.
     999900   -1    0    0    0    0 -0.00000000000E+00 -0.00000000000E+00 -0.74505805969E-08  0.93827000000E+00  0.93827000000E+00 0.  1.
     999902    2    1    2    0    0 -0.82474603166E-04 -0.34339227805E-02 -0.24947266114E-01  0.10187473728E+01  0.10184360779E+01 0.  0.
     999903    2    3    3    0    0  0.12608013630E+00  0.56131248160E-02  0.16008091700E-01  0.12876074658E+00  0.19883735046E-01 0.  0.
         14    1    1    2    0    0  0.82474603166E-04  0.34339227805E-02  0.24947266114E-01  0.25182627232E-01  0.00000000000E+00 0.  1.
     999901    1    3    3    0    0 -0.12616261091E+00 -0.90470475964E-02 -0.40955357815E-01  0.88998662619E+00  0.88000000000E+00 0.  1.
        -11    1    4    4    0    0  0.21984498631E-01  0.75638803516E-03 -0.47326892145E-02  0.22506660594E-01  0.51100000000E-03 0.  1.
         11    1    4    4    0    0  0.10409563767E+00  0.48567367808E-02  0.20740780915E-01  0.10625408599E+00  0.51100000000E-03 0. -1.
</event>
<event>
 8    1  0.1070112E+005  0.1043930E+01  0.7957747E-01            NaN
         13   -1    0    0    0    0  0.00000000000E+00  0.00000000000E+00  0.74505805969E-08  0.10566000000E+00  0.10566000000E+00 0. -1.
     999900   -1    0    0    0    0 -0.00000000000E+00 -0.00000000000E+00 -0.74505805969E-08  0.93827000000E+00  0.93827000000E+00 0. -1.
     999902    2    1    2    0    0 -0.44806546225E-02  0.15223491837E-01 -0.15760125721E-01  0.10215645684E+01  0.10213197123E+01 0.  0.
     999903    2    3    3    0    0  0.11679310050E-01 -0.12318615043E-01 -0.13097524070E+00  0.13347998071E+00  0.19345206484E-01 0.  0.
         14    1    1    2    0    0  0.44806546225E-02 -0.15223491837E-01  0.15760125721E-01  0.22365431637E-01  0.00000000000E+00 0. -1.
     999901    1    3    3    0    0 -0.16159964672E-01  0.27542106880E-01  0.11521511498E+00  0.88808458765E+00  0.88000000000E+00 0.  1.
        -11    1    4    4    0    0  0.78532318384E-02 -0.16681604255E-01 -0.76411801003E-01  0.78606447727E-01  0.51100000000E-03 0.  1.
         11    1    4    4    0    0  0.38260782114E-02  0.43629892114E-02 -0.54563439696E-01  0.54873532981E-01  0.51100000000E-03 0. -1.
</event>
<event>
 8    1  0.1070112E+005  0.1043930E+01  0.7957747E-01            NaN
         13   -1    0    0    0    0  0.00000000000E+00  0.00000000000E+00  0.74505805969E-08  0.10566000000E+00  0.10566000000E+00 0. -1.
     999900   -1    0    0    0    0 -0.00000000000E+00 -0.00000000000E+00 -0.74505805969E-08  0.93827000000E+00  0.93827000000E+00 0.  1.
     999902    2    1    2    0    0 -0.19396319283E-01  0.14372514392E-01  0.79321776555E-02  0.10185192579E+01  0.10182022259E+01 0.  0.
     999903    2    3    3    0    0 -0.11222815248E+00  0.61536667781E-01  0.26190239090E-01  0.13219225085E+00  0.20172825030E-01 0.  0.
         14    1    1    2    0    0  0.19396319283E-01 -0.14372514392E-01 -0.79321776555E-02  0.25410742099E-01  0.00000000000E+00 0. -1.
     999901    1    3    3    0    0  0.92831833202E-01 -0.47164153389E-01 -0.18258061435E-01  0.88632700705E+00  0.88000000000E+00 0.  1.
        -11    1    4    4    0    0 -0.90576349515E-01  0.58149928688E-01  0.21036652467E-01  0.10967356640E+00  0.51100000000E-03 0.  1.
         11    1    4    4    0    0 -0.21651802969E-01  0.33867390932E-02  0.51535866239E-02  0.22518684455E-01  0.51100000000E-03 0. -1.
</event>
<event>
 8    1  0.1070112E+005  0.1043930E+01  0.7957747E-01            NaN
         13   -1    0    0    0    0  0.00000000000E+00  0.00000000000E+00  0.74505805969E-08  0.10566000000E+00  0.10566000000E+00 0.  1.
     999900   -1    0    0    0    0 -0.00000000000E+00 -0.00000000000E+00 -0.74505805969E-08  0.93827000000E+00  0.93827000000E+00 0. -1.
     999902    2    1    2    0    0  0.20564975002E-01  0.16843821923E-02 -0.11781359118E-01  0.10201696178E+01  0.10198928832E+01 0.  0.
     999903    2    3    3    0    0  0.52790293278E-02 -0.19411959512E-02 -0.13036928374E+00  0.13207621008E+00  0.20404380271E-01 0.  0.
         14    1    1    2    0    0 -0.20564975002E-01 -0.16843821923E-02  0.11781359118E-01  0.23760382212E-01  0.00000000000E+00 0.  1.
     999901    1    3    3    0    0  0.15285945674E-01  0.36255781435E-02  0.11858792462E+00  0.88809340771E+00  0.88000000000E+00 0.  1.
        -11    1    4    4    0    0  0.11048495921E-01 -0.44602351224E-02 -0.47782818847E-01  0.49248572136E-01  0.51100000000E-03 0. -1.
         11    1    4    4    0    0 -0.57694665936E-02  0.25190391712E-02 -0.82586464890E-01  0.82827637942E-01  0.51100000000E-03 0.  1.
</event>
<event>
 8    1  0.1070112E+005  0.1043930E+01  0.7957747E-01            NaN
         13   -1    0    0    0    0  0.00000000000E+00  0.00000000000E+00  0.74505805969E-08  0.10566000000E+00  0.10566000000E+00 0. -1.
     999900   -1    0    0    0    0 -0.00000000000E+00 -0.00000000000E+00 -0.74505805969E-08  0.93827000000E+00  0.93827000000E+00 0. -1.
     999902    2    1    2    0    0  0.23471552337E-01 -0.59315193581E-02 -0.66056960666E-02  0.10188355402E+01  0.10185264484E+01 0.  0.
     999903    2    3    3    0    0  0.33254611671E-01  0.45615468682E-01  0.11431997884E+00  0.12901768298E+00  0.19744993762E-01 0.  0.
         14    1    1    2    0    0 -0.23471552337E-01  0.59315193581E-02  0.66056960666E-02  0.25094459777E-01  0.00000000000E+00 0. -1.
     999901    1    3    3    0    0 -0.97830593340E-02 -0.51546988040E-01 -0.12092567490E+00  0.88981785725E+00  0.88000000000E+00 0. -1.
        -11    1    4    4    0    0  0.32694877204E-01  0.33509061156E-01  0.98691910872E-01  0.10923445687E+00  0.51100000000E-03 0.  1.
         11    1    4    4    0    0  0.55973446700E-03  0.12106407526E-01  0.15628067965E-01  0.19783226106E-01  0.51100000000E-03 0. -1.
</event>
<event>
 8    1  0.1070112E+005  0.1043930E+01  0.7957747E-01            NaN
         13   -1    0    0    0    0  0.00000000000E+00  0.00000000000E+00  0.74505805969E-08  0.10566000000E+00  0.10566000000E+00 0.  1.
     999900   -1    0    0    0    0 -0.00000000000E+00 -0.00000000000E+00 -0.74505805969E-08  0.93827000000E+00  0.93827000000E+00 0. -1.
     999902    2    1    2    0    0 -0.80812151098E-02 -0.22182413793E-02  0.22327422494E-01  0.10200817207E+01  0.10198029106E+01 0.  0.
     999903    2    3    3    0    0  0.90098623104E-01  0.32488422020E-01 -0.79564014105E-01  0.12810319066E+00  0.30112051856E-01 0.  0.
         14    1    1    2    0    0  0.80812151098E-02  0.22182413793E-02 -0.22327422494E-01  0.23848279344E-01  0.00000000000E+00 0. -1.
     999901    1    3    3    0    0 -0.98179838214E-01 -0.34706663400E-01  0.10189143660E+00  0.89197852999E+00  0.88000000000E+00 0.  1.
        -11    1    4    4    0    0  0.44238818969E-01  0.31693347552E-01 -0.46115619178E-01  0.71333392153E-01  0.51100000000E-03 0.  1.
         11    1    4    4    0    0  0.45859804135E-01  0.79507446795E-03 -0.33448394926E-01  0.56769798510E-01  0.51100000000E-03 0. -1.
</event>
<event>
 8    1  0.1070112E+005  0.1043930E+01  0.7957747E-01            NaN
         13   -1    0    0    0    0  0.00000000000E+00  0.00000000000E+00  0.74505805969E-08  0.10566000000E+00  0.10566000000E+00 0.  1.
     999900   -1    0    0    0    0 -0.00000000000E+00 -0.00000000000E+00 -0.74505805969E-08  0.93827000000E+00  0.93827000000E+00 0. -1.
     999902    2    1    2    0    0 -0.10883674831E-01  0.15986956432E-01  0.76839677679E-02  0.10231194134E+01  0.10229077444E+01 0.  0.
     999903    2    3    3    0    0  0.47874913409E-01 -0.11684620407E+00 -0.26419804334E-01  0.13056113100E+00  0.20078847748E-01 0.  0.
         14    1    1    2    0    0  0.10883674831E-01 -0.15986956432E-01 -0.76839677679E-02  0.20810586596E-01  0.00000000000E+00 0.  1.
     999901    1    3    3    0    0 -0.58758588240E-01  0.13283316050E+00  0.34103772102E-01  0.89255828241E+00  0.88000000000E+00 0. -1.
        -11    1    4    4    0    0  0.36380788381E-01 -0.10492076995E+00 -0.20265440888E-01  0.11288436095E+00  0.51100000000E-03 0.  1.
         11    1    4    4    0    0  0.11494125028E-01 -0.11925434116E-01 -0.61543634459E-02  0.17676770051E-01  0.51100000000E-03 0. -1.
</event>
<event>
 8    1  0.1070112E+005  0.1043930E+01  0.7957747E-01            NaN
         13   -1    0    0    0    0  0.00000000000E+00  0.00000000000E+00  0.74505805969E-08  0.10566000000E+00  0.10566000000E+00 0.  1.
     999900   -1    0    0    0    0 -0.00000000000E+00 -0.00000000000E+00 -0.74505805969E-08  0.93827000000E+00  0.93827000000E+00 0.  1.
     999902    2    1    2    0    0  0.16381231290E-02  0.21677372156E-01  0.22103914446E-02  0.10220787359E+01  0.10218451276E+01 0.  0.
     999903    2    3    3    0    0 -0.52876689688E-01  0.41832885227E-02  0.11977616529E+00  0.13241609259E+00  0.19345479822E-01 0.  0.
         14    1    1    2    0    0 -0.16381231290E-02 -0.21677372156E-01 -0.22103914446E-02  0.21851264067E-01  0.00000000000E+00 0. -1.
     999901    1    3    3    0    0  0.54514812817E-01  0.17494083633E-01 -0.11756577385E+00  0.88966264334E+00  0.88000000000E+00 0.  1.
        -11    1    4    4    0    0 -0.38066873460E-01  0.86264247609E-02  0.68328159013E-01  0.78692442422E-01  0.51100000000E-03 0. -1.
         11    1    4    4    0    0 -0.14809816228E-01 -0.44431362382E-02  0.51448006280E-01  0.53723650169E-01  0.51100000000E-03 0.  1.
</event>
<event>
 8    1  0.1070112E+005  0.1043930E+01  0.7957747E-01            NaN
         13   -1    0    0    0    0  0.00000000000E+00  0.00000000000E+00  0.74505805969E-08  0.10566000000E+00  0.10566000000E+00 0.  1.
     999900   -1    0    0    0    0 -0.00000000000E+00 -0.00000000000E+00 -0.74505805969E-08  0.93827000000E+00  0.93827000000E+00 0.  1.
     999902    2    1    2    0    0 -0.17320329875E-01 -0.47292071120E-02  0.15583659208E-01  0.10201558615E+01  0.10198788027E+01 0.  0.
     999903    2    3    3    0    0  0.38484997408E-01 -0.34410846623E-02  0.12424801149E+00  0.13171687358E+00  0.20465344802E-01 0.  0.
         14    1    1    2    0    0  0.17320329875E-01  0.47292071120E-02 -0.15583659208E-01  0.23774138496E-01  0.00000000000E+00 0. -1.
     999901    1    3    3    0    0 -0.55805327283E-01 -0.12881224496E-02 -0.10866435228E+00  0.88843898793E+00  0.88000000000E+00 0.  1.
        -11    1    4    4    0    0  0.33827414237E-01 -0.33000416435E-02  0.76165604829E-01  0.83406502797E-01  0.51100000000E-03 0. -1.
         11    1    4    4    0    0  0.46575831711E-02 -0.14104301885E-03  0.48082406656E-01  0.48310370781E-01  0.51100000000E-03 0.  1.
</event>
<event>
 8    1  0.1070112E+005  0.1043930E+01  0.7957747E-01            NaN
         13   -1    0    0    0    0  0.00000000000E+00  0.00000000000E+00  0.74505805969E-08  0.10566000000E+00  0.10566000000E+00 0.  1.
     999900   -1    0    0    0    0 -0.00000000000E+00 -0.00000000000E+00 -0.74505805969E-08  0.93827000000E+00  0.93827000000E+00 0.  1.
     999902    2    1    2    0    0 -0.16741405256E-01 -0.16584739912E-01  0.90351338174E-02  0.10186918960E+01  0.10183792109E+01 0.  0.
     999903    2    3    3    0    0  0.82821084374E-03 -0.62190624802E-01  0.11371489400E+00  0.13114108605E+00  0.19963656638E-01 0.  0.
         14    1    1    2    0    0  0.16741405256E-01  0.16584739912E-01 -0.90351338174E-02  0.25238103950E-01  0.00000000000E+00 0.  1.
     999901    1    3    3    0    0 -0.17569616100E-01  0.45605884890E-01 -0.10467976018E+00  0.88755081000E+00  0.88000000000E+00 0.  1.
        -11    1    4    4    0    0  0.12841114230E-02 -0.31256177240E-01  0.77080485881E-01  0.83188100005E-01  0.51100000000E-03 0.  1.
         11    1    4    4    0    0 -0.45590057928E-03 -0.30934447563E-01  0.36634408116E-01  0.47952986042E-01  0.51100000000E-03 0. -1.
</event>
<event>
 8    1  0.1070112E+005  0.1043930E+01  0.7957747E-01            NaN
         13   -1    0    0    0    0  0.00000000000E+00  0.00000000000E+00  0.74505805969E-08  0.10566000000E+00  0.10566000000E+00 0.  1.
     999900   -1    0    0    0    0 -0.00000000000E+00 -0.00000000000E+00 -0.74505805969E-08  0.93827000000E+00  0.93827000000E+00 0. -1.
     999902    2    1    2    0    0  0.63707419191E-02  0.20352859178E-01 -0.13352452147E-01  0.10187682590E+01  0.10184574868E+01 0.  0.
     999903    2    3    3    0    0  0.97870574133E-01  0.82276366982E-01 -0.24725392478E-01  0.13178681399E+00  0.20208153371E-01 0.  0.
         14    1    1    2    0    0 -0.63707419191E-02 -0.20352859178E-01  0.13352452147E-01  0.25161740950E-01  0.00000000000E+00 0.  1.
     999901    1    3    3    0    0 -0.91499832214E-01 -0.61923507804E-01  0.11372940331E-01  0.88698144506E+00  0.88000000000E+00 0. -1.
        -11    1    4    4    0    0  0.80630078778E-02  0.12308762311E-01  0.19625082142E-02  0.14853628686E-01  0.51100000000E-03 0.  1.
         11    1    4    4    0    0  0.89807566255E-01  0.69967604672E-01 -0.26687900692E-01  0.11693318530E+00  0.51100000000E-03 0. -1.
</event>
<event>
 8    1  0.1070112E+005  0.1043930E+01  0.7957747E-01            NaN
         13   -1    0    0    0    0  0.00000000000E+00  0.00000000000E+00  0.74505805969E-08  0.10566000000E+00  0.10566000000E+00 0.  1.
     999900   -1    0    0    0    0 -0.00000000000E+00 -0.00000000000E+00 -0.74505805969E-08  0.93827000000E+00  0.93827000000E+00 0. -1.
     999902    2    1    2    0    0 -0.12244910580E-01  0.17683790116E-01 -0.95627405670E-02  0.10203906654E+01  0.10201191154E+01 0.  0.
     999903    2    3    3    0    0  0.22311706387E-01  0.38812068995E-01 -0.12283718865E+00  0.13220618873E+00  0.19629378052E-01 0.  0.
         14    1    1    2    0    0  0.12244910580E-01 -0.17683790116E-01  0.95627405670E-02  0.23539334637E-01  0.00000000000E+00 0.  1.
     999901    1    3    3    0    0 -0.34556616967E-01 -0.21128278879E-01  0.11327444808E+00  0.88818447663E+00  0.88000000000E+00 0.  1.
        -11    1    4    4    0    0  0.18001092228E-01  0.14735682529E-01 -0.45707382667E-01  0.51289429829E-01  0.51100000000E-03 0.  1.
         11    1    4    4    0    0  0.43106141586E-02  0.24076386467E-01 -0.77129805979E-01  0.80916758901E-01  0.51100000000E-03 0. -1.
</event>
<event>
 8    1  0.1070112E+005  0.1043930E+01  0.7957747E-01            NaN
         13   -1    0    0    0    0  0.00000000000E+00  0.00000000000E+00  0.74505805969E-08  0.10566000000E+00  0.10566000000E+00 0. -1.
     999900   -1    0    0    0    0 -0.00000000000E+00 -0.00000000000E+00 -0.74505805969E-08  0.93827000000E+00  0.93827000000E+00 0. -1.
     999902    2    1    2    0    0  0.20922476032E-01  0.98560509929E-04  0.15148269601E-01  0.10180992085E+01  0.10177714717E+01 0.  0.
     999903    2    3    3    0    0  0.47826235944E-02  0.11911698865E+00  0.46108648688E-01  0.12940104481E+00  0.20171575077E-01 0.  0.
         14    1    1    2    0    0 -0.20922476032E-01 -0.98560509929E-04 -0.15148269601E-01  0.25830791497E-01  0.00000000000E+00 0.  1.
     999901    1    3    3    0    0  0.16139852437E-01 -0.11901842814E+00 -0.30960379087E-01  0.88869816369E+00  0.88000000000E+00 0. -1.
        -11    1    4    4    0    0 -0.72578708889E-02  0.49254796853E-01  0.22915503319E-01  0.54809607883E-01  0.51100000000E-03 0. -1.
         11    1    4    4    0    0  0.12040494483E-01  0.69862191797E-01  0.23193145369E-01  0.74591436929E-01  0.51100000000E-03 0.  1.
</event>
<event>
 8    1  0.1070112E+005  0.1043930E+01  0.7957747E-01            NaN
         13   -1    0    0    0    0  0.00000000000E+00  0.00000000000E+00  0.74505805969E-08  0.10566000000E+00  0.10566000000E+00 0.  1.
     999900   -1    0    0    0    0 -0.00000000000E+00 -0.00000000000E+00 -0.74505805969E-08  0.93827000000E+00  0.93827000000E+00 0. -1.
     999902    2    1    2    0    0  0.10071634952E-01  0.14759053634E-01  0.12654557482E-01  0.10220346736E+01  0.10218001119E+01 0.  0.
     999903    2    3    3    0    0 -0.11472725069E+00  0.43985468149E-01 -0.39682415571E-01  0.13121027790E+00  0.23331940807E-01 0.  0.
         14    1    1    2    0    0 -0.10071634952E-01 -0.14759053634E-01 -0.12654557482E-01  0.21895326438E-01  0.00000000000E+00 0.  1.
     999901    1    3    3    0    0  0.12479888564E+00 -0.29226414515E-01  0.52336973053E-01  0.89082439566E+00  0.88000000000E+00 0.  1.
        -11    1    4    4    0    0 -0.68339792494E-01  0.38239169138E-01 -0.25593572190E-01  0.82388429727E-01  0.51100000000E-03 0.  1.
         11    1    4    4    0    0 -0.46387458193E-01  0.57462990115E-02 -0.14088843381E-01  0.48821848170E-01  0.51100000000E-03 0. -1.
</event>
<event>
 8    1  0.1070112E+005  0.1043930E+01  0.7957747E-01            NaN
         13   -1    0    0    0    0  0.00000000000E+00  0.00000000000E+00  0.74505805969E-08  0.10566000000E+00  0.10566000000E+00 0.  1.
     999900   -1    0    0    0    0 -0.00000000000E+00 -0.00000000000E+00 -0.74505805969E-08  0.93827000000E+00  0.93827000000E+00 0.  1.
     999902    2    1    2    0    0  0.21360146410E-01 -0.12432880612E-01 -0.11085257615E-01  0.10168428202E+01  0.10164819751E+01 0.  0.
     999903    2    3    3    0    0 -0.68834635175E-01  0.61724088876E-01 -0.82953468268E-01  0.12622539700E+00  0.22438868112E-01 0.  0.
         14    1    1    2    0    0 -0.21360146410E-01  0.12432880612E-01  0.11085257615E-01  0.27087179834E-01  0.00000000000E+00 0.  1.
     999901    1    3    3    0    0  0.90194781585E-01 -0.74156969488E-01  0.71868210653E-01  0.89061742317E+00  0.88000000000E+00 0. -1.
        -11    1    4    4    0    0 -0.48322565037E-01  0.43864622434E-01 -0.43989132002E-01  0.78705020478E-01  0.51100000000E-03 0. -1.
         11    1    4    4    0    0 -0.20512070138E-01  0.17859466442E-01 -0.38964336266E-01  0.47520376520E-01  0.51100000000E-03 0.  1.
</event>
<event>
 8    1  0.1070112E+005  0.1043930E+01  0.7957747E-01            NaN
         13   -1    0    0    0    0  0.00000000000E+00  0.00000000000E+00  0.74505805969E-08  0.10566000000E+00  0.10566000000E+00 0. -1.
     999900   -1    0    0    0    0 -0.00000000000E+00 -0.00000000000E+00 -0.74505805969E-08  0.93827000000E+00  0.93827000000E+00 0. -1.
     999902    2    1    2    0    0 -0.19558223548E-01 -0.65821544135E-02 -0.19492846264E-02  0.10232020340E+01  0.10229920595E+01 0.  0.
     999903    2    3    3    0    0 -0.13055127748E+00  0.65441582261E-02 -0.29943247174E-01  0.13569123401E+00  0.20713543322E-01 0.  0.
         14    1    1    2    0    0  0.19558223548E-01  0.65821544135E-02  0.19492846264E-02  0.20727966028E-01  0.00000000000E+00 0.  1.
     999901    1    3    3    0    0  0.11099305394E+00 -0.13126312640E-01  0.27993962547E-01  0.88751079996E+00  0.88000000000E+00 0.  1.
        -11    1    4    4    0    0 -0.63145999520E-01  0.10070978908E-02 -0.24837547432E-01  0.67864544388E-01  0.51100000000E-03 0. -1.
         11    1    4    4    0    0 -0.67405277964E-01  0.55370603353E-02 -0.51056997412E-02  0.67826689625E-01  0.51100000000E-03 0.  1.
</event>
<event>
 8    1  0.1070112E+005  0.1043930E+01  0.7957747E-01            NaN
         13   -1    0    0    0    0  0.00000000000E+00  0.00000000000E+00  0.74505805969E-08  0.10566000000E+00  0.10566000000E+00 0.  1.
     999900   -1    0    0    0    0 -0.00000000000E+00 -0.00000000000E+00 -0.74505805969E-08  0.93827000000E+00  0.93827000000E+00 0.  1.
     999902    2    1    2    0    0 -0.60048082820E-02  0.22802350877E-01  0.22152610778E-02  0.10202464127E+01  0.10199714850E+01 0.  0.
     999903    2    3    3    0    0 -0.38084835623E-01  0.72870519229E-01 -0.10120817455E+00  0.13219666367E+00  0.21732372461E-01 0.  0.
         14    1    1    2    0    0  0.60048082820E-02 -0.22802350877E-01 -0.22152610778E-02  0.23683587348E-01  0.00000000000E+00 0. -1.
     999901    1    3    3    0    0  0.32080027341E-01 -0.50068168352E-01  0.10342343562E+00  0.88804974899E+00  0.88000000000E+00 0. -1.
        -11    1    4    4    0    0 -0.24712458124E-01  0.55328214707E-01 -0.86743606713E-01  0.10581413590E+00  0.51100000000E-03 0.  1.
         11    1    4    4    0    0 -0.13372377499E-01  0.17542304522E-01 -0.14464567832E-01  0.26382527769E-01  0.51100000000E-03 0. -1.
</event>
<event>
 8    1  0.1070112E+005  0.1043930E+01  0.7957747E-01            NaN
         13   -1    0    0    0    0  0.00000000000E+00  0.00000000000E+00  0.74505805969E-08  0.10566000000E+00  0.10566000000E+00 0. -1.
     999900   -1    0    0    0    0 -0.00000000000E+00 -0.00000000000E+00 -0.74505805969E-08  0.93827000000E+00  0.93827000000E+00 0. -1.
     999902    2    1    2    0    0  0.22112107481E-01  0.48249118806E-02  0.53187824992E-02  0.10206810319E+01  0.10204162162E+01 0.  0.
     999903    2    3    3    0    0 -0.33008162285E-02 -0.63009639198E-01  0.11316011114E+00  0.13114345808E+00  0.20304822683E-01 0.  0.
         14    1    1    2    0    0 -0.22112107481E-01 -0.48249118806E-02 -0.53187824992E-02  0.23248968132E-01  0.00000000000E+00 0.  1.
     999901    1    3    3    0    0  0.25412923710E-01  0.67834551079E-01 -0.10784132864E+00  0.88953757379E+00  0.88000000000E+00 0. -1.
        -11    1    4    4    0    0 -0.68248656090E-02 -0.49687206087E-01  0.72102212645E-01  0.87831585598E-01  0.51100000000E-03 0. -1.
         11    1    4    4    0    0  0.35240493805E-02 -0.13322433112E-01  0.41057898498E-01  0.43311872485E-01  0.51100000000E-03 0.  1.
</event>
<event>
 8    1  0.1070112E+005  0.1043930E+01  0.7957747E-01            NaN
         13   -1    0    0    0    0  0.00000000000E+00  0.00000000000E+00  0.74505805969E-08  0.10566000000E+00  0.10566000000E+00 0.  1.
     999900   -1    0    0    0    0 -0.00000000000E+00 -0.00000000000E+00 -0.74505805969E-08  0.93827000000E+00  0.93827000000E+00 0. -1.
     999902    2    1    2    0    0 -0.19200322539E-01 -0.13724957910E-01  0.38797250564E-02  0.10200118244E+01  0.10197313582E+01 0.  0.
     999903    2    3    3    0    0 -0.46112414334E-01 -0.11357069093E+00 -0.46463394241E-01  0.13252781854E+00  0.19496643019E-01 0.  0.
         14    1    1    2    0    0  0.19200322539E-01  0.13724957910E-01 -0.38797250564E-02  0.23918175552E-01  0.00000000000E+00 0. -1.
     999901    1    3    3    0    0  0.26912091794E-01  0.99845733015E-01  0.50343119297E-01  0.88748400591E+00  0.88000000000E+00 0.  1.
        -11    1    4    4    0    0 -0.87576939685E-02 -0.44035767037E-01 -0.12598869560E-01  0.46635165030E-01  0.51100000000E-03 0.  1.
         11    1    4    4    0    0 -0.37354720365E-01 -0.69534923888E-01 -0.33864524681E-01  0.85892653508E-01  0.51100000000E-03 0. -1.
</event>
<event>
 8    1  0.1070112E+005  0.1043930E+01  0.7957747E-01            NaN
         13   -1    0    0    0    0  0.00000000000E+00  0.00000000000E+00  0.74505805969E-08  0.10566000000E+00  0.10566000000E+00 0.  1.
     999900   -1    0    0    0    0 -0.00000000000E+00 -0.00000000000E+00 -0.74505805969E-08  0.93827000000E+00  0.93827000000E+00 0.  1.
     999902    2    1    2    0    0  0.45331376133E-02  0.19128767407E-01 -0.81277173732E-02  0.10226575091E+01  0.10224362386E+01 0.  0.
     999903    2    3    3    0    0 -0.52126589584E-01 -0.46327425081E-01 -0.11078818948E+00  0.13246988262E+00  0.20269070419E-01 0.  0.
         14    1    1    2    0    0 -0.45331376133E-02 -0.19128767407E-01  0.81277173732E-02  0.21272490894E-01  0.00000000000E+00 0.  1.
     999901    1    3    3    0    0  0.56659727197E-01  0.65456192488E-01  0.10266047211E+00  0.89018762649E+00  0.88000000000E+00 0. -1.
        -11    1    4    4    0    0 -0.18311653086E-01 -0.27849713716E-01 -0.41983327353E-01  0.53607686850E-01  0.51100000000E-03 0.  1.
         11    1    4    4    0    0 -0.33814936498E-01 -0.18477711366E-01 -0.68804862129E-01  0.78862195767E-01  0.51100000000E-03 0. -1.
</event>
<event>
 8    1  0.1070112E+005  0.1043930E+01  0.7957747E-01            NaN
         13   -1    0    0    0    0  0.00000000000E+00  0.00000000000E+00  0.74505805969E-08  0.10566000000E+00  0.10566000000E+00 0.  1.
     999900   -1    0    0    0    0 -0.00000000000E+00 -0.00000000000E+00 -0.74505805969E-08  0.93827000000E+00  0.93827000000E+00 0. -1.
     999902    2    1    2    0    0 -0.17520855604E-02 -0.34714442244E-02  0.22687865228E-01  0.10209113129E+01  0.10206517765E+01 0.  0.
     999903    2    3    3    0    0 -0.41269058050E-01 -0.10660806744E+00 -0.58802274409E-01  0.13027143221E+00  0.21083723054E-01 0.  0.
         14    1    1    2    0    0  0.17520855604E-02  0.34714442244E-02 -0.22687865228E-01  0.23018687135E-01  0.00000000000E+00 0. -1.
     999901    1    3    3    0    0  0.39516972490E-01  0.10313662321E+00  0.81490139637E-01  0.89063988066E+00  0.88000000000E+00 0.  1.
        -11    1    4    4    0    0 -0.29303256620E-01 -0.65787610097E-01 -0.26064997181E-01  0.76592008002E-01  0.51100000000E-03 0. -1.
         11    1    4    4    0    0 -0.11965801430E-01 -0.40820457342E-01 -0.32737277228E-01  0.53679424203E-01  0.51100000000E-03 0.  1.
</event>
<event>
 8    1  0.1070112E+005  0.1043930E+01  0.7957747E-01            NaN
         13   -1    0    0    0    0  0.00000000000E+00  0.00000000000E+00  0.74505805969E-08  0.10566000000E+00  0.10566000000E+00 0. -1.
     999900   -1    0    0    0    0 -0.00000000000E+00 -0.00000000000E+00 -0.74505805969E-08  0.93827000000E+00  0.93827000000E+00 0. -1.
     999902    2    1    2    0    0  0.34282677435E-02  0.12968925700E-01  0.20331765205E-01  0.10195717010E+01  0.10192806909E+01 0.  0.
     999903    2    3    3    0    0 -0.53464295805E-01  0.11002668998E+00  0.44750620937E-01  0.13207338895E+00  0.21827930708E-01 0.  0.
         14    1    1    2    0    0 -0.34282677435E-02 -0.12968925700E-01 -0.20331765205E-01  0.24358298994E-01  0.00000000000E+00 0.  1.
     999901    1    3    3    0    0  0.56892563549E-01 -0.97057764282E-01 -0.24418855732E-01  0.88749831206E+00  0.88000000000E+00 0. -1.
        -11    1    4    4    0    0 -0.10148284161E-01  0.20155358651E-01  0.17757236753E-01  0.28719448669E-01  0.51100000000E-03 0.  1.
         11    1    4    4    0    0 -0.43316011644E-01  0.89871331331E-01  0.26993384184E-01  0.10335394028E+00  0.51100000000E-03 0. -1.
</event>
<event>
 8    1  0.1070112E+005  0.1043930E+01  0.7957747E-01            NaN
         13   -1    0    0    0    0  0.00000000000E+00  0.00000000000E+00  0.74505805969E-08  0.10566000000E+00  0.10566000000E+00 0.  1.
     999900   -1    0    0    0    0 -0.00000000000E+00 -0.00000000000E+00 -0.74505805969E-08  0.93827000000E+00  0.93827000000E+00 0.  1.
     999902    2    1    2    0    0  0.17206973597E-01  0.19674331862E-01  0.14424165089E-02  0.10177529138E+01  0.10174162146E+01 0.  0.
     999903    2    3    3    0    0  0.67624710456E-01 -0.55318233621E-01 -0.91764305482E-01  0.12822870051E+00  0.19715563373E-01 0.  0.
         14    1    1    2    0    0 -0.17206973597E-01 -0.19674331862E-01 -0.14424165089E-02  0.26177086163E-01  0.00000000000E+00 0.  1.
     999901    1    3    3    0    0 -0.50417736859E-01  0.74992565483E-01  0.93206721991E-01  0.88952421333E+00  0.88000000000E+00 0.  1.
        -11    1    4    4    0    0  0.77394803687E-02 -0.10511812317E-01 -0.23890066121E-01  0.27228553667E-01  0.51100000000E-03 0.  1.
         11    1    4    4    0    0  0.59885230087E-01 -0.44806421304E-01 -0.67874239361E-01  0.10100014684E+00  0.51100000000E-03 0. -1.
</event>
<event>
 8    1  0.1070112E+005  0.1043930E+01  0.7957747E-01            NaN
         13   -1    0    0    0    0  0.00000000000E+00  0.00000000000E+00  0.74505805969E-08  0.10566000000E+00  0.10566000000E+00 0.  1.
     999900   -1    0    0    0    0 -0.00000000000E+00 -0.00000000000E+00 -0.74505805969E-08  0.93827000000E+00  0.93827000000E+00 0.  1.
     999902    2    1    2    0    0  0.12282111163E-01 -0.14292185980E-01  0.14016773816E-01  0.10204441152E+01  0.10201738114E+01 0.  0.
     999903    2    3    3    0    0 -0.31555856217E-01 -0.12643044010E+00  0.88745479274E-02  0.13223062857E+00  0.20633789868E-01 0.  0.
         14    1    1    2    0    0 -0.12282111163E-01  0.14292185980E-01 -0.14016773816E-01  0.23485884759E-01  0.00000000000E+00 0. -1.
     999901    1    3    3    0    0  0.43837967380E-01  0.11213825412E+00  0.51422258891E-02  0.88821348667E+00  0.88000000000E+00 0.  1.
        -11    1    4    4    0    0 -0.50172088542E-02 -0.41886795853E-01  0.10973996986E-01  0.43593185045E-01  0.51100000000E-03 0.  1.
         11    1    4    4    0    0 -0.26538647363E-01 -0.84543644249E-01 -0.20994490588E-02  0.88637443522E-01  0.51100000000E-03 0. -1.
</event>
<event>
 8    1  0.1070112E+005  0.1043930E+01  0.7957747E-01            NaN
         13   -1    0    0    0    0  0.00000000000E+00  0.00000000000E+00  0.74505805969E-08  0.10566000000E+00  0.10566000000E+00 0.  1.
     999900   -1    0    0    0    0 -0.00000000000E+00 -0.00000000000E+00 -0.74505805969E-08  0.93827000000E+00  0.93827000000E+00 0. -1.
     999902    2    1    2    0    0  0.18654538866E-01  0.10633599672E-01  0.10270846934E-01  0.10201275724E+01  0.10198498460E+01 0.  0.
     999903    2    3    3    0    0 -0.24951543117E-01 -0.10019757137E+00 -0.73195685737E-01  0.12819052254E+00  0.20324095199E-01 0.  0.
         14    1    1    2    0    0 -0.18654538866E-01 -0.10633599672E-01 -0.10270846934E-01  0.23802427587E-01  0.00000000000E+00 0. -1.
     999901    1    3    3    0    0  0.43606081983E-01  0.11083117104E+00  0.83466532671E-01  0.89193704987E+00  0.88000000000E+00 0.  1.
        -11    1    4    4    0    0 -0.12142624877E-01 -0.49187541460E-01 -0.23579548866E-01  0.55884826380E-01  0.51100000000E-03 0. -1.
         11    1    4    4    0    0 -0.12808918240E-01 -0.51010029912E-01 -0.49616136871E-01  0.72305696160E-01  0.51100000000E-03 0.  1.
</event>
<event>
 8    1  0.1070112E+005  0.1043930E+01  0.7957747E-01            NaN
         13   -1    0    0    0    0  0.00000000000E+00  0.00000000000E+00  0.74505805969E-08  0.10566000000E+00  0.10566000000E+00 0.  1.
     999900   -1    0    0    0    0 -0.00000000000E+00 -0.00000000000E+00 -0.74505805969E-08  0.93827000000E+00  0.93827000000E+00 0.  1.
     999902    2    1    2    0    0 -0.16826378257E-01 -0.16161503879E-01  0.32291368279E-02  0.10203768996E+01  0.10201050283E+01 0.  0.
     999903    2    3    3    0    0 -0.12825201147E+00  0.21673755599E-01  0.15303362009E-01  0.13246194563E+00  0.19840464327E-01 0.  0.
         14    1    1    2    0    0  0.16826378257E-01  0.16161503879E-01 -0.32291368279E-02  0.23553100381E-01  0.00000000000E+00 0.  1.
     999901    1    3    3    0    0  0.11142563321E+00 -0.37835259479E-01 -0.12074225181E-01  0.88791495399E+00  0.88000000000E+00 0.  1.
        -11    1    4    4    0    0 -0.67946626332E-01  0.13341429130E-01 -0.16482431032E-02  0.69265544013E-01  0.51100000000E-03 0.  1.
         11    1    4    4    0    0 -0.60305385138E-01  0.83323264693E-02  0.16951605112E-01  0.63196401621E-01  0.51100000000E-03 0. -1.
</event>
<event>
 8    1  0.1070112E+005  0.1043930E+01  0.7957747E-01            NaN
         13   -1    0    0    0    0  0.00000000000E+00  0.00000000000E+00  0.74505805969E-08  0.10566000000E+00  0.10566000000E+00 0.  1.
     999900   -1    0    0    0    0 -0.00000000000E+00 -0.00000000000E+00 -0.74505805969E-08  0.93827000000E+00  0.93827000000E+00 0.  1.
     999902    2    1    2    0    0 -0.11565465105E-01  0.74306632433E-02 -0.19081400052E-01  0.10204124626E+01  0.10201414212E+01 0.  0.
     999903    2    3    3    0    0 -0.51540005115E-01 -0.31600086118E-01 -0.11702821718E+00  0.13321747710E+00  0.19908666916E-01 0.  0.
         14    1    1    2    0    0  0.11565465105E-01 -0.74306632433E-02  0.19081400052E-01  0.23517537441E-01  0.00000000000E+00 0.  1.
     999901    1    3    3    0    0  0.39974540010E-01  0.39030749361E-01  0.97946817126E-01  0.88719498546E+00  0.88000000000E+00 0. -1.
        -11    1    4    4    0    0 -0.30305354777E-02 -0.63020551033E-02 -0.52222430537E-02  0.87425961429E-02  0.51100000000E-03 0.  1.
         11    1    4    4    0    0 -0.48509469637E-01 -0.25298031015E-01 -0.11180597412E+00  0.12447488095E+00  0.51100000000E-03 0. -1.
</event>
<event>
 8    1  0.1070112E+005  0.1043930E+01  0.7957747E-01            NaN
         13   -1    0    0    0    0  0.00000000000E+00  0.00000000000E+00  0.74505805969E-08  0.10566000000E+00  0.10566000000E+00 0.  1.
     999900   -1    0    0    0    0 -0.00000000000E+00 -0.00000000000E+00 -0.74505805969E-08  0.93827000000E+00  0.93827000000E+00 0. -1.
     999902    2    1    2    0    0  0.53880742121E-02  0.50915265866E-02  0.21614841441E-01  0.10210792592E+01  0.10208235387E+01 0.  0.
     999903    2    3    3    0    0 -0.95830322000E-01 -0.64025820645E-02 -0.83660131314E-01  0.12896934544E+00  0.20239338404E-01 0.  0.
         14    1    1    2    0    0 -0.53880742121E-02 -0.50915265866E-02 -0.21614841441E-01  0.22850740846E-01  0.00000000000E+00 0. -1.
     999901    1    3    3    0    0  0.10121839621E+00  0.11494108651E-01  0.10527497275E+00  0.89210991372E+00  0.88000000000E+00 0.  1.
        -11    1    4    4    0    0 -0.47733742539E-01 -0.13012448898E-01 -0.38987576180E-01  0.62993064860E-01  0.51100000000E-03 0.  1.
         11    1    4    4    0    0 -0.48096579461E-01  0.66098668336E-02 -0.44672555134E-01  0.65976280575E-01  0.51100000000E-03 0. -1.
</event>
<event>
 8    1  0.1070112E+005  0.1043930E+01  0.7957747E-01            NaN
         13   -1    0    0    0    0  0.00000000000E+00  0.00000000000E+00  0.74505805969E-08  0.10566000000E+00  0.10566000000E+00 0. -1.
     999900   -1    0    0    0    0 -0.00000000000E+00 -0.00000000000E+00 -0.74505805969E-08  0.93827000000E+00  0.93827000000E+00 0.  1.
     999902    2    1    2    0    0 -0.22076566164E-01  0.11085988844E-01 -0.33848470764E-02  0.10189954635E+01  0.10186903472E+01 0.  0.
     999903    2    3    3    0    0 -0.35116971673E-01  0.42981918947E-02 -0.12412175982E+00  0.13062981327E+00  0.20155909828E-01 0.  0.
         14    1    1    2    0    0  0.22076566164E-01 -0.11085988844E-01  0.33848470764E-02  0.24934536530E-01  0.00000000000E+00 0. -1.
     999901    1    3    3    0    0  0.13040405509E-01  0.67877969490E-02  0.12073691274E+00  0.88836565020E+00  0.88000000000E+00 0. -1.
        -11    1    4    4    0    0 -0.21829447422E-01  0.80394314829E-02 -0.10142572102E+00  0.10406053642E+00  0.51100000000E-03 0.  1.
         11    1    4    4    0    0 -0.13287524252E-01 -0.37412395883E-02 -0.22696038793E-01  0.26569276849E-01  0.51100000000E-03 0. -1.
</event>
<event>
 8    1  0.1070112E+005  0.1043930E+01  0.7957747E-01            NaN
         13   -1    0    0    0    0  0.00000000000E+00  0.00000000000E+00  0.74505805969E-08  0.10566000000E+00  0.10566000000E+00 0.  1.
     999900   -1    0    0    0    0 -0.00000000000E+00 -0.00000000000E+00 -0.74505805969E-08  0.93827000000E+00  0.93827000000E+00 0. -1.
     999902    2    1    2    0    0  0.24158331628E-02  0.23685931562E-01 -0.26917378186E-03  0.10201196649E+01  0.10198417518E+01 0.  0.
     999903    2    3    3    0    0  0.10091782322E+00  0.56509524347E-01  0.61044403719E-01  0.13189706605E+00  0.17107992923E-01 0.  0.
         14    1    1    2    0    0 -0.24158331628E-02 -0.23685931562E-01  0.26917378186E-03  0.23810335116E-01  0.00000000000E+00 0. -1.
     999901    1    3    3    0    0 -0.98501990060E-01 -0.32823592785E-01 -0.61313577501E-01  0.88822259883E+00  0.88000000000E+00 0. -1.
        -11    1    4    4    0    0  0.63828441749E-01  0.42090130031E-01  0.33368826459E-01  0.83422950814E-01  0.51100000000E-03 0.  1.
         11    1    4    4    0    0  0.37089381473E-01  0.14419394316E-01  0.27675577259E-01  0.48474115239E-01  0.51100000000E-03 0. -1.
</event>
<event>
 8    1  0.1070112E+005  0.1043930E+01  0.7957747E-01            NaN
         13   -1    0    0    0    0  0.00000000000E+00  0.00000000000E+00  0.74505805969E-08  0.10566000000E+00  0.10566000000E+00 0. -1.
     999900   -1    0    0    0    0 -0.00000000000E+00 -0.00000000000E+00 -0.74505805969E-08  0.93827000000E+00  0.93827000000E+00 0. -1.
     999902    2    1    2    0    0  0.11749336234E-01  0.19121448323E-01  0.81684692089E-02  0.10200469395E+01  0.10197673059E+01 0.  0.
     999903    2    3    3    0    0 -0.99947437884E-01 -0.67905344608E-01 -0.35724061709E-01  0.12764770920E+00  0.20423097530E-01 0.  0.
         14    1    1    2    0    0 -0.11749336234E-01 -0.19121448323E-01 -0.81684692089E-02  0.23883060464E-01  0.00000000000E+00 0.  1.
     999901    1    3    3    0    0  0.11169677412E+00  0.87026792931E-01  0.43892530918E-01  0.89239923034E+00  0.88000000000E+00 0.  1.
        -11    1    4    4    0    0 -0.67328972180E-01 -0.33863665113E-01 -0.23357156274E-01  0.78903461140E-01  0.51100000000E-03 0. -1.
         11    1    4    4    0    0 -0.32618465705E-01 -0.34041679496E-01 -0.12366905435E-01  0.48744248059E-01  0.51100000000E-03 0.  1.
</event>
<event>
 8    1  0.1070112E+005  0.1043930E+01  0.7957747E-01            NaN
         13   -1    0    0    0    0  0.00000000000E+00  0.00000000000E+00  0.74505805969E-08  0.10566000000E+00  0.10566000000E+00 0. -1.
     999900   -1    0    0    0    0 -0.00000000000E+00 -0.00000000000E+00 -0.74505805969E-08  0.93827000000E+00  0.93827000000E+00 0.  1.
     999902    2    1    2    0    0  0.89898555928E-02  0.12326177299E-02  0.21623930511E-01  0.10204793876E+01  0.10202099046E+01 0.  0.
     999903    2    3    3    0    0 -0.53294179283E-01  0.94411516437E-01 -0.66832855031E-01  0.12897155756E+00  0.20328014299E-01 0.  0.
         14    1    1    2    0    0 -0.89898555928E-02 -0.12326177299E-02 -0.21623930511E-01  0.23450612376E-01  0.00000000000E+00 0.  1.
     999901    1    3    3    0    0  0.62284034876E-01 -0.93178898707E-01  0.88456785543E-01  0.89150783007E+00  0.88000000000E+00 0. -1.
        -11    1    4    4    0    0 -0.20423915892E-01  0.54489188772E-01 -0.29927032425E-01  0.65437729363E-01  0.51100000000E-03 0. -1.
         11    1    4    4    0    0 -0.32870263391E-01  0.39922327665E-01 -0.36905822606E-01  0.63533828193E-01  0.51100000000E-03 0.  1.
</event>
<event>
 8    1  0.1070112E+005  0.1043930E+01  0.7957747E-01            NaN
         13   -1    0    0    0    0  0.00000000000E+00  0.00000000000E+00  0.74505805969E-08  0.10566000000E+00  0.10566000000E+00 0.  1.
     999900   -1    0    0    0    0 -0.00000000000E+00 -0.00000000000E+00 -0.74505805969E-08  0.93827000000E+00  0.93827000000E+00 0.  1.
     999902    2    1    2    0    0  0.19563231264E-01 -0.39441631226E-02 -0.11632404538E-01  0.10208304486E+01  0.10205690645E+01 0.  0.
     999903    2    3    3    0    0 -0.37406603057E-01  0.13717390297E-01 -0.12395325766E+00  0.13168846524E+00  0.19748950464E-01 0.  0.
         14    1    1    2    0    0 -0.19563231264E-01  0.39441631226E-02  0.11632404538E-01  0.23099551415E-01  0.00000000000E+00 0. -1.
     999901    1    3    3    0    0  0.56969834322E-01 -0.17661553420E-01  0.11232085312E+00  0.88914198334E+00  0.88000000000E+00 0. -1.
        -11    1    4    4    0    0 -0.12639040633E-01  0.63791243778E-02 -0.19597340778E-01  0.24181717527E-01  0.51100000000E-03 0. -1.
         11    1    4    4    0    0 -0.24767562424E-01  0.73382659193E-02 -0.10435591688E+00  0.10750674772E+00  0.51100000000E-03 0.  1.
</event>
<event>
 8    1  0.1070112E+005  0.1043930E+01  0.7957747E-01            NaN
         13   -1    0    0    0    0  0.00000000000E+00  0.00000000000E+00  0.74505805969E-08  0.10566000000E+00  0.10566000000E+00 0. -1.
     999900   -1    0    0    0    0 -0.00000000000E+00 -0.00000000000E+00 -0.74505805969E-08  0.93827000000E+00  0.93827000000E+00 0.  1.
     999902    2    1    2    0    0 -0.18364084899E-01  0.23875540691E-02 -0.14144564436E-01  0.10206274522E+01  0.10203614005E+01 0.  0.
     999903    2    3    3    0    0  0.12166967555E+00  0.36745916961E-01  0.52633753415E-02  0.12868203952E+00  0.19431721821E-01 0.  0.
         14    1    1    2    0    0  0.18364084899E-01 -0.23875540691E-02  0.14144564436E-01  0.23302547751E-01  0.00000000000E+00 0. -1.
     999901    1    3    3    0    0 -0.14003376045E+00 -0.34358362891E-01 -0.19407939778E-01  0.89194541273E+00  0.88000000000E+00 0.  1.
        -11    1    4    4    0    0  0.38122672155E-01  0.19664521341E-01 -0.30143194909E-02  0.43004404132E-01  0.51100000000E-03 0.  1.
         11    1    4    4    0    0  0.83547003394E-01  0.17081395620E-01  0.82776948324E-02  0.85677635385E-01  0.51100000000E-03 0. -1.
</event>
<event>
 8    1  0.1070112E+005  0.1043930E+01  0.7957747E-01            NaN
         13   -1    0    0    0    0  0.00000000000E+00  0.00000000000E+00  0.74505805969E-08  0.10566000000E+00  0.10566000000E+00 0. -1.
     999900   -1    0    0    0    0 -0.00000000000E+00 -0.00000000000E+00 -0.74505805969E-08  0.93827000000E+00  0.93827000000E+00 0.  1.
     999902    2    1    2    0    0 -0.22417317067E-01 -0.25317048350E-02  0.19451677846E-02  0.10212864731E+01  0.10210354209E+01 0.  0.
     999903    2    3    3    0    0 -0.12822324787E+00 -0.14363439378E-01 -0.31405709868E-01  0.13424241218E+00  0.19677320165E-01 0.  0.
         14    1    1    2    0    0  0.22417317067E-01  0.25317048350E-02 -0.19451677846E-02  0.22643526924E-01  0.00000000000E+00 0.  1.
     999901    1    3    3    0    0  0.10580593081E+00  0.11831734543E-01  0.33350877653E-01  0.88704406090E+00  0.88000000000E+00 0. -1.
        -11    1    4    4    0    0 -0.52738673987E-01  0.18074746936E-02 -0.18801030808E-01  0.56021197587E-01  0.51100000000E-03 0. -1.
         11    1    4    4    0    0 -0.75484573887E-01 -0.16170914071E-01 -0.12604679061E-01  0.78221214590E-01  0.51100000000E-03 0.  1.
</event>
<event>
 8    1  0.1070112E+005  0.1043930E+01  0.7957747E-01            NaN
         13   -1    0    0    0    0  0.00000000000E+00  0.00000000000E+00  0.74505805969E-08  0.10566000000E+00  0.10566000000E+00 0. -1.
     999900   -1    0    0    0    0 -0.00000000000E+00 -0.00000000000E+00 -0.74505805969E-08  0.93827000000E+00  0.93827000000E+00 0.  1.
     999902    2    1    2    0    0 -0.12490496199E-01 -0.10203217258E-01  0.17532529311E-01  0.10201075794E+01  0.10198293808E+01 0.  0.
     999903    2    3    3    0    0  0.56354335262E-01 -0.44388219788E-01 -0.10465867186E+00  0.12834588769E+00  0.19315903594E-01 0.  0.
         14    1    1    2    0    0  0.12490496199E-01  0.10203217258E-01 -0.17532529311E-01  0.23822420568E-01  0.00000000000E+00 0.  1.
     999901    1    3    3    0    0 -0.68844831460E-01  0.34185002530E-01  0.12219120117E+00  0.89176169174E+00  0.88000000000E+00 0. -1.
        -11    1    4    4    0    0  0.72574450813E-02 -0.89124651539E-02 -0.30464371596E-01  0.32564422335E-01  0.51100000000E-03 0. -1.
         11    1    4    4    0    0  0.49096890181E-01 -0.35475754635E-01 -0.74194300266E-01  0.95781465354E-01  0.51100000000E-03 0.  1.
</event>
<event>
 8    1  0.1070112E+005  0.1043930E+01  0.7957747E-01            NaN
         13   -1    0    0    0    0  0.00000000000E+00  0.00000000000E+00  0.74505805969E-08  0.10566000000E+00  0.10566000000E+00 0. -1.
     999900   -1    0    0    0    0 -0.00000000000E+00 -0.00000000000E+00 -0.74505805969E-08  0.93827000000E+00  0.93827000000E+00 0. -1.
     999902    2    1    2    0    0 -0.22804705278E-01 -0.15739988589E-01 -0.25000102850E-01  0.10066096709E+01  0.10059176023E+01 0.  0.
     999903    2    3    3    0    0 -0.57410474837E-01  0.99413041637E-01 -0.21600550600E-01  0.11842650473E+00  0.19476595415E-01 0.  0.
         14    1    1    2    0    0  0.22804705278E-01  0.15739988589E-01  0.25000102850E-01  0.37320329127E-01  0.00000000000E+00 0. -1.
     999901    1    3    3    0    0  0.34605769558E-01 -0.11515303023E+00 -0.33995522501E-02  0.88818316614E+00  0.88000000000E+00 0. -1.
        -11    1    4    4    0    0 -0.36620623609E-01  0.59334976014E-01 -0.36073037001E-02  0.69821080006E-01  0.51100000000E-03 0. -1.
         11    1    4    4    0    0 -0.20789851227E-01  0.40078065623E-01 -0.17993246900E-01  0.48605424729E-01  0.51100000000E-03 0.  1.
</event>
<event>
 8    1  0.1070112E+005  0.1043930E+01  0.7957747E-01            NaN
         13   -1    0    0    0    0  0.00000000000E+00  0.00000000000E+00  0.74505805969E-08  0.10566000000E+00  0.10566000000E+00 0.  1.
     999900   -1    0    0    0    0 -0.00000000000E+00 -0.00000000000E+00 -0.74505805969E-08  0.93827000000E+00  0.93827000000E+00 0. -1.
     999902    2    1    2    0    0 -0.99878681267E-02  0.14402690995E-01  0.14981321218E-01  0.10208727885E+01  0.10206123727E+01 0.  0.
     999903    2    3    3    0    0  0.10020952767E+00  0.29067330676E-01 -0.73951865374E-01  0.12943146715E+00  0.19919014741E-01 0.  0.
         14    1    1    2    0    0  0.99878681267E-02 -0.14402690995E-01 -0.14981321218E-01  0.23057211519E-01  0.00000000000E+00 0. -1.
     999901    1    3    3    0    0 -0.11019739580E+00 -0.14664639681E-01  0.88933186592E-01  0.89144132133E+00  0.88000000000E+00 0. -1.
        -11    1    4    4    0    0  0.64551152494E-01  0.86634685987E-02 -0.46016115418E-01  0.79747419869E-01  0.51100000000E-03 0. -1.
         11    1    4    4    0    0  0.35658375175E-01  0.20403862077E-01 -0.27935749956E-01  0.49684047282E-01  0.51100000000E-03 0.  1.
</event>
<event>
 8    1  0.1070112E+005  0.1043930E+01  0.7957747E-01            NaN
         13   -1    0    0    0    0  0.00000000000E+00  0.00000000000E+00  0.74505805969E-08  0.10566000000E+00  0.10566000000E+00 0. -1.
     999900   -1    0    0    0    0 -0.00000000000E+00 -0.00000000000E+00 -0.74505805969E-08  0.93827000000E+00  0.93827000000E+00 0. -1.
     999902    2    1    2    0    0 -0.11304908283E-01  0.21046200858E-01  0.52008237749E-02  0.10194802129E+01  0.10191869860E+01 0.  0.
     999903    2    3    3    0    0  0.19024664067E-01  0.46906729842E-01 -0.11793118566E+00  0.13001400124E+00  0.20825388808E-01 0.  0.
         14    1    1    2    0    0  0.11304908283E-01 -0.21046200858E-01 -0.52008237749E-02  0.24449787111E-01  0.00000000000E+00 0. -1.
     999901    1    3    3    0    0 -0.30329572351E-01 -0.25860528985E-01  0.12313200944E+00  0.88946621165E+00  0.88000000000E+00 0.  1.
        -11    1    4    4    0    0 -0.20613946114E-02  0.21424975131E-01 -0.42245651053E-01  0.47415557162E-01  0.51100000000E-03 0. -1.
         11    1    4    4    0    0  0.21086058679E-01  0.25481754711E-01 -0.75685534610E-01  0.82598444077E-01  0.51100000000E-03 0.  1.
</event>
<event>
 8    1  0.1070112E+005  0.1043930E+01  0.7957747E-01            NaN
         13   -1    0    0    0    0  0.00000000000E+00  0.00000000000E+00  0.74505805969E-08  0.10566000000E+00  0.10566000000E+00 0.  1.
     999900   -1    0    0    0    0 -0.00000000000E+00 -0.00000000000E+00 -0.74505805969E-08  0.93827000000E+00  0.93827000000E+00 0. -1.
     999902    2    1    2    0    0 -0.97338723556E-02 -0.78412425792E-02  0.19134703808E-01  0.10210745795E+01  0.10208187531E+01 0.  0.
     999903    2    3    3    0    0  0.96472934065E-01 -0.31408357523E-01 -0.77216931326E-01  0.12915589923E+00  0.20622315387E-01 0.  0.
         14    1    1    2    0    0  0.97338723556E-02  0.78412425792E-02 -0.19134703808E-01  0.22855420496E-01  0.00000000000E+00 0. -1.
     999901    1    3    3    0    0 -0.10620680642E+00  0.23567114944E-01  0.96351635135E-01  0.89191868028E+00  0.88000000000E+00 0.  1.
        -11    1    4    4    0    0  0.32935763571E-01 -0.17749367923E-01 -0.37582178929E-01  0.53032875443E-01  0.51100000000E-03 0. -1.
         11    1    4    4    0    0  0.63537170493E-01 -0.13658989600E-01 -0.39634752397E-01  0.76123023782E-01  0.51100000000E-03 0.  1.
</event>
<event>
 8    1  0.1070112E+005  0.1043930E+01  0.7957747E-01            NaN
         13   -1    0    0    0    0  0.00000000000E+00  0.00000000000E+00  0.74505805969E-08  0.10566000000E+00  0.10566000000E+00 0.  1.
     999900   -1    0    0    0    0 -0.00000000000E+00 -0.00000000000E+00 -0.74505805969E-08  0.93827000000E+00  0.93827000000E+00 0. -1.
     999902    2    1    2    0    0 -0.10604700531E-01 -0.60004615561E-02 -0.20815940768E-01  0.10198101202E+01  0.10195248465E+01 0.  0.
     999903    2    3    3    0    0  0.10499068353E+00 -0.69954864504E-01  0.18057130978E-01  0.12910052993E+00  0.20595148763E-01 0.  0.
         14    1    1    2    0    0  0.10604700531E-01  0.60004615561E-02  0.20815940768E-01  0.24119879815E-01  0.00000000000E+00 0.  1.
     999901    1    3    3    0    0 -0.11559538406E+00  0.63954402948E-01 -0.38873071746E-01  0.89070959026E+00  0.88000000000E+00 0. -1.
        -11    1    4    4    0    0  0.45872670594E-01 -0.37380323963E-01  0.17083990265E-01  0.61593135749E-01  0.51100000000E-03 0.  1.
         11    1    4    4    0    0  0.59118012934E-01 -0.32574540541E-01  0.97314071306E-03  0.67507394177E-01  0.51100000000E-03 0. -1.
</event>
<event>
 8    1  0.1070112E+005  0.1043930E+01  0.7957747E-01            NaN
         13   -1    0    0    0    0  0.00000000000E+00  0.00000000000E+00  0.74505805969E-08  0.10566000000E+00  0.10566000000E+00 0.  1.
     999900   -1    0    0    0    0 -0.00000000000E+00 -0.00000000000E+00 -0.74505805969E-08  0.93827000000E+00  0.93827000000E+00 0. -1.
     999902    2    1    2    0    0 -0.50364386252E-02 -0.21500634992E-01 -0.21304985414E-02  0.10217448238E+01  0.10215039417E+01 0.  0.
     999903    2    3    3    0    0  0.68610300622E-01 -0.11285012872E+00  0.95526638064E-02  0.13387936750E+00  0.19746056621E-01 0.  0.
         14    1    1    2    0    0  0.50364386252E-02  0.21500634992E-01  0.21304985414E-02  0.22185176202E-01  0.00000000000E+00 0.  1.
     999901    1    3    3    0    0 -0.73646739247E-01  0.91349493730E-01 -0.11683162348E-01  0.88786545630E+00  0.88000000000E+00 0. -1.
        -11    1    4    4    0    0  0.46676647279E-01 -0.58595995269E-01  0.79261650372E-02  0.75334489286E-01  0.51100000000E-03 0.  1.
         11    1    4    4    0    0  0.21933653343E-01 -0.54254133453E-01  0.16264987693E-02  0.58544878213E-01  0.51100000000E-03 0. -1.
</event>
<event>
 8    1  0.1070112E+005  0.1043930E+01  0.7957747E-01            NaN
         13   -1    0    0    0    0  0.00000000000E+00  0.00000000000E+00  0.74505805969E-08  0.10566000000E+00  0.10566000000E+00 0.  1.
     999900   -1    0    0    0    0 -0.00000000000E+00 -0.00000000000E+00 -0.74505805969E-08  0.93827000000E+00  0.93827000000E+00 0. -1.
     999902    2    1    2    0    0  0.11725425490E-01 -0.20128440687E-01 -0.94373302631E-02  0.10187962989E+01  0.10184862276E+01 0.  0.
     999903    2    3    3    0    0  0.97764641153E-01  0.30098111260E-01  0.76190708473E-01  0.12904486500E+00  0.19589072551E-01 0.  0.
         14    1    1    2    0    0 -0.11725425490E-01  0.20128440687E-01  0.94373302631E-02  0.25133701078E-01  0.00000000000E+00 0.  1.
     999901    1    3    3    0    0 -0.86039215663E-01 -0.50226551947E-01 -0.85628038736E-01  0.88975143392E+00  0.88000000000E+00 0. -1.
        -11    1    4    4    0    0  0.19045584513E-01  0.12998830312E-01  0.22598621222E-01  0.32290287720E-01  0.51100000000E-03 0.  1.
         11    1    4    4    0    0  0.78719056640E-01  0.17099280948E-01  0.53592087251E-01  0.96754577277E-01  0.51100000000E-03 0. -1.
</event>
<event>
 8    1  0.1407167E+005  0.1043930E+01  0.7957747E-01            NaN
         13   -1    0    0    0    0  0.00000000000E+00  0.00000000000E+00  0.74505805969E-08  0.10566000000E+00  0.10566000000E+00 0.  1.
     999900   -1    0    0    0    0 -0.00000000000E+00 -0.00000000000E+00 -0.74505805969E-08  0.93827000000E+00  0.93827000000E+00 0.  1.
     999902    2    1    2    0    0 -0.11676974631E-02 -0.20911724298E-01 -0.12745976083E-01  0.10194121772E+01  0.10191172961E+01 0.  0.
     999903    2    3    3    0    0 -0.21198131033E-01 -0.11843133757E+00 -0.52834982987E-01  0.13289177598E+00  0.19832957820E-01 0.  0.
         14    1    1    2    0    0  0.11676974631E-02  0.20911724298E-01  0.12745976083E-01  0.24517822839E-01  0.00000000000E+00 0.  1.
     999901    1    3    3    0    0  0.20030433570E-01  0.97519613276E-01  0.40089006904E-01  0.88652040118E+00  0.88000000000E+00 0. -1.
        -11    1    4    4    0    0 -0.35440802049E-02 -0.67416686065E-01 -0.23731670288E-01  0.71561325869E-01  0.51100000000E-03 0.  1.
         11    1    4    4    0    0 -0.17654050828E-01 -0.51014651509E-01 -0.29103312699E-01  0.61330450107E-01  0.51100000000E-03 0. -1.
</event>
<event>
 8    1  0.1070112E+005  0.1043930E+01  0.7957747E-01            NaN
         13   -1    0    0    0    0  0.00000000000E+00  0.00000000000E+00  0.74505805969E-08  0.10566000000E+00  0.10566000000E+00 0. -1.
     999900   -1    0    0    0    0 -0.00000000000E+00 -0.00000000000E+00 -0.74505805969E-08  0.93827000000E+00  0.93827000000E+00 0.  1.
     999902    2    1    2    0    0 -0.83214430455E-02  0.20939400678E-01 -0.19647884719E-03  0.10213968351E+01  0.10211482514E+01 0.  0.
     999903    2    3    3    0    0 -0.80291222676E-01  0.93758920563E-01 -0.48272746577E-01  0.13415748796E+00  0.20749888875E-01 0.  0.
         14    1    1    2    0    0  0.83214430455E-02 -0.20939400678E-01  0.19647884719E-03  0.22533164870E-01  0.00000000000E+00 0. -1.
     999901    1    3    3    0    0  0.71969779631E-01 -0.72819519885E-01  0.48076267730E-01  0.88723934717E+00  0.88000000000E+00 0. -1.
        -11    1    4    4    0    0 -0.45435898257E-01  0.60985779422E-01 -0.20220974379E-01  0.78694568224E-01  0.51100000000E-03 0. -1.
         11    1    4    4    0    0 -0.34855324419E-01  0.32773141141E-01 -0.28051772198E-01  0.55462919731E-01  0.51100000000E-03 0.  1.
</event>
<event>
 8    1  0.1070112E+005  0.1043930E+01  0.7957747E-01            NaN
         13   -1    0    0    0    0  0.00000000000E+00  0.00000000000E+00  0.74505805969E-08  0.10566000000E+00  0.10566000000E+00 0.  1.
     999900   -1    0    0    0    0 -0.00000000000E+00 -0.00000000000E+00 -0.74505805969E-08  0.93827000000E+00  0.93827000000E+00 0. -1.
     999902    2    1    2    0    0 -0.20296728452E-01  0.78719043343E-02  0.10519170471E-01  0.10197519726E+01  0.10194653052E+01 0.  0.
     999903    2    3    3    0    0 -0.11850107480E+00  0.59915383083E-02 -0.52035686471E-01  0.13208044573E+00  0.25673492507E-01 0.  0.
         14    1    1    2    0    0  0.20296728452E-01 -0.78719043343E-02 -0.10519170471E-01  0.24178027444E-01  0.00000000000E+00 0.  1.
     999901    1    3    3    0    0  0.98204346345E-01  0.18803660260E-02  0.62554856942E-01  0.88767152683E+00  0.88000000000E+00 0. -1.
        -11    1    4    4    0    0 -0.27400720494E-01 -0.91310470508E-02 -0.15353427904E-01  0.32713366889E-01  0.51100000000E-03 0. -1.
         11    1    4    4    0    0 -0.91100354303E-01  0.15122585359E-01 -0.36682258567E-01  0.99367078837E-01  0.51100000000E-03 0.  1.
</event>
<event>
 8    1  0.1070112E+005  0.1043930E+01  0.7957747E-01            NaN
         13   -1    0    0    0    0  0.00000000000E+00  0.00000000000E+00  0.74505805969E-08  0.10566000000E+00  0.10566000000E+00 0.  1.
     999900   -1    0    0    0    0 -0.00000000000E+00 -0.00000000000E+00 -0.74505805969E-08  0.93827000000E+00  0.93827000000E+00 0.  1.
     999902    2    1    2    0    0 -0.14762081259E-02  0.13503049776E-01 -0.18946914952E-01  0.10206169751E+01  0.10203506813E+01 0.  0.
     999903    2    3    3    0    0  0.24695892529E-01 -0.89308035272E-01  0.86037733298E-01  0.12804940095E+00  0.20207554542E-01 0.  0.
         14    1    1    2    0    0  0.14762081259E-02 -0.13503049776E-01  0.18946914952E-01  0.23313024898E-01  0.00000000000E+00 0.  1.
     999901    1    3    3    0    0 -0.26172100654E-01  0.10281108505E+00 -0.10498464825E+00  0.89256757415E+00  0.88000000000E+00 0.  1.
        -11    1    4    4    0    0  0.18836240822E-01 -0.31606692368E-01  0.31597807624E-01  0.48502263230E-01  0.51100000000E-03 0.  1.
         11    1    4    4    0    0  0.58596517064E-02 -0.57701342904E-01  0.54439925673E-01  0.79547137720E-01  0.51100000000E-03 0. -1.
</event>
<event>
 8    1  0.1070112E+005  0.1043930E+01  0.7957747E-01            NaN
         13   -1    0    0    0    0  0.00000000000E+00  0.00000000000E+00  0.74505805969E-08  0.10566000000E+00  0.10566000000E+00 0.  1.
     999900   -1    0    0    0    0 -0.00000000000E+00 -0.00000000000E+00 -0.74505805969E-08  0.93827000000E+00  0.93827000000E+00 0.  1.
     999902    2    1    2    0    0 -0.15998133169E-01 -0.63288398525E-02 -0.17448543386E-01  0.10194259974E+01  0.10191314527E+01 0.  0.
     999903    2    3    3    0    0 -0.11057935534E+00  0.18589209451E-01 -0.67536188029E-01  0.13259157713E+00  0.21119590345E-01 0.  0.
         14    1    1    2    0    0  0.15998133169E-01  0.63288398525E-02  0.17448543386E-01  0.24504002634E-01  0.00000000000E+00 0.  1.
     999901    1    3    3    0    0  0.94581222173E-01 -0.24918049304E-01  0.50087644643E-01  0.88683442024E+00  0.88000000000E+00 0. -1.
        -11    1    4    4    0    0 -0.81616240717E-01  0.23009858037E-01 -0.50076951293E-01  0.98481604818E-01  0.51100000000E-03 0.  1.
         11    1    4    4    0    0 -0.28963114625E-01 -0.44206485863E-02 -0.17459236737E-01  0.34109972312E-01  0.51100000000E-03 0. -1.
</event>
<event>
 8    1  0.1070112E+005  0.1043930E+01  0.7957747E-01            NaN
         13   -1    0    0    0    0  0.00000000000E+00  0.00000000000E+00  0.74505805969E-08  0.10566000000E+00  0.10566000000E+00 0. -1.
     999900   -1    0    0    0    0 -0.00000000000E+00 -0.00000000000E+00 -0.74505805969E-08  0.93827000000E+00  0.93827000000E+00 0. -1.
     999902    2    1    2    0    0 -0.17501254258E-01  0.14937845365E-01  0.61678744828E-02  0.10201082494E+01  0.10198300666E+01 0.  0.
     999903    2    3    3    0    0 -0.11629516548E+00 -0.57917573120E-01  0.65171427825E-02  0.13158797904E+00  0.19847223688E-01 0.  0.
         14    1    1    2    0    0  0.17501254258E-01 -0.14937845365E-01 -0.61678744828E-02  0.23821750574E-01  0.00000000000E+00 0.  1.
     999901    1    3    3    0    0  0.98793911221E-01  0.72855418485E-01 -0.34926829971E-03  0.88852027039E+00  0.88000000000E+00 0.  1.
        -11    1    4    4    0    0 -0.84083760818E-01 -0.35466752203E-01  0.11600898413E-01  0.91993539502E-01  0.51100000000E-03 0.  1.
         11    1    4    4    0    0 -0.32211404661E-01 -0.22450820918E-01 -0.50837556302E-02  0.39594439539E-01  0.51100000000E-03 0. -1.
</event>
<event>
 8    1  0.1070112E+005  0.1043930E+01  0.7957747E-01            NaN
         13   -1    0    0    0    0  0.00000000000E+00  0.00000000000E+00  0.74505805969E-08  0.10566000000E+00  0.10566000000E+00 0. -1.
     999900   -1    0    0    0    0 -0.00000000000E+00 -0.00000000000E+00 -0.74505805969E-08  0.93827000000E+00  0.93827000000E+00 0. -1.
     999902    2    1    2    0    0 -0.21296730328E-01  0.73496513994E-02 -0.44467168511E-02  0.10209660851E+01  0.10207077963E+01 0.  0.
     999903    2    3    3    0    0  0.92532918770E-02  0.14343030567E-03  0.12849552103E+00  0.13042755581E+00  0.20361837015E-01 0.  0.
         14    1    1    2    0    0  0.21296730328E-01 -0.73496513994E-02  0.44467168511E-02  0.22963914935E-01  0.00000000000E+00 0. -1.
     999901    1    3    3    0    0 -0.30550022205E-01  0.72062210937E-02 -0.13294223788E+00  0.89053852926E+00  0.88000000000E+00 0. -1.
        -11    1    4    4    0    0  0.15460951516E-01 -0.53551951870E-03  0.76059795812E-01  0.77618821576E-01  0.51100000000E-03 0.  1.
         11    1    4    4    0    0 -0.62076596394E-02  0.67894982438E-03  0.52435725218E-01  0.52808734232E-01  0.51100000000E-03 0. -1.
</event>
<event>
 8    1  0.1070112E+005  0.1043930E+01  0.7957747E-01            NaN
         13   -1    0    0    0    0  0.00000000000E+00  0.00000000000E+00  0.74505805969E-08  0.10566000000E+00  0.10566000000E+00 0.  1.
     999900   -1    0    0    0    0 -0.00000000000E+00 -0.00000000000E+00 -0.74505805969E-08  0.93827000000E+00  0.93827000000E+00 0. -1.
     999902    2    1    2    0    0 -0.89455941431E-02  0.12448329717E-01 -0.18084968045E-01  0.10202223929E+01  0.10199469007E+01 0.  0.
     999903    2    3    3    0    0  0.97470173556E-01  0.54861357925E-03  0.81081782155E-01  0.12820223434E+00  0.18995309464E-01 0.  0.
         14    1    1    2    0    0  0.89455941431E-02 -0.12448329717E-01  0.18084968045E-01  0.23707607144E-01  0.00000000000E+00 0.  1.
     999901    1    3    3    0    0 -0.10641576770E+00  0.11899716138E-01 -0.99166750200E-01  0.89202015852E+00  0.88000000000E+00 0.  1.
        -11    1    4    4    0    0  0.66522368021E-01 -0.60556712207E-02  0.62627281800E-01  0.91566009784E-01  0.51100000000E-03 0.  1.
         11    1    4    4    0    0  0.30947805535E-01  0.66042848000E-02  0.18454500355E-01  0.36636224553E-01  0.51100000000E-03 0. -1.
</event>
<event>
 8    1  0.1070112E+005  0.1043930E+01  0.7957747E-01            NaN
         13   -1    0    0    0    0  0.00000000000E+00  0.00000000000E+00  0.74505805969E-08  0.10566000000E+00  0.10566000000E+00 0. -1.
     999900   -1    0    0    0    0 -0.00000000000E+00 -0.00000000000E+00 -0.74505805969E-08  0.93827000000E+00  0.93827000000E+00 0. -1.
     999902    2    1    2    0    0 -0.19311357628E-01 -0.39187773854E-02 -0.12746560313E-01  0.10204617204E+01  0.10201918264E+01 0.  0.
     999903    2    3    3    0    0 -0.21477970451E-01 -0.31191721361E-01  0.12251161236E+00  0.12970738780E+00  0.19511140201E-01 0.  0.
         14    1    1    2    0    0  0.19311357628E-01  0.39187773854E-02  0.12746560313E-01  0.23468279644E-01  0.00000000000E+00 0. -1.
     999901    1    3    3    0    0  0.21666128232E-02  0.27272943975E-01 -0.13525817267E+00  0.89075433255E+00  0.88000000000E+00 0. -1.
        -11    1    4    4    0    0 -0.11378440571E-01 -0.12053552663E-01  0.83141237531E-01  0.84779027718E-01  0.51100000000E-03 0. -1.
         11    1    4    4    0    0 -0.10099529881E-01 -0.19138168698E-01  0.39370374829E-01  0.44928360087E-01  0.51100000000E-03 0.  1.
</event>
<event>
 8    1  0.1070112E+005  0.1043930E+01  0.7957747E-01            NaN
         13   -1    0    0    0    0  0.00000000000E+00  0.00000000000E+00  0.74505805969E-08  0.10566000000E+00  0.10566000000E+00 0.  1.
     999900   -1    0    0    0    0 -0.00000000000E+00 -0.00000000000E+00 -0.74505805969E-08  0.93827000000E+00  0.93827000000E+00 0.  1.
     999902    2    1    2    0    0  0.13274350007E-01  0.71552543468E-02 -0.15887710774E-01  0.10220250831E+01  0.10217903136E+01 0.  0.
     999903    2    3    3    0    0  0.72345142209E-01  0.24183914480E-01 -0.10975252681E+00  0.13490054983E+00  0.18271832992E-01 0.  0.
         14    1    1    2    0    0 -0.13274350007E-01 -0.71552543468E-02  0.15887710774E-01  0.21904916948E-01  0.00000000000E+00 0.  1.
     999901    1    3    3    0    0 -0.59070792202E-01 -0.17028660133E-01  0.93864816040E-01  0.88712453322E+00  0.88000000000E+00 0. -1.
        -11    1    4    4    0    0  0.38805831538E-01  0.16225512306E-01 -0.74741704584E-01  0.85765630273E-01  0.51100000000E-03 0. -1.
         11    1    4    4    0    0  0.33539310671E-01  0.79584021745E-02 -0.35010822230E-01  0.49134919555E-01  0.51100000000E-03 0.  1.
</event>
<event>
 8    1  0.1070112E+005  0.1043930E+01  0.7957747E-01            NaN
         13   -1    0    0    0    0  0.00000000000E+00  0.00000000000E+00  0.74505805969E-08  0.10566000000E+00  0.10566000000E+00 0. -1.
     999900   -1    0    0    0    0 -0.00000000000E+00 -0.00000000000E+00 -0.74505805969E-08  0.93827000000E+00  0.93827000000E+00 0. -1.
     999902    2    1    2    0    0 -0.43313414600E-02 -0.23253495641E-01 -0.97952618047E-03  0.10202562793E+01  0.10199815834E+01 0.  0.
     999903    2    3    3    0    0 -0.86259631816E-01 -0.98617736111E-01 -0.13610615699E-01  0.13315337780E+00  0.19452280136E-01 0.  0.
         14    1    1    2    0    0  0.43313414600E-02  0.23253495641E-01  0.97952618047E-03  0.23673720660E-01  0.00000000000E+00 0.  1.
     999901    1    3    3    0    0  0.81928290356E-01  0.75364240471E-01  0.12631089518E-01  0.88710290154E+00  0.88000000000E+00 0.  1.
        -11    1    4    4    0    0 -0.44985262306E-01 -0.49147349846E-01  0.27277691908E-02  0.66684613423E-01  0.51100000000E-03 0.  1.
         11    1    4    4    0    0 -0.41274369510E-01 -0.49470386265E-01 -0.16338384890E-01  0.66468764375E-01  0.51100000000E-03 0. -1.
</event>
<event>
 8    1  0.1070112E+005  0.1043930E+01  0.7957747E-01            NaN
         13   -1    0    0    0    0  0.00000000000E+00  0.00000000000E+00  0.74505805969E-08  0.10566000000E+00  0.10566000000E+00 0. -1.
     999900   -1    0    0    0    0 -0.00000000000E+00 -0.00000000000E+00 -0.74505805969E-08  0.93827000000E+00  0.93827000000E+00 0.  1.
     999902    2    1    2    0    0 -0.21227653033E-01 -0.83018233893E-02  0.62112439095E-02  0.10203055831E+01  0.10200320435E+01 0.  0.
     999903    2    3    3    0    0 -0.16050778563E-01 -0.73260687353E-01  0.10686319708E+00  0.13217424721E+00  0.20628449602E-01 0.  0.
         14    1    1    2    0    0  0.21227653033E-01  0.83018233893E-02 -0.62112439095E-02  0.23624416940E-01  0.00000000000E+00 0.  1.
     999901    1    3    3    0    0 -0.51768744692E-02  0.64958863964E-01 -0.10065195317E+00  0.88813133585E+00  0.88000000000E+00 0.  1.
        -11    1    4    4    0    0 -0.38793980975E-02 -0.56670768761E-01  0.84079161823E-01  0.10147015490E+00  0.51100000000E-03 0.  1.
         11    1    4    4    0    0 -0.12171380466E-01 -0.16589918593E-01  0.22784035254E-01  0.30704092314E-01  0.51100000000E-03 0. -1.
</event>
<event>
 8    1  0.1070112E+005  0.1043930E+01  0.7957747E-01            NaN
         13   -1    0    0    0    0  0.00000000000E+00  0.00000000000E+00  0.74505805969E-08  0.10566000000E+00  0.10566000000E+00 0.  1.
     999900   -1    0    0    0    0 -0.00000000000E+00 -0.00000000000E+00 -0.74505805969E-08  0.93827000000E+00  0.93827000000E+00 0. -1.
     999902    2    1    2    0    0 -0.76118043016E-02  0.21891999488E-01  0.24642909330E-02  0.10206218054E+01  0.10203556232E+01 0.  0.
     999903    2    3    3    0    0 -0.15921716369E-01 -0.88363273241E-01  0.90847214379E-01  0.12930995145E+00  0.20156340807E-01 0.  0.
         14    1    1    2    0    0  0.76118043016E-02 -0.21891999488E-01 -0.24642909330E-02  0.23308194613E-01  0.00000000000E+00 0.  1.
     999901    1    3    3    0    0  0.83099120673E-02  0.11025527273E+00 -0.88382923446E-01  0.89131185393E+00  0.88000000000E+00 0. -1.
        -11    1    4    4    0    0 -0.20773939836E-03 -0.65403464802E-02  0.16057245890E-01  0.17346917718E-01  0.51100000000E-03 0. -1.
         11    1    4    4    0    0 -0.15713976971E-01 -0.81822926761E-01  0.74789968489E-01  0.11196303374E+00  0.51100000000E-03 0.  1.
</event>
<event>
 8    1  0.1070112E+005  0.1043930E+01  0.7957747E-01            NaN
         13   -1    0    0    0    0  0.00000000000E+00  0.00000000000E+00  0.74505805969E-08  0.10566000000E+00  0.10566000000E+00 0. -1.
     999900   -1    0    0    0    0 -0.00000000000E+00 -0.00000000000E+00 -0.74505805969E-08  0.93827000000E+00  0.93827000000E+00 0. -1.
     999902    2    1    2    0    0 -0.21890844678E-03 -0.59665231579E-02 -0.23033685631E-01  0.10201350847E+01  0.10198575357E+01 0.  0.
     999903    2    3    3    0    0 -0.11065518624E+00 -0.59034370865E-01 -0.34562276527E-01  0.13157148186E+00  0.19669181365E-01 0.  0.
         14    1    1    2    0    0  0.21890844678E-03  0.59665231579E-02  0.23033685631E-01  0.23794915282E-01  0.00000000000E+00 0. -1.
     999901    1    3    3    0    0  0.11043627779E+00  0.53067847707E-01  0.11528590896E-01  0.88856360286E+00  0.88000000000E+00 0.  1.
        -11    1    4    4    0    0 -0.82160567966E-01 -0.34345143375E-01 -0.27574569798E-01  0.93223204314E-01  0.51100000000E-03 0.  1.
         11    1    4    4    0    0 -0.28494618273E-01 -0.24689227490E-01 -0.69877067297E-02  0.38348277548E-01  0.51100000000E-03 0. -1.
</event>
<event>
 8    1  0.1070112E+005  0.1043930E+01  0.7957747E-01            NaN
         13   -1    0    0    0    0  0.00000000000E+00  0.00000000000E+00  0.74505805969E-08  0.10566000000E+00  0.10566000000E+00 0.  1.
     999900   -1    0    0    0    0 -0.00000000000E+00 -0.00000000000E+00 -0.74505805969E-08  0.93827000000E+00  0.93827000000E+00 0. -1.
     999902    2    1    2    0    0  0.56417677921E-02 -0.16281775711E-01 -0.15876472129E-01  0.10204995042E+01  0.10202304887E+01 0.  0.
     999903    2    3    3    0    0 -0.10375210738E+00  0.35568535587E-01  0.63485764443E-01  0.12867337808E+00  0.22288459618E-01 0.  0.
         14    1    1    2    0    0 -0.56417677921E-02  0.16281775711E-01  0.15876472129E-01  0.23430495757E-01  0.00000000000E+00 0.  1.
     999901    1    3    3    0    0  0.10939387517E+00 -0.51850311298E-01 -0.79362236573E-01  0.89182612616E+00  0.88000000000E+00 0.  1.
        -11    1    4    4    0    0 -0.14551266593E-01 -0.59714742903E-03  0.14937377635E-01  0.20868213056E-01  0.51100000000E-03 0. -1.
         11    1    4    4    0    0 -0.89200840782E-01  0.36165683016E-01  0.48548386808E-01  0.10780516503E+00  0.51100000000E-03 0.  1.
</event>
<event>
 8    1  0.1070112E+005  0.1043930E+01  0.7957747E-01            NaN
         13   -1    0    0    0    0  0.00000000000E+00  0.00000000000E+00  0.74505805969E-08  0.10566000000E+00  0.10566000000E+00 0. -1.
     999900   -1    0    0    0    0 -0.00000000000E+00 -0.00000000000E+00 -0.74505805969E-08  0.93827000000E+00  0.93827000000E+00 0.  1.
     999902    2    1    2    0    0  0.57246828846E-02  0.21340888670E-01  0.96050677979E-02  0.10198372033E+01  0.10195525776E+01 0.  0.
     999903    2    3    3    0    0 -0.38221763232E-01 -0.43944321133E-01  0.11461139407E+00  0.13010703228E+00  0.20001541240E-01 0.  0.
         14    1    1    2    0    0 -0.57246828846E-02 -0.21340888670E-01 -0.96050677979E-02  0.24092796657E-01  0.00000000000E+00 0.  1.
     999901    1    3    3    0    0  0.43946446116E-01  0.65285209803E-01 -0.10500632628E+00  0.88973017107E+00  0.88000000000E+00 0. -1.
        -11    1    4    4    0    0 -0.28924735073E-01 -0.18343040997E-01  0.60460196524E-01  0.69489595889E-01  0.51100000000E-03 0. -1.
         11    1    4    4    0    0 -0.92970281583E-02 -0.25601280136E-01  0.54151197551E-01  0.60617436389E-01  0.51100000000E-03 0.  1.
</event>
<event>
 8    1  0.1070112E+005  0.1043930E+01  0.7957747E-01            NaN
         13   -1    0    0    0    0  0.00000000000E+00  0.00000000000E+00  0.74505805969E-08  0.10566000000E+00  0.10566000000E+00 0. -1.
     999900   -1    0    0    0    0 -0.00000000000E+00 -0.00000000000E+00 -0.74505805969E-08  0.93827000000E+00  0.93827000000E+00 0. -1.
     999902    2    1    2    0    0 -0.29401676416E-02  0.20318770496E-01  0.10333325180E-01  0.10209457743E+01  0.10206870233E+01 0.  0.
     999903    2    3    3    0    0 -0.83561393249E-01  0.63872613390E-01 -0.76709663692E-01  0.13191641533E+00  0.21338953773E-01 0.  0.
         14    1    1    2    0    0  0.29401676416E-02 -0.20318770496E-01 -0.10333325180E-01  0.22984225667E-01  0.00000000000E+00 0. -1.
     999901    1    3    3    0    0  0.80621225607E-01 -0.43553842894E-01  0.87042988872E-01  0.88902935900E+00  0.88000000000E+00 0.  1.
        -11    1    4    4    0    0 -0.15144927596E-01  0.11560867477E-01 -0.25082014447E-01  0.31502238943E-01  0.51100000000E-03 0.  1.
         11    1    4    4    0    0 -0.68416465652E-01  0.52311745914E-01 -0.51627649245E-01  0.10041417639E+00  0.51100000000E-03 0. -1.
</event>
<event>
 8    1  0.1070112E+005  0.1043930E+01  0.7957747E-01            NaN
         13   -1    0    0    0    0  0.00000000000E+00  0.00000000000E+00  0.74505805969E-08  0.10566000000E+00  0.10566000000E+00 0. -1.
     999900   -1    0    0    0    0 -0.00000000000E+00 -0.00000000000E+00 -0.74505805969E-08  0.93827000000E+00  0.93827000000E+00 0. -1.
     999902    2    1    2    0    0 -0.47399027852E-02 -0.22377399204E-01  0.60339242493E-02  0.10202736496E+01  0.10199993613E+01 0.  0.
     999903    2    3    3    0    0  0.40068613579E-01  0.13209068883E-01 -0.12062506143E+00  0.12936585496E+00  0.20128231151E-01 0.  0.
         14    1    1    2    0    0  0.47399027852E-02  0.22377399204E-01 -0.60339242493E-02  0.23656350424E-01  0.00000000000E+00 0.  1.
     999901    1    3    3    0    0 -0.44808516365E-01 -0.35586468087E-01  0.12665898568E+00  0.89090779461E+00  0.88000000000E+00 0.  1.
        -11    1    4    4    0    0  0.32321481850E-01  0.15999780528E-01 -0.11087192638E+00  0.11659123615E+00  0.51100000000E-03 0. -1.
         11    1    4    4    0    0  0.77471317292E-02 -0.27907116444E-02 -0.97531350529E-02  0.12774618815E-01  0.51100000000E-03 0.  1.
</event>
<event>
 8    1  0.1070112E+005  0.1043930E+01  0.7957747E-01            NaN
         13   -1    0    0    0    0  0.00000000000E+00  0.00000000000E+00  0.74505805969E-08  0.10566000000E+00  0.10566000000E+00 0.  1.
     999900   -1    0    0    0    0 -0.00000000000E+00 -0.00000000000E+00 -0.74505805969E-08  0.93827000000E+00  0.93827000000E+00 0.  1.
     999902    2    1    2    0    0  0.21768051623E-01  0.24063119912E-02 -0.91996798244E-02  0.10201755790E+01  0.10198989849E+01 0.  0.
     999903    2    3    3    0    0 -0.48616204010E-02 -0.45265855557E-01 -0.12160638895E+00  0.13134654973E+00  0.19777999383E-01 0.  0.
         14    1    1    2    0    0 -0.21768051623E-01 -0.24063119912E-02  0.91996798244E-02  0.23754421015E-01  0.00000000000E+00 0.  1.
     999901    1    3    3    0    0  0.26629672024E-01  0.47672167548E-01  0.11240670913E+00  0.88882902926E+00  0.88000000000E+00 0. -1.
        -11    1    4    4    0    0  0.56987239259E-02 -0.54401845424E-02 -0.27579530010E-01  0.28687325752E-01  0.51100000000E-03 0.  1.
         11    1    4    4    0    0 -0.10560344327E-01 -0.39825671015E-01 -0.94026858942E-01  0.10265922398E+00  0.51100000000E-03 0. -1.
</event>
<event>
 8    1  0.1070112E+005  0.1043930E+01  0.7957747E-01            NaN
         13   -1    0    0    0    0  0.00000000000E+00  0.00000000000E+00  0.74505805969E-08  0.10566000000E+00  0.10566000000E+00 0. -1.
     999900   -1    0    0    0    0 -0.00000000000E+00 -0.00000000000E+00 -0.74505805969E-08  0.93827000000E+00  0.93827000000E+00 0.  1.
     999902    2    1    2    0    0 -0.10649594334E-01 -0.82898047227E-03  0.21052923601E-01  0.10203222331E+01  0.10200490834E+01 0.  0.
     999903    2    3    3    0    0  0.63828428027E-01 -0.10923061637E+00 -0.19117501342E-01  0.12964184508E+00  0.20883806209E-01 0.  0.
         14    1    1    2    0    0  0.10649594334E-01  0.82898047227E-03 -0.21052923601E-01  0.23607766948E-01  0.00000000000E+00 0.  1.
     999901    1    3    3    0    0 -0.74478022362E-01  0.10840163589E+00  0.40170424943E-01  0.89068038797E+00  0.88000000000E+00 0. -1.
        -11    1    4    4    0    0  0.13279408801E-01 -0.37824519630E-01 -0.11573044185E-04  0.40091124183E-01  0.51100000000E-03 0.  1.
         11    1    4    4    0    0  0.50549019227E-01 -0.71406096736E-01 -0.19105928297E-01  0.89550720896E-01  0.51100000000E-03 0. -1.
</event>
<event>
 8    1  0.1070112E+005  0.1043930E+01  0.7957747E-01            NaN
         13   -1    0    0    0    0  0.00000000000E+00  0.00000000000E+00  0.74505805969E-08  0.10566000000E+00  0.10566000000E+00 0.  1.
     999900   -1    0    0    0    0 -0.00000000000E+00 -0.00000000000E+00 -0.74505805969E-08  0.93827000000E+00  0.93827000000E+00 0.  1.
     999902    2    1    2    0    0  0.20827550949E-01  0.56535549275E-02 -0.69279118227E-02  0.10212640448E+01  0.10210124895E+01 0.  0.
     999903    2    3    3    0    0  0.63408784546E-01 -0.11399746078E+00 -0.54324919802E-02  0.13214551319E+00  0.20416406730E-01 0.  0.
         14    1    1    2    0    0 -0.20827550949E-01 -0.56535549275E-02  0.69279118227E-02  0.22665955177E-01  0.00000000000E+00 0.  1.
     999901    1    3    3    0    0 -0.42581233598E-01  0.11965101571E+00 -0.14954198426E-02  0.88911853163E+00  0.88000000000E+00 0.  1.
        -11    1    4    4    0    0  0.30386378433E-01 -0.60982398612E-01 -0.12546425821E-01  0.69281013680E-01  0.51100000000E-03 0.  1.
         11    1    4    4    0    0  0.33022406113E-01 -0.53015062173E-01  0.71139338408E-02  0.62864499508E-01  0.51100000000E-03 0. -1.
</event>
<event>
 8    1  0.1070112E+005  0.1043930E+01  0.7957747E-01            NaN
         13   -1    0    0    0    0  0.00000000000E+00  0.00000000000E+00  0.74505805969E-08  0.10566000000E+00  0.10566000000E+00 0.  1.
     999900   -1    0    0    0    0 -0.00000000000E+00 -0.00000000000E+00 -0.74505805969E-08  0.93827000000E+00  0.93827000000E+00 0.  1.
     999902    2    1    2    0    0  0.10357629248E-01 -0.41372879596E-02  0.20693792781E-01  0.10204219015E+01  0.10201510802E+01 0.  0.
     999903    2    3    3    0    0  0.37729744355E-01 -0.24034813427E-01 -0.11911589558E+00  0.12874264686E+00  0.19618019098E-01 0.  0.
         14    1    1    2    0    0 -0.10357629248E-01  0.41372879596E-02 -0.20693792781E-01  0.23508098498E-01  0.00000000000E+00 0. -1.
     999901    1    3    3    0    0 -0.27372115107E-01  0.19897525467E-01  0.13980968837E+00  0.89167925465E+00  0.88000000000E+00 0. -1.
        -11    1    4    4    0    0  0.23242763647E-01 -0.33884939915E-02 -0.52826084251E-01  0.57814913749E-01  0.51100000000E-03 0. -1.
         11    1    4    4    0    0  0.14486980708E-01 -0.20646319435E-01 -0.66289811332E-01  0.70927733108E-01  0.51100000000E-03 0.  1.
</event>
<event>
 8    1  0.1070112E+005  0.1043930E+01  0.7957747E-01            NaN
         13   -1    0    0    0    0  0.00000000000E+00  0.00000000000E+00  0.74505805969E-08  0.10566000000E+00  0.10566000000E+00 0. -1.
     999900   -1    0    0    0    0 -0.00000000000E+00 -0.00000000000E+00 -0.74505805969E-08  0.93827000000E+00  0.93827000000E+00 0.  1.
     999902    2    1    2    0    0 -0.48870007946E-02  0.15753404048E-01 -0.20828936786E-01  0.10173612755E+01  0.10170142908E+01 0.  0.
     999903    2    3    3    0    0  0.62683751325E-01  0.10397215185E+00  0.36961792883E-01  0.12849226237E+00  0.20115325393E-01 0.  0.
         14    1    1    2    0    0  0.48870007946E-02 -0.15753404048E-01  0.20828936786E-01  0.26568724537E-01  0.00000000000E+00 0. -1.
     999901    1    3    3    0    0 -0.67570752120E-01 -0.88218747798E-01 -0.57790729669E-01  0.88886901310E+00  0.88000000000E+00 0.  1.
        -11    1    4    4    0    0  0.48536510934E-01  0.62287982830E-01  0.25825259152E-01  0.83083035753E-01  0.51100000000E-03 0.  1.
         11    1    4    4    0    0  0.14147240392E-01  0.41684169016E-01  0.11136533731E-01  0.45409226616E-01  0.51100000000E-03 0. -1.
</event>
<event>
 8    1  0.1070112E+005  0.1043930E+01  0.7957747E-01            NaN
         13   -1    0    0    0    0  0.00000000000E+00  0.00000000000E+00  0.74505805969E-08  0.10566000000E+00  0.10566000000E+00 0.  1.
     999900   -1    0    0    0    0 -0.00000000000E+00 -0.00000000000E+00 -0.74505805969E-08  0.93827000000E+00  0.93827000000E+00 0. -1.
     999902    2    1    2    0    0 -0.68758587014E-02 -0.12810688332E-01  0.18816726079E-01  0.10201505898E+01  0.10198734066E+01 0.  0.
     999903    2    3    3    0    0  0.10406996720E-01 -0.98734175520E-01  0.86449682549E-01  0.13321442552E+00  0.20390992035E-01 0.  0.
         14    1    1    2    0    0  0.68758587014E-02  0.12810688332E-01 -0.18816726079E-01  0.23779410185E-01  0.00000000000E+00 0. -1.
     999901    1    3    3    0    0 -0.17282855422E-01  0.85923487188E-01 -0.67632956470E-01  0.88693616430E+00  0.88000000000E+00 0.  1.
        -11    1    4    4    0    0  0.31040704997E-02 -0.71531592101E-01  0.50864831136E-01  0.87828788502E-01  0.51100000000E-03 0. -1.
         11    1    4    4    0    0  0.73029262207E-02 -0.27202583419E-01  0.35584851412E-01  0.45385637013E-01  0.51100000000E-03 0.  1.
</event>
<event>
 8    1  0.1070112E+005  0.1043930E+01  0.7957747E-01            NaN
         13   -1    0    0    0    0  0.00000000000E+00  0.00000000000E+00  0.74505805969E-08  0.10566000000E+00  0.10566000000E+00 0.  1.
     999900   -1    0    0    0    0 -0.00000000000E+00 -0.00000000000E+00 -0.74505805969E-08  0.93827000000E+00  0.93827000000E+00 0. -1.
     999902    2    1    2    0    0  0.13282790803E-02 -0.14619137052E-01 -0.17958762504E-01  0.10207351591E+01  0.10204715892E+01 0.  0.
     999903    2    3    3    0    0  0.73390221707E-01 -0.78099122563E-01 -0.78408455250E-01  0.13344896092E+00  0.13234112315E-01 0.  0.
         14    1    1    2    0    0 -0.13282790803E-02  0.14619137052E-01  0.17958762504E-01  0.23194840895E-01  0.00000000000E+00 0. -1.
     999901    1    3    3    0    0 -0.72061942626E-01  0.63479985511E-01  0.60449692747E-01  0.88728619818E+00  0.88000000000E+00 0.  1.
        -11    1    4    4    0    0  0.38511606516E-01 -0.32028470950E-01 -0.39364130936E-01  0.63708419485E-01  0.51100000000E-03 0.  1.
         11    1    4    4    0    0  0.34878615191E-01 -0.46070651613E-01 -0.39044324314E-01  0.69740541436E-01  0.51100000000E-03 0. -1.
</event>
<event>
 8    1  0.1070112E+005  0.1043930E+01  0.7957747E-01            NaN
         13   -1    0    0    0    0  0.00000000000E+00  0.00000000000E+00  0.74505805969E-08  0.10566000000E+00  0.10566000000E+00 0. -1.
     999900   -1    0    0    0    0 -0.00000000000E+00 -0.00000000000E+00 -0.74505805969E-08  0.93827000000E+00  0.93827000000E+00 0.  1.
     999902    2    1    2    0    0 -0.14613754092E-01  0.15010866598E-01  0.10327240751E-01  0.10205732060E+01  0.10203058997E+01 0.  0.
     999903    2    3    3    0    0 -0.36568511213E-01 -0.66207267583E-01 -0.10302417934E+00  0.12932299359E+00  0.19743273503E-01 0.  0.
         14    1    1    2    0    0  0.14613754092E-01 -0.15010866598E-01 -0.10327240751E-01  0.23356794005E-01  0.00000000000E+00 0.  1.
     999901    1    3    3    0    0  0.21954757122E-01  0.81218134181E-01  0.11335142009E+00  0.89125021241E+00  0.88000000000E+00 0. -1.
        -11    1    4    4    0    0 -0.96276328174E-02 -0.20973722961E-01 -0.47457211029E-01  0.52773443778E-01  0.51100000000E-03 0. -1.
         11    1    4    4    0    0 -0.26940878396E-01 -0.45233544622E-01 -0.55566968311E-01  0.76549549810E-01  0.51100000000E-03 0.  1.
</event>
<event>
 8    1  0.1070112E+005  0.1043930E+01  0.7957747E-01            NaN
         13   -1    0    0    0    0  0.00000000000E+00  0.00000000000E+00  0.74505805969E-08  0.10566000000E+00  0.10566000000E+00 0.  1.
     999900   -1    0    0    0    0 -0.00000000000E+00 -0.00000000000E+00 -0.74505805969E-08  0.93827000000E+00  0.93827000000E+00 0.  1.
     999902    2    1    2    0    0  0.23975783259E-01  0.92909572718E-03  0.32491298181E-02  0.10197172297E+01  0.10194297280E+01 0.  0.
     999903    2    3    3    0    0 -0.60777204240E-01  0.83620219220E-01  0.74467875238E-01  0.12893498890E+00  0.19813058897E-01 0.  0.
         14    1    1    2    0    0 -0.23975783259E-01 -0.92909572718E-03 -0.32491298181E-02  0.24212770315E-01  0.00000000000E+00 0. -1.
     999901    1    3    3    0    0  0.84752987500E-01 -0.82691123493E-01 -0.71218745420E-01  0.89078224078E+00  0.88000000000E+00 0.  1.
        -11    1    4    4    0    0 -0.10420793055E-01  0.29034981241E-01  0.24882412194E-01  0.39636077268E-01  0.51100000000E-03 0. -1.
         11    1    4    4    0    0 -0.50356411186E-01  0.54585237979E-01  0.49585463044E-01  0.89298911634E-01  0.51100000000E-03 0.  1.
</event>
<event>
 8    1  0.1070112E+005  0.1043930E+01  0.7957747E-01            NaN
         13   -1    0    0    0    0  0.00000000000E+00  0.00000000000E+00  0.74505805969E-08  0.10566000000E+00  0.10566000000E+00 0.  1.
     999900   -1    0    0    0    0 -0.00000000000E+00 -0.00000000000E+00 -0.74505805969E-08  0.93827000000E+00  0.93827000000E+00 0.  1.
     999902    2    1    2    0    0 -0.11268070446E-01  0.16837199327E-01  0.16569805533E-01  0.10177571295E+01  0.10174205402E+01 0.  0.
     999903    2    3    3    0    0 -0.51344428507E-01 -0.77610601264E-01 -0.83107118664E-01  0.12620679965E+00  0.19018605036E-01 0.  0.
         14    1    1    2    0    0  0.11268070446E-01 -0.16837199327E-01 -0.16569805533E-01  0.26172870460E-01  0.00000000000E+00 0. -1.
     999901    1    3    3    0    0  0.40076358062E-01  0.94447800591E-01  0.99676924197E-01  0.89155032989E+00  0.88000000000E+00 0.  1.
        -11    1    4    4    0    0 -0.11077804239E-01 -0.33297079979E-01 -0.31495039308E-01  0.47155189576E-01  0.51100000000E-03 0. -1.
         11    1    4    4    0    0 -0.40266624268E-01 -0.44313521285E-01 -0.51612079356E-01  0.79051610073E-01  0.51100000000E-03 0.  1.
</event>
<event>
 8    1  0.1070112E+005  0.1043930E+01  0.7957747E-01            NaN
         13   -1    0    0    0    0  0.00000000000E+00  0.00000000000E+00  0.74505805969E-08  0.10566000000E+00  0.10566000000E+00 0. -1.
     999900   -1    0    0    0    0 -0.00000000000E+00 -0.00000000000E+00 -0.74505805969E-08  0.93827000000E+00  0.93827000000E+00 0.  1.
     999902    2    1    2    0    0  0.19216052520E-01 -0.63758427938E-02 -0.12834536548E-01  0.10199584883E+01  0.10196767549E+01 0.  0.
     999903    2    3    3    0    0  0.73459176747E-01 -0.61385583322E-01 -0.90286503409E-01  0.13318501368E+00  0.20546403172E-01 0.  0.
         14    1    1    2    0    0 -0.19216052520E-01  0.63758427938E-02  0.12834536548E-01  0.23971511721E-01  0.00000000000E+00 0. -1.
     999901    1    3    3    0    0 -0.54243124227E-01  0.55009740528E-01  0.77451966860E-01  0.88677347460E+00  0.88000000000E+00 0. -1.
        -11    1    4    4    0    0  0.16822663818E-01 -0.21927426364E-01 -0.16725135906E-01  0.32307976368E-01  0.51100000000E-03 0. -1.
         11    1    4    4    0    0  0.56636512929E-01 -0.39458156958E-01 -0.73561367503E-01  0.10087703731E+00  0.51100000000E-03 0.  1.
</event>
<event>
 8    1  0.1070112E+005  0.1043930E+01  0.7957747E-01            NaN
         13   -1    0    0    0    0  0.00000000000E+00  0.00000000000E+00  0.74505805969E-08  0.10566000000E+00  0.10566000000E+00 0.  1.
     999900   -1    0    0    0    0 -0.00000000000E+00 -0.00000000000E+00 -0.74505805969E-08  0.93827000000E+00  0.93827000000E+00 0. -1.
     999902    2    1    2    0    0  0.11918884274E-01  0.20023914414E-01  0.20101367666E-02  0.10205407375E+01  0.10202726789E+01 0.  0.
     999903    2    3    3    0    0 -0.95349023112E-01 -0.18724290577E-01  0.79001703455E-01  0.12984689072E+00  0.34306130848E-01 0.  0.
         14    1    1    2    0    0 -0.11918884274E-01 -0.20023914414E-01 -0.20101367666E-02  0.23389262507E-01  0.00000000000E+00 0. -1.
     999901    1    3    3    0    0  0.10726790739E+00  0.38748204991E-01 -0.76991566689E-01  0.89069384678E+00  0.88000000000E+00 0.  1.
        -11    1    4    4    0    0 -0.97427659853E-01 -0.15128774758E-01  0.73724981289E-01  0.12311239871E+00  0.51100000000E-03 0. -1.
         11    1    4    4    0    0  0.20786367409E-02 -0.35955158189E-02  0.52767221660E-02  0.67344920018E-02  0.51100000000E-03 0.  1.
</event>
<event>
 8    1  0.1070112E+005  0.1043930E+01  0.7957747E-01            NaN
         13   -1    0    0    0    0  0.00000000000E+00  0.00000000000E+00  0.74505805969E-08  0.10566000000E+00  0.10566000000E+00 0.  1.
     999900   -1    0    0    0    0 -0.00000000000E+00 -0.00000000000E+00 -0.74505805969E-08  0.93827000000E+00  0.93827000000E+00 0. -1.
     999902    2    1    2    0    0  0.10558681925E-01 -0.79587044322E-02 -0.20258608905E-01  0.10197383077E+01  0.10194513124E+01 0.  0.
     999903    2    3    3    0    0 -0.54591548935E-01 -0.21372342184E-01  0.11134492801E+00  0.12746930726E+00  0.20340036265E-01 0.  0.
         14    1    1    2    0    0 -0.10558681925E-01  0.79587044322E-02  0.20258608905E-01  0.24191692272E-01  0.00000000000E+00 0.  1.
     999901    1    3    3    0    0  0.65150230860E-01  0.13413637752E-01 -0.13160353692E+00  0.89226900046E+00  0.88000000000E+00 0. -1.
        -11    1    4    4    0    0 -0.28074286762E-01 -0.18042175043E-02  0.40291543313E-01  0.49143568873E-01  0.51100000000E-03 0. -1.
         11    1    4    4    0    0 -0.26517262172E-01 -0.19568124680E-01  0.71053384698E-01  0.78325738392E-01  0.51100000000E-03 0.  1.
</event>
<event>
 8    1  0.1070112E+005  0.1043930E+01  0.7957747E-01            NaN
         13   -1    0    0    0    0  0.00000000000E+00  0.00000000000E+00  0.74505805969E-08  0.10566000000E+00  0.10566000000E+00 0.  1.
     999900   -1    0    0    0    0 -0.00000000000E+00 -0.00000000000E+00 -0.74505805969E-08  0.93827000000E+00  0.93827000000E+00 0. -1.
     999902    2    1    2    0    0 -0.14199385550E-03 -0.15956337406E-02 -0.22570649727E-01  0.10213025733E+01  0.10210518820E+01 0.  0.
     999903    2    3    3    0    0 -0.10213449718E+00 -0.56980763889E-01 -0.60262098764E-01  0.13288227374E+00  0.18652483961E-01 0.  0.
         14    1    1    2    0    0  0.14199385550E-03  0.15956337406E-02  0.22570649727E-01  0.22627426685E-01  0.00000000000E+00 0.  1.
     999901    1    3    3    0    0  0.10199250332E+00  0.55385130148E-01  0.37691449038E-01  0.88842029958E+00  0.88000000000E+00 0.  1.
        -11    1    4    4    0    0 -0.78224243556E-01 -0.44815523375E-01 -0.54792372476E-01  0.10549847685E+00  0.51100000000E-03 0. -1.
         11    1    4    4    0    0 -0.23910253624E-01 -0.12165240513E-01 -0.54697262882E-02  0.27383796884E-01  0.51100000000E-03 0.  1.
</event>
<event>
 8    1  0.1718292E+005  0.1043930E+01  0.7957747E-01            NaN
         13   -1    0    0    0    0  0.00000000000E+00  0.00000000000E+00  0.74505805969E-08  0.10566000000E+00  0.10566000000E+00 0.  1.
     999900   -1    0    0    0    0 -0.00000000000E+00 -0.00000000000E+00 -0.74505805969E-08  0.93827000000E+00  0.93827000000E+00 0.  1.
     999902    2    1    2    0    0 -0.65367476013E-02 -0.21575765721E-01  0.86078776592E-02  0.10197983135E+01  0.10195127571E+01 0.  0.
     999903    2    3    3    0    0  0.49448243100E-01 -0.11611629173E+00 -0.33128792633E-01  0.13198404244E+00  0.19853176285E-01 0.  0.
         14    1    1    2    0    0  0.65367476013E-02  0.21575765721E-01 -0.86078776592E-02  0.24131686502E-01  0.00000000000E+00 0. -1.
     999901    1    3    3    0    0 -0.55984990701E-01  0.94540526004E-01  0.41736670292E-01  0.88781427105E+00  0.88000000000E+00 0. -1.
        -11    1    4    4    0    0  0.19108181072E-01 -0.69169373349E-01 -0.21167706989E-01  0.74818832747E-01  0.51100000000E-03 0. -1.
         11    1    4    4    0    0  0.30340062027E-01 -0.46946918376E-01 -0.11961085644E-01  0.57165209696E-01  0.51100000000E-03 0.  1.
</event>
<event>
 8    1  0.1070112E+005  0.1043930E+01  0.7957747E-01            NaN
         13   -1    0    0    0    0  0.00000000000E+00  0.00000000000E+00  0.74505805969E-08  0.10566000000E+00  0.10566000000E+00 0. -1.
     999900   -1    0    0    0    0 -0.00000000000E+00 -0.00000000000E+00 -0.74505805969E-08  0.93827000000E+00  0.93827000000E+00 0.  1.
     999902    2    1    2    0    0  0.22755128250E-01 -0.54535256728E-02  0.21533489281E-02  0.10204316231E+01  0.10201610284E+01 0.  0.
     999903    2    3    3    0    0 -0.15236476187E-01  0.81004925419E-01 -0.97983271179E-01  0.12973202817E+00  0.20874136000E-01 0.  0.
         14    1    1    2    0    0 -0.22755128250E-01  0.54535256728E-02 -0.21533489281E-02  0.23498376870E-01  0.00000000000E+00 0.  1.
     999901    1    3    3    0    0  0.37991604436E-01 -0.86458451092E-01  0.10013662011E+00  0.89069959496E+00  0.88000000000E+00 0. -1.
        -11    1    4    4    0    0 -0.10067953259E-01  0.21192813032E-01 -0.39328970130E-01  0.45798777489E-01  0.51100000000E-03 0. -1.
         11    1    4    4    0    0 -0.51685229276E-02  0.59812112388E-01 -0.58654301049E-01  0.83933250682E-01  0.51100000000E-03 0.  1.
</event>
<event>
 8    1  0.1070112E+005  0.1043930E+01  0.7957747E-01            NaN
         13   -1    0    0    0    0  0.00000000000E+00  0.00000000000E+00  0.74505805969E-08  0.10566000000E+00  0.10566000000E+00 0. -1.
     999900   -1    0    0    0    0 -0.00000000000E+00 -0.00000000000E+00 -0.74505805969E-08  0.93827000000E+00  0.93827000000E+00 0.  1.
     999902    2    1    2    0    0 -0.17331948414E-01  0.89612781477E-02 -0.39756507486E-02  0.10240175230E+01  0.10238239012E+01 0.  0.
     999903    2    3    3    0    0 -0.52768100354E-01 -0.88930600732E-01  0.82311033319E-01  0.13368953137E+00  0.20116173344E-01 0.  0.
         14    1    1    2    0    0  0.17331948414E-01 -0.89612781477E-02  0.39756507486E-02  0.19912477011E-01  0.00000000000E+00 0. -1.
     999901    1    3    3    0    0  0.35436151940E-01  0.97891878879E-01 -0.86286684068E-01  0.89032799162E+00  0.88000000000E+00 0.  1.
        -11    1    4    4    0    0 -0.15839475381E-01 -0.23025622106E-01  0.34002297742E-01  0.44016878881E-01  0.51100000000E-03 0. -1.
         11    1    4    4    0    0 -0.36928624973E-01 -0.65904978626E-01  0.48308735577E-01  0.89672652488E-01  0.51100000000E-03 0.  1.
</event>
<event>
 8    1  0.1070112E+005  0.1043930E+01  0.7957747E-01            NaN
         13   -1    0    0    0    0  0.00000000000E+00  0.00000000000E+00  0.74505805969E-08  0.10566000000E+00  0.10566000000E+00 0.  1.
     999900   -1    0    0    0    0 -0.00000000000E+00 -0.00000000000E+00 -0.74505805969E-08  0.93827000000E+00  0.93827000000E+00 0. -1.
     999902    2    1    2    0    0  0.50029536397E-02  0.14178363735E-01  0.18234955587E-01  0.10202959325E+01  0.10200221667E+01 0.  0.
     999903    2    3    3    0    0 -0.45533781202E-01 -0.10600799744E+00 -0.52082008480E-01  0.12791529707E+00  0.18405620464E-01 0.  0.
         14    1    1    2    0    0 -0.50029536397E-02 -0.14178363735E-01 -0.18234955587E-01  0.23634067542E-01  0.00000000000E+00 0. -1.
     999901    1    3    3    0    0  0.50536734842E-01  0.12018636118E+00  0.70316964068E-01  0.89238063539E+00  0.88000000000E+00 0.  1.
        -11    1    4    4    0    0 -0.30270374406E-01 -0.47414894375E-01 -0.26424623133E-01  0.62152953301E-01  0.51100000000E-03 0. -1.
         11    1    4    4    0    0 -0.15263406796E-01 -0.58593103067E-01 -0.25657385348E-01  0.65762343768E-01  0.51100000000E-03 0.  1.
</event>
<event>
 8    1  0.1070112E+005  0.1043930E+01  0.7957747E-01            NaN
         13   -1    0    0    0    0  0.00000000000E+00  0.00000000000E+00  0.74505805969E-08  0.10566000000E+00  0.10566000000E+00 0. -1.
     999900   -1    0    0    0    0 -0.00000000000E+00 -0.00000000000E+00 -0.74505805969E-08  0.93827000000E+00  0.93827000000E+00 0.  1.
     999902    2    1    2    0    0 -0.10619436122E-02  0.21504775253E-01 -0.81964092495E-03  0.10223834250E+01  0.10221563544E+01 0.  0.
     999903    2    3    3    0    0 -0.28648388928E-01 -0.71685458824E-01 -0.10409316498E+00  0.13103004252E+00  0.19337782994E-01 0.  0.
         14    1    1    2    0    0  0.10619436122E-02 -0.21504775253E-01  0.81964092495E-03  0.21546574999E-01  0.00000000000E+00 0. -1.
     999901    1    3    3    0    0  0.27586445315E-01  0.93190234078E-01  0.10327352406E+00  0.89135338248E+00  0.88000000000E+00 0. -1.
        -11    1    4    4    0    0 -0.30154979191E-01 -0.59276497497E-01 -0.81385588433E-01  0.10510423898E+00  0.51100000000E-03 0. -1.
         11    1    4    4    0    0  0.15065902632E-02 -0.12408961328E-01 -0.22707576550E-01  0.25925803540E-01  0.51100000000E-03 0.  1.
</event>
<event>
 8    1  0.1070112E+005  0.1043930E+01  0.7957747E-01            NaN
         13   -1    0    0    0    0  0.00000000000E+00  0.00000000000E+00  0.74505805969E-08  0.10566000000E+00  0.10566000000E+00 0. -1.
     999900   -1    0    0    0    0 -0.00000000000E+00 -0.00000000000E+00 -0.74505805969E-08  0.93827000000E+00  0.93827000000E+00 0. -1.
     999902    2    1    2    0    0  0.33501007377E-02  0.13018940386E-01  0.20052166865E-01  0.10197886376E+01  0.10195028494E+01 0.  0.
     999903    2    3    3    0    0  0.10020263424E-01  0.12500888479E+00  0.37911276088E-01  0.13248644187E+00  0.19691761503E-01 0.  0.
         14    1    1    2    0    0 -0.33501007377E-02 -0.13018940386E-01 -0.20052166865E-01  0.24141362424E-01  0.00000000000E+00 0.  1.
     999901    1    3    3    0    0 -0.66701626859E-02 -0.11198994440E+00 -0.17859109224E-01  0.88730219570E+00  0.88000000000E+00 0. -1.
        -11    1    4    4    0    0  0.67511672348E-02  0.15030019490E-01  0.87318375509E-02  0.18654378920E-01  0.51100000000E-03 0.  1.
         11    1    4    4    0    0  0.32690961889E-02  0.10997886530E+00  0.29179438538E-01  0.11383206295E+00  0.51100000000E-03 0. -1.
</event>
<event>
 8    1  0.1070112E+005  0.1043930E+01  0.7957747E-01            NaN
         13   -1    0    0    0    0  0.00000000000E+00  0.00000000000E+00  0.74505805969E-08  0.10566000000E+00  0.10566000000E+00 0.  1.
     999900   -1    0    0    0    0 -0.00000000000E+00 -0.00000000000E+00 -0.74505805969E-08  0.93827000000E+00  0.93827000000E+00 0.  1.
     999902    2    1    2    0    0 -0.22452205655E-01  0.51114027469E-02 -0.57679616978E-02  0.10201919007E+01  0.10199156911E+01 0.  0.
     999903    2    3    3    0    0 -0.24986638947E-01  0.11703992298E+00 -0.51540808349E-01  0.13191853596E+00  0.20575944872E-01 0.  0.
         14    1    1    2    0    0  0.22452205655E-01 -0.51114027469E-02  0.57679616978E-02  0.23738099312E-01  0.00000000000E+00 0. -1.
     999901    1    3    3    0    0  0.25344332923E-02 -0.11192852023E+00  0.45772846652E-01  0.88827336473E+00  0.88000000000E+00 0. -1.
        -11    1    4    4    0    0 -0.80945673602E-03  0.35334359121E-01 -0.80507943115E-02  0.36252566319E-01  0.51100000000E-03 0. -1.
         11    1    4    4    0    0 -0.24177182211E-01  0.81705563860E-01 -0.43490014038E-01  0.95665969641E-01  0.51100000000E-03 0.  1.
</event>
<event>
 8    1  0.1070112E+005  0.1043930E+01  0.7957747E-01            NaN
         13   -1    0    0    0    0  0.00000000000E+00  0.00000000000E+00  0.74505805969E-08  0.10566000000E+00  0.10566000000E+00 0. -1.
     999900   -1    0    0    0    0 -0.00000000000E+00 -0.00000000000E+00 -0.74505805969E-08  0.93827000000E+00  0.93827000000E+00 0. -1.
     999902    2    1    2    0    0 -0.20090552249E-01 -0.28198144861E-02  0.12332924581E-01  0.10201879977E+01  0.10199116962E+01 0.  0.
     999903    2    3    3    0    0 -0.12358950586E+00 -0.38616828921E-01  0.24468331534E-01  0.13331668364E+00  0.20224081021E-01 0.  0.
         14    1    1    2    0    0  0.20090552249E-01  0.28198144861E-02 -0.12332924581E-01  0.23742002277E-01  0.00000000000E+00 0.  1.
     999901    1    3    3    0    0  0.10349895361E+00  0.35797014435E-01 -0.12135406953E-01  0.88687131408E+00  0.88000000000E+00 0.  1.
        -11    1    4    4    0    0 -0.60367437211E-01 -0.27870393189E-01  0.70678238414E-02  0.66867043802E-01  0.51100000000E-03 0.  1.
         11    1    4    4    0    0 -0.63222068652E-01 -0.10746435732E-01  0.17400507693E-01  0.66449639838E-01  0.51100000000E-03 0. -1.
</event>
<event>
 8    1  0.1070112E+005  0.1043930E+01  0.7957747E-01            NaN
         13   -1    0    0    0    0  0.00000000000E+00  0.00000000000E+00  0.74505805969E-08  0.10566000000E+00  0.10566000000E+00 0. -1.
     999900   -1    0    0    0    0 -0.00000000000E+00 -0.00000000000E+00 -0.74505805969E-08  0.93827000000E+00  0.93827000000E+00 0. -1.
     999902    2    1    2    0    0 -0.98616853291E-02  0.17678195588E-01 -0.75841702485E-02  0.10223130836E+01  0.10220845121E+01 0.  0.
     999903    2    3    3    0    0 -0.58713372587E-01  0.11502946744E+00 -0.34639234349E-01  0.13518528334E+00  0.19903411153E-01 0.  0.
         14    1    1    2    0    0  0.98616853291E-02 -0.17678195588E-01  0.75841702485E-02  0.21616916411E-01  0.00000000000E+00 0. -1.
     999901    1    3    3    0    0  0.48851687258E-01 -0.97351271853E-01  0.27055064100E-01  0.88712780025E+00  0.88000000000E+00 0. -1.
        -11    1    4    4    0    0 -0.21833508009E-01  0.64608867612E-01 -0.18324483222E-01  0.70619088442E-01  0.51100000000E-03 0.  1.
         11    1    4    4    0    0 -0.36879864578E-01  0.50420599829E-01 -0.16314751127E-01  0.64566194899E-01  0.51100000000E-03 0. -1.
</event>
<event>
 8    1  0.1070112E+005  0.1043930E+01  0.7957747E-01            NaN
         13   -1    0    0    0    0  0.00000000000E+00  0.00000000000E+00  0.74505805969E-08  0.10566000000E+00  0.10566000000E+00 0. -1.
     999900   -1    0    0    0    0 -0.00000000000E+00 -0.00000000000E+00 -0.74505805969E-08  0.93827000000E+00  0.93827000000E+00 0.  1.
     999902    2    1    2    0    0  0.75979866867E-02 -0.10745571592E-01  0.20480597552E-01  0.10195855635E+01  0.10192948885E+01 0.  0.
     999903    2    3    3    0    0 -0.77962579147E-01  0.77871145864E-01 -0.60543926376E-01  0.12731962419E+00  0.20065905862E-01 0.  0.
         14    1    1    2    0    0 -0.75979866867E-02  0.10745571592E-01 -0.20480597552E-01  0.24344436461E-01  0.00000000000E+00 0.  1.
     999901    1    3    3    0    0  0.85560565834E-01 -0.88616717456E-01  0.81024523929E-01  0.89226593935E+00  0.88000000000E+00 0. -1.
        -11    1    4    4    0    0 -0.59997859624E-01  0.50357933446E-01 -0.35496274712E-01  0.85999484067E-01  0.51100000000E-03 0.  1.
         11    1    4    4    0    0 -0.17964719524E-01  0.27513212418E-01 -0.25047651664E-01  0.41320140126E-01  0.51100000000E-03 0. -1.
</event>
<event>
 8    1  0.1070112E+005  0.1043930E+01  0.7957747E-01            NaN
         13   -1    0    0    0    0  0.00000000000E+00  0.00000000000E+00  0.74505805969E-08  0.10566000000E+00  0.10566000000E+00 0. -1.
     999900   -1    0    0    0    0 -0.00000000000E+00 -0.00000000000E+00 -0.74505805969E-08  0.93827000000E+00  0.93827000000E+00 0.  1.
     999902    2    1    2    0    0 -0.18930636264E-02  0.99539525213E-02  0.20938665271E-01  0.10206686036E+01  0.10204035014E+01 0.  0.
     999903    2    3    3    0    0 -0.46920401674E-01  0.61201084350E-01 -0.10213386331E+00  0.12948928548E+00  0.19724406241E-01 0.  0.
         14    1    1    2    0    0  0.18930636264E-02 -0.99539525213E-02 -0.20938665271E-01  0.23261396433E-01  0.00000000000E+00 0.  1.
     999901    1    3    3    0    0  0.45027338048E-01 -0.51247131829E-01  0.12307252858E+00  0.89117931809E+00  0.88000000000E+00 0.  1.
        -11    1    4    4    0    0 -0.28858948270E-01  0.21836244321E-01 -0.43379510398E-01  0.56495163551E-01  0.51100000000E-03 0. -1.
         11    1    4    4    0    0 -0.18061453404E-01  0.39364840029E-01 -0.58754352910E-01  0.72994121931E-01  0.51100000000E-03 0.  1.
</event>
<event>
 8    1  0.1070112E+005  0.1043930E+01  0.7957747E-01            NaN
         13   -1    0    0    0    0  0.00000000000E+00  0.00000000000E+00  0.74505805969E-08  0.10566000000E+00  0.10566000000E+00 0. -1.
     999900   -1    0    0    0    0 -0.00000000000E+00 -0.00000000000E+00 -0.74505805969E-08  0.93827000000E+00  0.93827000000E+00 0. -1.
     999902    2    1    2    0    0  0.14728181670E-01  0.36184170635E-02  0.17454861839E-01  0.10208067546E+01  0.10205448279E+01 0.  0.
     999903    2    3    3    0    0 -0.21459608892E-01  0.11867324972E+00 -0.45550796794E-01  0.13034794939E+00  0.19283615030E-01 0.  0.
         14    1    1    2    0    0 -0.14728181670E-01 -0.36184170635E-02 -0.17454861839E-01  0.23123245429E-01  0.00000000000E+00 0.  1.
     999901    1    3    3    0    0  0.36187790562E-01 -0.11505483266E+00  0.63005658633E-01  0.89045880518E+00  0.88000000000E+00 0.  1.
        -11    1    4    4    0    0 -0.12768163630E-01  0.76116404421E-01 -0.38809487568E-01  0.86389643307E-01  0.51100000000E-03 0. -1.
         11    1    4    4    0    0 -0.86914452619E-02  0.42556845300E-01 -0.67413092260E-02  0.43958306083E-01  0.51100000000E-03 0.  1.
</event>
<event>
 8    1  0.1070112E+005  0.1043930E+01  0.7957747E-01            NaN
         13   -1    0    0    0    0  0.00000000000E+00  0.00000000000E+00  0.74505805969E-08  0.10566000000E+00  0.10566000000E+00 0. -1.
     999900   -1    0    0    0    0 -0.00000000000E+00 -0.00000000000E+00 -0.74505805969E-08  0.93827000000E+00  0.93827000000E+00 0. -1.
     999902    2    1    2    0    0 -0.11861106627E-01 -0.18886578058E-01  0.94127203360E-02  0.10197228113E+01  0.10194354437E+01 0.  0.
     999903    2    3    3    0    0 -0.19360860505E-01 -0.65743207962E-01 -0.10916776687E+00  0.13050229757E+00  0.20401863497E-01 0.  0.
         14    1    1    2    0    0  0.11861106627E-01  0.18886578058E-01 -0.94127203360E-02  0.24207188711E-01  0.00000000000E+00 0.  1.
     999901    1    3    3    0    0  0.74997538782E-02  0.46856629903E-01  0.11858048721E+00  0.88922051372E+00  0.88000000000E+00 0.  1.
        -11    1    4    4    0    0 -0.54779887237E-02 -0.50737994090E-01 -0.76434753575E-01  0.91906937060E-01  0.51100000000E-03 0. -1.
         11    1    4    4    0    0 -0.13882871781E-01 -0.15005213872E-01 -0.32733013298E-01  0.38595360509E-01  0.51100000000E-03 0.  1.
</event>
<event>
 8    1  0.1070112E+005  0.1043930E+01  0.7957747E-01            NaN
         13   -1    0    0    0    0  0.00000000000E+00  0.00000000000E+00  0.74505805969E-08  0.10566000000E+00  0.10566000000E+00 0. -1.
     999900   -1    0    0    0    0 -0.00000000000E+00 -0.00000000000E+00 -0.74505805969E-08  0.93827000000E+00  0.93827000000E+00 0. -1.
     999902    2    1    2    0    0 -0.17238712039E-01 -0.45631623395E-02  0.13734297661E-01  0.10214216332E+01  0.10211736024E+01 0.  0.
     999903    2    3    3    0    0 -0.58376938694E-01  0.23707328716E-01  0.11659331215E+00  0.13402569496E+00  0.19974535410E-01 0.  0.
         14    1    1    2    0    0  0.17238712039E-01  0.45631623395E-02 -0.13734297661E-01  0.22508366790E-01  0.00000000000E+00 0.  1.
     999901    1    3    3    0    0  0.41138226655E-01 -0.28270491055E-01 -0.10285901449E+00  0.88739593825E+00  0.88000000000E+00 0.  1.
        -11    1    4    4    0    0 -0.26280297450E-01  0.13790600115E-01  0.35671190727E-01  0.46406138112E-01  0.51100000000E-03 0.  1.
         11    1    4    4    0    0 -0.32096641244E-01  0.99167286005E-02  0.80922121427E-01  0.87619556850E-01  0.51100000000E-03 0. -1.
</event>
<event>
 8    1  0.1070112E+005  0.1043930E+01  0.7957747E-01            NaN
         13   -1    0    0    0    0  0.00000000000E+00  0.00000000000E+00  0.74505805969E-08  0.10566000000E+00  0.10566000000E+00 0. -1.
     999900   -1    0    0    0    0 -0.00000000000E+00 -0.00000000000E+00 -0.74505805969E-08  0.93827000000E+00  0.93827000000E+00 0.  1.
     999902    2    1    2    0    0  0.15293493472E-01 -0.17452008816E-02 -0.15732820350E-01  0.10219195864E+01  0.10216825255E+01 0.  0.
     999903    2    3    3    0    0  0.90418275434E-01  0.33714943618E-01  0.87592296792E-01  0.13198855847E+00  0.20890360339E-01 0.  0.
         14    1    1    2    0    0 -0.15293493472E-01  0.17452008816E-02  0.15732820350E-01  0.22010413555E-01  0.00000000000E+00 0. -1.
     999901    1    3    3    0    0 -0.75124781962E-01 -0.35460144499E-01 -0.10332511714E+00  0.88993102797E+00  0.88000000000E+00 0.  1.
        -11    1    4    4    0    0  0.62252577390E-01  0.23064449442E-01  0.72490114974E-01  0.98297660754E-01  0.51100000000E-03 0.  1.
         11    1    4    4    0    0  0.28165698044E-01  0.10650494176E-01  0.15102181818E-01  0.33690897720E-01  0.51100000000E-03 0. -1.
</event>
<event>
 8    1  0.1070112E+005  0.1043930E+01  0.7957747E-01            NaN
         13   -1    0    0    0    0  0.00000000000E+00  0.00000000000E+00  0.74505805969E-08  0.10566000000E+00  0.10566000000E+00 0.  1.
     999900   -1    0    0    0    0 -0.00000000000E+00 -0.00000000000E+00 -0.74505805969E-08  0.93827000000E+00  0.93827000000E+00 0.  1.
     999902    2    1    2    0    0  0.17654876721E-01  0.71273774474E-02  0.15676405868E-01  0.10192673991E+01  0.10189689824E+01 0.  0.
     999903    2    3    3    0    0 -0.61475703078E-01 -0.39586967672E-01 -0.10145207624E+00  0.12676364001E+00  0.20739010982E-01 0.  0.
         14    1    1    2    0    0 -0.17654876721E-01 -0.71273774474E-02 -0.15676405868E-01  0.24662600881E-01  0.00000000000E+00 0. -1.
     999901    1    3    3    0    0  0.79130579799E-01  0.46714345119E-01  0.11712848211E+00  0.89250375911E+00  0.88000000000E+00 0. -1.
        -11    1    4    4    0    0 -0.48869941132E-01 -0.33277957428E-01 -0.66015310991E-01  0.88622660777E-01  0.51100000000E-03 0. -1.
         11    1    4    4    0    0 -0.12605761946E-01 -0.63090102442E-02 -0.35436765251E-01  0.38140979235E-01  0.51100000000E-03 0.  1.
</event>
<event>
 8    1  0.1070112E+005  0.1043930E+01  0.7957747E-01            NaN
         13   -1    0    0    0    0  0.00000000000E+00  0.00000000000E+00  0.74505805969E-08  0.10566000000E+00  0.10566000000E+00 0.  1.
     999900   -1    0    0    0    0 -0.00000000000E+00 -0.00000000000E+00 -0.74505805969E-08  0.93827000000E+00  0.93827000000E+00 0. -1.
     999902    2    1    2    0    0  0.16847449541E-01 -0.24018284884E-01 -0.11844053426E-02  0.10145681646E+01  0.10141432064E+01 0.  0.
     999903    2    3    3    0    0  0.10403212917E+00 -0.18736759707E-01 -0.68823428037E-01  0.12766112305E+00  0.19670994591E-01 0.  0.
         14    1    1    2    0    0 -0.16847449541E-01  0.24018284884E-01  0.11844053426E-02  0.29361835447E-01  0.00000000000E+00 0. -1.
     999901    1    3    3    0    0 -0.87184679630E-01 -0.52815251769E-02  0.67639022694E-01  0.88690704150E+00  0.88000000000E+00 0.  1.
        -11    1    4    4    0    0  0.61682076861E-01 -0.17550826706E-02 -0.35890620969E-01  0.71387370841E-01  0.51100000000E-03 0.  1.
         11    1    4    4    0    0  0.42350052311E-01 -0.16981677037E-01 -0.32932807067E-01  0.56273752212E-01  0.51100000000E-03 0. -1.
</event>
<event>
 8    1  0.1070112E+005  0.1043930E+01  0.7957747E-01            NaN
         13   -1    0    0    0    0  0.00000000000E+00  0.00000000000E+00  0.74505805969E-08  0.10566000000E+00  0.10566000000E+00 0. -1.
     999900   -1    0    0    0    0 -0.00000000000E+00 -0.00000000000E+00 -0.74505805969E-08  0.93827000000E+00  0.93827000000E+00 0.  1.
     999902    2    1    2    0    0  0.16712955248E-01 -0.15865172629E-01 -0.41392365303E-02  0.10205171861E+01  0.10202485811E+01 0.  0.
     999903    2    3    3    0    0  0.66229591455E-02  0.11092073769E+00  0.62173166661E-01  0.12890414790E+00  0.20087385497E-01 0.  0.
         14    1    1    2    0    0 -0.16712955248E-01  0.15865172629E-01  0.41392365303E-02  0.23412813900E-01  0.00000000000E+00 0. -1.
     999901    1    3    3    0    0  0.10089996102E-01 -0.12678591031E+00 -0.66312403191E-01  0.89161303820E+00  0.88000000000E+00 0.  1.
        -11    1    4    4    0    0 -0.70092967598E-02  0.37789754910E-01  0.18768599731E-01  0.42775194612E-01  0.51100000000E-03 0.  1.
         11    1    4    4    0    0  0.13632255905E-01  0.73130982775E-01  0.43404566929E-01  0.86128953285E-01  0.51100000000E-03 0. -1.
</event>
<event>
 8    1  0.1070112E+005  0.1043930E+01  0.7957747E-01            NaN
         13   -1    0    0    0    0  0.00000000000E+00  0.00000000000E+00  0.74505805969E-08  0.10566000000E+00  0.10566000000E+00 0.  1.
     999900   -1    0    0    0    0 -0.00000000000E+00 -0.00000000000E+00 -0.74505805969E-08  0.93827000000E+00  0.93827000000E+00 0. -1.
     999902    2    1    2    0    0 -0.41307405438E-02 -0.15730509376E-01 -0.16167257825E-01  0.10209976611E+01  0.10207400902E+01 0.  0.
     999903    2    3    3    0    0  0.29289545479E-01 -0.53497584379E-01 -0.11729241353E+00  0.13377189241E+00  0.20433793546E-01 0.  0.
         14    1    1    2    0    0  0.41307405438E-02  0.15730509376E-01  0.16167257825E-01  0.22932338918E-01  0.00000000000E+00 0.  1.
     999901    1    3    3    0    0 -0.33420286023E-01  0.37767075002E-01  0.10112515571E+00  0.88722576867E+00  0.88000000000E+00 0.  1.
        -11    1    4    4    0    0  0.24538180443E-01 -0.26907541972E-01 -0.56152020002E-01  0.66928682832E-01  0.51100000000E-03 0. -1.
         11    1    4    4    0    0  0.47513650362E-02 -0.26590042407E-01 -0.61140393532E-01  0.66843209581E-01  0.51100000000E-03 0.  1.
</event>
<event>
 8    1  0.1070112E+005  0.1043930E+01  0.7957747E-01            NaN
         13   -1    0    0    0    0  0.00000000000E+00  0.00000000000E+00  0.74505805969E-08  0.10566000000E+00  0.10566000000E+00 0.  1.
     999900   -1    0    0    0    0 -0.00000000000E+00 -0.00000000000E+00 -0.74505805969E-08  0.93827000000E+00  0.93827000000E+00 0.  1.
     999902    2    1    2    0    0  0.17632312242E-01 -0.38884684742E-02  0.14831228956E-01  0.10205637000E+01  0.10202961736E+01 0.  0.
     999903    2    3    3    0    0 -0.83523749991E-01 -0.90985438714E-01 -0.32667643927E-01  0.12923066795E+00  0.19463394049E-01 0.  0.
         14    1    1    2    0    0 -0.17632312242E-01  0.38884684742E-02 -0.14831228956E-01  0.23366299972E-01  0.00000000000E+00 0. -1.
     999901    1    3    3    0    0  0.10115606223E+00  0.87096970240E-01  0.47498872883E-01  0.89133303208E+00  0.88000000000E+00 0. -1.
        -11    1    4    4    0    0 -0.26023498487E-01 -0.17433807204E-01 -0.40915053465E-02  0.31593696272E-01  0.51100000000E-03 0. -1.
         11    1    4    4    0    0 -0.57500251504E-01 -0.73551631510E-01 -0.28576138581E-01  0.97636971676E-01  0.51100000000E-03 0.  1.
</event>
<event>
 8    1  0.1070112E+005  0.1043930E+01  0.7957747E-01            NaN
         13   -1    0    0    0    0  0.00000000000E+00  0.00000000000E+00  0.74505805969E-08  0.10566000000E+00  0.10566000000E+00 0.  1.
     999900   -1    0    0    0    0 -0.00000000000E+00 -0.00000000000E+00 -0.74505805969E-08  0.93827000000E+00  0.93827000000E+00 0.  1.
     999902    2    1    2    0    0  0.12092889624E-01  0.28946692091E-03  0.19350831685E-01  0.10211094729E+01  0.10208544358E+01 0.  0.
     999903    2    3    3    0    0 -0.22184795297E-01  0.55445053552E-01 -0.11266457140E+00  0.12889584092E+00  0.18828517005E-01 0.  0.
         14    1    1    2    0    0 -0.12092889624E-01 -0.28946692091E-03 -0.19350831685E-01  0.22820527107E-01  0.00000000000E+00 0. -1.
     999901    1    3    3    0    0  0.34277684921E-01 -0.55155586631E-01  0.13201540309E+00  0.89221363197E+00  0.88000000000E+00 0.  1.
        -11    1    4    4    0    0 -0.31959252237E-02  0.26911705828E-01 -0.62648434636E-01  0.68260833073E-01  0.51100000000E-03 0.  1.
         11    1    4    4    0    0 -0.18988870073E-01  0.28533347724E-01 -0.50016136766E-01  0.60635007850E-01  0.51100000000E-03 0. -1.
</event>
<event>
 8    1  0.1070112E+005  0.1043930E+01  0.7957747E-01            NaN
         13   -1    0    0    0    0  0.00000000000E+00  0.00000000000E+00  0.74505805969E-08  0.10566000000E+00  0.10566000000E+00 0. -1.
     999900   -1    0    0    0    0 -0.00000000000E+00 -0.00000000000E+00 -0.74505805969E-08  0.93827000000E+00  0.93827000000E+00 0.  1.
     999902    2    1    2    0    0 -0.11147851859E-01  0.62457221359E-02  0.18545336342E-01  0.10214086069E+01  0.10211602857E+01 0.  0.
     999903    2    3    3    0    0  0.12589772913E+00  0.11461810055E-01  0.26620699702E-01  0.13074935090E+00  0.20127588536E-01 0.  0.
         14    1    1    2    0    0  0.11147851859E-01 -0.62457221359E-02 -0.18545336342E-01  0.22521393076E-01  0.00000000000E+00 0.  1.
     999901    1    3    3    0    0 -0.13704558099E+00 -0.52160879187E-02 -0.80753633599E-02  0.89065925602E+00  0.88000000000E+00 0. -1.
        -11    1    4    4    0    0  0.83263921124E-01  0.39756766241E-02  0.26463186890E-01  0.87459979116E-01  0.51100000000E-03 0.  1.
         11    1    4    4    0    0  0.42633808002E-01  0.74861334305E-02  0.15751281164E-03  0.43289371788E-01  0.51100000000E-03 0. -1.
</event>
<event>
 8    1  0.1070112E+005  0.1043930E+01  0.7957747E-01            NaN
         13   -1    0    0    0    0  0.00000000000E+00  0.00000000000E+00  0.74505805969E-08  0.10566000000E+00  0.10566000000E+00 0. -1.
     999900   -1    0    0    0    0 -0.00000000000E+00 -0.00000000000E+00 -0.74505805969E-08  0.93827000000E+00  0.93827000000E+00 0.  1.
     999902    2    1    2    0    0 -0.20688716534E-01  0.82017587461E-02 -0.70618467264E-02  0.10205813059E+01  0.10203141871E+01 0.  0.
     999903    2    3    3    0    0 -0.91069357661E-02 -0.80779134497E-01 -0.10090399922E+00  0.13105441668E+00  0.19632580648E-01 0.  0.
         14    1    1    2    0    0  0.20688716534E-01 -0.82017587461E-02  0.70618467264E-02  0.23348694129E-01  0.00000000000E+00 0.  1.
     999901    1    3    3    0    0 -0.11581780768E-01  0.88980893243E-01  0.93842152498E-01  0.88952688919E+00  0.88000000000E+00 0. -1.
        -11    1    4    4    0    0 -0.70498167816E-02 -0.78776638518E-02 -0.15145897739E-01  0.18477468542E-01  0.51100000000E-03 0. -1.
         11    1    4    4    0    0 -0.20571189845E-02 -0.72901470645E-01 -0.85758101485E-01  0.11257694814E+00  0.51100000000E-03 0.  1.
</event>
<event>
 8    1  0.1070112E+005  0.1043930E+01  0.7957747E-01            NaN
         13   -1    0    0    0    0  0.00000000000E+00  0.00000000000E+00  0.74505805969E-08  0.10566000000E+00  0.10566000000E+00 0.  1.
     999900   -1    0    0    0    0 -0.00000000000E+00 -0.00000000000E+00 -0.74505805969E-08  0.93827000000E+00  0.93827000000E+00 0.  1.
     999902    2    1    2    0    0 -0.20416631748E-01  0.56320956818E-02  0.11762663883E-01  0.10197035761E+01  0.10194157461E+01 0.  0.
     999903    2    3    3    0    0  0.11211061984E+00 -0.52621071921E-01 -0.21869686087E-01  0.12724179041E+00  0.19349981034E-01 0.  0.
         14    1    1    2    0    0  0.20416631748E-01 -0.56320956818E-02 -0.11762663883E-01  0.24226423907E-01  0.00000000000E+00 0. -1.
     999901    1    3    3    0    0 -0.13252725158E+00  0.58253167603E-01  0.33632349970E-01  0.89246178569E+00  0.88000000000E+00 0.  1.
        -11    1    4    4    0    0  0.44217236954E-01 -0.10880295316E-01 -0.54008460582E-02  0.45858206781E-01  0.51100000000E-03 0. -1.
         11    1    4    4    0    0  0.67893382881E-01 -0.41740776605E-01 -0.16468840029E-01  0.81383583624E-01  0.51100000000E-03 0.  1.
</event>
<event>
 8    1  0.1070112E+005  0.1043930E+01  0.7957747E-01            NaN
         13   -1    0    0    0    0  0.00000000000E+00  0.00000000000E+00  0.74505805969E-08  0.10566000000E+00  0.10566000000E+00 0.  1.
     999900   -1    0    0    0    0 -0.00000000000E+00 -0.00000000000E+00 -0.74505805969E-08  0.93827000000E+00  0.93827000000E+00 0.  1.
     999902    2    1    2    0    0  0.21499175607E-01  0.47356557558E-02  0.82156005674E-02  0.10204324027E+01  0.10201618261E+01 0.  0.
     999903    2    3    3    0    0  0.78793616274E-01 -0.76658218293E-01  0.71737233928E-01  0.13254580318E+00  0.18364171950E-01 0.  0.
         14    1    1    2    0    0 -0.21499175607E-01 -0.47356557558E-02 -0.82156005674E-02  0.23497597322E-01  0.00000000000E+00 0. -1.
     999901    1    3    3    0    0 -0.57294440667E-01  0.81393874049E-01 -0.63521633361E-01  0.88788659950E+00  0.88000000000E+00 0.  1.
        -11    1    4    4    0    0  0.10179255697E-01 -0.18919557221E-01  0.17745295847E-01  0.27869760273E-01  0.51100000000E-03 0.  1.
         11    1    4    4    0    0  0.68614360576E-01 -0.57738661072E-01  0.53991938082E-01  0.10467604291E+00  0.51100000000E-03 0. -1.
</event>
<event>
 8    1  0.1070112E+005  0.1043930E+01  0.7957747E-01            NaN
         13   -1    0    0    0    0  0.00000000000E+00  0.00000000000E+00  0.74505805969E-08  0.10566000000E+00  0.10566000000E+00 0. -1.
     999900   -1    0    0    0    0 -0.00000000000E+00 -0.00000000000E+00 -0.74505805969E-08  0.93827000000E+00  0.93827000000E+00 0.  1.
     999902    2    1    2    0    0  0.21665477368E-01  0.82194174917E-02  0.90923784907E-03  0.10207399494E+01  0.10204764896E+01 0.  0.
     999903    2    3    3    0    0 -0.41844198820E-01  0.36132417756E-01  0.11673263009E+00  0.13044355339E+00  0.18235270937E-01 0.  0.
         14    1    1    2    0    0 -0.21665477368E-01 -0.82194174917E-02 -0.90923784907E-03  0.23190050603E-01  0.00000000000E+00 0. -1.
     999901    1    3    3    0    0  0.63509676188E-01 -0.27913000265E-01 -0.11582339224E+00  0.89029639601E+00  0.88000000000E+00 0.  1.
        -11    1    4    4    0    0 -0.24799663947E-01  0.29309868404E-01  0.64358544573E-01  0.74942478598E-01  0.51100000000E-03 0. -1.
         11    1    4    4    0    0 -0.17044534873E-01  0.68225493522E-02  0.52374085514E-01  0.55501074793E-01  0.51100000000E-03 0.  1.
</event>
<event>
 8    1  0.1070112E+005  0.1043930E+01  0.7957747E-01            NaN
         13   -1    0    0    0    0  0.00000000000E+00  0.00000000000E+00  0.74505805969E-08  0.10566000000E+00  0.10566000000E+00 0.  1.
     999900   -1    0    0    0    0 -0.00000000000E+00 -0.00000000000E+00 -0.74505805969E-08  0.93827000000E+00  0.93827000000E+00 0.  1.
     999902    2    1    2    0    0 -0.14806896052E-01 -0.14121295099E-01 -0.12976465007E-01  0.10197010134E+01  0.10194131219E+01 0.  0.
     999903    2    3    3    0    0  0.22900476072E-01 -0.11138816289E+00  0.60581742478E-01  0.13049153341E+00  0.20643113455E-01 0.  0.
         14    1    1    2    0    0  0.14806896052E-01  0.14121295099E-01  0.12976465007E-01  0.24228986567E-01  0.00000000000E+00 0.  1.
     999901    1    3    3    0    0 -0.37707372124E-01  0.97266867789E-01 -0.73558207484E-01  0.88920948003E+00  0.88000000000E+00 0. -1.
        -11    1    4    4    0    0  0.36421190645E-02 -0.12546526789E-01  0.15162541471E-01  0.20021092643E-01  0.51100000000E-03 0. -1.
         11    1    4    4    0    0  0.19258357007E-01 -0.98841636099E-01  0.45419201007E-01  0.11047044076E+00  0.51100000000E-03 0.  1.
</event>
<event>
 8    1  0.1070112E+005  0.1043930E+01  0.7957747E-01            NaN
         13   -1    0    0    0    0  0.00000000000E+00  0.00000000000E+00  0.74505805969E-08  0.10566000000E+00  0.10566000000E+00 0.  1.
     999900   -1    0    0    0    0 -0.00000000000E+00 -0.00000000000E+00 -0.74505805969E-08  0.93827000000E+00  0.93827000000E+00 0. -1.
     999902    2    1    2    0    0  0.51489464210E-02 -0.21892491001E-01  0.78178190375E-02  0.10201201049E+01  0.10198422021E+01 0.  0.
     999903    2    3    3    0    0  0.31071257439E-02 -0.83255900018E-01 -0.99712965323E-01  0.13145115268E+00  0.19887960437E-01 0.  0.
         14    1    1    2    0    0 -0.51489464210E-02  0.21892491001E-01 -0.78178190375E-02  0.23809895127E-01  0.00000000000E+00 0. -1.
     999901    1    3    3    0    0  0.20418206771E-02  0.61363409017E-01  0.10753078436E+00  0.88866895219E+00  0.88000000000E+00 0.  1.
        -11    1    4    4    0    0 -0.80990852375E-02 -0.29280428900E-01 -0.31860136503E-01  0.44025766515E-01  0.51100000000E-03 0.  1.
         11    1    4    4    0    0  0.11206210981E-01 -0.53975471118E-01 -0.67852828821E-01  0.87425386170E-01  0.51100000000E-03 0. -1.
</event>
<event>
 8    1  0.1070112E+005  0.1043930E+01  0.7957747E-01            NaN
         13   -1    0    0    0    0  0.00000000000E+00  0.00000000000E+00  0.74505805969E-08  0.10566000000E+00  0.10566000000E+00 0. -1.
     999900   -1    0    0    0    0 -0.00000000000E+00 -0.00000000000E+00 -0.74505805969E-08  0.93827000000E+00  0.93827000000E+00 0. -1.
     999902    2    1    2    0    0 -0.23703624165E-02  0.21276899470E-01 -0.53259342621E-03  0.10225148482E+01  0.10222905684E+01 0.  0.
     999903    2    3    3    0    0 -0.33216609242E-01  0.52992087094E-01 -0.11705594356E+00  0.13373195282E+00  0.16451044310E-01 0.  0.
         14    1    1    2    0    0  0.23703624165E-02 -0.21276899470E-01  0.53259342621E-03  0.21415151758E-01  0.00000000000E+00 0.  1.
     999901    1    3    3    0    0  0.30846246826E-01 -0.31715187623E-01  0.11652335013E+00  0.88878289542E+00  0.88000000000E+00 0.  1.
        -11    1    4    4    0    0 -0.15984401863E-01  0.39684060530E-01 -0.81117353890E-01  0.91709388757E-01  0.51100000000E-03 0. -1.
         11    1    4    4    0    0 -0.17232207379E-01  0.13308026564E-01 -0.35938589667E-01  0.42022564063E-01  0.51100000000E-03 0.  1.
</event>
<event>
 8    1  0.1070112E+005  0.1043930E+01  0.7957747E-01            NaN
         13   -1    0    0    0    0  0.00000000000E+00  0.00000000000E+00  0.74505805969E-08  0.10566000000E+00  0.10566000000E+00 0.  1.
     999900   -1    0    0    0    0 -0.00000000000E+00 -0.00000000000E+00 -0.74505805969E-08  0.93827000000E+00  0.93827000000E+00 0.  1.
     999902    2    1    2    0    0 -0.10253641575E-01 -0.19687734085E-01 -0.91836169823E-02  0.10199074510E+01  0.10196245023E+01 0.  0.
     999903    2    3    3    0    0 -0.95384443756E-01 -0.82049737656E-01 -0.38490710878E-01  0.13311819830E+00  0.20213073385E-01 0.  0.
         14    1    1    2    0    0  0.10253641575E-01  0.19687734085E-01  0.91836169823E-02  0.24022548987E-01  0.00000000000E+00 0.  1.
     999901    1    3    3    0    0  0.85130802181E-01  0.62362003571E-01  0.29307093896E-01  0.88678925271E+00  0.88000000000E+00 0. -1.
        -11    1    4    4    0    0 -0.38242157583E-01 -0.21276241672E-01 -0.93350518220E-02  0.44749808824E-01  0.51100000000E-03 0.  1.
         11    1    4    4    0    0 -0.57142286173E-01 -0.60773495984E-01 -0.29155659056E-01  0.88368389479E-01  0.51100000000E-03 0. -1.
</event>
<event>
 8    1  0.1070112E+005  0.1043930E+01  0.7957747E-01            NaN
         13   -1    0    0    0    0  0.00000000000E+00  0.00000000000E+00  0.74505805969E-08  0.10566000000E+00  0.10566000000E+00 0. -1.
     999900   -1    0    0    0    0 -0.00000000000E+00 -0.00000000000E+00 -0.74505805969E-08  0.93827000000E+00  0.93827000000E+00 0.  1.
     999902    2    1    2    0    0  0.25559631320E-01  0.32779388774E-02  0.30859487331E-02  0.10179769132E+01  0.10176460254E+01 0.  0.
     999903    2    3    3    0    0 -0.10230797095E+00  0.96191870091E-02 -0.69553249150E-01  0.12575116359E+00  0.20402230227E-01 0.  0.
         14    1    1    2    0    0 -0.25559631320E-01 -0.32779388774E-02 -0.30859487331E-02  0.25953086832E-01  0.00000000000E+00 0.  1.
     999901    1    3    3    0    0  0.12786760227E+00 -0.63412481317E-02  0.72639197883E-01  0.89222574958E+00  0.88000000000E+00 0.  1.
        -11    1    4    4    0    0 -0.52147708787E-01  0.15067657222E-01 -0.37384463702E-01  0.65911130116E-01  0.51100000000E-03 0.  1.
         11    1    4    4    0    0 -0.50160262166E-01 -0.54484702130E-02 -0.32168785448E-01  0.59840033476E-01  0.51100000000E-03 0. -1.
</event>
<event>
 8    1  0.1070112E+005  0.1043930E+01  0.7957747E-01            NaN
         13   -1    0    0    0    0  0.00000000000E+00  0.00000000000E+00  0.74505805969E-08  0.10566000000E+00  0.10566000000E+00 0.  1.
     999900   -1    0    0    0    0 -0.00000000000E+00 -0.00000000000E+00 -0.74505805969E-08  0.93827000000E+00  0.93827000000E+00 0.  1.
     999902    2    1    2    0    0 -0.94044323192E-02  0.81000104381E-02  0.19908178857E-01  0.10204696270E+01  0.10201999169E+01 0.  0.
     999903    2    3    3    0    0 -0.10734022558E+00 -0.69730539522E-01  0.23247441601E-01  0.13161634057E+00  0.19953580950E-01 0.  0.
         14    1    1    2    0    0  0.94044323192E-02 -0.81000104381E-02 -0.19908178857E-01  0.23460373009E-01  0.00000000000E+00 0. -1.
     999901    1    3    3    0    0  0.97935793266E-01  0.77830549960E-01 -0.33392627437E-02  0.88885328642E+00  0.88000000000E+00 0.  1.
        -11    1    4    4    0    0 -0.74846271669E-01 -0.37323050863E-01  0.15945483098E-01  0.85143960799E-01  0.51100000000E-03 0. -1.
         11    1    4    4    0    0 -0.32493953916E-01 -0.32407488659E-01  0.73019585027E-02  0.46472379768E-01  0.51100000000E-03 0.  1.
</event>
<event>
 8    1  0.1070112E+005  0.1043930E+01  0.7957747E-01            NaN
         13   -1    0    0    0    0  0.00000000000E+00  0.00000000000E+00  0.74505805969E-08  0.10566000000E+00  0.10566000000E+00 0.  1.
     999900   -1    0    0    0    0 -0.00000000000E+00 -0.00000000000E+00 -0.74505805969E-08  0.93827000000E+00  0.93827000000E+00 0.  1.
     999902    2    1    2    0    0 -0.15823479679E-01  0.38414632596E-02  0.16838543460E-01  0.10205061682E+01  0.10202373074E+01 0.  0.
     999903    2    3    3    0    0 -0.12569070699E+00  0.26905435031E-01 -0.24849709217E-01  0.13239544042E+00  0.19722787255E-01 0.  0.
         14    1    1    2    0    0  0.15823479679E-01 -0.38414632596E-02 -0.16838543460E-01  0.23423831774E-01  0.00000000000E+00 0. -1.
     999901    1    3    3    0    0  0.10986722732E+00 -0.23063971771E-01  0.41688252676E-01  0.88811072781E+00  0.88000000000E+00 0. -1.
        -11    1    4    4    0    0 -0.81303494638E-01  0.10685900396E-01 -0.87588727893E-02  0.82470756521E-01  0.51100000000E-03 0.  1.
         11    1    4    4    0    0 -0.44387212356E-01  0.16219534635E-01 -0.16090836428E-01  0.49924683900E-01  0.51100000000E-03 0. -1.
</event>
<event>
 8    1  0.1070112E+005  0.1043930E+01  0.7957747E-01            NaN
         13   -1    0    0    0    0  0.00000000000E+00  0.00000000000E+00  0.74505805969E-08  0.10566000000E+00  0.10566000000E+00 0. -1.
     999900   -1    0    0    0    0 -0.00000000000E+00 -0.00000000000E+00 -0.74505805969E-08  0.93827000000E+00  0.93827000000E+00 0.  1.
     999902    2    1    2    0    0 -0.21349074649E-01 -0.59284468602E-02 -0.62458160605E-02  0.10209095810E+01  0.10206500051E+01 0.  0.
     999903    2    3    3    0    0  0.50817754213E-01 -0.71062855427E-01  0.93912812556E-01  0.12990885532E+00  0.20599047608E-01 0.  0.
         14    1    1    2    0    0  0.21349074649E-01  0.59284468602E-02  0.62458160605E-02  0.23020418954E-01  0.00000000000E+00 0. -1.
     999901    1    3    3    0    0 -0.72166828862E-01  0.65134408567E-01 -0.10015862862E+00  0.89100072573E+00  0.88000000000E+00 0.  1.
        -11    1    4    4    0    0  0.22669649420E-01 -0.23455135527E-01  0.47943571878E-01  0.57990547444E-01  0.51100000000E-03 0. -1.
         11    1    4    4    0    0  0.28148104794E-01 -0.47607719900E-01  0.45969240678E-01  0.71918307871E-01  0.51100000000E-03 0.  1.
</event>
<event>
 8    1  0.1070112E+005  0.1043930E+01  0.7957747E-01            NaN
         13   -1    0    0    0    0  0.00000000000E+00  0.00000000000E+00  0.74505805969E-08  0.10566000000E+00  0.10566000000E+00 0.  1.
     999900   -1    0    0    0    0 -0.00000000000E+00 -0.00000000000E+00 -0.74505805969E-08  0.93827000000E+00  0.93827000000E+00 0. -1.
     999902    2    1    2    0    0  0.23014928444E-01 -0.21577033273E-01  0.58853167167E-02  0.10118380657E+01  0.10113290161E+01 0.  0.
     999903    2    3    3    0    0  0.52507641538E-01  0.79485102712E-01 -0.73587785660E-01  0.12200698650E+00  0.19889911601E-01 0.  0.
         14    1    1    2    0    0 -0.23014928444E-01  0.21577033273E-01 -0.58853167167E-02  0.32091934329E-01  0.00000000000E+00 0.  1.
     999901    1    3    3    0    0 -0.29492713095E-01 -0.10106213599E+00  0.79473102377E-01  0.88983107917E+00  0.88000000000E+00 0.  1.
        -11    1    4    4    0    0  0.38185149004E-01  0.65320089979E-01 -0.48689971743E-01  0.89976631570E-01  0.51100000000E-03 0. -1.
         11    1    4    4    0    0  0.14322492534E-01  0.14165012734E-01 -0.24897813918E-01  0.32030354931E-01  0.51100000000E-03 0.  1.
</event>
<event>
 8    1  0.1070112E+005  0.1043930E+01  0.7957747E-01            NaN
         13   -1    0    0    0    0  0.00000000000E+00  0.00000000000E+00  0.74505805969E-08  0.10566000000E+00  0.10566000000E+00 0.  1.
     999900   -1    0    0    0    0 -0.00000000000E+00 -0.00000000000E+00 -0.74505805969E-08  0.93827000000E+00  0.93827000000E+00 0. -1.
     999902    2    1    2    0    0  0.15973959286E-01  0.84955425433E-03  0.33930810887E-01  0.10064174815E+01  0.10057181305E+01 0.  0.
     999903    2    3    3    0    0 -0.52735398913E-02 -0.19529446312E-01  0.11869493372E+00  0.12185447276E+00  0.18730075922E-01 0.  0.
         14    1    1    2    0    0 -0.15973959286E-01 -0.84955425433E-03 -0.33930810887E-01  0.37512518513E-01  0.00000000000E+00 0. -1.
     999901    1    3    3    0    0  0.21247499177E-01  0.20379000567E-01 -0.84764122837E-01  0.88456300873E+00  0.88000000000E+00 0. -1.
        -11    1    4    4    0    0  0.48194218426E-02 -0.75429910893E-02  0.72918676574E-01  0.73467802852E-01  0.51100000000E-03 0.  1.
         11    1    4    4    0    0 -0.10092961734E-01 -0.11986455223E-01  0.45776257149E-01  0.48386669910E-01  0.51100000000E-03 0. -1.
</event>
<event>
 8    1  0.1070112E+005  0.1043930E+01  0.7957747E-01            NaN
         13   -1    0    0    0    0  0.00000000000E+00  0.00000000000E+00  0.74505805969E-08  0.10566000000E+00  0.10566000000E+00 0. -1.
     999900   -1    0    0    0    0 -0.00000000000E+00 -0.00000000000E+00 -0.74505805969E-08  0.93827000000E+00  0.93827000000E+00 0. -1.
     999902    2    1    2    0    0 -0.34659886926E-01  0.10252498794E-01  0.21393422464E-02  0.10077222898E+01  0.10070716037E+01 0.  0.
     999903    2    3    3    0    0  0.13099556395E-01  0.53099426733E-01 -0.10374808763E+00  0.11905532660E+00  0.20478222793E-01 0.  0.
         14    1    1    2    0    0  0.34659886926E-01 -0.10252498794E-01 -0.21393422464E-02  0.36207710208E-01  0.00000000000E+00 0. -1.
     999901    1    3    3    0    0 -0.47759443321E-01 -0.42846927939E-01  0.10588742987E+00  0.88866696319E+00  0.88000000000E+00 0.  1.
        -11    1    4    4    0    0  0.12369135809E-01  0.32244300734E-01 -0.45121380163E-01  0.56823327246E-01  0.51100000000E-03 0. -1.
         11    1    4    4    0    0  0.73042058580E-03  0.20855125999E-01 -0.58626707465E-01  0.62231999357E-01  0.51100000000E-03 0.  1.
</event>
<event>
 8    1  0.1070112E+005  0.1043930E+01  0.7957747E-01            NaN
         13   -1    0    0    0    0  0.00000000000E+00  0.00000000000E+00  0.74505805969E-08  0.10566000000E+00  0.10566000000E+00 0.  1.
     999900   -1    0    0    0    0 -0.00000000000E+00 -0.00000000000E+00 -0.74505805969E-08  0.93827000000E+00  0.93827000000E+00 0. -1.
     999902    2    1    2    0    0  0.17473331611E-01  0.27700066293E-02 -0.15093118134E-01  0.10206750549E+01  0.10204101015E+01 0.  0.
     999903    2    3    3    0    0 -0.10801694960E+00  0.24393181803E-02 -0.69599298539E-01  0.13010285477E+00  0.20225696246E-01 0.  0.
         14    1    1    2    0    0 -0.17473331611E-01 -0.27700066293E-02  0.15093118134E-01  0.23254945051E-01  0.00000000000E+00 0.  1.
     999901    1    3    3    0    0  0.12549028121E+00  0.33068844896E-03  0.54506180405E-01  0.89057220018E+00  0.88000000000E+00 0.  1.
        -11    1    4    4    0    0 -0.79864161315E-01  0.16066898900E-02 -0.40350435037E-01  0.89494605668E-01  0.51100000000E-03 0.  1.
         11    1    4    4    0    0 -0.28152788280E-01  0.83262829029E-03 -0.29248863503E-01  0.40608249101E-01  0.51100000000E-03 0. -1.
</event>
<event>
 8    1  0.1070112E+005  0.1043930E+01  0.7957747E-01            NaN
         13   -1    0    0    0    0  0.00000000000E+00  0.00000000000E+00  0.74505805969E-08  0.10566000000E+00  0.10566000000E+00 0. -1.
     999900   -1    0    0    0    0 -0.00000000000E+00 -0.00000000000E+00 -0.74505805969E-08  0.93827000000E+00  0.93827000000E+00 0.  1.
     999902    2    1    2    0    0 -0.64473239286E-02 -0.18277229719E-01  0.13552382289E-01  0.10202806411E+01  0.10200065168E+01 0.  0.
     999903    2    3    3    0    0 -0.19085973389E-02 -0.18515061818E-01  0.12977105463E+00  0.13262787315E+00  0.20079239442E-01 0.  0.
         14    1    1    2    0    0  0.64473239286E-02  0.18277229719E-01 -0.13552382289E-01  0.23649358929E-01  0.00000000000E+00 0.  1.
     999901    1    3    3    0    0 -0.45387265897E-02  0.23783209985E-03 -0.11621867235E+00  0.88765276792E+00  0.88000000000E+00 0.  1.
        -11    1    4    4    0    0 -0.27054633636E-02 -0.74419178334E-03  0.74666430183E-01  0.74720882427E-01  0.51100000000E-03 0. -1.
         11    1    4    4    0    0  0.79686602461E-03 -0.17770870035E-01  0.55104624451E-01  0.57906990719E-01  0.51100000000E-03 0.  1.
</event>
<event>
 8    1  0.1070112E+005  0.1043930E+01  0.7957747E-01            NaN
         13   -1    0    0    0    0  0.00000000000E+00  0.00000000000E+00  0.74505805969E-08  0.10566000000E+00  0.10566000000E+00 0. -1.
     999900   -1    0    0    0    0 -0.00000000000E+00 -0.00000000000E+00 -0.74505805969E-08  0.93827000000E+00  0.93827000000E+00 0.  1.
     999902    2    1    2    0    0 -0.17983369800E-01  0.12088531512E-01 -0.10225750550E-01  0.10199696127E+01  0.10196881439E+01 0.  0.
     999903    2    3    3    0    0 -0.13014925227E+00  0.34846204201E-02  0.13307685068E-01  0.13249621310E+00  0.20668370906E-01 0.  0.
         14    1    1    2    0    0  0.17983369800E-01 -0.12088531512E-01  0.10225750550E-01  0.23960387263E-01  0.00000000000E+00 0. -1.
     999901    1    3    3    0    0  0.11216588247E+00  0.86039110919E-02 -0.23533435618E-01  0.88747339964E+00  0.88000000000E+00 0.  1.
        -11    1    4    4    0    0 -0.11393969317E+00  0.99318326940E-02  0.11355087377E-01  0.11493517352E+00  0.51100000000E-03 0. -1.
         11    1    4    4    0    0 -0.16209559103E-01 -0.64472122739E-02  0.19525976910E-02  0.17561039581E-01  0.51100000000E-03 0.  1.
</event>
<event>
 8    1  0.1070112E+005  0.1043930E+01  0.7957747E-01            NaN
         13   -1    0    0    0    0  0.00000000000E+00  0.00000000000E+00  0.74505805969E-08  0.10566000000E+00  0.10566000000E+00 0.  1.
     999900   -1    0    0    0    0 -0.00000000000E+00 -0.00000000000E+00 -0.74505805969E-08  0.93827000000E+00  0.93827000000E+00 0. -1.
     999902    2    1    2    0    0  0.89424121467E-02 -0.11795294812E-01  0.22151222260E-01  0.10172884467E+01  0.10169395318E+01 0.  0.
     999903    2    3    3    0    0 -0.80535212446E-01  0.74232345165E-01 -0.56826096222E-01  0.12507523396E+00  0.20451098434E-01 0.  0.
         14    1    1    2    0    0 -0.89424121467E-02  0.11795294812E-01 -0.22151222260E-01  0.26641553301E-01  0.00000000000E+00 0. -1.
     999901    1    3    3    0    0  0.89477624592E-01 -0.86027639977E-01  0.78977318481E-01  0.89221321273E+00  0.88000000000E+00 0. -1.
        -11    1    4    4    0    0 -0.31380340065E-01  0.16501677283E-01 -0.21037290364E-01  0.41229356078E-01  0.51100000000E-03 0. -1.
         11    1    4    4    0    0 -0.49154872381E-01  0.57730667882E-01 -0.35788805858E-01  0.83845877887E-01  0.51100000000E-03 0.  1.
</event>
<event>
 8    1  0.1070112E+005  0.1043930E+01  0.7957747E-01            NaN
         13   -1    0    0    0    0  0.00000000000E+00  0.00000000000E+00  0.74505805969E-08  0.10566000000E+00  0.10566000000E+00 0. -1.
     999900   -1    0    0    0    0 -0.00000000000E+00 -0.00000000000E+00 -0.74505805969E-08  0.93827000000E+00  0.93827000000E+00 0.  1.
     999902    2    1    2    0    0  0.58914659082E-02  0.13363491982E-01 -0.18969259779E-01  0.10199899686E+01  0.10197089834E+01 0.  0.
     999903    2    3    3    0    0  0.40234824293E-01  0.51410378077E-01  0.10821496731E+00  0.12937060013E+00  0.27647874601E-01 0.  0.
         14    1    1    2    0    0 -0.58914659082E-02 -0.13363491982E-01  0.18969259779E-01  0.23940031434E-01  0.00000000000E+00 0. -1.
     999901    1    3    3    0    0 -0.34343358384E-01 -0.38046886095E-01 -0.12718422709E+00  0.89061936843E+00  0.88000000000E+00 0.  1.
        -11    1    4    4    0    0  0.31882578216E-01  0.33772447757E-01  0.95145878380E-01  0.10587764785E+00  0.51100000000E-03 0.  1.
         11    1    4    4    0    0  0.83522460766E-02  0.17637930320E-01  0.13069088927E-01  0.23492952281E-01  0.51100000000E-03 0. -1.
</event>
<event>
 8    1  0.1070112E+005  0.1043930E+01  0.7957747E-01            NaN
         13   -1    0    0    0    0  0.00000000000E+00  0.00000000000E+00  0.74505805969E-08  0.10566000000E+00  0.10566000000E+00 0.  1.
     999900   -1    0    0    0    0 -0.00000000000E+00 -0.00000000000E+00 -0.74505805969E-08  0.93827000000E+00  0.93827000000E+00 0. -1.
     999902    2    1    2    0    0  0.94166985190E-02 -0.17218305689E-01 -0.12695698488E-01  0.10205564033E+01  0.10202887078E+01 0.  0.
     999903    2    3    3    0    0  0.67593771191E-01 -0.73903632820E-01  0.82957248228E-01  0.13165411155E+00  0.20499639172E-01 0.  0.
         14    1    1    2    0    0 -0.94166985190E-02  0.17218305689E-01  0.12695698488E-01  0.23373596683E-01  0.00000000000E+00 0.  1.
     999901    1    3    3    0    0 -0.58177072672E-01  0.56685327130E-01 -0.95652946716E-01  0.88890229177E+00  0.88000000000E+00 0. -1.
        -11    1    4    4    0    0  0.11685613163E-01 -0.18125746203E-01  0.28410549384E-01  0.35672351587E-01  0.51100000000E-03 0. -1.
         11    1    4    4    0    0  0.55908158028E-01 -0.55777886617E-01  0.54546698843E-01  0.95981759961E-01  0.51100000000E-03 0.  1.
</event>
<event>
 8    1  0.1070112E+005  0.1043930E+01  0.7957747E-01            NaN
         13   -1    0    0    0    0  0.00000000000E+00  0.00000000000E+00  0.74505805969E-08  0.10566000000E+00  0.10566000000E+00 0.  1.
     999900   -1    0    0    0    0 -0.00000000000E+00 -0.00000000000E+00 -0.74505805969E-08  0.93827000000E+00  0.93827000000E+00 0.  1.
     999902    2    1    2    0    0  0.21486459993E-01 -0.58009475258E-02 -0.81289267760E-02  0.10202361526E+01  0.10199609839E+01 0.  0.
     999903    2    3    3    0    0 -0.70091838707E-01 -0.84142507568E-01  0.65203806407E-01  0.12900011505E+00  0.19916472595E-01 0.  0.
         14    1    1    2    0    0 -0.21486459993E-01  0.58009475258E-02  0.81289267760E-02  0.23693847424E-01  0.00000000000E+00 0.  1.
     999901    1    3    3    0    0  0.91578298700E-01  0.78341560043E-01 -0.73332733183E-01  0.89123603752E+00  0.88000000000E+00 0.  1.
        -11    1    4    4    0    0 -0.70164678574E-01 -0.78059723766E-01  0.63451652507E-01  0.12264899478E+00  0.51100000000E-03 0. -1.
         11    1    4    4    0    0  0.72839866962E-04 -0.60827838022E-02  0.17521538999E-02  0.63511202728E-02  0.51100000000E-03 0.  1.
</event>
<event>
 8    1  0.1070112E+005  0.1043930E+01  0.7957747E-01            NaN
         13   -1    0    0    0    0  0.00000000000E+00  0.00000000000E+00  0.74505805969E-08  0.10566000000E+00  0.10566000000E+00 0. -1.
     999900   -1    0    0    0    0 -0.00000000000E+00 -0.00000000000E+00 -0.74505805969E-08  0.93827000000E+00  0.93827000000E+00 0. -1.
     999902    2    1    2    0    0 -0.35085269416E-01  0.71739080569E-02  0.29357500774E-02  0.10079986806E+01  0.10073580696E+01 0.  0.
     999903    2    3    3    0    0  0.47336012722E-01 -0.81832313731E-01 -0.66106391739E-01  0.11699801132E+00  0.19525725443E-01 0.  0.
         14    1    1    2    0    0  0.35085269416E-01 -0.71739080569E-02 -0.29357500774E-02  0.35931319421E-01  0.00000000000E+00 0.  1.
     999901    1    3    3    0    0 -0.82421282138E-01  0.89006221788E-01  0.69042141817E-01  0.89100066925E+00  0.88000000000E+00 0.  1.
        -11    1    4    4    0    0  0.36785953701E-03 -0.51289814132E-02  0.33169016093E-03  0.51781184168E-02  0.51100000000E-03 0. -1.
         11    1    4    4    0    0  0.46968153185E-01 -0.76703332317E-01 -0.66438081900E-01  0.11181989291E+00  0.51100000000E-03 0.  1.
</event>
<event>
 8    1  0.1070112E+005  0.1043930E+01  0.7957747E-01            NaN
         13   -1    0    0    0    0  0.00000000000E+00  0.00000000000E+00  0.74505805969E-08  0.10566000000E+00  0.10566000000E+00 0.  1.
     999900   -1    0    0    0    0 -0.00000000000E+00 -0.00000000000E+00 -0.74505805969E-08  0.93827000000E+00  0.93827000000E+00 0. -1.
     999902    2    1    2    0    0 -0.22511295641E-01 -0.72187370736E-02 -0.22156664233E-02  0.10201859950E+01  0.10199096463E+01 0.  0.
     999903    2    3    3    0    0  0.65197289612E-01  0.83461919371E-01  0.69581507374E-01  0.12829440317E+00  0.20032203059E-01 0.  0.
         14    1    1    2    0    0  0.22511295641E-01  0.72187370736E-02  0.22156664233E-02  0.23744005013E-01  0.00000000000E+00 0.  1.
     999901    1    3    3    0    0 -0.87708585253E-01 -0.90680656445E-01 -0.71797173798E-01  0.89189159181E+00  0.88000000000E+00 0. -1.
        -11    1    4    4    0    0  0.46622740460E-01  0.57660736927E-01  0.37385448009E-01  0.83044405921E-01  0.51100000000E-03 0.  1.
         11    1    4    4    0    0  0.18574549152E-01  0.25801182444E-01  0.32196059366E-01  0.45249997253E-01  0.51100000000E-03 0. -1.
</event>
<event>
 8    1  0.1070112E+005  0.1043930E+01  0.7957747E-01            NaN
         13   -1    0    0    0    0  0.00000000000E+00  0.00000000000E+00  0.74505805969E-08  0.10566000000E+00  0.10566000000E+00 0. -1.
     999900   -1    0    0    0    0 -0.00000000000E+00 -0.00000000000E+00 -0.74505805969E-08  0.93827000000E+00  0.93827000000E+00 0. -1.
     999902    2    1    2    0    0  0.28824095917E-02 -0.99002888526E-02 -0.21704098814E-01  0.10199010194E+01  0.10196179174E+01 0.  0.
     999903    2    3    3    0    0  0.56879527547E-01  0.93775978010E-01  0.63361668075E-01  0.12810471878E+00  0.19154719720E-01 0.  0.
         14    1    1    2    0    0 -0.28824095917E-02  0.99002888526E-02  0.21704098814E-01  0.24028980622E-01  0.00000000000E+00 0.  1.
     999901    1    3    3    0    0 -0.53997117955E-01 -0.10367626686E+00 -0.85065766889E-01  0.89179630059E+00  0.88000000000E+00 0. -1.
        -11    1    4    4    0    0  0.23097173738E-01  0.44761049777E-01  0.39324110400E-01  0.63903660236E-01  0.51100000000E-03 0. -1.
         11    1    4    4    0    0  0.33782353809E-01  0.49014928233E-01  0.24037557675E-01  0.64201058547E-01  0.51100000000E-03 0.  1.
</event>
<event>
 8    1  0.1070112E+005  0.1043930E+01  0.7957747E-01            NaN
         13   -1    0    0    0    0  0.00000000000E+00  0.00000000000E+00  0.74505805969E-08  0.10566000000E+00  0.10566000000E+00 0.  1.
     999900   -1    0    0    0    0 -0.00000000000E+00 -0.00000000000E+00 -0.74505805969E-08  0.93827000000E+00  0.93827000000E+00 0. -1.
     999902    2    1    2    0    0 -0.65121614648E-02  0.11887603581E-01  0.24015727517E-01  0.10163532247E+01  0.10159790347E+01 0.  0.
     999903    2    3    3    0    0 -0.12571759325E-01 -0.10432443330E+00 -0.62952318110E-01  0.12444213208E+00  0.21936575976E-01 0.  0.
         14    1    1    2    0    0  0.65121614648E-02 -0.11887603581E-01 -0.24015727517E-01  0.27576775265E-01  0.00000000000E+00 0. -1.
     999901    1    3    3    0    0  0.60595978599E-02  0.11621203688E+00  0.86968045627E-01  0.89191109266E+00  0.88000000000E+00 0. -1.
        -11    1    4    4    0    0 -0.17940054356E-01 -0.61562979481E-01 -0.40503073566E-01  0.75845936491E-01  0.51100000000E-03 0. -1.
         11    1    4    4    0    0  0.53682950308E-02 -0.42761453817E-01 -0.22449244544E-01  0.48596195589E-01  0.51100000000E-03 0.  1.
</event>
<event>
 8    1  0.1070112E+005  0.1043930E+01  0.7957747E-01            NaN
         13   -1    0    0    0    0  0.00000000000E+00  0.00000000000E+00  0.74505805969E-08  0.10566000000E+00  0.10566000000E+00 0.  1.
     999900   -1    0    0    0    0 -0.00000000000E+00 -0.00000000000E+00 -0.74505805969E-08  0.93827000000E+00  0.93827000000E+00 0. -1.
     999902    2    1    2    0    0 -0.12854010070E-01  0.49414570678E-02 -0.17087630254E-01  0.10219839142E+01  0.10217482519E+01 0.  0.
     999903    2    3    3    0    0  0.10034873378E+00 -0.80743997603E-01 -0.28596525503E-02  0.13049118083E+00  0.20743894068E-01 0.  0.
         14    1    1    2    0    0  0.12854010070E-01 -0.49414570678E-02  0.17087630254E-01  0.21946085768E-01  0.00000000000E+00 0.  1.
     999901    1    3    3    0    0 -0.11320274385E+00  0.85685454670E-01 -0.14227977703E-01  0.89149273340E+00  0.88000000000E+00 0.  1.
        -11    1    4    4    0    0  0.49785195978E-01 -0.47698844963E-01 -0.99757548595E-02  0.69667225834E-01  0.51100000000E-03 0.  1.
         11    1    4    4    0    0  0.50563537806E-01 -0.33045152639E-01  0.71161023092E-02  0.60823954997E-01  0.51100000000E-03 0. -1.
</event>
<event>
 8    1  0.1070112E+005  0.1043930E+01  0.7957747E-01            NaN
         13   -1    0    0    0    0  0.00000000000E+00  0.00000000000E+00  0.74505805969E-08  0.10566000000E+00  0.10566000000E+00 0. -1.
     999900   -1    0    0    0    0 -0.00000000000E+00 -0.00000000000E+00 -0.74505805969E-08  0.93827000000E+00  0.93827000000E+00 0. -1.
     999902    2    1    2    0    0 -0.13891947847E-02 -0.18950205801E-01  0.15969949710E-01  0.10191090521E+01  0.10188067435E+01 0.  0.
     999903    2    3    3    0    0  0.49578398878E-01 -0.84650077764E-01  0.87708798668E-01  0.13228289593E+00  0.13501032954E-01 0.  0.
         14    1    1    2    0    0  0.13891947847E-02  0.18950205801E-01 -0.15969949710E-01  0.24820947922E-01  0.00000000000E+00 0.  1.
     999901    1    3    3    0    0 -0.50967593663E-01  0.65699871963E-01 -0.71738848958E-01  0.88682615615E+00  0.88000000000E+00 0.  1.
        -11    1    4    4    0    0  0.28495112926E-01 -0.59142965405E-01  0.53563690534E-01  0.84730112016E-01  0.51100000000E-03 0. -1.
         11    1    4    4    0    0  0.21083285952E-01 -0.25507112359E-01  0.34145108134E-01  0.47552783913E-01  0.51100000000E-03 0.  1.
</event>
<event>
 8    1  0.1070112E+005  0.1043930E+01  0.7957747E-01            NaN
         13   -1    0    0    0    0  0.00000000000E+00  0.00000000000E+00  0.74505805969E-08  0.10566000000E+00  0.10566000000E+00 0.  1.
     999900   -1    0    0    0    0 -0.00000000000E+00 -0.00000000000E+00 -0.74505805969E-08  0.93827000000E+00  0.93827000000E+00 0.  1.
     999902    2    1    2    0    0  0.19405028010E-02 -0.19664367942E-01 -0.17006912575E-01  0.10178591735E+01  0.10175252376E+01 0.  0.
     999903    2    3    3    0    0 -0.74119489195E-01  0.79999652401E-02 -0.10440376378E+00  0.12983403463E+00  0.19975798730E-01 0.  0.
         14    1    1    2    0    0 -0.19405028010E-02  0.19664367942E-01  0.17006912575E-01  0.26070826474E-01  0.00000000000E+00 0.  1.
     999901    1    3    3    0    0  0.76059991996E-01 -0.27664333182E-01  0.87396851202E-01  0.88802513890E+00  0.88000000000E+00 0.  1.
        -11    1    4    4    0    0 -0.47949906035E-01  0.60650138642E-02 -0.82645313058E-01  0.95741771308E-01  0.51100000000E-03 0.  1.
         11    1    4    4    0    0 -0.26169583161E-01  0.19349513759E-02 -0.21758450720E-01  0.34092263321E-01  0.51100000000E-03 0. -1.
</event>
<event>
 8    1  0.1070112E+005  0.1043930E+01  0.7957747E-01            NaN
         13   -1    0    0    0    0  0.00000000000E+00  0.00000000000E+00  0.74505805969E-08  0.10566000000E+00  0.10566000000E+00 0. -1.
     999900   -1    0    0    0    0 -0.00000000000E+00 -0.00000000000E+00 -0.74505805969E-08  0.93827000000E+00  0.93827000000E+00 0.  1.
     999902    2    1    2    0    0  0.18253761431E-01 -0.13715396568E-01  0.56944143632E-03  0.10210906442E+01  0.10208351814E+01 0.  0.
     999903    2    3    3    0    0  0.47991792496E-01 -0.78035954738E-01 -0.94568087874E-01  0.13313082858E+00  0.19694463544E-01 0.  0.
         14    1    1    2    0    0 -0.18253761431E-01  0.13715396568E-01 -0.56944143632E-03  0.22839355792E-01  0.00000000000E+00 0.  1.
     999901    1    3    3    0    0 -0.29738031064E-01  0.64320558170E-01  0.95137529311E-01  0.88795981563E+00  0.88000000000E+00 0. -1.
        -11    1    4    4    0    0  0.26506411153E-01 -0.58380035962E-01 -0.70986194470E-01  0.95656256238E-01  0.51100000000E-03 0.  1.
         11    1    4    4    0    0  0.21485381343E-01 -0.19655918775E-01 -0.23581893404E-01  0.37474572338E-01  0.51100000000E-03 0. -1.
</event>
<event>
 8    1  0.1070112E+005  0.1043930E+01  0.7957747E-01            NaN
         13   -1    0    0    0    0  0.00000000000E+00  0.00000000000E+00  0.74505805969E-08  0.10566000000E+00  0.10566000000E+00 0. -1.
     999900   -1    0    0    0    0 -0.00000000000E+00 -0.00000000000E+00 -0.74505805969E-08  0.93827000000E+00  0.93827000000E+00 0.  1.
     999902    2    1    2    0    0 -0.14175998189E-01 -0.63319709825E-02 -0.18099842238E-01  0.10200834684E+01  0.10198046996E+01 0.  0.
     999903    2    3    3    0    0 -0.80501975784E-01 -0.89699867184E-01  0.48817688140E-01  0.13113617113E+00  0.16937958114E-01 0.  0.
         14    1    1    2    0    0  0.14175998189E-01  0.63319709825E-02  0.18099842238E-01  0.23846531618E-01  0.00000000000E+00 0. -1.
     999901    1    3    3    0    0  0.66325977595E-01  0.83367896202E-01 -0.66917530378E-01  0.88894729725E+00  0.88000000000E+00 0.  1.
        -11    1    4    4    0    0 -0.67216985934E-01 -0.73500306502E-01  0.33164216579E-01  0.10497878184E+00  0.51100000000E-03 0.  1.
         11    1    4    4    0    0 -0.13284989850E-01 -0.16199560683E-01  0.15653471561E-01  0.26157389291E-01  0.51100000000E-03 0. -1.
</event>
<event>
 8    1  0.1070112E+005  0.1043930E+01  0.7957747E-01            NaN
         13   -1    0    0    0    0  0.00000000000E+00  0.00000000000E+00  0.74505805969E-08  0.10566000000E+00  0.10566000000E+00 0. -1.
     999900   -1    0    0    0    0 -0.00000000000E+00 -0.00000000000E+00 -0.74505805969E-08  0.93827000000E+00  0.93827000000E+00 0. -1.
     999902    2    1    2    0    0 -0.44326690326E-02  0.17383614418E-01 -0.15310529703E-01  0.10203450276E+01  0.10200724113E+01 0.  0.
     999903    2    3    3    0    0 -0.27817548696E-01  0.92808740168E-01  0.85911769809E-01  0.13102969760E+00  0.20016772824E-01 0.  0.
         14    1    1    2    0    0  0.44326690326E-02 -0.17383614418E-01  0.15310529703E-01  0.23584972436E-01  0.00000000000E+00 0. -1.
     999901    1    3    3    0    0  0.23384879663E-01 -0.75425125750E-01 -0.10122229951E+00  0.88931532996E+00  0.88000000000E+00 0. -1.
        -11    1    4    4    0    0 -0.17579704741E-01  0.28014853565E-01  0.33325170050E-01  0.46954298194E-01  0.51100000000E-03 0.  1.
         11    1    4    4    0    0 -0.10237843955E-01  0.64793886603E-01  0.52586599759E-01  0.84075399406E-01  0.51100000000E-03 0. -1.
</event>
<event>
 8    1  0.1070112E+005  0.1043930E+01  0.7957747E-01            NaN
         13   -1    0    0    0    0  0.00000000000E+00  0.00000000000E+00  0.74505805969E-08  0.10566000000E+00  0.10566000000E+00 0. -1.
     999900   -1    0    0    0    0 -0.00000000000E+00 -0.00000000000E+00 -0.74505805969E-08  0.93827000000E+00  0.93827000000E+00 0.  1.
     999902    2    1    2    0    0  0.71021178950E-02  0.21617725464E-01  0.58096007754E-02  0.10204455883E+01  0.10201753188E+01 0.  0.
     999903    2    3    3    0    0 -0.51101782999E-01 -0.98392220123E-01 -0.60675085643E-01  0.12791531168E+00  0.19708874578E-01 0.  0.
         14    1    1    2    0    0 -0.71021178950E-02 -0.21617725464E-01 -0.58096007754E-02  0.23484411724E-01  0.00000000000E+00 0.  1.
     999901    1    3    3    0    0  0.58203900894E-01  0.12000994559E+00  0.66484686418E-01  0.89253027660E+00  0.88000000000E+00 0. -1.
        -11    1    4    4    0    0 -0.35961623377E-01 -0.79075700256E-01 -0.39223721133E-01  0.95315088771E-01  0.51100000000E-03 0. -1.
         11    1    4    4    0    0 -0.15140159622E-01 -0.19316519867E-01 -0.21451364510E-01  0.32600222906E-01  0.51100000000E-03 0.  1.
</event>
<event>
 8    1  0.1070112E+005  0.1043930E+01  0.7957747E-01            NaN
         13   -1    0    0    0    0  0.00000000000E+00  0.00000000000E+00  0.74505805969E-08  0.10566000000E+00  0.10566000000E+00 0. -1.
     999900   -1    0    0    0    0 -0.00000000000E+00 -0.00000000000E+00 -0.74505805969E-08  0.93827000000E+00  0.93827000000E+00 0. -1.
     999902    2    1    2    0    0  0.23168059268E-01 -0.70093900046E-02 -0.12826190025E-01  0.10165365397E+01  0.10161673754E+01 0.  0.
     999903    2    3    3    0    0 -0.18040848698E-01 -0.63618241812E-01 -0.10849087330E+00  0.12858695336E+00  0.19788432758E-01 0.  0.
         14    1    1    2    0    0 -0.23168059268E-01  0.70093900046E-02  0.12826190025E-01  0.27393460333E-01  0.00000000000E+00 0. -1.
     999901    1    3    3    0    0  0.41208907966E-01  0.56608851807E-01  0.95664683277E-01  0.88794958631E+00  0.88000000000E+00 0.  1.
        -11    1    4    4    0    0 -0.20031254261E-01 -0.62913677776E-01 -0.10006826214E+00  0.11988869925E+00  0.51100000000E-03 0.  1.
         11    1    4    4    0    0  0.19904055632E-02 -0.70456403605E-03 -0.84226111591E-02  0.86982541079E-02  0.51100000000E-03 0. -1.
</event>
<event>
 8    1  0.1070112E+005  0.1043930E+01  0.7957747E-01            NaN
         13   -1    0    0    0    0  0.00000000000E+00  0.00000000000E+00  0.74505805969E-08  0.10566000000E+00  0.10566000000E+00 0.  1.
     999900   -1    0    0    0    0 -0.00000000000E+00 -0.00000000000E+00 -0.74505805969E-08  0.93827000000E+00  0.93827000000E+00 0. -1.
     999902    2    1    2    0    0  0.29110399264E-02  0.20113466540E-01 -0.88829593937E-02  0.10217504451E+01  0.10215096864E+01 0.  0.
     999903    2    3    3    0    0 -0.90960341080E-01 -0.80044602463E-01 -0.43971010837E-01  0.13041737246E+00  0.19857472459E-01 0.  0.
         14    1    1    2    0    0 -0.29110399264E-02 -0.20113466540E-01  0.88829593937E-02  0.22179554939E-01  0.00000000000E+00 0.  1.
     999901    1    3    3    0    0  0.93871381006E-01  0.10015806900E+00  0.35088051443E-01  0.89133307260E+00  0.88000000000E+00 0. -1.
        -11    1    4    4    0    0 -0.14228903943E-01 -0.15097474924E-01 -0.15079525478E-03  0.20752814670E-01  0.51100000000E-03 0.  1.
         11    1    4    4    0    0 -0.76731437136E-01 -0.64947127539E-01 -0.43820215582E-01  0.10966455779E+00  0.51100000000E-03 0. -1.
</event>
<event>
 8    1  0.1070112E+005  0.1043930E+01  0.7957747E-01            NaN
         13   -1    0    0    0    0  0.00000000000E+00  0.00000000000E+00  0.74505805969E-08  0.10566000000E+00  0.10566000000E+00 0. -1.
     999900   -1    0    0    0    0 -0.00000000000E+00 -0.00000000000E+00 -0.74505805969E-08  0.93827000000E+00  0.93827000000E+00 0. -1.
     999902    2    1    2    0    0 -0.47623679896E-02  0.15778800560E-01  0.17042443535E-01  0.10202214451E+01  0.10199459306E+01 0.  0.
     999903    2    3    3    0    0 -0.87217897283E-01  0.50969244163E-01  0.84264488199E-01  0.13311599195E+00  0.20360203466E-01 0.  0.
         14    1    1    2    0    0  0.47623679896E-02 -0.15778800560E-01 -0.17042443535E-01  0.23708554946E-01  0.00000000000E+00 0.  1.
     999901    1    3    3    0    0  0.82455529294E-01 -0.35190443603E-01 -0.67222044664E-01  0.88710545310E+00  0.88000000000E+00 0. -1.
        -11    1    4    4    0    0 -0.11083066805E-01  0.13123430990E-01  0.82332142897E-02  0.19055333881E-01  0.51100000000E-03 0.  1.
         11    1    4    4    0    0 -0.76134830478E-01  0.37845813173E-01  0.76031273909E-01  0.11406065807E+00  0.51100000000E-03 0. -1.
</event>
<event>
 8    1  0.1070112E+005  0.1043930E+01  0.7957747E-01            NaN
         13   -1    0    0    0    0  0.00000000000E+00  0.00000000000E+00  0.74505805969E-08  0.10566000000E+00  0.10566000000E+00 0.  1.
     999900   -1    0    0    0    0 -0.00000000000E+00 -0.00000000000E+00 -0.74505805969E-08  0.93827000000E+00  0.93827000000E+00 0. -1.
     999902    2    1    2    0    0 -0.17822121837E-01 -0.80649945596E-02  0.13440943460E-01  0.10201954024E+01  0.10199192752E+01 0.  0.
     999903    2    3    3    0    0 -0.12767879210E+00  0.27927684201E-01 -0.50063478849E-02  0.13244303628E+00  0.20839022088E-01 0.  0.
         14    1    1    2    0    0  0.17822121837E-01  0.80649945596E-02 -0.13440943460E-01  0.23734597640E-01  0.00000000000E+00 0. -1.
     999901    1    3    3    0    0  0.10985667027E+00 -0.35992678760E-01  0.18447291345E-01  0.88775236608E+00  0.88000000000E+00 0.  1.
        -11    1    4    4    0    0 -0.71833283957E-01  0.24173869860E-01 -0.90047028125E-02  0.76326551486E-01  0.51100000000E-03 0. -1.
         11    1    4    4    0    0 -0.55845508147E-01  0.37538143407E-02  0.39983549276E-02  0.56116484792E-01  0.51100000000E-03 0.  1.
</event>
<event>
 8    1  0.1070112E+005  0.1043930E+01  0.7957747E-01            NaN
         13   -1    0    0    0    0  0.00000000000E+00  0.00000000000E+00  0.74505805969E-08  0.10566000000E+00  0.10566000000E+00 0. -1.
     999900   -1    0    0    0    0 -0.00000000000E+00 -0.00000000000E+00 -0.74505805969E-08  0.93827000000E+00  0.93827000000E+00 0. -1.
     999902    2    1    2    0    0  0.14161445380E-02  0.27799812699E-01  0.37679492535E-02  0.10158402778E+01  0.10154518391E+01 0.  0.
     999903    2    3    3    0    0 -0.11474543533E+00 -0.42642883138E-01 -0.18103449938E-01  0.12514726440E+00  0.18686157328E-01 0.  0.
         14    1    1    2    0    0 -0.14161445380E-02 -0.27799812699E-01 -0.37679492535E-02  0.28089722195E-01  0.00000000000E+00 0.  1.
     999901    1    3    3    0    0  0.11616157986E+00  0.70442695837E-01  0.21871399191E-01  0.89069301341E+00  0.88000000000E+00 0.  1.
        -11    1    4    4    0    0 -0.88755279412E-01 -0.38890171191E-01 -0.19499551161E-01  0.98845529263E-01  0.51100000000E-03 0.  1.
         11    1    4    4    0    0 -0.25990155913E-01 -0.37527119467E-02  0.13961012231E-02  0.26301735132E-01  0.51100000000E-03 0. -1.
</event>
<event>
 8    1  0.1070112E+005  0.1043930E+01  0.7957747E-01            NaN
         13   -1    0    0    0    0  0.00000000000E+00  0.00000000000E+00  0.74505805969E-08  0.10566000000E+00  0.10566000000E+00 0. -1.
     999900   -1    0    0    0    0 -0.00000000000E+00 -0.00000000000E+00 -0.74505805969E-08  0.93827000000E+00  0.93827000000E+00 0.  1.
     999902    2    1    2    0    0  0.28177572917E-01  0.94301373345E-02  0.11194521939E-01  0.10121775131E+01  0.10116793452E+01 0.  0.
     999903    2    3    3    0    0  0.12664609605E-01  0.62332184873E-01  0.10615144792E+00  0.12535391366E+00  0.19994503410E-01 0.  0.
         14    1    1    2    0    0 -0.28177572917E-01 -0.94301373345E-02 -0.11194521939E-01  0.31752486943E-01  0.00000000000E+00 0.  1.
     999901    1    3    3    0    0  0.15512963312E-01 -0.52902047538E-01 -0.94956925976E-01  0.88682359940E+00  0.88000000000E+00 0. -1.
        -11    1    4    4    0    0  0.45463036471E-02  0.20617224469E-01  0.19070214509E-01  0.28454753980E-01  0.51100000000E-03 0.  1.
         11    1    4    4    0    0  0.81183059579E-02  0.41714960404E-01  0.87081233406E-01  0.96899159675E-01  0.51100000000E-03 0. -1.
</event>
<event>
 8    1  0.1070112E+005  0.1043930E+01  0.7957747E-01            NaN
         13   -1    0    0    0    0  0.00000000000E+00  0.00000000000E+00  0.74505805969E-08  0.10566000000E+00  0.10566000000E+00 0.  1.
     999900   -1    0    0    0    0 -0.00000000000E+00 -0.00000000000E+00 -0.74505805969E-08  0.93827000000E+00  0.93827000000E+00 0. -1.
     999902    2    1    2    0    0 -0.11320105244E-01 -0.18402925511E-01  0.10335869222E-01  0.10199791620E+01  0.10196979201E+01 0.  0.
     999903    2    3    3    0    0  0.88243021619E-01  0.42460516580E-02  0.93829890508E-01  0.13014937825E+00  0.18164594303E-01 0.  0.
         14    1    1    2    0    0  0.11320105244E-01  0.18402925511E-01 -0.10335869222E-01  0.23950838037E-01  0.00000000000E+00 0. -1.
     999901    1    3    3    0    0 -0.99563126863E-01 -0.22648977169E-01 -0.83494021286E-01  0.88982978372E+00  0.88000000000E+00 0. -1.
        -11    1    4    4    0    0  0.52577823866E-01  0.10163129275E-01  0.62517622694E-01  0.82319080580E-01  0.51100000000E-03 0. -1.
         11    1    4    4    0    0  0.35665197753E-01 -0.59170776174E-02  0.31312267814E-01  0.47830297667E-01  0.51100000000E-03 0.  1.
</event>
<event>
 8    1  0.1070112E+005  0.1043930E+01  0.7957747E-01            NaN
         13   -1    0    0    0    0  0.00000000000E+00  0.00000000000E+00  0.74505805969E-08  0.10566000000E+00  0.10566000000E+00 0.  1.
     999900   -1    0    0    0    0 -0.00000000000E+00 -0.00000000000E+00 -0.74505805969E-08  0.93827000000E+00  0.93827000000E+00 0.  1.
     999902    2    1    2    0    0 -0.14084087663E-01 -0.14001004073E-01 -0.11453750553E-01  0.10210045111E+01  0.10207470958E+01 0.  0.
     999903    2    3    3    0    0  0.21376941522E-02 -0.13059479261E+00 -0.15391944677E-01  0.13315724544E+00  0.20841556115E-01 0.  0.
         14    1    1    2    0    0  0.14084087663E-01  0.14001004073E-01  0.11453750553E-01  0.22925488917E-01  0.00000000000E+00 0. -1.
     999901    1    3    3    0    0 -0.16221781815E-01  0.11659378853E+00  0.39381941240E-02  0.88784726564E+00  0.88000000000E+00 0.  1.
        -11    1    4    4    0    0 -0.93798737829E-02 -0.56489963881E-01 -0.62430853903E-02  0.57604993600E-01  0.51100000000E-03 0.  1.
         11    1    4    4    0    0  0.11517567935E-01 -0.74104828724E-01 -0.91488592870E-02  0.75552251844E-01  0.51100000000E-03 0. -1.
</event>
<event>
 8    1  0.1070112E+005  0.1043930E+01  0.7957747E-01            NaN
         13   -1    0    0    0    0  0.00000000000E+00  0.00000000000E+00  0.74505805969E-08  0.10566000000E+00  0.10566000000E+00 0. -1.
     999900   -1    0    0    0    0 -0.00000000000E+00 -0.00000000000E+00 -0.74505805969E-08  0.93827000000E+00  0.93827000000E+00 0. -1.
     999902    2    1    2    0    0 -0.55081258629E-02 -0.79488397403E-04  0.23567668176E-01  0.10197270921E+01  0.10194398273E+01 0.  0.
     999903    2    3    3    0    0  0.93800967673E-01  0.12994227009E-01  0.89184954728E-01  0.13161738804E+00  0.20042684797E-01 0.  0.
         14    1    1    2    0    0  0.55081258629E-02  0.79488397403E-04 -0.23567668176E-01  0.24202907928E-01  0.00000000000E+00 0.  1.
     999901    1    3    3    0    0 -0.99309093536E-01 -0.13073715407E-01 -0.65617286552E-01  0.88810970403E+00  0.88000000000E+00 0. -1.
        -11    1    4    4    0    0  0.38682061337E-01  0.13636729710E-01  0.45675322454E-01  0.61390214764E-01  0.51100000000E-03 0. -1.
         11    1    4    4    0    0  0.55118906336E-01 -0.64250270045E-03  0.43509632274E-01  0.70227173281E-01  0.51100000000E-03 0.  1.
</event>
<event>
 8    1  0.1070112E+005  0.1043930E+01  0.7957747E-01            NaN
         13   -1    0    0    0    0  0.00000000000E+00  0.00000000000E+00  0.74505805969E-08  0.10566000000E+00  0.10566000000E+00 0.  1.
     999900   -1    0    0    0    0 -0.00000000000E+00 -0.00000000000E+00 -0.74505805969E-08  0.93827000000E+00  0.93827000000E+00 0. -1.
     999902    2    1    2    0    0 -0.81071662747E-03  0.81357492484E-02  0.22501260161E-01  0.10199893570E+01  0.10197083574E+01 0.  0.
     999903    2    3    3    0    0  0.98868033541E-01 -0.11385194819E-01  0.84668064862E-01  0.13196816803E+00  0.18504200843E-01 0.  0.
         14    1    1    2    0    0  0.81071662747E-03 -0.81357492484E-02 -0.22501260161E-01  0.23940642977E-01  0.00000000000E+00 0. -1.
     999901    1    3    3    0    0 -0.99678750168E-01  0.19520944067E-01 -0.62166804700E-01  0.88802118899E+00  0.88000000000E+00 0. -1.
        -11    1    4    4    0    0  0.14009911641E-01 -0.83308098258E-02  0.14112848974E-01  0.21566493542E-01  0.51100000000E-03 0. -1.
         11    1    4    4    0    0  0.84858121900E-01 -0.30543849928E-02  0.70555215888E-01  0.11040167449E+00  0.51100000000E-03 0.  1.
</event>
<event>
 7    1  0.1070112E+005  0.1043930E+01  0.7957747E-01            NaN
         13   -1    0    0    0    0  0.00000000000E+00  0.00000000000E+00  0.74505805969E-08  0.10566000000E+00  0.10566000000E+00 0.  1.
     999900   -1    0    0    0    0 -0.00000000000E+00 -0.00000000000E+00 -0.74505805969E-08  0.93827000000E+00  0.93827000000E+00 0.  1.
     999902    2    1    2    0    0 -0.67126371618E-02 -0.21558197325E-01 -0.69132051495E-02  0.10203162799E+01  0.10200429909E+01 0.  0.
         14    1    1    2    0    0  0.67126371618E-02  0.21558197325E-01  0.69132051495E-02  0.23613720059E-01  0.00000000000E+00 0.  1.
     999901    1    3    3    0    0 -0.18115872759E-01  0.75328428295E-01 -0.95462486690E-01  0.88854692803E+00  0.88000000000E+00 0. -1.
        -11    1    3    3    0    0  0.64915384742E-02 -0.54633560608E-01  0.51284571600E-01  0.75215253916E-01  0.51100000000E-03 0. -1.
         11    1    3    3    0    0  0.49116971226E-02 -0.42253065012E-01  0.37264709940E-01  0.56554097990E-01  0.51100000000E-03 0.  1.
</event>
<event>
 8    1  0.1070112E+005  0.1043930E+01  0.7957747E-01            NaN
         13   -1    0    0    0    0  0.00000000000E+00  0.00000000000E+00  0.74505805969E-08  0.10566000000E+00  0.10566000000E+00 0.  1.
     999900   -1    0    0    0    0 -0.00000000000E+00 -0.00000000000E+00 -0.74505805969E-08  0.93827000000E+00  0.93827000000E+00 0. -1.
     999902    2    1    2    0    0  0.10062117313E-01  0.26868755616E-01  0.10520438803E-01  0.10133709446E+01  0.10129100728E+01 0.  0.
     999903    2    3    3    0    0 -0.64340856196E-01  0.10699801860E+00 -0.28773249552E-02  0.12650229520E+00  0.20155146534E-01 0.  0.
         14    1    1    2    0    0 -0.10062117313E-01 -0.26868755616E-01 -0.10520438803E-01  0.30559055381E-01  0.00000000000E+00 0.  1.
     999901    1    3    3    0    0  0.74402973508E-01 -0.80129262981E-01  0.13397763758E-01  0.88686864942E+00  0.88000000000E+00 0.  1.
        -11    1    4    4    0    0 -0.20472634346E-01  0.48364103270E-01 -0.78460703384E-02  0.53104022286E-01  0.51100000000E-03 0. -1.
         11    1    4    4    0    0 -0.43868221849E-01  0.58633915327E-01  0.49687453832E-02  0.73398272912E-01  0.51100000000E-03 0.  1.
</event>
<event>
 8    1  0.1070112E+005  0.1043930E+01  0.7957747E-01            NaN
         13   -1    0    0    0    0  0.00000000000E+00  0.00000000000E+00  0.74505805969E-08  0.10566000000E+00  0.10566000000E+00 0. -1.
     999900   -1    0    0    0    0 -0.00000000000E+00 -0.00000000000E+00 -0.74505805969E-08  0.93827000000E+00  0.93827000000E+00 0.  1.
     999902    2    1    2    0    0  0.12076652022E-01 -0.18710277540E-01 -0.27702645919E-02  0.10214890915E+01  0.10212425616E+01 0.  0.
     999903    2    3    3    0    0 -0.48472623782E-01 -0.11768764248E+00  0.33371607498E-01  0.13313726450E+00  0.20295087130E-01 0.  0.
         14    1    1    2    0    0 -0.12076652022E-01  0.18710277540E-01  0.27702645919E-02  0.22440908529E-01  0.00000000000E+00 0. -1.
     999901    1    3    3    0    0  0.60549275804E-01  0.98977364941E-01 -0.36141872090E-01  0.88835182697E+00  0.88000000000E+00 0.  1.
        -11    1    4    4    0    0 -0.24775051534E-01 -0.37497940278E-01  0.72104306060E-02  0.45520875806E-01  0.51100000000E-03 0.  1.
         11    1    4    4    0    0 -0.23697572248E-01 -0.80189702203E-01  0.26161176892E-01  0.87616388691E-01  0.51100000000E-03 0. -1.
</event>
<event>
 8    1  0.1070112E+005  0.1043930E+01  0.7957747E-01            NaN
         13   -1    0    0    0    0  0.00000000000E+00  0.00000000000E+00  0.74505805969E-08  0.10566000000E+00  0.10566000000E+00 0.  1.
     999900   -1    0    0    0    0 -0.00000000000E+00 -0.00000000000E+00 -0.74505805969E-08  0.93827000000E+00  0.93827000000E+00 0.  1.
     999902    2    1    2    0    0 -0.16666963844E-01 -0.15958728724E-01  0.54754711673E-02  0.10202139824E+01  0.10199382924E+01 0.  0.
     999903    2    3    3    0    0 -0.65379564688E-01 -0.98553798204E-01 -0.56816650205E-01  0.13281600439E+00  0.20606325818E-01 0.  0.
         14    1    1    2    0    0  0.16666963844E-01  0.15958728724E-01 -0.54754711673E-02  0.23716017599E-01  0.00000000000E+00 0. -1.
     999901    1    3    3    0    0  0.48712600844E-01  0.82595069480E-01  0.62292121372E-01  0.88739797801E+00  0.88000000000E+00 0. -1.
        -11    1    4    4    0    0 -0.16865174070E-01 -0.33590514632E-01 -0.88812908133E-02  0.38625059445E-01  0.51100000000E-03 0. -1.
         11    1    4    4    0    0 -0.48514390618E-01 -0.64963283572E-01 -0.47935359391E-01  0.94190944950E-01  0.51100000000E-03 0.  1.
</event>
<event>
 8    1  0.1070112E+005  0.1043930E+01  0.7957747E-01            NaN
         13   -1    0    0    0    0  0.00000000000E+00  0.00000000000E+00  0.74505805969E-08  0.10566000000E+00  0.10566000000E+00 0. -1.
     999900   -1    0    0    0    0 -0.00000000000E+00 -0.00000000000E+00 -0.74505805969E-08  0.93827000000E+00  0.93827000000E+00 0.  1.
     999902    2    1    2    0    0  0.14497709399E-01 -0.16791117357E-01 -0.93923986803E-02  0.10198397042E+01  0.10195551382E+01 0.  0.
     999903    2    3    3    0    0 -0.47410595407E-01 -0.11880120120E+00 -0.24056489053E-01  0.13166532324E+00  0.19888507112E-01 0.  0.
         14    1    1    2    0    0 -0.14497709399E-01  0.16791117357E-01  0.93923986803E-02  0.24090295824E-01  0.00000000000E+00 0. -1.
     999901    1    3    3    0    0  0.61908304806E-01  0.10201008384E+00  0.14664090373E-01  0.88817438094E+00  0.88000000000E+00 0.  1.
        -11    1    4    4    0    0 -0.37540825307E-01 -0.86326903273E-01 -0.26008198800E-01  0.97664401494E-01  0.51100000000E-03 0.  1.
         11    1    4    4    0    0 -0.98697700999E-02 -0.32474297924E-01  0.19517097470E-02  0.34000921743E-01  0.51100000000E-03 0. -1.
</event>
<event>
 7    1  0.1070112E+005  0.1043930E+01  0.7957747E-01            NaN
         13   -1    0    0    0    0  0.00000000000E+00  0.00000000000E+00  0.74505805969E-08  0.10566000000E+00  0.10566000000E+00 0.  1.
     999900   -1    0    0    0    0 -0.00000000000E+00 -0.00000000000E+00 -0.74505805969E-08  0.93827000000E+00  0.93827000000E+00 0. -1.
     999903    2    1    2    0    0  0.51093580520E-01  0.98822178042E-02  0.41748932395E-01  0.70061436457E-01  0.21387363633E-01 0.  0.
         14    1    1    2    0    0  0.16790690463E-01  0.40496190230E-01 -0.77560310613E-01  0.89092482801E-01  0.00000000000E+00 0. -1.
     999901    1    1    2    0    0 -0.67884270983E-01 -0.50378408034E-01  0.35811378218E-01  0.88477608074E+00  0.88000000000E+00 0.  1.
        -11    1    3    3    0    0  0.26407650632E-01 -0.53846039769E-02  0.23585873709E-01  0.35817768377E-01  0.51100000000E-03 0. -1.
         11    1    3    3    0    0  0.24685929888E-01  0.15266821781E-01  0.18163058686E-01  0.34243668080E-01  0.51100000000E-03 0.  1.
</event>
<event>
 8    1  0.1070112E+005  0.1043930E+01  0.7957747E-01            NaN
         13   -1    0    0    0    0  0.00000000000E+00  0.00000000000E+00  0.74505805969E-08  0.10566000000E+00  0.10566000000E+00 0. -1.
     999900   -1    0    0    0    0 -0.00000000000E+00 -0.00000000000E+00 -0.74505805969E-08  0.93827000000E+00  0.93827000000E+00 0. -1.
     999902    2    1    2    0    0 -0.13131304904E-01 -0.19170722566E-01  0.19770312225E-02  0.10206092705E+01  0.10203427986E+01 0.  0.
     999903    2    3    3    0    0 -0.12421914651E+00 -0.14461713157E-01  0.39901981999E-01  0.13280243046E+00  0.20119141684E-01 0.  0.
         14    1    1    2    0    0  0.13131304904E-01  0.19170722566E-01 -0.19770312225E-02  0.23320729505E-01  0.00000000000E+00 0.  1.
     999901    1    3    3    0    0  0.11108784160E+00 -0.47090094095E-02 -0.37924950776E-01  0.88780684004E+00  0.88000000000E+00 0.  1.
        -11    1    4    4    0    0 -0.35293068240E-01  0.44779915549E-02  0.82031560502E-02  0.36513093053E-01  0.51100000000E-03 0. -1.
         11    1    4    4    0    0 -0.88926078268E-01 -0.18939704712E-01  0.31698825949E-01  0.96289337407E-01  0.51100000000E-03 0.  1.
</event>
<event>
 8    1  0.1070112E+005  0.1043930E+01  0.7957747E-01            NaN
         13   -1    0    0    0    0  0.00000000000E+00  0.00000000000E+00  0.74505805969E-08  0.10566000000E+00  0.10566000000E+00 0. -1.
     999900   -1    0    0    0    0 -0.00000000000E+00 -0.00000000000E+00 -0.74505805969E-08  0.93827000000E+00  0.93827000000E+00 0. -1.
     999902    2    1    2    0    0 -0.50267533682E-02  0.20680041554E-01  0.91143510913E-02  0.10207782449E+01  0.10205156645E+01 0.  0.
     999903    2    3    3    0    0 -0.93487263695E-01  0.92642942112E-01 -0.42118394349E-02  0.13332035391E+00  0.20832522119E-01 0.  0.
         14    1    1    2    0    0  0.50267533682E-02 -0.20680041554E-01 -0.91143510913E-02  0.23151755094E-01  0.00000000000E+00 0.  1.
     999901    1    3    3    0    0  0.88460510327E-01 -0.71962900558E-01  0.13326190526E-01  0.88745789100E+00  0.88000000000E+00 0.  1.
        -11    1    4    4    0    0 -0.50104018988E-01  0.53334919080E-01 -0.12343608684E-01  0.74213557443E-01  0.51100000000E-03 0.  1.
         11    1    4    4    0    0 -0.43383244708E-01  0.39308023032E-01  0.81317692487E-02  0.59106796463E-01  0.51100000000E-03 0. -1.
</event>
<event>
 8    1  0.1070112E+005  0.1043930E+01  0.7957747E-01            NaN
         13   -1    0    0    0    0  0.00000000000E+00  0.00000000000E+00  0.74505805969E-08  0.10566000000E+00  0.10566000000E+00 0. -1.
     999900   -1    0    0    0    0 -0.00000000000E+00 -0.00000000000E+00 -0.74505805969E-08  0.93827000000E+00  0.93827000000E+00 0.  1.
     999902    2    1    2    0    0 -0.14361828217E-01 -0.75929924079E-02  0.16968684442E-01  0.10204384718E+01  0.10201680366E+01 0.  0.
     999903    2    3    3    0    0  0.84582172101E-01 -0.75104424428E-01 -0.59094352697E-01  0.12907250084E+00  0.19306722796E-01 0.  0.
         14    1    1    2    0    0  0.14361828217E-01  0.75929924079E-02 -0.16968684442E-01  0.23491528157E-01  0.00000000000E+00 0.  1.
     999901    1    3    3    0    0 -0.98944000318E-01  0.67511432021E-01  0.76063037139E-01  0.89136597101E+00  0.88000000000E+00 0. -1.
        -11    1    4    4    0    0  0.14850307513E-01 -0.90289828778E-02 -0.24753142183E-02  0.17562530186E-01  0.51100000000E-03 0. -1.
         11    1    4    4    0    0  0.69731864588E-01 -0.66075441551E-01 -0.56619038479E-01  0.11150997065E+00  0.51100000000E-03 0.  1.
</event>
<event>
 8    1  0.1085774E+005  0.1043930E+01  0.7957747E-01            NaN
         13   -1    0    0    0    0  0.00000000000E+00  0.00000000000E+00  0.74505805969E-08  0.10566000000E+00  0.10566000000E+00 0.  1.
     999900   -1    0    0    0    0 -0.00000000000E+00 -0.00000000000E+00 -0.74505805969E-08  0.93827000000E+00  0.93827000000E+00 0.  1.
     999902    2    1    2    0    0 -0.20016249971E-01  0.33150599158E-02  0.12866250626E-01  0.10199054232E+01  0.10196224262E+01 0.  0.
     999903    2    3    3    0    0 -0.75902259361E-01 -0.66303659672E-01  0.83800967450E-01  0.13254881720E+00  0.19729635927E-01 0.  0.
         14    1    1    2    0    0  0.20016249971E-01 -0.33150599158E-02 -0.12866250626E-01  0.24024576798E-01  0.00000000000E+00 0.  1.
     999901    1    3    3    0    0  0.55886009390E-01  0.69618719588E-01 -0.70934716824E-01  0.88735660600E+00  0.88000000000E+00 0.  1.
        -11    1    4    4    0    0 -0.34182578208E-01 -0.42820223041E-01  0.43236386785E-01  0.69797323856E-01  0.51100000000E-03 0. -1.
         11    1    4    4    0    0 -0.41719681153E-01 -0.23483436631E-01  0.40564580665E-01  0.62751493345E-01  0.51100000000E-03 0.  1.
</event>
<event>
 8    1  0.1070112E+005  0.1043930E+01  0.7957747E-01            NaN
         13   -1    0    0    0    0  0.00000000000E+00  0.00000000000E+00  0.74505805969E-08  0.10566000000E+00  0.10566000000E+00 0.  1.
     999900   -1    0    0    0    0 -0.00000000000E+00 -0.00000000000E+00 -0.74505805969E-08  0.93827000000E+00  0.93827000000E+00 0.  1.
     999902    2    1    2    0    0  0.20119232555E-01 -0.11557722660E-01  0.57419572985E-02  0.10200273946E+01  0.10197472977E+01 0.  0.
     999903    2    3    3    0    0 -0.29336282978E-02 -0.26341248207E-01 -0.12559665386E+00  0.12985897356E+00  0.19656195472E-01 0.  0.
         14    1    1    2    0    0 -0.20119232555E-01  0.11557722660E-01 -0.57419572985E-02  0.23902605408E-01  0.00000000000E+00 0. -1.
     999901    1    3    3    0    0  0.23052860853E-01  0.14783525548E-01  0.13133861116E+00  0.89016842103E+00  0.88000000000E+00 0. -1.
        -11    1    4    4    0    0 -0.14771898872E-02 -0.84481187723E-02 -0.85419140675E-01  0.85850122396E-01  0.51100000000E-03 0.  1.
         11    1    4    4    0    0 -0.14564384106E-02 -0.17893129435E-01 -0.40177513187E-01  0.44008851163E-01  0.51100000000E-03 0. -1.
</event>
<event>
 8    1  0.1070112E+005  0.1043930E+01  0.7957747E-01            NaN
         13   -1    0    0    0    0  0.00000000000E+00  0.00000000000E+00  0.74505805969E-08  0.10566000000E+00  0.10566000000E+00 0.  1.
     999900   -1    0    0    0    0 -0.00000000000E+00 -0.00000000000E+00 -0.74505805969E-08  0.93827000000E+00  0.93827000000E+00 0.  1.
     999902    2    1    2    0    0 -0.25853421478E-02 -0.68403841946E-02 -0.22506968908E-01  0.10202648674E+01  0.10199903731E+01 0.  0.
     999903    2    3    3    0    0  0.10348222736E-01 -0.12301431930E-02 -0.13158447572E+00  0.13341840135E+00  0.19426698229E-01 0.  0.
         14    1    1    2    0    0  0.25853421478E-02  0.68403841946E-02  0.22506968908E-01  0.23665132567E-01  0.00000000000E+00 0.  1.
     999901    1    3    3    0    0 -0.12933564884E-01 -0.56102410016E-02  0.10907750681E+00  0.88684646608E+00  0.88000000000E+00 0. -1.
        -11    1    4    4    0    0  0.86087415108E-03 -0.80938199891E-02 -0.27724310336E-01  0.28898953803E-01  0.51100000000E-03 0.  1.
         11    1    4    4    0    0  0.94873485854E-02  0.68636767962E-02 -0.10386016538E+00  0.10451944755E+00  0.51100000000E-03 0. -1.
</event>
<event>
 8    1  0.1070112E+005  0.1043930E+01  0.7957747E-01            NaN
         13   -1    0    0    0    0  0.00000000000E+00  0.00000000000E+00  0.74505805969E-08  0.10566000000E+00  0.10566000000E+00 0.  1.
     999900   -1    0    0    0    0 -0.00000000000E+00 -0.00000000000E+00 -0.74505805969E-08  0.93827000000E+00  0.93827000000E+00 0. -1.
     999902    2    1    2    0    0  0.19381114620E-01  0.27578284101E-02  0.13145196941E-01  0.10203497238E+01  0.10200772174E+01 0.  0.
     999903    2    3    3    0    0  0.42670143322E-01  0.45872211903E-01  0.11564630165E+00  0.13304610872E+00  0.20054899791E-01 0.  0.
         14    1    1    2    0    0 -0.19381114620E-01 -0.27578284101E-02 -0.13145196941E-01  0.23580276166E-01  0.00000000000E+00 0. -1.
     999901    1    3    3    0    0 -0.23289028701E-01 -0.43114383493E-01 -0.10250110471E+00  0.88730361511E+00  0.88000000000E+00 0. -1.
        -11    1    4    4    0    0  0.21087321525E-01  0.22049933656E-01  0.36223859589E-01  0.47363528456E-01  0.51100000000E-03 0. -1.
         11    1    4    4    0    0  0.21582821797E-01  0.23822278247E-01  0.79422442059E-01  0.85682580267E-01  0.51100000000E-03 0.  1.
</event>
<event>
 8    1  0.1070112E+005  0.1043930E+01  0.7957747E-01            NaN
         13   -1    0    0    0    0  0.00000000000E+00  0.00000000000E+00  0.74505805969E-08  0.10566000000E+00  0.10566000000E+00 0. -1.
     999900   -1    0    0    0    0 -0.00000000000E+00 -0.00000000000E+00 -0.74505805969E-08  0.93827000000E+00  0.93827000000E+00 0. -1.
     999902    2    1    2    0    0  0.22559311396E-01 -0.12338422199E-02 -0.25940279681E-02  0.10211885427E+01  0.10209352898E+01 0.  0.
     999903    2    3    3    0    0  0.20381640025E-01 -0.17489079462E-01  0.12712037833E+00  0.13152860648E+00  0.20467158652E-01 0.  0.
         14    1    1    2    0    0 -0.22559311396E-01  0.12338422199E-02  0.25940279681E-02  0.22741457261E-01  0.00000000000E+00 0. -1.
     999901    1    3    3    0    0  0.21776713704E-02  0.16255237242E-01 -0.12971440630E+00  0.88965993626E+00  0.88000000000E+00 0. -1.
        -11    1    4    4    0    0  0.10041480117E-01 -0.12602001246E-01  0.33137348250E-01  0.36850871474E-01  0.51100000000E-03 0.  1.
         11    1    4    4    0    0  0.10340159908E-01 -0.48870782160E-02  0.93983030083E-01  0.94677735001E-01  0.51100000000E-03 0. -1.
</event>
<event>
 8    1  0.1070112E+005  0.1043930E+01  0.7957747E-01            NaN
         13   -1    0    0    0    0  0.00000000000E+00  0.00000000000E+00  0.74505805969E-08  0.10566000000E+00  0.10566000000E+00 0. -1.
     999900   -1    0    0    0    0 -0.00000000000E+00 -0.00000000000E+00 -0.74505805969E-08  0.93827000000E+00  0.93827000000E+00 0.  1.
     999902    2    1    2    0    0  0.12930148223E-01 -0.63663611439E-02  0.35252956928E-02  0.10290926486E+01  0.10289856813E+01 0.  0.
     999903    2    3    3    0    0  0.43131932754E-02  0.83032049435E-01 -0.10776541878E+00  0.13754794928E+00  0.19827455656E-01 0.  0.
         14    1    1    2    0    0 -0.12930148223E-01  0.63663611439E-02 -0.35252956928E-02  0.14837351415E-01  0.00000000000E+00 0.  1.
     999901    1    3    3    0    0  0.86169549478E-02 -0.89398410579E-01  0.11129071447E+00  0.89154469930E+00  0.88000000000E+00 0. -1.
        -11    1    4    4    0    0  0.15452795901E-02  0.27912882879E-02 -0.89186431213E-04  0.32323759894E-02  0.51100000000E-03 0. -1.
         11    1    4    4    0    0  0.27679136853E-02  0.80240761147E-01 -0.10767623235E+00  0.13431557329E+00  0.51100000000E-03 0.  1.
</event>
<event>
 8    1  0.1070112E+005  0.1043930E+01  0.7957747E-01            NaN
         13   -1    0    0    0    0  0.00000000000E+00  0.00000000000E+00  0.74505805969E-08  0.10566000000E+00  0.10566000000E+00 0.  1.
     999900   -1    0    0    0    0 -0.00000000000E+00 -0.00000000000E+00 -0.74505805969E-08  0.93827000000E+00  0.93827000000E+00 0. -1.
     999902    2    1    2    0    0 -0.78198879161E-02 -0.70713281748E-02  0.21813349303E-01  0.10197024013E+01  0.10194145431E+01 0.  0.
     999903    2    3    3    0    0  0.33639767547E-01  0.13766078669E-01  0.12697716301E+00  0.13222703364E+00  0.62967942028E-02 0.  0.
         14    1    1    2    0    0  0.78198879161E-02  0.70713281748E-02 -0.21813349303E-01  0.24227598664E-01  0.00000000000E+00 0. -1.
     999901    1    3    3    0    0 -0.41459655463E-01 -0.20837406844E-01 -0.10516381370E+00  0.88747536770E+00  0.88000000000E+00 0. -1.
        -11    1    4    4    0    0  0.54049309819E-02  0.48094877717E-02  0.23763562684E-01  0.24845773966E-01  0.51100000000E-03 0. -1.
         11    1    4    4    0    0  0.28234836565E-01  0.89565908976E-02  0.10321360032E+00  0.10738125967E+00  0.51100000000E-03 0.  1.
</event>
<event>
 8    1  0.1070112E+005  0.1043930E+01  0.7957747E-01            NaN
         13   -1    0    0    0    0  0.00000000000E+00  0.00000000000E+00  0.74505805969E-08  0.10566000000E+00  0.10566000000E+00 0. -1.
     999900   -1    0    0    0    0 -0.00000000000E+00 -0.00000000000E+00 -0.74505805969E-08  0.93827000000E+00  0.93827000000E+00 0.  1.
     999902    2    1    2    0    0 -0.11964031376E-01  0.22818243726E-01  0.24568383129E-03  0.10181643125E+01  0.10178382467E+01 0.  0.
     999903    2    3    3    0    0 -0.96553281359E-01 -0.59119577595E-01 -0.57005360787E-01  0.12847513647E+00  0.20942515045E-01 0.  0.
         14    1    1    2    0    0  0.11964031376E-01 -0.22818243726E-01 -0.24568383129E-03  0.25765687533E-01  0.00000000000E+00 0. -1.
     999901    1    3    3    0    0  0.84589249984E-01  0.81937821321E-01  0.57251044618E-01  0.88968917600E+00  0.88000000000E+00 0. -1.
        -11    1    4    4    0    0 -0.73421841493E-01 -0.54746468631E-01 -0.45645178270E-01  0.10233125650E+00  0.51100000000E-03 0.  1.
         11    1    4    4    0    0 -0.23131439867E-01 -0.43731089644E-02 -0.11360182517E-01  0.26143879975E-01  0.51100000000E-03 0. -1.
</event>
<event>
 8    1  0.1070112E+005  0.1043930E+01  0.7957747E-01            NaN
         13   -1    0    0    0    0  0.00000000000E+00  0.00000000000E+00  0.74505805969E-08  0.10566000000E+00  0.10566000000E+00 0.  1.
     999900   -1    0    0    0    0 -0.00000000000E+00 -0.00000000000E+00 -0.74505805969E-08  0.93827000000E+00  0.93827000000E+00 0.  1.
     999902    2    1    2    0    0 -0.13477878224E-01 -0.10652745344E-01 -0.16542769610E-01  0.10200805260E+01  0.10198016876E+01 0.  0.
     999903    2    3    3    0    0 -0.87014566193E-01 -0.27655477477E-01 -0.95103642380E-01  0.13336267451E+00  0.20113179627E-01 0.  0.
         14    1    1    2    0    0  0.13477878224E-01  0.10652745344E-01  0.16542769610E-01  0.23849474023E-01  0.00000000000E+00 0.  1.
     999901    1    3    3    0    0  0.73536687969E-01  0.17002732133E-01  0.78560872771E-01  0.88671785147E+00  0.88000000000E+00 0. -1.
        -11    1    4    4    0    0 -0.45954736337E-01 -0.23059566266E-01 -0.61054858638E-01  0.79821915991E-01  0.51100000000E-03 0. -1.
         11    1    4    4    0    0 -0.41059829856E-01 -0.45959112115E-02 -0.34048783742E-01  0.53540758521E-01  0.51100000000E-03 0.  1.
</event>
<event>
 8    1  0.1070112E+005  0.1043930E+01  0.7957747E-01            NaN
         13   -1    0    0    0    0  0.00000000000E+00  0.00000000000E+00  0.74505805969E-08  0.10566000000E+00  0.10566000000E+00 0. -1.
     999900   -1    0    0    0    0 -0.00000000000E+00 -0.00000000000E+00 -0.74505805969E-08  0.93827000000E+00  0.93827000000E+00 0.  1.
     999902    2    1    2    0    0 -0.98274276788E-02  0.77342448783E-02 -0.20261772959E-01  0.10201195753E+01  0.10198416601E+01 0.  0.
     999903    2    3    3    0    0  0.84611886875E-01  0.66137641614E-02  0.94188328114E-01  0.12769654492E+00  0.15233290973E-01 0.  0.
         14    1    1    2    0    0  0.98274276788E-02 -0.77342448783E-02  0.20261772959E-01  0.23810424651E-01  0.00000000000E+00 0. -1.
     999901    1    3    3    0    0 -0.94439314554E-01  0.11204807169E-02 -0.11445010107E+00  0.89242303043E+00  0.88000000000E+00 0.  1.
        -11    1    4    4    0    0  0.75789533004E-01  0.46538313358E-02  0.89908327778E-01  0.11768381360E+00  0.51100000000E-03 0.  1.
         11    1    4    4    0    0  0.88223538712E-02  0.19599328255E-02  0.42800003358E-02  0.10012731315E-01  0.51100000000E-03 0. -1.
</event>
<event>
 8    1  0.1070112E+005  0.1043930E+01  0.7957747E-01            NaN
         13   -1    0    0    0    0  0.00000000000E+00  0.00000000000E+00  0.74505805969E-08  0.10566000000E+00  0.10566000000E+00 0.  1.
     999900   -1    0    0    0    0 -0.00000000000E+00 -0.00000000000E+00 -0.74505805969E-08  0.93827000000E+00  0.93827000000E+00 0. -1.
     999902    2    1    2    0    0 -0.67539710200E-02  0.18779008936E-01  0.21982007319E-01  0.10142403394E+01  0.10138056964E+01 0.  0.
     999903    2    3    3    0    0  0.59502091324E-01 -0.73422035584E-01  0.79543957439E-01  0.12508103055E+00  0.19665422855E-01 0.  0.
         14    1    1    2    0    0  0.67539710200E-02 -0.18779008936E-01 -0.21982007319E-01  0.29689660607E-01  0.00000000000E+00 0. -1.
     999901    1    3    3    0    0 -0.66256062344E-01  0.92201044521E-01 -0.57561950120E-01  0.88915930885E+00  0.88000000000E+00 0. -1.
        -11    1    4    4    0    0  0.51769411316E-01 -0.54014717953E-01  0.68520983426E-01  0.10145465980E+00  0.51100000000E-03 0.  1.
         11    1    4    4    0    0  0.77326800081E-02 -0.19407317631E-01  0.11022974013E-01  0.23626370750E-01  0.51100000000E-03 0. -1.
</event>
<event>
 8    1  0.1070112E+005  0.1043930E+01  0.7957747E-01            NaN
         13   -1    0    0    0    0  0.00000000000E+00  0.00000000000E+00  0.74505805969E-08  0.10566000000E+00  0.10566000000E+00 0. -1.
     999900   -1    0    0    0    0 -0.00000000000E+00 -0.00000000000E+00 -0.74505805969E-08  0.93827000000E+00  0.93827000000E+00 0.  1.
     999902    2    1    2    0    0  0.20836587115E-01 -0.93785436890E-02 -0.66866486436E-02  0.10201217721E+01  0.10198439088E+01 0.  0.
     999903    2    3    3    0    0  0.48717358326E-01  0.11896495200E+00 -0.79029813593E-02  0.13037412827E+00  0.20221656709E-01 0.  0.
         14    1    1    2    0    0 -0.20836587115E-01  0.93785436890E-02  0.66866486436E-02  0.23808227872E-01  0.00000000000E+00 0. -1.
     999901    1    3    3    0    0 -0.27880771211E-01 -0.12834349569E+00  0.12163327157E-02  0.88974764386E+00  0.88000000000E+00 0. -1.
        -11    1    4    4    0    0  0.38334083857E-01  0.10236887589E+00 -0.13149630805E-01  0.11010023909E+00  0.51100000000E-03 0.  1.
         11    1    4    4    0    0  0.10383274469E-01  0.16596076113E-01  0.52466494462E-02  0.20273889180E-01  0.51100000000E-03 0. -1.
</event>
<event>
 8    1  0.1070112E+005  0.1043930E+01  0.7957747E-01            NaN
         13   -1    0    0    0    0  0.00000000000E+00  0.00000000000E+00  0.74505805969E-08  0.10566000000E+00  0.10566000000E+00 0. -1.
     999900   -1    0    0    0    0 -0.00000000000E+00 -0.00000000000E+00 -0.74505805969E-08  0.93827000000E+00  0.93827000000E+00 0.  1.
     999902    2    1    2    0    0 -0.60008379005E-02 -0.17511369241E-01  0.15203347312E-01  0.10199758797E+01  0.10196945598E+01 0.  0.
     999903    2    3    3    0    0  0.10124659811E+00  0.54741750283E-01 -0.51872098933E-01  0.12799962372E+00  0.21110570125E-01 0.  0.
         14    1    1    2    0    0  0.60008379005E-02  0.17511369241E-01 -0.15203347312E-01  0.23954120266E-01  0.00000000000E+00 0.  1.
     999901    1    3    3    0    0 -0.10724743601E+00 -0.72253119525E-01  0.67075446245E-01  0.89197625602E+00  0.88000000000E+00 0. -1.
        -11    1    4    4    0    0  0.45907578343E-01  0.34413108744E-01 -0.18674903785E-01  0.60338884272E-01  0.51100000000E-03 0. -1.
         11    1    4    4    0    0  0.55339019766E-01  0.20328641539E-01 -0.33197195147E-01  0.67660739444E-01  0.51100000000E-03 0.  1.
</event>
<event>
 8    1  0.1070112E+005  0.1043930E+01  0.7957747E-01            NaN
         13   -1    0    0    0    0  0.00000000000E+00  0.00000000000E+00  0.74505805969E-08  0.10566000000E+00  0.10566000000E+00 0. -1.
     999900   -1    0    0    0    0 -0.00000000000E+00 -0.00000000000E+00 -0.74505805969E-08  0.93827000000E+00  0.93827000000E+00 0.  1.
     999902    2    1    2    0    0  0.16570881193E-01  0.16315791305E-01  0.24216895347E-02  0.10205491589E+01  0.10202812955E+01 0.  0.
     999903    2    3    3    0    0  0.27642591247E-03 -0.27586869247E-01 -0.12573681589E+00  0.13003382756E+00  0.18383081170E-01 0.  0.
         14    1    1    2    0    0 -0.16570881193E-01 -0.16315791305E-01 -0.24216895347E-02  0.23380841081E-01  0.00000000000E+00 0. -1.
     999901    1    3    3    0    0  0.16294455281E-01  0.43902660552E-01  0.12815850542E+00  0.89051533136E+00  0.88000000000E+00 0. -1.
        -11    1    4    4    0    0 -0.32158538371E-02 -0.29108200176E-01 -0.10969476113E+00  0.11353779447E+00  0.51100000000E-03 0.  1.
         11    1    4    4    0    0  0.34922797495E-02  0.15213309298E-02 -0.16042054758E-01  0.16496033083E-01  0.51100000000E-03 0. -1.
</event>
<event>
 8    1  0.1070112E+005  0.1043930E+01  0.7957747E-01            NaN
         13   -1    0    0    0    0  0.00000000000E+00  0.00000000000E+00  0.74505805969E-08  0.10566000000E+00  0.10566000000E+00 0. -1.
     999900   -1    0    0    0    0 -0.00000000000E+00 -0.00000000000E+00 -0.74505805969E-08  0.93827000000E+00  0.93827000000E+00 0.  1.
     999902    2    1    2    0    0  0.10640282281E-01 -0.35275600694E-04 -0.21032575498E-01  0.10203591264E+01  0.10200868398E+01 0.  0.
     999903    2    3    3    0    0  0.96271154371E-03 -0.52077625406E-02 -0.13181858542E+00  0.13334506223E+00  0.19409238903E-01 0.  0.
         14    1    1    2    0    0 -0.10640282281E-01  0.35275600694E-04  0.21032575498E-01  0.23570873626E-01  0.00000000000E+00 0. -1.
     999901    1    3    3    0    0  0.96775707375E-02  0.51724869399E-02  0.11078600992E+00  0.88701406414E+00  0.88000000000E+00 0. -1.
        -11    1    4    4    0    0 -0.53438888988E-02  0.41416094640E-02 -0.81214359385E-01  0.81496891774E-01  0.51100000000E-03 0. -1.
         11    1    4    4    0    0  0.63066004425E-02 -0.93493720045E-02 -0.50604226034E-01  0.51848170455E-01  0.51100000000E-03 0.  1.
</event>
<event>
 8    1  0.1070112E+005  0.1043930E+01  0.7957747E-01            NaN
         13   -1    0    0    0    0  0.00000000000E+00  0.00000000000E+00  0.74505805969E-08  0.10566000000E+00  0.10566000000E+00 0. -1.
     999900   -1    0    0    0    0 -0.00000000000E+00 -0.00000000000E+00 -0.74505805969E-08  0.93827000000E+00  0.93827000000E+00 0. -1.
     999902    2    1    2    0    0 -0.52768303202E-02 -0.17368877572E-01  0.15207271103E-01  0.10202491229E+01  0.10199742589E+01 0.  0.
     999903    2    3    3    0    0  0.11814381031E-01 -0.11587897866E+00  0.61776146315E-01  0.13336411926E+00  0.20054394978E-01 0.  0.
         14    1    1    2    0    0  0.52768303202E-02  0.17368877572E-01 -0.15207271103E-01  0.23680877111E-01  0.00000000000E+00 0.  1.
     999901    1    3    3    0    0 -0.17091211351E-01  0.98510101090E-01 -0.46568875212E-01  0.88688500363E+00  0.88000000000E+00 0. -1.
        -11    1    4    4    0    0 -0.10253064723E-03 -0.73854041574E-01  0.45495586822E-01  0.86744103607E-01  0.51100000000E-03 0. -1.
         11    1    4    4    0    0  0.11916911678E-01 -0.42024937088E-01  0.16280559493E-01  0.46620015654E-01  0.51100000000E-03 0.  1.
</event>
<event>
 8    1  0.1070112E+005  0.1043930E+01  0.7957747E-01            NaN
         13   -1    0    0    0    0  0.00000000000E+00  0.00000000000E+00  0.74505805969E-08  0.10566000000E+00  0.10566000000E+00 0. -1.
     999900   -1    0    0    0    0 -0.00000000000E+00 -0.00000000000E+00 -0.74505805969E-08  0.93827000000E+00  0.93827000000E+00 0.  1.
     999902    2    1    2    0    0 -0.80802801233E-02  0.57685802903E-02 -0.22015977507E-01  0.10197790019E+01  0.10194929828E+01 0.  0.
     999903    2    3    3    0    0  0.31806082117E-02 -0.12645825022E-03  0.12569650815E+00  0.12737744566E+00  0.20378156004E-01 0.  0.
         14    1    1    2    0    0  0.80802801233E-02 -0.57685802903E-02  0.22015977507E-01  0.24150998137E-01  0.00000000000E+00 0. -1.
     999901    1    3    3    0    0 -0.11260888335E-01  0.58950385405E-02 -0.14771248566E+00  0.89240155620E+00  0.88000000000E+00 0.  1.
        -11    1    4    4    0    0 -0.39100693709E-02  0.73308574778E-02  0.84623909093E-01  0.85032330469E-01  0.51100000000E-03 0.  1.
         11    1    4    4    0    0  0.70906775826E-02 -0.74573157280E-02  0.41072599059E-01  0.42345115195E-01  0.51100000000E-03 0. -1.
</event>
<event>
 8    1  0.1070112E+005  0.1043930E+01  0.7957747E-01            NaN
         13   -1    0    0    0    0  0.00000000000E+00  0.00000000000E+00  0.74505805969E-08  0.10566000000E+00  0.10566000000E+00 0. -1.
     999900   -1    0    0    0    0 -0.00000000000E+00 -0.00000000000E+00 -0.74505805969E-08  0.93827000000E+00  0.93827000000E+00 0.  1.
     999902    2    1    2    0    0 -0.71183322515E-02 -0.16653821838E-01  0.16627706759E-01  0.10193433966E+01  0.10190468385E+01 0.  0.
     999903    2    3    3    0    0 -0.55177568391E-01  0.79325444897E-01  0.85005095259E-01  0.13018807995E+00  0.19646365571E-01 0.  0.
         14    1    1    2    0    0  0.71183322515E-02  0.16653821838E-01 -0.16627706759E-01  0.24586603424E-01  0.00000000000E+00 0.  1.
     999901    1    3    3    0    0  0.48059236140E-01 -0.95979266735E-01 -0.68377388499E-01  0.88915531662E+00  0.88000000000E+00 0.  1.
        -11    1    4    4    0    0 -0.35723259464E-01  0.34213101276E-01  0.41818577497E-01  0.64774548324E-01  0.51100000000E-03 0. -1.
         11    1    4    4    0    0 -0.19454308927E-01  0.45112343621E-01  0.43186517761E-01  0.65413531629E-01  0.51100000000E-03 0.  1.
</event>
<event>
 8    1  0.1070112E+005  0.1043930E+01  0.7957747E-01            NaN
         13   -1    0    0    0    0  0.00000000000E+00  0.00000000000E+00  0.74505805969E-08  0.10566000000E+00  0.10566000000E+00 0.  1.
     999900   -1    0    0    0    0 -0.00000000000E+00 -0.00000000000E+00 -0.74505805969E-08  0.93827000000E+00  0.93827000000E+00 0. -1.
     999902    2    1    2    0    0 -0.21960876701E-01  0.80109390827E-02 -0.46789813426E-02  0.10200899472E+01  0.10198113317E+01 0.  0.
     999903    2    3    3    0    0 -0.15999941396E-01 -0.38477414431E-01  0.12138791864E+00  0.12987111848E+00  0.19873879269E-01 0.  0.
         14    1    1    2    0    0  0.21960876701E-01 -0.80109390827E-02  0.46789813426E-02  0.23840052786E-01  0.00000000000E+00 0.  1.
     999901    1    3    3    0    0 -0.59609353046E-02  0.46488353514E-01 -0.12606689998E+00  0.89021882873E+00  0.88000000000E+00 0. -1.
        -11    1    4    4    0    0 -0.25704050588E-02 -0.22766310327E-01  0.42112921047E-01  0.47944458577E-01  0.51100000000E-03 0. -1.
         11    1    4    4    0    0 -0.13429536337E-01 -0.15711104105E-01  0.79274997593E-01  0.81926659903E-01  0.51100000000E-03 0.  1.
</event>
<event>
 8    1  0.1070112E+005  0.1043930E+01  0.7957747E-01            NaN
         13   -1    0    0    0    0  0.00000000000E+00  0.00000000000E+00  0.74505805969E-08  0.10566000000E+00  0.10566000000E+00 0. -1.
     999900   -1    0    0    0    0 -0.00000000000E+00 -0.00000000000E+00 -0.74505805969E-08  0.93827000000E+00  0.93827000000E+00 0.  1.
     999902    2    1    2    0    0  0.27451408052E-02 -0.96424438193E-02  0.23604256377E-01  0.10182848554E+01  0.10179618723E+01 0.  0.
     999903    2    3    3    0    0 -0.69555919728E-01 -0.79927277586E-01 -0.68569513141E-01  0.12774378114E+00  0.19756007087E-01 0.  0.
         14    1    1    2    0    0 -0.27451408052E-02  0.96424438193E-02 -0.23604256377E-01  0.25645144569E-01  0.00000000000E+00 0.  1.
     999901    1    3    3    0    0  0.72301060534E-01  0.70284833767E-01  0.92173769518E-01  0.89054107429E+00  0.88000000000E+00 0. -1.
        -11    1    4    4    0    0 -0.50591140227E-01 -0.58189886199E-01 -0.38925187386E-01  0.86376835201E-01  0.51100000000E-03 0.  1.
         11    1    4    4    0    0 -0.18964779501E-01 -0.21737391387E-01 -0.29644325755E-01  0.41366945939E-01  0.51100000000E-03 0. -1.
</event>
<event>
 8    1  0.1070112E+005  0.1043930E+01  0.7957747E-01            NaN
         13   -1    0    0    0    0  0.00000000000E+00  0.00000000000E+00  0.74505805969E-08  0.10566000000E+00  0.10566000000E+00 0. -1.
     999900   -1    0    0    0    0 -0.00000000000E+00 -0.00000000000E+00 -0.74505805969E-08  0.93827000000E+00  0.93827000000E+00 0.  1.
     999902    2    1    2    0    0 -0.19240329138E-01 -0.43767717042E-02  0.45126481666E-02  0.10236886960E+01  0.10234885617E+01 0.  0.
     999903    2    3    3    0    0 -0.10401899304E+00  0.96454817750E-03 -0.83993665887E-01  0.13517909039E+00  0.19939139992E-01 0.  0.
         14    1    1    2    0    0  0.19240329138E-01  0.43767717042E-02 -0.45126481666E-02  0.20241304043E-01  0.00000000000E+00 0. -1.
     999901    1    3    3    0    0  0.84778663904E-01 -0.53413198817E-02  0.88506314054E-01  0.88850960556E+00  0.88000000000E+00 0. -1.
        -11    1    4    4    0    0 -0.60057841280E-01 -0.92408208934E-02 -0.49405302811E-01  0.78316550848E-01  0.51100000000E-03 0.  1.
         11    1    4    4    0    0 -0.43961151763E-01  0.10205369071E-01 -0.34588363076E-01  0.56862539545E-01  0.51100000000E-03 0. -1.
</event>
<event>
 8    1  0.1070112E+005  0.1043930E+01  0.7957747E-01            NaN
         13   -1    0    0    0    0  0.00000000000E+00  0.00000000000E+00  0.74505805969E-08  0.10566000000E+00  0.10566000000E+00 0.  1.
     999900   -1    0    0    0    0 -0.00000000000E+00 -0.00000000000E+00 -0.74505805969E-08  0.93827000000E+00  0.93827000000E+00 0.  1.
     999902    2    1    2    0    0 -0.27019909694E-01  0.90687199761E-02  0.55834537899E-02  0.10148870635E+01  0.10144714188E+01 0.  0.
     999903    2    3    3    0    0 -0.55493914634E-01 -0.72364607239E-01  0.86123852273E-01  0.12700818018E+00  0.19938629819E-01 0.  0.
         14    1    1    2    0    0  0.27019909694E-01 -0.90687199761E-02 -0.55834537899E-02  0.29042936458E-01  0.00000000000E+00 0. -1.
     999901    1    3    3    0    0  0.28474004940E-01  0.81433327215E-01 -0.80540398483E-01  0.88787888337E+00  0.88000000000E+00 0. -1.
        -11    1    4    4    0    0 -0.19379959073E-01 -0.38370173097E-01  0.31979243296E-01  0.53579717431E-01  0.51100000000E-03 0. -1.
         11    1    4    4    0    0 -0.36113955562E-01 -0.33994434142E-01  0.54144608977E-01  0.73428462746E-01  0.51100000000E-03 0.  1.
</event>
<event>
 8    1  0.1070112E+005  0.1043930E+01  0.7957747E-01            NaN
         13   -1    0    0    0    0  0.00000000000E+00  0.00000000000E+00  0.74505805969E-08  0.10566000000E+00  0.10566000000E+00 0.  1.
     999900   -1    0    0    0    0 -0.00000000000E+00 -0.00000000000E+00 -0.74505805969E-08  0.93827000000E+00  0.93827000000E+00 0.  1.
     999902    2    1    2    0    0 -0.11128909364E-01 -0.19799029651E-01 -0.13894775140E-01  0.10173044676E+01  0.10169559778E+01 0.  0.
     999903    2    3    3    0    0 -0.25026451877E-01 -0.67589173721E-01  0.10395549871E+00  0.12805437534E+00  0.19913754886E-01 0.  0.
         14    1    1    2    0    0  0.11128909364E-01  0.19799029651E-01  0.13894775140E-01  0.26625532388E-01  0.00000000000E+00 0.  1.
     999901    1    3    3    0    0  0.13897542513E-01  0.47790144070E-01 -0.11785027385E+00  0.88925009227E+00  0.88000000000E+00 0.  1.
        -11    1    4    4    0    0 -0.14562953355E-01 -0.32778201288E-01  0.35077171214E-01  0.50171298085E-01  0.51100000000E-03 0.  1.
         11    1    4    4    0    0 -0.10463498522E-01 -0.34810972433E-01  0.68878327497E-01  0.77883077256E-01  0.51100000000E-03 0. -1.
</event>
<event>
 8    1  0.1070112E+005  0.1043930E+01  0.7957747E-01            NaN
         13   -1    0    0    0    0  0.00000000000E+00  0.00000000000E+00  0.74505805969E-08  0.10566000000E+00  0.10566000000E+00 0. -1.
     999900   -1    0    0    0    0 -0.00000000000E+00 -0.00000000000E+00 -0.74505805969E-08  0.93827000000E+00  0.93827000000E+00 0.  1.
     999902    2    1    2    0    0  0.12296279695E-01  0.19332084476E-01 -0.42870223851E-02  0.10206210630E+01  0.10203548636E+01 0.  0.
     999903    2    3    3    0    0  0.87680916613E-01  0.83962785884E-01 -0.54363699906E-01  0.13362182696E+00  0.12715668349E-01 0.  0.
         14    1    1    2    0    0 -0.12296279695E-01 -0.19332084476E-01  0.42870223851E-02  0.23308937030E-01  0.00000000000E+00 0. -1.
     999901    1    3    3    0    0 -0.75384636918E-01 -0.64630701408E-01  0.50076677521E-01  0.88699923601E+00  0.88000000000E+00 0.  1.
        -11    1    4    4    0    0  0.70184401798E-01  0.73505301879E-01 -0.46555577736E-01  0.11178802530E+00  0.51100000000E-03 0. -1.
         11    1    4    4    0    0  0.17496514815E-01  0.10457484005E-01 -0.78081221700E-02  0.21833801666E-01  0.51100000000E-03 0.  1.
</event>
<event>
 8    1  0.1070112E+005  0.1043930E+01  0.7957747E-01            NaN
         13   -1    0    0    0    0  0.00000000000E+00  0.00000000000E+00  0.74505805969E-08  0.10566000000E+00  0.10566000000E+00 0.  1.
     999900   -1    0    0    0    0 -0.00000000000E+00 -0.00000000000E+00 -0.74505805969E-08  0.93827000000E+00  0.93827000000E+00 0.  1.
     999902    2    1    2    0    0 -0.13269645224E-01  0.17589920643E-01 -0.83976294839E-02  0.10203501575E+01  0.10200776612E+01 0.  0.
     999903    2    3    3    0    0 -0.10781143142E+00  0.35258546070E-01  0.64908760863E-01  0.13207984021E+00  0.19117194814E-01 0.  0.
         14    1    1    2    0    0  0.13269645224E-01 -0.17589920643E-01  0.83976294839E-02  0.23579842526E-01  0.00000000000E+00 0. -1.
     999901    1    3    3    0    0  0.94541786197E-01 -0.17668625427E-01 -0.73306390347E-01  0.88827031726E+00  0.88000000000E+00 0.  1.
        -11    1    4    4    0    0 -0.24571895892E-01  0.15833731471E-04  0.12165171319E-01  0.27423180571E-01  0.51100000000E-03 0. -1.
         11    1    4    4    0    0 -0.83239535530E-01  0.35242712339E-01  0.52743589545E-01  0.10465665964E+00  0.51100000000E-03 0.  1.
</event>
<event>
 8    1  0.1070112E+005  0.1043930E+01  0.7957747E-01            NaN
         13   -1    0    0    0    0  0.00000000000E+00  0.00000000000E+00  0.74505805969E-08  0.10566000000E+00  0.10566000000E+00 0. -1.
     999900   -1    0    0    0    0 -0.00000000000E+00 -0.00000000000E+00 -0.74505805969E-08  0.93827000000E+00  0.93827000000E+00 0. -1.
     999902    2    1    2    0    0 -0.77182943856E-02 -0.16937766277E-01 -0.13929237918E-01  0.10206816955E+01  0.10204168951E+01 0.  0.
     999903    2    3    3    0    0  0.26586622688E-01 -0.79898646659E-01 -0.10154849810E+00  0.13342861176E+00  0.20011364897E-01 0.  0.
         14    1    1    2    0    0  0.77182943856E-02  0.16937766277E-01  0.13929237918E-01  0.23248304532E-01  0.00000000000E+00 0. -1.
     999901    1    3    3    0    0 -0.34304917074E-01  0.62960880382E-01  0.87619260186E-01  0.88725308371E+00  0.88000000000E+00 0.  1.
        -11    1    4    4    0    0  0.46382523787E-02 -0.13348573151E-01 -0.71042603841E-02  0.15824962145E-01  0.51100000000E-03 0.  1.
         11    1    4    4    0    0  0.21948370310E-01 -0.66550073508E-01 -0.94444237720E-01  0.11760364961E+00  0.51100000000E-03 0. -1.
</event>
<event>
 8    1  0.1070112E+005  0.1043930E+01  0.7957747E-01            NaN
         13   -1    0    0    0    0  0.00000000000E+00  0.00000000000E+00  0.74505805969E-08  0.10566000000E+00  0.10566000000E+00 0.  1.
     999900   -1    0    0    0    0 -0.00000000000E+00 -0.00000000000E+00 -0.74505805969E-08  0.93827000000E+00  0.93827000000E+00 0.  1.
     999902    2    1    2    0    0  0.57330855537E-02 -0.20230175078E-01 -0.11891966665E-01  0.10197732799E+01  0.10194871237E+01 0.  0.
     999903    2    3    3    0    0 -0.11402630376E+00  0.46440962812E-01 -0.32853296784E-01  0.12891597973E+00  0.19525105433E-01 0.  0.
         14    1    1    2    0    0 -0.57330855537E-02  0.20230175078E-01  0.11891966665E-01  0.24156720076E-01  0.00000000000E+00 0. -1.
     999901    1    3    3    0    0  0.11975938932E+00 -0.66671137891E-01  0.20961330118E-01  0.89085730020E+00  0.88000000000E+00 0.  1.
        -11    1    4    4    0    0 -0.10126237174E+00  0.47346885438E-01 -0.28173014771E-01  0.11528128805E+00  0.51100000000E-03 0.  1.
         11    1    4    4    0    0 -0.12763932020E-01 -0.90592262605E-03 -0.46802820122E-02  0.13634691677E-01  0.51100000000E-03 0. -1.
</event>
<event>
 8    1  0.1070112E+005  0.1043930E+01  0.7957747E-01            NaN
         13   -1    0    0    0    0  0.00000000000E+00  0.00000000000E+00  0.74505805969E-08  0.10566000000E+00  0.10566000000E+00 0. -1.
     999900   -1    0    0    0    0 -0.00000000000E+00 -0.00000000000E+00 -0.74505805969E-08  0.93827000000E+00  0.93827000000E+00 0. -1.
     999902    2    1    2    0    0 -0.22356358596E-01 -0.12252240157E-02  0.10512500985E-01  0.10191949920E+01  0.10188947988E+01 0.  0.
     999903    2    3    3    0    0 -0.62233776315E-01  0.55165256481E-01 -0.97949042677E-01  0.12985028876E+00  0.18730565739E-01 0.  0.
         14    1    1    2    0    0  0.22356358596E-01  0.12252240157E-02 -0.10512500985E-01  0.24735007995E-01  0.00000000000E+00 0. -1.
     999901    1    3    3    0    0  0.39877417719E-01 -0.56390480497E-01  0.10846154366E+00  0.88934470324E+00  0.88000000000E+00 0.  1.
        -11    1    4    4    0    0 -0.24507924717E-01  0.14550572664E-01 -0.44480701091E-01  0.52831348926E-01  0.51100000000E-03 0. -1.
         11    1    4    4    0    0 -0.37725851598E-01  0.40614683817E-01 -0.53468341586E-01  0.77018939835E-01  0.51100000000E-03 0.  1.
</event>
<event>
 7    1  0.1079310E+005  0.1043930E+01  0.7957747E-01            NaN
         13   -1    0    0    0    0  0.00000000000E+00  0.00000000000E+00  0.74505805969E-08  0.10566000000E+00  0.10566000000E+00 0.  1.
     999900   -1    0    0    0    0 -0.00000000000E+00 -0.00000000000E+00 -0.74505805969E-08  0.93827000000E+00  0.93827000000E+00 0.  1.
     999903    2    1    2    0    0 -0.75014551312E-01  0.76016725049E-01 -0.29283352579E-01  0.11240427265E+00  0.19273826179E-01 0.  0.
         14    1    1    2    0    0  0.79300369592E-02  0.33911596822E-01 -0.21112081811E-01  0.40725936252E-01  0.00000000000E+00 0. -1.
     999901    1    1    2    0    0  0.67084514353E-01 -0.10992832187E+00  0.50395434390E-01  0.89079979110E+00  0.88000000000E+00 0. -1.
        -11    1    3    3    0    0 -0.28532715811E-01  0.31878521328E-01 -0.22776196956E-02  0.42846291159E-01  0.51100000000E-03 0. -1.
         11    1    3    3    0    0 -0.46481835501E-01  0.44138203721E-01 -0.27005732883E-01  0.69557981489E-01  0.51100000000E-03 0.  1.
</event>
<event>
 8    1  0.1070112E+005  0.1043930E+01  0.7957747E-01            NaN
         13   -1    0    0    0    0  0.00000000000E+00  0.00000000000E+00  0.74505805969E-08  0.10566000000E+00  0.10566000000E+00 0.  1.
     999900   -1    0    0    0    0 -0.00000000000E+00 -0.00000000000E+00 -0.74505805969E-08  0.93827000000E+00  0.93827000000E+00 0. -1.
     999902    2    1    2    0    0 -0.41628853798E-02  0.24862098319E-01  0.16664775302E-02  0.10186667719E+01  0.10183534560E+01 0.  0.
     999903    2    3    3    0    0  0.27787408941E-01  0.65414479474E-01 -0.10694924190E+00  0.13048734664E+00  0.23186484592E-01 0.  0.
         14    1    1    2    0    0  0.41628853798E-02 -0.24862098319E-01 -0.16664775302E-02  0.25263228117E-01  0.00000000000E+00 0. -1.
     999901    1    3    3    0    0 -0.31950294320E-01 -0.40552381155E-01  0.10861571943E+00  0.88817942525E+00  0.88000000000E+00 0.  1.
        -11    1    4    4    0    0  0.96185529211E-02  0.28419617198E-01 -0.26240980730E-01  0.39862782049E-01  0.51100000000E-03 0. -1.
         11    1    4    4    0    0  0.18168856020E-01  0.36994862276E-01 -0.80708261174E-01  0.90624564587E-01  0.51100000000E-03 0.  1.
</event>
<event>
 8    1  0.1070112E+005  0.1043930E+01  0.7957747E-01            NaN
         13   -1    0    0    0    0  0.00000000000E+00  0.00000000000E+00  0.74505805969E-08  0.10566000000E+00  0.10566000000E+00 0. -1.
     999900   -1    0    0    0    0 -0.00000000000E+00 -0.00000000000E+00 -0.74505805969E-08  0.93827000000E+00  0.93827000000E+00 0. -1.
     999902    2    1    2    0    0  0.92001142244E-02 -0.20829335993E-01 -0.33564713212E-02  0.10209132835E+01  0.10206537920E+01 0.  0.
     999903    2    3    3    0    0  0.97644330858E-01 -0.37731752756E-01 -0.78689007148E-01  0.13311653754E+00  0.23873671806E-01 0.  0.
         14    1    1    2    0    0 -0.92001142244E-02  0.20829335993E-01  0.33564713212E-02  0.23016716521E-01  0.00000000000E+00 0. -1.
     999901    1    3    3    0    0 -0.88444216634E-01  0.16902416763E-01  0.75332535827E-01  0.88779674594E+00  0.88000000000E+00 0.  1.
        -11    1    4    4    0    0  0.76898098329E-01 -0.36126836140E-01 -0.71657598893E-01  0.11114647280E+00  0.51100000000E-03 0. -1.
         11    1    4    4    0    0  0.20746232529E-01 -0.16049166168E-02 -0.70314082546E-02  0.21970064737E-01  0.51100000000E-03 0.  1.
</event>
<event>
 8    1  0.1070112E+005  0.1043930E+01  0.7957747E-01            NaN
         13   -1    0    0    0    0  0.00000000000E+00  0.00000000000E+00  0.74505805969E-08  0.10566000000E+00  0.10566000000E+00 0. -1.
     999900   -1    0    0    0    0 -0.00000000000E+00 -0.00000000000E+00 -0.74505805969E-08  0.93827000000E+00  0.93827000000E+00 0.  1.
     999902    2    1    2    0    0 -0.15254718086E-01 -0.37128091263E-02 -0.17246401221E-01  0.10206076989E+01  0.10203411906E+01 0.  0.
     999903    2    3    3    0    0  0.89346210960E-01 -0.24892574692E-01 -0.90522653150E-01  0.13113631319E+00  0.19999905392E-01 0.  0.
         14    1    1    2    0    0  0.15254718086E-01  0.37128091263E-02  0.17246401221E-01  0.23322301142E-01  0.00000000000E+00 0. -1.
     999901    1    3    3    0    0 -0.10460092905E+00  0.21179765566E-01  0.73276251930E-01  0.88947138567E+00  0.88000000000E+00 0. -1.
        -11    1    4    4    0    0  0.50661672014E-01 -0.95077598426E-02 -0.37626132281E-01  0.63819976966E-01  0.51100000000E-03 0.  1.
         11    1    4    4    0    0  0.38684538946E-01 -0.15384814850E-01 -0.52896520870E-01  0.67316336224E-01  0.51100000000E-03 0. -1.
</event>
<event>
 8    1  0.1070112E+005  0.1043930E+01  0.7957747E-01            NaN
         13   -1    0    0    0    0  0.00000000000E+00  0.00000000000E+00  0.74505805969E-08  0.10566000000E+00  0.10566000000E+00 0.  1.
     999900   -1    0    0    0    0 -0.00000000000E+00 -0.00000000000E+00 -0.74505805969E-08  0.93827000000E+00  0.93827000000E+00 0.  1.
     999902    2    1    2    0    0 -0.26490662295E-01 -0.72980057386E-02 -0.22664127158E-02  0.10163591331E+01  0.10159851055E+01 0.  0.
     999903    2    3    3    0    0  0.86145745286E-01  0.77087007445E-01  0.40055321557E-01  0.12417141742E+00  0.21227717073E-01 0.  0.
         14    1    1    2    0    0  0.26490662295E-01  0.72980057386E-02  0.22664127158E-02  0.27570866928E-01  0.00000000000E+00 0.  1.
     999901    1    3    3    0    0 -0.11263640758E+00 -0.84385013183E-01 -0.42321734273E-01  0.89218771565E+00  0.88000000000E+00 0.  1.
        -11    1    4    4    0    0  0.34379142119E-01  0.43928913988E-01  0.14850551847E-01  0.57727592260E-01  0.51100000000E-03 0. -1.
         11    1    4    4    0    0  0.51766603167E-01  0.33158093457E-01  0.25204769710E-01  0.66443825163E-01  0.51100000000E-03 0.  1.
</event>
<event>
 8    1  0.1070112E+005  0.1043930E+01  0.7957747E-01            NaN
         13   -1    0    0    0    0  0.00000000000E+00  0.00000000000E+00  0.74505805969E-08  0.10566000000E+00  0.10566000000E+00 0. -1.
     999900   -1    0    0    0    0 -0.00000000000E+00 -0.00000000000E+00 -0.74505805969E-08  0.93827000000E+00  0.93827000000E+00 0. -1.
     999902    2    1    2    0    0  0.19487555211E-01 -0.11421114858E-01  0.10538471693E-02  0.10213176745E+01  0.10210673214E+01 0.  0.
     999903    2    3    3    0    0 -0.96844205657E-01  0.81467935297E-01  0.89395778490E-02  0.12877992233E+00  0.22102662547E-01 0.  0.
         14    1    1    2    0    0 -0.19487555211E-01  0.11421114858E-01 -0.10538471693E-02  0.22612325545E-01  0.00000000000E+00 0.  1.
     999901    1    3    3    0    0  0.11633176087E+00 -0.92889050155E-01 -0.78857306797E-02  0.89253775213E+00  0.88000000000E+00 0. -1.
        -11    1    4    4    0    0 -0.45866297414E-01  0.27626794247E-01  0.10728798997E-01  0.54610669724E-01  0.51100000000E-03 0. -1.
         11    1    4    4    0    0 -0.50977908243E-01  0.53841141050E-01 -0.17892211478E-02  0.74169252603E-01  0.51100000000E-03 0.  1.
</event>
<event>
 8    1  0.1070112E+005  0.1043930E+01  0.7957747E-01            NaN
         13   -1    0    0    0    0  0.00000000000E+00  0.00000000000E+00  0.74505805969E-08  0.10566000000E+00  0.10566000000E+00 0. -1.
     999900   -1    0    0    0    0 -0.00000000000E+00 -0.00000000000E+00 -0.74505805969E-08  0.93827000000E+00  0.93827000000E+00 0. -1.
     999902    2    1    2    0    0 -0.17733859465E-02 -0.81697188006E-02 -0.21797542883E-01  0.10205842921E+01  0.10203172424E+01 0.  0.
     999903    2    3    3    0    0  0.94847008229E-01  0.26326030728E-01  0.80527379186E-01  0.12873461472E+00  0.19973166141E-01 0.  0.
         14    1    1    2    0    0  0.17733859465E-02  0.81697188006E-02  0.21797542883E-01  0.23345707930E-01  0.00000000000E+00 0. -1.
     999901    1    3    3    0    0 -0.96620394176E-01 -0.34495749529E-01 -0.10232492207E+00  0.89184967735E+00  0.88000000000E+00 0. -1.
        -11    1    4    4    0    0  0.30378726417E-01  0.41495949605E-02  0.36066173300E-01  0.47340428120E-01  0.51100000000E-03 0. -1.
         11    1    4    4    0    0  0.64468281812E-01  0.22176435768E-01  0.44461205886E-01  0.81394186604E-01  0.51100000000E-03 0.  1.
</event>
<event>
 8    1  0.1070112E+005  0.1043930E+01  0.7957747E-01            NaN
         13   -1    0    0    0    0  0.00000000000E+00  0.00000000000E+00  0.74505805969E-08  0.10566000000E+00  0.10566000000E+00 0. -1.
     999900   -1    0    0    0    0 -0.00000000000E+00 -0.00000000000E+00 -0.74505805969E-08  0.93827000000E+00  0.93827000000E+00 0.  1.
     999902    2    1    2    0    0 -0.41963433121E-02 -0.21714284537E-01  0.29536350357E-04  0.10218139352E+01  0.10215745679E+01 0.  0.
     999903    2    3    3    0    0  0.30464934573E-01  0.11979246573E+00 -0.34473874350E-01  0.12916840089E+00  0.14754005932E-01 0.  0.
         14    1    1    2    0    0  0.41963433121E-02  0.21714284537E-01 -0.29536350357E-04  0.22116064807E-01  0.00000000000E+00 0. -1.
     999901    1    3    3    0    0 -0.34661277885E-01 -0.14150675027E+00  0.34503410701E-01  0.89264553430E+00  0.88000000000E+00 0. -1.
        -11    1    4    4    0    0  0.66428449935E-02  0.34234564144E-01 -0.16372671998E-01  0.38528668301E-01  0.51100000000E-03 0. -1.
         11    1    4    4    0    0  0.23822089579E-01  0.85557901591E-01 -0.18101202352E-01  0.90639732591E-01  0.51100000000E-03 0.  1.
</event>
<event>
 8    1  0.1070112E+005  0.1043930E+01  0.7957747E-01            NaN
         13   -1    0    0    0    0  0.00000000000E+00  0.00000000000E+00  0.74505805969E-08  0.10566000000E+00  0.10566000000E+00 0. -1.
     999900   -1    0    0    0    0 -0.00000000000E+00 -0.00000000000E+00 -0.74505805969E-08  0.93827000000E+00  0.93827000000E+00 0.  1.
     999902    2    1    2    0    0  0.18586622035E-01  0.97958973632E-02  0.98745518896E-02  0.10207151578E+01  0.10204511279E+01 0.  0.
     999903    2    3    3    0    0 -0.44011330276E-01  0.11960954118E+00  0.25697033348E-01  0.13154256998E+00  0.19991764781E-01 0.  0.
         14    1    1    2    0    0 -0.18586622035E-01 -0.97958973632E-02 -0.98745518896E-02  0.23214842210E-01  0.00000000000E+00 0.  1.
     999901    1    3    3    0    0  0.62597952310E-01 -0.10981364382E+00 -0.15822481459E-01  0.88917258781E+00  0.88000000000E+00 0.  1.
        -11    1    4    4    0    0 -0.17204246684E-01  0.63679136445E-01  0.49911787519E-02  0.66152789122E-01  0.51100000000E-03 0. -1.
         11    1    4    4    0    0 -0.26807083592E-01  0.55930404735E-01  0.20705854596E-01  0.65389780853E-01  0.51100000000E-03 0.  1.
</event>
<event>
 8    1  0.1070112E+005  0.1043930E+01  0.7957747E-01            NaN
         13   -1    0    0    0    0  0.00000000000E+00  0.00000000000E+00  0.74505805969E-08  0.10566000000E+00  0.10566000000E+00 0. -1.
     999900   -1    0    0    0    0 -0.00000000000E+00 -0.00000000000E+00 -0.74505805969E-08  0.93827000000E+00  0.93827000000E+00 0. -1.
     999902    2    1    2    0    0  0.20316587539E-01 -0.31008957321E-02 -0.10971563515E-01  0.10206329081E+01  0.10203669824E+01 0.  0.
     999903    2    3    3    0    0 -0.10900350339E+00 -0.65249325036E-01 -0.46925218056E-02  0.12899086137E+00  0.21849127827E-01 0.  0.
         14    1    1    2    0    0 -0.20316587539E-01  0.31008957321E-02  0.10971563515E-01  0.23297091868E-01  0.00000000000E+00 0. -1.
     999901    1    3    3    0    0  0.12932009093E+00  0.62148429304E-01 -0.62790417092E-02  0.89164204676E+00  0.88000000000E+00 0. -1.
        -11    1    4    4    0    0 -0.36921136957E-01 -0.22046069813E-01  0.87402015410E-02  0.43884527938E-01  0.51100000000E-03 0.  1.
         11    1    4    4    0    0 -0.72082366438E-01 -0.43203255224E-01 -0.13432723347E-01  0.85106333435E-01  0.51100000000E-03 0. -1.
</event>
<event>
 8    1  0.1070112E+005  0.1043930E+01  0.7957747E-01            NaN
         13   -1    0    0    0    0  0.00000000000E+00  0.00000000000E+00  0.74505805969E-08  0.10566000000E+00  0.10566000000E+00 0.  1.
     999900   -1    0    0    0    0 -0.00000000000E+00 -0.00000000000E+00 -0.74505805969E-08  0.93827000000E+00  0.93827000000E+00 0.  1.
     999902    2    1    2    0    0  0.10804941558E-01 -0.34550887993E-04  0.20311673674E-01  0.10209232175E+01  0.10206639525E+01 0.  0.
     999903    2    3    3    0    0 -0.53579295139E-01  0.82023593669E-01  0.86444125156E-01  0.13229935430E+00  0.20782723305E-01 0.  0.
         14    1    1    2    0    0 -0.10804941558E-01  0.34550887993E-04 -0.20311673674E-01  0.23006782550E-01  0.00000000000E+00 0. -1.
     999901    1    3    3    0    0  0.64384236697E-01 -0.82058144557E-01 -0.66132451481E-01  0.88862386315E+00  0.88000000000E+00 0.  1.
        -11    1    4    4    0    0 -0.38324712610E-01  0.43110227487E-01  0.57562906241E-01  0.81492481902E-01  0.51100000000E-03 0.  1.
         11    1    4    4    0    0 -0.15254582529E-01  0.38913366182E-01  0.28881218915E-01  0.50806872397E-01  0.51100000000E-03 0. -1.
</event>
<event>
 8    1  0.1070112E+005  0.1043930E+01  0.7957747E-01            NaN
         13   -1    0    0    0    0  0.00000000000E+00  0.00000000000E+00  0.74505805969E-08  0.10566000000E+00  0.10566000000E+00 0. -1.
     999900   -1    0    0    0    0 -0.00000000000E+00 -0.00000000000E+00 -0.74505805969E-08  0.93827000000E+00  0.93827000000E+00 0. -1.
     999902    2    1    2    0    0  0.14651078343E-01 -0.17382490233E-01 -0.48387791929E-02  0.10206873916E+01  0.10204227224E+01 0.  0.
     999903    2    3    3    0    0 -0.69641232595E-01 -0.54416981632E-01 -0.95240307232E-01  0.13127793382E+00  0.18763544943E-01 0.  0.
         14    1    1    2    0    0 -0.14651078343E-01  0.17382490233E-01  0.48387791929E-02  0.23242608446E-01  0.00000000000E+00 0. -1.
     999901    1    3    3    0    0  0.84292310938E-01  0.37034491399E-01  0.90401528039E-01  0.88940945773E+00  0.88000000000E+00 0.  1.
        -11    1    4    4    0    0 -0.32353805495E-01 -0.32353827085E-01 -0.59816815419E-01  0.75311694875E-01  0.51100000000E-03 0. -1.
         11    1    4    4    0    0 -0.37287427100E-01 -0.22063154547E-01 -0.35423491813E-01  0.55966238944E-01  0.51100000000E-03 0.  1.
</event>
<event>
 8    1  0.1070112E+005  0.1043930E+01  0.7957747E-01            NaN
         13   -1    0    0    0    0  0.00000000000E+00  0.00000000000E+00  0.74505805969E-08  0.10566000000E+00  0.10566000000E+00 0.  1.
     999900   -1    0    0    0    0 -0.00000000000E+00 -0.00000000000E+00 -0.74505805969E-08  0.93827000000E+00  0.93827000000E+00 0. -1.
     999902    2    1    2    0    0 -0.15192870927E-01 -0.13564557232E-01  0.12255451550E-01  0.10201599215E+01  0.10198829584E+01 0.  0.
     999903    2    3    3    0    0 -0.92210439115E-01 -0.92889733183E-02 -0.90268151769E-01  0.13085621877E+00  0.19645881488E-01 0.  0.
         14    1    1    2    0    0  0.15192870927E-01  0.13564557232E-01 -0.12255451550E-01  0.23770078515E-01  0.00000000000E+00 0. -1.
     999901    1    3    3    0    0  0.77017568188E-01 -0.42755839133E-02  0.10252360332E+00  0.88930370272E+00  0.88000000000E+00 0.  1.
        -11    1    4    4    0    0 -0.50545864707E-01  0.31624596646E-02 -0.55859643025E-01  0.75401899379E-01  0.51100000000E-03 0.  1.
         11    1    4    4    0    0 -0.41664574408E-01 -0.12451432983E-01 -0.34408508745E-01  0.55454319390E-01  0.51100000000E-03 0. -1.
</event>
<event>
 8    1  0.1070112E+005  0.1043930E+01  0.7957747E-01            NaN
         13   -1    0    0    0    0  0.00000000000E+00  0.00000000000E+00  0.74505805969E-08  0.10566000000E+00  0.10566000000E+00 0.  1.
     999900   -1    0    0    0    0 -0.00000000000E+00 -0.00000000000E+00 -0.74505805969E-08  0.93827000000E+00  0.93827000000E+00 0. -1.
     999902    2    1    2    0    0  0.11426376562E-01 -0.19975916295E-01 -0.75268254625E-02  0.10197173501E+01  0.10194298513E+01 0.  0.
     999903    2    3    3    0    0 -0.91759037497E-01 -0.68763081222E-01  0.57645609989E-01  0.12995622291E+00  0.20433335998E-01 0.  0.
         14    1    1    2    0    0 -0.11426376562E-01  0.19975916295E-01  0.75268254625E-02  0.24212649890E-01  0.00000000000E+00 0. -1.
     999901    1    3    3    0    0  0.10318541406E+00  0.48787164927E-01 -0.65172435452E-01  0.88976112720E+00  0.88000000000E+00 0.  1.
        -11    1    4    4    0    0 -0.38197724848E-01 -0.31099925850E-01  0.13813445355E-01  0.51159984020E-01  0.51100000000E-03 0. -1.
         11    1    4    4    0    0 -0.53561312649E-01 -0.37663155372E-01  0.43832164635E-01  0.78796238888E-01  0.51100000000E-03 0.  1.
</event>
<event>
 8    1  0.1070112E+005  0.1043930E+01  0.7957747E-01            NaN
         13   -1    0    0    0    0  0.00000000000E+00  0.00000000000E+00  0.74505805969E-08  0.10566000000E+00  0.10566000000E+00 0.  1.
     999900   -1    0    0    0    0 -0.00000000000E+00 -0.00000000000E+00 -0.74505805969E-08  0.93827000000E+00  0.93827000000E+00 0. -1.
     999902    2    1    2    0    0 -0.14424937149E-01 -0.17037728754E-01 -0.41020240860E-02  0.10212322112E+01  0.10209799409E+01 0.  0.
     999903    2    3    3    0    0  0.99343632882E-01 -0.79950979010E-01  0.24964054926E-01  0.13120625570E+00  0.18181338194E-01 0.  0.
         14    1    1    2    0    0  0.14424937149E-01  0.17037728754E-01  0.41020240860E-02  0.22697788757E-01  0.00000000000E+00 0. -1.
     999901    1    3    3    0    0 -0.11376857003E+00  0.62913250257E-01 -0.29066079012E-01  0.89002595554E+00  0.88000000000E+00 0. -1.
        -11    1    4    4    0    0  0.10074204968E-01 -0.19842118202E-02  0.17030868207E-02  0.10420572345E-01  0.51100000000E-03 0. -1.
         11    1    4    4    0    0  0.89269427915E-01 -0.77966767190E-01  0.23260968105E-01  0.12078568336E+00  0.51100000000E-03 0.  1.
</event>
<event>
 8    1  0.1070112E+005  0.1043930E+01  0.7957747E-01            NaN
         13   -1    0    0    0    0  0.00000000000E+00  0.00000000000E+00  0.74505805969E-08  0.10566000000E+00  0.10566000000E+00 0.  1.
     999900   -1    0    0    0    0 -0.00000000000E+00 -0.00000000000E+00 -0.74505805969E-08  0.93827000000E+00  0.93827000000E+00 0. -1.
     999902    2    1    2    0    0  0.12179224382E-01 -0.17282640482E-01  0.11124290207E-01  0.10200391440E+01  0.10197593257E+01 0.  0.
     999903    2    3    3    0    0 -0.12010322836E+00  0.26400794119E-02 -0.40488111610E-01  0.12843418544E+00  0.20598478758E-01 0.  0.
         14    1    1    2    0    0 -0.12179224382E-01  0.17282640482E-01 -0.11124290207E-01  0.23890856016E-01  0.00000000000E+00 0.  1.
     999901    1    3    3    0    0  0.13228245274E+00 -0.19922719894E-01  0.51612401817E-01  0.89160495854E+00  0.88000000000E+00 0.  1.
        -11    1    4    4    0    0 -0.49207289730E-01 -0.37134324394E-02 -0.72684733670E-02  0.49882249039E-01  0.51100000000E-03 0.  1.
         11    1    4    4    0    0 -0.70895938630E-01  0.63535118513E-02 -0.33219638243E-01  0.78551936406E-01  0.51100000000E-03 0. -1.
</event>
<event>
 8    1  0.1070112E+005  0.1043930E+01  0.7957747E-01            NaN
         13   -1    0    0    0    0  0.00000000000E+00  0.00000000000E+00  0.74505805969E-08  0.10566000000E+00  0.10566000000E+00 0.  1.
     999900   -1    0    0    0    0 -0.00000000000E+00 -0.00000000000E+00 -0.74505805969E-08  0.93827000000E+00  0.93827000000E+00 0. -1.
     999902    2    1    2    0    0  0.10357640911E-01 -0.24390435885E-02  0.21002319996E-01  0.10203858478E+01  0.10201141854E+01 0.  0.
     999903    2    3    3    0    0 -0.11916338945E+00  0.42123607973E-01  0.21165164190E-01  0.12978966895E+00  0.20568963397E-01 0.  0.
         14    1    1    2    0    0 -0.10357640911E-01  0.24390435885E-02 -0.21002319996E-01  0.23544152227E-01  0.00000000000E+00 0. -1.
     999901    1    3    3    0    0  0.12952103037E+00 -0.44562651561E-01 -0.16284419320E-03  0.89059617883E+00  0.88000000000E+00 0. -1.
        -11    1    4    4    0    0 -0.86361403217E-01  0.20781739715E-01  0.12479900335E-01  0.89700511172E-01  0.51100000000E-03 0. -1.
         11    1    4    4    0    0 -0.32801986238E-01  0.21341868257E-01  0.86852638549E-02  0.40089157775E-01  0.51100000000E-03 0.  1.
</event>
<event>
 8    1  0.1070112E+005  0.1043930E+01  0.7957747E-01            NaN
         13   -1    0    0    0    0  0.00000000000E+00  0.00000000000E+00  0.74505805969E-08  0.10566000000E+00  0.10566000000E+00 0.  1.
     999900   -1    0    0    0    0 -0.00000000000E+00 -0.00000000000E+00 -0.74505805969E-08  0.93827000000E+00  0.93827000000E+00 0.  1.
     999902    2    1    2    0    0 -0.74261105373E-03 -0.22853817163E-01  0.67556354625E-02  0.10200870337E+01  0.10198083493E+01 0.  0.
     999903    2    3    3    0    0 -0.23434559267E-01  0.10360599131E+00 -0.69170950982E-01  0.12752227182E+00  0.13925851783E-01 0.  0.
         14    1    1    2    0    0  0.74261105373E-03  0.22853817163E-01 -0.67556354625E-02  0.23842966271E-01  0.00000000000E+00 0. -1.
     999901    1    3    3    0    0  0.22691948213E-01 -0.12645980847E+00  0.75926586445E-01  0.89256476191E+00  0.88000000000E+00 0. -1.
        -11    1    4    4    0    0 -0.20930931422E-01  0.84501195458E-01 -0.50277476982E-01  0.10053179466E+00  0.51100000000E-03 0.  1.
         11    1    4    4    0    0 -0.25036278453E-02  0.19104795848E-01 -0.18893474000E-01  0.26990477165E-01  0.51100000000E-03 0. -1.
</event>
<event>
 8    1  0.1070112E+005  0.1043930E+01  0.7957747E-01            NaN
         13   -1    0    0    0    0  0.00000000000E+00  0.00000000000E+00  0.74505805969E-08  0.10566000000E+00  0.10566000000E+00 0.  1.
     999900   -1    0    0    0    0 -0.00000000000E+00 -0.00000000000E+00 -0.74505805969E-08  0.93827000000E+00  0.93827000000E+00 0.  1.
     999902    2    1    2    0    0  0.63813490458E-02  0.15508099480E-01 -0.16011221250E-01  0.10207441860E+01  0.10204808236E+01 0.  0.
     999903    2    3    3    0    0  0.50415273369E-01  0.87898635919E-01 -0.85373498934E-01  0.13395757027E+00  0.19700922015E-01 0.  0.
         14    1    1    2    0    0 -0.63813490458E-02 -0.15508099480E-01  0.16011221250E-01  0.23185814004E-01  0.00000000000E+00 0.  1.
     999901    1    3    3    0    0 -0.44033924323E-01 -0.72390536440E-01  0.69362277684E-01  0.88678661572E+00  0.88000000000E+00 0. -1.
        -11    1    4    4    0    0  0.21752212699E-01  0.47644816696E-01 -0.32783083369E-01  0.61791415192E-01  0.51100000000E-03 0. -1.
         11    1    4    4    0    0  0.28663060670E-01  0.40253819224E-01 -0.52590415565E-01  0.72166155082E-01  0.51100000000E-03 0.  1.
</event>
<event>
 8    1  0.1070112E+005  0.1043930E+01  0.7957747E-01            NaN
         13   -1    0    0    0    0  0.00000000000E+00  0.00000000000E+00  0.74505805969E-08  0.10566000000E+00  0.10566000000E+00 0.  1.
     999900   -1    0    0    0    0 -0.00000000000E+00 -0.00000000000E+00 -0.74505805969E-08  0.93827000000E+00  0.93827000000E+00 0.  1.
     999902    2    1    2    0    0  0.28350360293E-02  0.63790128401E-02  0.23533681601E-01  0.10193828331E+01  0.10190872372E+01 0.  0.
     999903    2    3    3    0    0  0.93080640019E-01 -0.44777310548E-01 -0.68600577879E-01  0.12851249446E+00  0.33769940196E-01 0.  0.
         14    1    1    2    0    0 -0.28350360293E-02 -0.63790128401E-02 -0.23533681601E-01  0.24547166920E-01  0.00000000000E+00 0. -1.
     999901    1    3    3    0    0 -0.90245603990E-01  0.51156323388E-01  0.92134259480E-01  0.89087033862E+00  0.88000000000E+00 0. -1.
        -11    1    4    4    0    0  0.10329142735E-01  0.26283718820E-02  0.59116524644E-03  0.10686913761E-01  0.51100000000E-03 0.  1.
         11    1    4    4    0    0  0.82751497285E-01 -0.47405682430E-01 -0.69191743125E-01  0.11782558070E+00  0.51100000000E-03 0. -1.
</event>
<event>
 8    1  0.1070112E+005  0.1043930E+01  0.7957747E-01            NaN
         13   -1    0    0    0    0  0.00000000000E+00  0.00000000000E+00  0.74505805969E-08  0.10566000000E+00  0.10566000000E+00 0. -1.
     999900   -1    0    0    0    0 -0.00000000000E+00 -0.00000000000E+00 -0.74505805969E-08  0.93827000000E+00  0.93827000000E+00 0.  1.
     999902    2    1    2    0    0  0.21552543940E-03  0.22419594043E-01  0.98343524519E-02  0.10194473707E+01  0.10191533459E+01 0.  0.
     999903    2    3    3    0    0  0.57213400400E-01 -0.11157087112E+00 -0.92408721741E-02  0.12727806689E+00  0.19821203910E-01 0.  0.
         14    1    1    2    0    0 -0.21552543940E-03 -0.22419594043E-01 -0.98343524519E-02  0.24482629279E-01  0.00000000000E+00 0. -1.
     999901    1    3    3    0    0 -0.56997874961E-01  0.13399046516E+00  0.19075224626E-01  0.89216930383E+00  0.88000000000E+00 0. -1.
        -11    1    4    4    0    0  0.48636294149E-01 -0.91327869680E-01 -0.12490023249E-03  0.10347243889E+00  0.51100000000E-03 0.  1.
         11    1    4    4    0    0  0.85771062517E-02 -0.20243001441E-01 -0.91159719416E-02  0.23805627999E-01  0.51100000000E-03 0. -1.
</event>
<event>
 8    1  0.1070112E+005  0.1043930E+01  0.7957747E-01            NaN
         13   -1    0    0    0    0  0.00000000000E+00  0.00000000000E+00  0.74505805969E-08  0.10566000000E+00  0.10566000000E+00 0.  1.
     999900   -1    0    0    0    0 -0.00000000000E+00 -0.00000000000E+00 -0.74505805969E-08  0.93827000000E+00  0.93827000000E+00 0.  1.
     999902    2    1    2    0    0  0.85433916118E-03 -0.14626774634E-01 -0.20116420031E-01  0.10190434015E+01  0.10187394717E+01 0.  0.
     999903    2    3    3    0    0  0.55514795891E-02  0.36674768890E-02  0.12551702220E+00  0.12687422342E+00  0.17270680146E-01 0.  0.
         14    1    1    2    0    0 -0.85433916118E-03  0.14626774634E-01  0.20116420031E-01  0.24886598531E-01  0.00000000000E+00 0.  1.
     999901    1    3    3    0    0 -0.46971404279E-02 -0.18294251523E-01 -0.14563344223E+00  0.89216917805E+00  0.88000000000E+00 0.  1.
        -11    1    4    4    0    0 -0.61710048023E-03  0.91004053149E-02  0.87483861356E-01  0.87959566328E-01  0.51100000000E-03 0. -1.
         11    1    4    4    0    0  0.61685800693E-02 -0.54329284258E-02  0.38033160847E-01  0.38914657090E-01  0.51100000000E-03 0.  1.
</event>
<event>
 8    1  0.1070112E+005  0.1043930E+01  0.7957747E-01            NaN
         13   -1    0    0    0    0  0.00000000000E+00  0.00000000000E+00  0.74505805969E-08  0.10566000000E+00  0.10566000000E+00 0.  1.
     999900   -1    0    0    0    0 -0.00000000000E+00 -0.00000000000E+00 -0.74505805969E-08  0.93827000000E+00  0.93827000000E+00 0.  1.
     999902    2    1    2    0    0  0.12729344357E-01  0.17359503170E-01  0.95171698848E-02  0.10203935372E+01  0.10201220543E+01 0.  0.
     999903    2    3    3    0    0  0.16047776496E-01 -0.26822469958E-02  0.12944589268E+00  0.13202673105E+00  0.20250753057E-01 0.  0.
         14    1    1    2    0    0 -0.12729344357E-01 -0.17359503170E-01 -0.95171698848E-02  0.23536462791E-01  0.00000000000E+00 0.  1.
     999901    1    3    3    0    0 -0.33184321387E-02  0.20041750166E-01 -0.11992872280E+00  0.88836680616E+00  0.88000000000E+00 0.  1.
        -11    1    4    4    0    0  0.43399579882E-02 -0.77916167180E-02  0.92521790471E-01  0.92952070226E-01  0.51100000000E-03 0. -1.
         11    1    4    4    0    0  0.11707818508E-01  0.51093697222E-02  0.36924102210E-01  0.39074660820E-01  0.51100000000E-03 0.  1.
</event>
<event>
 8    1  0.1070112E+005  0.1043930E+01  0.7957747E-01            NaN
         13   -1    0    0    0    0  0.00000000000E+00  0.00000000000E+00  0.74505805969E-08  0.10566000000E+00  0.10566000000E+00 0.  1.
     999900   -1    0    0    0    0 -0.00000000000E+00 -0.00000000000E+00 -0.74505805969E-08  0.93827000000E+00  0.93827000000E+00 0. -1.
     999902    2    1    2    0    0 -0.10075285207E-01 -0.10434024998E-01  0.17766056865E-01  0.10209950261E+01  0.10207373954E+01 0.  0.
     999903    2    3    3    0    0 -0.17922538434E-01 -0.54779893006E-03 -0.12627680026E+00  0.12919478979E+00  0.20589948003E-01 0.  0.
         14    1    1    2    0    0  0.10075285207E-01  0.10434024998E-01 -0.17766056865E-01  0.22934973865E-01  0.00000000000E+00 0. -1.
     999901    1    3    3    0    0  0.78472532268E-02 -0.98862260677E-02  0.14404285712E+00  0.89180023634E+00  0.88000000000E+00 0.  1.
        -11    1    4    4    0    0 -0.13594304599E-02 -0.23574926864E-02 -0.79296031777E-01  0.79344360855E-01  0.51100000000E-03 0.  1.
         11    1    4    4    0    0 -0.16563107974E-01  0.18096937563E-02 -0.46980768482E-01  0.49850428939E-01  0.51100000000E-03 0. -1.
</event>
<event>
 8    1  0.1070112E+005  0.1043930E+01  0.7957747E-01            NaN
         13   -1    0    0    0    0  0.00000000000E+00  0.00000000000E+00  0.74505805969E-08  0.10566000000E+00  0.10566000000E+00 0.  1.
     999900   -1    0    0    0    0 -0.00000000000E+00 -0.00000000000E+00 -0.74505805969E-08  0.93827000000E+00  0.93827000000E+00 0. -1.
     999902    2    1    2    0    0 -0.15820537645E-01  0.32389909732E-02  0.17152515507E-01  0.10203717899E+01  0.10200997992E+01 0.  0.
     999903    2    3    3    0    0 -0.29661315462E-01 -0.75220174633E-01 -0.99054799096E-01  0.12916387492E+00  0.18264310908E-01 0.  0.
         14    1    1    2    0    0  0.15820537645E-01 -0.32389909732E-02 -0.17152515507E-01  0.23558210079E-01  0.00000000000E+00 0. -1.
     999901    1    3    3    0    0  0.13840777816E-01  0.78459165606E-01  0.11620731460E+00  0.89120791500E+00  0.88000000000E+00 0.  1.
        -11    1    4    4    0    0 -0.12240988557E-01 -0.16572586156E-01 -0.34762741276E-01  0.40412890453E-01  0.51100000000E-03 0. -1.
         11    1    4    4    0    0 -0.17420326905E-01 -0.58647588477E-01 -0.64292057820E-01  0.88750984464E-01  0.51100000000E-03 0.  1.
</event>
<event>
 8    1  0.1070112E+005  0.1043930E+01  0.7957747E-01            NaN
         13   -1    0    0    0    0  0.00000000000E+00  0.00000000000E+00  0.74505805969E-08  0.10566000000E+00  0.10566000000E+00 0. -1.
     999900   -1    0    0    0    0 -0.00000000000E+00 -0.00000000000E+00 -0.74505805969E-08  0.93827000000E+00  0.93827000000E+00 0.  1.
     999902    2    1    2    0    0 -0.23908531146E-02 -0.22593763291E-01  0.55566679099E-02  0.10205404537E+01  0.10202723885E+01 0.  0.
     999903    2    3    3    0    0  0.11277648969E+00 -0.47677277079E-01  0.44237502461E-01  0.13183976928E+00  0.20811265261E-01 0.  0.
         14    1    1    2    0    0  0.23908531146E-02  0.22593763291E-01 -0.55566679099E-02  0.23389546309E-01  0.00000000000E+00 0.  1.
     999901    1    3    3    0    0 -0.11516734281E+00  0.25083513788E-01 -0.38680834551E-01  0.88870068441E+00  0.88000000000E+00 0. -1.
        -11    1    4    4    0    0  0.83331943985E-01 -0.44506731905E-01  0.35952972188E-01  0.10108382365E+00  0.51100000000E-03 0.  1.
         11    1    4    4    0    0  0.29444545710E-01 -0.31705451742E-02  0.82845302737E-02  0.30755945631E-01  0.51100000000E-03 0. -1.
</event>
<event>
 8    1  0.1070112E+005  0.1043930E+01  0.7957747E-01            NaN
         13   -1    0    0    0    0  0.00000000000E+00  0.00000000000E+00  0.74505805969E-08  0.10566000000E+00  0.10566000000E+00 0. -1.
     999900   -1    0    0    0    0 -0.00000000000E+00 -0.00000000000E+00 -0.74505805969E-08  0.93827000000E+00  0.93827000000E+00 0.  1.
     999902    2    1    2    0    0  0.73427129719E-02  0.46855371861E-02 -0.23210534011E-01  0.10191389012E+01  0.10188373282E+01 0.  0.
     999903    2    3    3    0    0  0.21389601420E-02  0.12342322301E+00 -0.39132747728E-01  0.13100645948E+00  0.19835658583E-01 0.  0.
         14    1    1    2    0    0 -0.73427129719E-02 -0.46855371861E-02  0.23210534011E-01  0.24791098838E-01  0.00000000000E+00 0. -1.
     999901    1    3    3    0    0  0.52037528299E-02 -0.11873768583E+00  0.15922213716E-01  0.88813244168E+00  0.88000000000E+00 0.  1.
        -11    1    4    4    0    0  0.96583965900E-02  0.85853595676E-01 -0.22813377310E-01  0.89357908550E-01  0.51100000000E-03 0. -1.
         11    1    4    4    0    0 -0.75194364480E-02  0.37569627337E-01 -0.16319370417E-01  0.41648550929E-01  0.51100000000E-03 0.  1.
</event>
<event>
 8    1  0.1070112E+005  0.1043930E+01  0.7957747E-01            NaN
         13   -1    0    0    0    0  0.00000000000E+00  0.00000000000E+00  0.74505805969E-08  0.10566000000E+00  0.10566000000E+00 0.  1.
     999900   -1    0    0    0    0 -0.00000000000E+00 -0.00000000000E+00 -0.74505805969E-08  0.93827000000E+00  0.93827000000E+00 0.  1.
     999902    2    1    2    0    0  0.83599431351E-02  0.21822292598E-01  0.83885746516E-02  0.10191012004E+01  0.10187986982E+01 0.  0.
     999903    2    3    3    0    0  0.10046846406E+00  0.82680204189E-01  0.10905311470E-01  0.13219985361E+00  0.20686880868E-01 0.  0.
         14    1    1    2    0    0 -0.83599431351E-02 -0.21822292598E-01 -0.83885746516E-02  0.24828799571E-01  0.00000000000E+00 0. -1.
     999901    1    3    3    0    0 -0.92108520926E-01 -0.60857911591E-01 -0.25167368185E-02  0.88690134682E+00  0.88000000000E+00 0.  1.
        -11    1    4    4    0    0  0.73216077995E-01  0.49468890883E-01  0.23642367467E-02  0.88394660351E-01  0.51100000000E-03 0.  1.
         11    1    4    4    0    0  0.27252386066E-01  0.33211313306E-01  0.85410747234E-02  0.43805193256E-01  0.51100000000E-03 0. -1.
</event>
<event>
 8    1  0.1070112E+005  0.1043930E+01  0.7957747E-01            NaN
         13   -1    0    0    0    0  0.00000000000E+00  0.00000000000E+00  0.74505805969E-08  0.10566000000E+00  0.10566000000E+00 0.  1.
     999900   -1    0    0    0    0 -0.00000000000E+00 -0.00000000000E+00 -0.74505805969E-08  0.93827000000E+00  0.93827000000E+00 0. -1.
     999902    2    1    2    0    0  0.93170544705E-03  0.16052780231E-01  0.17334951425E-01  0.10202855425E+01  0.10200115332E+01 0.  0.
     999903    2    3    3    0    0 -0.12134153415E+00 -0.40436481271E-01 -0.59943571071E-02  0.12973176065E+00  0.20869127371E-01 0.  0.
         14    1    1    2    0    0 -0.93170544705E-03 -0.16052780231E-01 -0.17334951425E-01  0.23644457471E-01  0.00000000000E+00 0. -1.
     999901    1    3    3    0    0  0.12227323959E+00  0.56489261501E-01  0.23329308532E-01  0.89055378188E+00  0.88000000000E+00 0. -1.
        -11    1    4    4    0    0 -0.52256413999E-01 -0.70246185439E-02  0.32361287046E-03  0.52729914811E-01  0.51100000000E-03 0.  1.
         11    1    4    4    0    0 -0.69085120148E-01 -0.33411862727E-01 -0.63179699775E-02  0.77001845837E-01  0.51100000000E-03 0. -1.
</event>
<event>
 8    1  0.1070112E+005  0.1043930E+01  0.7957747E-01            NaN
         13   -1    0    0    0    0  0.00000000000E+00  0.00000000000E+00  0.74505805969E-08  0.10566000000E+00  0.10566000000E+00 0.  1.
     999900   -1    0    0    0    0 -0.00000000000E+00 -0.00000000000E+00 -0.74505805969E-08  0.93827000000E+00  0.93827000000E+00 0.  1.
     999902    2    1    2    0    0  0.13739938524E-01 -0.94938665674E-02 -0.16199555271E-01  0.10206631780E+01  0.10203979508E+01 0.  0.
     999903    2    3    3    0    0 -0.25063877956E-01 -0.56100194690E-01 -0.11628553774E+00  0.13291597873E+00  0.19206803266E-01 0.  0.
         14    1    1    2    0    0 -0.13739938524E-01  0.94938665674E-02  0.16199555271E-01  0.23266821958E-01  0.00000000000E+00 0.  1.
     999901    1    3    3    0    0  0.38803816480E-01  0.46606328123E-01  0.10008598247E+00  0.88774719931E+00  0.88000000000E+00 0. -1.
        -11    1    4    4    0    0 -0.76832811193E-02 -0.23053384438E-01 -0.65615192353E-01  0.69972179695E-01  0.51100000000E-03 0. -1.
         11    1    4    4    0    0 -0.17380596836E-01 -0.33046810252E-01 -0.50670345391E-01  0.62943799037E-01  0.51100000000E-03 0.  1.
</event>
<event>
 8    1  0.1070112E+005  0.1043930E+01  0.7957747E-01            NaN
         13   -1    0    0    0    0  0.00000000000E+00  0.00000000000E+00  0.74505805969E-08  0.10566000000E+00  0.10566000000E+00 0. -1.
     999900   -1    0    0    0    0 -0.00000000000E+00 -0.00000000000E+00 -0.74505805969E-08  0.93827000000E+00  0.93827000000E+00 0. -1.
     999902    2    1    2    0    0 -0.16023365394E-01  0.18613595610E-01 -0.46053154406E-02  0.10189415405E+01  0.10186350867E+01 0.  0.
     999903    2    3    3    0    0  0.18698787309E-01 -0.95542479952E-01 -0.79930869373E-01  0.12770017217E+00  0.20985232194E-01 0.  0.
         14    1    1    2    0    0  0.16023365394E-01 -0.18613595610E-01  0.46053154406E-02  0.24988459544E-01  0.00000000000E+00 0. -1.
     999901    1    3    3    0    0 -0.34722152703E-01  0.11415607556E+00  0.75325553933E-01  0.89124136829E+00  0.88000000000E+00 0.  1.
        -11    1    4    4    0    0  0.20443194347E-01 -0.85011372036E-01 -0.63350372216E-01  0.10797401702E+00  0.51100000000E-03 0. -1.
         11    1    4    4    0    0 -0.17444070379E-02 -0.10531107916E-01 -0.16580497158E-01  0.19726155146E-01  0.51100000000E-03 0.  1.
</event>
<event>
 8    1  0.1070112E+005  0.1043930E+01  0.7957747E-01            NaN
         13   -1    0    0    0    0  0.00000000000E+00  0.00000000000E+00  0.74505805969E-08  0.10566000000E+00  0.10566000000E+00 0.  1.
     999900   -1    0    0    0    0 -0.00000000000E+00 -0.00000000000E+00 -0.74505805969E-08  0.93827000000E+00  0.93827000000E+00 0. -1.
     999902    2    1    2    0    0 -0.96064625733E-02 -0.65879375844E-02  0.20210397521E-01  0.10206030797E+01  0.10203364646E+01 0.  0.
     999903    2    3    3    0    0  0.34481160854E-01  0.12331455751E+00  0.12101264614E-01  0.12993808382E+00  0.18494174065E-01 0.  0.
         14    1    1    2    0    0  0.96064625733E-02  0.65879375844E-02 -0.20210397521E-01  0.23326920345E-01  0.00000000000E+00 0. -1.
     999901    1    3    3    0    0 -0.44087623428E-01 -0.12990249509E+00  0.81091329078E-02  0.89066499584E+00  0.88000000000E+00 0.  1.
        -11    1    4    4    0    0  0.25483806464E-01  0.96510627649E-01  0.16945293496E-01  0.10124786286E+00  0.51100000000E-03 0.  1.
         11    1    4    4    0    0  0.89973543900E-02  0.26803929859E-01 -0.48440288826E-02  0.28690220960E-01  0.51100000000E-03 0. -1.
</event>
<event>
 7    1  0.1070112E+005  0.1043930E+01  0.7957747E-01            NaN
         13   -1    0    0    0    0  0.00000000000E+00  0.00000000000E+00  0.74505805969E-08  0.10566000000E+00  0.10566000000E+00 0.  1.
     999900   -1    0    0    0    0 -0.00000000000E+00 -0.00000000000E+00 -0.74505805969E-08  0.93827000000E+00  0.93827000000E+00 0.  1.
     999902    2    1    2    0    0  0.23189954057E-02  0.12244231490E-01 -0.21769713445E-01  0.10188457546E+01  0.10185369175E+01 0.  0.
         14    1    1    2    0    0 -0.23189954057E-02 -0.12244231490E-01  0.21769713445E-01  0.25084245413E-01  0.00000000000E+00 0.  1.
     999901    1    3    3    0    0 -0.10718693187E+00  0.42490533700E-01  0.27198289288E-01  0.88793819084E+00  0.88000000000E+00 0.  1.
        -11    1    3    3    0    0  0.41744236171E-01 -0.63357147654E-02 -0.40575636529E-01  0.58560788381E-01  0.51100000000E-03 0. -1.
         11    1    3    3    0    0  0.67761691108E-01 -0.23910587444E-01 -0.83923662049E-02  0.72346775362E-01  0.51100000000E-03 0.  1.
</event>
<event>
 7    1  0.1070112E+005  0.1043930E+01  0.7957747E-01            NaN
         13   -1    0    0    0    0  0.00000000000E+00  0.00000000000E+00  0.74505805969E-08  0.10566000000E+00  0.10566000000E+00 0. -1.
     999900   -1    0    0    0    0 -0.00000000000E+00 -0.00000000000E+00 -0.74505805969E-08  0.93827000000E+00  0.93827000000E+00 0. -1.
     999902    2    1    2    0    0 -0.13552155809E-01 -0.88068405664E-02 -0.13991091178E-01  0.10225530966E+01  0.10223296256E+01 0.  0.
         14    1    1    2    0    0  0.13552155809E-01  0.88068405664E-02  0.13991091178E-01  0.21376903429E-01  0.00000000000E+00 0. -1.
     999901    1    3    3    0    0 -0.42533680302E-02 -0.13178999259E+00  0.95826181857E-02  0.88987556426E+00  0.88000000000E+00 0.  1.
        -11    1    3    3    0    0  0.63516595273E-02  0.48824039179E-01  0.92184947898E-02  0.50093633804E-01  0.51100000000E-03 0. -1.
         11    1    3    3    0    0 -0.15650447306E-01  0.74159112848E-01 -0.32792204154E-01  0.82583898513E-01  0.51100000000E-03 0.  1.
</event>
<event>
 8    1  0.1070112E+005  0.1043930E+01  0.7957747E-01            NaN
         13   -1    0    0    0    0  0.00000000000E+00  0.00000000000E+00  0.74505805969E-08  0.10566000000E+00  0.10566000000E+00 0. -1.
     999900   -1    0    0    0    0 -0.00000000000E+00 -0.00000000000E+00 -0.74505805969E-08  0.93827000000E+00  0.93827000000E+00 0. -1.
     999902    2    1    2    0    0  0.21342147821E-01 -0.92057957670E-02 -0.54338925726E-02  0.10200603302E+01  0.10197810138E+01 0.  0.
     999903    2    3    3    0    0 -0.52362964549E-02  0.72674039060E-01  0.10457752457E+00  0.12904224228E+00  0.20162016110E-01 0.  0.
         14    1    1    2    0    0 -0.21342147821E-01  0.92057957670E-02  0.54338925726E-02  0.23869669831E-01  0.00000000000E+00 0. -1.
     999901    1    3    3    0    0  0.26578444276E-01 -0.81879834827E-01 -0.11001141714E+00  0.89101808789E+00  0.88000000000E+00 0. -1.
        -11    1    4    4    0    0  0.23613634450E-02  0.57898216343E-01  0.89367778197E-01  0.10651122192E+00  0.51100000000E-03 0.  1.
         11    1    4    4    0    0 -0.75976598999E-02  0.14775822717E-01  0.15209746369E-01  0.22531020361E-01  0.51100000000E-03 0. -1.
</event>
<event>
 7    1  0.1070112E+005  0.1043930E+01  0.7957747E-01            NaN
         13   -1    0    0    0    0  0.00000000000E+00  0.00000000000E+00  0.74505805969E-08  0.10566000000E+00  0.10566000000E+00 0.  1.
     999900   -1    0    0    0    0 -0.00000000000E+00 -0.00000000000E+00 -0.74505805969E-08  0.93827000000E+00  0.93827000000E+00 0. -1.
     999903    2    1    2    0    0  0.20405636027E-01 -0.99413824169E-01  0.78612525468E-02  0.10359112488E+00  0.19230794187E-01 0.  0.
         14    1    1    2    0    0 -0.28527412083E-01 -0.21498187116E-01  0.36311475569E-01  0.50936318550E-01  0.00000000000E+00 0.  1.
     999901    1    1    2    0    0  0.81217760560E-02  0.12091201129E+00 -0.44172728116E-01  0.88940255657E+00  0.88000000000E+00 0. -1.
        -11    1    3    3    0    0  0.19066139971E-01 -0.75983464359E-01  0.13384664650E-01  0.79475876328E-01  0.51100000000E-03 0.  1.
         11    1    3    3    0    0  0.13394960559E-02 -0.23430359811E-01 -0.55234121036E-02  0.24115248554E-01  0.51100000000E-03 0. -1.
</event>
<event>
 8    1  0.1070112E+005  0.1043930E+01  0.7957747E-01            NaN
         13   -1    0    0    0    0  0.00000000000E+00  0.00000000000E+00  0.74505805969E-08  0.10566000000E+00  0.10566000000E+00 0. -1.
     999900   -1    0    0    0    0 -0.00000000000E+00 -0.00000000000E+00 -0.74505805969E-08  0.93827000000E+00  0.93827000000E+00 0.  1.
     999902    2    1    2    0    0 -0.91399567667E-03 -0.12657601670E-02  0.22374271643E-01  0.10215013226E+01  0.10212550644E+01 0.  0.
     999903    2    3    3    0    0  0.11962819466E-01  0.66839226388E-01  0.11364769696E+00  0.13406966908E+00  0.21172763388E-01 0.  0.
         14    1    1    2    0    0  0.91399567667E-03  0.12657601670E-02 -0.22374271643E-01  0.22428677368E-01  0.00000000000E+00 0.  1.
     999901    1    3    3    0    0 -0.12876815142E-01 -0.68104986555E-01 -0.91273425313E-01  0.88743165355E+00  0.88000000000E+00 0.  1.
        -11    1    4    4    0    0  0.11058371009E-01  0.13162656252E-01  0.23046491224E-01  0.28756650843E-01  0.51100000000E-03 0.  1.
         11    1    4    4    0    0  0.90444845713E-03  0.53676570136E-01  0.90601205732E-01  0.10531301823E+00  0.51100000000E-03 0. -1.
</event>
<event>
 8    1  0.1070112E+005  0.1043930E+01  0.7957747E-01            NaN
         13   -1    0    0    0    0  0.00000000000E+00  0.00000000000E+00  0.74505805969E-08  0.10566000000E+00  0.10566000000E+00 0. -1.
     999900   -1    0    0    0    0 -0.00000000000E+00 -0.00000000000E+00 -0.74505805969E-08  0.93827000000E+00  0.93827000000E+00 0. -1.
     999902    2    1    2    0    0 -0.50480392548E-02 -0.11430970958E-01 -0.28104140000E-01  0.10131730092E+01  0.10127060551E+01 0.  0.
     999903    2    3    3    0    0 -0.45207473599E-01  0.17636993740E-01  0.10911615957E+00  0.12116003994E+00  0.20460688680E-01 0.  0.
         14    1    1    2    0    0  0.50480392548E-02  0.11430970958E-01  0.28104140000E-01  0.30756990791E-01  0.00000000000E+00 0. -1.
     999901    1    3    3    0    0  0.40159434344E-01 -0.29067964698E-01 -0.13722029957E+00  0.89201296927E+00  0.88000000000E+00 0. -1.
        -11    1    4    4    0    0 -0.33327444362E-01  0.68925121212E-02  0.54627369771E-01  0.64363311911E-01  0.51100000000E-03 0.  1.
         11    1    4    4    0    0 -0.11880029237E-01  0.10744481618E-01  0.54488789796E-01  0.56796728025E-01  0.51100000000E-03 0. -1.
</event>
<event>
 8    1  0.1070112E+005  0.1043930E+01  0.7957747E-01            NaN
         13   -1    0    0    0    0  0.00000000000E+00  0.00000000000E+00  0.74505805969E-08  0.10566000000E+00  0.10566000000E+00 0. -1.
     999900   -1    0    0    0    0 -0.00000000000E+00 -0.00000000000E+00 -0.74505805969E-08  0.93827000000E+00  0.93827000000E+00 0. -1.
     999902    2    1    2    0    0  0.11052942634E-01  0.19145639765E-01  0.89573541455E-02  0.10200771751E+01  0.10197982574E+01 0.  0.
     999903    2    3    3    0    0  0.89385058563E-01 -0.86240534112E-01  0.32836878795E-01  0.13001403254E+00  0.19956693861E-01 0.  0.
         14    1    1    2    0    0 -0.11052942634E-01 -0.19145639765E-01 -0.89573541455E-02  0.23852824910E-01  0.00000000000E+00 0.  1.
     999901    1    3    3    0    0 -0.78332115929E-01  0.10538617388E+00 -0.23879524650E-01  0.89006314255E+00  0.88000000000E+00 0. -1.
        -11    1    4    4    0    0  0.72302649392E-01 -0.73651658268E-01  0.34238150583E-01  0.10874167532E+00  0.51100000000E-03 0.  1.
         11    1    4    4    0    0  0.17082409170E-01 -0.12588875844E-01 -0.14012717879E-02  0.21272357220E-01  0.51100000000E-03 0. -1.
</event>
<event>
 8    1  0.1070112E+005  0.1043930E+01  0.7957747E-01            NaN
         13   -1    0    0    0    0  0.00000000000E+00  0.00000000000E+00  0.74505805969E-08  0.10566000000E+00  0.10566000000E+00 0. -1.
     999900   -1    0    0    0    0 -0.00000000000E+00 -0.00000000000E+00 -0.74505805969E-08  0.93827000000E+00  0.93827000000E+00 0. -1.
     999902    2    1    2    0    0  0.69630871278E-02  0.90238702172E-02  0.20473682997E-01  0.10204974049E+01  0.10202283406E+01 0.  0.
     999903    2    3    3    0    0  0.83621387579E-01  0.12221341662E-01  0.10137281507E+00  0.13346223741E+00  0.19844987439E-01 0.  0.
         14    1    1    2    0    0 -0.69630871278E-02 -0.90238702172E-02 -0.20473682997E-01  0.23432595066E-01  0.00000000000E+00 0.  1.
     999901    1    3    3    0    0 -0.76658300451E-01 -0.31974714448E-02 -0.80899132076E-01  0.88703516752E+00  0.88000000000E+00 0.  1.
        -11    1    4    4    0    0  0.15198769752E-01 -0.35277445755E-02  0.26953953513E-01  0.31148423952E-01  0.51100000000E-03 0.  1.
         11    1    4    4    0    0  0.68422617827E-01  0.15749086238E-01  0.74418861560E-01  0.10231381346E+00  0.51100000000E-03 0. -1.
</event>
<event>
 8    1  0.1070112E+005  0.1043930E+01  0.7957747E-01            NaN
         13   -1    0    0    0    0  0.00000000000E+00  0.00000000000E+00  0.74505805969E-08  0.10566000000E+00  0.10566000000E+00 0.  1.
     999900   -1    0    0    0    0 -0.00000000000E+00 -0.00000000000E+00 -0.74505805969E-08  0.93827000000E+00  0.93827000000E+00 0.  1.
     999902    2    1    2    0    0  0.22772176016E-01 -0.17502857719E-02  0.22397949314E-03  0.10210895607E+01  0.10208340733E+01 0.  0.
     999903    2    3    3    0    0 -0.99062432615E-01  0.74463052733E-02  0.79603442914E-01  0.12910898447E+00  0.21531575180E-01 0.  0.
         14    1    1    2    0    0 -0.22772176016E-01  0.17502857719E-02 -0.22397949314E-03  0.22840439304E-01  0.00000000000E+00 0. -1.
     999901    1    3    3    0    0  0.12183460863E+00 -0.91965910451E-02 -0.79379463421E-01  0.89198057622E+00  0.88000000000E+00 0. -1.
        -11    1    4    4    0    0 -0.28408345775E-01  0.52111712579E-02  0.11950486978E-01  0.31261248785E-01  0.51100000000E-03 0. -1.
         11    1    4    4    0    0 -0.70654086840E-01  0.22351340154E-02  0.67652955936E-01  0.97847735687E-01  0.51100000000E-03 0.  1.
</event>
<event>
 8    1  0.1070112E+005  0.1043930E+01  0.7957747E-01            NaN
         13   -1    0    0    0    0  0.00000000000E+00  0.00000000000E+00  0.74505805969E-08  0.10566000000E+00  0.10566000000E+00 0. -1.
     999900   -1    0    0    0    0 -0.00000000000E+00 -0.00000000000E+00 -0.74505805969E-08  0.93827000000E+00  0.93827000000E+00 0.  1.
     999902    2    1    2    0    0 -0.10361070655E-02  0.19430577286E-01  0.84932694473E-02  0.10226989737E+01  0.10224785740E+01 0.  0.
     999903    2    3    3    0    0 -0.78777691479E-01 -0.38023850027E-01 -0.96343162917E-01  0.13121961740E+00  0.16877354803E-01 0.  0.
         14    1    1    2    0    0  0.10361070655E-02 -0.19430577286E-01 -0.84932694473E-02  0.21231026292E-01  0.00000000000E+00 0.  1.
     999901    1    3    3    0    0  0.77741584414E-01  0.57454427313E-01  0.10483643236E+00  0.89147935630E+00  0.88000000000E+00 0. -1.
        -11    1    4    4    0    0 -0.39872453240E-01 -0.99714516705E-02 -0.45743261677E-01  0.61497556745E-01  0.51100000000E-03 0.  1.
         11    1    4    4    0    0 -0.38905238240E-01 -0.28052398356E-01 -0.50599901240E-01  0.69722060659E-01  0.51100000000E-03 0. -1.
</event>
<event>
 8    1  0.1070112E+005  0.1043930E+01  0.7957747E-01            NaN
         13   -1    0    0    0    0  0.00000000000E+00  0.00000000000E+00  0.74505805969E-08  0.10566000000E+00  0.10566000000E+00 0.  1.
     999900   -1    0    0    0    0 -0.00000000000E+00 -0.00000000000E+00 -0.74505805969E-08  0.93827000000E+00  0.93827000000E+00 0.  1.
     999902    2    1    2    0    0 -0.12729352114E-02 -0.59889701694E-02 -0.24831644384E-01  0.10183546468E+01  0.10180334415E+01 0.  0.
     999903    2    3    3    0    0 -0.43095605385E-01 -0.11248008199E+00  0.40144250424E-01  0.12857301094E+00  0.20259769265E-01 0.  0.
         14    1    1    2    0    0  0.12729352114E-02  0.59889701694E-02  0.24831644384E-01  0.25575353185E-01  0.00000000000E+00 0.  1.
     999901    1    3    3    0    0  0.41822670174E-01  0.10649111182E+00 -0.64975894807E-01  0.88978163588E+00  0.88000000000E+00 0.  1.
        -11    1    4    4    0    0 -0.40514292525E-01 -0.90355055415E-01  0.26739308623E-01  0.10257044255E+00  0.51100000000E-03 0.  1.
         11    1    4    4    0    0 -0.25813128604E-02 -0.22125026579E-01  0.13404941800E-01  0.26002568390E-01  0.51100000000E-03 0. -1.
</event>
<event>
 8    1  0.1070112E+005  0.1043930E+01  0.7957747E-01            NaN
         13   -1    0    0    0    0  0.00000000000E+00  0.00000000000E+00  0.74505805969E-08  0.10566000000E+00  0.10566000000E+00 0. -1.
     999900   -1    0    0    0    0 -0.00000000000E+00 -0.00000000000E+00 -0.74505805969E-08  0.93827000000E+00  0.93827000000E+00 0.  1.
     999902    2    1    2    0    0 -0.18447921878E-01 -0.33279023686E-02  0.13585633250E-01  0.10207789701E+01  0.10205164063E+01 0.  0.
     999903    2    3    3    0    0  0.77920188282E-01  0.77972491551E-01 -0.63764062683E-01  0.12843400193E+00  0.16678488598E-01 0.  0.
         14    1    1    2    0    0  0.18447921878E-01  0.33279023686E-02 -0.13585633250E-01  0.23151029926E-01  0.00000000000E+00 0.  1.
     999901    1    3    3    0    0 -0.96368110161E-01 -0.81300393919E-01  0.77349695933E-01  0.89234496814E+00  0.88000000000E+00 0. -1.
        -11    1    4    4    0    0  0.15145855810E-01  0.12006315715E-01 -0.18429773993E-01  0.26710789125E-01  0.51100000000E-03 0. -1.
         11    1    4    4    0    0  0.62774332472E-01  0.65966175836E-01 -0.45334288690E-01  0.10172321281E+00  0.51100000000E-03 0.  1.
</event>
<event>
 8    1  0.1070112E+005  0.1043930E+01  0.7957747E-01            NaN
         13   -1    0    0    0    0  0.00000000000E+00  0.00000000000E+00  0.74505805969E-08  0.10566000000E+00  0.10566000000E+00 0.  1.
     999900   -1    0    0    0    0 -0.00000000000E+00 -0.00000000000E+00 -0.74505805969E-08  0.93827000000E+00  0.93827000000E+00 0. -1.
     999902    2    1    2    0    0 -0.12572164412E-01 -0.32802542116E-02  0.18772007070E-01  0.10211000277E+01  0.10208447771E+01 0.  0.
     999903    2    3    3    0    0  0.11229742868E+00  0.58203986938E-01  0.23615768234E-01  0.13014762201E+00  0.19552043900E-01 0.  0.
         14    1    1    2    0    0  0.12572164412E-01  0.32802542116E-02 -0.18772007070E-01  0.22829972298E-01  0.00000000000E+00 0. -1.
     999901    1    3    3    0    0 -0.12486959310E+00 -0.61484241150E-01 -0.48437611640E-02  0.89095240569E+00  0.88000000000E+00 0.  1.
        -11    1    4    4    0    0  0.70536163422E-01  0.27220117478E-01  0.18882805550E-01  0.77930139306E-01  0.51100000000E-03 0. -1.
         11    1    4    4    0    0  0.41761265261E-01  0.30983869460E-01  0.47329626836E-02  0.52217482702E-01  0.51100000000E-03 0.  1.
</event>
<event>
 8    1  0.1070112E+005  0.1043930E+01  0.7957747E-01            NaN
         13   -1    0    0    0    0  0.00000000000E+00  0.00000000000E+00  0.74505805969E-08  0.10566000000E+00  0.10566000000E+00 0. -1.
     999900   -1    0    0    0    0 -0.00000000000E+00 -0.00000000000E+00 -0.74505805969E-08  0.93827000000E+00  0.93827000000E+00 0.  1.
     999902    2    1    2    0    0 -0.18117479836E-01 -0.13920654018E-01 -0.73209633549E-02  0.10199378307E+01  0.10196556057E+01 0.  0.
     999903    2    3    3    0    0 -0.28091995980E-02  0.11577053874E+00 -0.53366337761E-01  0.12910994303E+00  0.20265787432E-01 0.  0.
         14    1    1    2    0    0  0.18117479836E-01  0.13920654018E-01  0.73209633549E-02  0.23992169313E-01  0.00000000000E+00 0. -1.
     999901    1    3    3    0    0 -0.15308280238E-01 -0.12969119276E+00  0.46045374406E-01  0.89082788766E+00  0.88000000000E+00 0.  1.
        -11    1    4    4    0    0 -0.24981794401E-02  0.98856329142E-01 -0.52965747199E-01  0.11218041812E+00  0.51100000000E-03 0. -1.
         11    1    4    4    0    0 -0.31102015781E-03  0.16914209600E-01 -0.40059056205E-03  0.16929524911E-01  0.51100000000E-03 0.  1.
</event>
<event>
 8    1  0.1070112E+005  0.1043930E+01  0.7957747E-01            NaN
         13   -1    0    0    0    0  0.00000000000E+00  0.00000000000E+00  0.74505805969E-08  0.10566000000E+00  0.10566000000E+00 0.  1.
     999900   -1    0    0    0    0 -0.00000000000E+00 -0.00000000000E+00 -0.74505805969E-08  0.93827000000E+00  0.93827000000E+00 0. -1.
     999902    2    1    2    0    0 -0.53964164098E-02 -0.22088847853E-01  0.19044645937E-02  0.10211119042E+01  0.10208569221E+01 0.  0.
     999903    2    3    3    0    0  0.73765937970E-01  0.81522622278E-01 -0.64623439175E-01  0.12901999356E+00  0.19560631358E-01 0.  0.
         14    1    1    2    0    0  0.53964164098E-02  0.22088847853E-01 -0.19044645937E-02  0.22818095777E-01  0.00000000000E+00 0.  1.
     999901    1    3    3    0    0 -0.79162354380E-01 -0.10361147013E+00  0.66527903769E-01  0.89209191066E+00  0.88000000000E+00 0.  1.
        -11    1    4    4    0    0  0.35395429898E-01  0.36443268439E-01 -0.40978677383E-01  0.65272209961E-01  0.51100000000E-03 0.  1.
         11    1    4    4    0    0  0.38370508072E-01  0.45079353839E-01 -0.23644761793E-01  0.63747783597E-01  0.51100000000E-03 0. -1.
</event>
<event>
 8    1  0.1070112E+005  0.1043930E+01  0.7957747E-01            NaN
         13   -1    0    0    0    0  0.00000000000E+00  0.00000000000E+00  0.74505805969E-08  0.10566000000E+00  0.10566000000E+00 0.  1.
     999900   -1    0    0    0    0 -0.00000000000E+00 -0.00000000000E+00 -0.74505805969E-08  0.93827000000E+00  0.93827000000E+00 0.  1.
     999902    2    1    2    0    0  0.86016279734E-02  0.12663330318E-01  0.18534687993E-01  0.10198908112E+01  0.10196074657E+01 0.  0.
     999903    2    3    3    0    0  0.40328682449E-01 -0.11972283971E+00  0.18772197686E-01  0.12942309118E+00  0.20927975282E-01 0.  0.
         14    1    1    2    0    0 -0.86016279734E-02 -0.12663330318E-01 -0.18534687993E-01  0.24039188787E-01  0.00000000000E+00 0. -1.
     999901    1    3    3    0    0 -0.31727054476E-01  0.13238617003E+00 -0.23750969276E-03  0.89046772003E+00  0.88000000000E+00 0. -1.
        -11    1    4    4    0    0  0.78699683508E-02 -0.78698735686E-02  0.47563903176E-02  0.12114275945E-01  0.51100000000E-03 0.  1.
         11    1    4    4    0    0  0.32458714098E-01 -0.11185296614E+00  0.14015807368E-01  0.11730881524E+00  0.51100000000E-03 0. -1.
</event>
<event>
 8    1  0.1070112E+005  0.1043930E+01  0.7957747E-01            NaN
         13   -1    0    0    0    0  0.00000000000E+00  0.00000000000E+00  0.74505805969E-08  0.10566000000E+00  0.10566000000E+00 0.  1.
     999900   -1    0    0    0    0 -0.00000000000E+00 -0.00000000000E+00 -0.74505805969E-08  0.93827000000E+00  0.93827000000E+00 0. -1.
     999902    2    1    2    0    0  0.54902796458E-02 -0.86405531163E-02  0.24524851386E-01  0.10173542467E+01  0.10170070760E+01 0.  0.
     999903    2    3    3    0    0  0.84942774723E-01  0.48795600755E-02  0.96740468569E-01  0.13072546991E+00  0.22166306434E-01 0.  0.
         14    1    1    2    0    0 -0.54902796458E-02  0.86405531163E-02 -0.24524851386E-01  0.26575753315E-01  0.00000000000E+00 0. -1.
     999901    1    3    3    0    0 -0.79452495077E-01 -0.13520113192E-01 -0.72215617184E-01  0.88662877677E+00  0.88000000000E+00 0.  1.
        -11    1    4    4    0    0  0.32561544658E-01  0.10051152652E-01  0.48834041019E-01  0.59550856781E-01  0.51100000000E-03 0. -1.
         11    1    4    4    0    0  0.52381230065E-01 -0.51715925761E-02  0.47906427550E-01  0.71174613132E-01  0.51100000000E-03 0.  1.
</event>
<event>
 8    1  0.1070112E+005  0.1043930E+01  0.7957747E-01            NaN
         13   -1    0    0    0    0  0.00000000000E+00  0.00000000000E+00  0.74505805969E-08  0.10566000000E+00  0.10566000000E+00 0. -1.
     999900   -1    0    0    0    0 -0.00000000000E+00 -0.00000000000E+00 -0.74505805969E-08  0.93827000000E+00  0.93827000000E+00 0.  1.
     999902    2    1    2    0    0 -0.15287271657E-01 -0.15849847889E-01  0.93186649159E-02  0.10200185829E+01  0.10197382770E+01 0.  0.
     999903    2    3    3    0    0  0.26081480444E-02  0.11315475619E+00  0.58647050435E-01  0.12906643852E+00  0.20195735772E-01 0.  0.
         14    1    1    2    0    0  0.15287271657E-01  0.15849847889E-01 -0.93186649159E-02  0.23911417119E-01  0.00000000000E+00 0. -1.
     999901    1    3    3    0    0 -0.17895419701E-01 -0.12900460408E+00 -0.49328385519E-01  0.89095214436E+00  0.88000000000E+00 0.  1.
        -11    1    4    4    0    0  0.92702324369E-02  0.36756863493E-01  0.24346116841E-01  0.45055507427E-01  0.51100000000E-03 0.  1.
         11    1    4    4    0    0 -0.66620843925E-02  0.76397892698E-01  0.34300933593E-01  0.84010931095E-01  0.51100000000E-03 0. -1.
</event>
<event>
 8    1  0.1070112E+005  0.1043930E+01  0.7957747E-01            NaN
         13   -1    0    0    0    0  0.00000000000E+00  0.00000000000E+00  0.74505805969E-08  0.10566000000E+00  0.10566000000E+00 0.  1.
     999900   -1    0    0    0    0 -0.00000000000E+00 -0.00000000000E+00 -0.74505805969E-08  0.93827000000E+00  0.93827000000E+00 0. -1.
     999902    2    1    2    0    0  0.18286439025E-01 -0.12191252475E-01 -0.49235061569E-02  0.10214075356E+01  0.10211591905E+01 0.  0.
     999903    2    3    3    0    0 -0.11360493554E+00 -0.50702810818E-01 -0.32876144282E-01  0.13030719065E+00  0.20549128178E-01 0.  0.
         14    1    1    2    0    0 -0.18286439025E-01  0.12191252475E-01  0.49235061569E-02  0.22522464386E-01  0.00000000000E+00 0.  1.
     999901    1    3    3    0    0  0.13189137457E+00  0.38511558343E-01  0.27952638125E-01  0.89110034496E+00  0.88000000000E+00 0.  1.
        -11    1    4    4    0    0 -0.10874715640E-01 -0.11106272741E-01 -0.77587124857E-02  0.17380088460E-01  0.51100000000E-03 0. -1.
         11    1    4    4    0    0 -0.10273021990E+00 -0.39596538077E-01 -0.25117431796E-01  0.11292710219E+00  0.51100000000E-03 0.  1.
</event>
<event>
 8    1  0.1070112E+005  0.1043930E+01  0.7957747E-01            NaN
         13   -1    0    0    0    0  0.00000000000E+00  0.00000000000E+00  0.74505805969E-08  0.10566000000E+00  0.10566000000E+00 0.  1.
     999900   -1    0    0    0    0 -0.00000000000E+00 -0.00000000000E+00 -0.74505805969E-08  0.93827000000E+00  0.93827000000E+00 0. -1.
     999902    2    1    2    0    0  0.17637232507E-01 -0.94649205194E-02 -0.12025536251E-01  0.10205789783E+01  0.10203118057E+01 0.  0.
     999903    2    3    3    0    0 -0.10567749372E+00  0.68132093057E-01  0.14867722239E-01  0.12819393499E+00  0.20072892692E-01 0.  0.
         14    1    1    2    0    0 -0.17637232507E-01  0.94649205194E-02  0.12025536251E-01  0.23351021670E-01  0.00000000000E+00 0.  1.
     999901    1    3    3    0    0  0.12331472623E+00 -0.77597013577E-01 -0.26893258489E-01  0.89238504334E+00  0.88000000000E+00 0.  1.
        -11    1    4    4    0    0 -0.60082520315E-01  0.27444045444E-01  0.45003275558E-02  0.66208752796E-01  0.51100000000E-03 0. -1.
         11    1    4    4    0    0 -0.45594973404E-01  0.40688047613E-01  0.10367394683E-01  0.61985182196E-01  0.51100000000E-03 0.  1.
</event>
<event>
 8    1  0.1070112E+005  0.1043930E+01  0.7957747E-01            NaN
         13   -1    0    0    0    0  0.00000000000E+00  0.00000000000E+00  0.74505805969E-08  0.10566000000E+00  0.10566000000E+00 0. -1.
     999900   -1    0    0    0    0 -0.00000000000E+00 -0.00000000000E+00 -0.74505805969E-08  0.93827000000E+00  0.93827000000E+00 0.  1.
     999902    2    1    2    0    0  0.15904129147E-01  0.59999968948E-02  0.17301383869E-01  0.10196755330E+01  0.10193870283E+01 0.  0.
     999903    2    3    3    0    0 -0.99505763438E-01  0.71944249149E-01 -0.32041222451E-01  0.12832667843E+00  0.19071563051E-01 0.  0.
         14    1    1    2    0    0 -0.15904129147E-01 -0.59999968948E-02 -0.17301383869E-01  0.24254467021E-01  0.00000000000E+00 0.  1.
     999901    1    3    3    0    0  0.11540989258E+00 -0.65944252254E-01  0.49342606321E-01  0.89134885455E+00  0.88000000000E+00 0. -1.
        -11    1    4    4    0    0 -0.41757926455E-01  0.38796556044E-01 -0.21443936067E-01  0.60901565643E-01  0.51100000000E-03 0. -1.
         11    1    4    4    0    0 -0.57747836982E-01  0.33147693105E-01 -0.10597286385E-01  0.67425112785E-01  0.51100000000E-03 0.  1.
</event>
<event>
 8    1  0.1070112E+005  0.1043930E+01  0.7957747E-01            NaN
         13   -1    0    0    0    0  0.00000000000E+00  0.00000000000E+00  0.74505805969E-08  0.10566000000E+00  0.10566000000E+00 0. -1.
     999900   -1    0    0    0    0 -0.00000000000E+00 -0.00000000000E+00 -0.74505805969E-08  0.93827000000E+00  0.93827000000E+00 0. -1.
     999902    2    1    2    0    0  0.58916138115E-02 -0.22067672518E-01 -0.48762401077E-02  0.10205746794E+01  0.10203074072E+01 0.  0.
     999903    2    3    3    0    0 -0.18185049083E-01 -0.12851011803E+00 -0.22281522291E-01  0.13366283272E+00  0.22885370153E-01 0.  0.
         14    1    1    2    0    0 -0.58916138115E-02  0.22067672518E-01  0.48762401077E-02  0.23355320619E-01  0.00000000000E+00 0. -1.
     999901    1    3    3    0    0  0.24076662895E-01  0.10644244552E+00  0.17405282183E-01  0.88691184666E+00  0.88000000000E+00 0.  1.
        -11    1    4    4    0    0 -0.15296206720E-01 -0.45828790628E-01 -0.15085824621E-01  0.50617143499E-01  0.51100000000E-03 0.  1.
         11    1    4    4    0    0 -0.28888423635E-02 -0.82681327406E-01 -0.71956976696E-02  0.83045689219E-01  0.51100000000E-03 0. -1.
</event>
<event>
 8    1  0.1070112E+005  0.1043930E+01  0.7957747E-01            NaN
         13   -1    0    0    0    0  0.00000000000E+00  0.00000000000E+00  0.74505805969E-08  0.10566000000E+00  0.10566000000E+00 0.  1.
     999900   -1    0    0    0    0 -0.00000000000E+00 -0.00000000000E+00 -0.74505805969E-08  0.93827000000E+00  0.93827000000E+00 0.  1.
     999902    2    1    2    0    0 -0.16953805001E-01  0.17159109939E-01  0.47308390725E-02  0.10193485559E+01  0.10190521238E+01 0.  0.
     999903    2    3    3    0    0 -0.24941062039E-01 -0.11708588231E+00 -0.40328368103E-01  0.12799237207E+00  0.20603631267E-01 0.  0.
         14    1    1    2    0    0  0.16953805001E-01 -0.17159109939E-01 -0.47308390725E-02  0.24581444145E-01  0.00000000000E+00 0. -1.
     999901    1    3    3    0    0  0.79872570377E-02  0.13424499225E+00  0.45059207175E-01  0.89135618378E+00  0.88000000000E+00 0. -1.
        -11    1    4    4    0    0 -0.19965413000E-01 -0.10937340536E+00 -0.32276447058E-01  0.11577214549E+00  0.51100000000E-03 0.  1.
         11    1    4    4    0    0 -0.49756490392E-02 -0.77124769584E-02 -0.80519210445E-02  0.12220226581E-01  0.51100000000E-03 0. -1.
</event>
<event>
 8    1  0.1070112E+005  0.1043930E+01  0.7957747E-01            NaN
         13   -1    0    0    0    0  0.00000000000E+00  0.00000000000E+00  0.74505805969E-08  0.10566000000E+00  0.10566000000E+00 0. -1.
     999900   -1    0    0    0    0 -0.00000000000E+00 -0.00000000000E+00 -0.74505805969E-08  0.93827000000E+00  0.93827000000E+00 0.  1.
     999902    2    1    2    0    0 -0.19322688424E-01  0.11773506356E-01 -0.57053515474E-02  0.10205947739E+01  0.10203279668E+01 0.  0.
     999903    2    3    3    0    0  0.11637141381E+00  0.52109138764E-01 -0.65154472424E-02  0.12928085118E+00  0.20332710923E-01 0.  0.
         14    1    1    2    0    0  0.19322688424E-01 -0.11773506356E-01  0.57053515474E-02  0.23335226078E-01  0.00000000000E+00 0.  1.
     999901    1    3    3    0    0 -0.13569410223E+00 -0.40335632408E-01  0.81009569492E-03  0.89131392274E+00  0.88000000000E+00 0. -1.
        -11    1    4    4    0    0  0.89667683186E-01  0.46470477274E-01 -0.11091659806E-01  0.10160258217E+00  0.51100000000E-03 0.  1.
         11    1    4    4    0    0  0.26703730624E-01  0.56386614902E-02  0.45762125633E-02  0.27678269004E-01  0.51100000000E-03 0. -1.
</event>
<event>
 8    1  0.1070112E+005  0.1043930E+01  0.7957747E-01            NaN
         13   -1    0    0    0    0  0.00000000000E+00  0.00000000000E+00  0.74505805969E-08  0.10566000000E+00  0.10566000000E+00 0. -1.
     999900   -1    0    0    0    0 -0.00000000000E+00 -0.00000000000E+00 -0.74505805969E-08  0.93827000000E+00  0.93827000000E+00 0.  1.
     999902    2    1    2    0    0 -0.17673034939E-01 -0.14078518297E-02  0.15534405683E-01  0.10203580682E+01  0.10200857568E+01 0.  0.
     999903    2    3    3    0    0 -0.69971833559E-01  0.81954137921E-01  0.75079068017E-01  0.13287288379E+00  0.20144442840E-01 0.  0.
         14    1    1    2    0    0  0.17673034939E-01  0.14078518297E-02 -0.15534405683E-01  0.23571931839E-01  0.00000000000E+00 0.  1.
     999901    1    3    3    0    0  0.52298798620E-01 -0.83361989751E-01 -0.59544662334E-01  0.88748518437E+00  0.88000000000E+00 0.  1.
        -11    1    4    4    0    0 -0.30827614194E-01  0.24421801980E-01  0.34490719814E-01  0.52312876839E-01  0.51100000000E-03 0. -1.
         11    1    4    4    0    0 -0.39144219364E-01  0.57532335941E-01  0.40588348203E-01  0.80560006947E-01  0.51100000000E-03 0.  1.
</event>
<event>
 8    1  0.1070112E+005  0.1043930E+01  0.7957747E-01            NaN
         13   -1    0    0    0    0  0.00000000000E+00  0.00000000000E+00  0.74505805969E-08  0.10566000000E+00  0.10566000000E+00 0. -1.
     999900   -1    0    0    0    0 -0.00000000000E+00 -0.00000000000E+00 -0.74505805969E-08  0.93827000000E+00  0.93827000000E+00 0.  1.
     999902    2    1    2    0    0 -0.34279876299E-02 -0.19876381228E-01 -0.11701520109E-01  0.10206116123E+01  0.10203451946E+01 0.  0.
     999903    2    3    3    0    0 -0.71963271315E-01  0.64242313689E-02 -0.10889746186E+00  0.13222213783E+00  0.20101078752E-01 0.  0.
         14    1    1    2    0    0  0.34279876299E-02  0.19876381228E-01  0.11701520109E-01  0.23318387653E-01  0.00000000000E+00 0. -1.
     999901    1    3    3    0    0  0.68535283685E-01 -0.26300612597E-01  0.97195941750E-01  0.88838947451E+00  0.88000000000E+00 0. -1.
        -11    1    4    4    0    0 -0.53325380112E-01 -0.16868976583E-02 -0.89036828240E-01  0.10379913146E+00  0.51100000000E-03 0.  1.
         11    1    4    4    0    0 -0.18637891203E-01  0.81111290272E-02 -0.19860633619E-01  0.28423006374E-01  0.51100000000E-03 0. -1.
</event>
<event>
 8    1  0.1070112E+005  0.1043930E+01  0.7957747E-01            NaN
         13   -1    0    0    0    0  0.00000000000E+00  0.00000000000E+00  0.74505805969E-08  0.10566000000E+00  0.10566000000E+00 0. -1.
     999900   -1    0    0    0    0 -0.00000000000E+00 -0.00000000000E+00 -0.74505805969E-08  0.93827000000E+00  0.93827000000E+00 0. -1.
     999902    2    1    2    0    0 -0.22642102096E-01  0.18156060961E-01  0.66214813232E-02  0.10141617056E+01  0.10137247229E+01 0.  0.
     999903    2    3    3    0    0  0.10597053318E+00 -0.53975914016E-01 -0.16115965746E-01  0.12160289898E+00  0.19605802482E-01 0.  0.
         14    1    1    2    0    0  0.22642102096E-01 -0.18156060961E-01 -0.66214813232E-02  0.29768294407E-01  0.00000000000E+00 0.  1.
     999901    1    3    3    0    0 -0.12861263528E+00  0.72131974977E-01  0.22737447070E-01  0.89255880662E+00  0.88000000000E+00 0. -1.
        -11    1    4    4    0    0  0.83761500334E-01 -0.46821095255E-01 -0.59463720438E-02  0.96144809328E-01  0.51100000000E-03 0. -1.
         11    1    4    4    0    0  0.22209032848E-01 -0.71548187613E-02 -0.10169593703E-01  0.25458089650E-01  0.51100000000E-03 0.  1.
</event>
<event>
 7    1  0.1070112E+005  0.1043930E+01  0.7957747E-01            NaN
         13   -1    0    0    0    0  0.00000000000E+00  0.00000000000E+00  0.74505805969E-08  0.10566000000E+00  0.10566000000E+00 0.  1.
     999900   -1    0    0    0    0 -0.00000000000E+00 -0.00000000000E+00 -0.74505805969E-08  0.93827000000E+00  0.93827000000E+00 0. -1.
     999902    2    1    2    0    0 -0.39237421618E-02 -0.13887437188E-01  0.17717853774E-01  0.10210787636E+01  0.10208230319E+01 0.  0.
         14    1    1    2    0    0  0.39237421618E-02  0.13887437188E-01 -0.17717853774E-01  0.22851236434E-01  0.00000000000E+00 0. -1.
     999901    1    3    3    0    0  0.51529729226E-01  0.71803703881E-01  0.80153294934E-01  0.88805159511E+00  0.88000000000E+00 0. -1.
        -11    1    3    3    0    0 -0.23990096771E-01 -0.80600765555E-02 -0.38199587457E-01  0.45825311566E-01  0.51100000000E-03 0. -1.
         11    1    3    3    0    0 -0.31463374616E-01 -0.77631064514E-01 -0.24235853703E-01  0.87201856892E-01  0.51100000000E-03 0.  1.
</event>
<event>
 8    1  0.1070112E+005  0.1043930E+01  0.7957747E-01            NaN
         13   -1    0    0    0    0  0.00000000000E+00  0.00000000000E+00  0.74505805969E-08  0.10566000000E+00  0.10566000000E+00 0.  1.
     999900   -1    0    0    0    0 -0.00000000000E+00 -0.00000000000E+00 -0.74505805969E-08  0.93827000000E+00  0.93827000000E+00 0.  1.
     999902    2    1    2    0    0 -0.10927156942E-01 -0.18922215156E-01  0.59638551393E-02  0.10212800430E+01  0.10210288466E+01 0.  0.
     999903    2    3    3    0    0 -0.10887279233E+00 -0.63038281639E-01 -0.31711139744E-01  0.13394753480E+00  0.33305192298E-01 0.  0.
         14    1    1    2    0    0  0.10927156942E-01  0.18922215156E-01 -0.59638551393E-02  0.22649957028E-01  0.00000000000E+00 0. -1.
     999901    1    3    3    0    0  0.97945635389E-01  0.44116066483E-01  0.37674994884E-01  0.88733250817E+00  0.88000000000E+00 0.  1.
        -11    1    4    4    0    0 -0.26058959158E-02 -0.10114780176E-01  0.17539095110E-02  0.10603621603E-01  0.51100000000E-03 0. -1.
         11    1    4    4    0    0 -0.10626689642E+00 -0.52923501463E-01 -0.33465049255E-01  0.12334391320E+00  0.51100000000E-03 0.  1.
</event>
<event>
 8    1  0.1070112E+005  0.1043930E+01  0.7957747E-01            NaN
         13   -1    0    0    0    0  0.00000000000E+00  0.00000000000E+00  0.74505805969E-08  0.10566000000E+00  0.10566000000E+00 0. -1.
     999900   -1    0    0    0    0 -0.00000000000E+00 -0.00000000000E+00 -0.74505805969E-08  0.93827000000E+00  0.93827000000E+00 0. -1.
     999902    2    1    2    0    0  0.20478537750E-01  0.10489807994E-01 -0.46818271482E-02  0.10204496660E+01  0.10201794914E+01 0.  0.
     999903    2    3    3    0    0 -0.70189107320E-02 -0.31196214939E-01  0.12403616271E+00  0.12968473903E+00  0.20265560515E-01 0.  0.
         14    1    1    2    0    0 -0.20478537750E-01 -0.10489807994E-01  0.46818271482E-02  0.23480334018E-01  0.00000000000E+00 0. -1.
     999901    1    3    3    0    0  0.27497448482E-01  0.41686022934E-01 -0.12871798986E+00  0.89076492696E+00  0.88000000000E+00 0. -1.
        -11    1    4    4    0    0  0.51794653782E-02 -0.21876605998E-01  0.75180754175E-01  0.78471776270E-01  0.51100000000E-03 0.  1.
         11    1    4    4    0    0 -0.12198376110E-01 -0.93196089412E-02  0.48855408531E-01  0.51212962757E-01  0.51100000000E-03 0. -1.
</event>
<event>
 8    1  0.1070112E+005  0.1043930E+01  0.7957747E-01            NaN
         13   -1    0    0    0    0  0.00000000000E+00  0.00000000000E+00  0.74505805969E-08  0.10566000000E+00  0.10566000000E+00 0. -1.
     999900   -1    0    0    0    0 -0.00000000000E+00 -0.00000000000E+00 -0.74505805969E-08  0.93827000000E+00  0.93827000000E+00 0.  1.
     999902    2    1    2    0    0 -0.20714999858E-01 -0.11817874929E-01  0.33807614745E-03  0.10200786335E+01  0.10197997504E+01 0.  0.
     999903    2    3    3    0    0 -0.10796863623E+00 -0.17707254735E-01 -0.72541196504E-01  0.13274596185E+00  0.19710198271E-01 0.  0.
         14    1    1    2    0    0  0.20714999858E-01  0.11817874929E-01 -0.33807614745E-03  0.23851366469E-01  0.00000000000E+00 0.  1.
     999901    1    3    3    0    0  0.87253636376E-01  0.58893798066E-02  0.72879272652E-01  0.88733267168E+00  0.88000000000E+00 0. -1.
        -11    1    4    4    0    0 -0.21840817333E-01 -0.18402670357E-02 -0.24419471317E-01  0.32817367124E-01  0.51100000000E-03 0. -1.
         11    1    4    4    0    0 -0.86127818901E-01 -0.15866987700E-01 -0.48121725187E-01  0.99928594723E-01  0.51100000000E-03 0.  1.
</event>
<event>
 8    1  0.1070112E+005  0.1043930E+01  0.7957747E-01            NaN
         13   -1    0    0    0    0  0.00000000000E+00  0.00000000000E+00  0.74505805969E-08  0.10566000000E+00  0.10566000000E+00 0.  1.
     999900   -1    0    0    0    0 -0.00000000000E+00 -0.00000000000E+00 -0.74505805969E-08  0.93827000000E+00  0.93827000000E+00 0.  1.
     999902    2    1    2    0    0  0.48295244382E-02 -0.23284831370E-01  0.35036011442E-02  0.10198928850E+01  0.10196095890E+01 0.  0.
     999903    2    3    3    0    0  0.83179045598E-01 -0.56046831814E-01  0.83725272559E-01  0.13217248264E+00  0.19991070992E-01 0.  0.
         14    1    1    2    0    0 -0.48295244382E-02  0.23284831370E-01 -0.35036011442E-02  0.24037115035E-01  0.00000000000E+00 0. -1.
     999901    1    3    3    0    0 -0.78349521160E-01  0.32762000444E-01 -0.80221671415E-01  0.88772040232E+00  0.88000000000E+00 0.  1.
        -11    1    4    4    0    0  0.29707574593E-01 -0.27455667195E-01  0.23884717256E-01  0.46979724230E-01  0.51100000000E-03 0. -1.
         11    1    4    4    0    0  0.53471471004E-01 -0.28591164619E-01  0.59840555302E-01  0.85192758410E-01  0.51100000000E-03 0.  1.
</event>
<event>
 8    1  0.1070112E+005  0.1043930E+01  0.7957747E-01            NaN
         13   -1    0    0    0    0  0.00000000000E+00  0.00000000000E+00  0.74505805969E-08  0.10566000000E+00  0.10566000000E+00 0. -1.
     999900   -1    0    0    0    0 -0.00000000000E+00 -0.00000000000E+00 -0.74505805969E-08  0.93827000000E+00  0.93827000000E+00 0. -1.
     999902    2    1    2    0    0 -0.17821225755E-01  0.10940725339E-01  0.15684901533E-01  0.10177897687E+01  0.10174540292E+01 0.  0.
     999903    2    3    3    0    0  0.38287085174E-01  0.10587946950E+00  0.57673176457E-01  0.12991335669E+00  0.29579080637E-01 0.  0.
         14    1    1    2    0    0  0.17821225755E-01 -0.10940725339E-01 -0.15684901533E-01  0.26140231339E-01  0.00000000000E+00 0.  1.
     999901    1    3    3    0    0 -0.56108310929E-01 -0.94938744163E-01 -0.41988274925E-01  0.88787641197E+00  0.88000000000E+00 0.  1.
        -11    1    4    4    0    0  0.74811090969E-02  0.26900339527E-01  0.10097377874E-02  0.27944157732E-01  0.51100000000E-03 0. -1.
         11    1    4    4    0    0  0.30805976077E-01  0.78979129975E-01  0.56663438670E-01  0.10196919896E+00  0.51100000000E-03 0.  1.
</event>
<event>
 8    1  0.1070112E+005  0.1043930E+01  0.7957747E-01            NaN
         13   -1    0    0    0    0  0.00000000000E+00  0.00000000000E+00  0.74505805969E-08  0.10566000000E+00  0.10566000000E+00 0.  1.
     999900   -1    0    0    0    0 -0.00000000000E+00 -0.00000000000E+00 -0.74505805969E-08  0.93827000000E+00  0.93827000000E+00 0. -1.
     999902    2    1    2    0    0  0.93687662515E-03 -0.19265162503E-01  0.14071560165E-01  0.10200546355E+01  0.10197751842E+01 0.  0.
     999903    2    3    3    0    0  0.12122414891E+00 -0.66675281482E-02  0.45606550808E-01  0.13122271445E+00  0.19992325986E-01 0.  0.
         14    1    1    2    0    0 -0.93687662515E-03  0.19265162503E-01 -0.14071560165E-01  0.23875364490E-01  0.00000000000E+00 0. -1.
     999901    1    3    3    0    0 -0.12028727229E+00 -0.12597634354E-01 -0.31534990644E-01  0.88883192106E+00  0.88000000000E+00 0. -1.
        -11    1    4    4    0    0  0.55804661139E-01  0.48175429677E-02  0.27364099552E-01  0.62341190159E-01  0.51100000000E-03 0. -1.
         11    1    4    4    0    0  0.65419487776E-01 -0.11485071116E-01  0.18242451256E-01  0.68881524288E-01  0.51100000000E-03 0.  1.
</event>
<event>
 8    1  0.1070112E+005  0.1043930E+01  0.7957747E-01            NaN
         13   -1    0    0    0    0  0.00000000000E+00  0.00000000000E+00  0.74505805969E-08  0.10566000000E+00  0.10566000000E+00 0.  1.
     999900   -1    0    0    0    0 -0.00000000000E+00 -0.00000000000E+00 -0.74505805969E-08  0.93827000000E+00  0.93827000000E+00 0. -1.
     999902    2    1    2    0    0 -0.18027490982E-01  0.13507165342E-01  0.60247079048E-02  0.10206119587E+01  0.10203455489E+01 0.  0.
     999903    2    3    3    0    0 -0.33123694921E-01 -0.94656217966E-01  0.81279966924E-01  0.13067344007E+00  0.20301136688E-01 0.  0.
         14    1    1    2    0    0  0.18027490982E-01 -0.13507165342E-01 -0.60247079048E-02  0.23318041342E-01  0.00000000000E+00 0.  1.
     999901    1    3    3    0    0  0.15096203939E-01  0.10816338331E+00 -0.75255259019E-01  0.88993851859E+00  0.88000000000E+00 0.  1.
        -11    1    4    4    0    0 -0.14167696068E-01 -0.16216304494E-01  0.15058071043E-01  0.26281148526E-01  0.51100000000E-03 0. -1.
         11    1    4    4    0    0 -0.18955998853E-01 -0.78439913472E-01  0.66221895881E-01  0.10439229154E+00  0.51100000000E-03 0.  1.
</event>
<event>
 8    1  0.1070112E+005  0.1043930E+01  0.7957747E-01            NaN
         13   -1    0    0    0    0  0.00000000000E+00  0.00000000000E+00  0.74505805969E-08  0.10566000000E+00  0.10566000000E+00 0.  1.
     999900   -1    0    0    0    0 -0.00000000000E+00 -0.00000000000E+00 -0.74505805969E-08  0.93827000000E+00  0.93827000000E+00 0.  1.
     999902    2    1    2    0    0  0.50951429214E-02  0.18298915834E-01 -0.15042789639E-01  0.10196999294E+01  0.10194120117E+01 0.  0.
     999903    2    3    3    0    0 -0.34987879493E-01 -0.67671191748E-01 -0.10369401107E+00  0.13017390551E+00  0.19729567633E-01 0.  0.
         14    1    1    2    0    0 -0.50951429214E-02 -0.18298915834E-01  0.15042789639E-01  0.24230070620E-01  0.00000000000E+00 0. -1.
     999901    1    3    3    0    0  0.40083022414E-01  0.85970107583E-01  0.88651221433E-01  0.88952602387E+00  0.88000000000E+00 0.  1.
        -11    1    4    4    0    0 -0.18715329299E-01 -0.40879179724E-01 -0.76193645793E-01  0.88470919888E-01  0.51100000000E-03 0. -1.
         11    1    4    4    0    0 -0.16272550194E-01 -0.26792012024E-01 -0.27500365280E-01  0.41702985620E-01  0.51100000000E-03 0.  1.
</event>
<event>
 8    1  0.1070112E+005  0.1043930E+01  0.7957747E-01            NaN
         13   -1    0    0    0    0  0.00000000000E+00  0.00000000000E+00  0.74505805969E-08  0.10566000000E+00  0.10566000000E+00 0. -1.
     999900   -1    0    0    0    0 -0.00000000000E+00 -0.00000000000E+00 -0.74505805969E-08  0.93827000000E+00  0.93827000000E+00 0.  1.
     999902    2    1    2    0    0  0.16033653363E-01 -0.16172606978E-01 -0.60861229055E-02  0.10203573008E+01  0.10200849715E+01 0.  0.
     999903    2    3    3    0    0 -0.12762548205E+00 -0.97350783527E-02 -0.78295881369E-03  0.12866928779E+00  0.13120105745E-01 0.  0.
         14    1    1    2    0    0 -0.16033653363E-01  0.16172606978E-01  0.60861229055E-02  0.23572699223E-01  0.00000000000E+00 0. -1.
     999901    1    3    3    0    0  0.14365913542E+00 -0.64375286255E-02 -0.53031640918E-02  0.89168801299E+00  0.88000000000E+00 0.  1.
        -11    1    4    4    0    0 -0.14616746789E-01 -0.50944980739E-02 -0.15180108641E-02  0.15561769671E-01  0.51100000000E-03 0.  1.
         11    1    4    4    0    0 -0.11300873526E+00 -0.46405802788E-02  0.73505205038E-03  0.11310751811E+00  0.51100000000E-03 0. -1.
</event>
<event>
 8    1  0.1070112E+005  0.1043930E+01  0.7957747E-01            NaN
         13   -1    0    0    0    0  0.00000000000E+00  0.00000000000E+00  0.74505805969E-08  0.10566000000E+00  0.10566000000E+00 0.  1.
     999900   -1    0    0    0    0 -0.00000000000E+00 -0.00000000000E+00 -0.74505805969E-08  0.93827000000E+00  0.93827000000E+00 0. -1.
     999902    2    1    2    0    0  0.12063492240E-02 -0.24340580781E-01 -0.10610439459E-02  0.10195364565E+01  0.10192445934E+01 0.  0.
     999903    2    3    3    0    0  0.34214073384E-01  0.10770844850E+00  0.55292274840E-01  0.12729088909E+00  0.19339650765E-01 0.  0.
         14    1    1    2    0    0 -0.12063492240E-02  0.24340580781E-01  0.10610439459E-02  0.24393543520E-01  0.00000000000E+00 0.  1.
     999901    1    3    3    0    0 -0.33007724160E-01 -0.13204902928E+00 -0.56353318786E-01  0.89224556739E+00  0.88000000000E+00 0.  1.
        -11    1    4    4    0    0  0.22313006236E-01  0.58110383309E-01  0.40181877414E-01  0.74091371219E-01  0.51100000000E-03 0.  1.
         11    1    4    4    0    0  0.11901067149E-01  0.49598065194E-01  0.15110397426E-01  0.53199517870E-01  0.51100000000E-03 0. -1.
</event>
<event>
 8    1  0.1070112E+005  0.1043930E+01  0.7957747E-01            NaN
         13   -1    0    0    0    0  0.00000000000E+00  0.00000000000E+00  0.74505805969E-08  0.10566000000E+00  0.10566000000E+00 0.  1.
     999900   -1    0    0    0    0 -0.00000000000E+00 -0.00000000000E+00 -0.74505805969E-08  0.93827000000E+00  0.93827000000E+00 0. -1.
     999902    2    1    2    0    0 -0.81140640606E-02  0.23942364334E-01 -0.15562320088E-02  0.10186022148E+01  0.10182872754E+01 0.  0.
     999903    2    3    3    0    0 -0.71936561444E-01 -0.83287128192E-01  0.61999075214E-01  0.12752940502E+00  0.17557027725E-01 0.  0.
         14    1    1    2    0    0  0.81140640606E-02 -0.23942364334E-01  0.15562320088E-02  0.25327785208E-01  0.00000000000E+00 0.  1.
     999901    1    3    3    0    0  0.63822497384E-01  0.10722949253E+00 -0.63555307222E-01  0.89107280977E+00  0.88000000000E+00 0.  1.
        -11    1    4    4    0    0 -0.27797934175E-01 -0.22328980798E-01  0.14265904777E-01  0.38406844285E-01  0.51100000000E-03 0.  1.
         11    1    4    4    0    0 -0.44138627269E-01 -0.60958147394E-01  0.47733170437E-01  0.89122560734E-01  0.51100000000E-03 0. -1.
</event>
<event>
 8    1  0.1070112E+005  0.1043930E+01  0.7957747E-01            NaN
         13   -1    0    0    0    0  0.00000000000E+00  0.00000000000E+00  0.74505805969E-08  0.10566000000E+00  0.10566000000E+00 0.  1.
     999900   -1    0    0    0    0 -0.00000000000E+00 -0.00000000000E+00 -0.74505805969E-08  0.93827000000E+00  0.93827000000E+00 0.  1.
     999902    2    1    2    0    0  0.15611554768E-01 -0.67999576341E-02  0.16484345824E-01  0.10202299214E+01  0.10199546063E+01 0.  0.
     999903    2    3    3    0    0 -0.12369677576E+00 -0.14094306254E-01  0.29497729633E-01  0.12914666684E+00  0.17584188942E-01 0.  0.
         14    1    1    2    0    0 -0.15611554768E-01  0.67999576341E-02 -0.16484345824E-01  0.23700078552E-01  0.00000000000E+00 0. -1.
     999901    1    3    3    0    0  0.13930833053E+00  0.72943486200E-02 -0.13013383809E-01  0.89108325460E+00  0.88000000000E+00 0.  1.
        -11    1    4    4    0    0 -0.88560351584E-01 -0.72508691189E-02  0.13282816754E-01  0.89845452403E-01  0.51100000000E-03 0.  1.
         11    1    4    4    0    0 -0.35136424179E-01 -0.68434371353E-02  0.16214912879E-01  0.39301214442E-01  0.51100000000E-03 0. -1.
</event>
<event>
 8    1  0.1070112E+005  0.1043930E+01  0.7957747E-01            NaN
         13   -1    0    0    0    0  0.00000000000E+00  0.00000000000E+00  0.74505805969E-08  0.10566000000E+00  0.10566000000E+00 0.  1.
     999900   -1    0    0    0    0 -0.00000000000E+00 -0.00000000000E+00 -0.74505805969E-08  0.93827000000E+00  0.93827000000E+00 0. -1.
     999902    2    1    2    0    0  0.14099586816E-02 -0.20070613188E-01  0.93599144773E-02  0.10217393376E+01  0.10214983351E+01 0.  0.
     999903    2    3    3    0    0  0.12619774978E+00  0.10155321096E-01  0.31504912802E-01  0.13214617171E+00  0.21001156392E-01 0.  0.
         14    1    1    2    0    0 -0.14099586816E-02  0.20070613188E-01 -0.93599144773E-02  0.22190662366E-01  0.00000000000E+00 0.  1.
     999901    1    3    3    0    0 -0.12478779110E+00 -0.30225934284E-01 -0.22144998325E-01  0.88959316593E+00  0.88000000000E+00 0.  1.
        -11    1    4    4    0    0  0.58288175064E-01 -0.43116095911E-02  0.19921168721E-01  0.61751238156E-01  0.51100000000E-03 0.  1.
         11    1    4    4    0    0  0.67909574717E-01  0.14466930687E-01  0.11583744080E-01  0.70394933552E-01  0.51100000000E-03 0. -1.
</event>
<event>
 8    1  0.1070112E+005  0.1043930E+01  0.7957747E-01            NaN
         13   -1    0    0    0    0  0.00000000000E+00  0.00000000000E+00  0.74505805969E-08  0.10566000000E+00  0.10566000000E+00 0. -1.
     999900   -1    0    0    0    0 -0.00000000000E+00 -0.00000000000E+00 -0.74505805969E-08  0.93827000000E+00  0.93827000000E+00 0.  1.
     999902    2    1    2    0    0 -0.21379846199E-01 -0.72024258859E-02  0.17719154729E-02  0.10213000984E+01  0.10210493517E+01 0.  0.
     999903    2    3    3    0    0 -0.53611714969E-01  0.97631169827E-01 -0.67333024364E-01  0.13180334806E+00  0.20792428560E-01 0.  0.
         14    1    1    2    0    0  0.21379846199E-01  0.72024258859E-02 -0.17719154729E-02  0.22629901603E-01  0.00000000000E+00 0. -1.
     999901    1    3    3    0    0  0.32231868770E-01 -0.10483359571E+00  0.69104939837E-01  0.88949675034E+00  0.88000000000E+00 0. -1.
        -11    1    4    4    0    0 -0.19457053240E-01  0.56393661389E-01 -0.32701820569E-01  0.68033022534E-01  0.51100000000E-03 0. -1.
         11    1    4    4    0    0 -0.34154661729E-01  0.41237508438E-01 -0.34631203795E-01  0.63770325523E-01  0.51100000000E-03 0.  1.
</event>
<event>
 8    1  0.1070112E+005  0.1043930E+01  0.7957747E-01            NaN
         13   -1    0    0    0    0  0.00000000000E+00  0.00000000000E+00  0.74505805969E-08  0.10566000000E+00  0.10566000000E+00 0.  1.
     999900   -1    0    0    0    0 -0.00000000000E+00 -0.00000000000E+00 -0.74505805969E-08  0.93827000000E+00  0.93827000000E+00 0. -1.
     999902    2    1    2    0    0  0.19105343867E-01 -0.87821763607E-02  0.12450985024E-01  0.10194929827E+01  0.10192000657E+01 0.  0.
     999903    2    3    3    0    0  0.11231719620E+00 -0.57943923561E-01 -0.32469926493E-01  0.13206793512E+00  0.20371365185E-01 0.  0.
         14    1    1    2    0    0 -0.19105343867E-01  0.87821763607E-02 -0.12450985024E-01  0.24437017289E-01  0.00000000000E+00 0.  1.
     999901    1    3    3    0    0 -0.93211852336E-01  0.49161747201E-01  0.44920911517E-01  0.88742504759E+00  0.88000000000E+00 0.  1.
        -11    1    4    4    0    0  0.10592697269E+00 -0.53290690441E-01 -0.35195456641E-01  0.12369075358E+00  0.51100000000E-03 0.  1.
         11    1    4    4    0    0  0.63902235131E-02 -0.46532331203E-02  0.27255301482E-02  0.83771815432E-02  0.51100000000E-03 0. -1.
</event>
<event>
 8    1  0.1070112E+005  0.1043930E+01  0.7957747E-01            NaN
         13   -1    0    0    0    0  0.00000000000E+00  0.00000000000E+00  0.74505805969E-08  0.10566000000E+00  0.10566000000E+00 0. -1.
     999900   -1    0    0    0    0 -0.00000000000E+00 -0.00000000000E+00 -0.74505805969E-08  0.93827000000E+00  0.93827000000E+00 0.  1.
     999902    2    1    2    0    0  0.66329289244E-02 -0.11697821967E-01 -0.18824519869E-01  0.10207956677E+01  0.10205334868E+01 0.  0.
     999903    2    3    3    0    0  0.35549853389E-01  0.11003210644E+00 -0.58704822927E-01  0.13105143330E+00  0.18904110952E-01 0.  0.
         14    1    1    2    0    0 -0.66329289244E-02  0.11697821967E-01  0.18824519869E-01  0.23134332348E-01  0.00000000000E+00 0. -1.
     999901    1    3    3    0    0 -0.28916924465E-01 -0.12172992841E+00  0.39880303058E-01  0.88974423435E+00  0.88000000000E+00 0. -1.
        -11    1    4    4    0    0  0.21724528113E-01  0.75018481581E-01 -0.29828256726E-01  0.83604507778E-01  0.51100000000E-03 0. -1.
         11    1    4    4    0    0  0.13825325276E-01  0.35013624862E-01 -0.28876566201E-01  0.47446925522E-01  0.51100000000E-03 0.  1.
</event>
<event>
 8    1  0.1070112E+005  0.1043930E+01  0.7957747E-01            NaN
         13   -1    0    0    0    0  0.00000000000E+00  0.00000000000E+00  0.74505805969E-08  0.10566000000E+00  0.10566000000E+00 0.  1.
     999900   -1    0    0    0    0 -0.00000000000E+00 -0.00000000000E+00 -0.74505805969E-08  0.93827000000E+00  0.93827000000E+00 0.  1.
     999902    2    1    2    0    0  0.71511205587E-02 -0.58298132696E-02  0.21296270622E-01  0.10207210278E+01  0.10204571330E+01 0.  0.
     999903    2    3    3    0    0  0.64964789570E-01  0.11016009165E+00  0.21243612957E-01  0.13122899235E+00  0.20349144102E-01 0.  0.
         14    1    1    2    0    0 -0.71511205587E-02  0.58298132696E-02 -0.21296270622E-01  0.23208972196E-01  0.00000000000E+00 0. -1.
     999901    1    3    3    0    0 -0.57813669011E-01 -0.11598990492E+00  0.52657665366E-04  0.88949203546E+00  0.88000000000E+00 0.  1.
        -11    1    4    4    0    0  0.27395357087E-01  0.31451435911E-01  0.11562929987E-02  0.41728845482E-01  0.51100000000E-03 0.  1.
         11    1    4    4    0    0  0.37569432483E-01  0.78708655736E-01  0.20087319958E-01  0.89500146865E-01  0.51100000000E-03 0. -1.
</event>
<event>
 8    1  0.1070112E+005  0.1043930E+01  0.7957747E-01            NaN
         13   -1    0    0    0    0  0.00000000000E+00  0.00000000000E+00  0.74505805969E-08  0.10566000000E+00  0.10566000000E+00 0. -1.
     999900   -1    0    0    0    0 -0.00000000000E+00 -0.00000000000E+00 -0.74505805969E-08  0.93827000000E+00  0.93827000000E+00 0.  1.
     999902    2    1    2    0    0 -0.17333910411E-01 -0.16616947685E-01  0.10552041808E-01  0.10177015234E+01  0.10173634836E+01 0.  0.
     999903    2    3    3    0    0 -0.49244575615E-01 -0.67078365345E-01  0.99646413401E-01  0.13119012903E+00  0.18891980493E-01 0.  0.
         14    1    1    2    0    0  0.17333910411E-01  0.16616947685E-01 -0.10552041808E-01  0.26228476639E-01  0.00000000000E+00 0.  1.
     999901    1    3    3    0    0  0.31910665204E-01  0.50461417660E-01 -0.89094371593E-01  0.88651139433E+00  0.88000000000E+00 0.  1.
        -11    1    4    4    0    0 -0.43671456176E-01 -0.55770162196E-01  0.93073442814E-01  0.11696338724E+00  0.51100000000E-03 0.  1.
         11    1    4    4    0    0 -0.55731194388E-02 -0.11308203149E-01  0.65729705864E-02  0.14226741794E-01  0.51100000000E-03 0. -1.
</event>
<event>
 8    1  0.1070112E+005  0.1043930E+01  0.7957747E-01            NaN
         13   -1    0    0    0    0  0.00000000000E+00  0.00000000000E+00  0.74505805969E-08  0.10566000000E+00  0.10566000000E+00 0.  1.
     999900   -1    0    0    0    0 -0.00000000000E+00 -0.00000000000E+00 -0.74505805969E-08  0.93827000000E+00  0.93827000000E+00 0. -1.
     999902    2    1    2    0    0  0.53369854649E-02  0.29625100723E-02  0.21496019559E-01  0.10215841114E+01  0.10213396878E+01 0.  0.
     999903    2    3    3    0    0 -0.11458637669E+00  0.90119067840E-02  0.62769899963E-01  0.13247121577E+00  0.19932648614E-01 0.  0.
         14    1    1    2    0    0 -0.53369854649E-02 -0.29625100723E-02 -0.21496019559E-01  0.22345888585E-01  0.00000000000E+00 0. -1.
     999901    1    3    3    0    0  0.11992336215E+00 -0.60493967117E-02 -0.41273880404E-01  0.88911289564E+00  0.88000000000E+00 0. -1.
        -11    1    4    4    0    0 -0.85311125642E-01  0.15308642219E-01  0.47983842325E-01  0.99070948972E-01  0.51100000000E-03 0.  1.
         11    1    4    4    0    0 -0.29275251047E-01 -0.62967354352E-02  0.14786057637E-01  0.33400266802E-01  0.51100000000E-03 0. -1.
</event>
<event>
 8    1  0.1070112E+005  0.1043930E+01  0.7957747E-01            NaN
         13   -1    0    0    0    0  0.00000000000E+00  0.00000000000E+00  0.74505805969E-08  0.10566000000E+00  0.10566000000E+00 0.  1.
     999900   -1    0    0    0    0 -0.00000000000E+00 -0.00000000000E+00 -0.74505805969E-08  0.93827000000E+00  0.93827000000E+00 0. -1.
     999902    2    1    2    0    0  0.76764302982E-02 -0.22503206355E-01 -0.50146537040E-02  0.10196304397E+01  0.10193408483E+01 0.  0.
     999903    2    3    3    0    0  0.27643572349E-01  0.11775044735E+00  0.34512910886E-01  0.12742407205E+00  0.20406326870E-01 0.  0.
         14    1    1    2    0    0 -0.76764302982E-02  0.22503206355E-01  0.50146537040E-02  0.24299560287E-01  0.00000000000E+00 0.  1.
     999901    1    3    3    0    0 -0.19967142051E-01 -0.14025365370E+00 -0.39527564590E-01  0.89220636766E+00  0.88000000000E+00 0.  1.
        -11    1    4    4    0    0  0.21625223206E-01  0.10144017046E+00  0.36415173836E-01  0.10992763287E+00  0.51100000000E-03 0. -1.
         11    1    4    4    0    0  0.60183491432E-02  0.16310276888E-01 -0.19022629506E-02  0.17496439178E-01  0.51100000000E-03 0.  1.
</event>
<event>
 8    1  0.1070112E+005  0.1043930E+01  0.7957747E-01            NaN
         13   -1    0    0    0    0  0.00000000000E+00  0.00000000000E+00  0.74505805969E-08  0.10566000000E+00  0.10566000000E+00 0.  1.
     999900   -1    0    0    0    0 -0.00000000000E+00 -0.00000000000E+00 -0.74505805969E-08  0.93827000000E+00  0.93827000000E+00 0. -1.
     999902    2    1    2    0    0 -0.12766493573E-02  0.19154675695E-01  0.11048695775E-01  0.10217803925E+01  0.10215402906E+01 0.  0.
     999903    2    3    3    0    0 -0.11700217213E+00  0.56633540119E-01 -0.18600080088E-01  0.13291813555E+00  0.20601010371E-01 0.  0.
         14    1    1    2    0    0  0.12766493573E-02 -0.19154675695E-01 -0.11048695775E-01  0.22149607511E-01  0.00000000000E+00 0. -1.
     999901    1    3    3    0    0  0.11572552278E+00 -0.37478864424E-01  0.29648775863E-01  0.88886225694E+00  0.88000000000E+00 0. -1.
        -11    1    4    4    0    0 -0.46388914435E-01  0.33234243072E-01 -0.11239800575E-01  0.58163910915E-01  0.51100000000E-03 0. -1.
         11    1    4    4    0    0 -0.70613257700E-01  0.23399297047E-01 -0.73602795124E-02  0.74754224635E-01  0.51100000000E-03 0.  1.
</event>
<event>
 8    1  0.1070112E+005  0.1043930E+01  0.7957747E-01            NaN
         13   -1    0    0    0    0  0.00000000000E+00  0.00000000000E+00  0.74505805969E-08  0.10566000000E+00  0.10566000000E+00 0. -1.
     999900   -1    0    0    0    0 -0.00000000000E+00 -0.00000000000E+00 -0.74505805969E-08  0.93827000000E+00  0.93827000000E+00 0.  1.
     999902    2    1    2    0    0 -0.19038784111E-01 -0.45164873675E-02 -0.16789805736E-01  0.10181468362E+01  0.10178203223E+01 0.  0.
     999903    2    3    3    0    0  0.35824186233E-01 -0.10812803533E+00 -0.58516468795E-01  0.12939129457E+00  0.18517171632E-01 0.  0.
         14    1    1    2    0    0  0.19038784111E-01  0.45164873675E-02  0.16789805736E-01  0.25783163793E-01  0.00000000000E+00 0. -1.
     999901    1    3    3    0    0 -0.54862970344E-01  0.10361154796E+00  0.41726663059E-01  0.88875554164E+00  0.88000000000E+00 0. -1.
        -11    1    4    4    0    0  0.18322131467E-01 -0.36572050044E-01 -0.13594298953E-01  0.43107788519E-01  0.51100000000E-03 0.  1.
         11    1    4    4    0    0  0.17502054766E-01 -0.71555985288E-01 -0.44922169842E-01  0.86283506048E-01  0.51100000000E-03 0. -1.
</event>
<event>
 8    1  0.1070112E+005  0.1043930E+01  0.7957747E-01            NaN
         13   -1    0    0    0    0  0.00000000000E+00  0.00000000000E+00  0.74505805969E-08  0.10566000000E+00  0.10566000000E+00 0.  1.
     999900   -1    0    0    0    0 -0.00000000000E+00 -0.00000000000E+00 -0.74505805969E-08  0.93827000000E+00  0.93827000000E+00 0. -1.
     999902    2    1    2    0    0 -0.63329121957E-02  0.34271073589E-02 -0.22771558906E-01  0.10200470618E+01  0.10197674311E+01 0.  0.
     999903    2    3    3    0    0  0.77733645786E-01 -0.96744162622E-01  0.28225425662E-01  0.12892296162E+00  0.20554870231E-01 0.  0.
         14    1    1    2    0    0  0.63329121957E-02 -0.34271073589E-02  0.22771558906E-01  0.23882938193E-01  0.00000000000E+00 0.  1.
     999901    1    3    3    0    0 -0.84066557981E-01  0.10017126998E+00 -0.50996984568E-01  0.89112410019E+00  0.88000000000E+00 0. -1.
        -11    1    4    4    0    0  0.46415606867E-01 -0.52402895299E-01  0.25707578870E-01  0.74576220935E-01  0.51100000000E-03 0.  1.
         11    1    4    4    0    0  0.31318038919E-01 -0.44341267323E-01  0.25178467919E-02  0.54346740684E-01  0.51100000000E-03 0. -1.
</event>
<event>
 8    1  0.1070112E+005  0.1043930E+01  0.7957747E-01            NaN
         13   -1    0    0    0    0  0.00000000000E+00  0.00000000000E+00  0.74505805969E-08  0.10566000000E+00  0.10566000000E+00 0. -1.
     999900   -1    0    0    0    0 -0.00000000000E+00 -0.00000000000E+00 -0.74505805969E-08  0.93827000000E+00  0.93827000000E+00 0.  1.
     999902    2    1    2    0    0 -0.12380420549E-01  0.14282481532E-01  0.15230088283E-01  0.10196561523E+01  0.10193671808E+01 0.  0.
     999903    2    3    3    0    0 -0.25916896045E-01 -0.11224692665E+00  0.52513170162E-01  0.12972191010E+00  0.28268053974E-01 0.  0.
         14    1    1    2    0    0  0.12380420549E-01 -0.14282481532E-01 -0.15230088283E-01  0.24273847672E-01  0.00000000000E+00 0.  1.
     999901    1    3    3    0    0  0.13536475496E-01  0.12652940818E+00 -0.37283081878E-01  0.88993424223E+00  0.88000000000E+00 0. -1.
        -11    1    4    4    0    0 -0.26523970444E-01 -0.59457918469E-01  0.36037351401E-01  0.74415837654E-01  0.51100000000E-03 0. -1.
         11    1    4    4    0    0  0.60707439917E-03 -0.52789008181E-01  0.16475818760E-01  0.55306072441E-01  0.51100000000E-03 0.  1.
</event>
<event>
 8    1  0.1070112E+005  0.1043930E+01  0.7957747E-01            NaN
         13   -1    0    0    0    0  0.00000000000E+00  0.00000000000E+00  0.74505805969E-08  0.10566000000E+00  0.10566000000E+00 0.  1.
     999900   -1    0    0    0    0 -0.00000000000E+00 -0.00000000000E+00 -0.74505805969E-08  0.93827000000E+00  0.93827000000E+00 0. -1.
     999902    2    1    2    0    0 -0.12776953981E-01  0.11396142940E-01 -0.16061579308E-01  0.10204545457E+01  0.10201844847E+01 0.  0.
     999903    2    3    3    0    0 -0.20590508872E-01  0.11475869857E+00 -0.61970208572E-01  0.13318205550E+00  0.17424844417E-01 0.  0.
         14    1    1    2    0    0  0.12776953981E-01 -0.11396142940E-01  0.16061579308E-01  0.23475454347E-01  0.00000000000E+00 0.  1.
     999901    1    3    3    0    0  0.78135548916E-02 -0.10336255563E+00  0.45908629264E-01  0.88727249016E+00  0.88000000000E+00 0.  1.
        -11    1    4    4    0    0 -0.18170239242E-01  0.59022819578E-01 -0.37573905971E-01  0.72290458264E-01  0.51100000000E-03 0.  1.
         11    1    4    4    0    0 -0.24202696304E-02  0.55735878991E-01 -0.24396302602E-01  0.60891597234E-01  0.51100000000E-03 0. -1.
</event>
<event>
 8    1  0.1070112E+005  0.1043930E+01  0.7957747E-01            NaN
         13   -1    0    0    0    0  0.00000000000E+00  0.00000000000E+00  0.74505805969E-08  0.10566000000E+00  0.10566000000E+00 0.  1.
     999900   -1    0    0    0    0 -0.00000000000E+00 -0.00000000000E+00 -0.74505805969E-08  0.93827000000E+00  0.93827000000E+00 0. -1.
     999902    2    1    2    0    0  0.81133590372E-03 -0.44329466275E-02 -0.23195688540E-01  0.10203005851E+01  0.10200269284E+01 0.  0.
     999903    2    3    3    0    0  0.87336192534E-01  0.47544581323E-01 -0.84942375138E-01  0.13238118136E+00  0.20529791647E-01 0.  0.
         14    1    1    2    0    0 -0.81133590372E-03  0.44329466275E-02  0.23195688540E-01  0.23629414901E-01  0.00000000000E+00 0.  1.
     999901    1    3    3    0    0 -0.86524856631E-01 -0.51977527951E-01  0.61746686598E-01  0.88791940374E+00  0.88000000000E+00 0.  1.
        -11    1    4    4    0    0  0.80513120150E-01  0.48613568659E-01 -0.82274169384E-01  0.12495976009E+00  0.51100000000E-03 0. -1.
         11    1    4    4    0    0  0.68230723839E-02 -0.10689873355E-02 -0.26682057543E-02  0.74214212673E-02  0.51100000000E-03 0.  1.
</event>
<event>
 8    1  0.1070112E+005  0.1043930E+01  0.7957747E-01            NaN
         13   -1    0    0    0    0  0.00000000000E+00  0.00000000000E+00  0.74505805969E-08  0.10566000000E+00  0.10566000000E+00 0. -1.
     999900   -1    0    0    0    0 -0.00000000000E+00 -0.00000000000E+00 -0.74505805969E-08  0.93827000000E+00  0.93827000000E+00 0. -1.
     999902    2    1    2    0    0  0.13718907056E-01  0.14551244495E-01 -0.11350804764E-01  0.10209346114E+01  0.10206756061E+01 0.  0.
     999903    2    3    3    0    0 -0.28339755094E-01  0.12784559335E+00 -0.80574170502E-02  0.13266923050E+00  0.19712059606E-01 0.  0.
         14    1    1    2    0    0 -0.13718907056E-01 -0.14551244495E-01  0.11350804764E-01  0.22995388580E-01  0.00000000000E+00 0.  1.
     999901    1    3    3    0    0  0.42058662150E-01 -0.11329434885E+00 -0.32933877139E-02  0.88826538092E+00  0.88000000000E+00 0. -1.
        -11    1    4    4    0    0 -0.13257523265E-01  0.73083703344E-01 -0.13895780186E-01  0.75566814446E-01  0.51100000000E-03 0. -1.
         11    1    4    4    0    0 -0.15082231829E-01  0.54761890004E-01  0.58383631355E-02  0.57102416051E-01  0.51100000000E-03 0.  1.
</event>
<event>
 8    1  0.1070112E+005  0.1043930E+01  0.7957747E-01            NaN
         13   -1    0    0    0    0  0.00000000000E+00  0.00000000000E+00  0.74505805969E-08  0.10566000000E+00  0.10566000000E+00 0.  1.
     999900   -1    0    0    0    0 -0.00000000000E+00 -0.00000000000E+00 -0.74505805969E-08  0.93827000000E+00  0.93827000000E+00 0. -1.
     999902    2    1    2    0    0 -0.12059430992E-01 -0.13866114234E-01  0.23281432783E-01  0.10142698565E+01  0.10138360902E+01 0.  0.
     999903    2    3    3    0    0  0.81423599653E-01  0.89933051979E-01 -0.60005212820E-02  0.12277068278E+00  0.17857151919E-01 0.  0.
         14    1    1    2    0    0  0.12059430992E-01  0.13866114234E-01 -0.23281432783E-01  0.29660143496E-01  0.00000000000E+00 0. -1.
     999901    1    3    3    0    0 -0.93483030644E-01 -0.10379916621E+00  0.29281954065E-01  0.89149917373E+00  0.88000000000E+00 0. -1.
        -11    1    4    4    0    0  0.36912841746E-01  0.29372613920E-01 -0.64105376824E-02  0.47609499563E-01  0.51100000000E-03 0. -1.
         11    1    4    4    0    0  0.44510757907E-01  0.60560438060E-01  0.41001640042E-03  0.75161183212E-01  0.51100000000E-03 0.  1.
</event>
<event>
 8    1  0.1070112E+005  0.1043930E+01  0.7957747E-01            NaN
         13   -1    0    0    0    0  0.00000000000E+00  0.00000000000E+00  0.74505805969E-08  0.10566000000E+00  0.10566000000E+00 0. -1.
     999900   -1    0    0    0    0 -0.00000000000E+00 -0.00000000000E+00 -0.74505805969E-08  0.93827000000E+00  0.93827000000E+00 0.  1.
     999902    2    1    2    0    0  0.18946236965E-01 -0.13551677530E-01 -0.46095492159E-02  0.10201843519E+01  0.10199079645E+01 0.  0.
     999903    2    3    3    0    0 -0.11997950288E+00  0.38881681885E-01  0.50978292877E-02  0.12769129784E+00  0.19292832417E-01 0.  0.
         14    1    1    2    0    0 -0.18946236965E-01  0.13551677530E-01  0.46095492159E-02  0.23745648086E-01  0.00000000000E+00 0. -1.
     999901    1    3    3    0    0  0.13892573985E+00 -0.52433359416E-01 -0.97073785036E-02  0.89249305407E+00  0.88000000000E+00 0.  1.
        -11    1    4    4    0    0 -0.60136159195E-01  0.24352421687E-01  0.11065986566E-01  0.65818806313E-01  0.51100000000E-03 0.  1.
         11    1    4    4    0    0 -0.59843343688E-01  0.14529260199E-01 -0.59681572784E-02  0.61872491528E-01  0.51100000000E-03 0. -1.
</event>
<event>
 8    1  0.1070112E+005  0.1043930E+01  0.7957747E-01            NaN
         13   -1    0    0    0    0  0.00000000000E+00  0.00000000000E+00  0.74505805969E-08  0.10566000000E+00  0.10566000000E+00 0.  1.
     999900   -1    0    0    0    0 -0.00000000000E+00 -0.00000000000E+00 -0.74505805969E-08  0.93827000000E+00  0.93827000000E+00 0.  1.
     999902    2    1    2    0    0 -0.12860849109E-01  0.25681674640E-02 -0.18779266382E-01  0.10210245908E+01  0.10207676314E+01 0.  0.
     999903    2    3    3    0    0 -0.13139104380E+00 -0.77840911396E-02 -0.22826681701E-02  0.13286429331E+00  0.17986422618E-01 0.  0.
         14    1    1    2    0    0  0.12860849109E-01 -0.25681674640E-02  0.18779266382E-01  0.22905409181E-01  0.00000000000E+00 0.  1.
     999901    1    3    3    0    0  0.11853019469E+00  0.10352258604E-01 -0.16496598212E-01  0.88816029750E+00  0.88000000000E+00 0.  1.
        -11    1    4    4    0    0 -0.51192195902E-01  0.26089187038E-02 -0.75862779543E-02  0.51819495485E-01  0.51100000000E-03 0. -1.
         11    1    4    4    0    0 -0.80198847896E-01 -0.10393009843E-01  0.53036097841E-02  0.81044797829E-01  0.51100000000E-03 0.  1.
</event>
<event>
 8    1  0.1070112E+005  0.1043930E+01  0.7957747E-01            NaN
         13   -1    0    0    0    0  0.00000000000E+00  0.00000000000E+00  0.74505805969E-08  0.10566000000E+00  0.10566000000E+00 0.  1.
     999900   -1    0    0    0    0 -0.00000000000E+00 -0.00000000000E+00 -0.74505805969E-08  0.93827000000E+00  0.93827000000E+00 0.  1.
     999902    2    1    2    0    0 -0.17176648709E-01  0.98179227334E-02 -0.12115212533E-01  0.10207307060E+01  0.10204670337E+01 0.  0.
     999903    2    3    3    0    0 -0.90000489919E-01  0.96024390072E-01  0.81828476359E-02  0.13329232610E+00  0.19470837877E-01 0.  0.
         14    1    1    2    0    0  0.17176648709E-01 -0.98179227334E-02  0.12115212533E-01  0.23199294006E-01  0.00000000000E+00 0.  1.
     999901    1    3    3    0    0  0.72823841209E-01 -0.86206467339E-01 -0.20298060168E-01  0.88743837989E+00  0.88000000000E+00 0.  1.
        -11    1    4    4    0    0 -0.15215016183E-01  0.13498264072E-01  0.81575754365E-02  0.21920470077E-01  0.51100000000E-03 0.  1.
         11    1    4    4    0    0 -0.74785473736E-01  0.82526126000E-01  0.25272199351E-04  0.11137185602E+00  0.51100000000E-03 0. -1.
</event>
<event>
 8    1  0.1070112E+005  0.1043930E+01  0.7957747E-01            NaN
         13   -1    0    0    0    0  0.00000000000E+00  0.00000000000E+00  0.74505805969E-08  0.10566000000E+00  0.10566000000E+00 0. -1.
     999900   -1    0    0    0    0 -0.00000000000E+00 -0.00000000000E+00 -0.74505805969E-08  0.93827000000E+00  0.93827000000E+00 0.  1.
     999902    2    1    2    0    0 -0.16673742619E-01 -0.30042562484E-02  0.23837251934E-01  0.10146852769E+01  0.10142637514E+01 0.  0.
     999903    2    3    3    0    0 -0.26792528562E-01 -0.94689240089E-01 -0.73396076336E-01  0.12453762275E+00  0.20946209273E-01 0.  0.
         14    1    1    2    0    0  0.16673742619E-01  0.30042562484E-02 -0.23837251934E-01  0.29244723085E-01  0.00000000000E+00 0.  1.
     999901    1    3    3    0    0  0.10118785943E-01  0.91684983841E-01  0.97233328271E-01  0.89014765417E+00  0.88000000000E+00 0. -1.
        -11    1    4    4    0    0 -0.72764765172E-02 -0.57879307527E-01 -0.36003700805E-01  0.68552818636E-01  0.51100000000E-03 0. -1.
         11    1    4    4    0    0 -0.19516052045E-01 -0.36809932563E-01 -0.37392375531E-01  0.55984804113E-01  0.51100000000E-03 0.  1.
</event>
<event>
 8    1  0.1070112E+005  0.1043930E+01  0.7957747E-01            NaN
         13   -1    0    0    0    0  0.00000000000E+00  0.00000000000E+00  0.74505805969E-08  0.10566000000E+00  0.10566000000E+00 0. -1.
     999900   -1    0    0    0    0 -0.00000000000E+00 -0.00000000000E+00 -0.74505805969E-08  0.93827000000E+00  0.93827000000E+00 0.  1.
     999902    2    1    2    0    0  0.20157791263E-01  0.15142451757E-01 -0.12351420827E-02  0.10186880514E+01  0.10183752698E+01 0.  0.
     999903    2    3    3    0    0  0.24090495834E-03 -0.84148816873E-01  0.93973462908E-01  0.12777833831E+00  0.20376716973E-01 0.  0.
         14    1    1    2    0    0 -0.20157791263E-01 -0.15142451757E-01  0.12351420827E-02  0.25241948613E-01  0.00000000000E+00 0. -1.
     999901    1    3    3    0    0  0.19916886305E-01  0.99291268630E-01 -0.95208604991E-01  0.89090971307E+00  0.88000000000E+00 0.  1.
        -11    1    4    4    0    0  0.82043683988E-03 -0.29929379307E-01  0.19805190417E-01  0.35901915697E-01  0.51100000000E-03 0. -1.
         11    1    4    4    0    0 -0.57953188154E-03 -0.54219437567E-01  0.74168272491E-01  0.91876422615E-01  0.51100000000E-03 0.  1.
</event>
<event>
 8    1  0.1070112E+005  0.1043930E+01  0.7957747E-01            NaN
         13   -1    0    0    0    0  0.00000000000E+00  0.00000000000E+00  0.74505805969E-08  0.10566000000E+00  0.10566000000E+00 0.  1.
     999900   -1    0    0    0    0 -0.00000000000E+00 -0.00000000000E+00 -0.74505805969E-08  0.93827000000E+00  0.93827000000E+00 0. -1.
     999902    2    1    2    0    0  0.44345277415E-02  0.72369417833E-03  0.24309607245E-01  0.10192086373E+01  0.10189087793E+01 0.  0.
     999903    2    3    3    0    0  0.46497098284E-01 -0.94957020202E-01 -0.69245050749E-01  0.12809891735E+00  0.20871984548E-01 0.  0.
         14    1    1    2    0    0 -0.44345277415E-02 -0.72369417833E-03 -0.24309607245E-01  0.24721362705E-01  0.00000000000E+00 0. -1.
     999901    1    3    3    0    0 -0.42062570543E-01  0.95680714381E-01  0.93554657994E-01  0.89110971994E+00  0.88000000000E+00 0.  1.
        -11    1    4    4    0    0  0.31137023229E-01 -0.48602868900E-01 -0.27902352498E-01  0.64113613818E-01  0.51100000000E-03 0.  1.
         11    1    4    4    0    0  0.15360075055E-01 -0.46354151303E-01 -0.41342698251E-01  0.63985303534E-01  0.51100000000E-03 0. -1.
</event>
<event>
 8    1  0.1070112E+005  0.1043930E+01  0.7957747E-01            NaN
         13   -1    0    0    0    0  0.00000000000E+00  0.00000000000E+00  0.74505805969E-08  0.10566000000E+00  0.10566000000E+00 0.  1.
     999900   -1    0    0    0    0 -0.00000000000E+00 -0.00000000000E+00 -0.74505805969E-08  0.93827000000E+00  0.93827000000E+00 0.  1.
     999902    2    1    2    0    0 -0.22718104082E-01  0.37342980091E-02 -0.70816738984E-02  0.10198425066E+01  0.10195580076E+01 0.  0.
     999903    2    3    3    0    0 -0.14437446347E-01 -0.12617161270E+00  0.19329048857E-01  0.12987529301E+00  0.19138022242E-01 0.  0.
         14    1    1    2    0    0  0.22718104082E-01 -0.37342980091E-02  0.70816738984E-02  0.24087493434E-01  0.00000000000E+00 0.  1.
     999901    1    3    3    0    0 -0.82806577356E-02  0.12990591071E+00 -0.26410722755E-01  0.88996721356E+00  0.88000000000E+00 0.  1.
        -11    1    4    4    0    0 -0.14500980604E-01 -0.64101454172E-01  0.16376834605E-01  0.67732833236E-01  0.51100000000E-03 0. -1.
         11    1    4    4    0    0  0.63534257500E-04 -0.62070158531E-01  0.29522142516E-02  0.62142459773E-01  0.51100000000E-03 0.  1.
</event>
<event>
 8    1  0.1070112E+005  0.1043930E+01  0.7957747E-01            NaN
         13   -1    0    0    0    0  0.00000000000E+00  0.00000000000E+00  0.74505805969E-08  0.10566000000E+00  0.10566000000E+00 0. -1.
     999900   -1    0    0    0    0 -0.00000000000E+00 -0.00000000000E+00 -0.74505805969E-08  0.93827000000E+00  0.93827000000E+00 0. -1.
     999902    2    1    2    0    0 -0.14993589512E-01  0.11342023942E-01  0.17171955806E-01  0.10184677672E+01  0.10181494328E+01 0.  0.
     999903    2    3    3    0    0 -0.94743688574E-01 -0.68747954914E-01 -0.49506691464E-01  0.12873717593E+00  0.20486584339E-01 0.  0.
         14    1    1    2    0    0  0.14993589512E-01 -0.11342023942E-01 -0.17171955806E-01  0.25462232812E-01  0.00000000000E+00 0.  1.
     999901    1    3    3    0    0  0.79750099062E-01  0.80089978856E-01  0.66678647271E-01  0.88973059126E+00  0.88000000000E+00 0. -1.
        -11    1    4    4    0    0 -0.80543505603E-01 -0.63996463643E-01 -0.48464009181E-01  0.11371818219E+00  0.51100000000E-03 0. -1.
         11    1    4    4    0    0 -0.14200182971E-01 -0.47514912718E-02 -0.10426822828E-02  0.15018993743E-01  0.51100000000E-03 0.  1.
</event>
<event>
 8    1  0.1070112E+005  0.1043930E+01  0.7957747E-01            NaN
         13   -1    0    0    0    0  0.00000000000E+00  0.00000000000E+00  0.74505805969E-08  0.10566000000E+00  0.10566000000E+00 0. -1.
     999900   -1    0    0    0    0 -0.00000000000E+00 -0.00000000000E+00 -0.74505805969E-08  0.93827000000E+00  0.93827000000E+00 0. -1.
     999902    2    1    2    0    0 -0.21837931241E-01 -0.58115876736E-02 -0.78961385904E-02  0.10199921890E+01  0.10197112566E+01 0.  0.
     999903    2    3    3    0    0 -0.11999975154E+00 -0.37176809046E-01  0.37992547101E-01  0.13279137092E+00  0.20200471674E-01 0.  0.
         14    1    1    2    0    0  0.21837931241E-01  0.58115876736E-02  0.78961385904E-02  0.23937811028E-01  0.00000000000E+00 0.  1.
     999901    1    3    3    0    0  0.98161820297E-01  0.31365221372E-01 -0.45888685692E-01  0.88720081805E+00  0.88000000000E+00 0.  1.
        -11    1    4    4    0    0 -0.45278230347E-01 -0.22147594823E-01  0.21537329602E-01  0.54815616272E-01  0.51100000000E-03 0. -1.
         11    1    4    4    0    0 -0.74721521191E-01 -0.15029214222E-01  0.16455217499E-01  0.77975754649E-01  0.51100000000E-03 0.  1.
</event>
<event>
 8    1  0.1070112E+005  0.1043930E+01  0.7957747E-01            NaN
         13   -1    0    0    0    0  0.00000000000E+00  0.00000000000E+00  0.74505805969E-08  0.10566000000E+00  0.10566000000E+00 0. -1.
     999900   -1    0    0    0    0 -0.00000000000E+00 -0.00000000000E+00 -0.74505805969E-08  0.93827000000E+00  0.93827000000E+00 0. -1.
     999902    2    1    2    0    0  0.74293983267E-02  0.19521931781E-01 -0.77633981086E-02  0.10216461015E+01  0.10214030471E+01 0.  0.
     999903    2    3    3    0    0  0.11361177102E+00 -0.51938479491E-01  0.35195500521E-01  0.13135022173E+00  0.20221704314E-01 0.  0.
         14    1    1    2    0    0 -0.74293983267E-02 -0.19521931781E-01  0.77633981086E-02  0.22283898450E-01  0.00000000000E+00 0. -1.
     999901    1    3    3    0    0 -0.10618237270E+00  0.71460411272E-01 -0.42958898629E-01  0.89029587982E+00  0.88000000000E+00 0. -1.
        -11    1    4    4    0    0  0.79596034373E-01 -0.26141735647E-01  0.21209874494E-01  0.86423601681E-01  0.51100000000E-03 0. -1.
         11    1    4    4    0    0  0.34015736649E-01 -0.25796743845E-01  0.13985626027E-01  0.44926620050E-01  0.51100000000E-03 0.  1.
</event>
<event>
 8    1  0.1070112E+005  0.1043930E+01  0.7957747E-01            NaN
         13   -1    0    0    0    0  0.00000000000E+00  0.00000000000E+00  0.74505805969E-08  0.10566000000E+00  0.10566000000E+00 0.  1.
     999900   -1    0    0    0    0 -0.00000000000E+00 -0.00000000000E+00 -0.74505805969E-08  0.93827000000E+00  0.93827000000E+00 0. -1.
     999902    2    1    2    0    0  0.49639682234E-03 -0.11809306704E-01  0.22043052155E-01  0.10189179572E+01  0.10186109175E+01 0.  0.
     999903    2    3    3    0    0 -0.11691554885E+00  0.30648866819E-01 -0.36774909534E-01  0.12816108014E+00  0.21546923020E-01 0.  0.
         14    1    1    2    0    0 -0.49639682234E-03  0.11809306704E-01 -0.22043052155E-01  0.25012042759E-01  0.00000000000E+00 0. -1.
     999901    1    3    3    0    0  0.11741194567E+00 -0.42458173524E-01  0.58817961689E-01  0.89075687710E+00  0.88000000000E+00 0.  1.
        -11    1    4    4    0    0 -0.30291630898E-01  0.97250058488E-02 -0.19700073340E-01  0.37423423839E-01  0.51100000000E-03 0. -1.
         11    1    4    4    0    0 -0.86623917951E-01  0.20923860971E-01 -0.17074836194E-01  0.90737656302E-01  0.51100000000E-03 0.  1.
</event>
<event>
 8    1  0.1070112E+005  0.1043930E+01  0.7957747E-01            NaN
         13   -1    0    0    0    0  0.00000000000E+00  0.00000000000E+00  0.74505805969E-08  0.10566000000E+00  0.10566000000E+00 0. -1.
     999900   -1    0    0    0    0 -0.00000000000E+00 -0.00000000000E+00 -0.74505805969E-08  0.93827000000E+00  0.93827000000E+00 0.  1.
     999902    2    1    2    0    0  0.17140312614E-01  0.20883490353E-02  0.17682774796E-01  0.10192149835E+01  0.10189152813E+01 0.  0.
     999903    2    3    3    0    0 -0.51152951841E-01 -0.20275034424E-01 -0.11237392706E+00  0.12675835337E+00  0.20299733102E-01 0.  0.
         14    1    1    2    0    0 -0.17140312614E-01 -0.20883490353E-02 -0.17682774796E-01  0.24715016543E-01  0.00000000000E+00 0.  1.
     999901    1    3    3    0    0  0.68293264456E-01  0.22363383459E-01  0.13005670185E+00  0.89245663009E+00  0.88000000000E+00 0. -1.
        -11    1    4    4    0    0 -0.45516050151E-01 -0.16542291145E-01 -0.78697973590E-01  0.92406657692E-01  0.51100000000E-03 0. -1.
         11    1    4    4    0    0 -0.56369016899E-02 -0.37327432792E-02 -0.33675953467E-01  0.34351695678E-01  0.51100000000E-03 0.  1.
</event>
<event>
 8    1  0.1070112E+005  0.1043930E+01  0.7957747E-01            NaN
         13   -1    0    0    0    0  0.00000000000E+00  0.00000000000E+00  0.74505805969E-08  0.10566000000E+00  0.10566000000E+00 0.  1.
     999900   -1    0    0    0    0 -0.00000000000E+00 -0.00000000000E+00 -0.74505805969E-08  0.93827000000E+00  0.93827000000E+00 0.  1.
     999902    2    1    2    0    0 -0.14288115874E-01  0.18397914445E-01  0.35188053544E-02  0.10203712330E+01  0.10200992293E+01 0.  0.
     999903    2    3    3    0    0 -0.11677999200E+00 -0.24797995066E-01  0.52572511942E-01  0.13201503339E+00  0.20287753369E-01 0.  0.
         14    1    1    2    0    0  0.14288115874E-01 -0.18397914445E-01 -0.35188053544E-02  0.23558766994E-01  0.00000000000E+00 0.  1.
     999901    1    3    3    0    0  0.10249187613E+00  0.43195909511E-01 -0.49053706588E-01  0.88835619962E+00  0.88000000000E+00 0.  1.
        -11    1    4    4    0    0 -0.84385962080E-01 -0.94558115849E-02  0.41378215591E-01  0.94460683967E-01  0.51100000000E-03 0. -1.
         11    1    4    4    0    0 -0.32394029923E-01 -0.15342183481E-01  0.11194296351E-01  0.37554349420E-01  0.51100000000E-03 0.  1.
</event>
<event>
 8    1  0.1070112E+005  0.1043930E+01  0.7957747E-01            NaN
         13   -1    0    0    0    0  0.00000000000E+00  0.00000000000E+00  0.74505805969E-08  0.10566000000E+00  0.10566000000E+00 0.  1.
     999900   -1    0    0    0    0 -0.00000000000E+00 -0.00000000000E+00 -0.74505805969E-08  0.93827000000E+00  0.93827000000E+00 0. -1.
     999902    2    1    2    0    0 -0.54191527519E-03  0.86340610940E-02 -0.22661324863E-01  0.10196735302E+01  0.10193849772E+01 0.  0.
     999903    2    3    3    0    0 -0.21258051547E-01 -0.94129502621E-01 -0.86657457550E-01  0.13114383832E+00  0.19414514202E-01 0.  0.
         14    1    1    2    0    0  0.54191527519E-03 -0.86340610940E-02  0.22661324863E-01  0.24256469811E-01  0.00000000000E+00 0. -1.
     999901    1    3    3    0    0  0.20716136272E-01  0.10276356372E+00  0.63996132688E-01  0.88852969187E+00  0.88000000000E+00 0.  1.
        -11    1    4    4    0    0 -0.10635733325E-01 -0.49507659063E-01 -0.58267054788E-01  0.77197395837E-01  0.51100000000E-03 0.  1.
         11    1    4    4    0    0 -0.10622318222E-01 -0.44621843558E-01 -0.28390402762E-01  0.53946442486E-01  0.51100000000E-03 0. -1.
</event>
<event>
 8    1  0.1070112E+005  0.1043930E+01  0.7957747E-01            NaN
         13   -1    0    0    0    0  0.00000000000E+00  0.00000000000E+00  0.74505805969E-08  0.10566000000E+00  0.10566000000E+00 0. -1.
     999900   -1    0    0    0    0 -0.00000000000E+00 -0.00000000000E+00 -0.74505805969E-08  0.93827000000E+00  0.93827000000E+00 0.  1.
     999902    2    1    2    0    0 -0.18505789599E-01  0.68234503998E-02  0.13481563451E-01  0.10200390754E+01  0.10197592555E+01 0.  0.
     999903    2    3    3    0    0  0.67209460770E-02 -0.15034647698E-01  0.12929208659E+00  0.13182387520E+00  0.19745345539E-01 0.  0.
         14    1    1    2    0    0  0.18505789599E-01 -0.68234503998E-02 -0.13481563451E-01  0.23890924577E-01  0.00000000000E+00 0.  1.
     999901    1    3    3    0    0 -0.25226735676E-01  0.21858098098E-01 -0.11581052313E+00  0.88821520023E+00  0.88000000000E+00 0.  1.
        -11    1    4    4    0    0  0.55678931032E-02 -0.74551825592E-02  0.11670791702E+00  0.11707937562E+00  0.51100000000E-03 0. -1.
         11    1    4    4    0    0  0.11530529738E-02 -0.75794651389E-02  0.12584169568E-01  0.14744499574E-01  0.51100000000E-03 0.  1.
</event>
<event>
 8    1  0.1070112E+005  0.1043930E+01  0.7957747E-01            NaN
         13   -1    0    0    0    0  0.00000000000E+00  0.00000000000E+00  0.74505805969E-08  0.10566000000E+00  0.10566000000E+00 0. -1.
     999900   -1    0    0    0    0 -0.00000000000E+00 -0.00000000000E+00 -0.74505805969E-08  0.93827000000E+00  0.93827000000E+00 0. -1.
     999902    2    1    2    0    0  0.21688727369E-01  0.95857155690E-03  0.90052483516E-02  0.10204265055E+01  0.10201557915E+01 0.  0.
     999903    2    3    3    0    0 -0.48884204975E-01  0.10489767799E+00  0.56177280213E-01  0.13025288358E+00  0.20414174650E-01 0.  0.
         14    1    1    2    0    0 -0.21688727369E-01 -0.95857155690E-03 -0.90052483516E-02  0.23503494468E-01  0.00000000000E+00 0.  1.
     999901    1    3    3    0    0  0.70572932344E-01 -0.10393910643E+00 -0.47172031861E-01  0.89017362195E+00  0.88000000000E+00 0. -1.
        -11    1    4    4    0    0 -0.25144660503E-01  0.34581421958E-01  0.14602673553E-01  0.45184376641E-01  0.51100000000E-03 0. -1.
         11    1    4    4    0    0 -0.23739544471E-01  0.70316256028E-01  0.41574606660E-01  0.85068506942E-01  0.51100000000E-03 0.  1.
</event>
<event>
 8    1  0.1070112E+005  0.1043930E+01  0.7957747E-01            NaN
         13   -1    0    0    0    0  0.00000000000E+00  0.00000000000E+00  0.74505805969E-08  0.10566000000E+00  0.10566000000E+00 0. -1.
     999900   -1    0    0    0    0 -0.00000000000E+00 -0.00000000000E+00 -0.74505805969E-08  0.93827000000E+00  0.93827000000E+00 0. -1.
     999902    2    1    2    0    0  0.22355767615E-01  0.11426989395E-02 -0.76985635693E-02  0.10202582027E+01  0.10199835519E+01 0.  0.
     999903    2    3    3    0    0  0.17004561356E-01 -0.56443800849E-01 -0.11605272824E+00  0.13172825646E+00  0.20224738683E-01 0.  0.
         14    1    1    2    0    0 -0.22355767615E-01 -0.11426989395E-02  0.76985635693E-02  0.23671797303E-01  0.00000000000E+00 0. -1.
     999901    1    3    3    0    0  0.53512062588E-02  0.57586499789E-01  0.10835416467E+00  0.88852994624E+00  0.88000000000E+00 0.  1.
        -11    1    4    4    0    0  0.81334390956E-02 -0.27083266081E-01 -0.34587786551E-01  0.44679214772E-01  0.51100000000E-03 0.  1.
         11    1    4    4    0    0  0.88711222605E-02 -0.29360534768E-01 -0.81464941692E-01  0.87049041683E-01  0.51100000000E-03 0. -1.
</event>
<event>
 8    1  0.1070112E+005  0.1043930E+01  0.7957747E-01            NaN
         13   -1    0    0    0    0  0.00000000000E+00  0.00000000000E+00  0.74505805969E-08  0.10566000000E+00  0.10566000000E+00 0. -1.
     999900   -1    0    0    0    0 -0.00000000000E+00 -0.00000000000E+00 -0.74505805969E-08  0.93827000000E+00  0.93827000000E+00 0.  1.
     999902    2    1    2    0    0 -0.16467782399E-01 -0.76183728429E-03 -0.58493709656E-02  0.10264376190E+01  0.10262885570E+01 0.  0.
     999903    2    3    3    0    0 -0.77105666411E-01  0.51101821281E-01 -0.10011733253E+00  0.13781326604E+00  0.20306060465E-01 0.  0.
         14    1    1    2    0    0  0.16467782399E-01  0.76183728429E-03  0.58493709656E-02  0.17492381024E-01  0.00000000000E+00 0.  1.
     999901    1    3    3    0    0  0.60637884012E-01 -0.51863658566E-01  0.94267961567E-01  0.88862435294E+00  0.88000000000E+00 0. -1.
        -11    1    4    4    0    0 -0.57811309987E-02  0.16168732034E-02 -0.15307878835E-01  0.16450775969E-01  0.51100000000E-03 0.  1.
         11    1    4    4    0    0 -0.71324535412E-01  0.49484948078E-01 -0.84809453698E-01  0.12136249007E+00  0.51100000000E-03 0. -1.
</event>
<event>
 8    1  0.1070112E+005  0.1043930E+01  0.7957747E-01            NaN
         13   -1    0    0    0    0  0.00000000000E+00  0.00000000000E+00  0.74505805969E-08  0.10566000000E+00  0.10566000000E+00 0. -1.
     999900   -1    0    0    0    0 -0.00000000000E+00 -0.00000000000E+00 -0.74505805969E-08  0.93827000000E+00  0.93827000000E+00 0. -1.
     999902    2    1    2    0    0 -0.10190911675E-02  0.18907570475E-01 -0.14123055389E-01  0.10203080724E+01  0.10200345912E+01 0.  0.
     999903    2    3    3    0    0  0.84103106478E-01  0.94799212274E-01  0.30650760316E-01  0.13182057990E+00  0.19415792810E-01 0.  0.
         14    1    1    2    0    0  0.10190911675E-02 -0.18907570475E-01  0.14123055389E-01  0.23621927559E-01  0.00000000000E+00 0.  1.
     999901    1    3    3    0    0 -0.85122197646E-01 -0.75891641798E-01 -0.44773815705E-01  0.88848749254E+00  0.88000000000E+00 0. -1.
        -11    1    4    4    0    0  0.49337799477E-01  0.62767389310E-01  0.10874930135E-01  0.80575981809E-01  0.51100000000E-03 0.  1.
         11    1    4    4    0    0  0.34765307001E-01  0.32031822964E-01  0.19775830181E-01  0.51244598092E-01  0.51100000000E-03 0. -1.
</event>
<event>
 8    1  0.1070112E+005  0.1043930E+01  0.7957747E-01            NaN
         13   -1    0    0    0    0  0.00000000000E+00  0.00000000000E+00  0.74505805969E-08  0.10566000000E+00  0.10566000000E+00 0. -1.
     999900   -1    0    0    0    0 -0.00000000000E+00 -0.00000000000E+00 -0.74505805969E-08  0.93827000000E+00  0.93827000000E+00 0.  1.
     999902    2    1    2    0    0 -0.17606842928E-01  0.15324156365E-01 -0.24147198066E-02  0.10204638210E+01  0.10201939759E+01 0.  0.
     999903    2    3    3    0    0 -0.82801995087E-01  0.99515692508E-01  0.25805895848E-01  0.13359572156E+00  0.20550647477E-01 0.  0.
         14    1    1    2    0    0  0.17606842928E-01 -0.15324156365E-01  0.24147198066E-02  0.23466179023E-01  0.00000000000E+00 0. -1.
     999901    1    3    3    0    0  0.65195152159E-01 -0.84191536143E-01 -0.28220615654E-01  0.88686809942E+00  0.88000000000E+00 0.  1.
        -11    1    4    4    0    0 -0.11945549810E-01  0.26070248775E-01  0.97058635677E-02  0.30279018148E-01  0.51100000000E-03 0.  1.
         11    1    4    4    0    0 -0.70856445277E-01  0.73445443733E-01  0.16100032280E-01  0.10331670341E+00  0.51100000000E-03 0. -1.
</event>
<event>
 8    1  0.1070112E+005  0.1043930E+01  0.7957747E-01            NaN
         13   -1    0    0    0    0  0.00000000000E+00  0.00000000000E+00  0.74505805969E-08  0.10566000000E+00  0.10566000000E+00 0.  1.
     999900   -1    0    0    0    0 -0.00000000000E+00 -0.00000000000E+00 -0.74505805969E-08  0.93827000000E+00  0.93827000000E+00 0.  1.
     999902    2    1    2    0    0 -0.63283760719E-02 -0.21444564509E-01  0.11476321757E-01  0.10187978761E+01  0.10184878442E+01 0.  0.
     999903    2    3    3    0    0 -0.84025798676E-01  0.73503895039E-01  0.61417932118E-01  0.12888424889E+00  0.19386330153E-01 0.  0.
         14    1    1    2    0    0  0.63283760719E-02  0.21444564509E-01 -0.11476321757E-01  0.25132123901E-01  0.00000000000E+00 0. -1.
     999901    1    3    3    0    0  0.77697422604E-01 -0.94948459548E-01 -0.49941610361E-01  0.88991362721E+00  0.88000000000E+00 0. -1.
        -11    1    4    4    0    0 -0.91646816851E-02  0.98476711698E-02  0.93470854448E-03  0.13494547748E-01  0.51100000000E-03 0. -1.
         11    1    4    4    0    0 -0.74861116991E-01  0.63656223869E-01  0.60483223573E-01  0.11538970114E+00  0.51100000000E-03 0.  1.
</event>
<event>
 8    1  0.1070112E+005  0.1043930E+01  0.7957747E-01            NaN
         13   -1    0    0    0    0  0.00000000000E+00  0.00000000000E+00  0.74505805969E-08  0.10566000000E+00  0.10566000000E+00 0. -1.
     999900   -1    0    0    0    0 -0.00000000000E+00 -0.00000000000E+00 -0.74505805969E-08  0.93827000000E+00  0.93827000000E+00 0.  1.
     999902    2    1    2    0    0  0.93266530573E-02 -0.22436097148E-01 -0.14354324543E-02  0.10195902100E+01  0.10192996472E+01 0.  0.
     999903    2    3    3    0    0  0.12214351865E+00  0.58587183033E-02 -0.42601813498E-01  0.13098292175E+00  0.19703998279E-01 0.  0.
         14    1    1    2    0    0 -0.93266530573E-02  0.22436097148E-01  0.14354324543E-02  0.24339790033E-01  0.00000000000E+00 0.  1.
     999901    1    3    3    0    0 -0.11281686559E+00 -0.28294815452E-01  0.41166381043E-01  0.88860728822E+00  0.88000000000E+00 0. -1.
        -11    1    4    4    0    0  0.42520944504E-01  0.21602870415E-02 -0.50726320455E-02  0.42879951941E-01  0.51100000000E-03 0. -1.
         11    1    4    4    0    0  0.79622574148E-01  0.36984312618E-02 -0.37529181452E-01  0.88102969810E-01  0.51100000000E-03 0.  1.
</event>
<event>
 8    1  0.1070112E+005  0.1043930E+01  0.7957747E-01            NaN
         13   -1    0    0    0    0  0.00000000000E+00  0.00000000000E+00  0.74505805969E-08  0.10566000000E+00  0.10566000000E+00 0.  1.
     999900   -1    0    0    0    0 -0.00000000000E+00 -0.00000000000E+00 -0.74505805969E-08  0.93827000000E+00  0.93827000000E+00 0.  1.
     999902    2    1    2    0    0 -0.60600129496E-03 -0.22862098261E-01 -0.72268089022E-02  0.10199452227E+01  0.10196631737E+01 0.  0.
     999903    2    3    3    0    0 -0.71435738736E-01  0.53806767234E-01  0.89892125755E-01  0.12847057130E+00  0.20636386533E-01 0.  0.
         14    1    1    2    0    0  0.60600129496E-03  0.22862098261E-01  0.72268089022E-02  0.23984777285E-01  0.00000000000E+00 0. -1.
     999901    1    3    3    0    0  0.70829737441E-01 -0.76668865495E-01 -0.97118934658E-01  0.89147465141E+00  0.88000000000E+00 0. -1.
        -11    1    4    4    0    0 -0.30279895173E-01  0.17379724850E-01  0.48029184983E-01  0.59380052363E-01  0.51100000000E-03 0.  1.
         11    1    4    4    0    0 -0.41155843563E-01  0.36427042384E-01  0.41862940773E-01  0.69090518940E-01  0.51100000000E-03 0. -1.
</event>
<event>
 8    1  0.1070112E+005  0.1043930E+01  0.7957747E-01            NaN
         13   -1    0    0    0    0  0.00000000000E+00  0.00000000000E+00  0.74505805969E-08  0.10566000000E+00  0.10566000000E+00 0.  1.
     999900   -1    0    0    0    0 -0.00000000000E+00 -0.00000000000E+00 -0.74505805969E-08  0.93827000000E+00  0.93827000000E+00 0. -1.
     999902    2    1    2    0    0  0.10257820587E-03 -0.27202781755E-01  0.10533163890E-01  0.10147589630E+01  0.10143395899E+01 0.  0.
     999903    2    3    3    0    0  0.15180647447E-01  0.16979711583E-01  0.12279964178E+00  0.12639912435E+00  0.19447980675E-01 0.  0.
         14    1    1    2    0    0 -0.10257820587E-03  0.27202781755E-01 -0.10533163890E-01  0.29171036989E-01  0.00000000000E+00 0. -1.
     999901    1    3    3    0    0 -0.15078069241E-01 -0.44182493338E-01 -0.11226647789E+00  0.88835983866E+00  0.88000000000E+00 0. -1.
        -11    1    4    4    0    0  0.89667958208E-02 -0.18005970588E-02  0.55491455499E-01  0.56242406878E-01  0.51100000000E-03 0. -1.
         11    1    4    4    0    0  0.62138516263E-02  0.18780308642E-01  0.67308186282E-01  0.70156717471E-01  0.51100000000E-03 0.  1.
</event>
<event>
 8    1  0.1070112E+005  0.1043930E+01  0.7957747E-01            NaN
         13   -1    0    0    0    0  0.00000000000E+00  0.00000000000E+00  0.74505805969E-08  0.10566000000E+00  0.10566000000E+00 0.  1.
     999900   -1    0    0    0    0 -0.00000000000E+00 -0.00000000000E+00 -0.74505805969E-08  0.93827000000E+00  0.93827000000E+00 0. -1.
     999902    2    1    2    0    0  0.13485665614E-01  0.19623841814E-01  0.75325537992E-02  0.10189560594E+01  0.10186499660E+01 0.  0.
     999903    2    3    3    0    0 -0.21598133982E-01  0.12171683987E+00 -0.38847351409E-01  0.13114698706E+00  0.20222438095E-01 0.  0.
         14    1    1    2    0    0 -0.13485665614E-01 -0.19623841814E-01 -0.75325537992E-02  0.24973940645E-01  0.00000000000E+00 0. -1.
     999901    1    3    3    0    0  0.35083799597E-01 -0.10209299806E+00  0.46379905208E-01  0.88780907230E+00  0.88000000000E+00 0. -1.
        -11    1    4    4    0    0  0.14726471182E-02  0.40157429284E-01 -0.82029150090E-02  0.41016298613E-01  0.51100000000E-03 0. -1.
         11    1    4    4    0    0 -0.23070781100E-01  0.81559410588E-01 -0.30644436400E-01  0.90130688444E-01  0.51100000000E-03 0.  1.
</event>
<event>
 7    1  0.1070112E+005  0.1043930E+01  0.7957747E-01            NaN
         13   -1    0    0    0    0  0.00000000000E+00  0.00000000000E+00  0.74505805969E-08  0.10566000000E+00  0.10566000000E+00 0.  1.
     999900   -1    0    0    0    0 -0.00000000000E+00 -0.00000000000E+00 -0.74505805969E-08  0.93827000000E+00  0.93827000000E+00 0. -1.
     999903    2    1    2    0    0  0.69586783488E-01 -0.69410537183E-01  0.52654536945E-01  0.11329273897E+00  0.20064927987E-01 0.  0.
         14    1    1    2    0    0  0.37902254725E-01  0.71597455515E-02  0.95580554107E-02  0.39739140565E-01  0.00000000000E+00 0.  1.
     999901    1    1    2    0    0 -0.10748903821E+00  0.62250791631E-01 -0.62212592356E-01  0.89089812046E+00  0.88000000000E+00 0. -1.
        -11    1    3    3    0    0  0.40821156995E-01 -0.52876577662E-01  0.39434903049E-01  0.77573655471E-01  0.51100000000E-03 0. -1.
         11    1    3    3    0    0  0.28765626492E-01 -0.16533959521E-01  0.13219633896E-01  0.35719083503E-01  0.51100000000E-03 0.  1.
</event>
<event>
 8    1  0.1070112E+005  0.1043930E+01  0.7957747E-01            NaN
         13   -1    0    0    0    0  0.00000000000E+00  0.00000000000E+00  0.74505805969E-08  0.10566000000E+00  0.10566000000E+00 0. -1.
     999900   -1    0    0    0    0 -0.00000000000E+00 -0.00000000000E+00 -0.74505805969E-08  0.93827000000E+00  0.93827000000E+00 0. -1.
     999902    2    1    2    0    0 -0.21923458458E-03  0.85814068066E-02 -0.21183895876E-01  0.10210729212E+01  0.10208170572E+01 0.  0.
     999903    2    3    3    0    0  0.33191174695E-02  0.34124542455E-01  0.12269510112E+00  0.12901567108E+00  0.20382703616E-01 0.  0.
         14    1    1    2    0    0  0.21923458458E-03 -0.85814068066E-02  0.21183895876E-01  0.22857078796E-01  0.00000000000E+00 0. -1.
     999901    1    3    3    0    0 -0.35383520541E-02 -0.25543135648E-01 -0.14387899700E+00  0.89205725012E+00  0.88000000000E+00 0. -1.
        -11    1    4    4    0    0 -0.61908624767E-02  0.25870836144E-01  0.71429625754E-01  0.76223877475E-01  0.51100000000E-03 0.  1.
         11    1    4    4    0    0  0.95099799462E-02  0.82537063108E-02  0.51265475371E-01  0.52791793609E-01  0.51100000000E-03 0. -1.
</event>
<event>
 8    1  0.1070112E+005  0.1043930E+01  0.7957747E-01            NaN
         13   -1    0    0    0    0  0.00000000000E+00  0.00000000000E+00  0.74505805969E-08  0.10566000000E+00  0.10566000000E+00 0.  1.
     999900   -1    0    0    0    0 -0.00000000000E+00 -0.00000000000E+00 -0.74505805969E-08  0.93827000000E+00  0.93827000000E+00 0.  1.
     999902    2    1    2    0    0 -0.62150379403E-02 -0.11024416828E-01  0.18608127763E-01  0.10214260696E+01  0.10211781377E+01 0.  0.
     999903    2    3    3    0    0  0.28881451701E-01 -0.69808391274E-01 -0.10382059988E+00  0.13031658557E+00  0.22278818906E-01 0.  0.
         14    1    1    2    0    0  0.62150379403E-02  0.11024416828E-01 -0.18608127763E-01  0.22503930364E-01  0.00000000000E+00 0. -1.
     999901    1    3    3    0    0 -0.35096489641E-01  0.58783974446E-01  0.12242872764E+00  0.89110948406E+00  0.88000000000E+00 0. -1.
        -11    1    4    4    0    0  0.20973048971E-01 -0.54845654937E-01 -0.93732640704E-01  0.11060734019E+00  0.51100000000E-03 0.  1.
         11    1    4    4    0    0  0.79084027305E-02 -0.14962736337E-01 -0.10087959172E-01  0.19709245386E-01  0.51100000000E-03 0. -1.
</event>
<event>
 8    1  0.1070112E+005  0.1043930E+01  0.7957747E-01            NaN
         13   -1    0    0    0    0  0.00000000000E+00  0.00000000000E+00  0.74505805969E-08  0.10566000000E+00  0.10566000000E+00 0. -1.
     999900   -1    0    0    0    0 -0.00000000000E+00 -0.00000000000E+00 -0.74505805969E-08  0.93827000000E+00  0.93827000000E+00 0. -1.
     999902    2    1    2    0    0 -0.96276982099E-03 -0.23179681770E-01 -0.27425796794E-02  0.10205687861E+01  0.10203013774E+01 0.  0.
     999903    2    3    3    0    0 -0.20759922745E-01 -0.11283400631E+00 -0.65611765986E-01  0.13356125524E+00  0.19267010515E-01 0.  0.
         14    1    1    2    0    0  0.96276982099E-03  0.23179681770E-01  0.27425796794E-02  0.23361213924E-01  0.00000000000E+00 0.  1.
     999901    1    3    3    0    0  0.19797152924E-01  0.89654324536E-01  0.62869186307E-01  0.88700753084E+00  0.88000000000E+00 0.  1.
        -11    1    4    4    0    0 -0.12043747178E-01 -0.96255087433E-01 -0.49796182820E-01  0.10904134375E+00  0.51100000000E-03 0. -1.
         11    1    4    4    0    0 -0.87161755665E-02 -0.16578918873E-01 -0.15815583167E-01  0.24519911488E-01  0.51100000000E-03 0.  1.
</event>
<event>
 8    1  0.1070112E+005  0.1043930E+01  0.7957747E-01            NaN
         13   -1    0    0    0    0  0.00000000000E+00  0.00000000000E+00  0.74505805969E-08  0.10566000000E+00  0.10566000000E+00 0. -1.
     999900   -1    0    0    0    0 -0.00000000000E+00 -0.00000000000E+00 -0.74505805969E-08  0.93827000000E+00  0.93827000000E+00 0. -1.
     999902    2    1    2    0    0  0.28110657753E-02 -0.22336720020E-01  0.78362765559E-02  0.10200922488E+01  0.10198136877E+01 0.  0.
     999903    2    3    3    0    0 -0.13369304692E-01 -0.93436341675E-01  0.91727072232E-01  0.13310035132E+00  0.19818160582E-01 0.  0.
         14    1    1    2    0    0 -0.28110657753E-02  0.22336720020E-01 -0.78362765559E-02  0.23837751201E-01  0.00000000000E+00 0.  1.
     999901    1    3    3    0    0  0.16180370467E-01  0.71099621655E-01 -0.83890795676E-01  0.88699189748E+00  0.88000000000E+00 0. -1.
        -11    1    4    4    0    0  0.24139764521E-02 -0.44986315230E-01  0.49359619605E-01  0.66829851181E-01  0.51100000000E-03 0.  1.
         11    1    4    4    0    0 -0.15783281144E-01 -0.48450026445E-01  0.42367452627E-01  0.66270500143E-01  0.51100000000E-03 0. -1.
</event>
<event>
 8    1  0.1070112E+005  0.1043930E+01  0.7957747E-01            NaN
         13   -1    0    0    0    0  0.00000000000E+00  0.00000000000E+00  0.74505805969E-08  0.10566000000E+00  0.10566000000E+00 0.  1.
     999900   -1    0    0    0    0 -0.00000000000E+00 -0.00000000000E+00 -0.74505805969E-08  0.93827000000E+00  0.93827000000E+00 0. -1.
     999902    2    1    2    0    0  0.49181785876E-02 -0.11854613598E-01 -0.20249756203E-01  0.10199555767E+01  0.10196737741E+01 0.  0.
     999903    2    3    3    0    0 -0.81494494058E-01  0.86792409817E-01  0.43078757117E-01  0.12798647088E+00  0.18721176487E-01 0.  0.
         14    1    1    2    0    0 -0.49181785876E-02  0.11854613598E-01  0.20249756203E-01  0.23974423256E-01  0.00000000000E+00 0.  1.
     999901    1    3    3    0    0  0.86412672646E-01 -0.98647023416E-01 -0.63328513320E-01  0.89196910587E+00  0.88000000000E+00 0. -1.
        -11    1    4    4    0    0 -0.12924318022E-01  0.20042047583E-01  0.22995357125E-02  0.23963944858E-01  0.51100000000E-03 0.  1.
         11    1    4    4    0    0 -0.68570176036E-01  0.66750362235E-01  0.40779221404E-01  0.10402252602E+00  0.51100000000E-03 0. -1.
</event>
<event>
 8    1  0.1070112E+005  0.1043930E+01  0.7957747E-01            NaN
         13   -1    0    0    0    0  0.00000000000E+00  0.00000000000E+00  0.74505805969E-08  0.10566000000E+00  0.10566000000E+00 0. -1.
     999900   -1    0    0    0    0 -0.00000000000E+00 -0.00000000000E+00 -0.74505805969E-08  0.93827000000E+00  0.93827000000E+00 0.  1.
     999902    2    1    2    0    0  0.11365928102E-01 -0.19735739905E-01  0.50116908384E-02  0.10206104632E+01  0.10203440189E+01 0.  0.
     999903    2    3    3    0    0  0.10283212161E+00  0.77464261386E-01  0.15575261795E-01  0.13048379029E+00  0.14431691589E-01 0.  0.
         14    1    1    2    0    0 -0.11365928102E-01  0.19735739905E-01 -0.50116908384E-02  0.23319536794E-01  0.00000000000E+00 0. -1.
     999901    1    3    3    0    0 -0.91466193505E-01 -0.97200001291E-01 -0.10563570956E-01  0.89012667292E+00  0.88000000000E+00 0.  1.
        -11    1    4    4    0    0  0.32954463801E-01  0.32954743133E-01  0.79769645771E-02  0.47285355706E-01  0.51100000000E-03 0. -1.
         11    1    4    4    0    0  0.69877657807E-01  0.44509518252E-01  0.75982972176E-02  0.83198434584E-01  0.51100000000E-03 0.  1.
</event>
<event>
 8    1  0.1070112E+005  0.1043930E+01  0.7957747E-01            NaN
         13   -1    0    0    0    0  0.00000000000E+00  0.00000000000E+00  0.74505805969E-08  0.10566000000E+00  0.10566000000E+00 0.  1.
     999900   -1    0    0    0    0 -0.00000000000E+00 -0.00000000000E+00 -0.74505805969E-08  0.93827000000E+00  0.93827000000E+00 0.  1.
     999902    2    1    2    0    0  0.15839663067E-01  0.10341212183E-01 -0.13560980587E-01  0.10206547816E+01  0.10203893607E+01 0.  0.
     999903    2    3    3    0    0  0.72523243979E-01 -0.10429824624E+00  0.25776931938E-01  0.13054090963E+00  0.15451012295E-01 0.  0.
         14    1    1    2    0    0 -0.15839663067E-01 -0.10341212183E-01  0.13560980587E-01  0.23275218366E-01  0.00000000000E+00 0.  1.
     999901    1    3    3    0    0 -0.56683580911E-01  0.11463945842E+00 -0.39337912525E-01  0.89011387200E+00  0.88000000000E+00 0.  1.
        -11    1    4    4    0    0  0.51083456736E-01 -0.61953231061E-01  0.12618559684E-01  0.81284756015E-01  0.51100000000E-03 0. -1.
         11    1    4    4    0    0  0.21439787243E-01 -0.42345015179E-01  0.13158372254E-01  0.49256153615E-01  0.51100000000E-03 0.  1.
</event>
<event>
 8    1  0.1070112E+005  0.1043930E+01  0.7957747E-01            NaN
         13   -1    0    0    0    0  0.00000000000E+00  0.00000000000E+00  0.74505805969E-08  0.10566000000E+00  0.10566000000E+00 0. -1.
     999900   -1    0    0    0    0 -0.00000000000E+00 -0.00000000000E+00 -0.74505805969E-08  0.93827000000E+00  0.93827000000E+00 0. -1.
     999902    2    1    2    0    0 -0.11182062179E-01  0.12394815715E-01 -0.16440816457E-01  0.10204998823E+01  0.10202308755E+01 0.  0.
     999903    2    3    3    0    0 -0.78483045058E-01 -0.98901028445E-01  0.21323588323E-01  0.13013909164E+00  0.23248354006E-01 0.  0.
         14    1    1    2    0    0  0.11182062179E-01 -0.12394815715E-01  0.16440816457E-01  0.23430117733E-01  0.00000000000E+00 0. -1.
     999901    1    3    3    0    0  0.67300982879E-01  0.11129584416E+00 -0.37764404780E-01  0.89036079063E+00  0.88000000000E+00 0. -1.
        -11    1    4    4    0    0 -0.32223805108E-01 -0.34709524725E-01  0.18844531844E-01  0.50975506115E-01  0.51100000000E-03 0. -1.
         11    1    4    4    0    0 -0.46259239951E-01 -0.64191503720E-01  0.24790564786E-02  0.79163585522E-01  0.51100000000E-03 0.  1.
</event>
<event>
 8    1  0.1404409E+005  0.1043930E+01  0.7957747E-01            NaN
         13   -1    0    0    0    0  0.00000000000E+00  0.00000000000E+00  0.74505805969E-08  0.10566000000E+00  0.10566000000E+00 0.  1.
     999900   -1    0    0    0    0 -0.00000000000E+00 -0.00000000000E+00 -0.74505805969E-08  0.93827000000E+00  0.93827000000E+00 0. -1.
     999902    2    1    2    0    0 -0.88762509460E-03 -0.81337580230E-02  0.23230601642E-01  0.10193006121E+01  0.10190030083E+01 0.  0.
     999903    2    3    3    0    0 -0.10428689247E+00 -0.62604630588E-01  0.46114596986E-01  0.13127912487E+00  0.17679277708E-01 0.  0.
         14    1    1    2    0    0  0.88762509460E-03  0.81337580230E-02 -0.23230601642E-01  0.24629387945E-01  0.00000000000E+00 0. -1.
     999901    1    3    3    0    0  0.10339926738E+00  0.54470872565E-01 -0.22883995345E-01  0.88802148718E+00  0.88000000000E+00 0. -1.
        -11    1    4    4    0    0 -0.42009472293E-01 -0.35227105270E-01  0.18633443225E-01  0.57906916992E-01  0.51100000000E-03 0. -1.
         11    1    4    4    0    0 -0.62277420178E-01 -0.27377525318E-01  0.27481153761E-01  0.73372207883E-01  0.51100000000E-03 0.  1.
</event>
<event>
 8    1  0.1070112E+005  0.1043930E+01  0.7957747E-01            NaN
         13   -1    0    0    0    0  0.00000000000E+00  0.00000000000E+00  0.74505805969E-08  0.10566000000E+00  0.10566000000E+00 0.  1.
     999900   -1    0    0    0    0 -0.00000000000E+00 -0.00000000000E+00 -0.74505805969E-08  0.93827000000E+00  0.93827000000E+00 0.  1.
     999902    2    1    2    0    0  0.18412054691E-01  0.11991599761E-01 -0.83680729533E-02  0.10204177294E+01  0.10201468108E+01 0.  0.
     999903    2    3    3    0    0 -0.12599000104E+00 -0.14446741366E-01 -0.13194529830E-04  0.12821778346E+00  0.18910608742E-01 0.  0.
         14    1    1    2    0    0 -0.18412054691E-01 -0.11991599761E-01  0.83680729533E-02  0.23512270578E-01  0.00000000000E+00 0.  1.
     999901    1    3    3    0    0  0.14440205573E+00  0.26438341128E-01 -0.83548784234E-02  0.89219994596E+00  0.88000000000E+00 0.  1.
        -11    1    4    4    0    0 -0.11810270898E+00 -0.17873163356E-01  0.15702604703E-02  0.11945889115E+00  0.51100000000E-03 0.  1.
         11    1    4    4    0    0 -0.78872920631E-02  0.34264219893E-02 -0.15834550002E-02  0.87588923087E-02  0.51100000000E-03 0. -1.
</event>
<event>
 8    1  0.1070112E+005  0.1043930E+01  0.7957747E-01            NaN
         13   -1    0    0    0    0  0.00000000000E+00  0.00000000000E+00  0.74505805969E-08  0.10566000000E+00  0.10566000000E+00 0.  1.
     999900   -1    0    0    0    0 -0.00000000000E+00 -0.00000000000E+00 -0.74505805969E-08  0.93827000000E+00  0.93827000000E+00 0. -1.
     999902    2    1    2    0    0  0.67605634169E-02 -0.16521959540E-01 -0.14996389505E-01  0.10206153681E+01  0.10203490371E+01 0.  0.
     999903    2    3    3    0    0  0.87437121301E-01 -0.31761455471E-01 -0.93339790472E-01  0.13332813288E+00  0.20249303590E-01 0.  0.
         14    1    1    2    0    0 -0.67605634169E-02  0.16521959540E-01  0.14996389505E-01  0.23314631949E-01  0.00000000000E+00 0.  1.
     999901    1    3    3    0    0 -0.80676557884E-01  0.15239495930E-01  0.78343400967E-01  0.88728723517E+00  0.88000000000E+00 0.  1.
        -11    1    4    4    0    0  0.37204941869E-01 -0.35115308377E-02 -0.32556348541E-01  0.49565265051E-01  0.51100000000E-03 0. -1.
         11    1    4    4    0    0  0.50232179432E-01 -0.28249924633E-01 -0.60783441931E-01  0.83762867825E-01  0.51100000000E-03 0.  1.
</event>
<event>
 8    1  0.1070112E+005  0.1043930E+01  0.7957747E-01            NaN
         13   -1    0    0    0    0  0.00000000000E+00  0.00000000000E+00  0.74505805969E-08  0.10566000000E+00  0.10566000000E+00 0.  1.
     999900   -1    0    0    0    0 -0.00000000000E+00 -0.00000000000E+00 -0.74505805969E-08  0.93827000000E+00  0.93827000000E+00 0. -1.
     999902    2    1    2    0    0  0.82357182282E-02 -0.95542741691E-03  0.22281334644E-01  0.10201561116E+01  0.10198790586E+01 0.  0.
     999903    2    3    3    0    0  0.11688013746E+00  0.14984741221E-01 -0.51981610169E-01  0.13022764044E+00  0.19278006508E-01 0.  0.
         14    1    1    2    0    0 -0.82357182282E-02  0.95542741691E-03 -0.22281334644E-01  0.23773888403E-01  0.00000000000E+00 0. -1.
     999901    1    3    3    0    0 -0.10864441924E+00 -0.15940168638E-01  0.74262944813E-01  0.88992847116E+00  0.88000000000E+00 0.  1.
        -11    1    4    4    0    0  0.98742316924E-01  0.61283129633E-02 -0.39748812246E-01  0.10662002892E+00  0.51100000000E-03 0.  1.
         11    1    4    4    0    0  0.18137820541E-01  0.88564282580E-02 -0.12232797923E-01  0.23607611516E-01  0.51100000000E-03 0. -1.
</event>
<event>
 8    1  0.1070112E+005  0.1043930E+01  0.7957747E-01            NaN
         13   -1    0    0    0    0  0.00000000000E+00  0.00000000000E+00  0.74505805969E-08  0.10566000000E+00  0.10566000000E+00 0.  1.
     999900   -1    0    0    0    0 -0.00000000000E+00 -0.00000000000E+00 -0.74505805969E-08  0.93827000000E+00  0.93827000000E+00 0. -1.
     999902    2    1    2    0    0 -0.23594250645E-01  0.21364031327E-02 -0.42145476734E-02  0.10198672634E+01  0.10195833559E+01 0.  0.
     999903    2    3    3    0    0  0.26256460867E-01  0.12520246407E+00 -0.99529600289E-02  0.12988789386E+00  0.20167915352E-01 0.  0.
         14    1    1    2    0    0  0.23594250645E-01 -0.21364031327E-02  0.42145476734E-02  0.24062736626E-01  0.00000000000E+00 0.  1.
     999901    1    3    3    0    0 -0.49850711512E-01 -0.12306606094E+00  0.57384123555E-02  0.88997936952E+00  0.88000000000E+00 0. -1.
        -11    1    4    4    0    0  0.11400911917E-02  0.52777484963E-01 -0.59297805071E-02  0.53124251946E-01  0.51100000000E-03 0.  1.
         11    1    4    4    0    0  0.25116369676E-01  0.72424979110E-01 -0.40231795218E-02  0.76763641909E-01  0.51100000000E-03 0. -1.
</event>
<event>
 8    1  0.1070112E+005  0.1043930E+01  0.7957747E-01            NaN
         13   -1    0    0    0    0  0.00000000000E+00  0.00000000000E+00  0.74505805969E-08  0.10566000000E+00  0.10566000000E+00 0.  1.
     999900   -1    0    0    0    0 -0.00000000000E+00 -0.00000000000E+00 -0.74505805969E-08  0.93827000000E+00  0.93827000000E+00 0. -1.
     999902    2    1    2    0    0  0.22233895310E-01 -0.24706033348E-02 -0.83188301062E-02  0.10200625972E+01  0.10197833345E+01 0.  0.
     999903    2    3    3    0    0  0.71451051549E-01 -0.39728994230E-01  0.10072452686E+00  0.13118635731E+00  0.19513694784E-01 0.  0.
         14    1    1    2    0    0 -0.22233895310E-01  0.24706033348E-02  0.83188301062E-02  0.23867402788E-01  0.00000000000E+00 0.  1.
     999901    1    3    3    0    0 -0.49217156239E-01  0.37258390895E-01 -0.10904335696E+00  0.88887623990E+00  0.88000000000E+00 0. -1.
        -11    1    4    4    0    0  0.30501700743E-01 -0.15191962913E-01  0.57203211202E-01  0.66585418661E-01  0.51100000000E-03 0.  1.
         11    1    4    4    0    0  0.40949350806E-01 -0.24537031316E-01  0.43521315656E-01  0.64600938652E-01  0.51100000000E-03 0. -1.
</event>
<event>
 8    1  0.1070112E+005  0.1043930E+01  0.7957747E-01            NaN
         13   -1    0    0    0    0  0.00000000000E+00  0.00000000000E+00  0.74505805969E-08  0.10566000000E+00  0.10566000000E+00 0.  1.
     999900   -1    0    0    0    0 -0.00000000000E+00 -0.00000000000E+00 -0.74505805969E-08  0.93827000000E+00  0.93827000000E+00 0. -1.
     999902    2    1    2    0    0 -0.19246283060E-01 -0.12789687885E-01  0.56081503210E-02  0.10201508731E+01  0.10198736966E+01 0.  0.
     999903    2    3    3    0    0  0.22943621993E-01  0.41449482114E-01 -0.11825756177E+00  0.12882344149E+00  0.19135276430E-01 0.  0.
         14    1    1    2    0    0  0.19246283060E-01  0.12789687885E-01 -0.56081503210E-02  0.23779126936E-01  0.00000000000E+00 0.  1.
     999901    1    3    3    0    0 -0.42189905053E-01 -0.54239169999E-01  0.12386571209E+00  0.89132743158E+00  0.88000000000E+00 0.  1.
        -11    1    4    4    0    0  0.51819405848E-02  0.19437433695E-01 -0.29843243971E-01  0.35993703180E-01  0.51100000000E-03 0.  1.
         11    1    4    4    0    0  0.17761681409E-01  0.22012048419E-01 -0.88414317795E-01  0.92829738307E-01  0.51100000000E-03 0. -1.
</event>
<event>
 8    1  0.1070112E+005  0.1043930E+01  0.7957747E-01            NaN
         13   -1    0    0    0    0  0.00000000000E+00  0.00000000000E+00  0.74505805969E-08  0.10566000000E+00  0.10566000000E+00 0. -1.
     999900   -1    0    0    0    0 -0.00000000000E+00 -0.00000000000E+00 -0.74505805969E-08  0.93827000000E+00  0.93827000000E+00 0. -1.
     999902    2    1    2    0    0  0.13313065822E-01 -0.93485265186E-02  0.16737484839E-01  0.10205895615E+01  0.10203226338E+01 0.  0.
     999903    2    3    3    0    0  0.11728771646E+00 -0.31308772511E-01  0.51633165236E-01  0.13350969539E+00  0.20547684610E-01 0.  0.
         14    1    1    2    0    0 -0.13313065822E-01  0.93485265186E-02 -0.16737484839E-01  0.23340438479E-01  0.00000000000E+00 0.  1.
     999901    1    3    3    0    0 -0.10397465064E+00  0.21960245993E-01 -0.34895680397E-01  0.88707986613E+00  0.88000000000E+00 0.  1.
        -11    1    4    4    0    0  0.53558071032E-01 -0.56805221192E-02  0.29083804435E-01  0.61211633744E-01  0.51100000000E-03 0.  1.
         11    1    4    4    0    0  0.63729645428E-01 -0.25628250392E-01  0.22549360802E-01  0.72298061649E-01  0.51100000000E-03 0. -1.
</event>
<event>
 8    1  0.1070112E+005  0.1043930E+01  0.7957747E-01            NaN
         13   -1    0    0    0    0  0.00000000000E+00  0.00000000000E+00  0.74505805969E-08  0.10566000000E+00  0.10566000000E+00 0.  1.
     999900   -1    0    0    0    0 -0.00000000000E+00 -0.00000000000E+00 -0.74505805969E-08  0.93827000000E+00  0.93827000000E+00 0.  1.
     999902    2    1    2    0    0  0.21931798575E-02  0.35852830293E-02 -0.22877269535E-01  0.10206698677E+01  0.10204047947E+01 0.  0.
     999903    2    3    3    0    0  0.66797253951E-01 -0.88605408434E-01  0.63678041609E-01  0.12928631847E+00  0.18635117977E-01 0.  0.
         14    1    1    2    0    0 -0.21931798575E-02 -0.35852830293E-02  0.22877269535E-01  0.23260132279E-01  0.00000000000E+00 0.  1.
     999901    1    3    3    0    0 -0.64604074094E-01  0.92190691463E-01 -0.86555311143E-01  0.89138354925E+00  0.88000000000E+00 0.  1.
        -11    1    4    4    0    0  0.19861900711E-01 -0.26481217225E-01  0.29153120622E-01  0.44112532557E-01  0.51100000000E-03 0. -1.
         11    1    4    4    0    0  0.46935353240E-01 -0.62124191209E-01  0.34524920986E-01  0.85173785916E-01  0.51100000000E-03 0.  1.
</event>
<event>
 8    1  0.1070112E+005  0.1043930E+01  0.7957747E-01            NaN
         13   -1    0    0    0    0  0.00000000000E+00  0.00000000000E+00  0.74505805969E-08  0.10566000000E+00  0.10566000000E+00 0.  1.
     999900   -1    0    0    0    0 -0.00000000000E+00 -0.00000000000E+00 -0.74505805969E-08  0.93827000000E+00  0.93827000000E+00 0.  1.
     999902    2    1    2    0    0 -0.19731749717E-01 -0.14791867904E-02  0.13005421380E-01  0.10202515092E+01  0.10199767013E+01 0.  0.
     999903    2    3    3    0    0  0.60443293963E-01 -0.10536335041E+00  0.41715644569E-01  0.13005814034E+00  0.20496279470E-01 0.  0.
         14    1    1    2    0    0  0.19731749717E-01  0.14791867904E-02 -0.13005421380E-01  0.23678490782E-01  0.00000000000E+00 0. -1.
     999901    1    3    3    0    0 -0.80175043679E-01  0.10388416362E+00 -0.28710223189E-01  0.89019336888E+00  0.88000000000E+00 0.  1.
        -11    1    4    4    0    0  0.33213821974E-01 -0.70433656748E-01  0.18459150553E-01  0.80031614586E-01  0.51100000000E-03 0. -1.
         11    1    4    4    0    0  0.27229471988E-01 -0.34929693662E-01  0.23256494016E-01  0.50026525754E-01  0.51100000000E-03 0.  1.
</event>
<event>
 8    1  0.1070112E+005  0.1043930E+01  0.7957747E-01            NaN
         13   -1    0    0    0    0  0.00000000000E+00  0.00000000000E+00  0.74505805969E-08  0.10566000000E+00  0.10566000000E+00 0.  1.
     999900   -1    0    0    0    0 -0.00000000000E+00 -0.00000000000E+00 -0.74505805969E-08  0.93827000000E+00  0.93827000000E+00 0. -1.
     999902    2    1    2    0    0 -0.86372544494E-02  0.13923694934E-01 -0.17447445246E-01  0.10199949882E+01  0.10197141223E+01 0.  0.
     999903    2    3    3    0    0 -0.12663598194E+00 -0.19183012991E-01 -0.21036421042E-01  0.13149477178E+00  0.21063809863E-01 0.  0.
         14    1    1    2    0    0  0.86372544494E-02 -0.13923694934E-01  0.17447445246E-01  0.23935011817E-01  0.00000000000E+00 0.  1.
     999901    1    3    3    0    0  0.11799872749E+00  0.33106707925E-01  0.35889757959E-02  0.88850021640E+00  0.88000000000E+00 0.  1.
        -11    1    4    4    0    0 -0.11372393942E+00 -0.10741463651E-01 -0.16572313089E-01  0.11542710306E+00  0.51100000000E-03 0. -1.
         11    1    4    4    0    0 -0.12912042520E-01 -0.84415493403E-02 -0.44641079530E-02  0.16067668721E-01  0.51100000000E-03 0.  1.
</event>
<event>
 8    1  0.1070112E+005  0.1043930E+01  0.7957747E-01            NaN
         13   -1    0    0    0    0  0.00000000000E+00  0.00000000000E+00  0.74505805969E-08  0.10566000000E+00  0.10566000000E+00 0. -1.
     999900   -1    0    0    0    0 -0.00000000000E+00 -0.00000000000E+00 -0.74505805969E-08  0.93827000000E+00  0.93827000000E+00 0. -1.
     999902    2    1    2    0    0 -0.89331167610E-02 -0.20887398278E-01  0.53146461705E-02  0.10205991311E+01  0.10203324247E+01 0.  0.
     999903    2    3    3    0    0  0.21123788565E-01  0.82503571021E-01 -0.94113049386E-01  0.12847863654E+00  0.19910808803E-01 0.  0.
         14    1    1    2    0    0  0.89331167610E-02  0.20887398278E-01 -0.53146461705E-02  0.23330868947E-01  0.00000000000E+00 0. -1.
     999901    1    3    3    0    0 -0.30056905326E-01 -0.10339096930E+00  0.99427695557E-01  0.89212049452E+00  0.88000000000E+00 0.  1.
        -11    1    4    4    0    0  0.89758731456E-02  0.54388666448E-01 -0.47867699100E-01  0.73008705473E-01  0.51100000000E-03 0. -1.
         11    1    4    4    0    0  0.12147915420E-01  0.28114904573E-01 -0.46245350287E-01  0.55469931065E-01  0.51100000000E-03 0.  1.
</event>
<event>
 8    1  0.1070112E+005  0.1043930E+01  0.7957747E-01            NaN
         13   -1    0    0    0    0  0.00000000000E+00  0.00000000000E+00  0.74505805969E-08  0.10566000000E+00  0.10566000000E+00 0. -1.
     999900   -1    0    0    0    0 -0.00000000000E+00 -0.00000000000E+00 -0.74505805969E-08  0.93827000000E+00  0.93827000000E+00 0.  1.
     999902    2    1    2    0    0  0.11842660913E-01  0.37006706997E-02  0.18517637705E-01  0.10216399464E+01  0.10213967563E+01 0.  0.
     999903    2    3    3    0    0  0.42019584216E-01  0.12429308427E+00  0.31893783459E-02  0.13277092773E+00  0.20088077583E-01 0.  0.
         14    1    1    2    0    0 -0.11842660913E-01 -0.37006706997E-02 -0.18517637705E-01  0.22290053551E-01  0.00000000000E+00 0.  1.
     999901    1    3    3    0    0 -0.30176923303E-01 -0.12059241357E+00  0.15328259359E-01  0.88886901872E+00  0.88000000000E+00 0. -1.
        -11    1    4    4    0    0  0.30640207992E-01  0.94588528609E-01 -0.61381716392E-02  0.99618022276E-01  0.51100000000E-03 0. -1.
         11    1    4    4    0    0  0.11379376224E-01  0.29704555658E-01  0.93275499851E-02  0.33152905450E-01  0.51100000000E-03 0.  1.
</event>
<event>
 8    1  0.1070112E+005  0.1043930E+01  0.7957747E-01            NaN
         13   -1    0    0    0    0  0.00000000000E+00  0.00000000000E+00  0.74505805969E-08  0.10566000000E+00  0.10566000000E+00 0.  1.
     999900   -1    0    0    0    0 -0.00000000000E+00 -0.00000000000E+00 -0.74505805969E-08  0.93827000000E+00  0.93827000000E+00 0. -1.
     999902    2    1    2    0    0  0.24639580467E-02  0.68594235512E-03 -0.16832659548E-01  0.10269041363E+01  0.10267629839E+01 0.  0.
     999903    2    3    3    0    0  0.37924508304E-01 -0.75726578523E-01  0.10302827396E+00  0.13479261452E+00  0.19530506115E-01 0.  0.
         14    1    1    2    0    0 -0.24639580467E-02 -0.68594235512E-03  0.16832659548E-01  0.17025863667E-01  0.00000000000E+00 0.  1.
     999901    1    3    3    0    0 -0.35460550257E-01  0.76412520878E-01 -0.11986093351E+00  0.89211152181E+00  0.88000000000E+00 0. -1.
        -11    1    4    4    0    0  0.23736894633E-01 -0.64760482061E-01  0.81559219398E-01  0.10681539025E+00  0.51100000000E-03 0. -1.
         11    1    4    4    0    0  0.14187613671E-01 -0.10966096461E-01  0.21469054560E-01  0.27977224273E-01  0.51100000000E-03 0.  1.
</event>
<event>
 8    1  0.1070112E+005  0.1043930E+01  0.7957747E-01            NaN
         13   -1    0    0    0    0  0.00000000000E+00  0.00000000000E+00  0.74505805969E-08  0.10566000000E+00  0.10566000000E+00 0.  1.
     999900   -1    0    0    0    0 -0.00000000000E+00 -0.00000000000E+00 -0.74505805969E-08  0.93827000000E+00  0.93827000000E+00 0.  1.
     999902    2    1    2    0    0  0.96806059435E-02 -0.18665321394E-01  0.11721116945E-01  0.10198573405E+01  0.10195731960E+01 0.  0.
     999903    2    3    3    0    0  0.24269544589E-01 -0.12867055078E+00 -0.36151275714E-02  0.13275577469E+00  0.21584835740E-01 0.  0.
         14    1    1    2    0    0 -0.96806059435E-02  0.18665321394E-01 -0.11721116945E-01  0.24072659525E-01  0.00000000000E+00 0. -1.
     999901    1    3    3    0    0 -0.14588938646E-01  0.11000522938E+00  0.15336244516E-01  0.88710156579E+00  0.88000000000E+00 0.  1.
        -11    1    4    4    0    0  0.66530194158E-02 -0.33600385577E-01 -0.10476509463E-01  0.35822715556E-01  0.51100000000E-03 0. -1.
         11    1    4    4    0    0  0.17616525173E-01 -0.95070165201E-01  0.68613818913E-02  0.96933059134E-01  0.51100000000E-03 0.  1.
</event>
<event>
 8    1  0.1070112E+005  0.1043930E+01  0.7957747E-01            NaN
         13   -1    0    0    0    0  0.00000000000E+00  0.00000000000E+00  0.74505805969E-08  0.10566000000E+00  0.10566000000E+00 0.  1.
     999900   -1    0    0    0    0 -0.00000000000E+00 -0.00000000000E+00 -0.74505805969E-08  0.93827000000E+00  0.93827000000E+00 0.  1.
     999902    2    1    2    0    0 -0.69387991860E-02 -0.14574844288E-02  0.22681214361E-01  0.10201664001E+01  0.10198895897E+01 0.  0.
     999903    2    3    3    0    0  0.14744878627E-01 -0.74901187878E-01 -0.10076527777E+00  0.12825654150E+00  0.21644857187E-01 0.  0.
         14    1    1    2    0    0  0.69387991860E-02  0.14574844288E-02 -0.22681214361E-01  0.23763599893E-01  0.00000000000E+00 0. -1.
     999901    1    3    3    0    0 -0.21683677813E-01  0.73443703449E-01  0.12344649213E+00  0.89190985861E+00  0.88000000000E+00 0. -1.
        -11    1    4    4    0    0  0.18696887068E-03 -0.16853077076E-01 -0.10211992715E-01  0.19713119502E-01  0.51100000000E-03 0.  1.
         11    1    4    4    0    0  0.14557909756E-01 -0.58048110802E-01 -0.90553285054E-01  0.10854342200E+00  0.51100000000E-03 0. -1.
</event>
<event>
 8    1  0.1070112E+005  0.1043930E+01  0.7957747E-01            NaN
         13   -1    0    0    0    0  0.00000000000E+00  0.00000000000E+00  0.74505805969E-08  0.10566000000E+00  0.10566000000E+00 0.  1.
     999900   -1    0    0    0    0 -0.00000000000E+00 -0.00000000000E+00 -0.74505805969E-08  0.93827000000E+00  0.93827000000E+00 0.  1.
     999902    2    1    2    0    0  0.17158899501E-01 -0.21007773772E-02 -0.16117001822E-01  0.10202953042E+01  0.10200215238E+01 0.  0.
     999903    2    3    3    0    0  0.11729412638E+00  0.41964497211E-01 -0.42579017199E-01  0.13312618259E+00  0.19765542626E-01 0.  0.
         14    1    1    2    0    0 -0.17158899501E-01  0.21007773772E-02  0.16117001822E-01  0.23634695797E-01  0.00000000000E+00 0.  1.
     999901    1    3    3    0    0 -0.10013522688E+00 -0.44065274588E-01  0.26462015377E-01  0.88716912161E+00  0.88000000000E+00 0.  1.
        -11    1    4    4    0    0  0.99271101169E-01  0.41130119511E-01 -0.40984924865E-01  0.11500636263E+00  0.51100000000E-03 0. -1.
         11    1    4    4    0    0  0.18023025213E-01  0.83437769982E-03 -0.15940923339E-02  0.18119819959E-01  0.51100000000E-03 0.  1.
</event>
<event>
 8    1  0.1070112E+005  0.1043930E+01  0.7957747E-01            NaN
         13   -1    0    0    0    0  0.00000000000E+00  0.00000000000E+00  0.74505805969E-08  0.10566000000E+00  0.10566000000E+00 0. -1.
     999900   -1    0    0    0    0 -0.00000000000E+00 -0.00000000000E+00 -0.74505805969E-08  0.93827000000E+00  0.93827000000E+00 0. -1.
     999902    2    1    2    0    0 -0.24464079929E-02  0.20506092624E-01  0.11059367641E-01  0.10205036396E+01  0.10202347201E+01 0.  0.
     999903    2    3    3    0    0  0.97299320132E-01  0.78559182507E-01 -0.35995314924E-01  0.13172159962E+00  0.20401329746E-01 0.  0.
         14    1    1    2    0    0  0.24464079929E-02 -0.20506092624E-01 -0.11059367641E-01  0.23426360353E-01  0.00000000000E+00 0.  1.
     999901    1    3    3    0    0 -0.99745728125E-01 -0.58053089883E-01  0.47054682565E-01  0.88878204003E+00  0.88000000000E+00 0. -1.
        -11    1    4    4    0    0  0.38840638574E-01  0.43794527060E-01 -0.19872904080E-01  0.61820297984E-01  0.51100000000E-03 0. -1.
         11    1    4    4    0    0  0.58458681558E-01  0.34764655447E-01 -0.16122410844E-01  0.69901301635E-01  0.51100000000E-03 0.  1.
</event>
<event>
 8    1  0.1070112E+005  0.1043930E+01  0.7957747E-01            NaN
         13   -1    0    0    0    0  0.00000000000E+00  0.00000000000E+00  0.74505805969E-08  0.10566000000E+00  0.10566000000E+00 0.  1.
     999900   -1    0    0    0    0 -0.00000000000E+00 -0.00000000000E+00 -0.74505805969E-08  0.93827000000E+00  0.93827000000E+00 0.  1.
     999902    2    1    2    0    0  0.22741696292E-01 -0.96647477287E-02 -0.17165414768E-02  0.10191602884E+01  0.10188592419E+01 0.  0.
     999903    2    3    3    0    0 -0.41742228517E-01 -0.20665398014E-01  0.11837312154E+00  0.12859826470E+00  0.18863866639E-01 0.  0.
         14    1    1    2    0    0 -0.22741696292E-01  0.96647477287E-02  0.17165414768E-02  0.24769711616E-01  0.00000000000E+00 0. -1.
     999901    1    3    3    0    0  0.64483924809E-01  0.11000650285E-01 -0.12008966301E+00  0.89056202368E+00  0.88000000000E+00 0.  1.
        -11    1    4    4    0    0 -0.58778017058E-02 -0.67999492583E-02  0.43560774419E-01  0.44481344986E-01  0.51100000000E-03 0.  1.
         11    1    4    4    0    0 -0.35864426811E-01 -0.13865448755E-01  0.74812347120E-01  0.84116919714E-01  0.51100000000E-03 0. -1.
</event>
<event>
 8    1  0.1070112E+005  0.1043930E+01  0.7957747E-01            NaN
         13   -1    0    0    0    0  0.00000000000E+00  0.00000000000E+00  0.74505805969E-08  0.10566000000E+00  0.10566000000E+00 0. -1.
     999900   -1    0    0    0    0 -0.00000000000E+00 -0.00000000000E+00 -0.74505805969E-08  0.93827000000E+00  0.93827000000E+00 0. -1.
     999902    2    1    2    0    0 -0.13253571343E-01 -0.18293508882E-01 -0.62489895394E-02  0.10204915809E+01  0.10202223812E+01 0.  0.
     999903    2    3    3    0    0  0.74421921663E-01  0.69327977125E-01 -0.76661662148E-01  0.12901950541E+00  0.20592025059E-01 0.  0.
         14    1    1    2    0    0  0.13253571343E-01  0.18293508882E-01  0.62489895394E-02  0.23438419120E-01  0.00000000000E+00 0. -1.
     999901    1    3    3    0    0 -0.87675493007E-01 -0.87621486007E-01  0.70412672608E-01  0.89147207547E+00  0.88000000000E+00 0.  1.
        -11    1    4    4    0    0  0.62479897163E-01  0.50407735807E-01 -0.51665248818E-01  0.95468510175E-01  0.51100000000E-03 0. -1.
         11    1    4    4    0    0  0.11942024500E-01  0.18920241318E-01 -0.24996413330E-01  0.33550995232E-01  0.51100000000E-03 0.  1.
</event>
<event>
 8    1  0.1070112E+005  0.1043930E+01  0.7957747E-01            NaN
         13   -1    0    0    0    0  0.00000000000E+00  0.00000000000E+00  0.74505805969E-08  0.10566000000E+00  0.10566000000E+00 0. -1.
     999900   -1    0    0    0    0 -0.00000000000E+00 -0.00000000000E+00 -0.74505805969E-08  0.93827000000E+00  0.93827000000E+00 0.  1.
     999902    2    1    2    0    0  0.23812539430E-02 -0.10488304530E-01 -0.20662221204E-01  0.10206361749E+01  0.10203703246E+01 0.  0.
     999903    2    3    3    0    0 -0.38386261125E-02 -0.13774620407E-01  0.12582920562E+00  0.12849872759E+00  0.21782074889E-01 0.  0.
         14    1    1    2    0    0 -0.23812539430E-02  0.10488304530E-01  0.20662221204E-01  0.23293825090E-01  0.00000000000E+00 0. -1.
     999901    1    3    3    0    0  0.62198800555E-02  0.32863158769E-02 -0.14649142683E+00  0.89213744732E+00  0.88000000000E+00 0.  1.
        -11    1    4    4    0    0 -0.12669578371E-01 -0.61274909831E-02  0.77986754540E-01  0.79248087462E-01  0.51100000000E-03 0.  1.
         11    1    4    4    0    0  0.88309522581E-02 -0.76471294234E-02  0.47842451082E-01  0.49250640126E-01  0.51100000000E-03 0. -1.
</event>
<event>
 8    1  0.1070112E+005  0.1043930E+01  0.7957747E-01            NaN
         13   -1    0    0    0    0  0.00000000000E+00  0.00000000000E+00  0.74505805969E-08  0.10566000000E+00  0.10566000000E+00 0.  1.
     999900   -1    0    0    0    0 -0.00000000000E+00 -0.00000000000E+00 -0.74505805969E-08  0.93827000000E+00  0.93827000000E+00 0. -1.
     999902    2    1    2    0    0  0.23616404502E-01  0.43527699610E-02 -0.11488839764E-02  0.10198883465E+01  0.10196049422E+01 0.  0.
     999903    2    3    3    0    0  0.98952619079E-01 -0.78199287426E-01  0.33298339655E-01  0.13215133668E+00  0.21176566932E-01 0.  0.
         14    1    1    2    0    0 -0.23616404502E-01 -0.43527699610E-02  0.11488839764E-02  0.24041653486E-01  0.00000000000E+00 0. -1.
     999901    1    3    3    0    0 -0.75336214577E-01  0.82552057387E-01 -0.34447223631E-01  0.88773700983E+00  0.88000000000E+00 0. -1.
        -11    1    4    4    0    0  0.70422216596E-01 -0.44150042965E-01  0.26283965914E-01  0.87175815851E-01  0.51100000000E-03 0.  1.
         11    1    4    4    0    0  0.28530402484E-01 -0.34049244461E-01  0.70143737406E-02  0.44975520834E-01  0.51100000000E-03 0. -1.
</event>
<event>
 8    1  0.1070112E+005  0.1043930E+01  0.7957747E-01            NaN
         13   -1    0    0    0    0  0.00000000000E+00  0.00000000000E+00  0.74505805969E-08  0.10566000000E+00  0.10566000000E+00 0. -1.
     999900   -1    0    0    0    0 -0.00000000000E+00 -0.00000000000E+00 -0.74505805969E-08  0.93827000000E+00  0.93827000000E+00 0. -1.
     999902    2    1    2    0    0 -0.34380038432E-02 -0.17311414685E-01  0.15452681774E-01  0.10204717323E+01  0.10202020712E+01 0.  0.
     999903    2    3    3    0    0 -0.10794334002E+00  0.35461168054E-01  0.62652473684E-01  0.13146434700E+00  0.21172694227E-01 0.  0.
         14    1    1    2    0    0  0.34380038432E-02  0.17311414685E-01 -0.15452681774E-01  0.23458267686E-01  0.00000000000E+00 0.  1.
     999901    1    3    3    0    0  0.10450533617E+00 -0.52772582740E-01 -0.47199791911E-01  0.88900738531E+00  0.88000000000E+00 0. -1.
        -11    1    4    4    0    0 -0.69852516645E-01  0.21719549995E-01  0.51489766190E-01  0.89457085113E-01  0.51100000000E-03 0.  1.
         11    1    4    4    0    0 -0.38090823372E-01  0.13741618059E-01  0.11162707494E-01  0.42007261891E-01  0.51100000000E-03 0. -1.
</event>
<event>
 8    1  0.1070112E+005  0.1043930E+01  0.7957747E-01            NaN
         13   -1    0    0    0    0  0.00000000000E+00  0.00000000000E+00  0.74505805969E-08  0.10566000000E+00  0.10566000000E+00 0. -1.
     999900   -1    0    0    0    0 -0.00000000000E+00 -0.00000000000E+00 -0.74505805969E-08  0.93827000000E+00  0.93827000000E+00 0. -1.
     999902    2    1    2    0    0 -0.23142350476E-01 -0.22261400069E-02  0.47222491825E-02  0.10202060939E+01  0.10199302183E+01 0.  0.
     999903    2    3    3    0    0  0.72343447216E-01 -0.61613648358E-01 -0.84329934162E-01  0.12859255367E+00  0.19866832754E-01 0.  0.
         14    1    1    2    0    0  0.23142350476E-01  0.22261400069E-02 -0.47222491825E-02  0.23723906133E-01  0.00000000000E+00 0.  1.
     999901    1    3    3    0    0 -0.95485797692E-01  0.59387508351E-01  0.89052183345E-01  0.89161354020E+00  0.88000000000E+00 0. -1.
        -11    1    4    4    0    0  0.50361043116E-01 -0.48523929618E-01 -0.71311033340E-01  0.99881584921E-01  0.51100000000E-03 0.  1.
         11    1    4    4    0    0  0.21982404100E-01 -0.13089718740E-01 -0.13018900822E-01  0.28710968746E-01  0.51100000000E-03 0. -1.
</event>
<event>
 8    1  0.1070112E+005  0.1043930E+01  0.7957747E-01            NaN
         13   -1    0    0    0    0  0.00000000000E+00  0.00000000000E+00  0.74505805969E-08  0.10566000000E+00  0.10566000000E+00 0.  1.
     999900   -1    0    0    0    0 -0.00000000000E+00 -0.00000000000E+00 -0.74505805969E-08  0.93827000000E+00  0.93827000000E+00 0. -1.
     999902    2    1    2    0    0  0.15465299382E-02 -0.20712235248E-01  0.73594702906E-02  0.10218947953E+01  0.10216571942E+01 0.  0.
     999903    2    3    3    0    0  0.10439467336E+00  0.75906257681E-01  0.22553026926E-02  0.13063785909E+00  0.20028880559E-01 0.  0.
         14    1    1    2    0    0 -0.15465299382E-02  0.20712235248E-01 -0.73594702906E-02  0.22035204714E-01  0.00000000000E+00 0.  1.
     999901    1    3    3    0    0 -0.10284814343E+00 -0.96618492930E-01  0.51041675980E-02  0.89125693619E+00  0.88000000000E+00 0. -1.
        -11    1    4    4    0    0  0.27070744442E-01  0.31156522043E-01  0.82669013859E-03  0.41285573849E-01  0.51100000000E-03 0. -1.
         11    1    4    4    0    0  0.77323928923E-01  0.44749735638E-01  0.14286125540E-02  0.89352285246E-01  0.51100000000E-03 0.  1.
</event>
<event>
 8    1  0.1070112E+005  0.1043930E+01  0.7957747E-01            NaN
         13   -1    0    0    0    0  0.00000000000E+00  0.00000000000E+00  0.74505805969E-08  0.10566000000E+00  0.10566000000E+00 0.  1.
     999900   -1    0    0    0    0 -0.00000000000E+00 -0.00000000000E+00 -0.74505805969E-08  0.93827000000E+00  0.93827000000E+00 0. -1.
     999902    2    1    2    0    0 -0.14001084614E-01 -0.92157882238E-02  0.17097394781E-01  0.10199866913E+01  0.10197056283E+01 0.  0.
     999903    2    3    3    0    0  0.20559052947E-02 -0.96036337242E-01  0.89198742955E-01  0.13263431538E+00  0.20204975953E-01 0.  0.
         14    1    1    2    0    0  0.14001084614E-01  0.92157882238E-02 -0.17097394781E-01  0.23943308695E-01  0.00000000000E+00 0. -1.
     999901    1    3    3    0    0 -0.16056989909E-01  0.86820549019E-01 -0.72101348175E-01  0.88735237593E+00  0.88000000000E+00 0. -1.
        -11    1    4    4    0    0  0.98804947302E-02 -0.74330445738E-01  0.70642902110E-01  0.10302096912E+00  0.51100000000E-03 0. -1.
         11    1    4    4    0    0 -0.78245894355E-02 -0.21705891505E-01  0.18555840845E-01  0.29613346253E-01  0.51100000000E-03 0.  1.
</event>
<event>
 8    1  0.1070112E+005  0.1043930E+01  0.7957747E-01            NaN
         13   -1    0    0    0    0  0.00000000000E+00  0.00000000000E+00  0.74505805969E-08  0.10566000000E+00  0.10566000000E+00 0. -1.
     999900   -1    0    0    0    0 -0.00000000000E+00 -0.00000000000E+00 -0.74505805969E-08  0.93827000000E+00  0.93827000000E+00 0. -1.
     999902    2    1    2    0    0 -0.10704647568E-02  0.12312485373E-01  0.20644337372E-01  0.10198689972E+01  0.10195851311E+01 0.  0.
     999903    2    3    3    0    0  0.10267601667E+00 -0.71270177402E-01 -0.23011562751E-01  0.12877122952E+00  0.20753191200E-01 0.  0.
         14    1    1    2    0    0  0.10704647568E-02 -0.12312485373E-01 -0.20644337372E-01  0.24061002814E-01  0.00000000000E+00 0.  1.
     999901    1    3    3    0    0 -0.10374648143E+00  0.83582662776E-01  0.43655900123E-01  0.89109776767E+00  0.88000000000E+00 0.  1.
        -11    1    4    4    0    0  0.74310978021E-01 -0.61906059415E-01 -0.15361819691E-01  0.97932263692E-01  0.51100000000E-03 0. -1.
         11    1    4    4    0    0  0.28365038652E-01 -0.93641179876E-02 -0.76497430604E-02  0.30838965827E-01  0.51100000000E-03 0.  1.
</event>
<event>
 8    1  0.1070112E+005  0.1043930E+01  0.7957747E-01            NaN
         13   -1    0    0    0    0  0.00000000000E+00  0.00000000000E+00  0.74505805969E-08  0.10566000000E+00  0.10566000000E+00 0. -1.
     999900   -1    0    0    0    0 -0.00000000000E+00 -0.00000000000E+00 -0.74505805969E-08  0.93827000000E+00  0.93827000000E+00 0.  1.
     999902    2    1    2    0    0 -0.18665514676E-01 -0.13465174881E-01  0.47364227313E-02  0.10204322113E+01  0.10201616302E+01 0.  0.
     999903    2    3    3    0    0 -0.24843278548E-01 -0.11716996126E+00  0.54062383763E-01  0.13294931125E+00  0.20169028541E-01 0.  0.
         14    1    1    2    0    0  0.18665514676E-01  0.13465174881E-01 -0.47364227313E-02  0.23497788683E-01  0.00000000000E+00 0. -1.
     999901    1    3    3    0    0  0.61777638719E-02  0.10370478638E+00 -0.49325961031E-01  0.88748290007E+00  0.88000000000E+00 0.  1.
        -11    1    4    4    0    0 -0.56766246832E-02 -0.68747041919E-01  0.25459847088E-01  0.73531250330E-01  0.51100000000E-03 0.  1.
         11    1    4    4    0    0 -0.19166653865E-01 -0.48422919342E-01  0.28602536675E-01  0.59418060917E-01  0.51100000000E-03 0. -1.
</event>
<event>
 8    1  0.1070112E+005  0.1043930E+01  0.7957747E-01            NaN
         13   -1    0    0    0    0  0.00000000000E+00  0.00000000000E+00  0.74505805969E-08  0.10566000000E+00  0.10566000000E+00 0. -1.
     999900   -1    0    0    0    0 -0.00000000000E+00 -0.00000000000E+00 -0.74505805969E-08  0.93827000000E+00  0.93827000000E+00 0.  1.
     999902    2    1    2    0    0 -0.60431189603E-02  0.21763751705E-01  0.24721837642E-02  0.10212079431E+01  0.10209551270E+01 0.  0.
     999903    2    3    3    0    0  0.69560531322E-01  0.48478864598E-01  0.98712016420E-01  0.13233690943E+00  0.24085837771E-01 0.  0.
         14    1    1    2    0    0  0.60431189603E-02 -0.21763751705E-01 -0.24721837642E-02  0.22722056852E-01  0.00000000000E+00 0.  1.
     999901    1    3    3    0    0 -0.75603650282E-01 -0.26715112893E-01 -0.96239832656E-01  0.88887103372E+00  0.88000000000E+00 0.  1.
        -11    1    4    4    0    0  0.38959267634E-01  0.38930097248E-01  0.52490614171E-01  0.76084838854E-01  0.51100000000E-03 0.  1.
         11    1    4    4    0    0  0.30601263688E-01  0.95487673499E-02  0.46221402249E-01  0.56252070576E-01  0.51100000000E-03 0. -1.
</event>
<event>
 8    1  0.1070112E+005  0.1043930E+01  0.7957747E-01            NaN
         13   -1    0    0    0    0  0.00000000000E+00  0.00000000000E+00  0.74505805969E-08  0.10566000000E+00  0.10566000000E+00 0.  1.
     999900   -1    0    0    0    0 -0.00000000000E+00 -0.00000000000E+00 -0.74505805969E-08  0.93827000000E+00  0.93827000000E+00 0. -1.
     999902    2    1    2    0    0 -0.47463798975E-02  0.13484468404E-01  0.18532968441E-01  0.10205242330E+01  0.10202557915E+01 0.  0.
     999903    2    3    3    0    0 -0.94277203786E-01  0.74644222200E-01  0.53688375759E-01  0.13317301358E+00  0.19815619946E-01 0.  0.
         14    1    1    2    0    0  0.47463798975E-02 -0.13484468404E-01 -0.18532968441E-01  0.23405767014E-01  0.00000000000E+00 0. -1.
     999901    1    3    3    0    0  0.89530823889E-01 -0.61159753795E-01 -0.35155407318E-01  0.88735121940E+00  0.88000000000E+00 0.  1.
        -11    1    4    4    0    0 -0.39760084876E-01  0.19424668001E-01  0.18394860122E-01  0.47925088171E-01  0.51100000000E-03 0.  1.
         11    1    4    4    0    0 -0.54517118910E-01  0.55219554199E-01  0.35293515637E-01  0.85247925413E-01  0.51100000000E-03 0. -1.
</event>
<event>
 8    1  0.1070112E+005  0.1043930E+01  0.7957747E-01            NaN
         13   -1    0    0    0    0  0.00000000000E+00  0.00000000000E+00  0.74505805969E-08  0.10566000000E+00  0.10566000000E+00 0. -1.
     999900   -1    0    0    0    0 -0.00000000000E+00 -0.00000000000E+00 -0.74505805969E-08  0.93827000000E+00  0.93827000000E+00 0.  1.
     999902    2    1    2    0    0 -0.71876134970E-02  0.20688062996E-01 -0.80197317479E-02  0.10206067533E+01  0.10203402232E+01 0.  0.
     999903    2    3    3    0    0 -0.99944467931E-01  0.81070641135E-01  0.26926436716E-01  0.13298570553E+00  0.19970462133E-01 0.  0.
         14    1    1    2    0    0  0.71876134970E-02 -0.20688062996E-01  0.80197317479E-02  0.23323246678E-01  0.00000000000E+00 0. -1.
     999901    1    3    3    0    0  0.92756854434E-01 -0.60382578140E-01 -0.34946168463E-01  0.88762104779E+00  0.88000000000E+00 0.  1.
        -11    1    4    4    0    0 -0.33259045225E-01  0.15980380505E-01  0.48618275350E-02  0.37221433857E-01  0.51100000000E-03 0. -1.
         11    1    4    4    0    0 -0.66685422706E-01  0.65090260631E-01  0.22064609181E-01  0.95764271677E-01  0.51100000000E-03 0.  1.
</event>
<event>
 8    1  0.1070112E+005  0.1043930E+01  0.7957747E-01            NaN
         13   -1    0    0    0    0  0.00000000000E+00  0.00000000000E+00  0.74505805969E-08  0.10566000000E+00  0.10566000000E+00 0.  1.
     999900   -1    0    0    0    0 -0.00000000000E+00 -0.00000000000E+00 -0.74505805969E-08  0.93827000000E+00  0.93827000000E+00 0. -1.
     999902    2    1    2    0    0  0.18856322421E-01 -0.37613640685E-02  0.14313723653E-01  0.10199593630E+01  0.10196776504E+01 0.  0.
     999903    2    3    3    0    0  0.18734171542E-01 -0.10675300274E+00 -0.69218559044E-01  0.13002400868E+00  0.19179706476E-01 0.  0.
         14    1    1    2    0    0 -0.18856322421E-01  0.37613640685E-02 -0.14313723653E-01  0.23970637032E-01  0.00000000000E+00 0. -1.
     999901    1    3    3    0    0  0.12215087914E-03  0.10299163867E+00  0.83532282697E-01  0.88993535429E+00  0.88000000000E+00 0.  1.
        -11    1    4    4    0    0  0.76117734771E-02 -0.41159876448E-01 -0.37984604499E-01  0.56525797868E-01  0.51100000000E-03 0. -1.
         11    1    4    4    0    0  0.11122398065E-01 -0.65593126290E-01 -0.31233954544E-01  0.73498210813E-01  0.51100000000E-03 0.  1.
</event>
<event>
 8    1  0.1070112E+005  0.1043930E+01  0.7957747E-01            NaN
         13   -1    0    0    0    0  0.00000000000E+00  0.00000000000E+00  0.74505805969E-08  0.10566000000E+00  0.10566000000E+00 0. -1.
     999900   -1    0    0    0    0 -0.00000000000E+00 -0.00000000000E+00 -0.74505805969E-08  0.93827000000E+00  0.93827000000E+00 0.  1.
     999902    2    1    2    0    0  0.26379995104E-02  0.18951926053E-01 -0.11923751929E-01  0.10213842598E+01  0.10211353954E+01 0.  0.
     999903    2    3    3    0    0  0.11878614546E+00  0.48320409365E-01 -0.29244353246E-01  0.13309776159E+00  0.20365942864E-01 0.  0.
         14    1    1    2    0    0 -0.26379995104E-02 -0.18951926053E-01  0.11923751929E-01  0.22545740232E-01  0.00000000000E+00 0. -1.
     999901    1    3    3    0    0 -0.11614814595E+00 -0.29368483312E-01  0.17320601316E-01  0.88828649818E+00  0.88000000000E+00 0. -1.
        -11    1    4    4    0    0  0.86111340765E-01  0.43308791090E-01 -0.17208954492E-01  0.97914368862E-01  0.51100000000E-03 0.  1.
         11    1    4    4    0    0  0.32674804694E-01  0.50116182755E-02 -0.12035398753E-01  0.35183392725E-01  0.51100000000E-03 0. -1.
</event>
<event>
 8    1  0.1070112E+005  0.1043930E+01  0.7957747E-01            NaN
         13   -1    0    0    0    0  0.00000000000E+00  0.00000000000E+00  0.74505805969E-08  0.10566000000E+00  0.10566000000E+00 0.  1.
     999900   -1    0    0    0    0 -0.00000000000E+00 -0.00000000000E+00 -0.74505805969E-08  0.93827000000E+00  0.93827000000E+00 0.  1.
     999902    2    1    2    0    0  0.88379261600E-03  0.13690497629E-01  0.18860096135E-01  0.10206080352E+01  0.10203415347E+01 0.  0.
     999903    2    3    3    0    0 -0.10981792064E+00  0.48640160317E-01 -0.45896127496E-01  0.13062504846E+00  0.23034927312E-01 0.  0.
         14    1    1    2    0    0 -0.88379261600E-03 -0.13690497629E-01 -0.18860096135E-01  0.23321964775E-01  0.00000000000E+00 0. -1.
     999901    1    3    3    0    0  0.11070171325E+00 -0.34949662687E-01  0.64756223631E-01  0.88998298677E+00  0.88000000000E+00 0. -1.
        -11    1    4    4    0    0 -0.49055921589E-01  0.29679698417E-01 -0.31279167080E-01  0.65314740720E-01  0.51100000000E-03 0. -1.
         11    1    4    4    0    0 -0.60761999049E-01  0.18960461899E-01 -0.14616960416E-01  0.65310307737E-01  0.51100000000E-03 0.  1.
</event>
<event>
 8    1  0.1070112E+005  0.1043930E+01  0.7957747E-01            NaN
         13   -1    0    0    0    0  0.00000000000E+00  0.00000000000E+00  0.74505805969E-08  0.10566000000E+00  0.10566000000E+00 0.  1.
     999900   -1    0    0    0    0 -0.00000000000E+00 -0.00000000000E+00 -0.74505805969E-08  0.93827000000E+00  0.93827000000E+00 0. -1.
     999902    2    1    2    0    0 -0.16146002113E-01  0.80644747001E-02 -0.15214822781E-01  0.10203244928E+01  0.10200513961E+01 0.  0.
     999903    2    3    3    0    0  0.56348460791E-01  0.10694646325E-01 -0.11658465359E+00  0.13153981275E+00  0.20523556963E-01 0.  0.
         14    1    1    2    0    0  0.16146002113E-01 -0.80644747001E-02  0.15214822781E-01  0.23605507169E-01  0.00000000000E+00 0.  1.
     999901    1    3    3    0    0 -0.72494462904E-01 -0.26301716254E-02  0.10136983081E+00  0.88878468008E+00  0.88000000000E+00 0.  1.
        -11    1    4    4    0    0  0.43872061204E-01  0.37603918330E-02 -0.10212849234E+00  0.11121775204E+00  0.51100000000E-03 0. -1.
         11    1    4    4    0    0  0.12476399587E-01  0.69342544924E-02 -0.14456161252E-01  0.20322060702E-01  0.51100000000E-03 0.  1.
</event>
<event>
 8    1  0.1070112E+005  0.1043930E+01  0.7957747E-01            NaN
         13   -1    0    0    0    0  0.00000000000E+00  0.00000000000E+00  0.74505805969E-08  0.10566000000E+00  0.10566000000E+00 0.  1.
     999900   -1    0    0    0    0 -0.00000000000E+00 -0.00000000000E+00 -0.74505805969E-08  0.93827000000E+00  0.93827000000E+00 0.  1.
     999902    2    1    2    0    0 -0.35431059872E-02 -0.25929738300E-01  0.14225194665E-01  0.10141430718E+01  0.10137055337E+01 0.  0.
     999903    2    3    3    0    0  0.51361972813E-01 -0.96008960093E-01  0.64098094143E-01  0.12824636726E+00  0.21972536821E-01 0.  0.
         14    1    1    2    0    0  0.35431059872E-02  0.25929738300E-01 -0.14225194665E-01  0.29786928200E-01  0.00000000000E+00 0. -1.
     999901    1    3    3    0    0 -0.54905078800E-01  0.70079221794E-01 -0.49872899477E-01  0.88589670454E+00  0.88000000000E+00 0.  1.
        -11    1    4    4    0    0  0.29883461739E-01 -0.62823103227E-01  0.28970449081E-01  0.75361207697E-01  0.51100000000E-03 0.  1.
         11    1    4    4    0    0  0.21478511073E-01 -0.33185856866E-01  0.35127645061E-01  0.52885159567E-01  0.51100000000E-03 0. -1.
</event>
<event>
 8    1  0.1070112E+005  0.1043930E+01  0.7957747E-01            NaN
         13   -1    0    0    0    0  0.00000000000E+00  0.00000000000E+00  0.74505805969E-08  0.10566000000E+00  0.10566000000E+00 0. -1.
     999900   -1    0    0    0    0 -0.00000000000E+00 -0.00000000000E+00 -0.74505805969E-08  0.93827000000E+00  0.93827000000E+00 0.  1.
     999902    2    1    2    0    0 -0.19050055708E-01  0.12771823492E-01 -0.10552483511E-01  0.10186836338E+01  0.10183707413E+01 0.  0.
     999903    2    3    3    0    0  0.58229522666E-01 -0.38091318829E-01 -0.10641286734E+00  0.12865644002E+00  0.19676263465E-01 0.  0.
         14    1    1    2    0    0  0.19050055708E-01 -0.12771823492E-01  0.10552483511E-01  0.25246366195E-01  0.00000000000E+00 0.  1.
     999901    1    3    3    0    0 -0.77279578374E-01  0.50863142321E-01  0.95860383830E-01  0.89002719378E+00  0.88000000000E+00 0. -1.
        -11    1    4    4    0    0  0.30302777067E-02  0.69660856904E-03 -0.13315288482E-01  0.13683050641E-01  0.51100000000E-03 0. -1.
         11    1    4    4    0    0  0.55199244959E-01 -0.38787927398E-01 -0.93097578860E-01  0.11497338938E+00  0.51100000000E-03 0.  1.
</event>
<event>
 8    1  0.1070112E+005  0.1043930E+01  0.7957747E-01            NaN
         13   -1    0    0    0    0  0.00000000000E+00  0.00000000000E+00  0.74505805969E-08  0.10566000000E+00  0.10566000000E+00 0. -1.
     999900   -1    0    0    0    0 -0.00000000000E+00 -0.00000000000E+00 -0.74505805969E-08  0.93827000000E+00  0.93827000000E+00 0. -1.
     999902    2    1    2    0    0  0.62727148254E-02 -0.19212077063E-01  0.10757585468E-01  0.10210350988E+01  0.10207783777E+01 0.  0.
     999903    2    3    3    0    0 -0.60062238967E-01 -0.10498411801E+00  0.52616462018E-01  0.13339252734E+00  0.19898157982E-01 0.  0.
         14    1    1    2    0    0 -0.62727148254E-02  0.19212077063E-01 -0.10757585468E-01  0.22894901211E-01  0.00000000000E+00 0. -1.
     999901    1    3    3    0    0  0.66334953792E-01  0.85772040946E-01 -0.41858876550E-01  0.88764257145E+00  0.88000000000E+00 0.  1.
        -11    1    4    4    0    0 -0.93381470292E-02 -0.34367643191E-01  0.14449846814E-01  0.38436897408E-01  0.51100000000E-03 0. -1.
         11    1    4    4    0    0 -0.50724091938E-01 -0.70616474819E-01  0.38166615203E-01  0.94955629932E-01  0.51100000000E-03 0.  1.
</event>
<event>
 8    1  0.1070112E+005  0.1043930E+01  0.7957747E-01            NaN
         13   -1    0    0    0    0  0.00000000000E+00  0.00000000000E+00  0.74505805969E-08  0.10566000000E+00  0.10566000000E+00 0. -1.
     999900   -1    0    0    0    0 -0.00000000000E+00 -0.00000000000E+00 -0.74505805969E-08  0.93827000000E+00  0.93827000000E+00 0.  1.
     999902    2    1    2    0    0 -0.15614073957E-02  0.23563424811E-01 -0.87255673573E-03  0.10202987847E+01  0.10200250858E+01 0.  0.
     999903    2    3    3    0    0 -0.11669880472E+00  0.12141727148E-01 -0.54891348657E-01  0.13108277869E+00  0.20089851963E-01 0.  0.
         14    1    1    2    0    0  0.15614073957E-02 -0.23563424811E-01  0.87255673573E-03  0.23631215312E-01  0.00000000000E+00 0. -1.
     999901    1    3    3    0    0  0.11513739732E+00  0.11421697663E-01  0.54018791921E-01  0.88921600600E+00  0.88000000000E+00 0. -1.
        -11    1    4    4    0    0 -0.53697724069E-01  0.10833090518E-01 -0.34970564179E-01  0.64992329549E-01  0.51100000000E-03 0.  1.
         11    1    4    4    0    0 -0.63001080648E-01  0.13086366300E-02 -0.19920784478E-01  0.66090449142E-01  0.51100000000E-03 0. -1.
</event>
<event>
 8    1  0.1070112E+005  0.1043930E+01  0.7957747E-01            NaN
         13   -1    0    0    0    0  0.00000000000E+00  0.00000000000E+00  0.74505805969E-08  0.10566000000E+00  0.10566000000E+00 0.  1.
     999900   -1    0    0    0    0 -0.00000000000E+00 -0.00000000000E+00 -0.74505805969E-08  0.93827000000E+00  0.93827000000E+00 0.  1.
     999902    2    1    2    0    0  0.14412979331E-01  0.18938240480E-01 -0.15785076730E-02  0.10200787398E+01  0.10197998592E+01 0.  0.
     999903    2    3    3    0    0  0.49423404980E-01 -0.54991411128E-01  0.10483881439E+00  0.12990124644E+00  0.20406581440E-01 0.  0.
         14    1    1    2    0    0 -0.14412979331E-01 -0.18938240480E-01  0.15785076730E-02  0.23851260179E-01  0.00000000000E+00 0.  1.
     999901    1    3    3    0    0 -0.35010425649E-01  0.73929651608E-01 -0.10641732206E+00  0.89017749338E+00  0.88000000000E+00 0.  1.
        -11    1    4    4    0    0  0.14625528425E-01 -0.14650888644E-01  0.46459174008E-01  0.50865219849E-01  0.51100000000E-03 0.  1.
         11    1    4    4    0    0  0.34797876556E-01 -0.40340522484E-01  0.58379640380E-01  0.79036026589E-01  0.51100000000E-03 0. -1.
</event>
<event>
 8    1  0.1070112E+005  0.1043930E+01  0.7957747E-01            NaN
         13   -1    0    0    0    0  0.00000000000E+00  0.00000000000E+00  0.74505805969E-08  0.10566000000E+00  0.10566000000E+00 0.  1.
     999900   -1    0    0    0    0 -0.00000000000E+00 -0.00000000000E+00 -0.74505805969E-08  0.93827000000E+00  0.93827000000E+00 0.  1.
     999902    2    1    2    0    0 -0.10364278922E-01  0.16468313606E-01 -0.94496303296E-02  0.10222985612E+01  0.10220696792E+01 0.  0.
     999903    2    3    3    0    0 -0.55370830389E-01 -0.39466284228E-01  0.11039407496E+00  0.13127848141E+00  0.20583280765E-01 0.  0.
         14    1    1    2    0    0  0.10364278922E-01 -0.16468313606E-01  0.94496303296E-02  0.21631438786E-01  0.00000000000E+00 0. -1.
     999901    1    3    3    0    0  0.45006551466E-01  0.55934597834E-01 -0.11984370529E+00  0.89102007980E+00  0.88000000000E+00 0.  1.
        -11    1    4    4    0    0 -0.49460908830E-01 -0.34905040503E-01  0.82070937385E-01  0.10198354396E+00  0.51100000000E-03 0. -1.
         11    1    4    4    0    0 -0.59099215590E-02 -0.45612437251E-02  0.28323137576E-01  0.29294937451E-01  0.51100000000E-03 0.  1.
</event>
<event>
 8    1  0.1070112E+005  0.1043930E+01  0.7957747E-01            NaN
         13   -1    0    0    0    0  0.00000000000E+00  0.00000000000E+00  0.74505805969E-08  0.10566000000E+00  0.10566000000E+00 0.  1.
     999900   -1    0    0    0    0 -0.00000000000E+00 -0.00000000000E+00 -0.74505805969E-08  0.93827000000E+00  0.93827000000E+00 0. -1.
     999902    2    1    2    0    0  0.10207563404E-01  0.17962259212E-01 -0.12589536620E-01  0.10197363327E+01  0.10194492899E+01 0.  0.
     999903    2    3    3    0    0  0.10959193955E+00  0.72371444158E-01  0.35343574227E-02  0.13232572106E+00  0.15798279336E-01 0.  0.
         14    1    1    2    0    0 -0.10207563404E-01 -0.17962259212E-01  0.12589536620E-01  0.24193667332E-01  0.00000000000E+00 0.  1.
     999901    1    3    3    0    0 -0.99384376141E-01 -0.54409184946E-01 -0.16123894043E-01  0.88741061160E+00  0.88000000000E+00 0.  1.
        -11    1    4    4    0    0  0.41566715294E-01  0.23511472962E-01  0.81254390355E-02  0.48444453364E-01  0.51100000000E-03 0. -1.
         11    1    4    4    0    0  0.68025224251E-01  0.48859971196E-01 -0.45910816128E-02  0.83881267701E-01  0.51100000000E-03 0.  1.
</event>
<event>
 8    1  0.1070112E+005  0.1043930E+01  0.7957747E-01            NaN
         13   -1    0    0    0    0  0.00000000000E+00  0.00000000000E+00  0.74505805969E-08  0.10566000000E+00  0.10566000000E+00 0.  1.
     999900   -1    0    0    0    0 -0.00000000000E+00 -0.00000000000E+00 -0.74505805969E-08  0.93827000000E+00  0.93827000000E+00 0.  1.
     999902    2    1    2    0    0 -0.21806251871E-01  0.84057152971E-02  0.29721354541E-02  0.10203715141E+01  0.10200995169E+01 0.  0.
     999903    2    3    3    0    0  0.11120382138E+00 -0.43492207294E-01  0.41625047171E-01  0.12802678161E+00  0.20008754898E-01 0.  0.
         14    1    1    2    0    0  0.21806251871E-01 -0.84057152971E-02 -0.29721354541E-02  0.23558485933E-01  0.00000000000E+00 0. -1.
     999901    1    3    3    0    0 -0.13301007325E+00  0.51897922591E-01 -0.38652911717E-01  0.89234473246E+00  0.88000000000E+00 0. -1.
        -11    1    4    4    0    0  0.23201035992E-01 -0.85118131545E-02  0.34877768565E-03  0.24720877840E-01  0.51100000000E-03 0. -1.
         11    1    4    4    0    0  0.88002785390E-01 -0.34980394140E-01  0.41276269485E-01  0.10330590377E+00  0.51100000000E-03 0.  1.
</event>
<event>
 8    1  0.1070112E+005  0.1043930E+01  0.7957747E-01            NaN
         13   -1    0    0    0    0  0.00000000000E+00  0.00000000000E+00  0.74505805969E-08  0.10566000000E+00  0.10566000000E+00 0.  1.
     999900   -1    0    0    0    0 -0.00000000000E+00 -0.00000000000E+00 -0.74505805969E-08  0.93827000000E+00  0.93827000000E+00 0.  1.
     999902    2    1    2    0    0 -0.91349754545E-02 -0.20207425729E-01  0.86487170149E-02  0.10201268881E+01  0.10198491455E+01 0.  0.
     999903    2    3    3    0    0 -0.11180307151E+00 -0.31753660640E-01  0.60530923104E-01  0.13256516245E+00  0.20032670358E-01 0.  0.
         14    1    1    2    0    0  0.91349754545E-02  0.20207425729E-01 -0.86487170149E-02  0.23803111921E-01  0.00000000000E+00 0.  1.
     999901    1    3    3    0    0  0.10266809605E+00  0.11546234911E-01 -0.51882206090E-01  0.88756172563E+00  0.88000000000E+00 0.  1.
        -11    1    4    4    0    0 -0.52353017068E-01 -0.11325388697E-01  0.17376580160E-01  0.56314380795E-01  0.51100000000E-03 0. -1.
         11    1    4    4    0    0 -0.59450054439E-01 -0.20428271943E-01  0.43154342945E-01  0.76250781658E-01  0.51100000000E-03 0.  1.
</event>
<event>
 8    1  0.1070112E+005  0.1043930E+01  0.7957747E-01            NaN
         13   -1    0    0    0    0  0.00000000000E+00  0.00000000000E+00  0.74505805969E-08  0.10566000000E+00  0.10566000000E+00 0.  1.
     999900   -1    0    0    0    0 -0.00000000000E+00 -0.00000000000E+00 -0.74505805969E-08  0.93827000000E+00  0.93827000000E+00 0.  1.
     999902    2    1    2    0    0  0.20835736549E-01  0.80826908530E-02  0.77823890568E-02  0.10202651867E+01  0.10199906999E+01 0.  0.
     999903    2    3    3    0    0 -0.67689703532E-01 -0.90529806742E-01 -0.58247503112E-01  0.12789691918E+00  0.13686067503E-01 0.  0.
         14    1    1    2    0    0 -0.20835736549E-01 -0.80826908530E-02 -0.77823890568E-02  0.23664813298E-01  0.00000000000E+00 0. -1.
     999901    1    3    3    0    0  0.88525440081E-01  0.98612497595E-01  0.66029892169E-01  0.89236826752E+00  0.88000000000E+00 0. -1.
        -11    1    4    4    0    0 -0.54843691246E-01 -0.63635556716E-01 -0.44559493652E-01  0.95095342386E-01  0.51100000000E-03 0. -1.
         11    1    4    4    0    0 -0.12846012286E-01 -0.26894250026E-01 -0.13688009459E-01  0.32801576792E-01  0.51100000000E-03 0.  1.
</event>
<event>
 8    1  0.1117923E+005  0.1043930E+01  0.7957747E-01            NaN
         13   -1    0    0    0    0  0.00000000000E+00  0.00000000000E+00  0.74505805969E-08  0.10566000000E+00  0.10566000000E+00 0.  1.
     999900   -1    0    0    0    0 -0.00000000000E+00 -0.00000000000E+00 -0.74505805969E-08  0.93827000000E+00  0.93827000000E+00 0. -1.
     999902    2    1    2    0    0  0.26059192590E-01 -0.23639834575E-01  0.13152274716E-01  0.10063679763E+01  0.10056667430E+01 0.  0.
     999903    2    3    3    0    0 -0.18591416084E-01 -0.11649966760E+00  0.95490418621E-02  0.12034900991E+00  0.21791894870E-01 0.  0.
         14    1    1    2    0    0 -0.26059192590E-01  0.23639834575E-01 -0.13152274716E-01  0.37562023740E-01  0.00000000000E+00 0. -1.
     999901    1    3    3    0    0  0.44650608674E-01  0.92859833028E-01  0.36032328544E-02  0.88601896635E+00  0.88000000000E+00 0.  1.
        -11    1    4    4    0    0  0.15563942951E-02 -0.52275653859E-01  0.87758122416E-02  0.53032465067E-01  0.51100000000E-03 0.  1.
         11    1    4    4    0    0 -0.20147810379E-01 -0.64224013745E-01  0.77322962050E-03  0.67316544843E-01  0.51100000000E-03 0. -1.
</event>
<event>
 8    1  0.1199964E+005  0.1043930E+01  0.7957747E-01            NaN
         13   -1    0    0    0    0  0.00000000000E+00  0.00000000000E+00  0.74505805969E-08  0.10566000000E+00  0.10566000000E+00 0. -1.
     999900   -1    0    0    0    0 -0.00000000000E+00 -0.00000000000E+00 -0.74505805969E-08  0.93827000000E+00  0.93827000000E+00 0. -1.
     999902    2    1    2    0    0 -0.68495430287E-02 -0.21099801518E-01  0.75139311654E-02  0.10205082788E+01  0.10202394670E+01 0.  0.
     999903    2    3    3    0    0 -0.18832858143E-01  0.84140429174E-01  0.95007500909E-01  0.12984884288E+00  0.20000210012E-01 0.  0.
         14    1    1    2    0    0  0.68495430287E-02  0.21099801518E-01 -0.75139311654E-02  0.23421721229E-01  0.00000000000E+00 0. -1.
     999901    1    3    3    0    0  0.11983315114E-01 -0.10524023069E+00 -0.87493569743E-01  0.89065943589E+00  0.88000000000E+00 0. -1.
        -11    1    4    4    0    0 -0.21746653439E-01  0.53960607947E-01  0.63227114858E-01  0.85922018832E-01  0.51100000000E-03 0. -1.
         11    1    4    4    0    0  0.29137952962E-02  0.30179821227E-01  0.31780386051E-01  0.43926824047E-01  0.51100000000E-03 0.  1.
</event>
<event>
 8    1  0.1070112E+005  0.1043930E+01  0.7957747E-01            NaN
         13   -1    0    0    0    0  0.00000000000E+00  0.00000000000E+00  0.74505805969E-08  0.10566000000E+00  0.10566000000E+00 0. -1.
     999900   -1    0    0    0    0 -0.00000000000E+00 -0.00000000000E+00 -0.74505805969E-08  0.93827000000E+00  0.93827000000E+00 0.  1.
     999902    2    1    2    0    0 -0.11734426347E-01  0.11502595149E-01  0.14348581107E-01  0.10221151373E+01  0.10218823149E+01 0.  0.
     999903    2    3    3    0    0 -0.49047581294E-01  0.12274848844E+00 -0.99480103423E-02  0.13399451219E+00  0.19562968664E-01 0.  0.
         14    1    1    2    0    0  0.11734426347E-01 -0.11502595149E-01 -0.14348581107E-01  0.21814862746E-01  0.00000000000E+00 0.  1.
     999901    1    3    3    0    0  0.37313154946E-01 -0.11124589329E+00  0.24296591449E-01  0.88812062506E+00  0.88000000000E+00 0. -1.
        -11    1    4    4    0    0 -0.19817858582E-01  0.42354585519E-01 -0.12520513628E-01  0.48411597947E-01  0.51100000000E-03 0.  1.
         11    1    4    4    0    0 -0.29229722711E-01  0.80393902919E-01  0.25725032856E-02  0.85582914244E-01  0.51100000000E-03 0. -1.
</event>
<event>
 8    1  0.1070112E+005  0.1043930E+01  0.7957747E-01            NaN
         13   -1    0    0    0    0  0.00000000000E+00  0.00000000000E+00  0.74505805969E-08  0.10566000000E+00  0.10566000000E+00 0.  1.
     999900   -1    0    0    0    0 -0.00000000000E+00 -0.00000000000E+00 -0.74505805969E-08  0.93827000000E+00  0.93827000000E+00 0.  1.
     999902    2    1    2    0    0  0.16085177737E-02 -0.18138725996E-01  0.20723184514E-01  0.10163428456E+01  0.10159683700E+01 0.  0.
     999903    2    3    3    0    0  0.28622329928E-01 -0.46889787564E-01  0.11647304090E+00  0.13027038550E+00  0.19659962697E-01 0.  0.
         14    1    1    2    0    0 -0.16085177737E-02  0.18138725996E-01 -0.20723184514E-01  0.27587154377E-01  0.00000000000E+00 0.  1.
     999901    1    3    3    0    0 -0.27013812154E-01  0.28751061568E-01 -0.95749856388E-01  0.88607246012E+00  0.88000000000E+00 0.  1.
        -11    1    4    4    0    0  0.15922031196E-01 -0.34381902884E-01  0.95486886978E-01  0.10273087671E+00  0.51100000000E-03 0. -1.
         11    1    4    4    0    0  0.12700298732E-01 -0.12507884681E-01  0.20986153924E-01  0.27539508793E-01  0.51100000000E-03 0.  1.
</event>
<event>
 7    1  0.1070112E+005  0.1043930E+01  0.7957747E-01            NaN
         13   -1    0    0    0    0  0.00000000000E+00  0.00000000000E+00  0.74505805969E-08  0.10566000000E+00  0.10566000000E+00 0.  1.
     999900   -1    0    0    0    0 -0.00000000000E+00 -0.00000000000E+00 -0.74505805969E-08  0.93827000000E+00  0.93827000000E+00 0.  1.
     999903    2    1    2    0    0 -0.10379040264E-02  0.89226038676E-01 -0.67039660199E-01  0.11347400581E+00  0.20485866654E-01 0.  0.
         14    1    1    2    0    0 -0.30063614194E-01 -0.28714388576E-01  0.21134322282E-01  0.46636858685E-01  0.00000000000E+00 0.  1.
     999901    1    1    2    0    0  0.31101518221E-01 -0.60511650100E-01  0.45905337918E-01  0.88381913550E+00  0.88000000000E+00 0. -1.
        -11    1    3    3    0    0 -0.66462850363E-02  0.14051173816E-01 -0.67884628423E-02  0.16969176149E-01  0.51100000000E-03 0. -1.
         11    1    3    3    0    0  0.56083810100E-02  0.75174864860E-01 -0.60251197357E-01  0.96504829662E-01  0.51100000000E-03 0.  1.
</event>
<event>
 8    1  0.1070112E+005  0.1043930E+01  0.7957747E-01            NaN
         13   -1    0    0    0    0  0.00000000000E+00  0.00000000000E+00  0.74505805969E-08  0.10566000000E+00  0.10566000000E+00 0. -1.
     999900   -1    0    0    0    0 -0.00000000000E+00 -0.00000000000E+00 -0.74505805969E-08  0.93827000000E+00  0.93827000000E+00 0.  1.
     999902    2    1    2    0    0  0.22282181052E-01  0.72090314798E-02 -0.20319322673E-02  0.10204226719E+01  0.10201518685E+01 0.  0.
     999903    2    3    3    0    0 -0.55923166619E-01  0.80265272448E-01  0.82994423950E-01  0.12987072391E+00  0.20209304716E-01 0.  0.
         14    1    1    2    0    0 -0.22282181052E-01 -0.72090314798E-02  0.20319322673E-02  0.23507328135E-01  0.00000000000E+00 0. -1.
     999901    1    3    3    0    0  0.78205347671E-01 -0.73056240968E-01 -0.85026356218E-01  0.89055194795E+00  0.88000000000E+00 0. -1.
        -11    1    4    4    0    0 -0.49422936676E-01  0.56194319996E-01  0.59499168867E-01  0.95607742816E-01  0.51100000000E-03 0.  1.
         11    1    4    4    0    0 -0.65002299431E-02  0.24070952452E-01  0.23495255083E-01  0.34262981097E-01  0.51100000000E-03 0. -1.
</event>
<event>
 8    1  0.1070112E+005  0.1043930E+01  0.7957747E-01            NaN
         13   -1    0    0    0    0  0.00000000000E+00  0.00000000000E+00  0.74505805969E-08  0.10566000000E+00  0.10566000000E+00 0.  1.
     999900   -1    0    0    0    0 -0.00000000000E+00 -0.00000000000E+00 -0.74505805969E-08  0.93827000000E+00  0.93827000000E+00 0.  1.
     999902    2    1    2    0    0 -0.11222910728E-01 -0.19698795742E-01  0.95719203340E-02  0.10193206941E+01  0.10190235814E+01 0.  0.
     999903    2    3    3    0    0 -0.94459251734E-01  0.39300525297E-01 -0.76404534226E-01  0.12926386495E+00  0.20110007572E-01 0.  0.
         14    1    1    2    0    0  0.11222910728E-01  0.19698795742E-01 -0.95719203340E-02  0.24609305918E-01  0.00000000000E+00 0. -1.
     999901    1    3    3    0    0  0.83236341006E-01 -0.58999321039E-01  0.85976454560E-01  0.89005682913E+00  0.88000000000E+00 0. -1.
        -11    1    4    4    0    0 -0.23744952995E-01  0.10302219642E-01 -0.30903480040E-01  0.40314324028E-01  0.51100000000E-03 0.  1.
         11    1    4    4    0    0 -0.70714298739E-01  0.28998305655E-01 -0.45501054187E-01  0.88949540921E-01  0.51100000000E-03 0. -1.
</event>
<event>
 8    1  0.1070112E+005  0.1043930E+01  0.7957747E-01            NaN
         13   -1    0    0    0    0  0.00000000000E+00  0.00000000000E+00  0.74505805969E-08  0.10566000000E+00  0.10566000000E+00 0.  1.
     999900   -1    0    0    0    0 -0.00000000000E+00 -0.00000000000E+00 -0.74505805969E-08  0.93827000000E+00  0.93827000000E+00 0.  1.
     999902    2    1    2    0    0  0.21731494866E-01 -0.94888713187E-02  0.20392770694E-02  0.10201296807E+01  0.10198520041E+01 0.  0.
     999903    2    3    3    0    0  0.13841284877E-01  0.38911236136E-01 -0.12169221178E+00  0.13012164301E+00  0.20420139700E-01 0.  0.
         14    1    1    2    0    0 -0.21731494866E-01  0.94888713187E-02 -0.20392770694E-02  0.23800319304E-01  0.00000000000E+00 0.  1.
     999901    1    3    3    0    0  0.78902099885E-02 -0.48400107455E-01  0.12373148885E+00  0.89000803769E+00  0.88000000000E+00 0. -1.
        -11    1    4    4    0    0  0.13991279543E-01  0.12043655344E-01 -0.61274932043E-01  0.63997530852E-01  0.51100000000E-03 0.  1.
         11    1    4    4    0    0 -0.14999466585E-03  0.26867580792E-01 -0.60417279741E-01  0.66124112156E-01  0.51100000000E-03 0. -1.
</event>
<event>
 8    1  0.1070112E+005  0.1043930E+01  0.7957747E-01            NaN
         13   -1    0    0    0    0  0.00000000000E+00  0.00000000000E+00  0.74505805969E-08  0.10566000000E+00  0.10566000000E+00 0.  1.
     999900   -1    0    0    0    0 -0.00000000000E+00 -0.00000000000E+00 -0.74505805969E-08  0.93827000000E+00  0.93827000000E+00 0.  1.
     999902    2    1    2    0    0  0.10722239923E-01  0.54506946956E-02  0.19570907390E-01  0.10209583453E+01  0.10206998805E+01 0.  0.
     999903    2    3    3    0    0  0.53661498661E-01 -0.34446664349E-01  0.11588946013E+00  0.13376454306E+00  0.19911225189E-01 0.  0.
         14    1    1    2    0    0 -0.10722239923E-01 -0.54506946956E-02 -0.19570907390E-01  0.22971654657E-01  0.00000000000E+00 0. -1.
     999901    1    3    3    0    0 -0.42939258738E-01  0.39897359044E-01 -0.96318552741E-01  0.88719380228E+00  0.88000000000E+00 0.  1.
        -11    1    4    4    0    0  0.20326940233E-01 -0.20452577883E-01  0.36416399302E-01  0.46453285141E-01  0.51100000000E-03 0. -1.
         11    1    4    4    0    0  0.33334558428E-01 -0.13994086465E-01  0.79473060829E-01  0.87311257923E-01  0.51100000000E-03 0.  1.
</event>
<event>
 8    1  0.1070112E+005  0.1043930E+01  0.7957747E-01            NaN
         13   -1    0    0    0    0  0.00000000000E+00  0.00000000000E+00  0.74505805969E-08  0.10566000000E+00  0.10566000000E+00 0. -1.
     999900   -1    0    0    0    0 -0.00000000000E+00 -0.00000000000E+00 -0.74505805969E-08  0.93827000000E+00  0.93827000000E+00 0. -1.
     999902    2    1    2    0    0 -0.99278428833E-02  0.75172257576E-02 -0.20209776673E-01  0.10201917225E+01  0.10199155086E+01 0.  0.
     999903    2    3    3    0    0  0.71781242956E-01 -0.16922307557E-01  0.10217538317E+00  0.12763819866E+00  0.20317221687E-01 0.  0.
         14    1    1    2    0    0  0.99278428833E-02 -0.75172257576E-02  0.20209776673E-01  0.23738277540E-01  0.00000000000E+00 0. -1.
     999901    1    3    3    0    0 -0.81709085839E-01  0.24439533314E-01 -0.12238515985E+00  0.89255352380E+00  0.88000000000E+00 0. -1.
        -11    1    4    4    0    0  0.50513470784E-01 -0.18610018175E-01  0.61724728455E-01  0.81903276680E-01  0.51100000000E-03 0.  1.
         11    1    4    4    0    0  0.21267772172E-01  0.16877106186E-02  0.40450654719E-01  0.45734921980E-01  0.51100000000E-03 0. -1.
</event>
<event>
 8    1  0.1070112E+005  0.1043930E+01  0.7957747E-01            NaN
         13   -1    0    0    0    0  0.00000000000E+00  0.00000000000E+00  0.74505805969E-08  0.10566000000E+00  0.10566000000E+00 0. -1.
     999900   -1    0    0    0    0 -0.00000000000E+00 -0.00000000000E+00 -0.74505805969E-08  0.93827000000E+00  0.93827000000E+00 0. -1.
     999902    2    1    2    0    0  0.30813925418E-01  0.36550022691E-02 -0.16989719507E-01  0.10085533465E+01  0.10079327087E+01 0.  0.
     999903    2    3    3    0    0 -0.39735456542E-02  0.15052310236E-01 -0.11934343437E+00  0.12186492904E+00  0.19127061854E-01 0.  0.
         14    1    1    2    0    0 -0.30813925418E-01 -0.36550022691E-02  0.16989719507E-01  0.35376653462E-01  0.00000000000E+00 0. -1.
     999901    1    3    3    0    0  0.34787471072E-01 -0.11397307966E-01  0.10235371486E+00  0.88668841749E+00  0.88000000000E+00 0.  1.
        -11    1    4    4    0    0 -0.77573510169E-02  0.22606623980E-02 -0.19221764133E-01  0.20857239191E-01  0.51100000000E-03 0. -1.
         11    1    4    4    0    0  0.37838053628E-02  0.12791647838E-01 -0.10012167024E+00  0.10100768985E+00  0.51100000000E-03 0.  1.
</event>
<event>
 8    1  0.1070112E+005  0.1043930E+01  0.7957747E-01            NaN
         13   -1    0    0    0    0  0.00000000000E+00  0.00000000000E+00  0.74505805969E-08  0.10566000000E+00  0.10566000000E+00 0. -1.
     999900   -1    0    0    0    0 -0.00000000000E+00 -0.00000000000E+00 -0.74505805969E-08  0.93827000000E+00  0.93827000000E+00 0. -1.
     999902    2    1    2    0    0 -0.22985029048E-01  0.42679110293E-02 -0.54277744963E-02  0.10199302633E+01  0.10196478582E+01 0.  0.
     999903    2    3    3    0    0  0.68164823353E-02 -0.61464083070E-01 -0.11329849806E+00  0.13041077610E+00  0.18604379120E-01 0.  0.
         14    1    1    2    0    0  0.22985029048E-01 -0.42679110293E-02  0.54277744963E-02  0.23999736683E-01  0.00000000000E+00 0. -1.
     999901    1    3    3    0    0 -0.29801511383E-01  0.65731994099E-01  0.10787072356E+00  0.88951948721E+00  0.88000000000E+00 0.  1.
        -11    1    4    4    0    0 -0.47892091914E-02 -0.19040769973E-01 -0.45947419346E-01  0.49969129584E-01  0.51100000000E-03 0. -1.
         11    1    4    4    0    0  0.11605691527E-01 -0.42423313097E-01 -0.67351078714E-01  0.80441646520E-01  0.51100000000E-03 0.  1.
</event>
<event>
 8    1  0.1070112E+005  0.1043930E+01  0.7957747E-01            NaN
         13   -1    0    0    0    0  0.00000000000E+00  0.00000000000E+00  0.74505805969E-08  0.10566000000E+00  0.10566000000E+00 0.  1.
     999900   -1    0    0    0    0 -0.00000000000E+00 -0.00000000000E+00 -0.74505805969E-08  0.93827000000E+00  0.93827000000E+00 0.  1.
     999902    2    1    2    0    0 -0.11216141792E-01 -0.22156779471E-01 -0.93448805258E-02  0.10173960311E+01  0.10170499656E+01 0.  0.
     999903    2    3    3    0    0 -0.19127676044E-02  0.11818280194E+00  0.35675087675E-01  0.12509084317E+00  0.20104074490E-01 0.  0.
         14    1    1    2    0    0  0.11216141792E-01  0.22156779471E-01  0.93448805258E-02  0.26533968894E-01  0.00000000000E+00 0.  1.
     999901    1    3    3    0    0 -0.93033741879E-02 -0.14033958141E+00 -0.45019968200E-01  0.89230518794E+00  0.88000000000E+00 0. -1.
        -11    1    4    4    0    0 -0.68738286517E-02  0.20350968294E-01  0.10674493117E-01  0.23992026908E-01  0.51100000000E-03 0. -1.
         11    1    4    4    0    0  0.49610610472E-02  0.97831833641E-01  0.25000594557E-01  0.10109881626E+00  0.51100000000E-03 0.  1.
</event>
<event>
 8    1  0.1070112E+005  0.1043930E+01  0.7957747E-01            NaN
         13   -1    0    0    0    0  0.00000000000E+00  0.00000000000E+00  0.74505805969E-08  0.10566000000E+00  0.10566000000E+00 0. -1.
     999900   -1    0    0    0    0 -0.00000000000E+00 -0.00000000000E+00 -0.74505805969E-08  0.93827000000E+00  0.93827000000E+00 0.  1.
     999902    2    1    2    0    0 -0.18157332790E-01 -0.10754033544E-01  0.11004307335E-01  0.10201301523E+01  0.10198524868E+01 0.  0.
     999903    2    3    3    0    0 -0.94908394974E-01 -0.83410834787E-01 -0.34028757933E-01  0.13266313133E+00  0.21830695152E-01 0.  0.
         14    1    1    2    0    0  0.18157332790E-01  0.10754033544E-01 -0.11004307335E-01  0.23799847719E-01  0.00000000000E+00 0.  1.
     999901    1    3    3    0    0  0.76751062185E-01  0.72656801243E-01  0.45033065268E-01  0.88746702095E+00  0.88000000000E+00 0. -1.
        -11    1    4    4    0    0 -0.53281257078E-01 -0.56627706750E-01 -0.28669749457E-01  0.82872222020E-01  0.51100000000E-03 0. -1.
         11    1    4    4    0    0 -0.41627137896E-01 -0.26783128037E-01 -0.53590084757E-02  0.49790909308E-01  0.51100000000E-03 0.  1.
</event>
<event>
 8    1  0.1070112E+005  0.1043930E+01  0.7957747E-01            NaN
         13   -1    0    0    0    0  0.00000000000E+00  0.00000000000E+00  0.74505805969E-08  0.10566000000E+00  0.10566000000E+00 0.  1.
     999900   -1    0    0    0    0 -0.00000000000E+00 -0.00000000000E+00 -0.74505805969E-08  0.93827000000E+00  0.93827000000E+00 0.  1.
     999902    2    1    2    0    0  0.17599784617E-02 -0.30580925338E-02  0.24006846360E-01  0.10196652493E+01  0.10193764969E+01 0.  0.
     999903    2    3    3    0    0 -0.11406886775E+00  0.28002483222E-01 -0.48355173203E-01  0.12858874145E+00  0.20024884389E-01 0.  0.
         14    1    1    2    0    0 -0.17599784617E-02  0.30580925338E-02 -0.24006846360E-01  0.24264750695E-01  0.00000000000E+00 0. -1.
     999901    1    3    3    0    0  0.11582884621E+00 -0.31060575756E-01  0.72362019563E-01  0.89107650786E+00  0.88000000000E+00 0. -1.
        -11    1    4    4    0    0 -0.67064093703E-01  0.23502211549E-01 -0.21411574380E-01  0.74220369511E-01  0.51100000000E-03 0. -1.
         11    1    4    4    0    0 -0.47004774048E-01  0.45002716724E-02 -0.26943598822E-01  0.54368371936E-01  0.51100000000E-03 0.  1.
</event>
<event>
 8    1  0.1097280E+005  0.1043930E+01  0.7957747E-01            NaN
         13   -1    0    0    0    0  0.00000000000E+00  0.00000000000E+00  0.74505805969E-08  0.10566000000E+00  0.10566000000E+00 0.  1.
     999900   -1    0    0    0    0 -0.00000000000E+00 -0.00000000000E+00 -0.74505805969E-08  0.93827000000E+00  0.93827000000E+00 0. -1.
     999902    2    1    2    0    0  0.97514251026E-02 -0.20714675687E-01  0.20589997775E-01  0.10131381815E+01  0.10126701529E+01 0.  0.
     999903    2    3    3    0    0  0.79240687838E-01 -0.19812504967E-02 -0.92330650917E-01  0.12300854385E+00  0.17976117471E-01 0.  0.
         14    1    1    2    0    0 -0.97514251026E-02  0.20714675687E-01 -0.20589997775E-01  0.30791818536E-01  0.00000000000E+00 0. -1.
     999901    1    3    3    0    0 -0.69489262735E-01 -0.18733425190E-01  0.11292064869E+00  0.89012963761E+00  0.88000000000E+00 0.  1.
        -11    1    4    4    0    0  0.33277076654E-01 -0.86533021739E-02 -0.45690652798E-01  0.57185140931E-01  0.51100000000E-03 0.  1.
         11    1    4    4    0    0  0.45963611183E-01  0.66720516773E-02 -0.46639998119E-01  0.65823402921E-01  0.51100000000E-03 0. -1.
</event>
<event>
 8    1  0.1070112E+005  0.1043930E+01  0.7957747E-01            NaN
         13   -1    0    0    0    0  0.00000000000E+00  0.00000000000E+00  0.74505805969E-08  0.10566000000E+00  0.10566000000E+00 0. -1.
     999900   -1    0    0    0    0 -0.00000000000E+00 -0.00000000000E+00 -0.74505805969E-08  0.93827000000E+00  0.93827000000E+00 0.  1.
     999902    2    1    2    0    0 -0.13710214184E-01  0.91385487527E-02 -0.16375933323E-01  0.10206995407E+01  0.10204351514E+01 0.  0.
     999903    2    3    3    0    0  0.47229838809E-03 -0.74303195296E-01 -0.10729446336E+00  0.13197582245E+00  0.19604283848E-01 0.  0.
         14    1    1    2    0    0  0.13710214184E-01 -0.91385487527E-02  0.16375933323E-01  0.23230459283E-01  0.00000000000E+00 0. -1.
     999901    1    3    3    0    0 -0.14182512572E-01  0.83441744049E-01  0.90918530039E-01  0.88872371827E+00  0.88000000000E+00 0. -1.
        -11    1    4    4    0    0  0.53154195443E-02 -0.60903901315E-01 -0.75636603075E-01  0.97255826180E-01  0.51100000000E-03 0. -1.
         11    1    4    4    0    0 -0.48431211562E-02 -0.13399293981E-01 -0.31657860287E-01  0.34719996266E-01  0.51100000000E-03 0.  1.
</event>
<event>
 8    1  0.1070112E+005  0.1043930E+01  0.7957747E-01            NaN
         13   -1    0    0    0    0  0.00000000000E+00  0.00000000000E+00  0.74505805969E-08  0.10566000000E+00  0.10566000000E+00 0. -1.
     999900   -1    0    0    0    0 -0.00000000000E+00 -0.00000000000E+00 -0.74505805969E-08  0.93827000000E+00  0.93827000000E+00 0. -1.
     999902    2    1    2    0    0 -0.11223448137E-01  0.28677594305E-03 -0.19860182795E-01  0.10211160812E+01  0.10208611935E+01 0.  0.
     999903    2    3    3    0    0  0.11921079865E+00  0.23011921038E-01  0.39818509324E-01  0.12921301966E+00  0.19228305740E-01 0.  0.
         14    1    1    2    0    0  0.11223448137E-01 -0.28677594305E-03  0.19860182795E-01  0.22813918760E-01  0.00000000000E+00 0. -1.
     999901    1    3    3    0    0 -0.13043424679E+00 -0.22725145095E-01 -0.59678692119E-01  0.89190306158E+00  0.88000000000E+00 0. -1.
        -11    1    4    4    0    0  0.84085119266E-02 -0.25602385605E-02  0.57015019336E-02  0.10489334564E-01  0.51100000000E-03 0.  1.
         11    1    4    4    0    0  0.11080228672E+00  0.25572159599E-01  0.34117007390E-01  0.11872368510E+00  0.51100000000E-03 0. -1.
</event>
<event>
 8    1  0.1070112E+005  0.1043930E+01  0.7957747E-01            NaN
         13   -1    0    0    0    0  0.00000000000E+00  0.00000000000E+00  0.74505805969E-08  0.10566000000E+00  0.10566000000E+00 0. -1.
     999900   -1    0    0    0    0 -0.00000000000E+00 -0.00000000000E+00 -0.74505805969E-08  0.93827000000E+00  0.93827000000E+00 0. -1.
     999902    2    1    2    0    0  0.26821110306E-01  0.44458253873E-03  0.19446460021E-03  0.10171045004E+01  0.10167506859E+01 0.  0.
     999903    2    3    3    0    0 -0.11377023287E+00 -0.22792297930E-01  0.41229851520E-01  0.12469776502E+00  0.19659023694E-01 0.  0.
         14    1    1    2    0    0 -0.26821110306E-01 -0.44458253873E-03 -0.19446460021E-03  0.26825499588E-01  0.00000000000E+00 0. -1.
     999901    1    3    3    0    0  0.14059134318E+00  0.23236880469E-01 -0.41035386920E-01  0.89240673539E+00  0.88000000000E+00 0. -1.
        -11    1    4    4    0    0 -0.98104581404E-01 -0.22405076805E-01  0.41896278751E-01  0.10900484234E+00  0.51100000000E-03 0.  1.
         11    1    4    4    0    0 -0.15665651467E-01 -0.38722112508E-03 -0.66642723104E-03  0.15692922683E-01  0.51100000000E-03 0. -1.
</event>
<event>
 8    1  0.1070112E+005  0.1043930E+01  0.7957747E-01            NaN
         13   -1    0    0    0    0  0.00000000000E+00  0.00000000000E+00  0.74505805969E-08  0.10566000000E+00  0.10566000000E+00 0.  1.
     999900   -1    0    0    0    0 -0.00000000000E+00 -0.00000000000E+00 -0.74505805969E-08  0.93827000000E+00  0.93827000000E+00 0. -1.
     999902    2    1    2    0    0 -0.19099019394E-01  0.18715110960E-02 -0.13775055878E-01  0.10203073994E+01  0.10200339024E+01 0.  0.
     999903    2    3    3    0    0  0.98666288516E-01  0.31008794115E-01  0.72599066680E-01  0.12779513725E+00  0.19089023527E-01 0.  0.
         14    1    1    2    0    0  0.19099019394E-01 -0.18715110960E-02  0.13775055878E-01  0.23622600620E-01  0.00000000000E+00 0.  1.
     999901    1    3    3    0    0 -0.11776530791E+00 -0.29137283019E-01 -0.86374122559E-01  0.89251226213E+00  0.88000000000E+00 0. -1.
        -11    1    4    4    0    0  0.90402358650E-02  0.70197478219E-02  0.13860279290E-01  0.17982524488E-01  0.51100000000E-03 0. -1.
         11    1    4    4    0    0  0.89626052651E-01  0.23989046293E-01  0.58738787390E-01  0.10981261276E+00  0.51100000000E-03 0.  1.
</event>
<event>
 8    1  0.1070112E+005  0.1043930E+01  0.7957747E-01            NaN
         13   -1    0    0    0    0  0.00000000000E+00  0.00000000000E+00  0.74505805969E-08  0.10566000000E+00  0.10566000000E+00 0.  1.
     999900   -1    0    0    0    0 -0.00000000000E+00 -0.00000000000E+00 -0.74505805969E-08  0.93827000000E+00  0.93827000000E+00 0.  1.
     999902    2    1    2    0    0 -0.99170909203E-02 -0.19733062027E-02 -0.20846758801E-01  0.10207604082E+01  0.10204974184E+01 0.  0.
     999903    2    3    3    0    0 -0.96175790966E-01  0.86736528144E-01 -0.16274866808E-01  0.13209235985E+00  0.20261099619E-01 0.  0.
         14    1    1    2    0    0  0.99170909203E-02  0.19733062027E-02  0.20846758801E-01  0.23169591758E-01  0.00000000000E+00 0.  1.
     999901    1    3    3    0    0  0.86258700045E-01 -0.88709834347E-01 -0.45718919938E-02  0.88866804840E+00  0.88000000000E+00 0. -1.
        -11    1    4    4    0    0 -0.50600452417E-01  0.46176732413E-01 -0.18767538240E-01  0.71029416539E-01  0.51100000000E-03 0.  1.
         11    1    4    4    0    0 -0.45575338549E-01  0.40559795731E-01  0.24926714328E-02  0.61062943308E-01  0.51100000000E-03 0. -1.
</event>
<event>
 8    1  0.1070112E+005  0.1043930E+01  0.7957747E-01            NaN
         13   -1    0    0    0    0  0.00000000000E+00  0.00000000000E+00  0.74505805969E-08  0.10566000000E+00  0.10566000000E+00 0. -1.
     999900   -1    0    0    0    0 -0.00000000000E+00 -0.00000000000E+00 -0.74505805969E-08  0.93827000000E+00  0.93827000000E+00 0. -1.
     999902    2    1    2    0    0  0.58082282372E-02  0.20360832820E-01 -0.17256958995E-02  0.10226867174E+01  0.10224660605E+01 0.  0.
     999903    2    3    3    0    0  0.59014814503E-02 -0.62929810700E-01  0.11341731781E+00  0.13128599182E+00  0.19430262800E-01 0.  0.
         14    1    1    2    0    0 -0.58082282372E-02 -0.20360832820E-01  0.17256958995E-02  0.21243282579E-01  0.00000000000E+00 0.  1.
     999901    1    3    3    0    0 -0.93253213165E-04  0.83290643520E-01 -0.11514301370E+00  0.89140072560E+00  0.88000000000E+00 0. -1.
        -11    1    4    4    0    0 -0.68206238438E-02 -0.24540590876E-01  0.48923285999E-01  0.55158957061E-01  0.51100000000E-03 0. -1.
         11    1    4    4    0    0  0.12722105294E-01 -0.38389219824E-01  0.64494031806E-01  0.76127034761E-01  0.51100000000E-03 0.  1.
</event>
<event>
 8    1  0.1070112E+005  0.1043930E+01  0.7957747E-01            NaN
         13   -1    0    0    0    0  0.00000000000E+00  0.00000000000E+00  0.74505805969E-08  0.10566000000E+00  0.10566000000E+00 0.  1.
     999900   -1    0    0    0    0 -0.00000000000E+00 -0.00000000000E+00 -0.74505805969E-08  0.93827000000E+00  0.93827000000E+00 0. -1.
     999902    2    1    2    0    0 -0.24144940373E-01  0.50689634253E-02  0.25986580378E-02  0.10191222278E+01  0.10188202441E+01 0.  0.
     999903    2    3    3    0    0  0.30561798380E-01 -0.28307727834E-01 -0.11982870747E+00  0.12833870161E+00  0.19404953552E-01 0.  0.
         14    1    1    2    0    0  0.24144940373E-01 -0.50689634253E-02 -0.25986580378E-02  0.24807772157E-01  0.00000000000E+00 0.  1.
     999901    1    3    3    0    0 -0.54706738753E-01  0.33376691259E-01  0.12242736550E+00  0.89078352623E+00  0.88000000000E+00 0.  1.
        -11    1    4    4    0    0  0.90697599942E-02 -0.37005296793E-02 -0.53575439619E-01  0.54465983124E-01  0.51100000000E-03 0. -1.
         11    1    4    4    0    0  0.21492038386E-01 -0.24607198155E-01 -0.66253267847E-01  0.73872718486E-01  0.51100000000E-03 0.  1.
</event>
<event>
 8    1  0.1070112E+005  0.1043930E+01  0.7957747E-01            NaN
         13   -1    0    0    0    0  0.00000000000E+00  0.00000000000E+00  0.74505805969E-08  0.10566000000E+00  0.10566000000E+00 0.  1.
     999900   -1    0    0    0    0 -0.00000000000E+00 -0.00000000000E+00 -0.74505805969E-08  0.93827000000E+00  0.93827000000E+00 0.  1.
     999902    2    1    2    0    0 -0.12729857231E-01 -0.68412903258E-04  0.20431924025E-01  0.10198568310E+01  0.10195726744E+01 0.  0.
     999903    2    3    3    0    0  0.12636039723E+00  0.41954644322E-02 -0.10450274181E-01  0.12838726356E+00  0.19736496781E-01 0.  0.
         14    1    1    2    0    0  0.12729857231E-01  0.68412903258E-04 -0.20431924025E-01  0.24073168982E-01  0.00000000000E+00 0. -1.
     999901    1    3    3    0    0 -0.13909025446E+00 -0.42638773355E-02  0.30882198206E-01  0.89146956746E+00  0.88000000000E+00 0.  1.
        -11    1    4    4    0    0  0.75898064445E-01 -0.22961435940E-02  0.21671646766E-02  0.75965427568E-01  0.51100000000E-03 0. -1.
         11    1    4    4    0    0  0.50462332782E-01  0.64916080262E-02 -0.12617438857E-01  0.52421835994E-01  0.51100000000E-03 0.  1.
</event>
<event>
 8    1  0.1070112E+005  0.1043930E+01  0.7957747E-01            NaN
         13   -1    0    0    0    0  0.00000000000E+00  0.00000000000E+00  0.74505805969E-08  0.10566000000E+00  0.10566000000E+00 0. -1.
     999900   -1    0    0    0    0 -0.00000000000E+00 -0.00000000000E+00 -0.74505805969E-08  0.93827000000E+00  0.93827000000E+00 0. -1.
     999902    2    1    2    0    0  0.13165405218E-01  0.18212025363E-01  0.64630850476E-02  0.10205467318E+01  0.10202788122E+01 0.  0.
     999903    2    3    3    0    0 -0.10386486748E+00  0.45729804942E-01  0.61498513779E-01  0.13066909341E+00  0.20327789341E-01 0.  0.
         14    1    1    2    0    0 -0.13165405218E-01 -0.18212025363E-01 -0.64630850476E-02  0.23383268179E-01  0.00000000000E+00 0.  1.
     999901    1    3    3    0    0  0.11703027270E+00 -0.27517779579E-01 -0.55035428732E-01  0.88987763841E+00  0.88000000000E+00 0. -1.
        -11    1    4    4    0    0 -0.46617128779E-01  0.25576178415E-01  0.38983281043E-01  0.65933716108E-01  0.51100000000E-03 0. -1.
         11    1    4    4    0    0 -0.57247738703E-01  0.20153626527E-01  0.22515232736E-01  0.64735377306E-01  0.51100000000E-03 0.  1.
</event>
<event>
 8    1  0.1070112E+005  0.1043930E+01  0.7957747E-01            NaN
         13   -1    0    0    0    0  0.00000000000E+00  0.00000000000E+00  0.74505805969E-08  0.10566000000E+00  0.10566000000E+00 0. -1.
     999900   -1    0    0    0    0 -0.00000000000E+00 -0.00000000000E+00 -0.74505805969E-08  0.93827000000E+00  0.93827000000E+00 0.  1.
     999902    2    1    2    0    0 -0.20992014985E-01 -0.15040789231E-03 -0.98772977397E-02  0.10207298206E+01  0.10204661279E+01 0.  0.
     999903    2    3    3    0    0  0.73161204134E-01 -0.94839933743E-01  0.44457009028E-01  0.12899939499E+00  0.17811328833E-01 0.  0.
         14    1    1    2    0    0  0.20992014985E-01  0.15040789231E-03  0.98772977397E-02  0.23200179446E-01  0.00000000000E+00 0. -1.
     999901    1    3    3    0    0 -0.94153219119E-01  0.94689525850E-01 -0.54334306767E-01  0.89173042556E+00  0.88000000000E+00 0.  1.
        -11    1    4    4    0    0  0.52819852824E-01 -0.74924753139E-01  0.40623756955E-01  0.10027066488E+00  0.51100000000E-03 0. -1.
         11    1    4    4    0    0  0.20341351309E-01 -0.19915180604E-01  0.38332520721E-02  0.28728730115E-01  0.51100000000E-03 0.  1.
</event>
<event>
 8    1  0.1070112E+005  0.1043930E+01  0.7957747E-01            NaN
         13   -1    0    0    0    0  0.00000000000E+00  0.00000000000E+00  0.74505805969E-08  0.10566000000E+00  0.10566000000E+00 0. -1.
     999900   -1    0    0    0    0 -0.00000000000E+00 -0.00000000000E+00 -0.74505805969E-08  0.93827000000E+00  0.93827000000E+00 0.  1.
     999902    2    1    2    0    0 -0.14345808877E-01  0.12111672390E-01 -0.95738073169E-02  0.10228550711E+01  0.10226379339E+01 0.  0.
     999903    2    3    3    0    0 -0.59242239907E-01 -0.21615731142E-01 -0.11713739917E+00  0.13452903101E+00  0.20000176922E-01 0.  0.
         14    1    1    2    0    0  0.14345808877E-01 -0.12111672390E-01  0.95738073169E-02  0.21074928872E-01  0.00000000000E+00 0. -1.
     999901    1    3    3    0    0  0.44896431030E-01  0.33727403532E-01  0.10756359185E+00  0.88832604012E+00  0.88000000000E+00 0. -1.
        -11    1    4    4    0    0 -0.23628521826E-01 -0.12203394719E-01 -0.68731398515E-01  0.73698684854E-01  0.51100000000E-03 0. -1.
         11    1    4    4    0    0 -0.35613718081E-01 -0.94123364232E-02 -0.48406000654E-01  0.60830346151E-01  0.51100000000E-03 0.  1.
</event>
<event>
 8    1  0.1070112E+005  0.1043930E+01  0.7957747E-01            NaN
         13   -1    0    0    0    0  0.00000000000E+00  0.00000000000E+00  0.74505805969E-08  0.10566000000E+00  0.10566000000E+00 0.  1.
     999900   -1    0    0    0    0 -0.00000000000E+00 -0.00000000000E+00 -0.74505805969E-08  0.93827000000E+00  0.93827000000E+00 0.  1.
     999902    2    1    2    0    0  0.18808940279E-01  0.11071292030E-02  0.14448630115E-01  0.10201862665E+01  0.10199099242E+01 0.  0.
     999903    2    3    3    0    0 -0.29911903122E-01 -0.12133678240E+00 -0.27035907648E-01  0.12940728213E+00  0.19949126663E-01 0.  0.
         14    1    1    2    0    0 -0.18808940279E-01 -0.11071292030E-02 -0.14448630115E-01  0.23743733525E-01  0.00000000000E+00 0. -1.
     999901    1    3    3    0    0  0.48720843401E-01  0.12244391161E+00  0.41484537762E-01  0.89077898434E+00  0.88000000000E+00 0. -1.
        -11    1    4    4    0    0 -0.21367915500E-01 -0.99103659393E-01 -0.14278902957E-01  0.10238296396E+00  0.51100000000E-03 0.  1.
         11    1    4    4    0    0 -0.85439876215E-02 -0.22233123010E-01 -0.12757004691E-01  0.27024318177E-01  0.51100000000E-03 0. -1.
</event>
<event>
 8    1  0.1070112E+005  0.1043930E+01  0.7957747E-01            NaN
         13   -1    0    0    0    0  0.00000000000E+00  0.00000000000E+00  0.74505805969E-08  0.10566000000E+00  0.10566000000E+00 0.  1.
     999900   -1    0    0    0    0 -0.00000000000E+00 -0.00000000000E+00 -0.74505805969E-08  0.93827000000E+00  0.93827000000E+00 0.  1.
     999902    2    1    2    0    0 -0.37124787646E-02 -0.23874640758E-01  0.21015144621E-02  0.10196772201E+01  0.10193887560E+01 0.  0.
     999903    2    3    3    0    0  0.20551296848E-01  0.69347276911E-01 -0.10393688242E+00  0.12809256436E+00  0.19324308490E-01 0.  0.
         14    1    1    2    0    0  0.37124787646E-02  0.23874640758E-01 -0.21015144621E-02  0.24252779901E-01  0.00000000000E+00 0.  1.
     999901    1    3    3    0    0 -0.24263775613E-01 -0.93221917669E-01  0.10603839689E+00  0.89158465574E+00  0.88000000000E+00 0. -1.
        -11    1    4    4    0    0  0.21777069848E-01  0.40925745186E-01 -0.62095794270E-01  0.77493910581E-01  0.51100000000E-03 0.  1.
         11    1    4    4    0    0 -0.12257730003E-02  0.28421531725E-01 -0.41841088153E-01  0.50598653776E-01  0.51100000000E-03 0. -1.
</event>
<event>
 8    1  0.1070112E+005  0.1043930E+01  0.7957747E-01            NaN
         13   -1    0    0    0    0  0.00000000000E+00  0.00000000000E+00  0.74505805969E-08  0.10566000000E+00  0.10566000000E+00 0. -1.
     999900   -1    0    0    0    0 -0.00000000000E+00 -0.00000000000E+00 -0.74505805969E-08  0.93827000000E+00  0.93827000000E+00 0.  1.
     999902    2    1    2    0    0  0.17871632797E-01  0.60447115125E-03  0.15340993411E-01  0.10203692971E+01  0.10200972481E+01 0.  0.
     999903    2    3    3    0    0  0.60092289862E-01  0.39202922775E-02  0.11735561051E+00  0.13346425104E+00  0.20344900936E-01 0.  0.
         14    1    1    2    0    0 -0.17871632797E-01 -0.60447115125E-03 -0.15340993411E-01  0.23560702940E-01  0.00000000000E+00 0.  1.
     999901    1    3    3    0    0 -0.42220657065E-01 -0.33158211263E-02 -0.10201461710E+00  0.88690504602E+00  0.88000000000E+00 0.  1.
        -11    1    4    4    0    0  0.13738946202E-01 -0.76003498094E-02  0.32160592709E-01  0.35792300908E-01  0.51100000000E-03 0. -1.
         11    1    4    4    0    0  0.46353343660E-01  0.11520642087E-01  0.85195017806E-01  0.97671950131E-01  0.51100000000E-03 0.  1.
</event>
<event>
 8    1  0.1070112E+005  0.1043930E+01  0.7957747E-01            NaN
         13   -1    0    0    0    0  0.00000000000E+00  0.00000000000E+00  0.74505805969E-08  0.10566000000E+00  0.10566000000E+00 0. -1.
     999900   -1    0    0    0    0 -0.00000000000E+00 -0.00000000000E+00 -0.74505805969E-08  0.93827000000E+00  0.93827000000E+00 0. -1.
     999902    2    1    2    0    0 -0.13125165688E-01 -0.93483393758E-02 -0.17287454183E-01  0.10202970252E+01  0.10200232851E+01 0.  0.
     999903    2    3    3    0    0 -0.83191977589E-01 -0.50081358455E-01  0.85370437279E-01  0.13063013273E+00  0.18629879622E-01 0.  0.
         14    1    1    2    0    0  0.13125165688E-01  0.93483393758E-02  0.17287454183E-01  0.23632974751E-01  0.00000000000E+00 0. -1.
     999901    1    3    3    0    0  0.70066811901E-01  0.40733019079E-01 -0.10265789146E+00  0.88966689252E+00  0.88000000000E+00 0. -1.
        -11    1    4    4    0    0 -0.16622103573E-01 -0.18308088282E-01  0.26535240613E-01  0.36274792062E-01  0.51100000000E-03 0. -1.
         11    1    4    4    0    0 -0.66569874016E-01 -0.31773270173E-01  0.58835196667E-01  0.94355340664E-01  0.51100000000E-03 0.  1.
</event>
<event>
 8    1  0.1070112E+005  0.1043930E+01  0.7957747E-01            NaN
         13   -1    0    0    0    0  0.00000000000E+00  0.00000000000E+00  0.74505805969E-08  0.10566000000E+00  0.10566000000E+00 0. -1.
     999900   -1    0    0    0    0 -0.00000000000E+00 -0.00000000000E+00 -0.74505805969E-08  0.93827000000E+00  0.93827000000E+00 0. -1.
     999902    2    1    2    0    0  0.66286589815E-02 -0.11655798412E-01 -0.23146968211E-01  0.10171796936E+01  0.10168278862E+01 0.  0.
     999903    2    3    3    0    0  0.76793058877E-01  0.20044718571E-01 -0.10148191256E+00  0.13035145243E+00  0.19848373705E-01 0.  0.
         14    1    1    2    0    0 -0.66286589815E-02  0.11655798412E-01  0.23146968211E-01  0.26750306426E-01  0.00000000000E+00 0. -1.
     999901    1    3    3    0    0 -0.70164399896E-01 -0.31700516983E-01  0.78334944349E-01  0.88682824115E+00  0.88000000000E+00 0.  1.
        -11    1    4    4    0    0  0.28288115958E-01  0.75636548179E-02 -0.22955049094E-01  0.37210506293E-01  0.51100000000E-03 0.  1.
         11    1    4    4    0    0  0.48504942919E-01  0.12481063753E-01 -0.78526863466E-01  0.93140946135E-01  0.51100000000E-03 0. -1.
</event>
<event>
 8    1  0.1070112E+005  0.1043930E+01  0.7957747E-01            NaN
         13   -1    0    0    0    0  0.00000000000E+00  0.00000000000E+00  0.74505805969E-08  0.10566000000E+00  0.10566000000E+00 0.  1.
     999900   -1    0    0    0    0 -0.00000000000E+00 -0.00000000000E+00 -0.74505805969E-08  0.93827000000E+00  0.93827000000E+00 0. -1.
     999902    2    1    2    0    0  0.12522734096E-01  0.18888720272E-01 -0.46932504747E-02  0.10207863351E+01  0.10205239403E+01 0.  0.
     999903    2    3    3    0    0 -0.82164424099E-01  0.97386615645E-01  0.26625579144E-01  0.13168091587E+00  0.19894638592E-01 0.  0.
         14    1    1    2    0    0 -0.12522734096E-01 -0.18888720272E-01  0.46932504747E-02  0.23143664852E-01  0.00000000000E+00 0.  1.
     999901    1    3    3    0    0  0.94687158195E-01 -0.78497895373E-01 -0.31318829619E-01  0.88910541928E+00  0.88000000000E+00 0.  1.
        -11    1    4    4    0    0 -0.38097941624E-01  0.31790177362E-01  0.14754037438E-01  0.51768825314E-01  0.51100000000E-03 0. -1.
         11    1    4    4    0    0 -0.44066482475E-01  0.65596438283E-01  0.11871541706E-01  0.79912090553E-01  0.51100000000E-03 0.  1.
</event>
<event>
 8    1  0.1070112E+005  0.1043930E+01  0.7957747E-01            NaN
         13   -1    0    0    0    0  0.00000000000E+00  0.00000000000E+00  0.74505805969E-08  0.10566000000E+00  0.10566000000E+00 0.  1.
     999900   -1    0    0    0    0 -0.00000000000E+00 -0.00000000000E+00 -0.74505805969E-08  0.93827000000E+00  0.93827000000E+00 0.  1.
     999902    2    1    2    0    0  0.99727941932E-02 -0.30602679498E-02  0.21491384561E-01  0.10200406410E+01  0.10197608581E+01 0.  0.
     999903    2    3    3    0    0 -0.36740315875E-01 -0.10877809168E+00 -0.55670613693E-01  0.12913528861E+00  0.19854004530E-01 0.  0.
         14    1    1    2    0    0 -0.99727941932E-02  0.30602679498E-02 -0.21491384561E-01  0.23889359018E-01  0.00000000000E+00 0. -1.
     999901    1    3    3    0    0  0.46713110068E-01  0.10571782373E+00  0.77161998254E-01  0.89090535237E+00  0.88000000000E+00 0. -1.
        -11    1    4    4    0    0 -0.30556896934E-01 -0.70537024408E-01 -0.29284400485E-01  0.82261977823E-01  0.51100000000E-03 0.  1.
         11    1    4    4    0    0 -0.61834189414E-02 -0.38241067272E-01 -0.26386213208E-01  0.46873310789E-01  0.51100000000E-03 0. -1.
</event>
<event>
 8    1  0.1070112E+005  0.1043930E+01  0.7957747E-01            NaN
         13   -1    0    0    0    0  0.00000000000E+00  0.00000000000E+00  0.74505805969E-08  0.10566000000E+00  0.10566000000E+00 0. -1.
     999900   -1    0    0    0    0 -0.00000000000E+00 -0.00000000000E+00 -0.74505805969E-08  0.93827000000E+00  0.93827000000E+00 0. -1.
     999902    2    1    2    0    0  0.23464459006E-01  0.94182796200E-03 -0.10143945211E-01  0.10183493921E+01  0.10180280531E+01 0.  0.
     999903    2    3    3    0    0 -0.11921981345E-01  0.46149865545E-01 -0.11917882268E+00  0.12976367798E+00  0.19054569533E-01 0.  0.
         14    1    1    2    0    0 -0.23464459006E-01 -0.94182796200E-03  0.10143945211E-01  0.25580607905E-01  0.00000000000E+00 0.  1.
     999901    1    3    3    0    0  0.35386440350E-01 -0.45208037583E-01  0.10903487746E+00  0.88858571411E+00  0.88000000000E+00 0.  1.
        -11    1    4    4    0    0 -0.20533402515E-02  0.13365905868E-01 -0.15495435467E-01  0.20572634424E-01  0.51100000000E-03 0.  1.
         11    1    4    4    0    0 -0.98686410933E-02  0.32783959678E-01 -0.10368338721E+00  0.10919104356E+00  0.51100000000E-03 0. -1.
</event>
<event>
 8    1  0.1070112E+005  0.1043930E+01  0.7957747E-01            NaN
         13   -1    0    0    0    0  0.00000000000E+00  0.00000000000E+00  0.74505805969E-08  0.10566000000E+00  0.10566000000E+00 0.  1.
     999900   -1    0    0    0    0 -0.00000000000E+00 -0.00000000000E+00 -0.74505805969E-08  0.93827000000E+00  0.93827000000E+00 0.  1.
     999902    2    1    2    0    0 -0.12489342096E-01 -0.13403839480E-01 -0.15900526415E-01  0.10196715310E+01  0.10193829299E+01 0.  0.
     999903    2    3    3    0    0 -0.91435428983E-01  0.57667361900E-02 -0.93880495170E-01  0.13249574731E+00  0.18651615544E-01 0.  0.
         14    1    1    2    0    0  0.12489342096E-01  0.13403839480E-01  0.15900526415E-01  0.24258469018E-01  0.00000000000E+00 0.  1.
     999901    1    3    3    0    0  0.78946086887E-01 -0.19170575670E-01  0.77979968755E-01  0.88717578367E+00  0.88000000000E+00 0. -1.
        -11    1    4    4    0    0 -0.22707637154E-01 -0.13455978655E-02 -0.34833342346E-01  0.41606132706E-01  0.51100000000E-03 0.  1.
         11    1    4    4    0    0 -0.68727791829E-01  0.71123340556E-02 -0.59047152825E-01  0.90889614605E-01  0.51100000000E-03 0. -1.
</event>
<event>
 8    1  0.1070112E+005  0.1043930E+01  0.7957747E-01            NaN
         13   -1    0    0    0    0  0.00000000000E+00  0.00000000000E+00  0.74505805969E-08  0.10566000000E+00  0.10566000000E+00 0.  1.
     999900   -1    0    0    0    0 -0.00000000000E+00 -0.00000000000E+00 -0.74505805969E-08  0.93827000000E+00  0.93827000000E+00 0. -1.
     999902    2    1    2    0    0 -0.11691775625E-01 -0.15603969276E-01  0.13124739821E-01  0.10204259521E+01  0.10201552251E+01 0.  0.
     999903    2    3    3    0    0 -0.54134266575E-01 -0.90134195956E-01 -0.77192073711E-01  0.13165531430E+00  0.17883328602E-01 0.  0.
         14    1    1    2    0    0  0.11691775625E-01  0.15603969276E-01 -0.13124739821E-01  0.23504047945E-01  0.00000000000E+00 0. -1.
     999901    1    3    3    0    0  0.42442490950E-01  0.74530226679E-01  0.90316813531E-01  0.88877063775E+00  0.88000000000E+00 0.  1.
        -11    1    4    4    0    0 -0.64402679803E-02 -0.22890816505E-01 -0.22353511964E-01  0.32640575210E-01  0.51100000000E-03 0. -1.
         11    1    4    4    0    0 -0.47693998595E-01 -0.67243379451E-01 -0.54838561747E-01  0.99014739092E-01  0.51100000000E-03 0.  1.
</event>
<event>
 8    1  0.1070112E+005  0.1043930E+01  0.7957747E-01            NaN
         13   -1    0    0    0    0  0.00000000000E+00  0.00000000000E+00  0.74505805969E-08  0.10566000000E+00  0.10566000000E+00 0. -1.
     999900   -1    0    0    0    0 -0.00000000000E+00 -0.00000000000E+00 -0.74505805969E-08  0.93827000000E+00  0.93827000000E+00 0. -1.
     999902    2    1    2    0    0  0.14642124249E-01 -0.15162716774E-01 -0.11741360930E-01  0.10198020217E+01  0.10195165541E+01 0.  0.
     999903    2    3    3    0    0  0.32898803710E-01 -0.12673460603E+00 -0.77384422837E-02  0.13256044453E+00  0.19193652986E-01 0.  0.
         14    1    1    2    0    0 -0.14642124249E-01  0.15162716774E-01  0.11741360930E-01  0.24127978344E-01  0.00000000000E+00 0. -1.
     999901    1    3    3    0    0 -0.18256679460E-01  0.11157188926E+00 -0.40029186459E-02  0.88724157712E+00  0.88000000000E+00 0.  1.
        -11    1    4    4    0    0  0.17189779227E-01 -0.55461944335E-01  0.57084776492E-02  0.58346924661E-01  0.51100000000E-03 0. -1.
         11    1    4    4    0    0  0.15709024483E-01 -0.71272661694E-01 -0.13446919933E-01  0.74213519872E-01  0.51100000000E-03 0.  1.
</event>
<event>
 8    1  0.1070112E+005  0.1043930E+01  0.7957747E-01            NaN
         13   -1    0    0    0    0  0.00000000000E+00  0.00000000000E+00  0.74505805969E-08  0.10566000000E+00  0.10566000000E+00 0. -1.
     999900   -1    0    0    0    0 -0.00000000000E+00 -0.00000000000E+00 -0.74505805969E-08  0.93827000000E+00  0.93827000000E+00 0. -1.
     999902    2    1    2    0    0  0.45205932376E-02  0.22178359859E-01 -0.69503613333E-02  0.10202525227E+01  0.10199777385E+01 0.  0.
     999903    2    3    3    0    0  0.10361347667E-01 -0.71621521522E-01  0.10421750866E+00  0.12829353962E+00  0.18998508526E-01 0.  0.
         14    1    1    2    0    0 -0.45205932376E-02 -0.22178359859E-01  0.69503613333E-02  0.23677477313E-01  0.00000000000E+00 0.  1.
     999901    1    3    3    0    0 -0.58407544295E-02  0.93799881381E-01 -0.11116786999E+00  0.89195898307E+00  0.88000000000E+00 0. -1.
        -11    1    4    4    0    0  0.76125043338E-05 -0.49621331715E-01  0.60318846984E-01  0.78108264873E-01  0.51100000000E-03 0. -1.
         11    1    4    4    0    0  0.10353735163E-01 -0.22000189807E-01  0.43898661674E-01  0.50185274744E-01  0.51100000000E-03 0.  1.
</event>
<event>
 8    1  0.1070112E+005  0.1043930E+01  0.7957747E-01            NaN
         13   -1    0    0    0    0  0.00000000000E+00  0.00000000000E+00  0.74505805969E-08  0.10566000000E+00  0.10566000000E+00 0. -1.
     999900   -1    0    0    0    0 -0.00000000000E+00 -0.00000000000E+00 -0.74505805969E-08  0.93827000000E+00  0.93827000000E+00 0.  1.
     999902    2    1    2    0    0 -0.62960212906E-02  0.30916540744E-02  0.23198115050E-01  0.10196946797E+01  0.10194066358E+01 0.  0.
     999903    2    3    3    0    0  0.92961886872E-01 -0.67143829401E-01  0.59678664511E-01  0.13058502055E+00  0.18458016071E-01 0.  0.
         14    1    1    2    0    0  0.62960212906E-02 -0.30916540744E-02 -0.23198115050E-01  0.24235320317E-01  0.00000000000E+00 0.  1.
     999901    1    3    3    0    0 -0.99257908162E-01  0.70235483476E-01 -0.36480549461E-01  0.88910965913E+00  0.88000000000E+00 0.  1.
        -11    1    4    4    0    0  0.40779290511E-01 -0.26600117218E-01  0.35330838759E-01  0.60158507786E-01  0.51100000000E-03 0. -1.
         11    1    4    4    0    0  0.52182596360E-01 -0.40543712183E-01  0.24347825752E-01  0.70426512766E-01  0.51100000000E-03 0.  1.
</event>
<event>
 8    1  0.1070112E+005  0.1043930E+01  0.7957747E-01            NaN
         13   -1    0    0    0    0  0.00000000000E+00  0.00000000000E+00  0.74505805969E-08  0.10566000000E+00  0.10566000000E+00 0.  1.
     999900   -1    0    0    0    0 -0.00000000000E+00 -0.00000000000E+00 -0.74505805969E-08  0.93827000000E+00  0.93827000000E+00 0. -1.
     999902    2    1    2    0    0  0.19881351187E-03  0.24145284976E-01  0.12527459996E-01  0.10167275816E+01  0.10163636178E+01 0.  0.
     999903    2    3    3    0    0 -0.12521520022E+00  0.13088291008E-01  0.52788669921E-02  0.12773743876E+00  0.20948438968E-01 0.  0.
         14    1    1    2    0    0 -0.19881351187E-03 -0.24145284976E-01 -0.12527459996E-01  0.27202418409E-01  0.00000000000E+00 0. -1.
     999901    1    3    3    0    0  0.12541401373E+00  0.11056993967E-01  0.72485930039E-02  0.88899014283E+00  0.88000000000E+00 0. -1.
        -11    1    4    4    0    0 -0.41933898126E-01  0.66180722316E-03 -0.73794689277E-02  0.42586470663E-01  0.51100000000E-03 0.  1.
         11    1    4    4    0    0 -0.83281302095E-01  0.12426483785E-01  0.12658335920E-01  0.85150968093E-01  0.51100000000E-03 0. -1.
</event>
<event>
 8    1  0.1070112E+005  0.1043930E+01  0.7957747E-01            NaN
         13   -1    0    0    0    0  0.00000000000E+00  0.00000000000E+00  0.74505805969E-08  0.10566000000E+00  0.10566000000E+00 0. -1.
     999900   -1    0    0    0    0 -0.00000000000E+00 -0.00000000000E+00 -0.74505805969E-08  0.93827000000E+00  0.93827000000E+00 0.  1.
     999902    2    1    2    0    0  0.17742216377E-02 -0.14131994300E-01  0.18945859340E-01  0.10202275379E+01  0.10199521667E+01 0.  0.
     999903    2    3    3    0    0 -0.10816548848E+00 -0.46628098977E-01 -0.51366947409E-01  0.13001035791E+00  0.19752907825E-01 0.  0.
         14    1    1    2    0    0 -0.17742216377E-02  0.14131994300E-01 -0.18945859340E-01  0.23702462139E-01  0.00000000000E+00 0.  1.
     999901    1    3    3    0    0  0.10993971011E+00  0.32496104677E-01  0.70312806749E-01  0.89021717995E+00  0.88000000000E+00 0. -1.
        -11    1    4    4    0    0 -0.38835361298E-01 -0.24745040838E-01 -0.26723478790E-01  0.53243851972E-01  0.51100000000E-03 0. -1.
         11    1    4    4    0    0 -0.69330127178E-01 -0.21883058139E-01 -0.24643468619E-01  0.76766505942E-01  0.51100000000E-03 0.  1.
</event>
<event>
 8    1  0.1070112E+005  0.1043930E+01  0.7957747E-01            NaN
         13   -1    0    0    0    0  0.00000000000E+00  0.00000000000E+00  0.74505805969E-08  0.10566000000E+00  0.10566000000E+00 0. -1.
     999900   -1    0    0    0    0 -0.00000000000E+00 -0.00000000000E+00 -0.74505805969E-08  0.93827000000E+00  0.93827000000E+00 0. -1.
     999902    2    1    2    0    0 -0.56328556173E-02  0.12962449862E-01  0.18975733753E-01  0.10202692173E+01  0.10199948250E+01 0.  0.
     999903    2    3    3    0    0  0.77271945284E-01 -0.94135458795E-01 -0.32857242069E-01  0.12840049068E+00  0.23971848493E-01 0.  0.
         14    1    1    2    0    0  0.56328556173E-02 -0.12962449862E-01 -0.18975733753E-01  0.23660782749E-01  0.00000000000E+00 0.  1.
     999901    1    3    3    0    0 -0.82904800901E-01  0.10709790866E+00  0.51832975822E-01  0.89186872657E+00  0.88000000000E+00 0. -1.
        -11    1    4    4    0    0  0.25955782996E-01 -0.16694515383E-01 -0.40193615308E-02  0.31125968305E-01  0.51100000000E-03 0.  1.
         11    1    4    4    0    0  0.51316162288E-01 -0.77440943412E-01 -0.28837880538E-01  0.97274522376E-01  0.51100000000E-03 0. -1.
</event>
<event>
 8    1  0.1070112E+005  0.1043930E+01  0.7957747E-01            NaN
         13   -1    0    0    0    0  0.00000000000E+00  0.00000000000E+00  0.74505805969E-08  0.10566000000E+00  0.10566000000E+00 0. -1.
     999900   -1    0    0    0    0 -0.00000000000E+00 -0.00000000000E+00 -0.74505805969E-08  0.93827000000E+00  0.93827000000E+00 0.  1.
     999902    2    1    2    0    0 -0.10947281045E-01 -0.87493822084E-02 -0.18635644995E-01  0.10206130123E+01  0.10203466269E+01 0.  0.
     999903    2    3    3    0    0 -0.47907283757E-01  0.37829055560E-01 -0.11665851962E+00  0.13317621082E+00  0.20013686468E-01 0.  0.
         14    1    1    2    0    0  0.10947281045E-01  0.87493822084E-02  0.18635644995E-01  0.23316987706E-01  0.00000000000E+00 0. -1.
     999901    1    3    3    0    0  0.36960002712E-01 -0.46578437768E-01  0.98022874625E-01  0.88743680148E+00  0.88000000000E+00 0.  1.
        -11    1    4    4    0    0 -0.10465794518E-01  0.17043946388E-01 -0.25114512698E-01  0.32109637687E-01  0.51100000000E-03 0.  1.
         11    1    4    4    0    0 -0.37441489239E-01  0.20785109172E-01 -0.91544006922E-01  0.10106657313E+00  0.51100000000E-03 0. -1.
</event>
<event>
 8    1  0.1070112E+005  0.1043930E+01  0.7957747E-01            NaN
         13   -1    0    0    0    0  0.00000000000E+00  0.00000000000E+00  0.74505805969E-08  0.10566000000E+00  0.10566000000E+00 0. -1.
     999900   -1    0    0    0    0 -0.00000000000E+00 -0.00000000000E+00 -0.74505805969E-08  0.93827000000E+00  0.93827000000E+00 0. -1.
     999902    2    1    2    0    0  0.11661048137E-01  0.18269611001E-01  0.21254197896E-01  0.10135737872E+01  0.10131191057E+01 0.  0.
     999903    2    3    3    0    0 -0.17080288579E-01  0.12331893121E+00  0.14081763943E-01  0.12683094511E+00  0.19710340202E-01 0.  0.
         14    1    1    2    0    0 -0.11661048137E-01 -0.18269611001E-01 -0.21254197896E-01  0.30356212840E-01  0.00000000000E+00 0.  1.
     999901    1    3    3    0    0  0.28741336716E-01 -0.10504932020E+00  0.71724339532E-02  0.88674284205E+00  0.88000000000E+00 0.  1.
        -11    1    4    4    0    0 -0.23897447342E-02  0.84490788629E-01  0.98696280236E-02  0.85100381441E-01  0.51100000000E-03 0. -1.
         11    1    4    4    0    0 -0.14690543845E-01  0.38828142577E-01  0.42121359191E-02  0.41730563673E-01  0.51100000000E-03 0.  1.
</event>
<event>
 8    1  0.1070112E+005  0.1043930E+01  0.7957747E-01            NaN
         13   -1    0    0    0    0  0.00000000000E+00  0.00000000000E+00  0.74505805969E-08  0.10566000000E+00  0.10566000000E+00 0. -1.
     999900   -1    0    0    0    0 -0.00000000000E+00 -0.00000000000E+00 -0.74505805969E-08  0.93827000000E+00  0.93827000000E+00 0.  1.
     999902    2    1    2    0    0  0.22187261857E-01  0.79710965107E-02  0.41819926166E-02  0.10199862737E+01  0.10197052008E+01 0.  0.
     999903    2    3    3    0    0  0.57119721118E-01  0.99804984629E-01 -0.61529555457E-01  0.13208326812E+00  0.20890333295E-01 0.  0.
         14    1    1    2    0    0 -0.22187261857E-01 -0.79710965107E-02 -0.41819926166E-02  0.23943726329E-01  0.00000000000E+00 0. -1.
     999901    1    3    3    0    0 -0.34932459261E-01 -0.91833888118E-01  0.65711548073E-01  0.88790300555E+00  0.88000000000E+00 0. -1.
        -11    1    4    4    0    0  0.13764630673E-01  0.43589398691E-01 -0.20656475197E-01  0.50164248468E-01  0.51100000000E-03 0.  1.
         11    1    4    4    0    0  0.43355090444E-01  0.56215585938E-01 -0.40873080259E-01  0.81919019652E-01  0.51100000000E-03 0. -1.
</event>
<event>
 8    1  0.1070112E+005  0.1043930E+01  0.7957747E-01            NaN
         13   -1    0    0    0    0  0.00000000000E+00  0.00000000000E+00  0.74505805969E-08  0.10566000000E+00  0.10566000000E+00 0. -1.
     999900   -1    0    0    0    0 -0.00000000000E+00 -0.00000000000E+00 -0.74505805969E-08  0.93827000000E+00  0.93827000000E+00 0.  1.
     999902    2    1    2    0    0  0.12108155586E-02  0.15613407204E-01 -0.17617779198E-01  0.10203581799E+01  0.10200858712E+01 0.  0.
     999903    2    3    3    0    0 -0.35921077810E-02 -0.84836128432E-01 -0.97440216985E-01  0.13104113922E+00  0.21612782221E-01 0.  0.
         14    1    1    2    0    0 -0.12108155586E-02 -0.15613407204E-01  0.17617779198E-01  0.23571820097E-01  0.00000000000E+00 0. -1.
     999901    1    3    3    0    0  0.48029233396E-02  0.10044953564E+00  0.79822437787E-01  0.88931704069E+00  0.88000000000E+00 0. -1.
        -11    1    4    4    0    0 -0.10182569285E-01 -0.59964488472E-01 -0.58687767672E-01  0.84521830259E-01  0.51100000000E-03 0. -1.
         11    1    4    4    0    0  0.65904615038E-02 -0.24871639960E-01 -0.38752449312E-01  0.46519308957E-01  0.51100000000E-03 0.  1.
</event>
<event>
 8    1  0.1070112E+005  0.1043930E+01  0.7957747E-01            NaN
         13   -1    0    0    0    0  0.00000000000E+00  0.00000000000E+00  0.74505805969E-08  0.10566000000E+00  0.10566000000E+00 0. -1.
     999900   -1    0    0    0    0 -0.00000000000E+00 -0.00000000000E+00 -0.74505805969E-08  0.93827000000E+00  0.93827000000E+00 0. -1.
     999902    2    1    2    0    0 -0.20009534065E-01 -0.11492968758E-01 -0.56853796441E-02  0.10201646192E+01  0.10198877668E+01 0.  0.
     999903    2    3    3    0    0  0.10775168997E-01 -0.59711479812E-01 -0.11554576565E+00  0.13149031034E+00  0.16040968352E-01 0.  0.
         14    1    1    2    0    0  0.20009534065E-01  0.11492968758E-01  0.56853796441E-02  0.23765380831E-01  0.00000000000E+00 0.  1.
     999901    1    3    3    0    0 -0.30784703062E-01  0.48218511054E-01  0.10986038601E+00  0.88867430882E+00  0.88000000000E+00 0.  1.
        -11    1    4    4    0    0  0.89706868267E-02 -0.36350487967E-01 -0.54714289856E-01  0.66300421062E-01  0.51100000000E-03 0.  1.
         11    1    4    4    0    0  0.18044821702E-02 -0.23360991845E-01 -0.60831475797E-01  0.65189889282E-01  0.51100000000E-03 0. -1.
</event>
<event>
 8    1  0.1070112E+005  0.1043930E+01  0.7957747E-01            NaN
         13   -1    0    0    0    0  0.00000000000E+00  0.00000000000E+00  0.74505805969E-08  0.10566000000E+00  0.10566000000E+00 0. -1.
     999900   -1    0    0    0    0 -0.00000000000E+00 -0.00000000000E+00 -0.74505805969E-08  0.93827000000E+00  0.93827000000E+00 0. -1.
     999902    2    1    2    0    0  0.89369175398E-02 -0.18454523809E-01 -0.10080920969E-01  0.10210813039E+01  0.10208256297E+01 0.  0.
     999903    2    3    3    0    0 -0.44840404473E-01  0.10322696231E+00  0.58755916035E-01  0.12842409394E+00  0.19339664295E-01 0.  0.
         14    1    1    2    0    0 -0.89369175398E-02  0.18454523809E-01  0.10080920969E-01  0.22848696062E-01  0.00000000000E+00 0. -1.
     999901    1    3    3    0    0  0.53777322013E-01 -0.12168148612E+00 -0.68836837005E-01  0.89265720999E+00  0.88000000000E+00 0. -1.
        -11    1    4    4    0    0 -0.26176244606E-01  0.44712953387E-01  0.18647591211E-01  0.55067574499E-01  0.51100000000E-03 0.  1.
         11    1    4    4    0    0 -0.18664159867E-01  0.58514008923E-01  0.40108324825E-01  0.73356519445E-01  0.51100000000E-03 0. -1.
</event>
<event>
 8    1  0.1070112E+005  0.1043930E+01  0.7957747E-01            NaN
         13   -1    0    0    0    0  0.00000000000E+00  0.00000000000E+00  0.74505805969E-08  0.10566000000E+00  0.10566000000E+00 0.  1.
     999900   -1    0    0    0    0 -0.00000000000E+00 -0.00000000000E+00 -0.74505805969E-08  0.93827000000E+00  0.93827000000E+00 0. -1.
     999902    2    1    2    0    0  0.83398566399E-02  0.22451812216E-01  0.41311460775E-02  0.10196256085E+01  0.10193359005E+01 0.  0.
     999903    2    3    3    0    0  0.37717751544E-02 -0.87214578820E-01  0.92175082011E-01  0.12844699597E+00  0.19539088608E-01 0.  0.
         14    1    1    2    0    0 -0.83398566399E-02 -0.22451812216E-01 -0.41311460775E-02  0.24304391547E-01  0.00000000000E+00 0.  1.
     999901    1    3    3    0    0  0.45680814855E-02  0.10966639104E+00 -0.88043935934E-01  0.89117861248E+00  0.88000000000E+00 0. -1.
        -11    1    4    4    0    0  0.80742668730E-02 -0.30636497142E-01  0.42635068287E-01  0.53120607220E-01  0.51100000000E-03 0. -1.
         11    1    4    4    0    0 -0.43024917186E-02 -0.56578081678E-01  0.49540013725E-01  0.75326388751E-01  0.51100000000E-03 0.  1.
</event>
<event>
 8    1  0.1070112E+005  0.1043930E+01  0.7957747E-01            NaN
         13   -1    0    0    0    0  0.00000000000E+00  0.00000000000E+00  0.74505805969E-08  0.10566000000E+00  0.10566000000E+00 0.  1.
     999900   -1    0    0    0    0 -0.00000000000E+00 -0.00000000000E+00 -0.74505805969E-08  0.93827000000E+00  0.93827000000E+00 0. -1.
     999902    2    1    2    0    0  0.24707009157E-02  0.27922657698E-02 -0.23962858754E-01  0.10196788204E+01  0.10193903948E+01 0.  0.
     999903    2    3    3    0    0 -0.90383557368E-03  0.94498773583E-01  0.84644945614E-01  0.12826582622E+00  0.18881743291E-01 0.  0.
         14    1    1    2    0    0 -0.24707009157E-02 -0.27922657698E-02  0.23962858754E-01  0.24251179576E-01  0.00000000000E+00 0.  1.
     999901    1    3    3    0    0  0.33745364894E-02 -0.91706507813E-01 -0.10860780437E+00  0.89141299421E+00  0.88000000000E+00 0. -1.
        -11    1    4    4    0    0 -0.67383680920E-02  0.47742603084E-01  0.52153773818E-01  0.71028437954E-01  0.51100000000E-03 0. -1.
         11    1    4    4    0    0  0.58345325183E-02  0.46756170500E-01  0.32491171796E-01  0.57237388263E-01  0.51100000000E-03 0.  1.
</event>
<event>
 8    1  0.1070112E+005  0.1043930E+01  0.7957747E-01            NaN
         13   -1    0    0    0    0  0.00000000000E+00  0.00000000000E+00  0.74505805969E-08  0.10566000000E+00  0.10566000000E+00 0. -1.
     999900   -1    0    0    0    0 -0.00000000000E+00 -0.00000000000E+00 -0.74505805969E-08  0.93827000000E+00  0.93827000000E+00 0.  1.
     999902    2    1    2    0    0  0.16914893621E-01 -0.13033934454E-01 -0.88311921448E-02  0.10208218407E+01  0.10205602595E+01 0.  0.
     999903    2    3    3    0    0 -0.96858145825E-01  0.75498205567E-01  0.34745015064E-01  0.12802783857E+00  0.10120865645E-01 0.  0.
         14    1    1    2    0    0 -0.16914893621E-01  0.13033934454E-01  0.88311921448E-02  0.23108159344E-01  0.00000000000E+00 0.  1.
     999901    1    3    3    0    0  0.11377303945E+00 -0.88532140021E-01 -0.43576207208E-01  0.89279400208E+00  0.88000000000E+00 0. -1.
        -11    1    4    4    0    0 -0.49403672375E-01  0.42668236834E-01  0.22393022329E-01  0.69014562584E-01  0.51100000000E-03 0. -1.
         11    1    4    4    0    0 -0.47454473449E-01  0.32829968733E-01  0.12351992735E-01  0.59013275989E-01  0.51100000000E-03 0.  1.
</event>
<event>
 8    1  0.1070112E+005  0.1043930E+01  0.7957747E-01            NaN
         13   -1    0    0    0    0  0.00000000000E+00  0.00000000000E+00  0.74505805969E-08  0.10566000000E+00  0.10566000000E+00 0. -1.
     999900   -1    0    0    0    0 -0.00000000000E+00 -0.00000000000E+00 -0.74505805969E-08  0.93827000000E+00  0.93827000000E+00 0.  1.
     999902    2    1    2    0    0 -0.20478798650E-01  0.82430943768E-02 -0.68993964739E-02  0.10208014144E+01  0.10205393653E+01 0.  0.
     999903    2    3    3    0    0  0.10893437051E+00 -0.51057367457E-01  0.39395519544E-01  0.12816065108E+00  0.19989839306E-01 0.  0.
         14    1    1    2    0    0  0.20478798650E-01 -0.82430943768E-02  0.68993964739E-02  0.23128585576E-01  0.00000000000E+00 0. -1.
     999901    1    3    3    0    0 -0.12941316916E+00  0.59300461834E-01 -0.46294916018E-01  0.89264076334E+00  0.88000000000E+00 0. -1.
        -11    1    4    4    0    0  0.65137831429E-01 -0.20257466856E-01  0.18478865196E-01  0.70675537682E-01  0.51100000000E-03 0.  1.
         11    1    4    4    0    0  0.43796539084E-01 -0.30799900601E-01  0.20916654347E-01  0.57485113402E-01  0.51100000000E-03 0. -1.
</event>
<event>
 8    1  0.1070112E+005  0.1043930E+01  0.7957747E-01            NaN
         13   -1    0    0    0    0  0.00000000000E+00  0.00000000000E+00  0.74505805969E-08  0.10566000000E+00  0.10566000000E+00 0.  1.
     999900   -1    0    0    0    0 -0.00000000000E+00 -0.00000000000E+00 -0.74505805969E-08  0.93827000000E+00  0.93827000000E+00 0.  1.
     999902    2    1    2    0    0 -0.66981466067E-02  0.17979635904E-01  0.10788969445E-01  0.10219178593E+01  0.10216807607E+01 0.  0.
     999903    2    3    3    0    0  0.49936010362E-01  0.61960657483E-01 -0.10303047687E+00  0.13169506454E+00  0.19889259780E-01 0.  0.
         14    1    1    2    0    0  0.66981466067E-02 -0.17979635904E-01 -0.10788969445E-01  0.22012140671E-01  0.00000000000E+00 0. -1.
     999901    1    3    3    0    0 -0.56634156968E-01 -0.43981021579E-01  0.11381944632E+00  0.89022279478E+00  0.88000000000E+00 0. -1.
        -11    1    4    4    0    0  0.39384108211E-01  0.33924448726E-01 -0.62484368188E-01  0.81280585565E-01  0.51100000000E-03 0. -1.
         11    1    4    4    0    0  0.10551902150E-01  0.28036208757E-01 -0.40546108682E-01  0.50414478979E-01  0.51100000000E-03 0.  1.
</event>
<event>
 8    1  0.1070112E+005  0.1043930E+01  0.7957747E-01            NaN
         13   -1    0    0    0    0  0.00000000000E+00  0.00000000000E+00  0.74505805969E-08  0.10566000000E+00  0.10566000000E+00 0. -1.
     999900   -1    0    0    0    0 -0.00000000000E+00 -0.00000000000E+00 -0.74505805969E-08  0.93827000000E+00  0.93827000000E+00 0.  1.
     999902    2    1    2    0    0 -0.96834865946E-02 -0.19802592331E-01 -0.94532585394E-02  0.10199450741E+01  0.10196630215E+01 0.  0.
     999903    2    3    3    0    0  0.68109961808E-01 -0.62232975993E-02 -0.10806067558E+00  0.13092334172E+00  0.28037750822E-01 0.  0.
         14    1    1    2    0    0  0.96834865946E-02  0.19802592331E-01  0.94532585394E-02  0.23984925947E-01  0.00000000000E+00 0. -1.
     999901    1    3    3    0    0 -0.77793448402E-01 -0.13579294732E-01  0.98607417039E-01  0.88902173233E+00  0.88000000000E+00 0. -1.
        -11    1    4    4    0    0  0.44957462840E-01 -0.11384656746E-01 -0.89486696738E-01  0.10079143757E+00  0.51100000000E-03 0. -1.
         11    1    4    4    0    0  0.23152498967E-01  0.51613591470E-02 -0.18573978840E-01  0.30131904149E-01  0.51100000000E-03 0.  1.
</event>
<event>
 8    1  0.1070112E+005  0.1043930E+01  0.7957747E-01            NaN
         13   -1    0    0    0    0  0.00000000000E+00  0.00000000000E+00  0.74505805969E-08  0.10566000000E+00  0.10566000000E+00 0.  1.
     999900   -1    0    0    0    0 -0.00000000000E+00 -0.00000000000E+00 -0.74505805969E-08  0.93827000000E+00  0.93827000000E+00 0. -1.
     999902    2    1    2    0    0 -0.17048651733E-01  0.15419560995E-01 -0.60745513025E-02  0.10201535503E+01  0.10198764369E+01 0.  0.
     999903    2    3    3    0    0 -0.12492561524E+00 -0.36562612931E-01  0.87493718907E-02  0.13191972164E+00  0.19571086913E-01 0.  0.
         14    1    1    2    0    0  0.17048651733E-01 -0.15419560995E-01  0.60745513025E-02  0.23776449707E-01  0.00000000000E+00 0. -1.
     999901    1    3    3    0    0  0.10787696350E+00  0.51982173925E-01 -0.14823923193E-01  0.88823382865E+00  0.88000000000E+00 0. -1.
        -11    1    4    4    0    0 -0.62803109364E-01 -0.18737690042E-01 -0.53829272082E-02  0.65761452236E-01  0.51100000000E-03 0.  1.
         11    1    4    4    0    0 -0.62122505873E-01 -0.17824922889E-01  0.14132299099E-01  0.66158269406E-01  0.51100000000E-03 0. -1.
</event>
<event>
 8    1  0.1070112E+005  0.1043930E+01  0.7957747E-01            NaN
         13   -1    0    0    0    0  0.00000000000E+00  0.00000000000E+00  0.74505805969E-08  0.10566000000E+00  0.10566000000E+00 0.  1.
     999900   -1    0    0    0    0 -0.00000000000E+00 -0.00000000000E+00 -0.74505805969E-08  0.93827000000E+00  0.93827000000E+00 0. -1.
     999902    2    1    2    0    0 -0.47564734625E-02  0.14275524688E-01 -0.19189011420E-01  0.10195449061E+01  0.10192532476E+01 0.  0.
     999903    2    3    3    0    0  0.87285387908E-01 -0.61150810971E-01 -0.71856230257E-01  0.12997496940E+00  0.19287670117E-01 0.  0.
         14    1    1    2    0    0  0.47564734625E-02 -0.14275524688E-01  0.19189011420E-01  0.24385093893E-01  0.00000000000E+00 0.  1.
     999901    1    3    3    0    0 -0.92041861371E-01  0.75426335658E-01  0.52667218837E-01  0.88956993671E+00  0.88000000000E+00 0.  1.
        -11    1    4    4    0    0  0.39609663731E-01 -0.39501582122E-01 -0.37050300557E-01  0.67099078558E-01  0.51100000000E-03 0. -1.
         11    1    4    4    0    0  0.47675724178E-01 -0.21649228849E-01 -0.34805929700E-01  0.62875890840E-01  0.51100000000E-03 0.  1.
</event>
<event>
 8    1  0.1070112E+005  0.1043930E+01  0.7957747E-01            NaN
         13   -1    0    0    0    0  0.00000000000E+00  0.00000000000E+00  0.74505805969E-08  0.10566000000E+00  0.10566000000E+00 0. -1.
     999900   -1    0    0    0    0 -0.00000000000E+00 -0.00000000000E+00 -0.74505805969E-08  0.93827000000E+00  0.93827000000E+00 0.  1.
     999902    2    1    2    0    0 -0.17685807620E-01 -0.13520266518E-01 -0.72887271377E-02  0.10205054201E+01  0.10202365420E+01 0.  0.
     999903    2    3    3    0    0  0.58230367412E-01 -0.96097844619E-01  0.62095712545E-01  0.13067592946E+00  0.24387488465E-01 0.  0.
         14    1    1    2    0    0  0.17685807620E-01  0.13520266518E-01  0.72887271377E-02  0.23424579850E-01  0.00000000000E+00 0. -1.
     999901    1    3    3    0    0 -0.75916175032E-01  0.82577578101E-01 -0.69384439683E-01  0.88982949069E+00  0.88000000000E+00 0. -1.
        -11    1    4    4    0    0  0.34359577163E-01 -0.45704241687E-01  0.19188043184E-01  0.60315009518E-01  0.51100000000E-03 0.  1.
         11    1    4    4    0    0  0.23870790249E-01 -0.50393602932E-01  0.42907669361E-01  0.70360919938E-01  0.51100000000E-03 0. -1.
</event>
<event>
 8    1  0.1070112E+005  0.1043930E+01  0.7957747E-01            NaN
         13   -1    0    0    0    0  0.00000000000E+00  0.00000000000E+00  0.74505805969E-08  0.10566000000E+00  0.10566000000E+00 0. -1.
     999900   -1    0    0    0    0 -0.00000000000E+00 -0.00000000000E+00 -0.74505805969E-08  0.93827000000E+00  0.93827000000E+00 0. -1.
     999902    2    1    2    0    0  0.91078711929E-02  0.22000610062E-01 -0.11423849102E-02  0.10200912667E+01  0.10198126824E+01 0.  0.
     999903    2    3    3    0    0 -0.30077259762E-01 -0.75871110655E-01  0.97082068396E-01  0.12837248178E+00  0.19836811413E-01 0.  0.
         14    1    1    2    0    0 -0.91078711929E-02 -0.22000610062E-01  0.11423849102E-02  0.23838733273E-01  0.00000000000E+00 0. -1.
     999901    1    3    3    0    0  0.39185130955E-01  0.97871720717E-01 -0.98224453306E-01  0.89171878495E+00  0.88000000000E+00 0.  1.
        -11    1    4    4    0    0 -0.31298262213E-01 -0.59787332641E-01  0.82831573814E-01  0.10684304892E+00  0.51100000000E-03 0. -1.
         11    1    4    4    0    0  0.12210024510E-02 -0.16083778014E-01  0.14250494582E-01  0.21529432854E-01  0.51100000000E-03 0.  1.
</event>
<event>
 8    1  0.1070112E+005  0.1043930E+01  0.7957747E-01            NaN
         13   -1    0    0    0    0  0.00000000000E+00  0.00000000000E+00  0.74505805969E-08  0.10566000000E+00  0.10566000000E+00 0.  1.
     999900   -1    0    0    0    0 -0.00000000000E+00 -0.00000000000E+00 -0.74505805969E-08  0.93827000000E+00  0.93827000000E+00 0. -1.
     999902    2    1    2    0    0 -0.87302174947E-02 -0.17349714195E-01 -0.12487913545E-01  0.10208393685E+01  0.10205781885E+01 0.  0.
     999903    2    3    3    0    0 -0.84075091859E-01  0.75032214469E-02 -0.10076895825E+00  0.13287086600E+00  0.19374330517E-01 0.  0.
         14    1    1    2    0    0  0.87302174947E-02  0.17349714195E-01  0.12487913545E-01  0.23090631539E-01  0.00000000000E+00 0.  1.
     999901    1    3    3    0    0  0.75344874365E-01 -0.24852935642E-01  0.88281044702E-01  0.88796850246E+00  0.88000000000E+00 0.  1.
        -11    1    4    4    0    0 -0.77869321051E-01  0.10697326422E-01 -0.85886693539E-01  0.11642529451E+00  0.51100000000E-03 0. -1.
         11    1    4    4    0    0 -0.62057708083E-02 -0.31941049748E-02 -0.14882264709E-01  0.16445571494E-01  0.51100000000E-03 0.  1.
</event>
<event>
 8    1  0.1070112E+005  0.1043930E+01  0.7957747E-01            NaN
         13   -1    0    0    0    0  0.00000000000E+00  0.00000000000E+00  0.74505805969E-08  0.10566000000E+00  0.10566000000E+00 0. -1.
     999900   -1    0    0    0    0 -0.00000000000E+00 -0.00000000000E+00 -0.74505805969E-08  0.93827000000E+00  0.93827000000E+00 0. -1.
     999902    2    1    2    0    0 -0.16917090531E-01  0.46658275073E-02  0.64991360467E-03  0.10263692402E+01  0.10262190004E+01 0.  0.
     999903    2    3    3    0    0 -0.85659756842E-01 -0.76064934415E-01 -0.72393056346E-01  0.13699964008E+00  0.20116624604E-01 0.  0.
         14    1    1    2    0    0  0.16917090531E-01 -0.46658275073E-02 -0.64991360467E-03  0.17560759837E-01  0.00000000000E+00 0. -1.
     999901    1    3    3    0    0  0.68742666311E-01  0.80730761922E-01  0.73042969950E-01  0.88936960008E+00  0.88000000000E+00 0. -1.
        -11    1    4    4    0    0 -0.38389784023E-01 -0.34438095380E-01 -0.44469071824E-01  0.68099320118E-01  0.51100000000E-03 0. -1.
         11    1    4    4    0    0 -0.47269972819E-01 -0.41626839035E-01 -0.27923984522E-01  0.68900319963E-01  0.51100000000E-03 0.  1.
</event>
<event>
 8    1  0.1070112E+005  0.1043930E+01  0.7957747E-01            NaN
         13   -1    0    0    0    0  0.00000000000E+00  0.00000000000E+00  0.74505805969E-08  0.10566000000E+00  0.10566000000E+00 0. -1.
     999900   -1    0    0    0    0 -0.00000000000E+00 -0.00000000000E+00 -0.74505805969E-08  0.93827000000E+00  0.93827000000E+00 0.  1.
     999902    2    1    2    0    0 -0.20627335666E-01  0.12414988275E-01 -0.27331799944E-02  0.10197000767E+01  0.10194121626E+01 0.  0.
     999903    2    3    3    0    0 -0.72995677810E-01 -0.55519471916E-01 -0.91524511859E-01  0.13108236656E+00  0.19876363158E-01 0.  0.
         14    1    1    2    0    0  0.20627335666E-01 -0.12414988275E-01  0.27331799944E-02  0.24229923307E-01  0.00000000000E+00 0. -1.
     999901    1    3    3    0    0  0.52368342144E-01  0.67934460191E-01  0.88791331864E-01  0.88861771013E+00  0.88000000000E+00 0. -1.
        -11    1    4    4    0    0 -0.38278951958E-01 -0.30525971038E-01 -0.34965276966E-01  0.60165976973E-01  0.51100000000E-03 0.  1.
         11    1    4    4    0    0 -0.34716725853E-01 -0.24993500878E-01 -0.56559234893E-01  0.70916389592E-01  0.51100000000E-03 0. -1.
</event>
<event>
 8    1  0.1070112E+005  0.1043930E+01  0.7957747E-01            NaN
         13   -1    0    0    0    0  0.00000000000E+00  0.00000000000E+00  0.74505805969E-08  0.10566000000E+00  0.10566000000E+00 0.  1.
     999900   -1    0    0    0    0 -0.00000000000E+00 -0.00000000000E+00 -0.74505805969E-08  0.93827000000E+00  0.93827000000E+00 0.  1.
     999902    2    1    2    0    0 -0.18731361487E-01  0.13660216959E-01 -0.13661918022E-02  0.10207064794E+01  0.10204422498E+01 0.  0.
     999903    2    3    3    0    0  0.56618650579E-01  0.88622785838E-01 -0.75811717653E-01  0.13119023591E+00  0.20094568973E-01 0.  0.
         14    1    1    2    0    0  0.18731361487E-01 -0.13660216959E-01  0.13661918022E-02  0.23223520632E-01  0.00000000000E+00 0.  1.
     999901    1    3    3    0    0 -0.75350012066E-01 -0.74962568879E-01  0.74445525851E-01  0.88951624346E+00  0.88000000000E+00 0. -1.
        -11    1    4    4    0    0  0.47177179608E-01  0.76506466044E-01 -0.55205746405E-01  0.10548393802E+00  0.51100000000E-03 0.  1.
         11    1    4    4    0    0  0.94414709715E-02  0.12116319794E-01 -0.20605971249E-01  0.25706297897E-01  0.51100000000E-03 0. -1.
</event>
<event>
 8    1  0.1070112E+005  0.1043930E+01  0.7957747E-01            NaN
         13   -1    0    0    0    0  0.00000000000E+00  0.00000000000E+00  0.74505805969E-08  0.10566000000E+00  0.10566000000E+00 0.  1.
     999900   -1    0    0    0    0 -0.00000000000E+00 -0.00000000000E+00 -0.74505805969E-08  0.93827000000E+00  0.93827000000E+00 0. -1.
     999902    2    1    2    0    0  0.19140747709E-01  0.12261170243E-01  0.41226520518E-02  0.10208280352E+01  0.10205665959E+01 0.  0.
     999903    2    3    3    0    0  0.55769999248E-01  0.69522333488E-01  0.97367163190E-01  0.13329489116E+00  0.18534181147E-01 0.  0.
         14    1    1    2    0    0 -0.19140747709E-01 -0.12261170243E-01 -0.41226520518E-02  0.23101964820E-01  0.00000000000E+00 0.  1.
     999901    1    3    3    0    0 -0.36629251540E-01 -0.57261163244E-01 -0.93244511139E-01  0.88753314402E+00  0.88000000000E+00 0. -1.
        -11    1    4    4    0    0  0.97863845465E-02  0.19714811857E-01  0.15106208922E-01  0.26700295842E-01  0.51100000000E-03 0.  1.
         11    1    4    4    0    0  0.45983614702E-01  0.49807521631E-01  0.82260954268E-01  0.10659459531E+00  0.51100000000E-03 0. -1.
</event>
<event>
 8    1  0.1070112E+005  0.1043930E+01  0.7957747E-01            NaN
         13   -1    0    0    0    0  0.00000000000E+00  0.00000000000E+00  0.74505805969E-08  0.10566000000E+00  0.10566000000E+00 0. -1.
     999900   -1    0    0    0    0 -0.00000000000E+00 -0.00000000000E+00 -0.74505805969E-08  0.93827000000E+00  0.93827000000E+00 0. -1.
     999902    2    1    2    0    0 -0.17299375798E-02 -0.17097543858E-01 -0.16146516517E-01  0.10203497395E+01  0.10200772334E+01 0.  0.
     999903    2    3    3    0    0 -0.16635067999E-01 -0.51444522512E-01  0.11617284959E+00  0.12967005941E+00  0.19872819169E-01 0.  0.
         14    1    1    2    0    0  0.17299375798E-02  0.17097543858E-01  0.16146516517E-01  0.23580260508E-01  0.00000000000E+00 0. -1.
     999901    1    3    3    0    0  0.14905130419E-01  0.34346978655E-01 -0.13231936611E+00  0.89067968008E+00  0.88000000000E+00 0. -1.
        -11    1    4    4    0    0 -0.88197197256E-02 -0.39996710430E-01  0.66551703547E-01  0.78146750843E-01  0.51100000000E-03 0. -1.
         11    1    4    4    0    0 -0.78153482735E-02 -0.11447812083E-01  0.49621146047E-01  0.51523308571E-01  0.51100000000E-03 0.  1.
</event>
<event>
 8    1  0.1070112E+005  0.1043930E+01  0.7957747E-01            NaN
         13   -1    0    0    0    0  0.00000000000E+00  0.00000000000E+00  0.74505805969E-08  0.10566000000E+00  0.10566000000E+00 0.  1.
     999900   -1    0    0    0    0 -0.00000000000E+00 -0.00000000000E+00 -0.74505805969E-08  0.93827000000E+00  0.93827000000E+00 0. -1.
     999902    2    1    2    0    0  0.48780455402E-03 -0.22095068513E-01  0.87793710071E-02  0.10201496013E+01  0.10198723948E+01 0.  0.
     999903    2    3    3    0    0  0.12367405279E+00 -0.27772887518E-01  0.27595428310E-01  0.13135202404E+00  0.20621395199E-01 0.  0.
         14    1    1    2    0    0 -0.48780455402E-03  0.22095068513E-01 -0.87793710071E-02  0.23780398675E-01  0.00000000000E+00 0. -1.
     999901    1    3    3    0    0 -0.12318624824E+00  0.56778190053E-02 -0.18816057303E-01  0.88879757729E+00  0.88000000000E+00 0. -1.
        -11    1    4    4    0    0  0.92158932718E-01 -0.22151512908E-01  0.11387738159E-01  0.95466748689E-01  0.51100000000E-03 0. -1.
         11    1    4    4    0    0  0.31515120072E-01 -0.56213746101E-02  0.16207690151E-01  0.35885275347E-01  0.51100000000E-03 0.  1.
</event>
<event>
 8    1  0.1070112E+005  0.1043930E+01  0.7957747E-01            NaN
         13   -1    0    0    0    0  0.00000000000E+00  0.00000000000E+00  0.74505805969E-08  0.10566000000E+00  0.10566000000E+00 0.  1.
     999900   -1    0    0    0    0 -0.00000000000E+00 -0.00000000000E+00 -0.74505805969E-08  0.93827000000E+00  0.93827000000E+00 0.  1.
     999902    2    1    2    0    0 -0.23275978685E-01  0.23139668640E-02 -0.81810674585E-02  0.10191498569E+01  0.10188485537E+01 0.  0.
     999903    2    3    3    0    0  0.92773605468E-01 -0.78701003976E-01  0.30192268572E-01  0.12701564930E+00  0.20508831940E-01 0.  0.
         14    1    1    2    0    0  0.23275978685E-01 -0.23139668640E-02  0.81810674585E-02  0.24780143082E-01  0.00000000000E+00 0.  1.
     999901    1    3    3    0    0 -0.11604958415E+00  0.81014970840E-01 -0.38373336030E-01  0.89213420762E+00  0.88000000000E+00 0. -1.
        -11    1    4    4    0    0  0.48855047489E-01 -0.50871228606E-01  0.10010597418E-01  0.71240232640E-01  0.51100000000E-03 0. -1.
         11    1    4    4    0    0  0.43918557979E-01 -0.27829775370E-01  0.20181671154E-01  0.55775416661E-01  0.51100000000E-03 0.  1.
</event>
<event>
 8    1  0.1070112E+005  0.1043930E+01  0.7957747E-01            NaN
         13   -1    0    0    0    0  0.00000000000E+00  0.00000000000E+00  0.74505805969E-08  0.10566000000E+00  0.10566000000E+00 0.  1.
     999900   -1    0    0    0    0 -0.00000000000E+00 -0.00000000000E+00 -0.74505805969E-08  0.93827000000E+00  0.93827000000E+00 0.  1.
     999902    2    1    2    0    0  0.21286530008E-01  0.65420825127E-02 -0.81203983123E-02  0.10202264966E+01  0.10199511010E+01 0.  0.
     999903    2    3    3    0    0 -0.10941755417E+00 -0.13690220659E-01 -0.62986492490E-01  0.12865306050E+00  0.20607970256E-01 0.  0.
         14    1    1    2    0    0 -0.21286530008E-01 -0.65420825127E-02  0.81203983123E-02  0.23703503372E-01  0.00000000000E+00 0.  1.
     999901    1    3    3    0    0  0.13070408418E+00  0.20232303172E-01  0.54866094177E-01  0.89157343612E+00  0.88000000000E+00 0.  1.
        -11    1    4    4    0    0 -0.47809599788E-01  0.18029815050E-02 -0.19504255977E-01  0.51669001310E-01  0.51100000000E-03 0. -1.
         11    1    4    4    0    0 -0.61607954384E-01 -0.15493202164E-01 -0.43482236513E-01  0.76984059193E-01  0.51100000000E-03 0.  1.
</event>
<event>
 8    1  0.1070112E+005  0.1043930E+01  0.7957747E-01            NaN
         13   -1    0    0    0    0  0.00000000000E+00  0.00000000000E+00  0.74505805969E-08  0.10566000000E+00  0.10566000000E+00 0. -1.
     999900   -1    0    0    0    0 -0.00000000000E+00 -0.00000000000E+00 -0.74505805969E-08  0.93827000000E+00  0.93827000000E+00 0.  1.
     999902    2    1    2    0    0  0.10917183263E-01 -0.76089369565E-03  0.21397777385E-01  0.10198960921E+01  0.10196128726E+01 0.  0.
     999903    2    3    3    0    0 -0.92197504697E-01 -0.61353720605E-01  0.66197425219E-01  0.13067669403E+00  0.20727767660E-01 0.  0.
         14    1    1    2    0    0 -0.10917183263E-01  0.76089369565E-03 -0.21397777385E-01  0.24033907852E-01  0.00000000000E+00 0.  1.
     999901    1    3    3    0    0  0.10311468796E+00  0.60592826909E-01 -0.44799647834E-01  0.88921939812E+00  0.88000000000E+00 0. -1.
        -11    1    4    4    0    0 -0.57355334587E-01 -0.33518528339E-01  0.50307066927E-01  0.83331796161E-01  0.51100000000E-03 0. -1.
         11    1    4    4    0    0 -0.34842170110E-01 -0.27835192266E-01  0.15890358293E-01  0.47344897868E-01  0.51100000000E-03 0.  1.
</event>
<event>
 8    1  0.1070112E+005  0.1043930E+01  0.7957747E-01            NaN
         13   -1    0    0    0    0  0.00000000000E+00  0.00000000000E+00  0.74505805969E-08  0.10566000000E+00  0.10566000000E+00 0.  1.
     999900   -1    0    0    0    0 -0.00000000000E+00 -0.00000000000E+00 -0.74505805969E-08  0.93827000000E+00  0.93827000000E+00 0. -1.
     999902    2    1    2    0    0 -0.16724703127E-01 -0.15641168259E-01  0.40666737378E-02  0.10206727501E+01  0.10204077435E+01 0.  0.
     999903    2    3    3    0    0  0.84582775052E-01  0.93825754050E-01  0.64240447363E-02  0.12811923939E+00  0.20390026816E-01 0.  0.
         14    1    1    2    0    0  0.16724703127E-01  0.15641168259E-01 -0.40666737378E-02  0.23257249934E-01  0.00000000000E+00 0. -1.
     999901    1    3    3    0    0 -0.10130747818E+00 -0.10946692231E+00 -0.23573709985E-02  0.89255351067E+00  0.88000000000E+00 0. -1.
        -11    1    4    4    0    0  0.38952071175E-01  0.47979288238E-01 -0.65371496218E-02  0.62147175276E-01  0.51100000000E-03 0. -1.
         11    1    4    4    0    0  0.45630703878E-01  0.45846465812E-01  0.12961194358E-01  0.65972064118E-01  0.51100000000E-03 0.  1.
</event>
<event>
 8    1  0.1070112E+005  0.1043930E+01  0.7957747E-01            NaN
         13   -1    0    0    0    0  0.00000000000E+00  0.00000000000E+00  0.74505805969E-08  0.10566000000E+00  0.10566000000E+00 0. -1.
     999900   -1    0    0    0    0 -0.00000000000E+00 -0.00000000000E+00 -0.74505805969E-08  0.93827000000E+00  0.93827000000E+00 0.  1.
     999902    2    1    2    0    0 -0.14019750432E-01 -0.18071592512E-01  0.70292384607E-02  0.10200020655E+01  0.10197213676E+01 0.  0.
     999903    2    3    3    0    0  0.74247197790E-01  0.98966193852E-01 -0.22637632103E-01  0.12738287409E+00  0.20173753234E-01 0.  0.
         14    1    1    2    0    0  0.14019750432E-01  0.18071592512E-01 -0.70292384607E-02  0.23927934542E-01  0.00000000000E+00 0.  1.
     999901    1    3    3    0    0 -0.88266948222E-01 -0.11703778636E+00  0.29666870564E-01  0.89261919137E+00  0.88000000000E+00 0.  1.
        -11    1    4    4    0    0  0.58413643082E-01  0.77461120172E-01 -0.91185447572E-02  0.97446333004E-01  0.51100000000E-03 0.  1.
         11    1    4    4    0    0  0.15833554708E-01  0.21505073680E-01 -0.13519087346E-01  0.29936541089E-01  0.51100000000E-03 0. -1.
</event>
<event>
 8    1  0.1070112E+005  0.1043930E+01  0.7957747E-01            NaN
         13   -1    0    0    0    0  0.00000000000E+00  0.00000000000E+00  0.74505805969E-08  0.10566000000E+00  0.10566000000E+00 0.  1.
     999900   -1    0    0    0    0 -0.00000000000E+00 -0.00000000000E+00 -0.74505805969E-08  0.93827000000E+00  0.93827000000E+00 0. -1.
     999902    2    1    2    0    0 -0.83517552099E-02 -0.37907173716E-02  0.21879680998E-01  0.10202057130E+01  0.10199298285E+01 0.  0.
     999903    2    3    3    0    0  0.86329467498E-01 -0.70567675106E-01 -0.61293482940E-01  0.12872297552E+00  0.19497170241E-01 0.  0.
         14    1    1    2    0    0  0.83517552099E-02  0.37907173716E-02 -0.21879680998E-01  0.23724287004E-01  0.00000000000E+00 0. -1.
     999901    1    3    3    0    0 -0.94681222708E-01  0.66776957735E-01  0.83173163938E-01  0.89148273748E+00  0.88000000000E+00 0.  1.
        -11    1    4    4    0    0  0.81293221437E-01 -0.63761834559E-01 -0.50508845834E-01  0.11500245226E+00  0.51100000000E-03 0. -1.
         11    1    4    4    0    0  0.50362460607E-02 -0.68058405475E-02 -0.10784637106E-01  0.13720523257E-01  0.51100000000E-03 0.  1.
</event>
<event>
 8    1  0.1070112E+005  0.1043930E+01  0.7957747E-01            NaN
         13   -1    0    0    0    0  0.00000000000E+00  0.00000000000E+00  0.74505805969E-08  0.10566000000E+00  0.10566000000E+00 0. -1.
     999900   -1    0    0    0    0 -0.00000000000E+00 -0.00000000000E+00 -0.74505805969E-08  0.93827000000E+00  0.93827000000E+00 0.  1.
     999902    2    1    2    0    0  0.18823003308E-01  0.15431200226E-01  0.30522213227E-03  0.10195882549E+01  0.10192976449E+01 0.  0.
     999903    2    3    3    0    0 -0.78735075729E-01  0.35285273649E-02 -0.99362364113E-01  0.12852547364E+00  0.20838793526E-01 0.  0.
         14    1    1    2    0    0 -0.18823003308E-01 -0.15431200226E-01 -0.30522213227E-03  0.24341745100E-01  0.00000000000E+00 0. -1.
     999901    1    3    3    0    0  0.97558079038E-01  0.11902672861E-01  0.99667586245E-01  0.89106278126E+00  0.88000000000E+00 0. -1.
        -11    1    4    4    0    0 -0.46738622741E-01  0.11066931237E-01 -0.66573424945E-01  0.82092982968E-01  0.51100000000E-03 0. -1.
         11    1    4    4    0    0 -0.31996452988E-01 -0.75384038724E-02 -0.32788939168E-01  0.46432490667E-01  0.51100000000E-03 0.  1.
</event>
<event>
 8    1  0.1070112E+005  0.1043930E+01  0.7957747E-01            NaN
         13   -1    0    0    0    0  0.00000000000E+00  0.00000000000E+00  0.74505805969E-08  0.10566000000E+00  0.10566000000E+00 0.  1.
     999900   -1    0    0    0    0 -0.00000000000E+00 -0.00000000000E+00 -0.74505805969E-08  0.93827000000E+00  0.93827000000E+00 0.  1.
     999902    2    1    2    0    0  0.92424904179E-02  0.20226310534E-01 -0.78899657995E-02  0.10203338387E+01  0.10200609607E+01 0.  0.
     999903    2    3    3    0    0 -0.15190256278E-02  0.12870465521E+00  0.26643528872E-01  0.13293543679E+00  0.19868492936E-01 0.  0.
         14    1    1    2    0    0 -0.92424904179E-02 -0.20226310534E-01  0.78899657995E-02  0.23596161282E-01  0.00000000000E+00 0.  1.
     999901    1    3    3    0    0  0.10761516046E-01 -0.10847834468E+00 -0.34533494671E-01  0.88739840193E+00  0.88000000000E+00 0. -1.
        -11    1    4    4    0    0  0.72404094173E-02  0.69767714171E-01  0.20239032488E-01  0.73005732831E-01  0.51100000000E-03 0. -1.
         11    1    4    4    0    0 -0.87594350451E-02  0.58936941041E-01  0.64044963834E-02  0.59929703958E-01  0.51100000000E-03 0.  1.
</event>
<event>
 8    1  0.1070112E+005  0.1043930E+01  0.7957747E-01            NaN
         13   -1    0    0    0    0  0.00000000000E+00  0.00000000000E+00  0.74505805969E-08  0.10566000000E+00  0.10566000000E+00 0. -1.
     999900   -1    0    0    0    0 -0.00000000000E+00 -0.00000000000E+00 -0.74505805969E-08  0.93827000000E+00  0.93827000000E+00 0. -1.
     999902    2    1    2    0    0  0.13049733746E-01 -0.63556711091E-02  0.17692389315E-01  0.10210452727E+01  0.10207887823E+01 0.  0.
     999903    2    3    3    0    0  0.40245105463E-01 -0.12093027396E+00 -0.30254552860E-01  0.13190757965E+00  0.15507157275E-01 0.  0.
         14    1    1    2    0    0 -0.13049733746E-01  0.63556711091E-02 -0.17692389315E-01  0.22884727347E-01  0.00000000000E+00 0.  1.
     999901    1    3    3    0    0 -0.27195371716E-01  0.11457460285E+00  0.47946942174E-01  0.88913769301E+00  0.88000000000E+00 0.  1.
        -11    1    4    4    0    0  0.35211276445E-01 -0.85175197788E-01 -0.19248843227E-01  0.94156398581E-01  0.51100000000E-03 0.  1.
         11    1    4    4    0    0  0.50338290173E-02 -0.35755076168E-01 -0.11005709633E-01  0.37751181066E-01  0.51100000000E-03 0. -1.
</event>
<event>
 8    1  0.1070112E+005  0.1043930E+01  0.7957747E-01            NaN
         13   -1    0    0    0    0  0.00000000000E+00  0.00000000000E+00  0.74505805969E-08  0.10566000000E+00  0.10566000000E+00 0.  1.
     999900   -1    0    0    0    0 -0.00000000000E+00 -0.00000000000E+00 -0.74505805969E-08  0.93827000000E+00  0.93827000000E+00 0. -1.
     999902    2    1    2    0    0  0.25335014980E-01  0.97984617053E-02  0.21343926772E-02  0.10166824594E+01  0.10163172707E+01 0.  0.
     999903    2    3    3    0    0 -0.41085746658E-01 -0.84681928400E-01  0.80510666852E-01  0.12568240215E+00  0.21331459340E-01 0.  0.
         14    1    1    2    0    0 -0.25335014980E-01 -0.97984617053E-02 -0.21343926772E-02  0.27247540585E-01  0.00000000000E+00 0.  1.
     999901    1    3    3    0    0  0.66420761638E-01  0.94480390105E-01 -0.78376274175E-01  0.89100005726E+00  0.88000000000E+00 0. -1.
        -11    1    4    4    0    0 -0.18382350826E-01 -0.48048570079E-01  0.56222400347E-01  0.76208892725E-01  0.51100000000E-03 0.  1.
         11    1    4    4    0    0 -0.22703395832E-01 -0.36633358321E-01  0.24288266505E-01  0.49473509426E-01  0.51100000000E-03 0. -1.
</event>
<event>
 8    1  0.1070112E+005  0.1043930E+01  0.7957747E-01            NaN
         13   -1    0    0    0    0  0.00000000000E+00  0.00000000000E+00  0.74505805969E-08  0.10566000000E+00  0.10566000000E+00 0.  1.
     999900   -1    0    0    0    0 -0.00000000000E+00 -0.00000000000E+00 -0.74505805969E-08  0.93827000000E+00  0.93827000000E+00 0. -1.
     999902    2    1    2    0    0 -0.10985650375E-01 -0.10654387594E-01 -0.34278793068E-01  0.10063902059E+01  0.10056898181E+01 0.  0.
     999903    2    3    3    0    0  0.51324824268E-01 -0.87958328295E-01  0.53099496872E-01  0.11650624711E+00  0.19576617325E-01 0.  0.
         14    1    1    2    0    0  0.10985650375E-01  0.10654387594E-01  0.34278793068E-01  0.37539794130E-01  0.00000000000E+00 0.  1.
     999901    1    3    3    0    0 -0.62310474643E-01  0.77303940702E-01 -0.87378289940E-01  0.88988395876E+00  0.88000000000E+00 0. -1.
        -11    1    4    4    0    0  0.44803184652E-01 -0.84570721609E-01  0.45674884652E-01  0.10604710518E+00  0.51100000000E-03 0.  1.
         11    1    4    4    0    0  0.65216396160E-02 -0.33876066863E-02  0.74246122202E-02  0.10459141932E-01  0.51100000000E-03 0. -1.
</event>
<event>
 8    1  0.1070112E+005  0.1043930E+01  0.7957747E-01            NaN
         13   -1    0    0    0    0  0.00000000000E+00  0.00000000000E+00  0.74505805969E-08  0.10566000000E+00  0.10566000000E+00 0.  1.
     999900   -1    0    0    0    0 -0.00000000000E+00 -0.00000000000E+00 -0.74505805969E-08  0.93827000000E+00  0.93827000000E+00 0. -1.
     999902    2    1    2    0    0 -0.19159286944E-01 -0.51949518429E-02  0.16606846067E-01  0.10180484788E+01  0.10177194369E+01 0.  0.
     999903    2    3    3    0    0  0.60258230122E-01 -0.11084844395E+00  0.87960905845E-02  0.12814353431E+00  0.20614614998E-01 0.  0.
         14    1    1    2    0    0  0.19159286944E-01  0.51949518429E-02 -0.16606846067E-01  0.25881521152E-01  0.00000000000E+00 0. -1.
     999901    1    3    3    0    0 -0.79417517066E-01  0.10565349211E+00  0.78107554830E-02  0.88990494454E+00  0.88000000000E+00 0. -1.
        -11    1    4    4    0    0  0.33782546684E-01 -0.43447212383E-01 -0.11320399342E-02  0.55049644501E-01  0.51100000000E-03 0. -1.
         11    1    4    4    0    0  0.26475683437E-01 -0.67401231570E-01  0.99281305187E-02  0.73093889808E-01  0.51100000000E-03 0.  1.
</event>
<event>
 7    1  0.1070112E+005  0.1043930E+01  0.7957747E-01            NaN
         13   -1    0    0    0    0  0.00000000000E+00  0.00000000000E+00  0.74505805969E-08  0.10566000000E+00  0.10566000000E+00 0.  1.
     999900   -1    0    0    0    0 -0.00000000000E+00 -0.00000000000E+00 -0.74505805969E-08  0.93827000000E+00  0.93827000000E+00 0. -1.
     999903    2    1    2    0    0 -0.99147919989E-01 -0.31196700077E-01  0.20034443201E-01  0.10783481649E+00  0.20577283573E-01 0.  0.
         14    1    1    2    0    0  0.34491241683E-01 -0.36501855737E-01  0.70691777345E-02  0.50714933687E-01  0.00000000000E+00 0. -1.
     999901    1    1    2    0    0  0.64656678306E-01  0.67698555813E-01 -0.27103620935E-01  0.88538024982E+00  0.88000000000E+00 0. -1.
        -11    1    3    3    0    0 -0.29732944266E-01 -0.75893454746E-02  0.15476749513E-01  0.34372038577E-01  0.51100000000E-03 0.  1.
         11    1    3    3    0    0 -0.69414975723E-01 -0.23607354602E-01  0.45576936881E-02  0.73462777913E-01  0.51100000000E-03 0. -1.
</event>
<event>
 8    1  0.1070112E+005  0.1043930E+01  0.7957747E-01            NaN
         13   -1    0    0    0    0  0.00000000000E+00  0.00000000000E+00  0.74505805969E-08  0.10566000000E+00  0.10566000000E+00 0.  1.
     999900   -1    0    0    0    0 -0.00000000000E+00 -0.00000000000E+00 -0.74505805969E-08  0.93827000000E+00  0.93827000000E+00 0.  1.
     999902    2    1    2    0    0 -0.15426884932E-01 -0.72271617861E-02 -0.17914407592E-01  0.10192086197E+01  0.10189087613E+01 0.  0.
     999903    2    3    3    0    0 -0.15588301895E-02 -0.91142747132E-01  0.88390445622E-01  0.12873971498E+00  0.21251188871E-01 0.  0.
         14    1    1    2    0    0  0.15426884932E-01  0.72271617861E-02  0.17914407592E-01  0.24721380332E-01  0.00000000000E+00 0.  1.
     999901    1    3    3    0    0 -0.13868054742E-01  0.83915585346E-01 -0.10630485321E+00  0.89046890469E+00  0.88000000000E+00 0.  1.
        -11    1    4    4    0    0  0.59346149255E-02 -0.67915114689E-01  0.56287693684E-01  0.88409547215E-01  0.51100000000E-03 0. -1.
         11    1    4    4    0    0 -0.74934451150E-02 -0.23227632444E-01  0.32102751938E-01  0.40330167761E-01  0.51100000000E-03 0.  1.
</event>
<event>
 8    1  0.1070112E+005  0.1043930E+01  0.7957747E-01            NaN
         13   -1    0    0    0    0  0.00000000000E+00  0.00000000000E+00  0.74505805969E-08  0.10566000000E+00  0.10566000000E+00 0.  1.
     999900   -1    0    0    0    0 -0.00000000000E+00 -0.00000000000E+00 -0.74505805969E-08  0.93827000000E+00  0.93827000000E+00 0.  1.
     999902    2    1    2    0    0 -0.22518395488E-01 -0.70694011664E-03  0.76611437087E-02  0.10201335502E+01  0.10198559649E+01 0.  0.
     999903    2    3    3    0    0 -0.23626608860E-01 -0.12725567807E+00 -0.50729848118E-02  0.13098903482E+00  0.19497892711E-01 0.  0.
         14    1    1    2    0    0  0.22518395488E-01  0.70694011664E-03 -0.76611437087E-02  0.23796449790E-01  0.00000000000E+00 0. -1.
     999901    1    3    3    0    0  0.11082133722E-02  0.12654873796E+00  0.12734128521E-01  0.88914451539E+00  0.88000000000E+00 0.  1.
        -11    1    4    4    0    0 -0.86621980087E-02 -0.38258261387E-01  0.72788249330E-02  0.39899506916E-01  0.51100000000E-03 0. -1.
         11    1    4    4    0    0 -0.14964410851E-01 -0.88997416687E-01 -0.12351809745E-01  0.91089527906E-01  0.51100000000E-03 0.  1.
</event>
<event>
 8    1  0.1070112E+005  0.1043930E+01  0.7957747E-01            NaN
         13   -1    0    0    0    0  0.00000000000E+00  0.00000000000E+00  0.74505805969E-08  0.10566000000E+00  0.10566000000E+00 0.  1.
     999900   -1    0    0    0    0 -0.00000000000E+00 -0.00000000000E+00 -0.74505805969E-08  0.93827000000E+00  0.93827000000E+00 0.  1.
     999902    2    1    2    0    0  0.24897637128E-01 -0.62589842291E-03  0.16542876038E-02  0.10189696164E+01  0.10186638593E+01 0.  0.
     999903    2    3    3    0    0  0.10976892403E+00  0.22408000494E-01  0.67140090057E-01  0.13216519252E+00  0.20211661292E-01 0.  0.
         14    1    1    2    0    0 -0.24897637128E-01  0.62589842291E-03 -0.16542876038E-02  0.24960383628E-01  0.00000000000E+00 0. -1.
     999901    1    3    3    0    0 -0.84871286903E-01 -0.23033898917E-01 -0.65485802453E-01  0.88680442385E+00  0.88000000000E+00 0.  1.
        -11    1    4    4    0    0  0.53441824513E-01  0.64995763301E-03  0.30765170877E-01  0.61670154145E-01  0.51100000000E-03 0. -1.
         11    1    4    4    0    0  0.56327099518E-01  0.21758042861E-01  0.36374919179E-01  0.70495038375E-01  0.51100000000E-03 0.  1.
</event>
<event>
 8    1  0.1070112E+005  0.1043930E+01  0.7957747E-01            NaN
         13   -1    0    0    0    0  0.00000000000E+00  0.00000000000E+00  0.74505805969E-08  0.10566000000E+00  0.10566000000E+00 0. -1.
     999900   -1    0    0    0    0 -0.00000000000E+00 -0.00000000000E+00 -0.74505805969E-08  0.93827000000E+00  0.93827000000E+00 0. -1.
     999902    2    1    2    0    0 -0.13071129517E-01  0.11693357415E-01  0.15677454656E-01  0.10204061479E+01  0.10201349592E+01 0.  0.
     999903    2    3    3    0    0 -0.13801996584E-03  0.12632247124E+00 -0.31325857850E-01  0.13163373018E+00  0.19716585968E-01 0.  0.
         14    1    1    2    0    0  0.13071129517E-01 -0.11693357415E-01 -0.15677454656E-01  0.23523852129E-01  0.00000000000E+00 0.  1.
     999901    1    3    3    0    0 -0.12933109551E-01 -0.11462911382E+00  0.47003312506E-01  0.88877241769E+00  0.88000000000E+00 0.  1.
        -11    1    4    4    0    0  0.55374627532E-02  0.42472202619E-01 -0.29786166232E-02  0.42938150485E-01  0.51100000000E-03 0. -1.
         11    1    4    4    0    0 -0.56754827190E-02  0.83850268619E-01 -0.28347241227E-01  0.88695579697E-01  0.51100000000E-03 0.  1.
</event>
<event>
 8    1  0.1176606E+005  0.1043930E+01  0.7957747E-01            NaN
         13   -1    0    0    0    0  0.00000000000E+00  0.00000000000E+00  0.74505805969E-08  0.10566000000E+00  0.10566000000E+00 0.  1.
     999900   -1    0    0    0    0 -0.00000000000E+00 -0.00000000000E+00 -0.74505805969E-08  0.93827000000E+00  0.93827000000E+00 0.  1.
     999902    2    1    2    0    0  0.88924425586E-02 -0.15675457664E-01 -0.14953772855E-01  0.10205118269E+01  0.10202430975E+01 0.  0.
     999903    2    3    3    0    0  0.49096091474E-01  0.11797888914E+00 -0.73851193440E-02  0.12948034470E+00  0.19523708532E-01 0.  0.
         14    1    1    2    0    0 -0.88924425586E-02  0.15675457664E-01  0.14953772855E-01  0.23418173076E-01  0.00000000000E+00 0.  1.
     999901    1    3    3    0    0 -0.40203648915E-01 -0.13365434680E+00 -0.75686535105E-02  0.89103148223E+00  0.88000000000E+00 0. -1.
        -11    1    4    4    0    0  0.34688789751E-01  0.62196661295E-01  0.12070431033E-02  0.71228188834E-01  0.51100000000E-03 0.  1.
         11    1    4    4    0    0  0.14407301723E-01  0.55782227843E-01 -0.85921624472E-02  0.58252155862E-01  0.51100000000E-03 0. -1.
</event>
<event>
 8    1  0.1070112E+005  0.1043930E+01  0.7957747E-01            NaN
         13   -1    0    0    0    0  0.00000000000E+00  0.00000000000E+00  0.74505805969E-08  0.10566000000E+00  0.10566000000E+00 0. -1.
     999900   -1    0    0    0    0 -0.00000000000E+00 -0.00000000000E+00 -0.74505805969E-08  0.93827000000E+00  0.93827000000E+00 0. -1.
     999902    2    1    2    0    0  0.76744556032E-02  0.56237270166E-02 -0.21480122841E-01  0.10204370383E+01  0.10201665696E+01 0.  0.
     999903    2    3    3    0    0  0.12663902010E+00  0.30621304954E-01 -0.72237139314E-03  0.13183795500E+00  0.20139980912E-01 0.  0.
         14    1    1    2    0    0 -0.76744556032E-02 -0.56237270166E-02  0.21480122841E-01  0.23492961747E-01  0.00000000000E+00 0. -1.
     999901    1    3    3    0    0 -0.11896456449E+00 -0.24997577937E-01 -0.20757751448E-01  0.88859908325E+00  0.88000000000E+00 0. -1.
        -11    1    4    4    0    0  0.82994106018E-01  0.12819026878E-01  0.61323974357E-02  0.84203423346E-01  0.51100000000E-03 0. -1.
         11    1    4    4    0    0  0.43644914077E-01  0.17802278075E-01 -0.68547688288E-02  0.47634531657E-01  0.51100000000E-03 0.  1.
</event>
<event>
 8    1  0.1070112E+005  0.1043930E+01  0.7957747E-01            NaN
         13   -1    0    0    0    0  0.00000000000E+00  0.00000000000E+00  0.74505805969E-08  0.10566000000E+00  0.10566000000E+00 0.  1.
     999900   -1    0    0    0    0 -0.00000000000E+00 -0.00000000000E+00 -0.74505805969E-08  0.93827000000E+00  0.93827000000E+00 0.  1.
     999902    2    1    2    0    0  0.63488580232E-02 -0.11180303358E-01  0.19388629921E-01  0.10206657323E+01  0.10204005640E+01 0.  0.
     999903    2    3    3    0    0  0.81539217912E-02  0.12095995596E+00 -0.38661685895E-01  0.12890671465E+00  0.20601401392E-01 0.  0.
         14    1    1    2    0    0 -0.63488580232E-02  0.11180303358E-01 -0.19388629921E-01  0.23264267699E-01  0.00000000000E+00 0. -1.
     999901    1    3    3    0    0 -0.18050637680E-02 -0.13214025932E+00  0.58050315815E-01  0.89175901765E+00  0.88000000000E+00 0. -1.
        -11    1    4    4    0    0  0.56754408388E-02  0.62186025850E-01 -0.30559320866E-01  0.69522986505E-01  0.51100000000E-03 0.  1.
         11    1    4    4    0    0  0.24784809525E-02  0.58773930113E-01 -0.81023650286E-02  0.59383728149E-01  0.51100000000E-03 0. -1.
</event>
<event>
 8    1  0.1070112E+005  0.1043930E+01  0.7957747E-01            NaN
         13   -1    0    0    0    0  0.00000000000E+00  0.00000000000E+00  0.74505805969E-08  0.10566000000E+00  0.10566000000E+00 0.  1.
     999900   -1    0    0    0    0 -0.00000000000E+00 -0.00000000000E+00 -0.74505805969E-08  0.93827000000E+00  0.93827000000E+00 0. -1.
     999902    2    1    2    0    0  0.15473009170E-01 -0.12294747481E-01  0.11668204893E-01  0.10209795788E+01  0.10207215969E+01 0.  0.
     999903    2    3    3    0    0  0.81279785824E-01  0.38508259788E-01 -0.92856245416E-01  0.13090270676E+00  0.20589965265E-01 0.  0.
         14    1    1    2    0    0 -0.15473009170E-01  0.12294747481E-01 -0.11668204893E-01  0.22950421213E-01  0.00000000000E+00 0. -1.
     999901    1    3    3    0    0 -0.65806776653E-01 -0.50803007269E-01  0.10452445031E+00  0.89007687202E+00  0.88000000000E+00 0. -1.
        -11    1    4    4    0    0  0.54275771943E-01  0.31379303853E-01 -0.74981035329E-01  0.97739126814E-01  0.51100000000E-03 0. -1.
         11    1    4    4    0    0  0.27004013880E-01  0.71289559342E-02 -0.17875210088E-01  0.33163579949E-01  0.51100000000E-03 0.  1.
</event>
<event>
 8    1  0.1070112E+005  0.1043930E+01  0.7957747E-01            NaN
         13   -1    0    0    0    0  0.00000000000E+00  0.00000000000E+00  0.74505805969E-08  0.10566000000E+00  0.10566000000E+00 0.  1.
     999900   -1    0    0    0    0 -0.00000000000E+00 -0.00000000000E+00 -0.74505805969E-08  0.93827000000E+00  0.93827000000E+00 0.  1.
     999902    2    1    2    0    0 -0.59628505570E-02  0.74592139713E-02  0.20392905845E-01  0.10214118724E+01  0.10211636241E+01 0.  0.
     999903    2    3    3    0    0 -0.62665640819E-01 -0.61940763088E-01 -0.92896794027E-01  0.12963492761E+00  0.20291856614E-01 0.  0.
         14    1    1    2    0    0  0.59628505570E-02 -0.74592139713E-02 -0.20392905845E-01  0.22518127556E-01  0.00000000000E+00 0. -1.
     999901    1    3    3    0    0  0.56702790262E-01  0.69399977059E-01  0.11328969987E+00  0.89177694483E+00  0.88000000000E+00 0. -1.
        -11    1    4    4    0    0 -0.15152195872E-01 -0.95431906385E-02 -0.30202830664E-01  0.35116002455E-01  0.51100000000E-03 0. -1.
         11    1    4    4    0    0 -0.47513444947E-01 -0.52397572449E-01 -0.62693963363E-01  0.94518925155E-01  0.51100000000E-03 0.  1.
</event>
<event>
 8    1  0.1070112E+005  0.1043930E+01  0.7957747E-01            NaN
         13   -1    0    0    0    0  0.00000000000E+00  0.00000000000E+00  0.74505805969E-08  0.10566000000E+00  0.10566000000E+00 0.  1.
     999900   -1    0    0    0    0 -0.00000000000E+00 -0.00000000000E+00 -0.74505805969E-08  0.93827000000E+00  0.93827000000E+00 0. -1.
     999902    2    1    2    0    0 -0.78738496451E-02 -0.22253193449E-01  0.28954977499E-02  0.10201479472E+01  0.10198707017E+01 0.  0.
     999903    2    3    3    0    0 -0.51519796990E-02  0.78121937299E-01 -0.99952416020E-01  0.12848642579E+00  0.19715378800E-01 0.  0.
         14    1    1    2    0    0  0.78738496451E-02  0.22253193449E-01 -0.28954977499E-02  0.23782052774E-01  0.00000000000E+00 0. -1.
     999901    1    3    3    0    0 -0.27218699460E-02 -0.10037513075E+00  0.10284791377E+00  0.89166152144E+00  0.88000000000E+00 0. -1.
        -11    1    4    4    0    0 -0.12524044660E-01  0.51564789079E-01 -0.62657635248E-01  0.82109801749E-01  0.51100000000E-03 0. -1.
         11    1    4    4    0    0  0.73720649608E-02  0.26557148220E-01 -0.37294780772E-01  0.46376624038E-01  0.51100000000E-03 0.  1.
</event>
<event>
 8    1  0.1070112E+005  0.1043930E+01  0.7957747E-01            NaN
         13   -1    0    0    0    0  0.00000000000E+00  0.00000000000E+00  0.74505805969E-08  0.10566000000E+00  0.10566000000E+00 0. -1.
     999900   -1    0    0    0    0 -0.00000000000E+00 -0.00000000000E+00 -0.74505805969E-08  0.93827000000E+00  0.93827000000E+00 0.  1.
     999902    2    1    2    0    0 -0.20091744161E-01  0.26359441839E-02 -0.12061035110E-01  0.10203483344E+01  0.10200757955E+01 0.  0.
     999903    2    3    3    0    0 -0.60782285818E-01 -0.11407490093E+00  0.11515044826E-01  0.13139784471E+00  0.20621058306E-01 0.  0.
         14    1    1    2    0    0  0.20091744161E-01 -0.26359441839E-02  0.12061035110E-01  0.23581665613E-01  0.00000000000E+00 0. -1.
     999901    1    3    3    0    0  0.40690541657E-01  0.11671084512E+00 -0.23576079936E-01  0.88895048967E+00  0.88000000000E+00 0. -1.
        -11    1    4    4    0    0 -0.42010241289E-01 -0.57146088400E-01  0.51531849247E-02  0.71115063302E-01  0.51100000000E-03 0. -1.
         11    1    4    4    0    0 -0.18772044529E-01 -0.56928812532E-01  0.63618599014E-02  0.60282781410E-01  0.51100000000E-03 0.  1.
</event>
<event>
 8    1  0.1070112E+005  0.1043930E+01  0.7957747E-01            NaN
         13   -1    0    0    0    0  0.00000000000E+00  0.00000000000E+00  0.74505805969E-08  0.10566000000E+00  0.10566000000E+00 0. -1.
     999900   -1    0    0    0    0 -0.00000000000E+00 -0.00000000000E+00 -0.74505805969E-08  0.93827000000E+00  0.93827000000E+00 0. -1.
     999902    2    1    2    0    0  0.82175087894E-02 -0.23443486555E-01  0.20058896397E-03  0.10190871993E+01  0.10187843515E+01 0.  0.
     999903    2    3    3    0    0  0.65417028110E-01 -0.10063511805E+00 -0.54478869347E-01  0.13217109492E+00  0.97178482711E-02 0.  0.
         14    1    1    2    0    0 -0.82175087894E-02  0.23443486555E-01 -0.20058896397E-03  0.24842800737E-01  0.00000000000E+00 0.  1.
     999901    1    3    3    0    0 -0.57199519320E-01  0.77191631495E-01  0.54679458311E-01  0.88691610434E+00  0.88000000000E+00 0.  1.
        -11    1    4    4    0    0  0.34833907321E-01 -0.45145309299E-01 -0.27402006392E-01  0.63266350663E-01  0.51100000000E-03 0.  1.
         11    1    4    4    0    0  0.30583120788E-01 -0.55489808751E-01 -0.27076862955E-01  0.68904744256E-01  0.51100000000E-03 0. -1.
</event>
<event>
 8    1  0.1070112E+005  0.1043930E+01  0.7957747E-01            NaN
         13   -1    0    0    0    0  0.00000000000E+00  0.00000000000E+00  0.74505805969E-08  0.10566000000E+00  0.10566000000E+00 0. -1.
     999900   -1    0    0    0    0 -0.00000000000E+00 -0.00000000000E+00 -0.74505805969E-08  0.93827000000E+00  0.93827000000E+00 0.  1.
     999902    2    1    2    0    0 -0.13827518884E-01  0.19782176575E-01  0.27192192567E-02  0.10196415471E+01  0.10193522236E+01 0.  0.
     999903    2    3    3    0    0 -0.36123732987E-02  0.16407662235E-01 -0.12738186318E+00  0.13001127102E+00  0.19862802081E-01 0.  0.
         14    1    1    2    0    0  0.13827518884E-01 -0.19782176575E-01 -0.27192192567E-02  0.24288452851E-01  0.00000000000E+00 0.  1.
     999901    1    3    3    0    0 -0.10215145585E-01  0.33745143401E-02  0.13010108243E+00  0.88963027612E+00  0.88000000000E+00 0. -1.
        -11    1    4    4    0    0  0.53595538734E-02  0.12465402884E-01 -0.10012918719E+00  0.10104566461E+00  0.51100000000E-03 0.  1.
         11    1    4    4    0    0 -0.89719271722E-02  0.39422593512E-02 -0.27252675981E-01  0.28965606417E-01  0.51100000000E-03 0. -1.
</event>
<event>
 8    1  0.1070112E+005  0.1043930E+01  0.7957747E-01            NaN
         13   -1    0    0    0    0  0.00000000000E+00  0.00000000000E+00  0.74505805969E-08  0.10566000000E+00  0.10566000000E+00 0. -1.
     999900   -1    0    0    0    0 -0.00000000000E+00 -0.00000000000E+00 -0.74505805969E-08  0.93827000000E+00  0.93827000000E+00 0.  1.
     999902    2    1    2    0    0 -0.26206981627E-02 -0.22802261456E-01 -0.46115974888E-02  0.10205189339E+01  0.10202503694E+01 0.  0.
     999903    2    3    3    0    0  0.78523460095E-02 -0.10126949259E+00  0.82724037123E-01  0.13265953954E+00  0.20931260012E-01 0.  0.
         14    1    1    2    0    0  0.26206981627E-02  0.22802261456E-01  0.46115974888E-02  0.23411066139E-01  0.00000000000E+00 0. -1.
     999901    1    3    3    0    0 -0.10473044172E-01  0.78467231131E-01 -0.87335634612E-01  0.88785939432E+00  0.88000000000E+00 0.  1.
        -11    1    4    4    0    0  0.12930072281E-01 -0.70150176532E-01  0.49331138156E-01  0.86729789286E-01  0.51100000000E-03 0.  1.
         11    1    4    4    0    0 -0.50777262716E-02 -0.31119316055E-01  0.33392898967E-01  0.45929750252E-01  0.51100000000E-03 0. -1.
</event>
<event>
 8    1  0.1070112E+005  0.1043930E+01  0.7957747E-01            NaN
         13   -1    0    0    0    0  0.00000000000E+00  0.00000000000E+00  0.74505805969E-08  0.10566000000E+00  0.10566000000E+00 0. -1.
     999900   -1    0    0    0    0 -0.00000000000E+00 -0.00000000000E+00 -0.74505805969E-08  0.93827000000E+00  0.93827000000E+00 0. -1.
     999902    2    1    2    0    0  0.19320714160E-01 -0.12360717920E-01  0.83101147204E-02  0.10195346039E+01  0.10192426959E+01 0.  0.
     999903    2    3    3    0    0 -0.70155259137E-01 -0.10110415398E+00  0.37017260402E-01  0.13009351680E+00  0.20254263984E-01 0.  0.
         14    1    1    2    0    0 -0.19320714160E-01  0.12360717920E-01 -0.83101147204E-02  0.24395396078E-01  0.00000000000E+00 0.  1.
     999901    1    3    3    0    0  0.89475973297E-01  0.88743436062E-01 -0.28707145682E-01  0.88944108712E+00  0.88000000000E+00 0. -1.
        -11    1    4    4    0    0 -0.40709963072E-01 -0.75093864400E-01  0.25833842567E-01  0.89241459572E-01  0.51100000000E-03 0. -1.
         11    1    4    4    0    0 -0.29445296065E-01 -0.26010289582E-01  0.11183417835E-01  0.40852057231E-01  0.51100000000E-03 0.  1.
</event>
<event>
 8    1  0.1070112E+005  0.1043930E+01  0.7957747E-01            NaN
         13   -1    0    0    0    0  0.00000000000E+00  0.00000000000E+00  0.74505805969E-08  0.10566000000E+00  0.10566000000E+00 0.  1.
     999900   -1    0    0    0    0 -0.00000000000E+00 -0.00000000000E+00 -0.74505805969E-08  0.93827000000E+00  0.93827000000E+00 0. -1.
     999902    2    1    2    0    0  0.89779457068E-02 -0.20752992289E-01 -0.54575896644E-02  0.10206689707E+01  0.10204038771E+01 0.  0.
     999903    2    3    3    0    0  0.11740213859E-01 -0.61200849267E-01 -0.11534201670E+00  0.13290872912E+00  0.21853441106E-01 0.  0.
         14    1    1    2    0    0 -0.89779457068E-02  0.20752992289E-01  0.54575896644E-02  0.23261029277E-01  0.00000000000E+00 0.  1.
     999901    1    3    3    0    0 -0.27622681520E-02  0.40447856978E-01  0.10988442704E+00  0.88776024160E+00  0.88000000000E+00 0.  1.
        -11    1    4    4    0    0  0.10334013599E-01 -0.24797679781E-01 -0.30940551857E-01  0.40979209727E-01  0.51100000000E-03 0.  1.
         11    1    4    4    0    0  0.14062002600E-02 -0.36403169486E-01 -0.84401464844E-01  0.91929519397E-01  0.51100000000E-03 0. -1.
</event>
<event>
 8    1  0.1070112E+005  0.1043930E+01  0.7957747E-01            NaN
         13   -1    0    0    0    0  0.00000000000E+00  0.00000000000E+00  0.74505805969E-08  0.10566000000E+00  0.10566000000E+00 0. -1.
     999900   -1    0    0    0    0 -0.00000000000E+00 -0.00000000000E+00 -0.74505805969E-08  0.93827000000E+00  0.93827000000E+00 0.  1.
     999902    2    1    2    0    0 -0.17169620329E-01 -0.16984964956E-01 -0.67344475745E-02  0.10188573519E+01  0.10185488039E+01 0.  0.
     999903    2    3    3    0    0 -0.11175250069E+00  0.53352013316E-01  0.35093053311E-01  0.13001386088E+00  0.18358183312E-01 0.  0.
         14    1    1    2    0    0  0.17169620329E-01  0.16984964956E-01  0.67344475745E-02  0.25072648064E-01  0.00000000000E+00 0.  1.
     999901    1    3    3    0    0  0.94582880359E-01 -0.70336978272E-01 -0.41827500886E-01  0.88884349106E+00  0.88000000000E+00 0. -1.
        -11    1    4    4    0    0 -0.73785759847E-01  0.32110652630E-01  0.14067683143E-01  0.81692063253E-01  0.51100000000E-03 0.  1.
         11    1    4    4    0    0 -0.37966740841E-01  0.21241360686E-01  0.21025370168E-01  0.48321797623E-01  0.51100000000E-03 0. -1.
</event>
<event>
 8    1  0.1070112E+005  0.1043930E+01  0.7957747E-01            NaN
         13   -1    0    0    0    0  0.00000000000E+00  0.00000000000E+00  0.74505805969E-08  0.10566000000E+00  0.10566000000E+00 0. -1.
     999900   -1    0    0    0    0 -0.00000000000E+00 -0.00000000000E+00 -0.74505805969E-08  0.93827000000E+00  0.93827000000E+00 0. -1.
     999902    2    1    2    0    0 -0.30924929543E-02  0.12482621900E-01 -0.22085476311E-01  0.10183732470E+01  0.10180525146E+01 0.  0.
     999903    2    3    3    0    0 -0.18102306774E-01  0.18262739320E-01  0.12229213273E+00  0.12646316278E+00  0.19399604500E-01 0.  0.
         14    1    1    2    0    0  0.30924929543E-02 -0.12482621900E-01  0.22085476311E-01  0.25556753042E-01  0.00000000000E+00 0. -1.
     999901    1    3    3    0    0  0.15009813820E-01 -0.57801174194E-02 -0.14437760904E+00  0.89191008418E+00  0.88000000000E+00 0. -1.
        -11    1    4    4    0    0 -0.75918900859E-02  0.18109850708E-01  0.56100592174E-01  0.59440230913E-01  0.51100000000E-03 0.  1.
         11    1    4    4    0    0 -0.10510416688E-01  0.15288861164E-03  0.66191540554E-01  0.67022931865E-01  0.51100000000E-03 0. -1.
</event>
<event>
 8    1  0.1070112E+005  0.1043930E+01  0.7957747E-01            NaN
         13   -1    0    0    0    0  0.00000000000E+00  0.00000000000E+00  0.74505805969E-08  0.10566000000E+00  0.10566000000E+00 0.  1.
     999900   -1    0    0    0    0 -0.00000000000E+00 -0.00000000000E+00 -0.74505805969E-08  0.93827000000E+00  0.93827000000E+00 0. -1.
     999902    2    1    2    0    0  0.25082566045E-02 -0.12022712876E-01  0.22696654189E-01  0.10181235069E+01  0.10177963943E+01 0.  0.
     999903    2    3    3    0    0  0.10094636730E+00 -0.72395160416E-01 -0.28812479351E-01  0.12908577714E+00  0.20043716450E-01 0.  0.
         14    1    1    2    0    0 -0.25082566045E-02  0.12022712876E-01 -0.22696654189E-01  0.25806493126E-01  0.00000000000E+00 0. -1.
     999901    1    3    3    0    0 -0.98438110698E-01  0.60372447540E-01  0.51509133540E-01  0.88903772974E+00  0.88000000000E+00 0.  1.
        -11    1    4    4    0    0  0.13130479748E-01 -0.15065962798E-01  0.11238114155E-02  0.20022907045E-01  0.51100000000E-03 0.  1.
         11    1    4    4    0    0  0.87815887554E-01 -0.57329197618E-01 -0.29936290766E-01  0.10906287009E+00  0.51100000000E-03 0. -1.
</event>
<event>
 8    1  0.1070112E+005  0.1043930E+01  0.7957747E-01            NaN
         13   -1    0    0    0    0  0.00000000000E+00  0.00000000000E+00  0.74505805969E-08  0.10566000000E+00  0.10566000000E+00 0. -1.
     999900   -1    0    0    0    0 -0.00000000000E+00 -0.00000000000E+00 -0.74505805969E-08  0.93827000000E+00  0.93827000000E+00 0.  1.
     999902    2    1    2    0    0 -0.15607301897E-01  0.18207855926E-01 -0.28885429304E-02  0.10197751336E+01  0.10194890218E+01 0.  0.
     999903    2    3    3    0    0  0.72593171302E-01 -0.89013235699E-01  0.51049423180E-01  0.12725903283E+00  0.19892038142E-01 0.  0.
         14    1    1    2    0    0  0.15607301897E-01 -0.18207855926E-01  0.28885429304E-02  0.24154866387E-01  0.00000000000E+00 0. -1.
     999901    1    3    3    0    0 -0.88200473199E-01  0.10722109162E+00 -0.53937966110E-01  0.89251610078E+00  0.88000000000E+00 0. -1.
        -11    1    4    4    0    0  0.58364893471E-01 -0.75287744409E-01  0.34000207216E-01  0.10114830923E+00  0.51100000000E-03 0.  1.
         11    1    4    4    0    0  0.14228277831E-01 -0.13725491290E-01  0.17049215964E-01  0.26110723605E-01  0.51100000000E-03 0. -1.
</event>
<event>
 8    1  0.1070112E+005  0.1043930E+01  0.7957747E-01            NaN
         13   -1    0    0    0    0  0.00000000000E+00  0.00000000000E+00  0.74505805969E-08  0.10566000000E+00  0.10566000000E+00 0.  1.
     999900   -1    0    0    0    0 -0.00000000000E+00 -0.00000000000E+00 -0.74505805969E-08  0.93827000000E+00  0.93827000000E+00 0. -1.
     999902    2    1    2    0    0  0.11319875492E-01  0.34447216914E-01  0.11696264808E-01  0.10058307488E+01  0.10051089206E+01 0.  0.
     999903    2    3    3    0    0 -0.10936163126E+00 -0.30704665741E-01  0.20075200605E-02  0.11515535017E+00  0.18814399962E-01 0.  0.
         14    1    1    2    0    0 -0.11319875492E-01 -0.34447216914E-01 -0.11696264808E-01  0.38099251235E-01  0.00000000000E+00 0. -1.
     999901    1    3    3    0    0  0.12068150675E+00  0.65151882654E-01  0.96887447473E-02  0.89067539859E+00  0.88000000000E+00 0. -1.
        -11    1    4    4    0    0 -0.61445956267E-01 -0.75240293406E-02  0.10155246865E-02  0.61915337118E-01  0.51100000000E-03 0. -1.
         11    1    4    4    0    0 -0.47915674994E-01 -0.23180636400E-01  0.99199537403E-03  0.53240013053E-01  0.51100000000E-03 0.  1.
</event>
<event>
 8    1  0.1070112E+005  0.1043930E+01  0.7957747E-01            NaN
         13   -1    0    0    0    0  0.00000000000E+00  0.00000000000E+00  0.74505805969E-08  0.10566000000E+00  0.10566000000E+00 0. -1.
     999900   -1    0    0    0    0 -0.00000000000E+00 -0.00000000000E+00 -0.74505805969E-08  0.93827000000E+00  0.93827000000E+00 0. -1.
     999902    2    1    2    0    0  0.12660254404E-01  0.31337014876E-02  0.20494211372E-01  0.10196377208E+01  0.10193483050E+01 0.  0.
     999903    2    3    3    0    0  0.36285319986E-01  0.98778801620E-01  0.78672847633E-01  0.13223089046E+00  0.14890108838E-01 0.  0.
         14    1    1    2    0    0 -0.12660254404E-01 -0.31337014876E-02 -0.20494211372E-01  0.24292279151E-01  0.00000000000E+00 0.  1.
     999901    1    3    3    0    0 -0.23625065582E-01 -0.95645100133E-01 -0.58178636261E-01  0.88740683039E+00  0.88000000000E+00 0. -1.
        -11    1    4    4    0    0  0.17738664044E-01  0.50204026586E-01  0.48998603677E-01  0.72361790821E-01  0.51100000000E-03 0.  1.
         11    1    4    4    0    0  0.18546655942E-01  0.48574775034E-01  0.29674243956E-01  0.59869099639E-01  0.51100000000E-03 0. -1.
</event>
<event>
 8    1  0.1070112E+005  0.1043930E+01  0.7957747E-01            NaN
         13   -1    0    0    0    0  0.00000000000E+00  0.00000000000E+00  0.74505805969E-08  0.10566000000E+00  0.10566000000E+00 0.  1.
     999900   -1    0    0    0    0 -0.00000000000E+00 -0.00000000000E+00 -0.74505805969E-08  0.93827000000E+00  0.93827000000E+00 0.  1.
     999902    2    1    2    0    0 -0.16905713157E-01 -0.11346665160E-01  0.13238349030E-01  0.10196441228E+01  0.10193548613E+01 0.  0.
     999903    2    3    3    0    0  0.75210574857E-01  0.87063495484E-01 -0.50209722031E-01  0.12712206257E+00  0.20057910875E-01 0.  0.
         14    1    1    2    0    0  0.16905713157E-01  0.11346665160E-01 -0.13238349030E-01  0.24285877226E-01  0.00000000000E+00 0. -1.
     999901    1    3    3    0    0 -0.92116288013E-01 -0.98410160643E-01  0.63448071062E-01  0.89252206021E+00  0.88000000000E+00 0. -1.
        -11    1    4    4    0    0  0.34472181008E-01  0.25325160473E-01 -0.19976007801E-01  0.47212255030E-01  0.51100000000E-03 0. -1.
         11    1    4    4    0    0  0.40738393849E-01  0.61738335011E-01 -0.30233714231E-01  0.79909807537E-01  0.51100000000E-03 0.  1.
</event>
<event>
 8    1  0.1070112E+005  0.1043930E+01  0.7957747E-01            NaN
         13   -1    0    0    0    0  0.00000000000E+00  0.00000000000E+00  0.74505805969E-08  0.10566000000E+00  0.10566000000E+00 0.  1.
     999900   -1    0    0    0    0 -0.00000000000E+00 -0.00000000000E+00 -0.74505805969E-08  0.93827000000E+00  0.93827000000E+00 0.  1.
     999902    2    1    2    0    0  0.89271354778E-03 -0.14309252881E-01 -0.18685535841E-01  0.10203779108E+01  0.10201060631E+01 0.  0.
     999903    2    3    3    0    0  0.89994512152E-01 -0.13388682282E-01 -0.94396536953E-01  0.13264364108E+00  0.20133561526E-01 0.  0.
         14    1    1    2    0    0 -0.89271354778E-03  0.14309252881E-01  0.18685535841E-01  0.23552089189E-01  0.00000000000E+00 0.  1.
     999901    1    3    3    0    0 -0.89101798604E-01 -0.92057059923E-03  0.75711001111E-01  0.88773426973E+00  0.88000000000E+00 0. -1.
        -11    1    4    4    0    0  0.35827777136E-01 -0.41202701131E-02 -0.51761986796E-01  0.63088593568E-01  0.51100000000E-03 0.  1.
         11    1    4    4    0    0  0.54166735016E-01 -0.92684121690E-02 -0.42634550157E-01  0.69555047512E-01  0.51100000000E-03 0. -1.
</event>
<event>
 8    1  0.1070112E+005  0.1043930E+01  0.7957747E-01            NaN
         13   -1    0    0    0    0  0.00000000000E+00  0.00000000000E+00  0.74505805969E-08  0.10566000000E+00  0.10566000000E+00 0.  1.
     999900   -1    0    0    0    0 -0.00000000000E+00 -0.00000000000E+00 -0.74505805969E-08  0.93827000000E+00  0.93827000000E+00 0.  1.
     999902    2    1    2    0    0 -0.97964996592E-03 -0.21274533730E-01  0.93596288176E-02  0.10206669789E+01  0.10204018393E+01 0.  0.
     999903    2    3    3    0    0  0.59888754396E-01  0.73138996861E-01 -0.84959759521E-01  0.12852628123E+00  0.19101530408E-01 0.  0.
         14    1    1    2    0    0  0.97964996592E-03  0.21274533730E-01 -0.93596288176E-02  0.23263021108E-01  0.00000000000E+00 0. -1.
     999901    1    3    3    0    0 -0.60868404362E-01 -0.94413530591E-01  0.94319388339E-01  0.89214069766E+00  0.88000000000E+00 0. -1.
        -11    1    4    4    0    0  0.14177038673E-01  0.64417579708E-02 -0.13565056792E-01  0.20658086989E-01  0.51100000000E-03 0. -1.
         11    1    4    4    0    0  0.45711715724E-01  0.66697238890E-01 -0.71394702729E-01  0.10786819424E+00  0.51100000000E-03 0.  1.
</event>
<event>
 8    1  0.1070112E+005  0.1043930E+01  0.7957747E-01            NaN
         13   -1    0    0    0    0  0.00000000000E+00  0.00000000000E+00  0.74505805969E-08  0.10566000000E+00  0.10566000000E+00 0. -1.
     999900   -1    0    0    0    0 -0.00000000000E+00 -0.00000000000E+00 -0.74505805969E-08  0.93827000000E+00  0.93827000000E+00 0. -1.
     999902    2    1    2    0    0  0.22883756128E-01 -0.11862152742E-02  0.50193294947E-03  0.10210100232E+01  0.10207527331E+01 0.  0.
     999903    2    3    3    0    0  0.12033824801E+00 -0.54055973792E-01  0.11647703302E-01  0.13398306893E+00  0.20308902724E-01 0.  0.
         14    1    1    2    0    0 -0.22883756128E-01  0.11862152742E-02 -0.50193294947E-03  0.22919976830E-01  0.00000000000E+00 0. -1.
     999901    1    3    3    0    0 -0.97454491885E-01  0.52869758518E-01 -0.11145770353E-01  0.88702695424E+00  0.88000000000E+00 0. -1.
        -11    1    4    4    0    0  0.91406036548E-01 -0.33251111157E-01  0.13981507619E-01  0.98267205043E-01  0.51100000000E-03 0.  1.
         11    1    4    4    0    0  0.28932211464E-01 -0.20804862635E-01 -0.23338043170E-02  0.35715863885E-01  0.51100000000E-03 0. -1.
</event>
<event>
 8    1  0.1070112E+005  0.1043930E+01  0.7957747E-01            NaN
         13   -1    0    0    0    0  0.00000000000E+00  0.00000000000E+00  0.74505805969E-08  0.10566000000E+00  0.10566000000E+00 0.  1.
     999900   -1    0    0    0    0 -0.00000000000E+00 -0.00000000000E+00 -0.74505805969E-08  0.93827000000E+00  0.93827000000E+00 0.  1.
     999902    2    1    2    0    0 -0.12699024067E-01  0.75476557051E-02 -0.18149297829E-01  0.10205285186E+01  0.10202601766E+01 0.  0.
     999903    2    3    3    0    0  0.33078090863E-01 -0.63112705341E-01 -0.10912382542E+00  0.13184139959E+00  0.19919128969E-01 0.  0.
         14    1    1    2    0    0  0.12699024067E-01 -0.75476557051E-02  0.18149297829E-01  0.23401481376E-01  0.00000000000E+00 0.  1.
     999901    1    3    3    0    0 -0.45777114930E-01  0.70660361046E-01  0.90974527595E-01  0.88868711904E+00  0.88000000000E+00 0. -1.
        -11    1    4    4    0    0  0.12585439832E-01 -0.93504339760E-02 -0.31802403720E-01  0.35460935051E-01  0.51100000000E-03 0.  1.
         11    1    4    4    0    0  0.20492651031E-01 -0.53762271365E-01 -0.77321421704E-01  0.96380464534E-01  0.51100000000E-03 0. -1.
</event>
<event>
 8    1  0.1070112E+005  0.1043930E+01  0.7957747E-01            NaN
         13   -1    0    0    0    0  0.00000000000E+00  0.00000000000E+00  0.74505805969E-08  0.10566000000E+00  0.10566000000E+00 0. -1.
     999900   -1    0    0    0    0 -0.00000000000E+00 -0.00000000000E+00 -0.74505805969E-08  0.93827000000E+00  0.93827000000E+00 0.  1.
     999902    2    1    2    0    0 -0.22487057793E-01 -0.73120631369E-02  0.42601181384E-02  0.10199032932E+01  0.10196202454E+01 0.  0.
     999903    2    3    3    0    0 -0.53653921734E-01  0.66346361083E-01 -0.96699201063E-01  0.13052726413E+00  0.20150638897E-01 0.  0.
         14    1    1    2    0    0  0.22487057793E-01  0.73120631369E-02 -0.42601181384E-02  0.24026706850E-01  0.00000000000E+00 0. -1.
     999901    1    3    3    0    0  0.31166863941E-01 -0.73658424220E-01  0.10095931920E+00  0.88937602902E+00  0.88000000000E+00 0. -1.
        -11    1    4    4    0    0 -0.38859252064E-01  0.49970850830E-01 -0.57400191247E-01  0.85452738281E-01  0.51100000000E-03 0.  1.
         11    1    4    4    0    0 -0.14794669670E-01  0.16375510253E-01 -0.39299009817E-01  0.45074525846E-01  0.51100000000E-03 0. -1.
</event>
<event>
 8    1  0.1070112E+005  0.1043930E+01  0.7957747E-01            NaN
         13   -1    0    0    0    0  0.00000000000E+00  0.00000000000E+00  0.74505805969E-08  0.10566000000E+00  0.10566000000E+00 0. -1.
     999900   -1    0    0    0    0 -0.00000000000E+00 -0.00000000000E+00 -0.74505805969E-08  0.93827000000E+00  0.93827000000E+00 0.  1.
     999902    2    1    2    0    0  0.20737695035E-02  0.18340863269E-01 -0.13914102494E-01  0.10208152853E+01  0.10205535541E+01 0.  0.
     999903    2    3    3    0    0 -0.46316558567E-01  0.50788376199E-01 -0.11258250888E+00  0.13338646039E+00  0.19810193218E-01 0.  0.
         14    1    1    2    0    0 -0.20737695035E-02 -0.18340863269E-01  0.13914102494E-01  0.23114714656E-01  0.00000000000E+00 0. -1.
     999901    1    3    3    0    0  0.48390328071E-01 -0.32447512929E-01  0.98668406382E-01  0.88742882496E+00  0.88000000000E+00 0.  1.
        -11    1    4    4    0    0 -0.30690436115E-01  0.24005376215E-01 -0.76158486985E-01  0.85548449530E-01  0.51100000000E-03 0.  1.
         11    1    4    4    0    0 -0.15626122452E-01  0.26782999984E-01 -0.36424021891E-01  0.47838010857E-01  0.51100000000E-03 0. -1.
</event>
<event>
 8    1  0.1070112E+005  0.1043930E+01  0.7957747E-01            NaN
         13   -1    0    0    0    0  0.00000000000E+00  0.00000000000E+00  0.74505805969E-08  0.10566000000E+00  0.10566000000E+00 0.  1.
     999900   -1    0    0    0    0 -0.00000000000E+00 -0.00000000000E+00 -0.74505805969E-08  0.93827000000E+00  0.93827000000E+00 0. -1.
     999902    2    1    2    0    0 -0.82459135661E-02  0.15032066020E-02 -0.22357457205E-01  0.10200530108E+01  0.10197735210E+01 0.  0.
     999903    2    3    3    0    0  0.78733509499E-01 -0.55722238216E-01  0.81513807488E-01  0.12784820740E+00  0.19918081621E-01 0.  0.
         14    1    1    2    0    0  0.82459135661E-02 -0.15032066020E-02  0.22357457205E-01  0.23876989201E-01  0.00000000000E+00 0.  1.
     999901    1    3    3    0    0 -0.86979423065E-01  0.57225444818E-01 -0.10387126469E+00  0.89220480339E+00  0.88000000000E+00 0. -1.
        -11    1    4    4    0    0  0.41503369842E-01 -0.25866713005E-01  0.53599874659E-01  0.72559108556E-01  0.51100000000E-03 0.  1.
         11    1    4    4    0    0  0.37230139657E-01 -0.29855525211E-01  0.27913932828E-01  0.55289098849E-01  0.51100000000E-03 0. -1.
</event>
<event>
 8    1  0.1070112E+005  0.1043930E+01  0.7957747E-01            NaN
         13   -1    0    0    0    0  0.00000000000E+00  0.00000000000E+00  0.74505805969E-08  0.10566000000E+00  0.10566000000E+00 0. -1.
     999900   -1    0    0    0    0 -0.00000000000E+00 -0.00000000000E+00 -0.74505805969E-08  0.93827000000E+00  0.93827000000E+00 0.  1.
     999902    2    1    2    0    0 -0.10926977015E-01 -0.19399187510E-01 -0.77290992773E-02  0.10203616679E+01  0.10200894407E+01 0.  0.
     999903    2    3    3    0    0  0.10911007370E+00  0.47278936097E-01  0.43427823399E-01  0.12824514162E+00  0.20506938401E-01 0.  0.
         14    1    1    2    0    0  0.10926977015E-01  0.19399187510E-01  0.77290992773E-02  0.23568332108E-01  0.00000000000E+00 0. -1.
     999901    1    3    3    0    0 -0.12003705071E+00 -0.66678123607E-01 -0.51156922676E-01  0.89211652627E+00  0.88000000000E+00 0.  1.
        -11    1    4    4    0    0  0.14714714656E-01 -0.24281379654E-04  0.86645855359E-02  0.17083898282E-01  0.51100000000E-03 0. -1.
         11    1    4    4    0    0  0.94395359043E-01  0.47303217477E-01  0.34763237863E-01  0.11116124334E+00  0.51100000000E-03 0.  1.
</event>
<event>
 8    1  0.1070112E+005  0.1043930E+01  0.7957747E-01            NaN
         13   -1    0    0    0    0  0.00000000000E+00  0.00000000000E+00  0.74505805969E-08  0.10566000000E+00  0.10566000000E+00 0.  1.
     999900   -1    0    0    0    0 -0.00000000000E+00 -0.00000000000E+00 -0.74505805969E-08  0.93827000000E+00  0.93827000000E+00 0. -1.
     999902    2    1    2    0    0  0.95798445528E-02  0.11887085931E-01  0.18173201417E-01  0.10201951842E+01  0.10199190518E+01 0.  0.
     999903    2    3    3    0    0 -0.10406331036E+00 -0.58457995136E-01 -0.42015183574E-01  0.12807084373E+00  0.19757418958E-01 0.  0.
         14    1    1    2    0    0 -0.95798445528E-02 -0.11887085931E-01 -0.18173201417E-01  0.23734815848E-01  0.00000000000E+00 0. -1.
     999901    1    3    3    0    0  0.11364315491E+00  0.70345081067E-01  0.60188384991E-01  0.89212434042E+00  0.88000000000E+00 0.  1.
        -11    1    4    4    0    0 -0.73481788175E-01 -0.44275720740E-01 -0.38945616989E-01  0.94217486933E-01  0.51100000000E-03 0. -1.
         11    1    4    4    0    0 -0.30581522186E-01 -0.14182274397E-01 -0.30695665855E-02  0.33853356795E-01  0.51100000000E-03 0.  1.
</event>
<event>
 8    1  0.1070112E+005  0.1043930E+01  0.7957747E-01            NaN
         13   -1    0    0    0    0  0.00000000000E+00  0.00000000000E+00  0.74505805969E-08  0.10566000000E+00  0.10566000000E+00 0.  1.
     999900   -1    0    0    0    0 -0.00000000000E+00 -0.00000000000E+00 -0.74505805969E-08  0.93827000000E+00  0.93827000000E+00 0.  1.
     999902    2    1    2    0    0 -0.25731356265E-01  0.17117125324E-01 -0.30819773335E-02  0.10128720339E+01  0.10123957525E+01 0.  0.
     999903    2    3    3    0    0 -0.45134205733E-01  0.10541340616E+00 -0.50655277023E-01  0.12696237562E+00  0.20109823643E-01 0.  0.
         14    1    1    2    0    0  0.25731356265E-01 -0.17117125324E-01  0.30819773335E-02  0.31057966109E-01  0.00000000000E+00 0.  1.
     999901    1    3    3    0    0  0.19402849469E-01 -0.88296280836E-01  0.47573299689E-01  0.88590965827E+00  0.88000000000E+00 0. -1.
        -11    1    4    4    0    0 -0.23172346398E-01  0.41342411478E-01 -0.30234135647E-01  0.56218472975E-01  0.51100000000E-03 0.  1.
         11    1    4    4    0    0 -0.21961859336E-01  0.64070994682E-01 -0.20421141376E-01  0.70743902643E-01  0.51100000000E-03 0. -1.
</event>
<event>
 8    1  0.1070112E+005  0.1043930E+01  0.7957747E-01            NaN
         13   -1    0    0    0    0  0.00000000000E+00  0.00000000000E+00  0.74505805969E-08  0.10566000000E+00  0.10566000000E+00 0.  1.
     999900   -1    0    0    0    0 -0.00000000000E+00 -0.00000000000E+00 -0.74505805969E-08  0.93827000000E+00  0.93827000000E+00 0. -1.
     999902    2    1    2    0    0 -0.22678026628E-01  0.23317591182E-02  0.44169042735E-02  0.10207084790E+01  0.10204442955E+01 0.  0.
     999903    2    3    3    0    0 -0.20931469619E-02  0.13861083507E-02  0.12998889958E+00  0.13155553521E+00  0.20085872388E-01 0.  0.
         14    1    1    2    0    0  0.22678026628E-01 -0.23317591182E-02 -0.44169042735E-02  0.23221520960E-01  0.00000000000E+00 0. -1.
     999901    1    3    3    0    0 -0.20584879666E-01  0.94565076747E-03 -0.12557199530E+00  0.88915294383E+00  0.88000000000E+00 0. -1.
        -11    1    4    4    0    0 -0.41593388694E-02 -0.88360432128E-02  0.59852319295E-01  0.60645997440E-01  0.51100000000E-03 0.  1.
         11    1    4    4    0    0  0.20661919075E-02  0.10222151564E-01  0.70136580281E-01  0.70909537765E-01  0.51100000000E-03 0. -1.
</event>
<event>
 8    1  0.1070112E+005  0.1043930E+01  0.7957747E-01            NaN
         13   -1    0    0    0    0  0.00000000000E+00  0.00000000000E+00  0.74505805969E-08  0.10566000000E+00  0.10566000000E+00 0. -1.
     999900   -1    0    0    0    0 -0.00000000000E+00 -0.00000000000E+00 -0.74505805969E-08  0.93827000000E+00  0.93827000000E+00 0.  1.
     999902    2    1    2    0    0  0.10419345875E-01 -0.93059299564E-02  0.20567233982E-01  0.10190668905E+01  0.10187635413E+01 0.  0.
     999903    2    3    3    0    0  0.91132241727E-01  0.12695613055E-01  0.91765656109E-01  0.13223666166E+00  0.24481318861E-01 0.  0.
         14    1    1    2    0    0 -0.10419345875E-01  0.93059299564E-02 -0.20567233982E-01  0.24863109510E-01  0.00000000000E+00 0.  1.
     999901    1    3    3    0    0 -0.80712895853E-01 -0.22001543012E-01 -0.71198422127E-01  0.88683022883E+00  0.88000000000E+00 0.  1.
        -11    1    4    4    0    0  0.49648215910E-01  0.34411228157E-02  0.33027969981E-01  0.59731855750E-01  0.51100000000E-03 0. -1.
         11    1    4    4    0    0  0.41484025818E-01  0.92544902397E-02  0.58737686128E-01  0.72504805912E-01  0.51100000000E-03 0.  1.
</event>
<event>
 8    1  0.1070112E+005  0.1043930E+01  0.7957747E-01            NaN
         13   -1    0    0    0    0  0.00000000000E+00  0.00000000000E+00  0.74505805969E-08  0.10566000000E+00  0.10566000000E+00 0.  1.
     999900   -1    0    0    0    0 -0.00000000000E+00 -0.00000000000E+00 -0.74505805969E-08  0.93827000000E+00  0.93827000000E+00 0.  1.
     999902    2    1    2    0    0 -0.21044011558E-01  0.68362858028E-02  0.76372367925E-02  0.10205224668E+01  0.10202539843E+01 0.  0.
     999903    2    3    3    0    0  0.11814164528E-01 -0.60716873622E-01  0.11363367777E+00  0.13098419633E+00  0.20448318718E-01 0.  0.
         14    1    1    2    0    0  0.21044011558E-01 -0.68362858028E-02 -0.76372367925E-02  0.23407533229E-01  0.00000000000E+00 0.  1.
     999901    1    3    3    0    0 -0.32858176086E-01  0.67553159425E-01 -0.10599644098E+00  0.88953827044E+00  0.88000000000E+00 0.  1.
        -11    1    4    4    0    0  0.85411632766E-02 -0.40638256542E-01  0.54989607290E-01  0.68909632097E-01  0.51100000000E-03 0. -1.
         11    1    4    4    0    0  0.32730012512E-02 -0.20078617080E-01  0.58644070479E-01  0.62074564231E-01  0.51100000000E-03 0.  1.
</event>
<event>
 8    1  0.1070112E+005  0.1043930E+01  0.7957747E-01            NaN
         13   -1    0    0    0    0  0.00000000000E+00  0.00000000000E+00  0.74505805969E-08  0.10566000000E+00  0.10566000000E+00 0. -1.
     999900   -1    0    0    0    0 -0.00000000000E+00 -0.00000000000E+00 -0.74505805969E-08  0.93827000000E+00  0.93827000000E+00 0. -1.
     999902    2    1    2    0    0 -0.17486391729E-01  0.13970544896E-01  0.70588777203E-02  0.10204613448E+01  0.10201914421E+01 0.  0.
     999903    2    3    3    0    0 -0.74312596042E-01  0.69010888002E-01  0.83980927364E-01  0.13357033768E+00  0.22436005718E-01 0.  0.
         14    1    1    2    0    0  0.17486391729E-01 -0.13970544896E-01 -0.70588777203E-02  0.23468655161E-01  0.00000000000E+00 0.  1.
     999901    1    3    3    0    0  0.56826204313E-01 -0.55040343106E-01 -0.76922049644E-01  0.88689100716E+00  0.88000000000E+00 0. -1.
        -11    1    4    4    0    0 -0.48310638469E-01  0.56124838473E-01  0.67451217152E-01  0.10016907257E+00  0.51100000000E-03 0.  1.
         11    1    4    4    0    0 -0.26001957573E-01  0.12886049529E-01  0.16529710212E-01  0.33401265108E-01  0.51100000000E-03 0. -1.
</event>
<event>
 8    1  0.1070112E+005  0.1043930E+01  0.7957747E-01            NaN
         13   -1    0    0    0    0  0.00000000000E+00  0.00000000000E+00  0.74505805969E-08  0.10566000000E+00  0.10566000000E+00 0.  1.
     999900   -1    0    0    0    0 -0.00000000000E+00 -0.00000000000E+00 -0.74505805969E-08  0.93827000000E+00  0.93827000000E+00 0. -1.
     999902    2    1    2    0    0 -0.34643566142E-02  0.18097815513E-01  0.16457310727E-01  0.10192242159E+01  0.10189247403E+01 0.  0.
     999903    2    3    3    0    0  0.26314278163E-01 -0.83722313811E-01 -0.89041276983E-01  0.12659660156E+00  0.19911892279E-01 0.  0.
         14    1    1    2    0    0  0.34643566142E-02 -0.18097815513E-01 -0.16457310727E-01  0.24705784130E-01  0.00000000000E+00 0. -1.
     999901    1    3    3    0    0 -0.29778634778E-01  0.10182012932E+00  0.10549858771E+00  0.89262761431E+00  0.88000000000E+00 0.  1.
        -11    1    4    4    0    0 -0.23941673030E-02 -0.54368284621E-02 -0.10342705159E-01  0.11938333711E-01  0.51100000000E-03 0.  1.
         11    1    4    4    0    0  0.28708445466E-01 -0.78285485349E-01 -0.78698571824E-01  0.11465826785E+00  0.51100000000E-03 0. -1.
</event>
<event>
 8    1  0.1070112E+005  0.1043930E+01  0.7957747E-01            NaN
         13   -1    0    0    0    0  0.00000000000E+00  0.00000000000E+00  0.74505805969E-08  0.10566000000E+00  0.10566000000E+00 0. -1.
     999900   -1    0    0    0    0 -0.00000000000E+00 -0.00000000000E+00 -0.74505805969E-08  0.93827000000E+00  0.93827000000E+00 0.  1.
     999902    2    1    2    0    0  0.21151933553E-01 -0.61436405023E-02  0.13768830052E-01  0.10179544482E+01  0.10176229799E+01 0.  0.
     999903    2    3    3    0    0 -0.10298312112E+00 -0.63585463389E-01 -0.29629706364E-01  0.12633092461E+00  0.20807417518E-01 0.  0.
         14    1    1    2    0    0 -0.21151933553E-01  0.61436405023E-02 -0.13768830052E-01  0.25975551825E-01  0.00000000000E+00 0.  1.
     999901    1    3    3    0    0  0.12413505467E+00  0.57441822887E-01  0.43398536416E-01  0.89162352357E+00  0.88000000000E+00 0.  1.
        -11    1    4    4    0    0 -0.85875055819E-01 -0.46430516663E-01 -0.29885246808E-01  0.10209655816E+00  0.51100000000E-03 0. -1.
         11    1    4    4    0    0 -0.17108065298E-01 -0.17154946726E-01  0.25554044484E-03  0.24234366452E-01  0.51100000000E-03 0.  1.
</event>
<event>
 8    1  0.1070112E+005  0.1043930E+01  0.7957747E-01            NaN
         13   -1    0    0    0    0  0.00000000000E+00  0.00000000000E+00  0.74505805969E-08  0.10566000000E+00  0.10566000000E+00 0. -1.
     999900   -1    0    0    0    0 -0.00000000000E+00 -0.00000000000E+00 -0.74505805969E-08  0.93827000000E+00  0.93827000000E+00 0.  1.
     999902    2    1    2    0    0 -0.32176419156E-02  0.21043408913E-01  0.10379355009E-01  0.10202464764E+01  0.10199715503E+01 0.  0.
     999903    2    3    3    0    0 -0.49160180067E-01  0.97393268581E-01  0.74100466969E-01  0.13345428094E+00  0.20420426685E-01 0.  0.
         14    1    1    2    0    0  0.32176419156E-02 -0.21043408913E-01 -0.10379355009E-01  0.23683523568E-01  0.00000000000E+00 0.  1.
     999901    1    3    3    0    0  0.45942538152E-01 -0.76349859668E-01 -0.63721111960E-01  0.88679219550E+00  0.88000000000E+00 0. -1.
        -11    1    4    4    0    0 -0.20897999388E-01  0.52991706294E-01  0.27957432013E-01  0.63456492498E-01  0.51100000000E-03 0.  1.
         11    1    4    4    0    0 -0.28262180680E-01  0.44401562287E-01  0.46143034956E-01  0.69997788438E-01  0.51100000000E-03 0. -1.
</event>
<event>
 8    1  0.1070112E+005  0.1043930E+01  0.7957747E-01            NaN
         13   -1    0    0    0    0  0.00000000000E+00  0.00000000000E+00  0.74505805969E-08  0.10566000000E+00  0.10566000000E+00 0. -1.
     999900   -1    0    0    0    0 -0.00000000000E+00 -0.00000000000E+00 -0.74505805969E-08  0.93827000000E+00  0.93827000000E+00 0. -1.
     999902    2    1    2    0    0 -0.18114952275E-01  0.82239788217E-02 -0.77951498247E-02  0.10225629767E+01  0.10223397144E+01 0.  0.
     999903    2    3    3    0    0  0.49509084554E-01 -0.10241393975E+00  0.60669486055E-01  0.13043004617E+00  0.19784991713E-01 0.  0.
         14    1    1    2    0    0  0.18114952275E-01 -0.82239788217E-02  0.77951498247E-02  0.21367023292E-01  0.00000000000E+00 0.  1.
     999901    1    3    3    0    0 -0.67624036829E-01  0.11063791857E+00 -0.68464635880E-01  0.89213293054E+00  0.88000000000E+00 0. -1.
        -11    1    4    4    0    0  0.86909477893E-02 -0.14733827718E-01  0.18063309942E-02  0.17208782797E-01  0.51100000000E-03 0.  1.
         11    1    4    4    0    0  0.40818136765E-01 -0.87680112033E-01  0.58863155061E-01  0.11322126337E+00  0.51100000000E-03 0. -1.
</event>
<event>
 8    1  0.1070112E+005  0.1043930E+01  0.7957747E-01            NaN
         13   -1    0    0    0    0  0.00000000000E+00  0.00000000000E+00  0.74505805969E-08  0.10566000000E+00  0.10566000000E+00 0. -1.
     999900   -1    0    0    0    0 -0.00000000000E+00 -0.00000000000E+00 -0.74505805969E-08  0.93827000000E+00  0.93827000000E+00 0.  1.
     999902    2    1    2    0    0  0.17887453779E-01 -0.96244133827E-02  0.11821426645E-01  0.10204281604E+01  0.10201574850E+01 0.  0.
     999903    2    3    3    0    0  0.10250665157E+00  0.75726308627E-01 -0.25317690305E-01  0.13148245432E+00  0.20113749477E-01 0.  0.
         14    1    1    2    0    0 -0.17887453779E-01  0.96244133827E-02 -0.11821426645E-01  0.23501839579E-01  0.00000000000E+00 0. -1.
     999901    1    3    3    0    0 -0.84619197792E-01 -0.85350722009E-01  0.37139116950E-01  0.88894570610E+00  0.88000000000E+00 0. -1.
        -11    1    4    4    0    0  0.69176999931E-01  0.59356724419E-01 -0.11576252284E-01  0.91885520030E-01  0.51100000000E-03 0.  1.
         11    1    4    4    0    0  0.33329651640E-01  0.16369584208E-01 -0.13741438021E-01  0.39596934293E-01  0.51100000000E-03 0. -1.
</event>
<event>
 8    1  0.1070112E+005  0.1043930E+01  0.7957747E-01            NaN
         13   -1    0    0    0    0  0.00000000000E+00  0.00000000000E+00  0.74505805969E-08  0.10566000000E+00  0.10566000000E+00 0.  1.
     999900   -1    0    0    0    0 -0.00000000000E+00 -0.00000000000E+00 -0.74505805969E-08  0.93827000000E+00  0.93827000000E+00 0. -1.
     999902    2    1    2    0    0  0.21405805435E-01 -0.19340409229E-02  0.93991846859E-02  0.10204716605E+01  0.10202019977E+01 0.  0.
     999903    2    3    3    0    0  0.46207408852E-01  0.10013778036E+00 -0.67444473090E-01  0.13089944644E+00  0.20572030526E-01 0.  0.
         14    1    1    2    0    0 -0.21405805435E-01  0.19340409229E-02 -0.93991846859E-02  0.23458339527E-01  0.00000000000E+00 0. -1.
     999901    1    3    3    0    0 -0.24801603417E-01 -0.10207182129E+00  0.76843657776E-01  0.88957221403E+00  0.88000000000E+00 0.  1.
        -11    1    4    4    0    0  0.11721801808E-01  0.10971082811E-01 -0.14359162728E-01  0.21545578919E-01  0.51100000000E-03 0.  1.
         11    1    4    4    0    0  0.34485607044E-01  0.89166697551E-01 -0.53085310362E-01  0.10935386752E+00  0.51100000000E-03 0. -1.
</event>
<event>
 8    1  0.1070112E+005  0.1043930E+01  0.7957747E-01            NaN
         13   -1    0    0    0    0  0.00000000000E+00  0.00000000000E+00  0.74505805969E-08  0.10566000000E+00  0.10566000000E+00 0. -1.
     999900   -1    0    0    0    0 -0.00000000000E+00 -0.00000000000E+00 -0.74505805969E-08  0.93827000000E+00  0.93827000000E+00 0. -1.
     999902    2    1    2    0    0  0.36071763968E-03 -0.11642941708E-01  0.21021046825E-01  0.10198972594E+01  0.10196140678E+01 0.  0.
     999903    2    3    3    0    0  0.38791564849E-01 -0.33444502316E-01  0.12136602308E+00  0.13309324935E+00  0.18994241936E-01 0.  0.
         14    1    1    2    0    0 -0.36071763968E-03  0.11642941708E-01 -0.21021046825E-01  0.24032740552E-01  0.00000000000E+00 0.  1.
     999901    1    3    3    0    0 -0.38430847210E-01  0.21801560609E-01 -0.10034497625E+00  0.88680401010E+00  0.88000000000E+00 0. -1.
        -11    1    4    4    0    0  0.14642505819E-01 -0.10690834778E-01  0.23063044505E-01  0.29340451049E-01  0.51100000000E-03 0. -1.
         11    1    4    4    0    0  0.24149059031E-01 -0.22753667538E-01  0.98302978573E-01  0.10375279830E+00  0.51100000000E-03 0.  1.
</event>
<event>
 8    1  0.1070112E+005  0.1043930E+01  0.7957747E-01            NaN
         13   -1    0    0    0    0  0.00000000000E+00  0.00000000000E+00  0.74505805969E-08  0.10566000000E+00  0.10566000000E+00 0.  1.
     999900   -1    0    0    0    0 -0.00000000000E+00 -0.00000000000E+00 -0.74505805969E-08  0.93827000000E+00  0.93827000000E+00 0. -1.
     999902    2    1    2    0    0 -0.86686748399E-02  0.63877774456E-02 -0.22024216106E-01  0.10194143781E+01  0.10191195506E+01 0.  0.
     999903    2    3    3    0    0  0.98957815056E-01 -0.64129084622E-01  0.44535550273E-01  0.12757005775E+00  0.19634554767E-01 0.  0.
         14    1    1    2    0    0  0.86686748399E-02 -0.63877774456E-02  0.22024216106E-01  0.24515621944E-01  0.00000000000E+00 0. -1.
     999901    1    3    3    0    0 -0.10762648990E+00  0.70516862067E-01 -0.66559766380E-01  0.89184432031E+00  0.88000000000E+00 0. -1.
        -11    1    4    4    0    0  0.17780081687E-02  0.13333561815E-02  0.19769643139E-03  0.22889640962E-02  0.51100000000E-03 0.  1.
         11    1    4    4    0    0  0.97179806888E-01 -0.65462440803E-01  0.44337853842E-01  0.12528109365E+00  0.51100000000E-03 0. -1.
</event>
<event>
 8    1  0.1070112E+005  0.1043930E+01  0.7957747E-01            NaN
         13   -1    0    0    0    0  0.00000000000E+00  0.00000000000E+00  0.74505805969E-08  0.10566000000E+00  0.10566000000E+00 0. -1.
     999900   -1    0    0    0    0 -0.00000000000E+00 -0.00000000000E+00 -0.74505805969E-08  0.93827000000E+00  0.93827000000E+00 0. -1.
     999902    2    1    2    0    0 -0.21272197949E-01  0.62281039005E-02 -0.66877773582E-02  0.10207778500E+01  0.10205152605E+01 0.  0.
     999903    2    3    3    0    0  0.12128094036E-01 -0.11766494142E+00  0.49605341972E-01  0.12969200595E+00  0.19162394166E-01 0.  0.
         14    1    1    2    0    0  0.21272197949E-01 -0.62281039005E-02  0.66877773582E-02  0.23152150003E-01  0.00000000000E+00 0. -1.
     999901    1    3    3    0    0 -0.33400291984E-01  0.12389304532E+00 -0.56293119330E-01  0.89108584405E+00  0.88000000000E+00 0.  1.
        -11    1    4    4    0    0 -0.41089594748E-02 -0.52138245883E-01  0.20552108595E-01  0.56195467080E-01  0.51100000000E-03 0.  1.
         11    1    4    4    0    0  0.16237053511E-01 -0.65526695537E-01  0.29053233377E-01  0.73496538866E-01  0.51100000000E-03 0. -1.
</event>
<event>
 8    1  0.1070112E+005  0.1043930E+01  0.7957747E-01            NaN
         13   -1    0    0    0    0  0.00000000000E+00  0.00000000000E+00  0.74505805969E-08  0.10566000000E+00  0.10566000000E+00 0.  1.
     999900   -1    0    0    0    0 -0.00000000000E+00 -0.00000000000E+00 -0.74505805969E-08  0.93827000000E+00  0.93827000000E+00 0.  1.
     999902    2    1    2    0    0  0.21631271989E-01 -0.26578411063E-02 -0.15778626983E-02  0.10220790115E+01  0.10218454091E+01 0.  0.
     999903    2    3    3    0    0  0.11946506963E+00  0.57032313384E-01  0.13055124194E-01  0.13452704638E+00  0.20062460206E-01 0.  0.
         14    1    1    2    0    0 -0.21631271989E-01  0.26578411063E-02  0.15778626983E-02  0.21850988488E-01  0.00000000000E+00 0.  1.
     999901    1    3    3    0    0 -0.97833797637E-01 -0.59690154490E-01 -0.14632986893E-01  0.88755196513E+00  0.88000000000E+00 0. -1.
        -11    1    4    4    0    0  0.68286225568E-01  0.27143832675E-01  0.15915026951E-01  0.75188732258E-01  0.51100000000E-03 0.  1.
         11    1    4    4    0    0  0.51178844058E-01  0.29888480709E-01 -0.28599027572E-02  0.59338314123E-01  0.51100000000E-03 0. -1.
</event>
<event>
 8    1  0.1070112E+005  0.1043930E+01  0.7957747E-01            NaN
         13   -1    0    0    0    0  0.00000000000E+00  0.00000000000E+00  0.74505805969E-08  0.10566000000E+00  0.10566000000E+00 0.  1.
     999900   -1    0    0    0    0 -0.00000000000E+00 -0.00000000000E+00 -0.74505805969E-08  0.93827000000E+00  0.93827000000E+00 0. -1.
     999902    2    1    2    0    0  0.48885637573E-02  0.18216976325E-01  0.12408519206E-01  0.10213528516E+01  0.10211032856E+01 0.  0.
     999903    2    3    3    0    0  0.20573367078E-01  0.58952973254E-01 -0.11329398567E+00  0.13134916943E+00  0.22767534606E-01 0.  0.
         14    1    1    2    0    0 -0.48885637573E-02 -0.18216976325E-01 -0.12408519206E-01  0.22577148423E-01  0.00000000000E+00 0. -1.
     999901    1    3    3    0    0 -0.15684803320E-01 -0.40735996929E-01  0.12570250488E+00  0.89000368215E+00  0.88000000000E+00 0.  1.
        -11    1    4    4    0    0  0.12523450335E-01  0.14613929083E-01 -0.50593162876E-01  0.54132550118E-01  0.51100000000E-03 0.  1.
         11    1    4    4    0    0  0.80499167421E-02  0.44339044171E-01 -0.62700822797E-01  0.77216619312E-01  0.51100000000E-03 0. -1.
</event>
<event>
 8    1  0.1070112E+005  0.1043930E+01  0.7957747E-01            NaN
         13   -1    0    0    0    0  0.00000000000E+00  0.00000000000E+00  0.74505805969E-08  0.10566000000E+00  0.10566000000E+00 0. -1.
     999900   -1    0    0    0    0 -0.00000000000E+00 -0.00000000000E+00 -0.74505805969E-08  0.93827000000E+00  0.93827000000E+00 0. -1.
     999902    2    1    2    0    0  0.16586696220E-01 -0.17169274755E-01 -0.35167103901E-02  0.10197997340E+01  0.10195142116E+01 0.  0.
     999903    2    3    3    0    0  0.11488526199E+00  0.33303300623E-01  0.50368910194E-01  0.13125387189E+00  0.19565748574E-01 0.  0.
         14    1    1    2    0    0 -0.16586696220E-01  0.17169274755E-01  0.35167103901E-02  0.24130266039E-01  0.00000000000E+00 0.  1.
     999901    1    3    3    0    0 -0.98298565769E-01 -0.50472575378E-01 -0.53885620584E-01  0.88854586207E+00  0.88000000000E+00 0. -1.
        -11    1    4    4    0    0  0.16457738730E-01  0.16705334625E-02  0.72607300487E-03  0.16566114486E-01  0.51100000000E-03 0. -1.
         11    1    4    4    0    0  0.98427523260E-01  0.31632767160E-01  0.49642837189E-01  0.11468775740E+00  0.51100000000E-03 0.  1.
</event>
<event>
 8    1  0.1070112E+005  0.1043930E+01  0.7957747E-01            NaN
         13   -1    0    0    0    0  0.00000000000E+00  0.00000000000E+00  0.74505805969E-08  0.10566000000E+00  0.10566000000E+00 0. -1.
     999900   -1    0    0    0    0 -0.00000000000E+00 -0.00000000000E+00 -0.74505805969E-08  0.93827000000E+00  0.93827000000E+00 0. -1.
     999902    2    1    2    0    0 -0.36966918772E-04  0.23817750051E-01 -0.28020820069E-03  0.10201105730E+01  0.10198324451E+01 0.  0.
     999903    2    3    3    0    0  0.14094329325E-01 -0.10530778347E+00 -0.68555231457E-01  0.12795891792E+00  0.19628691670E-01 0.  0.
         14    1    1    2    0    0  0.36966918772E-04 -0.23817750051E-01  0.28020820069E-03  0.23819426960E-01  0.00000000000E+00 0.  1.
     999901    1    3    3    0    0 -0.14131296244E-01  0.12912553352E+00  0.68275023256E-01  0.89215165512E+00  0.88000000000E+00 0. -1.
        -11    1    4    4    0    0 -0.39073643075E-02 -0.43151058192E-01 -0.27216957879E-01  0.51169377914E-01  0.51100000000E-03 0. -1.
         11    1    4    4    0    0  0.18001693633E-01 -0.62156725274E-01 -0.41338273578E-01  0.76789540003E-01  0.51100000000E-03 0.  1.
</event>
<event>
 8    1  0.1070112E+005  0.1043930E+01  0.7957747E-01            NaN
         13   -1    0    0    0    0  0.00000000000E+00  0.00000000000E+00  0.74505805969E-08  0.10566000000E+00  0.10566000000E+00 0. -1.
     999900   -1    0    0    0    0 -0.00000000000E+00 -0.00000000000E+00 -0.74505805969E-08  0.93827000000E+00  0.93827000000E+00 0.  1.
     999902    2    1    2    0    0 -0.11227548021E-01  0.24017331747E-02 -0.22024639972E-01  0.10190923084E+01  0.10187895868E+01 0.  0.
     999903    2    3    3    0    0  0.93415333497E-01  0.45737667016E-01 -0.76192014610E-01  0.13018160409E+00  0.17990781967E-01 0.  0.
         14    1    1    2    0    0  0.11227548021E-01 -0.24017331747E-02  0.22024639972E-01  0.24837691574E-01  0.00000000000E+00 0. -1.
     999901    1    3    3    0    0 -0.10464288152E+00 -0.43335933841E-01  0.54167374637E-01  0.88891070434E+00  0.88000000000E+00 0.  1.
        -11    1    4    4    0    0  0.76495119228E-01  0.44619790246E-01 -0.62748787045E-01  0.10853617067E+00  0.51100000000E-03 0. -1.
         11    1    4    4    0    0  0.16920214269E-01  0.11178767701E-02 -0.13443227564E-01  0.21645433415E-01  0.51100000000E-03 0.  1.
</event>
<event>
 8    1  0.1070112E+005  0.1043930E+01  0.7957747E-01            NaN
         13   -1    0    0    0    0  0.00000000000E+00  0.00000000000E+00  0.74505805969E-08  0.10566000000E+00  0.10566000000E+00 0. -1.
     999900   -1    0    0    0    0 -0.00000000000E+00 -0.00000000000E+00 -0.74505805969E-08  0.93827000000E+00  0.93827000000E+00 0.  1.
     999902    2    1    2    0    0 -0.22351764652E-04  0.20309012106E-02 -0.23878849952E-01  0.10199649310E+01  0.10196833508E+01 0.  0.
     999903    2    3    3    0    0  0.54419579785E-01 -0.10957169525E-01 -0.11925755705E+00  0.13304345097E+00  0.19915940977E-01 0.  0.
         14    1    1    2    0    0  0.22351764652E-04 -0.20309012106E-02  0.23878849952E-01  0.23965069046E-01  0.00000000000E+00 0. -1.
     999901    1    3    3    0    0 -0.54441931550E-01  0.12988070736E-01  0.95378707094E-01  0.88692147999E+00  0.88000000000E+00 0. -1.
        -11    1    4    4    0    0  0.55856585316E-01 -0.11286108077E-01 -0.11252841187E+00  0.12613579571E+00  0.51100000000E-03 0. -1.
         11    1    4    4    0    0 -0.14370055310E-02  0.32893855239E-03 -0.67291451717E-02  0.69076552613E-02  0.51100000000E-03 0.  1.
</event>
<event>
 8    1  0.1070112E+005  0.1043930E+01  0.7957747E-01            NaN
         13   -1    0    0    0    0  0.00000000000E+00  0.00000000000E+00  0.74505805969E-08  0.10566000000E+00  0.10566000000E+00 0.  1.
     999900   -1    0    0    0    0 -0.00000000000E+00 -0.00000000000E+00 -0.74505805969E-08  0.93827000000E+00  0.93827000000E+00 0. -1.
     999902    2    1    2    0    0 -0.19930724534E-02 -0.13139497906E-01  0.19081792608E-01  0.10206763218E+01  0.10204113975E+01 0.  0.
     999903    2    3    3    0    0 -0.55989937317E-01 -0.98954883231E-01  0.67127811653E-01  0.13355267664E+00  0.20080645993E-01 0.  0.
         14    1    1    2    0    0  0.19930724534E-02  0.13139497906E-01 -0.19081792608E-01  0.23253678250E-01  0.00000000000E+00 0. -1.
     999901    1    3    3    0    0  0.53996864864E-01  0.85815385325E-01 -0.48046019045E-01  0.88712364511E+00  0.88000000000E+00 0. -1.
        -11    1    4    4    0    0 -0.41349563008E-01 -0.72046087406E-01  0.58888919943E-01  0.10182627895E+00  0.51100000000E-03 0. -1.
         11    1    4    4    0    0 -0.14640374310E-01 -0.26908795824E-01  0.82388917097E-02  0.31726397688E-01  0.51100000000E-03 0.  1.
</event>
<event>
 8    1  0.1070112E+005  0.1043930E+01  0.7957747E-01            NaN
         13   -1    0    0    0    0  0.00000000000E+00  0.00000000000E+00  0.74505805969E-08  0.10566000000E+00  0.10566000000E+00 0.  1.
     999900   -1    0    0    0    0 -0.00000000000E+00 -0.00000000000E+00 -0.74505805969E-08  0.93827000000E+00  0.93827000000E+00 0.  1.
     999902    2    1    2    0    0  0.27229188865E-02  0.19320488348E-02  0.23347839116E-01  0.10203446509E+01  0.10200720259E+01 0.  0.
     999903    2    3    3    0    0  0.11868189606E+00  0.21064175442E-01 -0.44736377491E-01  0.12992453479E+00  0.18706932682E-01 0.  0.
         14    1    1    2    0    0 -0.27229188865E-02 -0.19320488348E-02 -0.23347839116E-01  0.23585349083E-01  0.00000000000E+00 0. -1.
     999901    1    3    3    0    0 -0.11595897717E+00 -0.19132126607E-01  0.68084216608E-01  0.89042011613E+00  0.88000000000E+00 0. -1.
        -11    1    4    4    0    0  0.79853431711E-01  0.52214822721E-02 -0.28389466843E-01  0.84912056751E-01  0.51100000000E-03 0.  1.
         11    1    4    4    0    0  0.38828464346E-01  0.15842693170E-01 -0.16346910648E-01  0.45012478038E-01  0.51100000000E-03 0. -1.
</event>
<event>
 8    1  0.1070112E+005  0.1043930E+01  0.7957747E-01            NaN
         13   -1    0    0    0    0  0.00000000000E+00  0.00000000000E+00  0.74505805969E-08  0.10566000000E+00  0.10566000000E+00 0.  1.
     999900   -1    0    0    0    0 -0.00000000000E+00 -0.00000000000E+00 -0.74505805969E-08  0.93827000000E+00  0.93827000000E+00 0. -1.
     999902    2    1    2    0    0 -0.10456320556E-01  0.20647863492E-01 -0.12184387558E-02  0.10207534278E+01  0.10204902777E+01 0.  0.
     999903    2    3    3    0    0  0.67156010146E-01  0.70375971342E-01 -0.86840089581E-01  0.13180594583E+00  0.19206747711E-01 0.  0.
         14    1    1    2    0    0  0.10456320556E-01 -0.20647863492E-01  0.12184387558E-02  0.23176572209E-01  0.00000000000E+00 0. -1.
     999901    1    3    3    0    0 -0.77612330703E-01 -0.49728107850E-01  0.85621650826E-01  0.88894748196E+00  0.88000000000E+00 0.  1.
        -11    1    4    4    0    0  0.26952701879E-01  0.32112687179E-01 -0.49696233080E-01  0.65020377727E-01  0.51100000000E-03 0.  1.
         11    1    4    4    0    0  0.40203308268E-01  0.38263284163E-01 -0.37143856502E-01  0.66785568108E-01  0.51100000000E-03 0. -1.
</event>
<event>
 8    1  0.1070112E+005  0.1043930E+01  0.7957747E-01            NaN
         13   -1    0    0    0    0  0.00000000000E+00  0.00000000000E+00  0.74505805969E-08  0.10566000000E+00  0.10566000000E+00 0.  1.
     999900   -1    0    0    0    0 -0.00000000000E+00 -0.00000000000E+00 -0.74505805969E-08  0.93827000000E+00  0.93827000000E+00 0.  1.
     999902    2    1    2    0    0  0.55326089220E-02 -0.28717369434E-02 -0.21653023437E-01  0.10213975776E+01  0.10211490104E+01 0.  0.
     999903    2    3    3    0    0 -0.12553884793E+00 -0.56845734131E-03  0.27336777623E-01  0.13033919989E+00  0.21924464316E-01 0.  0.
         14    1    1    2    0    0 -0.55326089220E-02  0.28717369434E-02  0.21653023437E-01  0.22532422385E-01  0.00000000000E+00 0.  1.
     999901    1    3    3    0    0  0.13107145685E+00 -0.23032796021E-02 -0.48989801061E-01  0.89105837772E+00  0.88000000000E+00 0.  1.
        -11    1    4    4    0    0 -0.82197373451E-01 -0.72745427010E-02  0.25772214533E-01  0.86451115300E-01  0.51100000000E-03 0. -1.
         11    1    4    4    0    0 -0.43341474477E-01  0.67060853597E-02  0.15645630904E-02  0.43888084594E-01  0.51100000000E-03 0.  1.
</event>
<event>
 8    1  0.1070112E+005  0.1043930E+01  0.7957747E-01            NaN
         13   -1    0    0    0    0  0.00000000000E+00  0.00000000000E+00  0.74505805969E-08  0.10566000000E+00  0.10566000000E+00 0. -1.
     999900   -1    0    0    0    0 -0.00000000000E+00 -0.00000000000E+00 -0.74505805969E-08  0.93827000000E+00  0.93827000000E+00 0.  1.
     999902    2    1    2    0    0  0.14337780387E-01  0.82982756175E-02  0.16741168953E-01  0.10203779287E+01  0.10201060814E+01 0.  0.
     999903    2    3    3    0    0  0.41468219402E-01  0.48105088698E-01 -0.11149609042E+00  0.12977956929E+00  0.19433106992E-01 0.  0.
         14    1    1    2    0    0 -0.14337780387E-01 -0.82982756175E-02 -0.16741168953E-01  0.23552071301E-01  0.00000000000E+00 0.  1.
     999901    1    3    3    0    0 -0.27130439015E-01 -0.39806813081E-01  0.12823725937E+00  0.89059835941E+00  0.88000000000E+00 0. -1.
        -11    1    4    4    0    0  0.19744765328E-01  0.22967006760E-01 -0.34450343566E-01  0.45874028057E-01  0.51100000000E-03 0. -1.
         11    1    4    4    0    0  0.21723454074E-01  0.25138081938E-01 -0.77045746854E-01  0.83905541234E-01  0.51100000000E-03 0.  1.
</event>
<event>
 8    1  0.1070112E+005  0.1043930E+01  0.7957747E-01            NaN
         13   -1    0    0    0    0  0.00000000000E+00  0.00000000000E+00  0.74505805969E-08  0.10566000000E+00  0.10566000000E+00 0. -1.
     999900   -1    0    0    0    0 -0.00000000000E+00 -0.00000000000E+00 -0.74505805969E-08  0.93827000000E+00  0.93827000000E+00 0. -1.
     999902    2    1    2    0    0  0.11188312525E-02 -0.19773912595E-01  0.12196188932E-01  0.10206704551E+01  0.10204053957E+01 0.  0.
     999903    2    3    3    0    0 -0.48394818883E-01 -0.12246886474E+00 -0.20452549453E-02  0.13320176641E+00  0.19946081846E-01 0.  0.
         14    1    1    2    0    0 -0.11188312525E-02  0.19773912595E-01 -0.12196188932E-01  0.23259544861E-01  0.00000000000E+00 0.  1.
     999901    1    3    3    0    0  0.49513650135E-01  0.10269495215E+00  0.14241443877E-01  0.88746868873E+00  0.88000000000E+00 0.  1.
        -11    1    4    4    0    0 -0.24757259503E-01 -0.76751541778E-01  0.69745276426E-02  0.80948293498E-01  0.51100000000E-03 0.  1.
         11    1    4    4    0    0 -0.23637559380E-01 -0.45717322967E-01 -0.90197825879E-02  0.52253472914E-01  0.51100000000E-03 0. -1.
</event>
<event>
 8    1  0.1070112E+005  0.1043930E+01  0.7957747E-01            NaN
         13   -1    0    0    0    0  0.00000000000E+00  0.00000000000E+00  0.74505805969E-08  0.10566000000E+00  0.10566000000E+00 0.  1.
     999900   -1    0    0    0    0 -0.00000000000E+00 -0.00000000000E+00 -0.74505805969E-08  0.93827000000E+00  0.93827000000E+00 0.  1.
     999902    2    1    2    0    0  0.21572985204E-01  0.16278667817E-03 -0.87654593888E-02  0.10206436635E+01  0.10203779860E+01 0.  0.
     999903    2    3    3    0    0  0.76028252019E-01  0.88896690589E-01  0.57936636203E-01  0.13199961138E+00  0.19604256835E-01 0.  0.
         14    1    1    2    0    0 -0.21572985204E-01 -0.16278667817E-03  0.87654593888E-02  0.23286336518E-01  0.00000000000E+00 0.  1.
     999901    1    3    3    0    0 -0.54455266816E-01 -0.88733903911E-01 -0.66702095592E-01  0.88864405211E+00  0.88000000000E+00 0.  1.
        -11    1    4    4    0    0  0.45396223434E-01  0.64257329308E-01  0.32209724056E-01  0.85014992305E-01  0.51100000000E-03 0. -1.
         11    1    4    4    0    0  0.30632028586E-01  0.24639361281E-01  0.25726912148E-01  0.46984619071E-01  0.51100000000E-03 0.  1.
</event>
<event>
 8    1  0.1070112E+005  0.1043930E+01  0.7957747E-01            NaN
         13   -1    0    0    0    0  0.00000000000E+00  0.00000000000E+00  0.74505805969E-08  0.10566000000E+00  0.10566000000E+00 0.  1.
     999900   -1    0    0    0    0 -0.00000000000E+00 -0.00000000000E+00 -0.74505805969E-08  0.93827000000E+00  0.93827000000E+00 0.  1.
     999902    2    1    2    0    0 -0.12196887596E-01  0.22364595886E-01  0.12267374043E-02  0.10184261944E+01  0.10181068064E+01 0.  0.
     999903    2    3    3    0    0  0.71358294040E-02  0.62785769758E-01 -0.11185109318E+00  0.13006015439E+00  0.20297875979E-01 0.  0.
         14    1    1    2    0    0  0.12196887596E-01 -0.22364595886E-01 -0.12267374043E-02  0.25503805615E-01  0.00000000000E+00 0.  1.
     999901    1    3    3    0    0 -0.19332717000E-01 -0.40421173872E-01  0.11307783059E+00  0.88836603999E+00  0.88000000000E+00 0. -1.
        -11    1    4    4    0    0 -0.50103391616E-02  0.39190290378E-01 -0.73001692033E-01  0.83008978545E-01  0.51100000000E-03 0. -1.
         11    1    4    4    0    0  0.12146168566E-01  0.23595479380E-01 -0.38849401148E-01  0.47051175847E-01  0.51100000000E-03 0.  1.
</event>
<event>
 8    1  0.1070112E+005  0.1043930E+01  0.7957747E-01            NaN
         13   -1    0    0    0    0  0.00000000000E+00  0.00000000000E+00  0.74505805969E-08  0.10566000000E+00  0.10566000000E+00 0. -1.
     999900   -1    0    0    0    0 -0.00000000000E+00 -0.00000000000E+00 -0.74505805969E-08  0.93827000000E+00  0.93827000000E+00 0.  1.
     999902    2    1    2    0    0 -0.19399109171E-01 -0.13521267968E-01  0.33979023942E-02  0.10200407584E+01  0.10197609783E+01 0.  0.
     999903    2    3    3    0    0 -0.12174940992E+00 -0.45828678037E-01 -0.20620172376E-01  0.13319453681E+00  0.19809254913E-01 0.  0.
         14    1    1    2    0    0  0.19399109171E-01  0.13521267968E-01 -0.33979023942E-02  0.23889241612E-01  0.00000000000E+00 0.  1.
     999901    1    3    3    0    0  0.10235030075E+00  0.32307410069E-01  0.24018074770E-01  0.88684622158E+00  0.88000000000E+00 0. -1.
        -11    1    4    4    0    0 -0.71626221376E-01 -0.17487451631E-01 -0.15833426171E-01  0.75412764560E-01  0.51100000000E-03 0.  1.
         11    1    4    4    0    0 -0.50123188547E-01 -0.28341226406E-01 -0.47867462055E-02  0.57781772252E-01  0.51100000000E-03 0. -1.
</event>
<event>
 8    1  0.1070112E+005  0.1043930E+01  0.7957747E-01            NaN
         13   -1    0    0    0    0  0.00000000000E+00  0.00000000000E+00  0.74505805969E-08  0.10566000000E+00  0.10566000000E+00 0. -1.
     999900   -1    0    0    0    0 -0.00000000000E+00 -0.00000000000E+00 -0.74505805969E-08  0.93827000000E+00  0.93827000000E+00 0.  1.
     999902    2    1    2    0    0  0.22439565748E-01 -0.92681565748E-03  0.96950102294E-03  0.10214503863E+01  0.10212029958E+01 0.  0.
     999903    2    3    3    0    0 -0.75566632552E-02  0.11620679871E+00  0.56421677737E-01  0.13145319462E+00  0.23139002370E-01 0.  0.
         14    1    1    2    0    0 -0.22439565748E-01  0.92681565748E-03 -0.96950102294E-03  0.22479613663E-01  0.00000000000E+00 0. -1.
     999901    1    3    3    0    0  0.29996229003E-01 -0.11713361436E+00 -0.55452176714E-01  0.88999719172E+00  0.88000000000E+00 0. -1.
        -11    1    4    4    0    0 -0.14299967683E-01  0.45447728275E-01  0.22513587982E-01  0.52698271755E-01  0.51100000000E-03 0.  1.
         11    1    4    4    0    0  0.67433044279E-02  0.70759070432E-01  0.33908089756E-01  0.78754922861E-01  0.51100000000E-03 0. -1.
</event>
<event>
 8    1  0.1070112E+005  0.1043930E+01  0.7957747E-01            NaN
         13   -1    0    0    0    0  0.00000000000E+00  0.00000000000E+00  0.74505805969E-08  0.10566000000E+00  0.10566000000E+00 0.  1.
     999900   -1    0    0    0    0 -0.00000000000E+00 -0.00000000000E+00 -0.74505805969E-08  0.93827000000E+00  0.93827000000E+00 0.  1.
     999902    2    1    2    0    0  0.14803007250E-01 -0.32669224727E-03 -0.17530128870E-01  0.10209835151E+01  0.10207256227E+01 0.  0.
     999903    2    3    3    0    0 -0.81743220996E-01 -0.48888918593E-01  0.84135836376E-01  0.12856240793E+00  0.19426096631E-01 0.  0.
         14    1    1    2    0    0 -0.14803007250E-01  0.32669224727E-03  0.17530128870E-01  0.22946484909E-01  0.00000000000E+00 0.  1.
     999901    1    3    3    0    0  0.96546228246E-01  0.48562226346E-01 -0.10166596525E+00  0.89242110716E+00  0.88000000000E+00 0.  1.
        -11    1    4    4    0    0 -0.21086313672E-01 -0.34602227322E-02  0.16835813558E-01  0.27208665987E-01  0.51100000000E-03 0.  1.
         11    1    4    4    0    0 -0.60656907324E-01 -0.45428695861E-01  0.67300022818E-01  0.10135374194E+00  0.51100000000E-03 0. -1.
</event>
<event>
 8    1  0.1070112E+005  0.1043930E+01  0.7957747E-01            NaN
         13   -1    0    0    0    0  0.00000000000E+00  0.00000000000E+00  0.74505805969E-08  0.10566000000E+00  0.10566000000E+00 0. -1.
     999900   -1    0    0    0    0 -0.00000000000E+00 -0.00000000000E+00 -0.74505805969E-08  0.93827000000E+00  0.93827000000E+00 0.  1.
     999902    2    1    2    0    0  0.51818777583E-02 -0.16174320445E-01 -0.17024247441E-01  0.10198824326E+01  0.10195988872E+01 0.  0.
     999903    2    3    3    0    0 -0.13930658647E-01 -0.83146437344E-02 -0.12991454844E+00  0.13243030223E+00  0.19919801741E-01 0.  0.
         14    1    1    2    0    0 -0.51818777583E-02  0.16174320445E-01  0.17024247441E-01  0.24047567442E-01  0.00000000000E+00 0.  1.
     999901    1    3    3    0    0  0.19112536406E-01 -0.78596767102E-02  0.11289030100E+00  0.88745213033E+00  0.88000000000E+00 0. -1.
        -11    1    4    4    0    0 -0.20520218504E-03  0.15306952178E-03 -0.79384823177E-01  0.79386880591E-01  0.51100000000E-03 0.  1.
         11    1    4    4    0    0 -0.13725456462E-01 -0.84677132562E-02 -0.50529725263E-01  0.53043421637E-01  0.51100000000E-03 0. -1.
</event>
<event>
 8    1  0.1070112E+005  0.1043930E+01  0.7957747E-01            NaN
         13   -1    0    0    0    0  0.00000000000E+00  0.00000000000E+00  0.74505805969E-08  0.10566000000E+00  0.10566000000E+00 0. -1.
     999900   -1    0    0    0    0 -0.00000000000E+00 -0.00000000000E+00 -0.74505805969E-08  0.93827000000E+00  0.93827000000E+00 0. -1.
     999902    2    1    2    0    0  0.12920912933E-02  0.20780412710E-01 -0.10932424713E-01  0.10204137724E+01  0.10201427615E+01 0.  0.
     999903    2    3    3    0    0 -0.16777298793E-01  0.27381363357E-01 -0.12713508397E+00  0.13256630042E+00  0.19475051124E-01 0.  0.
         14    1    1    2    0    0 -0.12920912933E-02 -0.20780412710E-01  0.10932424713E-01  0.23516227640E-01  0.00000000000E+00 0.  1.
     999901    1    3    3    0    0  0.18069390086E-01 -0.66009506469E-02  0.11620265926E+00  0.88784747194E+00  0.88000000000E+00 0.  1.
        -11    1    4    4    0    0 -0.87034981317E-03 -0.70622396032E-05 -0.37235586953E-01  0.37249263286E-01  0.51100000000E-03 0. -1.
         11    1    4    4    0    0 -0.15906948979E-01  0.27388425597E-01 -0.89899497022E-01  0.95317037135E-01  0.51100000000E-03 0.  1.
</event>
<event>
 7    1  0.1070112E+005  0.1043930E+01  0.7957747E-01            NaN
         13   -1    0    0    0    0  0.00000000000E+00  0.00000000000E+00  0.74505805969E-08  0.10566000000E+00  0.10566000000E+00 0. -1.
     999900   -1    0    0    0    0 -0.00000000000E+00 -0.00000000000E+00 -0.74505805969E-08  0.93827000000E+00  0.93827000000E+00 0.  1.
     999903    2    1    2    0    0 -0.23545557095E-01  0.69881221541E-01 -0.50692446141E-01  0.91519537323E-01  0.19191749088E-01 0.  0.
         14    1    1    2    0    0  0.62886564038E-01 -0.28942338666E-01  0.30014382602E-02  0.69292045255E-01  0.00000000000E+00 0.  1.
     999901    1    1    2    0    0 -0.39341006943E-01 -0.40938882875E-01  0.47691007881E-01  0.88311841742E+00  0.88000000000E+00 0. -1.
        -11    1    3    3    0    0 -0.17820337013E-01  0.23790799718E-01 -0.20836812301E-01  0.36304275648E-01  0.51100000000E-03 0. -1.
         11    1    3    3    0    0 -0.57252200819E-02  0.46090421823E-01 -0.29855633840E-01  0.55215261674E-01  0.51100000000E-03 0.  1.
</event>
<event>
 8    1  0.1070112E+005  0.1043930E+01  0.7957747E-01            NaN
         13   -1    0    0    0    0  0.00000000000E+00  0.00000000000E+00  0.74505805969E-08  0.10566000000E+00  0.10566000000E+00 0. -1.
     999900   -1    0    0    0    0 -0.00000000000E+00 -0.00000000000E+00 -0.74505805969E-08  0.93827000000E+00  0.93827000000E+00 0. -1.
     999902    2    1    2    0    0 -0.18980254551E-01  0.10098022466E-01  0.61248709446E-02  0.10215752653E+01  0.10213306460E+01 0.  0.
     999903    2    3    3    0    0 -0.12719319443E+00  0.37530665425E-01 -0.28597826026E-02  0.13447701014E+00  0.22118506822E-01 0.  0.
         14    1    1    2    0    0  0.18980254551E-01 -0.10098022466E-01 -0.61248709446E-02  0.22354734725E-01  0.00000000000E+00 0. -1.
     999901    1    3    3    0    0  0.10821293988E+00 -0.27432642959E-01  0.89846535472E-02  0.88709825513E+00  0.88000000000E+00 0. -1.
        -11    1    4    4    0    0 -0.44516443216E-01  0.53259532997E-02  0.62963678248E-02  0.45276758540E-01  0.51100000000E-03 0.  1.
         11    1    4    4    0    0 -0.82676751215E-01  0.32204712125E-01 -0.91561504274E-02  0.89200251604E-01  0.51100000000E-03 0. -1.
</event>
<event>
 8    1  0.1070112E+005  0.1043930E+01  0.7957747E-01            NaN
         13   -1    0    0    0    0  0.00000000000E+00  0.00000000000E+00  0.74505805969E-08  0.10566000000E+00  0.10566000000E+00 0. -1.
     999900   -1    0    0    0    0 -0.00000000000E+00 -0.00000000000E+00 -0.74505805969E-08  0.93827000000E+00  0.93827000000E+00 0. -1.
     999902    2    1    2    0    0 -0.15365468753E-01  0.17454241012E-01  0.15278467566E-02  0.10206258700E+01  0.10203597817E+01 0.  0.
     999903    2    3    3    0    0 -0.51822426545E-01 -0.66346778336E-01  0.97649367161E-01  0.13068707025E+00  0.21360068712E-01 0.  0.
         14    1    1    2    0    0  0.15365468753E-01 -0.17454241012E-01 -0.15278467566E-02  0.23304129999E-01  0.00000000000E+00 0. -1.
     999901    1    3    3    0    0  0.36456957791E-01  0.83801019348E-01 -0.96121520404E-01  0.88993879975E+00  0.88000000000E+00 0. -1.
        -11    1    4    4    0    0 -0.45947399620E-01 -0.46387850506E-01  0.66259385447E-01  0.93024531642E-01  0.51100000000E-03 0.  1.
         11    1    4    4    0    0 -0.58750269246E-02 -0.19958927829E-01  0.31389981714E-01  0.37662538609E-01  0.51100000000E-03 0. -1.
</event>
<event>
 8    1  0.1070112E+005  0.1043930E+01  0.7957747E-01            NaN
         13   -1    0    0    0    0  0.00000000000E+00  0.00000000000E+00  0.74505805969E-08  0.10566000000E+00  0.10566000000E+00 0.  1.
     999900   -1    0    0    0    0 -0.00000000000E+00 -0.00000000000E+00 -0.74505805969E-08  0.93827000000E+00  0.93827000000E+00 0.  1.
     999902    2    1    2    0    0 -0.28006615345E-02  0.17788432611E-01  0.15387281922E-01  0.10202437068E+01  0.10199687156E+01 0.  0.
     999903    2    3    3    0    0 -0.28826754072E-01  0.10088351527E+00  0.80155449642E-01  0.13357744164E+00  0.20237870539E-01 0.  0.
         14    1    1    2    0    0  0.28006615345E-02 -0.17788432611E-01 -0.15387281922E-01  0.23686293182E-01  0.00000000000E+00 0. -1.
     999901    1    3    3    0    0  0.26026092537E-01 -0.83095082660E-01 -0.64768167720E-01  0.88666626518E+00  0.88000000000E+00 0. -1.
        -11    1    4    4    0    0 -0.23070565086E-01  0.49792587070E-01  0.34553729434E-01  0.64851939365E-01  0.51100000000E-03 0. -1.
         11    1    4    4    0    0 -0.57561889855E-02  0.51090928201E-01  0.45601720207E-01  0.68725502275E-01  0.51100000000E-03 0.  1.
</event>
<event>
 8    1  0.1070112E+005  0.1043930E+01  0.7957747E-01            NaN
         13   -1    0    0    0    0  0.00000000000E+00  0.00000000000E+00  0.74505805969E-08  0.10566000000E+00  0.10566000000E+00 0. -1.
     999900   -1    0    0    0    0 -0.00000000000E+00 -0.00000000000E+00 -0.74505805969E-08  0.93827000000E+00  0.93827000000E+00 0. -1.
     999902    2    1    2    0    0  0.18617379807E-01 -0.10448112045E-01 -0.88500148938E-02  0.10208195556E+01  0.10205579222E+01 0.  0.
     999903    2    3    3    0    0 -0.29045598629E-01  0.17834765580E-01 -0.12520297405E+00  0.13143229925E+00  0.20903083788E-01 0.  0.
         14    1    1    2    0    0 -0.18617379807E-01  0.10448112045E-01  0.88500148938E-02  0.23110444388E-01  0.00000000000E+00 0.  1.
     999901    1    3    3    0    0  0.47662978436E-01 -0.28282877625E-01  0.11635295915E+00  0.88938725636E+00  0.88000000000E+00 0.  1.
        -11    1    4    4    0    0 -0.40946244682E-02  0.13629317590E-01 -0.54750536845E-01  0.56572136722E-01  0.51100000000E-03 0. -1.
         11    1    4    4    0    0 -0.24950974160E-01  0.42054479898E-02 -0.70452437204E-01  0.74860162525E-01  0.51100000000E-03 0.  1.
</event>
<event>
 8    1  0.1070112E+005  0.1043930E+01  0.7957747E-01            NaN
         13   -1    0    0    0    0  0.00000000000E+00  0.00000000000E+00  0.74505805969E-08  0.10566000000E+00  0.10566000000E+00 0.  1.
     999900   -1    0    0    0    0 -0.00000000000E+00 -0.00000000000E+00 -0.74505805969E-08  0.93827000000E+00  0.93827000000E+00 0.  1.
     999902    2    1    2    0    0 -0.84988075664E-02 -0.16685035287E-01  0.14587887362E-01  0.10201933913E+01  0.10199172168E+01 0.  0.
     999903    2    3    3    0    0 -0.53435842907E-01 -0.98003079281E-01  0.70454105360E-01  0.13354069963E+00  0.20232267272E-01 0.  0.
         14    1    1    2    0    0  0.84988075664E-02  0.16685035287E-01 -0.14587887362E-01  0.23736608652E-01  0.00000000000E+00 0. -1.
     999901    1    3    3    0    0  0.44937035340E-01  0.81318043994E-01 -0.55866217997E-01  0.88665269172E+00  0.88000000000E+00 0. -1.
        -11    1    4    4    0    0 -0.48609863516E-01 -0.71262096438E-01  0.53291961641E-01  0.10139772934E+00  0.51100000000E-03 0.  1.
         11    1    4    4    0    0 -0.48259793910E-02 -0.26740982843E-01  0.17162143719E-01  0.32142970282E-01  0.51100000000E-03 0. -1.
</event>
<event>
 8    1  0.1070112E+005  0.1043930E+01  0.7957747E-01            NaN
         13   -1    0    0    0    0  0.00000000000E+00  0.00000000000E+00  0.74505805969E-08  0.10566000000E+00  0.10566000000E+00 0.  1.
     999900   -1    0    0    0    0 -0.00000000000E+00 -0.00000000000E+00 -0.74505805969E-08  0.93827000000E+00  0.93827000000E+00 0. -1.
     999902    2    1    2    0    0  0.93460744806E-04  0.92535656243E-02  0.21428344309E-01  0.10205888100E+01  0.10203218649E+01 0.  0.
     999903    2    3    3    0    0 -0.11331338074E+00 -0.46849822874E-01 -0.36937758774E-01  0.12962567725E+00  0.20089550042E-01 0.  0.
         14    1    1    2    0    0 -0.93460744806E-04 -0.92535656243E-02 -0.21428344309E-01  0.23341190019E-01  0.00000000000E+00 0. -1.
     999901    1    3    3    0    0  0.11340684149E+00  0.56103388498E-01  0.58366103083E-01  0.89096313273E+00  0.88000000000E+00 0.  1.
        -11    1    4    4    0    0 -0.78844193179E-01 -0.29245087583E-01 -0.15950652579E-01  0.85594195974E-01  0.51100000000E-03 0.  1.
         11    1    4    4    0    0 -0.34469187563E-01 -0.17604735291E-01 -0.20987106195E-01  0.44031481276E-01  0.51100000000E-03 0. -1.
</event>
<event>
 8    1  0.1070112E+005  0.1043930E+01  0.7957747E-01            NaN
         13   -1    0    0    0    0  0.00000000000E+00  0.00000000000E+00  0.74505805969E-08  0.10566000000E+00  0.10566000000E+00 0. -1.
     999900   -1    0    0    0    0 -0.00000000000E+00 -0.00000000000E+00 -0.74505805969E-08  0.93827000000E+00  0.93827000000E+00 0.  1.
     999902    2    1    2    0    0 -0.20404441663E-01 -0.67464671559E-02 -0.26189933240E-02  0.10222801689E+01  0.10220508934E+01 0.  0.
     999903    2    3    3    0    0 -0.17308796819E-01 -0.19730749915E-01 -0.12899599117E+00  0.13315176416E+00  0.20013236153E-01 0.  0.
         14    1    1    2    0    0  0.20404441663E-01  0.67464671559E-02  0.26189933240E-02  0.21649831055E-01  0.00000000000E+00 0. -1.
     999901    1    3    3    0    0 -0.30956448445E-02  0.12984282759E-01  0.12637699784E+00  0.88912840479E+00  0.88000000000E+00 0. -1.
        -11    1    4    4    0    0 -0.13588025966E-01 -0.22489231313E-01 -0.12162055776E+00  0.12442757398E+00  0.51100000000E-03 0. -1.
         11    1    4    4    0    0 -0.37207708531E-02  0.27584813982E-02 -0.73754334070E-02  0.87241901806E-02  0.51100000000E-03 0.  1.
</event>
<event>
 8    1  0.1070112E+005  0.1043930E+01  0.7957747E-01            NaN
         13   -1    0    0    0    0  0.00000000000E+00  0.00000000000E+00  0.74505805969E-08  0.10566000000E+00  0.10566000000E+00 0.  1.
     999900   -1    0    0    0    0 -0.00000000000E+00 -0.00000000000E+00 -0.74505805969E-08  0.93827000000E+00  0.93827000000E+00 0.  1.
     999902    2    1    2    0    0 -0.10552676779E-01 -0.34681125160E-02  0.21134337828E-01  0.10200543424E+01  0.10197748842E+01 0.  0.
     999903    2    3    3    0    0 -0.11977519560E+00  0.44040720164E-01  0.27270255752E-01  0.13200913109E+00  0.19926397770E-01 0.  0.
         14    1    1    2    0    0  0.10552676779E-01  0.34681125160E-02 -0.21134337828E-01  0.23875657625E-01  0.00000000000E+00 0. -1.
     999901    1    3    3    0    0  0.10922251882E+00 -0.47508832680E-01 -0.61359179240E-02  0.88804521129E+00  0.88000000000E+00 0.  1.
        -11    1    4    4    0    0 -0.40421763809E-01  0.20710510634E-01  0.17773929967E-02  0.45456182055E-01  0.51100000000E-03 0.  1.
         11    1    4    4    0    0 -0.79353431792E-01  0.23330209529E-01  0.25492862755E-01  0.86552949033E-01  0.51100000000E-03 0. -1.
</event>
<event>
 8    1  0.1070112E+005  0.1043930E+01  0.7957747E-01            NaN
         13   -1    0    0    0    0  0.00000000000E+00  0.00000000000E+00  0.74505805969E-08  0.10566000000E+00  0.10566000000E+00 0.  1.
     999900   -1    0    0    0    0 -0.00000000000E+00 -0.00000000000E+00 -0.74505805969E-08  0.93827000000E+00  0.93827000000E+00 0.  1.
     999902    2    1    2    0    0  0.29618783871E-01  0.59133397028E-02 -0.89214086579E-02  0.10124366439E+01  0.10119467014E+01 0.  0.
     999903    2    3    3    0    0  0.94232653857E-02 -0.46837402299E-01  0.11105144466E+00  0.12250182312E+00  0.19792249032E-01 0.  0.
         14    1    1    2    0    0 -0.29618783871E-01 -0.59133397028E-02  0.89214086579E-02  0.31493356075E-01  0.00000000000E+00 0.  1.
     999901    1    3    3    0    0  0.20195518485E-01  0.52750742002E-01 -0.11997285332E+00  0.88993482081E+00  0.88000000000E+00 0.  1.
        -11    1    4    4    0    0  0.12420706417E-01 -0.17053318588E-01  0.36470491257E-01  0.42136059098E-01  0.51100000000E-03 0.  1.
         11    1    4    4    0    0 -0.29974410310E-02 -0.29784083711E-01  0.74580953404E-01  0.80365764022E-01  0.51100000000E-03 0. -1.
</event>
<event>
 8    1  0.1070112E+005  0.1043930E+01  0.7957747E-01            NaN
         13   -1    0    0    0    0  0.00000000000E+00  0.00000000000E+00  0.74505805969E-08  0.10566000000E+00  0.10566000000E+00 0. -1.
     999900   -1    0    0    0    0 -0.00000000000E+00 -0.00000000000E+00 -0.74505805969E-08  0.93827000000E+00  0.93827000000E+00 0. -1.
     999902    2    1    2    0    0 -0.18586704287E-01  0.72570239637E-02  0.11709755513E-01  0.10207945651E+01  0.10205323590E+01 0.  0.
     999903    2    3    3    0    0  0.12104757892E-01 -0.12152104403E+00 -0.36875439300E-01  0.12956716551E+00  0.22670753171E-01 0.  0.
         14    1    1    2    0    0  0.18586704287E-01 -0.72570239637E-02 -0.11709755513E-01  0.23135434883E-01  0.00000000000E+00 0.  1.
     999901    1    3    3    0    0 -0.30691462179E-01  0.12877806800E+00  0.48585194813E-01  0.89122739960E+00  0.88000000000E+00 0. -1.
        -11    1    4    4    0    0  0.15458196164E-01 -0.66765900666E-01 -0.13090767955E-01  0.69772993680E-01  0.51100000000E-03 0.  1.
         11    1    4    4    0    0 -0.33534382718E-02 -0.54755143367E-01 -0.23784671345E-01  0.59794171834E-01  0.51100000000E-03 0. -1.
</event>
<event>
 8    1  0.1070112E+005  0.1043930E+01  0.7957747E-01            NaN
         13   -1    0    0    0    0  0.00000000000E+00  0.00000000000E+00  0.74505805969E-08  0.10566000000E+00  0.10566000000E+00 0. -1.
     999900   -1    0    0    0    0 -0.00000000000E+00 -0.00000000000E+00 -0.74505805969E-08  0.93827000000E+00  0.93827000000E+00 0.  1.
     999902    2    1    2    0    0 -0.16173663477E-01 -0.83060573180E-02 -0.14401366762E-01  0.10207356614E+01  0.10204721031E+01 0.  0.
     999903    2    3    3    0    0 -0.34017258317E-01 -0.89553360599E-01 -0.90782391228E-01  0.13351890149E+00  0.20220688422E-01 0.  0.
         14    1    1    2    0    0  0.16173663477E-01  0.83060573180E-02  0.14401366762E-01  0.23194338599E-01  0.00000000000E+00 0. -1.
     999901    1    3    3    0    0  0.17843594840E-01  0.81247303281E-01  0.76381024466E-01  0.88721675991E+00  0.88000000000E+00 0.  1.
        -11    1    4    4    0    0 -0.64239323522E-02 -0.92412735817E-02 -0.36365339410E-02  0.11838646223E-01  0.51100000000E-03 0. -1.
         11    1    4    4    0    0 -0.27593325965E-01 -0.80312087017E-01 -0.87145857287E-01  0.12168025527E+00  0.51100000000E-03 0.  1.
</event>
<event>
 8    1  0.1070112E+005  0.1043930E+01  0.7957747E-01            NaN
         13   -1    0    0    0    0  0.00000000000E+00  0.00000000000E+00  0.74505805969E-08  0.10566000000E+00  0.10566000000E+00 0. -1.
     999900   -1    0    0    0    0 -0.00000000000E+00 -0.00000000000E+00 -0.74505805969E-08  0.93827000000E+00  0.93827000000E+00 0. -1.
     999902    2    1    2    0    0 -0.37706049018E-02  0.19333643943E-01 -0.16138426561E-01  0.10184651996E+01  0.10181468002E+01 0.  0.
     999903    2    3    3    0    0  0.11002337823E+00 -0.15157374079E-01  0.59052788186E-01  0.12729045817E+00  0.19512539624E-01 0.  0.
         14    1    1    2    0    0  0.37706049018E-02 -0.19333643943E-01  0.16138426561E-01  0.25464800437E-01  0.00000000000E+00 0. -1.
     999901    1    3    3    0    0 -0.11379398313E+00  0.34491018022E-01 -0.75191214747E-01  0.89117474139E+00  0.88000000000E+00 0. -1.
        -11    1    4    4    0    0  0.43009276073E-01  0.33470572542E-02  0.20053071555E-01  0.47575071418E-01  0.51100000000E-03 0.  1.
         11    1    4    4    0    0  0.67014102157E-01 -0.18504431333E-01  0.38999716631E-01  0.79715386752E-01  0.51100000000E-03 0. -1.
</event>
<event>
 8    1  0.1070112E+005  0.1043930E+01  0.7957747E-01            NaN
         13   -1    0    0    0    0  0.00000000000E+00  0.00000000000E+00  0.74505805969E-08  0.10566000000E+00  0.10566000000E+00 0. -1.
     999900   -1    0    0    0    0 -0.00000000000E+00 -0.00000000000E+00 -0.74505805969E-08  0.93827000000E+00  0.93827000000E+00 0.  1.
     999902    2    1    2    0    0 -0.13712594625E-01  0.26346113845E-02 -0.19064431831E-01  0.10202988978E+01  0.10200252016E+01 0.  0.
     999903    2    3    3    0    0  0.98336087656E-01 -0.88131824026E-05 -0.83868692388E-01  0.13082630855E+00  0.20287415658E-01 0.  0.
         14    1    1    2    0    0  0.13712594625E-01 -0.26346113845E-02  0.19064431831E-01  0.23631102166E-01  0.00000000000E+00 0. -1.
     999901    1    3    3    0    0 -0.11204868228E+00  0.26434245669E-02  0.64804260556E-01  0.88947258928E+00  0.88000000000E+00 0. -1.
        -11    1    4    4    0    0  0.70384717740E-01 -0.13511982250E-02 -0.47459986388E-01  0.84903154576E-01  0.51100000000E-03 0. -1.
         11    1    4    4    0    0  0.27951369915E-01  0.13423850426E-02 -0.36408705999E-01  0.45923153978E-01  0.51100000000E-03 0.  1.
</event>
<event>
 8    1  0.1070112E+005  0.1043930E+01  0.7957747E-01            NaN
         13   -1    0    0    0    0  0.00000000000E+00  0.00000000000E+00  0.74505805969E-08  0.10566000000E+00  0.10566000000E+00 0. -1.
     999900   -1    0    0    0    0 -0.00000000000E+00 -0.00000000000E+00 -0.74505805969E-08  0.93827000000E+00  0.93827000000E+00 0.  1.
     999902    2    1    2    0    0 -0.18352680462E-01 -0.24985458838E-03 -0.15298602548E-01  0.10200358470E+01  0.10197559505E+01 0.  0.
     999903    2    3    3    0    0 -0.34081054671E-01  0.10061990351E+00 -0.72597676971E-01  0.13228291190E+00  0.30699557155E-01 0.  0.
         14    1    1    2    0    0  0.18352680462E-01  0.24985458838E-03  0.15298602548E-01  0.23894152995E-01  0.00000000000E+00 0. -1.
     999901    1    3    3    0    0  0.15728374209E-01 -0.10086975810E+00  0.57299074423E-01  0.88775293510E+00  0.88000000000E+00 0.  1.
        -11    1    4    4    0    0 -0.29400388363E-01  0.71477398247E-01 -0.35997277862E-01  0.85261166017E-01  0.51100000000E-03 0.  1.
         11    1    4    4    0    0 -0.46806663087E-02  0.29142505264E-01 -0.36600399108E-01  0.47021745885E-01  0.51100000000E-03 0. -1.
</event>
<event>
 8    1  0.1070112E+005  0.1043930E+01  0.7957747E-01            NaN
         13   -1    0    0    0    0  0.00000000000E+00  0.00000000000E+00  0.74505805969E-08  0.10566000000E+00  0.10566000000E+00 0. -1.
     999900   -1    0    0    0    0 -0.00000000000E+00 -0.00000000000E+00 -0.74505805969E-08  0.93827000000E+00  0.93827000000E+00 0. -1.
     999902    2    1    2    0    0 -0.15654026187E-01  0.17853625956E-01 -0.12088145674E-02  0.10201547665E+01  0.10198776818E+01 0.  0.
     999903    2    3    3    0    0 -0.43837740321E-01 -0.10840502183E+00 -0.51338048033E-01  0.12928524298E+00  0.20141565021E-01 0.  0.
         14    1    1    2    0    0  0.15654026187E-01 -0.17853625956E-01  0.12088145674E-02  0.23775233507E-01  0.00000000000E+00 0. -1.
     999901    1    3    3    0    0  0.28183714134E-01  0.12625864779E+00  0.50129233466E-01  0.89086952352E+00  0.88000000000E+00 0.  1.
        -11    1    4    4    0    0 -0.21197522537E-01 -0.51731393700E-01 -0.35521924003E-01  0.66238510414E-01  0.51100000000E-03 0.  1.
         11    1    4    4    0    0 -0.22640217784E-01 -0.56673628129E-01 -0.15816124030E-01  0.63046732563E-01  0.51100000000E-03 0. -1.
</event>
<event>
 8    1  0.1070112E+005  0.1043930E+01  0.7957747E-01            NaN
         13   -1    0    0    0    0  0.00000000000E+00  0.00000000000E+00  0.74505805969E-08  0.10566000000E+00  0.10566000000E+00 0. -1.
     999900   -1    0    0    0    0 -0.00000000000E+00 -0.00000000000E+00 -0.74505805969E-08  0.93827000000E+00  0.93827000000E+00 0.  1.
     999902    2    1    2    0    0 -0.12097197114E-01  0.12122983274E-01 -0.18163028382E-01  0.10189659358E+01  0.10186600875E+01 0.  0.
     999903    2    3    3    0    0 -0.44495573300E-01 -0.11566649780E+00  0.25305326991E-01  0.12808474048E+00  0.20167955078E-01 0.  0.
         14    1    1    2    0    0  0.12097197114E-01 -0.12122983274E-01  0.18163028382E-01  0.24964064202E-01  0.00000000000E+00 0. -1.
     999901    1    3    3    0    0  0.32398376186E-01  0.12778948108E+00 -0.43468355373E-01  0.89088119532E+00  0.88000000000E+00 0.  1.
        -11    1    4    4    0    0 -0.86261425108E-02 -0.12111317372E-01 -0.23352326506E-02  0.15060171833E-01  0.51100000000E-03 0. -1.
         11    1    4    4    0    0 -0.35869430789E-01 -0.10355518043E+00  0.27640559642E-01  0.11302456865E+00  0.51100000000E-03 0.  1.
</event>
<event>
 8    1  0.1070112E+005  0.1043930E+01  0.7957747E-01            NaN
         13   -1    0    0    0    0  0.00000000000E+00  0.00000000000E+00  0.74505805969E-08  0.10566000000E+00  0.10566000000E+00 0.  1.
     999900   -1    0    0    0    0 -0.00000000000E+00 -0.00000000000E+00 -0.74505805969E-08  0.93827000000E+00  0.93827000000E+00 0. -1.
     999902    2    1    2    0    0 -0.14627964619E-01  0.17657359942E-01 -0.76792478379E-02  0.10197487975E+01  0.10194620539E+01 0.  0.
     999903    2    3    3    0    0  0.12538199813E+00  0.16608781322E-01  0.11549286273E-01  0.12847239493E+00  0.19371968711E-01 0.  0.
         14    1    1    2    0    0  0.14627964619E-01 -0.17657359942E-01  0.76792478379E-02  0.24181202542E-01  0.00000000000E+00 0.  1.
     999901    1    3    3    0    0 -0.14000996275E+00  0.10485786203E-02 -0.19228534111E-01  0.89127640253E+00  0.88000000000E+00 0.  1.
        -11    1    4    4    0    0  0.75982897837E-01  0.69771484158E-02  0.15932814840E-01  0.77949965192E-01  0.51100000000E-03 0. -1.
         11    1    4    4    0    0  0.49399100296E-01  0.96316329058E-02 -0.43835285670E-02  0.50522429734E-01  0.51100000000E-03 0.  1.
</event>
<event>
 8    1  0.1070112E+005  0.1043930E+01  0.7957747E-01            NaN
         13   -1    0    0    0    0  0.00000000000E+00  0.00000000000E+00  0.74505805969E-08  0.10566000000E+00  0.10566000000E+00 0. -1.
     999900   -1    0    0    0    0 -0.00000000000E+00 -0.00000000000E+00 -0.74505805969E-08  0.93827000000E+00  0.93827000000E+00 0. -1.
     999902    2    1    2    0    0  0.19313917598E-01 -0.99895182811E-02 -0.92528129272E-02  0.10202988249E+01  0.10200251270E+01 0.  0.
     999903    2    3    3    0    0 -0.44156672006E-01  0.78678560691E-01  0.88540704128E-01  0.12819226405E+00  0.21299593418E-01 0.  0.
         14    1    1    2    0    0 -0.19313917598E-01  0.99895182811E-02  0.92528129272E-02  0.23631175077E-01  0.00000000000E+00 0. -1.
     999901    1    3    3    0    0  0.63470589604E-01 -0.88668078972E-01 -0.97793517056E-01  0.89210656087E+00  0.88000000000E+00 0. -1.
        -11    1    4    4    0    0 -0.17255324870E-01  0.12651816877E-01  0.20129809605E-01  0.29381713061E-01  0.51100000000E-03 0. -1.
         11    1    4    4    0    0 -0.26901347136E-01  0.66026743813E-01  0.68410894523E-01  0.98810550989E-01  0.51100000000E-03 0.  1.
</event>
<event>
 8    1  0.1236583E+005  0.1043930E+01  0.7957747E-01            NaN
         13   -1    0    0    0    0  0.00000000000E+00  0.00000000000E+00  0.74505805969E-08  0.10566000000E+00  0.10566000000E+00 0. -1.
     999900   -1    0    0    0    0 -0.00000000000E+00 -0.00000000000E+00 -0.74505805969E-08  0.93827000000E+00  0.93827000000E+00 0.  1.
     999902    2    1    2    0    0 -0.14600773486E-01 -0.19398925478E-01  0.37959993435E-02  0.10193554093E+01  0.10190591445E+01 0.  0.
     999903    2    3    3    0    0  0.96141207711E-01  0.73380176102E-01  0.31735466634E-01  0.12713774422E+00  0.23001828123E-01 0.  0.
         14    1    1    2    0    0  0.14600773486E-01  0.19398925478E-01 -0.37959993435E-02  0.24574590681E-01  0.00000000000E+00 0.  1.
     999901    1    3    3    0    0 -0.11074198120E+00 -0.92779101580E-01 -0.27939467290E-01  0.89221766510E+00  0.88000000000E+00 0.  1.
        -11    1    4    4    0    0  0.69208473413E-01  0.48380888568E-01  0.32225501247E-01  0.90383998708E-01  0.51100000000E-03 0. -1.
         11    1    4    4    0    0  0.26932734298E-01  0.24999287534E-01 -0.49003461310E-03  0.36753745508E-01  0.51100000000E-03 0.  1.
</event>
<event>
 8    1  0.1070112E+005  0.1043930E+01  0.7957747E-01            NaN
         13   -1    0    0    0    0  0.00000000000E+00  0.00000000000E+00  0.74505805969E-08  0.10566000000E+00  0.10566000000E+00 0.  1.
     999900   -1    0    0    0    0 -0.00000000000E+00 -0.00000000000E+00 -0.74505805969E-08  0.93827000000E+00  0.93827000000E+00 0.  1.
     999902    2    1    2    0    0 -0.28199114438E-02 -0.10595285046E-01  0.20020041312E-01  0.10211042685E+01  0.10208491138E+01 0.  0.
     999903    2    3    3    0    0  0.17996403751E-01  0.83660780835E-01  0.98894242051E-01  0.13231933134E+00  0.20132996211E-01 0.  0.
         14    1    1    2    0    0  0.28199114438E-02  0.10595285046E-01 -0.20020041312E-01  0.22825731530E-01  0.00000000000E+00 0. -1.
     999901    1    3    3    0    0 -0.20816315194E-01 -0.94256065882E-01 -0.78874200740E-01  0.88878493713E+00  0.88000000000E+00 0.  1.
        -11    1    4    4    0    0  0.33107144804E-02  0.35552361299E-01  0.54901994565E-01  0.65493674142E-01  0.51100000000E-03 0. -1.
         11    1    4    4    0    0  0.14685689270E-01  0.48108419536E-01  0.43992247486E-01  0.66825657195E-01  0.51100000000E-03 0.  1.
</event>
<event>
 8    1  0.1070112E+005  0.1043930E+01  0.7957747E-01            NaN
         13   -1    0    0    0    0  0.00000000000E+00  0.00000000000E+00  0.74505805969E-08  0.10566000000E+00  0.10566000000E+00 0. -1.
     999900   -1    0    0    0    0 -0.00000000000E+00 -0.00000000000E+00 -0.74505805969E-08  0.93827000000E+00  0.93827000000E+00 0.  1.
     999902    2    1    2    0    0 -0.20234621257E-01  0.84416502644E-02 -0.85239152455E-02  0.10204064270E+01  0.10201352448E+01 0.  0.
     999903    2    3    3    0    0  0.72659471796E-02 -0.37704658881E-01 -0.12394410160E+00  0.13124525906E+00  0.19716551822E-01 0.  0.
         14    1    1    2    0    0  0.20234621257E-01 -0.84416502644E-02  0.85239152455E-02  0.23523573022E-01  0.00000000000E+00 0. -1.
     999901    1    3    3    0    0 -0.27500568436E-01  0.46146309145E-01  0.11542018635E+00  0.88916116792E+00  0.88000000000E+00 0. -1.
        -11    1    4    4    0    0  0.60936500140E-02 -0.71497310846E-02 -0.55334196414E-01  0.56128296240E-01  0.51100000000E-03 0. -1.
         11    1    4    4    0    0  0.11722971656E-02 -0.30554927796E-01 -0.68609905184E-01  0.75116962822E-01  0.51100000000E-03 0.  1.
</event>
<event>
 7    1  0.1070112E+005  0.1043930E+01  0.7957747E-01            NaN
         13   -1    0    0    0    0  0.00000000000E+00  0.00000000000E+00  0.74505805969E-08  0.10566000000E+00  0.10566000000E+00 0. -1.
     999900   -1    0    0    0    0 -0.00000000000E+00 -0.00000000000E+00 -0.74505805969E-08  0.93827000000E+00  0.93827000000E+00 0. -1.
     999903    2    1    2    0    0  0.96304227847E-02 -0.94094783140E-01  0.10764899108E-02  0.96993048877E-01  0.21445732507E-01 0.  0.
         14    1    1    2    0    0  0.28562006780E-01  0.46687458163E-01 -0.33622010436E-01  0.64233531483E-01  0.00000000000E+00 0.  1.
     999901    1    1    2    0    0 -0.38192429565E-01  0.47407324976E-01  0.32545520525E-01  0.88270341964E+00  0.88000000000E+00 0.  1.
        -11    1    3    3    0    0 -0.54844987144E-02 -0.94448532879E-02  0.12293401402E-02  0.11002607780E-01  0.51100000000E-03 0. -1.
         11    1    3    3    0    0  0.15114921499E-01 -0.84649929852E-01 -0.15285022945E-03  0.85990441097E-01  0.51100000000E-03 0.  1.
</event>
<event>
 8    1  0.1070112E+005  0.1043930E+01  0.7957747E-01            NaN
         13   -1    0    0    0    0  0.00000000000E+00  0.00000000000E+00  0.74505805969E-08  0.10566000000E+00  0.10566000000E+00 0.  1.
     999900   -1    0    0    0    0 -0.00000000000E+00 -0.00000000000E+00 -0.74505805969E-08  0.93827000000E+00  0.93827000000E+00 0.  1.
     999902    2    1    2    0    0 -0.53562248062E-02  0.62006172354E-02  0.21606064218E-01  0.10208224512E+01  0.10205608841E+01 0.  0.
     999903    2    3    3    0    0 -0.73491572199E-01  0.83214844314E-01 -0.65692606667E-01  0.13054458750E+00  0.20016224858E-01 0.  0.
         14    1    1    2    0    0  0.53562248062E-02 -0.62006172354E-02 -0.21606064218E-01  0.23107548751E-01  0.00000000000E+00 0. -1.
     999901    1    3    3    0    0  0.68135347392E-01 -0.77014227078E-01  0.87298670885E-01  0.89027786375E+00  0.88000000000E+00 0.  1.
        -11    1    4    4    0    0 -0.56162947719E-01  0.73369919093E-01 -0.58442350662E-01  0.10933065076E+00  0.51100000000E-03 0. -1.
         11    1    4    4    0    0 -0.17328624479E-01  0.98449252210E-02 -0.72502560045E-02  0.21213936742E-01  0.51100000000E-03 0.  1.
</event>
<event>
 8    1  0.1070112E+005  0.1043930E+01  0.7957747E-01            NaN
         13   -1    0    0    0    0  0.00000000000E+00  0.00000000000E+00  0.74505805969E-08  0.10566000000E+00  0.10566000000E+00 0.  1.
     999900   -1    0    0    0    0 -0.00000000000E+00 -0.00000000000E+00 -0.74505805969E-08  0.93827000000E+00  0.93827000000E+00 0. -1.
     999902    2    1    2    0    0  0.17724075388E-01  0.13079264070E-01  0.11532426097E-01  0.10190662342E+01  0.10187628688E+01 0.  0.
     999903    2    3    3    0    0 -0.36340788670E-01 -0.10269013722E+00 -0.62062270329E-01  0.12679848117E+00  0.18979257749E-01 0.  0.
         14    1    1    2    0    0 -0.17724075388E-01 -0.13079264070E-01 -0.11532426097E-01  0.24863765778E-01  0.00000000000E+00 0. -1.
     999901    1    3    3    0    0  0.54064864058E-01  0.11576940129E+00  0.73594696427E-01  0.89226775306E+00  0.88000000000E+00 0. -1.
        -11    1    4    4    0    0 -0.84078177227E-02 -0.42693242658E-01 -0.16938269988E-01  0.46696578876E-01  0.51100000000E-03 0.  1.
         11    1    4    4    0    0 -0.27932970947E-01 -0.59996894560E-01 -0.45124000342E-01  0.80101902291E-01  0.51100000000E-03 0. -1.
</event>
<event>
 7    1  0.1070112E+005  0.1043930E+01  0.7957747E-01            NaN
         13   -1    0    0    0    0  0.00000000000E+00  0.00000000000E+00  0.74505805969E-08  0.10566000000E+00  0.10566000000E+00 0.  1.
     999900   -1    0    0    0    0 -0.00000000000E+00 -0.00000000000E+00 -0.74505805969E-08  0.93827000000E+00  0.93827000000E+00 0. -1.
     999902    2    1    2    0    0 -0.12376954699E-01 -0.20378794543E-01  0.14379797091E-02  0.10200437684E+01  0.10197640597E+01 0.  0.
         14    1    1    2    0    0  0.12376954699E-01  0.20378794543E-01 -0.14379797091E-02  0.23886231605E-01  0.00000000000E+00 0. -1.
     999901    1    3    3    0    0  0.68596338272E-01 -0.42038218044E-01 -0.88191995747E-01  0.88805996279E+00  0.88000000000E+00 0. -1.
        -11    1    3    3    0    0 -0.60201142131E-01  0.66415406841E-02  0.87282235444E-01  0.10623905742E+00  0.51100000000E-03 0.  1.
         11    1    3    3    0    0 -0.20772150840E-01  0.15017882817E-01  0.23477400122E-02  0.25744748183E-01  0.51100000000E-03 0. -1.
</event>
<event>
 8    1  0.1070112E+005  0.1043930E+01  0.7957747E-01            NaN
         13   -1    0    0    0    0  0.00000000000E+00  0.00000000000E+00  0.74505805969E-08  0.10566000000E+00  0.10566000000E+00 0.  1.
     999900   -1    0    0    0    0 -0.00000000000E+00 -0.00000000000E+00 -0.74505805969E-08  0.93827000000E+00  0.93827000000E+00 0. -1.
     999902    2    1    2    0    0 -0.19307277738E-01 -0.11777990930E-01 -0.64728488679E-02  0.10204057611E+01  0.10201345634E+01 0.  0.
     999903    2    3    3    0    0  0.44993199860E-02  0.60834368870E-01 -0.11364272309E+00  0.13061663392E+00  0.20614854544E-01 0.  0.
         14    1    1    2    0    0  0.19307277738E-01  0.11777990930E-01  0.64728488679E-02  0.23524238914E-01  0.00000000000E+00 0.  1.
     999901    1    3    3    0    0 -0.23806597724E-01 -0.72612359800E-01  0.10716987422E+00  0.88978912717E+00  0.88000000000E+00 0. -1.
        -11    1    4    4    0    0 -0.71400496777E-02  0.30872520628E-01 -0.47898200266E-01  0.57433366165E-01  0.51100000000E-03 0. -1.
         11    1    4    4    0    0  0.11639369664E-01  0.29961848242E-01 -0.65744522824E-01  0.73183267750E-01  0.51100000000E-03 0.  1.
</event>
<event>
 8    1  0.1070112E+005  0.1043930E+01  0.7957747E-01            NaN
         13   -1    0    0    0    0  0.00000000000E+00  0.00000000000E+00  0.74505805969E-08  0.10566000000E+00  0.10566000000E+00 0. -1.
     999900   -1    0    0    0    0 -0.00000000000E+00 -0.00000000000E+00 -0.74505805969E-08  0.93827000000E+00  0.93827000000E+00 0. -1.
     999902    2    1    2    0    0  0.23556153353E-01  0.26921148247E-02  0.23999717086E-02  0.10200993536E+01  0.10198209605E+01 0.  0.
     999903    2    3    3    0    0  0.11479012614E+00  0.26075097479E-01 -0.58352318889E-01  0.13299099356E+00  0.20613769153E-01 0.  0.
         14    1    1    2    0    0 -0.23556153353E-01 -0.26921148247E-02 -0.23999717086E-02  0.23830646387E-01  0.00000000000E+00 0.  1.
     999901    1    3    3    0    0 -0.91233972791E-01 -0.23382982654E-01  0.60752290598E-01  0.88710836006E+00  0.88000000000E+00 0.  1.
        -11    1    4    4    0    0  0.43551959418E-01  0.20236488422E-01 -0.23307690051E-01  0.53383500909E-01  0.51100000000E-03 0.  1.
         11    1    4    4    0    0  0.71238166727E-01  0.58386090571E-02 -0.35044628838E-01  0.79607492648E-01  0.51100000000E-03 0. -1.
</event>
<event>
 8    1  0.1070112E+005  0.1043930E+01  0.7957747E-01            NaN
         13   -1    0    0    0    0  0.00000000000E+00  0.00000000000E+00  0.74505805969E-08  0.10566000000E+00  0.10566000000E+00 0. -1.
     999900   -1    0    0    0    0 -0.00000000000E+00 -0.00000000000E+00 -0.74505805969E-08  0.93827000000E+00  0.93827000000E+00 0. -1.
     999902    2    1    2    0    0 -0.10693247218E-01 -0.99619024116E-02  0.18514143767E-01  0.10203427459E+01  0.10200700763E+01 0.  0.
     999903    2    3    3    0    0 -0.41843606099E-01 -0.10817847741E+00  0.62508389395E-01  0.13323940689E+00  0.19798243836E-01 0.  0.
         14    1    1    2    0    0  0.10693247218E-01  0.99619024116E-02 -0.18514143767E-01  0.23587254082E-01  0.00000000000E+00 0.  1.
     999901    1    3    3    0    0  0.31150358881E-01  0.98216574995E-01 -0.43994245628E-01  0.88710333903E+00  0.88000000000E+00 0. -1.
        -11    1    4    4    0    0 -0.43925901703E-01 -0.10441429149E+00  0.60953807665E-01  0.12863691887E+00  0.51100000000E-03 0.  1.
         11    1    4    4    0    0  0.20822956043E-02 -0.37641859162E-02  0.15545817302E-02  0.46024880175E-02  0.51100000000E-03 0. -1.
</event>
<event>
 8    1  0.1070112E+005  0.1043930E+01  0.7957747E-01            NaN
         13   -1    0    0    0    0  0.00000000000E+00  0.00000000000E+00  0.74505805969E-08  0.10566000000E+00  0.10566000000E+00 0. -1.
     999900   -1    0    0    0    0 -0.00000000000E+00 -0.00000000000E+00 -0.74505805969E-08  0.93827000000E+00  0.93827000000E+00 0. -1.
     999902    2    1    2    0    0  0.90374263200E-02 -0.21882312227E-02  0.21832666851E-01  0.10201996656E+01  0.10199236387E+01 0.  0.
     999903    2    3    3    0    0  0.46780168010E-01  0.11883082885E+00 -0.16594774977E-01  0.13028573954E+00  0.19744299633E-01 0.  0.
         14    1    1    2    0    0 -0.90374263200E-02  0.21882312227E-02 -0.21832666851E-01  0.23730334430E-01  0.00000000000E+00 0.  1.
     999901    1    3    3    0    0 -0.37742741690E-01 -0.12101906007E+00  0.38427441827E-01  0.88991392603E+00  0.88000000000E+00 0.  1.
        -11    1    4    4    0    0  0.28162363854E-01  0.69327388805E-01  0.71323278092E-04  0.74830954720E-01  0.51100000000E-03 0.  1.
         11    1    4    4    0    0  0.18617804156E-01  0.49503440043E-01 -0.16666098255E-01  0.55454784823E-01  0.51100000000E-03 0. -1.
</event>
<event>
 8    1  0.1070112E+005  0.1043930E+01  0.7957747E-01            NaN
         13   -1    0    0    0    0  0.00000000000E+00  0.00000000000E+00  0.74505805969E-08  0.10566000000E+00  0.10566000000E+00 0.  1.
     999900   -1    0    0    0    0 -0.00000000000E+00 -0.00000000000E+00 -0.74505805969E-08  0.93827000000E+00  0.93827000000E+00 0. -1.
     999902    2    1    2    0    0  0.20209455672E-01  0.22501038261E-02  0.17083642288E-01  0.10173718393E+01  0.10170251342E+01 0.  0.
     999903    2    3    3    0    0  0.56093984924E-02 -0.95515633323E-01  0.84419844900E-01  0.12928092886E+00  0.20788140691E-01 0.  0.
         14    1    1    2    0    0 -0.20209455672E-01 -0.22501038261E-02 -0.17083642288E-01  0.26558160698E-01  0.00000000000E+00 0. -1.
     999901    1    3    3    0    0  0.14600057180E-01  0.97765737149E-01 -0.67336202611E-01  0.88809091044E+00  0.88000000000E+00 0. -1.
        -11    1    4    4    0    0  0.59337124734E-02 -0.36009918320E-01  0.20151256791E-01  0.41692414567E-01  0.51100000000E-03 0. -1.
         11    1    4    4    0    0 -0.32431398104E-03 -0.59505715002E-01  0.64268588108E-01  0.87588514292E-01  0.51100000000E-03 0.  1.
</event>
<event>
 8    1  0.1070112E+005  0.1043930E+01  0.7957747E-01            NaN
         13   -1    0    0    0    0  0.00000000000E+00  0.00000000000E+00  0.74505805969E-08  0.10566000000E+00  0.10566000000E+00 0.  1.
     999900   -1    0    0    0    0 -0.00000000000E+00 -0.00000000000E+00 -0.74505805969E-08  0.93827000000E+00  0.93827000000E+00 0.  1.
     999902    2    1    2    0    0 -0.93544162068E-02 -0.23003471149E-01 -0.14496880565E-01  0.10151754467E+01  0.10147681328E+01 0.  0.
     999903    2    3    3    0    0  0.99806141117E-01 -0.56727895496E-01 -0.50653382617E-01  0.12705346372E+00  0.19937340348E-01 0.  0.
         14    1    1    2    0    0  0.93544162068E-02  0.23003471149E-01  0.14496880565E-01  0.28754553267E-01  0.00000000000E+00 0.  1.
     999901    1    3    3    0    0 -0.10916055732E+00  0.33724424347E-01  0.36156502051E-01  0.88812198301E+00  0.88000000000E+00 0.  1.
        -11    1    4    4    0    0  0.33454028305E-01 -0.30157429518E-01 -0.19593852991E-01  0.49120492271E-01  0.51100000000E-03 0. -1.
         11    1    4    4    0    0  0.66352112813E-01 -0.26570465978E-01 -0.31059529626E-01  0.77932971447E-01  0.51100000000E-03 0.  1.
</event>
<event>
 8    1  0.1070112E+005  0.1043930E+01  0.7957747E-01            NaN
         13   -1    0    0    0    0  0.00000000000E+00  0.00000000000E+00  0.74505805969E-08  0.10566000000E+00  0.10566000000E+00 0.  1.
     999900   -1    0    0    0    0 -0.00000000000E+00 -0.00000000000E+00 -0.74505805969E-08  0.93827000000E+00  0.93827000000E+00 0.  1.
     999902    2    1    2    0    0  0.15160091771E-01  0.12324512380E-02  0.19160780431E-01  0.10194660914E+01  0.10191725215E+01 0.  0.
     999903    2    3    3    0    0 -0.12121707846E-01  0.41311207516E-01  0.12302879847E+00  0.13203205525E+00  0.21043447788E-01 0.  0.
         14    1    1    2    0    0 -0.15160091771E-01 -0.12324512380E-02 -0.19160780431E-01  0.24463908626E-01  0.00000000000E+00 0. -1.
     999901    1    3    3    0    0  0.27281799617E-01 -0.40078756278E-01 -0.10386801804E+00  0.88743403612E+00  0.88000000000E+00 0. -1.
        -11    1    4    4    0    0 -0.50780060031E-02  0.14198428830E-01  0.74356715661E-01  0.75872022585E-01  0.51100000000E-03 0.  1.
         11    1    4    4    0    0 -0.70437018431E-02  0.27112778686E-01  0.48672082805E-01  0.56160032668E-01  0.51100000000E-03 0. -1.
</event>
<event>
 8    1  0.1070112E+005  0.1043930E+01  0.7957747E-01            NaN
         13   -1    0    0    0    0  0.00000000000E+00  0.00000000000E+00  0.74505805969E-08  0.10566000000E+00  0.10566000000E+00 0.  1.
     999900   -1    0    0    0    0 -0.00000000000E+00 -0.00000000000E+00 -0.74505805969E-08  0.93827000000E+00  0.93827000000E+00 0. -1.
     999902    2    1    2    0    0 -0.63076854417E-02  0.21058234705E-01 -0.85309437665E-02  0.10203500690E+01  0.10200775707E+01 0.  0.
     999903    2    3    3    0    0  0.86488710627E-01 -0.63355049613E-01 -0.69510560152E-01  0.12936449823E+00  0.20231066545E-01 0.  0.
         14    1    1    2    0    0  0.63076854417E-02 -0.21058234705E-01  0.85309437665E-02  0.23579931003E-01  0.00000000000E+00 0.  1.
     999901    1    3    3    0    0 -0.92796396069E-01  0.84413284318E-01  0.60979616385E-01  0.89098557076E+00  0.88000000000E+00 0.  1.
        -11    1    4    4    0    0  0.12479212943E-01 -0.64238263433E-02 -0.17644866242E-01  0.22552133519E-01  0.51100000000E-03 0. -1.
         11    1    4    4    0    0  0.74009497684E-01 -0.56931223270E-01 -0.51865693910E-01  0.10681236472E+00  0.51100000000E-03 0.  1.
</event>
<event>
 8    1  0.1070112E+005  0.1043930E+01  0.7957747E-01            NaN
         13   -1    0    0    0    0  0.00000000000E+00  0.00000000000E+00  0.74505805969E-08  0.10566000000E+00  0.10566000000E+00 0.  1.
     999900   -1    0    0    0    0 -0.00000000000E+00 -0.00000000000E+00 -0.74505805969E-08  0.93827000000E+00  0.93827000000E+00 0.  1.
     999902    2    1    2    0    0  0.59875861831E-02 -0.21408536930E-01 -0.80822923102E-02  0.10202762457E+01  0.10200020184E+01 0.  0.
     999903    2    3    3    0    0  0.11521504797E+00 -0.30892897921E-01  0.51589802717E-01  0.13146729527E+00  0.19830873906E-01 0.  0.
         14    1    1    2    0    0 -0.59875861831E-02  0.21408536930E-01  0.80822923102E-02  0.23653754263E-01  0.00000000000E+00 0.  1.
     999901    1    3    3    0    0 -0.10922746179E+00  0.94843609918E-02 -0.59672095027E-01  0.88880895047E+00  0.88000000000E+00 0.  1.
        -11    1    4    4    0    0  0.56512757526E-01 -0.25386494699E-01  0.27019638643E-01  0.67590590097E-01  0.51100000000E-03 0. -1.
         11    1    4    4    0    0  0.58702290442E-01 -0.55064032227E-02  0.24570164074E-01  0.63876705169E-01  0.51100000000E-03 0.  1.
</event>
<event>
 8    1  0.1070112E+005  0.1043930E+01  0.7957747E-01            NaN
         13   -1    0    0    0    0  0.00000000000E+00  0.00000000000E+00  0.74505805969E-08  0.10566000000E+00  0.10566000000E+00 0. -1.
     999900   -1    0    0    0    0 -0.00000000000E+00 -0.00000000000E+00 -0.74505805969E-08  0.93827000000E+00  0.93827000000E+00 0. -1.
     999902    2    1    2    0    0 -0.18167719461E-01  0.12514073519E-01 -0.67969448884E-02  0.10208460981E+01  0.10205850722E+01 0.  0.
     999903    2    3    3    0    0 -0.11796626707E-01  0.12697985158E+00  0.30299955350E-01  0.13263487032E+00  0.20270136187E-01 0.  0.
         14    1    1    2    0    0  0.18167719461E-01 -0.12514073519E-01  0.67969448884E-02  0.23083901886E-01  0.00000000000E+00 0. -1.
     999901    1    3    3    0    0 -0.63710927541E-02 -0.11446577806E+00 -0.37096900238E-01  0.88821122779E+00  0.88000000000E+00 0. -1.
        -11    1    4    4    0    0 -0.17313493351E-01  0.90111193039E-01  0.19367820514E-01  0.93782502395E-01  0.51100000000E-03 0. -1.
         11    1    4    4    0    0  0.55168666434E-02  0.36868658544E-01  0.10932134836E-01  0.38852367926E-01  0.51100000000E-03 0.  1.
</event>
<event>
 8    1  0.1070112E+005  0.1043930E+01  0.7957747E-01            NaN
         13   -1    0    0    0    0  0.00000000000E+00  0.00000000000E+00  0.74505805969E-08  0.10566000000E+00  0.10566000000E+00 0. -1.
     999900   -1    0    0    0    0 -0.00000000000E+00 -0.00000000000E+00 -0.74505805969E-08  0.93827000000E+00  0.93827000000E+00 0.  1.
     999902    2    1    2    0    0  0.50542302520E-02 -0.69252897881E-02  0.20500181110E-01  0.10217092370E+01  0.10214675730E+01 0.  0.
     999903    2    3    3    0    0 -0.11287482877E+00  0.60068357529E-01  0.22408659055E-01  0.13131659664E+00  0.19823370243E-01 0.  0.
         14    1    1    2    0    0 -0.50542302520E-02  0.69252897881E-02 -0.20500181110E-01  0.22220762985E-01  0.00000000000E+00 0.  1.
     999901    1    3    3    0    0  0.11792905902E+00 -0.66993647317E-01 -0.19084779444E-02  0.89039264037E+00  0.88000000000E+00 0.  1.
        -11    1    4    4    0    0 -0.43660897499E-01  0.28447827161E-01  0.17842002796E-01  0.55083128319E-01  0.51100000000E-03 0. -1.
         11    1    4    4    0    0 -0.69213931267E-01  0.31620530368E-01  0.45666562588E-02  0.76233468323E-01  0.51100000000E-03 0.  1.
</event>
<event>
 8    1  0.1070112E+005  0.1043930E+01  0.7957747E-01            NaN
         13   -1    0    0    0    0  0.00000000000E+00  0.00000000000E+00  0.74505805969E-08  0.10566000000E+00  0.10566000000E+00 0. -1.
     999900   -1    0    0    0    0 -0.00000000000E+00 -0.00000000000E+00 -0.74505805969E-08  0.93827000000E+00  0.93827000000E+00 0.  1.
     999902    2    1    2    0    0  0.21513772811E-01  0.10575507773E-01  0.17464026954E-02  0.10198939082E+01  0.10196106366E+01 0.  0.
     999903    2    3    3    0    0  0.48292346188E-01  0.12224679112E+00  0.56235553775E-02  0.13242413419E+00  0.15102923619E-01 0.  0.
         14    1    1    2    0    0 -0.21513772811E-01 -0.10575507773E-01 -0.17464026954E-02  0.24036091770E-01  0.00000000000E+00 0.  1.
     999901    1    3    3    0    0 -0.26778573377E-01 -0.11167128335E+00 -0.38771526822E-02  0.88746977404E+00  0.88000000000E+00 0. -1.
        -11    1    4    4    0    0  0.14024305602E-01  0.27491418331E-01  0.70084025630E-02  0.31651825492E-01  0.51100000000E-03 0.  1.
         11    1    4    4    0    0  0.34268040585E-01  0.94755372790E-01 -0.13848471855E-02  0.10077230870E+00  0.51100000000E-03 0. -1.
</event>
<event>
 8    1  0.1070112E+005  0.1043930E+01  0.7957747E-01            NaN
         13   -1    0    0    0    0  0.00000000000E+00  0.00000000000E+00  0.74505805969E-08  0.10566000000E+00  0.10566000000E+00 0.  1.
     999900   -1    0    0    0    0 -0.00000000000E+00 -0.00000000000E+00 -0.74505805969E-08  0.93827000000E+00  0.93827000000E+00 0.  1.
     999902    2    1    2    0    0  0.24984425468E-01 -0.74787769138E-02 -0.85258800531E-03  0.10178363125E+01  0.10175017831E+01 0.  0.
     999903    2    3    3    0    0  0.54782953744E-01 -0.52053909930E-01  0.10405037064E+00  0.12998524083E+00  0.18944699599E-01 0.  0.
         14    1    1    2    0    0 -0.24984425468E-01  0.74787769138E-02  0.85258800531E-03  0.26093687482E-01  0.00000000000E+00 0. -1.
     999901    1    3    3    0    0 -0.29798528276E-01  0.44575133016E-01 -0.10490295864E+00  0.88785107169E+00  0.88000000000E+00 0.  1.
        -11    1    4    4    0    0  0.49793898631E-01 -0.52424505566E-01  0.10059165455E+00  0.12388181146E+00  0.51100000000E-03 0.  1.
         11    1    4    4    0    0  0.49890551139E-02  0.37059563581E-03  0.34587160896E-02  0.61034293674E-02  0.51100000000E-03 0. -1.
</event>
<event>
 8    1  0.1070112E+005  0.1043930E+01  0.7957747E-01            NaN
         13   -1    0    0    0    0  0.00000000000E+00  0.00000000000E+00  0.74505805969E-08  0.10566000000E+00  0.10566000000E+00 0.  1.
     999900   -1    0    0    0    0 -0.00000000000E+00 -0.00000000000E+00 -0.74505805969E-08  0.93827000000E+00  0.93827000000E+00 0.  1.
     999902    2    1    2    0    0  0.17607786354E-01 -0.15322304451E-01  0.65742063643E-03  0.10205796391E+01  0.10203124817E+01 0.  0.
     999903    2    3    3    0    0 -0.11435202531E+00 -0.27697459627E-01 -0.49614067455E-01  0.12923584519E+00  0.19920166398E-01 0.  0.
         14    1    1    2    0    0 -0.17607786354E-01  0.15322304451E-01 -0.65742063643E-03  0.23350360937E-01  0.00000000000E+00 0. -1.
     999901    1    3    3    0    0  0.13195981167E+00  0.12375155176E-01  0.50271488092E-01  0.89134379387E+00  0.88000000000E+00 0. -1.
        -11    1    4    4    0    0 -0.21378442589E-01 -0.95227003937E-02 -0.17422994619E-01  0.29181183884E-01  0.51100000000E-03 0.  1.
         11    1    4    4    0    0 -0.92973582724E-01 -0.18174759233E-01 -0.32191072836E-01  0.10005466131E+00  0.51100000000E-03 0. -1.
</event>
<event>
 8    1  0.1070112E+005  0.1043930E+01  0.7957747E-01            NaN
         13   -1    0    0    0    0  0.00000000000E+00  0.00000000000E+00  0.74505805969E-08  0.10566000000E+00  0.10566000000E+00 0. -1.
     999900   -1    0    0    0    0 -0.00000000000E+00 -0.00000000000E+00 -0.74505805969E-08  0.93827000000E+00  0.93827000000E+00 0. -1.
     999902    2    1    2    0    0 -0.97172059816E-02 -0.21525485572E-01  0.34538072000E-02  0.10200616233E+01  0.10197823375E+01 0.  0.
     999903    2    3    3    0    0  0.95363649894E-01  0.74044519085E-01 -0.36366416546E-01  0.12778293239E+00  0.20715815959E-01 0.  0.
         14    1    1    2    0    0  0.97172059816E-02  0.21525485572E-01 -0.34538072000E-02  0.23868376681E-01  0.00000000000E+00 0.  1.
     999901    1    3    3    0    0 -0.10508085588E+00 -0.95570004657E-01  0.39820223746E-01  0.89227869093E+00  0.88000000000E+00 0. -1.
        -11    1    4    4    0    0  0.79333284757E-01  0.70306602446E-01 -0.30580412769E-01  0.11032774440E+00  0.51100000000E-03 0.  1.
         11    1    4    4    0    0  0.16030365137E-01  0.37379166391E-02 -0.57860037769E-02  0.17455187995E-01  0.51100000000E-03 0. -1.
</event>
<event>
 8    1  0.1070112E+005  0.1043930E+01  0.7957747E-01            NaN
         13   -1    0    0    0    0  0.00000000000E+00  0.00000000000E+00  0.74505805969E-08  0.10566000000E+00  0.10566000000E+00 0. -1.
     999900   -1    0    0    0    0 -0.00000000000E+00 -0.00000000000E+00 -0.74505805969E-08  0.93827000000E+00  0.93827000000E+00 0. -1.
     999902    2    1    2    0    0 -0.12860163479E-01 -0.17153207438E-01  0.95712958944E-02  0.10204517966E+01  0.10201816716E+01 0.  0.
     999903    2    3    3    0    0  0.71407010035E-01 -0.10430603766E+00 -0.29277828437E-01  0.13129161597E+00  0.20039626020E-01 0.  0.
         14    1    1    2    0    0  0.12860163479E-01  0.17153207438E-01 -0.95712958944E-02  0.23478203407E-01  0.00000000000E+00 0.  1.
     999901    1    3    3    0    0 -0.84267173514E-01  0.87152830222E-01  0.38849124331E-01  0.88916018062E+00  0.88000000000E+00 0. -1.
        -11    1    4    4    0    0  0.48213268208E-01 -0.80787780183E-01 -0.28283438623E-01  0.98241532355E-01  0.51100000000E-03 0.  1.
         11    1    4    4    0    0  0.23193741827E-01 -0.23518257477E-01 -0.99438981341E-03  0.33050083612E-01  0.51100000000E-03 0. -1.
</event>
<event>
 8    1  0.1070112E+005  0.1043930E+01  0.7957747E-01            NaN
         13   -1    0    0    0    0  0.00000000000E+00  0.00000000000E+00  0.74505805969E-08  0.10566000000E+00  0.10566000000E+00 0. -1.
     999900   -1    0    0    0    0 -0.00000000000E+00 -0.00000000000E+00 -0.74505805969E-08  0.93827000000E+00  0.93827000000E+00 0.  1.
     999902    2    1    2    0    0  0.13544484448E-01  0.18332136339E-01 -0.20491623411E-02  0.10210450847E+01  0.10207885901E+01 0.  0.
     999903    2    3    3    0    0 -0.11139514436E-01 -0.10282843352E+00  0.74812823303E-01  0.12908267052E+00  0.19172943805E-01 0.  0.
         14    1    1    2    0    0 -0.13544484448E-01 -0.18332136339E-01  0.20491623411E-02  0.22884915294E-01  0.00000000000E+00 0. -1.
     999901    1    3    3    0    0  0.24683998884E-01  0.12116056986E+00 -0.76861985644E-01  0.89196241419E+00  0.88000000000E+00 0. -1.
        -11    1    4    4    0    0 -0.64221256155E-02 -0.95868751243E-01  0.64315165614E-01  0.11562336620E+00  0.51100000000E-03 0.  1.
         11    1    4    4    0    0 -0.47173888206E-02 -0.69596822809E-02  0.10497657689E-01  0.13459304317E-01  0.51100000000E-03 0. -1.
</event>
<event>
 8    1  0.1070112E+005  0.1043930E+01  0.7957747E-01            NaN
         13   -1    0    0    0    0  0.00000000000E+00  0.00000000000E+00  0.74505805969E-08  0.10566000000E+00  0.10566000000E+00 0.  1.
     999900   -1    0    0    0    0 -0.00000000000E+00 -0.00000000000E+00 -0.74505805969E-08  0.93827000000E+00  0.93827000000E+00 0.  1.
     999902    2    1    2    0    0 -0.13388808317E-01 -0.10158998137E-01  0.16072339737E-01  0.10206752040E+01  0.10204102541E+01 0.  0.
     999903    2    3    3    0    0 -0.46433785435E-02 -0.12863112757E+00  0.24939158894E-01  0.13264888207E+00  0.20155305154E-01 0.  0.
         14    1    1    2    0    0  0.13388808317E-01  0.10158998137E-01 -0.16072339737E-01  0.23254795977E-01  0.00000000000E+00 0. -1.
     999901    1    3    3    0    0 -0.87454297733E-02  0.11847212943E+00 -0.88668191573E-02  0.88802632195E+00  0.88000000000E+00 0. -1.
        -11    1    4    4    0    0 -0.10243262994E-01 -0.94680886511E-01  0.24050444672E-01  0.98224639054E-01  0.51100000000E-03 0.  1.
         11    1    4    4    0    0  0.55998844504E-02 -0.33950241055E-01  0.88871422259E-03  0.34424243020E-01  0.51100000000E-03 0. -1.
</event>
<event>
 8    1  0.1070112E+005  0.1043930E+01  0.7957747E-01            NaN
         13   -1    0    0    0    0  0.00000000000E+00  0.00000000000E+00  0.74505805969E-08  0.10566000000E+00  0.10566000000E+00 0.  1.
     999900   -1    0    0    0    0 -0.00000000000E+00 -0.00000000000E+00 -0.74505805969E-08  0.93827000000E+00  0.93827000000E+00 0.  1.
     999902    2    1    2    0    0  0.12157977867E-01  0.18953338931E-01 -0.87128670334E-02  0.10197854450E+01  0.10194995804E+01 0.  0.
     999903    2    3    3    0    0  0.73453091079E-01 -0.10153239519E+00  0.22028309629E-01  0.12893252621E+00  0.20836651101E-01 0.  0.
         14    1    1    2    0    0 -0.12157977867E-01 -0.18953338931E-01  0.87128670334E-02  0.24144554964E-01  0.00000000000E+00 0.  1.
     999901    1    3    3    0    0 -0.61295113212E-01  0.12048573412E+00 -0.30741176662E-01  0.89085291882E+00  0.88000000000E+00 0.  1.
        -11    1    4    4    0    0  0.69047345875E-01 -0.82963090855E-01  0.18236990446E-01  0.10946807461E+00  0.51100000000E-03 0.  1.
         11    1    4    4    0    0  0.44057452043E-02 -0.18569304334E-01  0.37913191820E-02  0.19464451608E-01  0.51100000000E-03 0. -1.
</event>
<event>
 8    1  0.1070112E+005  0.1043930E+01  0.7957747E-01            NaN
         13   -1    0    0    0    0  0.00000000000E+00  0.00000000000E+00  0.74505805969E-08  0.10566000000E+00  0.10566000000E+00 0.  1.
     999900   -1    0    0    0    0 -0.00000000000E+00 -0.00000000000E+00 -0.74505805969E-08  0.93827000000E+00  0.93827000000E+00 0. -1.
     999902    2    1    2    0    0  0.15299462103E-01 -0.90852357217E-02  0.17030795698E-01  0.10192994691E+01  0.10190018374E+01 0.  0.
     999903    2    3    3    0    0  0.36875489391E-01  0.53457518614E-01  0.11263077584E+00  0.13165287432E+00  0.20719064574E-01 0.  0.
         14    1    1    2    0    0 -0.15299462103E-01  0.90852357217E-02 -0.17030795698E-01  0.24630530869E-01  0.00000000000E+00 0. -1.
     999901    1    3    3    0    0 -0.21576027288E-01 -0.62542754336E-01 -0.95599980142E-01  0.88764659481E+00  0.88000000000E+00 0. -1.
        -11    1    4    4    0    0  0.26383930728E-02  0.16070673381E-01  0.17872712643E-01  0.24185173953E-01  0.51100000000E-03 0. -1.
         11    1    4    4    0    0  0.34237096318E-01  0.37386845233E-01  0.94758063197E-01  0.10746770037E+00  0.51100000000E-03 0.  1.
</event>
<event>
 8    1  0.1070112E+005  0.1043930E+01  0.7957747E-01            NaN
         13   -1    0    0    0    0  0.00000000000E+00  0.00000000000E+00  0.74505805969E-08  0.10566000000E+00  0.10566000000E+00 0. -1.
     999900   -1    0    0    0    0 -0.00000000000E+00 -0.00000000000E+00 -0.74505805969E-08  0.93827000000E+00  0.93827000000E+00 0. -1.
     999902    2    1    2    0    0 -0.68525046030E-02  0.46450037178E-02  0.21226261025E-01  0.10211465184E+01  0.10208923180E+01 0.  0.
     999903    2    3    3    0    0  0.15901172842E-01  0.11021930312E+00  0.70142702186E-01  0.13319579858E+00  0.20493413848E-01 0.  0.
         14    1    1    2    0    0  0.68525046030E-02 -0.46450037178E-02 -0.21226261025E-01  0.22783481647E-01  0.00000000000E+00 0.  1.
     999901    1    3    3    0    0 -0.22753677445E-01 -0.10557429940E+00 -0.48916441161E-01  0.88795071977E+00  0.88000000000E+00 0. -1.
        -11    1    4    4    0    0  0.88505311823E-02  0.12890521708E-01  0.98237487930E-02  0.18473348734E-01  0.51100000000E-03 0.  1.
         11    1    4    4    0    0  0.70506416600E-02  0.97328781411E-01  0.60318953393E-01  0.11472244984E+00  0.51100000000E-03 0. -1.
</event>
<event>
 8    1  0.1070112E+005  0.1043930E+01  0.7957747E-01            NaN
         13   -1    0    0    0    0  0.00000000000E+00  0.00000000000E+00  0.74505805969E-08  0.10566000000E+00  0.10566000000E+00 0.  1.
     999900   -1    0    0    0    0 -0.00000000000E+00 -0.00000000000E+00 -0.74505805969E-08  0.93827000000E+00  0.93827000000E+00 0.  1.
     999902    2    1    2    0    0  0.12725372373E-01 -0.15048155179E-02 -0.19367867930E-01  0.10207068676E+01  0.10204426469E+01 0.  0.
     999903    2    3    3    0    0  0.86272225563E-01 -0.62873066100E-01 -0.77633782492E-01  0.13359350469E+00  0.20598567123E-01 0.  0.
         14    1    1    2    0    0 -0.12725372373E-01  0.15048155179E-02  0.19367867930E-01  0.23223132431E-01  0.00000000000E+00 0.  1.
     999901    1    3    3    0    0 -0.73546853190E-01  0.61368250583E-01  0.58265914562E-01  0.88711336288E+00  0.88000000000E+00 0. -1.
        -11    1    4    4    0    0  0.28994179518E-01 -0.15861120363E-01 -0.13913291341E-01  0.35861935002E-01  0.51100000000E-03 0. -1.
         11    1    4    4    0    0  0.57278046045E-01 -0.47011945737E-01 -0.63720491151E-01  0.97731569691E-01  0.51100000000E-03 0.  1.
</event>
<event>
 8    1  0.1070112E+005  0.1043930E+01  0.7957747E-01            NaN
         13   -1    0    0    0    0  0.00000000000E+00  0.00000000000E+00  0.74505805969E-08  0.10566000000E+00  0.10566000000E+00 0. -1.
     999900   -1    0    0    0    0 -0.00000000000E+00 -0.00000000000E+00 -0.74505805969E-08  0.93827000000E+00  0.93827000000E+00 0.  1.
     999902    2    1    2    0    0  0.25554954122E-01 -0.12229556616E-02 -0.26934257441E-02  0.10182044127E+01  0.10178793741E+01 0.  0.
     999903    2    3    3    0    0  0.98268127799E-01  0.83594577192E-02  0.84093319720E-01  0.13089895938E+00  0.18339729276E-01 0.  0.
         14    1    1    2    0    0 -0.25554954122E-01  0.12229556616E-02  0.26934257441E-02  0.25725587321E-01  0.00000000000E+00 0. -1.
     999901    1    3    3    0    0 -0.72713173677E-01 -0.95824133808E-02 -0.86786745464E-01  0.88730545330E+00  0.88000000000E+00 0.  1.
        -11    1    4    4    0    0  0.79573388688E-02 -0.43700805743E-02  0.69615492522E-02  0.11451686998E-01  0.51100000000E-03 0. -1.
         11    1    4    4    0    0  0.90310788931E-01  0.12729538294E-01  0.77131770467E-01  0.11944727238E+00  0.51100000000E-03 0.  1.
</event>
<event>
 8    1  0.1070112E+005  0.1043930E+01  0.7957747E-01            NaN
         13   -1    0    0    0    0  0.00000000000E+00  0.00000000000E+00  0.74505805969E-08  0.10566000000E+00  0.10566000000E+00 0.  1.
     999900   -1    0    0    0    0 -0.00000000000E+00 -0.00000000000E+00 -0.74505805969E-08  0.93827000000E+00  0.93827000000E+00 0.  1.
     999902    2    1    2    0    0 -0.35957997487E-02 -0.65074179529E-02  0.22337705205E-01  0.10203874993E+01  0.10201158755E+01 0.  0.
     999903    2    3    3    0    0  0.71921260082E-01  0.10304782897E+00 -0.13541662738E-01  0.12966166749E+00  0.28935249749E-01 0.  0.
         14    1    1    2    0    0  0.35957997487E-02  0.65074179529E-02 -0.22337705205E-01  0.23542500676E-01  0.00000000000E+00 0. -1.
     999901    1    3    3    0    0 -0.75517059831E-01 -0.10955524693E+00  0.35879367943E-01  0.89072583184E+00  0.88000000000E+00 0. -1.
        -11    1    4    4    0    0  0.45873441455E-01  0.77873157591E-01  0.16004700508E-02  0.90395928722E-01  0.51100000000E-03 0.  1.
         11    1    4    4    0    0  0.26047818627E-01  0.25174671384E-01 -0.15142132789E-01  0.39265738767E-01  0.51100000000E-03 0. -1.
</event>
<event>
 8    1  0.1070112E+005  0.1043930E+01  0.7957747E-01            NaN
         13   -1    0    0    0    0  0.00000000000E+00  0.00000000000E+00  0.74505805969E-08  0.10566000000E+00  0.10566000000E+00 0.  1.
     999900   -1    0    0    0    0 -0.00000000000E+00 -0.00000000000E+00 -0.74505805969E-08  0.93827000000E+00  0.93827000000E+00 0. -1.
     999902    2    1    2    0    0 -0.74855406913E-02  0.17663283636E-01 -0.14414912584E-01  0.10199338625E+01  0.10196515431E+01 0.  0.
     999903    2    3    3    0    0 -0.87752115209E-01 -0.76356015286E-01  0.48342314525E-01  0.12907987837E+00  0.28177310595E-01 0.  0.
         14    1    1    2    0    0  0.74855406913E-02 -0.17663283636E-01  0.14414912584E-01  0.23996137462E-01  0.00000000000E+00 0.  1.
     999901    1    3    3    0    0  0.80266574517E-01  0.94019298922E-01 -0.62757227110E-01  0.89085398417E+00  0.88000000000E+00 0. -1.
        -11    1    4    4    0    0 -0.46063403564E-01 -0.58091062792E-01  0.28575277834E-01  0.79455750884E-01  0.51100000000E-03 0.  1.
         11    1    4    4    0    0 -0.41688711645E-01 -0.18264952494E-01  0.19767036691E-01  0.49624127486E-01  0.51100000000E-03 0. -1.
</event>
<event>
 8    1  0.1070112E+005  0.1043930E+01  0.7957747E-01            NaN
         13   -1    0    0    0    0  0.00000000000E+00  0.00000000000E+00  0.74505805969E-08  0.10566000000E+00  0.10566000000E+00 0.  1.
     999900   -1    0    0    0    0 -0.00000000000E+00 -0.00000000000E+00 -0.74505805969E-08  0.93827000000E+00  0.93827000000E+00 0.  1.
     999902    2    1    2    0    0 -0.49382894788E-03  0.33997229487E-02  0.22873489507E-01  0.10207999653E+01  0.10205378830E+01 0.  0.
     999903    2    3    3    0    0  0.42043918133E-01  0.11651985275E+00  0.41985798547E-01  0.13233448817E+00  0.20125663755E-01 0.  0.
         14    1    1    2    0    0  0.49382894788E-03 -0.33997229487E-02 -0.22873489507E-01  0.23130034704E-01  0.00000000000E+00 0. -1.
     999901    1    3    3    0    0 -0.42537747081E-01 -0.11312012980E+00 -0.19112309040E-01  0.88846547713E+00  0.88000000000E+00 0.  1.
        -11    1    4    4    0    0  0.24088326527E-01  0.60805379194E-01  0.11762522025E-01  0.66454192187E-01  0.51100000000E-03 0. -1.
         11    1    4    4    0    0  0.17955591605E-01  0.55714473558E-01  0.30223276522E-01  0.65880295981E-01  0.51100000000E-03 0.  1.
</event>
<event>
 8    1  0.1070112E+005  0.1043930E+01  0.7957747E-01            NaN
         13   -1    0    0    0    0  0.00000000000E+00  0.00000000000E+00  0.74505805969E-08  0.10566000000E+00  0.10566000000E+00 0.  1.
     999900   -1    0    0    0    0 -0.00000000000E+00 -0.00000000000E+00 -0.74505805969E-08  0.93827000000E+00  0.93827000000E+00 0.  1.
     999902    2    1    2    0    0  0.11346681513E-01  0.78876851487E-02  0.18188830987E-01  0.10210871383E+01  0.10208315961E+01 0.  0.
     999903    2    3    3    0    0 -0.64412463254E-01  0.92378586800E-01 -0.62229970935E-01  0.13016326714E+00  0.19675825504E-01 0.  0.
         14    1    1    2    0    0 -0.11346681513E-01 -0.78876851487E-02 -0.18188830987E-01  0.22842861709E-01  0.00000000000E+00 0. -1.
     999901    1    3    3    0    0  0.75759144767E-01 -0.84490901651E-01  0.80418801923E-01  0.89092387115E+00  0.88000000000E+00 0. -1.
        -11    1    4    4    0    0 -0.30408933569E-01  0.31851337135E-01 -0.16498927897E-01  0.47028572813E-01  0.51100000000E-03 0. -1.
         11    1    4    4    0    0 -0.34003529685E-01  0.60527249665E-01 -0.45731043039E-01  0.83134694330E-01  0.51100000000E-03 0.  1.
</event>
<event>
 8    1  0.1070112E+005  0.1043930E+01  0.7957747E-01            NaN
         13   -1    0    0    0    0  0.00000000000E+00  0.00000000000E+00  0.74505805969E-08  0.10566000000E+00  0.10566000000E+00 0.  1.
     999900   -1    0    0    0    0 -0.00000000000E+00 -0.00000000000E+00 -0.74505805969E-08  0.93827000000E+00  0.93827000000E+00 0.  1.
     999902    2    1    2    0    0 -0.18922001276E-01  0.11747005762E-01 -0.85192489408E-02  0.10200844159E+01  0.10198056696E+01 0.  0.
     999903    2    3    3    0    0 -0.10787603959E+00 -0.27679580692E-01 -0.69634769808E-01  0.13261476376E+00  0.18283197076E-01 0.  0.
         14    1    1    2    0    0  0.18922001276E-01 -0.11747005762E-01  0.85192489408E-02  0.23845584060E-01  0.00000000000E+00 0.  1.
     999901    1    3    3    0    0  0.88954038315E-01  0.39426586454E-01  0.61115520868E-01  0.88746965218E+00  0.88000000000E+00 0. -1.
        -11    1    4    4    0    0 -0.37597193690E-01 -0.81588888206E-03 -0.22300559983E-01  0.43724029372E-01  0.51100000000E-03 0.  1.
         11    1    4    4    0    0 -0.70278845902E-01 -0.26863691810E-01 -0.47334209826E-01  0.88890734386E-01  0.51100000000E-03 0. -1.
</event>
<event>
 8    1  0.1070112E+005  0.1043930E+01  0.7957747E-01            NaN
         13   -1    0    0    0    0  0.00000000000E+00  0.00000000000E+00  0.74505805969E-08  0.10566000000E+00  0.10566000000E+00 0.  1.
     999900   -1    0    0    0    0 -0.00000000000E+00 -0.00000000000E+00 -0.74505805969E-08  0.93827000000E+00  0.93827000000E+00 0.  1.
     999902    2    1    2    0    0  0.50130406679E-02 -0.13484791360E-01 -0.18893915959E-01  0.10201823636E+01  0.10199059294E+01 0.  0.
     999903    2    3    3    0    0  0.19494461723E-01  0.10810735670E+00  0.62518691732E-01  0.12798150352E+00  0.20085910880E-01 0.  0.
         14    1    1    2    0    0 -0.50130406679E-02  0.13484791360E-01  0.18893915959E-01  0.23747636410E-01  0.00000000000E+00 0.  1.
     999901    1    3    3    0    0 -0.14481421055E-01 -0.12159214806E+00 -0.81412607692E-01  0.89220086007E+00  0.88000000000E+00 0.  1.
        -11    1    4    4    0    0  0.17177393926E-01  0.52367294846E-01  0.23586071598E-01  0.59949648256E-01  0.51100000000E-03 0.  1.
         11    1    4    4    0    0  0.23170677964E-02  0.55740061854E-01  0.38932620134E-01  0.68031855260E-01  0.51100000000E-03 0. -1.
</event>
<event>
 7    1  0.1070112E+005  0.1043930E+01  0.7957747E-01            NaN
         13   -1    0    0    0    0  0.00000000000E+00  0.00000000000E+00  0.74505805969E-08  0.10566000000E+00  0.10566000000E+00 0.  1.
     999900   -1    0    0    0    0 -0.00000000000E+00 -0.00000000000E+00 -0.74505805969E-08  0.93827000000E+00  0.93827000000E+00 0.  1.
     999903    2    1    2    0    0  0.10026665380E+00  0.15218530319E-01 -0.34080251873E-01  0.10881385987E+00  0.19849105826E-01 0.  0.
         14    1    1    2    0    0  0.31183852822E-01 -0.28833294888E-01  0.15005637675E-01  0.45043986646E-01  0.00000000000E+00 0.  1.
     999901    1    1    2    0    0 -0.13145050662E+00  0.13614764569E-01  0.19074614198E-01  0.89007215349E+00  0.88000000000E+00 0.  1.
        -11    1    3    3    0    0  0.38491658279E-01 -0.50082238921E-03 -0.52602950883E-02  0.38856021483E-01  0.51100000000E-03 0.  1.
         11    1    3    3    0    0  0.61774995522E-01  0.15719352708E-01 -0.28819956785E-01  0.69957838384E-01  0.51100000000E-03 0. -1.
</event>
<event>
 8    1  0.1070112E+005  0.1043930E+01  0.7957747E-01            NaN
         13   -1    0    0    0    0  0.00000000000E+00  0.00000000000E+00  0.74505805969E-08  0.10566000000E+00  0.10566000000E+00 0. -1.
     999900   -1    0    0    0    0 -0.00000000000E+00 -0.00000000000E+00 -0.74505805969E-08  0.93827000000E+00  0.93827000000E+00 0.  1.
     999902    2    1    2    0    0 -0.13247264789E-01 -0.18422243950E-01 -0.44177444128E-02  0.10208132190E+01  0.10205514404E+01 0.  0.
     999903    2    3    3    0    0 -0.97827694517E-01 -0.74365612570E-01 -0.49176787198E-01  0.13385951027E+00  0.19987744800E-01 0.  0.
         14    1    1    2    0    0  0.13247264789E-01  0.18422243950E-01  0.44177444128E-02  0.23116780966E-01  0.00000000000E+00 0.  1.
     999901    1    3    3    0    0  0.84580429728E-01  0.55943368620E-01  0.44759042785E-01  0.88695370877E+00  0.88000000000E+00 0. -1.
        -11    1    4    4    0    0 -0.44060796070E-01 -0.46017890419E-01 -0.25581371376E-01  0.68656155379E-01  0.51100000000E-03 0.  1.
         11    1    4    4    0    0 -0.53766898447E-01 -0.28347722152E-01 -0.23595415822E-01  0.65203354888E-01  0.51100000000E-03 0. -1.
</event>
<event>
 8    1  0.1070112E+005  0.1043930E+01  0.7957747E-01            NaN
         13   -1    0    0    0    0  0.00000000000E+00  0.00000000000E+00  0.74505805969E-08  0.10566000000E+00  0.10566000000E+00 0. -1.
     999900   -1    0    0    0    0 -0.00000000000E+00 -0.00000000000E+00 -0.74505805969E-08  0.93827000000E+00  0.93827000000E+00 0.  1.
     999902    2    1    2    0    0 -0.51765861169E-02  0.22124147697E-01  0.41097070230E-02  0.10208396417E+01  0.10205784680E+01 0.  0.
     999903    2    3    3    0    0 -0.12166087269E+00 -0.99633467773E-02 -0.41022058303E-01  0.13143811675E+00  0.26316022605E-01 0.  0.
         14    1    1    2    0    0  0.51765861169E-02 -0.22124147697E-01 -0.41097070230E-02  0.23090358311E-01  0.00000000000E+00 0.  1.
     999901    1    3    3    0    0  0.11648428657E+00  0.32087494474E-01  0.45131765326E-01  0.88940152494E+00  0.88000000000E+00 0. -1.
        -11    1    4    4    0    0 -0.50251937216E-01 -0.16604062184E-01 -0.21347817024E-01  0.57069628417E-01  0.51100000000E-03 0. -1.
         11    1    4    4    0    0 -0.71408935471E-01  0.66407154066E-02 -0.19674241279E-01  0.74368488335E-01  0.51100000000E-03 0.  1.
</event>
<event>
 8    1  0.1070112E+005  0.1043930E+01  0.7957747E-01            NaN
         13   -1    0    0    0    0  0.00000000000E+00  0.00000000000E+00  0.74505805969E-08  0.10566000000E+00  0.10566000000E+00 0.  1.
     999900   -1    0    0    0    0 -0.00000000000E+00 -0.00000000000E+00 -0.74505805969E-08  0.93827000000E+00  0.93827000000E+00 0. -1.
     999902    2    1    2    0    0  0.13395951039E-01  0.15687772703E-01 -0.10897653956E-01  0.10205994068E+01  0.10203327068E+01 0.  0.
     999903    2    3    3    0    0 -0.20484260540E-01 -0.11942465808E-01 -0.12851640254E+00  0.13169813624E+00  0.16300489123E-01 0.  0.
         14    1    1    2    0    0 -0.13395951039E-01 -0.15687772703E-01  0.10897653956E-01  0.23330593185E-01  0.00000000000E+00 0. -1.
     999901    1    3    3    0    0  0.33880211579E-01  0.27630238511E-01  0.11761874859E+00  0.88890127058E+00  0.88000000000E+00 0.  1.
        -11    1    4    4    0    0 -0.66615273921E-02 -0.11958277460E-01 -0.44822434584E-01  0.46868839435E-01  0.51100000000E-03 0.  1.
         11    1    4    4    0    0 -0.13822733148E-01  0.15811651909E-04 -0.83693967961E-01  0.84829296800E-01  0.51100000000E-03 0. -1.
</event>
<event>
 8    1  0.1070112E+005  0.1043930E+01  0.7957747E-01            NaN
         13   -1    0    0    0    0  0.00000000000E+00  0.00000000000E+00  0.74505805969E-08  0.10566000000E+00  0.10566000000E+00 0.  1.
     999900   -1    0    0    0    0 -0.00000000000E+00 -0.00000000000E+00 -0.74505805969E-08  0.93827000000E+00  0.93827000000E+00 0.  1.
     999902    2    1    2    0    0 -0.93659247285E-02 -0.65554802557E-02 -0.21172285638E-01  0.10198684010E+01  0.10195845207E+01 0.  0.
     999903    2    3    3    0    0  0.81398611829E-01 -0.96034664687E-01 -0.28718184384E-01  0.13065432884E+00  0.19935613863E-01 0.  0.
         14    1    1    2    0    0  0.93659247285E-02  0.65554802557E-02  0.21172285638E-01  0.24061599002E-01  0.00000000000E+00 0.  1.
     999901    1    3    3    0    0 -0.90764536557E-01  0.89479184431E-01  0.75458987459E-02  0.88921407216E+00  0.88000000000E+00 0.  1.
        -11    1    4    4    0    0  0.75178355852E-01 -0.85329770692E-01 -0.31392582091E-01  0.11797758383E+00  0.51100000000E-03 0.  1.
         11    1    4    4    0    0  0.62202559766E-02 -0.10704893996E-01  0.26743977068E-02  0.12676745007E-01  0.51100000000E-03 0. -1.
</event>
<event>
 8    1  0.1070112E+005  0.1043930E+01  0.7957747E-01            NaN
         13   -1    0    0    0    0  0.00000000000E+00  0.00000000000E+00  0.74505805969E-08  0.10566000000E+00  0.10566000000E+00 0. -1.
     999900   -1    0    0    0    0 -0.00000000000E+00 -0.00000000000E+00 -0.74505805969E-08  0.93827000000E+00  0.93827000000E+00 0. -1.
     999902    2    1    2    0    0 -0.19980978813E-01  0.10514251600E-01  0.95303735813E-02  0.10194225109E+01  0.10191278814E+01 0.  0.
     999903    2    3    3    0    0  0.11566044805E+00  0.48327893305E-01 -0.15227523173E-01  0.12788371667E+00  0.20234698229E-01 0.  0.
         14    1    1    2    0    0  0.19980978813E-01 -0.10514251600E-01 -0.95303735813E-02  0.24507489093E-01  0.00000000000E+00 0.  1.
     999901    1    3    3    0    0 -0.13564142686E+00 -0.37813641705E-01  0.24757896754E-01  0.89153879424E+00  0.88000000000E+00 0. -1.
        -11    1    4    4    0    0  0.68806812500E-01  0.27679627064E-01  0.98562228847E-03  0.74173929201E-01  0.51100000000E-03 0. -1.
         11    1    4    4    0    0  0.46853635550E-01  0.20648266241E-01 -0.16213145461E-01  0.53709787467E-01  0.51100000000E-03 0.  1.
</event>
<event>
 8    1  0.1070112E+005  0.1043930E+01  0.7957747E-01            NaN
         13   -1    0    0    0    0  0.00000000000E+00  0.00000000000E+00  0.74505805969E-08  0.10566000000E+00  0.10566000000E+00 0. -1.
     999900   -1    0    0    0    0 -0.00000000000E+00 -0.00000000000E+00 -0.74505805969E-08  0.93827000000E+00  0.93827000000E+00 0.  1.
     999902    2    1    2    0    0  0.73239094586E-02  0.68793672062E-02  0.21403373970E-01  0.10202853439E+01  0.10200113300E+01 0.  0.
     999903    2    3    3    0    0  0.12211597261E+00 -0.38380919573E-01  0.24361043046E-01  0.13167155881E+00  0.18934973605E-01 0.  0.
         14    1    1    2    0    0 -0.73239094586E-02 -0.68793672062E-02 -0.21403373970E-01  0.23644656060E-01  0.00000000000E+00 0.  1.
     999901    1    3    3    0    0 -0.11479206316E+00  0.45260286779E-01 -0.29576690761E-02  0.88861378513E+00  0.88000000000E+00 0. -1.
        -11    1    4    4    0    0  0.58260588500E-01 -0.11112791715E-01  0.46647474963E-02  0.59496313350E-01  0.51100000000E-03 0.  1.
         11    1    4    4    0    0  0.63855384115E-01 -0.27268127859E-01  0.19696295549E-01  0.72175245456E-01  0.51100000000E-03 0. -1.
</event>
<event>
 8    1  0.1070112E+005  0.1043930E+01  0.7957747E-01            NaN
         13   -1    0    0    0    0  0.00000000000E+00  0.00000000000E+00  0.74505805969E-08  0.10566000000E+00  0.10566000000E+00 0. -1.
     999900   -1    0    0    0    0 -0.00000000000E+00 -0.00000000000E+00 -0.74505805969E-08  0.93827000000E+00  0.93827000000E+00 0.  1.
     999902    2    1    2    0    0 -0.16109810583E-01  0.20895502672E-01  0.46709014414E-02  0.10171351246E+01  0.10167821282E+01 0.  0.
     999903    2    3    3    0    0  0.43255324817E-01  0.33973543569E-01  0.11438115763E+00  0.12824165808E+00  0.18375224094E-01 0.  0.
         14    1    1    2    0    0  0.16109810583E-01 -0.20895502672E-01 -0.46709014414E-02  0.26794875428E-01  0.00000000000E+00 0.  1.
     999901    1    3    3    0    0 -0.59365135400E-01 -0.13078040897E-01 -0.10971025618E+00  0.88889346649E+00  0.88000000000E+00 0.  1.
        -11    1    4    4    0    0  0.13838506839E-01  0.15859766615E-01  0.26726877812E-01  0.34023867905E-01  0.51100000000E-03 0. -1.
         11    1    4    4    0    0  0.29416817978E-01  0.18113776954E-01  0.87654279813E-01  0.94217790178E-01  0.51100000000E-03 0.  1.
</event>
<event>
 8    1  0.1070112E+005  0.1043930E+01  0.7957747E-01            NaN
         13   -1    0    0    0    0  0.00000000000E+00  0.00000000000E+00  0.74505805969E-08  0.10566000000E+00  0.10566000000E+00 0. -1.
     999900   -1    0    0    0    0 -0.00000000000E+00 -0.00000000000E+00 -0.74505805969E-08  0.93827000000E+00  0.93827000000E+00 0.  1.
     999902    2    1    2    0    0 -0.84753622526E-03 -0.16888057243E-01 -0.13779479271E-01  0.10221171862E+01  0.10218844081E+01 0.  0.
     999903    2    3    3    0    0 -0.67350050751E-01  0.63366916588E-01 -0.92659430689E-01  0.13246248244E+00  0.20227300957E-01 0.  0.
         14    1    1    2    0    0  0.84753622526E-03  0.16888057243E-01  0.13779479271E-01  0.21812813759E-01  0.00000000000E+00 0. -1.
     999901    1    3    3    0    0  0.66502514525E-01 -0.80254973831E-01  0.78879951418E-01  0.88965470380E+00  0.88000000000E+00 0. -1.
        -11    1    4    4    0    0 -0.23501436506E-01  0.35715075878E-01 -0.39512486327E-01  0.58218397947E-01  0.51100000000E-03 0.  1.
         11    1    4    4    0    0 -0.43848614245E-01  0.27651840710E-01 -0.53146944362E-01  0.74244084491E-01  0.51100000000E-03 0. -1.
</event>
<event>
 8    1  0.1070112E+005  0.1043930E+01  0.7957747E-01            NaN
         13   -1    0    0    0    0  0.00000000000E+00  0.00000000000E+00  0.74505805969E-08  0.10566000000E+00  0.10566000000E+00 0. -1.
     999900   -1    0    0    0    0 -0.00000000000E+00 -0.00000000000E+00 -0.74505805969E-08  0.93827000000E+00  0.93827000000E+00 0.  1.
     999902    2    1    2    0    0 -0.11590092843E-01 -0.20034390115E-01  0.73749344309E-02  0.10196380940E+01  0.10193486872E+01 0.  0.
     999903    2    3    3    0    0  0.77497350599E-01 -0.57658114799E-01  0.85883555222E-01  0.13086606430E+00  0.20485218447E-01 0.  0.
         14    1    1    2    0    0  0.11590092843E-01  0.20034390115E-01 -0.73749344309E-02  0.24291906003E-01  0.00000000000E+00 0. -1.
     999901    1    3    3    0    0 -0.89087443443E-01  0.37623724684E-01 -0.78508620791E-01  0.88877202970E+00  0.88000000000E+00 0.  1.
        -11    1    4    4    0    0  0.60089779447E-01 -0.54297233700E-01  0.69532317456E-01  0.10674256636E+00  0.51100000000E-03 0.  1.
         11    1    4    4    0    0  0.17407571152E-01 -0.33608810991E-02  0.16351237766E-01  0.24123497936E-01  0.51100000000E-03 0. -1.
</event>
<event>
 8    1  0.1070112E+005  0.1043930E+01  0.7957747E-01            NaN
         13   -1    0    0    0    0  0.00000000000E+00  0.00000000000E+00  0.74505805969E-08  0.10566000000E+00  0.10566000000E+00 0.  1.
     999900   -1    0    0    0    0 -0.00000000000E+00 -0.00000000000E+00 -0.74505805969E-08  0.93827000000E+00  0.93827000000E+00 0.  1.
     999902    2    1    2    0    0 -0.63493023412E-02 -0.14603616529E-01  0.18811746930E-01  0.10192832745E+01  0.10189852465E+01 0.  0.
     999903    2    3    3    0    0 -0.10697375908E+00 -0.63673327897E-01 -0.33695679584E-01  0.13063815538E+00  0.20814682383E-01 0.  0.
         14    1    1    2    0    0  0.63493023412E-02  0.14603616529E-01 -0.18811746930E-01  0.24646725513E-01  0.00000000000E+00 0. -1.
     999901    1    3    3    0    0  0.10062445674E+00  0.49069711368E-01  0.52507426514E-01  0.88864511910E+00  0.88000000000E+00 0. -1.
        -11    1    4    4    0    0 -0.45181502338E-01 -0.33559220749E-01 -0.24114774141E-01  0.61232123135E-01  0.51100000000E-03 0.  1.
         11    1    4    4    0    0 -0.61792256740E-01 -0.30114107149E-01 -0.95809054422E-02  0.69406032248E-01  0.51100000000E-03 0. -1.
</event>
<event>
 8    1  0.1070112E+005  0.1043930E+01  0.7957747E-01            NaN
         13   -1    0    0    0    0  0.00000000000E+00  0.00000000000E+00  0.74505805969E-08  0.10566000000E+00  0.10566000000E+00 0.  1.
     999900   -1    0    0    0    0 -0.00000000000E+00 -0.00000000000E+00 -0.74505805969E-08  0.93827000000E+00  0.93827000000E+00 0. -1.
     999902    2    1    2    0    0  0.36780162102E-02 -0.12903850008E-01  0.21411500056E-01  0.10186616506E+01  0.10183482061E+01 0.  0.
     999903    2    3    3    0    0  0.58790393434E-02 -0.12926731032E+00  0.30006210905E-02  0.13080791269E+00  0.18897239910E-01 0.  0.
         14    1    1    2    0    0 -0.36780162102E-02  0.12903850008E-01 -0.21411500056E-01  0.25268349430E-01  0.00000000000E+00 0. -1.
     999901    1    3    3    0    0 -0.22010231331E-02  0.11636346031E+00  0.18410878965E-01  0.88785373788E+00  0.88000000000E+00 0.  1.
        -11    1    4    4    0    0  0.99987189658E-02 -0.74141608676E-01  0.82960104470E-02  0.75273085684E-01  0.51100000000E-03 0. -1.
         11    1    4    4    0    0 -0.41196796224E-02 -0.55125701640E-01 -0.52953893565E-02  0.55534827009E-01  0.51100000000E-03 0.  1.
</event>
<event>
 8    1  0.1070112E+005  0.1043930E+01  0.7957747E-01            NaN
         13   -1    0    0    0    0  0.00000000000E+00  0.00000000000E+00  0.74505805969E-08  0.10566000000E+00  0.10566000000E+00 0.  1.
     999900   -1    0    0    0    0 -0.00000000000E+00 -0.00000000000E+00 -0.74505805969E-08  0.93827000000E+00  0.93827000000E+00 0. -1.
     999902    2    1    2    0    0  0.80379058009E-02  0.20309957830E-01 -0.82819957941E-02  0.10205699107E+01  0.10203025281E+01 0.  0.
     999903    2    3    3    0    0  0.72796977323E-01  0.15693279578E-01 -0.10789555113E+00  0.13257333896E+00  0.19711958758E-01 0.  0.
         14    1    1    2    0    0 -0.80379058009E-02 -0.20309957830E-01  0.82819957941E-02  0.23360089278E-01  0.00000000000E+00 0.  1.
     999901    1    3    3    0    0 -0.64759071522E-01  0.46166782518E-02  0.99613555331E-01  0.88799657177E+00  0.88000000000E+00 0.  1.
        -11    1    4    4    0    0  0.43484845305E-02  0.43296492803E-02 -0.17932367531E-01  0.18960118851E-01  0.51100000000E-03 0.  1.
         11    1    4    4    0    0  0.68448492792E-01  0.11363630298E-01 -0.89963183595E-01  0.11361322010E+00  0.51100000000E-03 0. -1.
</event>
<event>
 8    1  0.1070112E+005  0.1043930E+01  0.7957747E-01            NaN
         13   -1    0    0    0    0  0.00000000000E+00  0.00000000000E+00  0.74505805969E-08  0.10566000000E+00  0.10566000000E+00 0. -1.
     999900   -1    0    0    0    0 -0.00000000000E+00 -0.00000000000E+00 -0.74505805969E-08  0.93827000000E+00  0.93827000000E+00 0.  1.
     999902    2    1    2    0    0 -0.18861580196E-01  0.86717222246E-02 -0.11547440086E-01  0.10201749722E+01  0.10198983638E+01 0.  0.
     999903    2    3    3    0    0  0.95481299363E-01  0.81488902941E-01  0.23614723125E-01  0.12910089354E+00  0.18768743545E-01 0.  0.
         14    1    1    2    0    0  0.18861580196E-01 -0.86717222246E-02  0.11547440086E-01  0.23755027813E-01  0.00000000000E+00 0.  1.
     999901    1    3    3    0    0 -0.11434287956E+00 -0.72817180716E-01 -0.35162163211E-01  0.89107407865E+00  0.88000000000E+00 0. -1.
        -11    1    4    4    0    0  0.29184032306E-01  0.29619360850E-01 -0.31968533413E-03  0.41585786015E-01  0.51100000000E-03 0.  1.
         11    1    4    4    0    0  0.66297267057E-01  0.51869542091E-01  0.23934408460E-01  0.87515107526E-01  0.51100000000E-03 0. -1.
</event>
<event>
 8    1  0.1070112E+005  0.1043930E+01  0.7957747E-01            NaN
         13   -1    0    0    0    0  0.00000000000E+00  0.00000000000E+00  0.74505805969E-08  0.10566000000E+00  0.10566000000E+00 0.  1.
     999900   -1    0    0    0    0 -0.00000000000E+00 -0.00000000000E+00 -0.74505805969E-08  0.93827000000E+00  0.93827000000E+00 0. -1.
     999902    2    1    2    0    0  0.62218516781E-02 -0.17309884607E-01  0.12770758053E-01  0.10215372377E+01  0.10212917762E+01 0.  0.
     999903    2    3    3    0    0 -0.97639998427E-01  0.53517270601E-01  0.66067164666E-01  0.13100690311E+00  0.20006770588E-01 0.  0.
         14    1    1    2    0    0 -0.62218516781E-02  0.17309884607E-01 -0.12770758053E-01  0.22392762328E-01  0.00000000000E+00 0. -1.
     999901    1    3    3    0    0  0.10386185011E+00 -0.70827155208E-01 -0.53296406613E-01  0.89053033456E+00  0.88000000000E+00 0. -1.
        -11    1    4    4    0    0 -0.55176657647E-01  0.20873059781E-01  0.41168726542E-01  0.71939372667E-01  0.51100000000E-03 0. -1.
         11    1    4    4    0    0 -0.42463340780E-01  0.32644210820E-01  0.24898438124E-01  0.59067530440E-01  0.51100000000E-03 0.  1.
</event>
<event>
 8    1  0.1070112E+005  0.1043930E+01  0.7957747E-01            NaN
         13   -1    0    0    0    0  0.00000000000E+00  0.00000000000E+00  0.74505805969E-08  0.10566000000E+00  0.10566000000E+00 0. -1.
     999900   -1    0    0    0    0 -0.00000000000E+00 -0.00000000000E+00 -0.74505805969E-08  0.93827000000E+00  0.93827000000E+00 0.  1.
     999902    2    1    2    0    0 -0.80025307740E-02  0.14841962285E-01  0.16003625981E-01  0.10206826262E+01  0.10204178473E+01 0.  0.
     999903    2    3    3    0    0  0.89573437945E-01  0.66531665921E-01  0.67640091132E-01  0.13228000372E+00  0.21747507885E-01 0.  0.
         14    1    1    2    0    0  0.80025307740E-02 -0.14841962285E-01 -0.16003625981E-01  0.23247373782E-01  0.00000000000E+00 0.  1.
     999901    1    3    3    0    0 -0.97575968719E-01 -0.51689703637E-01 -0.51636465152E-01  0.88840262250E+00  0.88000000000E+00 0.  1.
        -11    1    4    4    0    0  0.18859179315E-01  0.20944119203E-01  0.85153490676E-02  0.29446511922E-01  0.51100000000E-03 0. -1.
         11    1    4    4    0    0  0.70714258630E-01  0.45587546719E-01  0.59124742065E-01  0.10283349179E+00  0.51100000000E-03 0.  1.
</event>
<event>
 8    1  0.1070112E+005  0.1043930E+01  0.7957747E-01            NaN
         13   -1    0    0    0    0  0.00000000000E+00  0.00000000000E+00  0.74505805969E-08  0.10566000000E+00  0.10566000000E+00 0. -1.
     999900   -1    0    0    0    0 -0.00000000000E+00 -0.00000000000E+00 -0.74505805969E-08  0.93827000000E+00  0.93827000000E+00 0. -1.
     999902    2    1    2    0    0 -0.15998964945E-01 -0.66061618404E-02 -0.16447048859E-01  0.10200529468E+01  0.10197734555E+01 0.  0.
     999903    2    3    3    0    0  0.41166025422E-01 -0.10890835088E+00  0.53406948214E-01  0.12954008618E+00  0.19304436559E-01 0.  0.
         14    1    1    2    0    0  0.15998964945E-01  0.66061618404E-02  0.16447048859E-01  0.23877053205E-01  0.00000000000E+00 0. -1.
     999901    1    3    3    0    0 -0.57164990367E-01  0.10230218904E+00 -0.69853997072E-01  0.89051286061E+00  0.88000000000E+00 0.  1.
        -11    1    4    4    0    0  0.15371072916E-01 -0.26218819790E-01  0.21489845177E-01  0.37225944722E-01  0.51100000000E-03 0.  1.
         11    1    4    4    0    0  0.25794952506E-01 -0.82689531090E-01  0.31917103037E-01  0.92314141463E-01  0.51100000000E-03 0. -1.
</event>
<event>
 8    1  0.1070112E+005  0.1043930E+01  0.7957747E-01            NaN
         13   -1    0    0    0    0  0.00000000000E+00  0.00000000000E+00  0.74505805969E-08  0.10566000000E+00  0.10566000000E+00 0. -1.
     999900   -1    0    0    0    0 -0.00000000000E+00 -0.00000000000E+00 -0.74505805969E-08  0.93827000000E+00  0.93827000000E+00 0. -1.
     999902    2    1    2    0    0  0.16836378320E-01 -0.10988875739E-02  0.16508171812E-01  0.10203251080E+01  0.10200520257E+01 0.  0.
     999903    2    3    3    0    0 -0.40729519154E-01 -0.12139117902E+00  0.12836523514E-01  0.13027030694E+00  0.20269791808E-01 0.  0.
         14    1    1    2    0    0 -0.16836378320E-01  0.10988875739E-02 -0.16508171812E-01  0.23604891980E-01  0.00000000000E+00 0.  1.
     999901    1    3    3    0    0  0.57565897473E-01  0.12029229144E+00  0.36716482972E-02  0.89005480108E+00  0.88000000000E+00 0. -1.
        -11    1    4    4    0    0 -0.16988368210E-01 -0.43928439399E-01  0.14337552862E-01  0.49235545956E-01  0.51100000000E-03 0.  1.
         11    1    4    4    0    0 -0.23741150944E-01 -0.77462739616E-01 -0.15010293475E-02  0.81034760980E-01  0.51100000000E-03 0. -1.
</event>
<event>
 8    1  0.1070112E+005  0.1043930E+01  0.7957747E-01            NaN
         13   -1    0    0    0    0  0.00000000000E+00  0.00000000000E+00  0.74505805969E-08  0.10566000000E+00  0.10566000000E+00 0.  1.
     999900   -1    0    0    0    0 -0.00000000000E+00 -0.00000000000E+00 -0.74505805969E-08  0.93827000000E+00  0.93827000000E+00 0. -1.
     999902    2    1    2    0    0  0.95465861435E-02 -0.35468591799E-02  0.20749238357E-01  0.10208161857E+01  0.10205544751E+01 0.  0.
     999903    2    3    3    0    0  0.67697821473E-01  0.82994462442E-01  0.76114685871E-01  0.13293314204E+00  0.20166780091E-01 0.  0.
         14    1    1    2    0    0 -0.95465861435E-02  0.35468591799E-02 -0.20749238357E-01  0.23113814256E-01  0.00000000000E+00 0. -1.
     999901    1    3    3    0    0 -0.58151235330E-01 -0.86541321622E-01 -0.55365447514E-01  0.88788304370E+00  0.88000000000E+00 0. -1.
        -11    1    4    4    0    0  0.38428866107E-01  0.61312298570E-01  0.54331593496E-01  0.90488446108E-01  0.51100000000E-03 0.  1.
         11    1    4    4    0    0  0.29268955366E-01  0.21682163872E-01  0.21783092375E-01  0.42444695933E-01  0.51100000000E-03 0. -1.
</event>
<event>
 8    1  0.1070112E+005  0.1043930E+01  0.7957747E-01            NaN
         13   -1    0    0    0    0  0.00000000000E+00  0.00000000000E+00  0.74505805969E-08  0.10566000000E+00  0.10566000000E+00 0.  1.
     999900   -1    0    0    0    0 -0.00000000000E+00 -0.00000000000E+00 -0.74505805969E-08  0.93827000000E+00  0.93827000000E+00 0. -1.
     999902    2    1    2    0    0  0.18317077177E-01 -0.15037683937E-01  0.25415180065E-02  0.10200950138E+01  0.10198165181E+01 0.  0.
     999903    2    3    3    0    0 -0.23996778521E-01 -0.38000311503E-01  0.12126566383E+00  0.13081824727E+00  0.19702373956E-01 0.  0.
         14    1    1    2    0    0 -0.18317077177E-01  0.15037683937E-01 -0.25415180065E-02  0.23834986224E-01  0.00000000000E+00 0. -1.
     999901    1    3    3    0    0  0.42313855698E-01  0.22962627566E-01 -0.11872414583E+00  0.88927676651E+00  0.88000000000E+00 0. -1.
        -11    1    4    4    0    0 -0.19691261822E-01 -0.16334926542E-01  0.49425892027E-01  0.55657484141E-01  0.51100000000E-03 0. -1.
         11    1    4    4    0    0 -0.43055166990E-02 -0.21665384962E-01  0.71839771806E-01  0.75160763127E-01  0.51100000000E-03 0.  1.
</event>
<event>
 8    1  0.1070112E+005  0.1043930E+01  0.7957747E-01            NaN
         13   -1    0    0    0    0  0.00000000000E+00  0.00000000000E+00  0.74505805969E-08  0.10566000000E+00  0.10566000000E+00 0. -1.
     999900   -1    0    0    0    0 -0.00000000000E+00 -0.00000000000E+00 -0.74505805969E-08  0.93827000000E+00  0.93827000000E+00 0. -1.
     999902    2    1    2    0    0  0.12969683244E-01  0.20166632964E-01  0.30564983271E-02  0.10197587785E+01  0.10194722744E+01 0.  0.
     999903    2    3    3    0    0 -0.72459925648E-01 -0.39131035409E-01 -0.96152136480E-01  0.12809921071E+00  0.19557496693E-01 0.  0.
         14    1    1    2    0    0 -0.12969683244E-01 -0.20166632964E-01 -0.30564983271E-02  0.24171221537E-01  0.00000000000E+00 0.  1.
     999901    1    3    3    0    0  0.85429608892E-01  0.59297668373E-01  0.99208634807E-01  0.89165956776E+00  0.88000000000E+00 0.  1.
        -11    1    4    4    0    0 -0.27506123930E-01 -0.21044494129E-01 -0.52390918703E-01  0.62805470067E-01  0.51100000000E-03 0. -1.
         11    1    4    4    0    0 -0.44953801719E-01 -0.18086541279E-01 -0.43761217777E-01  0.65293740640E-01  0.51100000000E-03 0.  1.
</event>
<event>
 8    1  0.1070112E+005  0.1043930E+01  0.7957747E-01            NaN
         13   -1    0    0    0    0  0.00000000000E+00  0.00000000000E+00  0.74505805969E-08  0.10566000000E+00  0.10566000000E+00 0. -1.
     999900   -1    0    0    0    0 -0.00000000000E+00 -0.00000000000E+00 -0.74505805969E-08  0.93827000000E+00  0.93827000000E+00 0. -1.
     999902    2    1    2    0    0 -0.16465129846E-01  0.59312031582E-02  0.18106201437E-01  0.10187483757E+01  0.10184371060E+01 0.  0.
     999903    2    3    3    0    0  0.24377127927E-01  0.68293935201E-01 -0.10250324933E+00  0.12739892684E+00  0.21569990398E-01 0.  0.
         14    1    1    2    0    0  0.16465129846E-01 -0.59312031582E-02 -0.18106201437E-01  0.25181624297E-01  0.00000000000E+00 0.  1.
     999901    1    3    3    0    0 -0.40842257773E-01 -0.62362732043E-01  0.12060945077E+00  0.89134944886E+00  0.88000000000E+00 0.  1.
        -11    1    4    4    0    0  0.21092834581E-02  0.37015648136E-01 -0.46011878121E-01  0.59092819639E-01  0.51100000000E-03 0. -1.
         11    1    4    4    0    0  0.22267844469E-01  0.31278287065E-01 -0.56491371212E-01  0.68306107205E-01  0.51100000000E-03 0.  1.
</event>
<event>
 8    1  0.1070112E+005  0.1043930E+01  0.7957747E-01            NaN
         13   -1    0    0    0    0  0.00000000000E+00  0.00000000000E+00  0.74505805969E-08  0.10566000000E+00  0.10566000000E+00 0. -1.
     999900   -1    0    0    0    0 -0.00000000000E+00 -0.00000000000E+00 -0.74505805969E-08  0.93827000000E+00  0.93827000000E+00 0.  1.
     999902    2    1    2    0    0 -0.22143001603E-01  0.63324687475E-02  0.50993311600E-02  0.10203415312E+01  0.10200688332E+01 0.  0.
     999903    2    3    3    0    0 -0.10276996378E+00 -0.68954213007E-01 -0.42152288244E-01  0.13219655038E+00  0.19564344636E-01 0.  0.
         14    1    1    2    0    0  0.22143001603E-01 -0.63324687475E-02 -0.50993311600E-02  0.23588468765E-01  0.00000000000E+00 0.  1.
     999901    1    3    3    0    0  0.80626962179E-01  0.75286681755E-01  0.47251619404E-01  0.88814498085E+00  0.88000000000E+00 0. -1.
        -11    1    4    4    0    0 -0.37248430420E-01 -0.28571239633E-01 -0.25582757238E-01  0.53464940773E-01  0.51100000000E-03 0.  1.
         11    1    4    4    0    0 -0.65521533362E-01 -0.40382973374E-01 -0.16569531006E-01  0.78731609608E-01  0.51100000000E-03 0. -1.
</event>
<event>
 8    1  0.1070112E+005  0.1043930E+01  0.7957747E-01            NaN
         13   -1    0    0    0    0  0.00000000000E+00  0.00000000000E+00  0.74505805969E-08  0.10566000000E+00  0.10566000000E+00 0. -1.
     999900   -1    0    0    0    0 -0.00000000000E+00 -0.00000000000E+00 -0.74505805969E-08  0.93827000000E+00  0.93827000000E+00 0. -1.
     999902    2    1    2    0    0 -0.13323132519E-01  0.52759020354E-02 -0.21160630054E-01  0.10183739192E+01  0.10180532039E+01 0.  0.
     999903    2    3    3    0    0  0.38155473127E-01  0.12230801214E-01 -0.12235142307E+00  0.13105323642E+00  0.24487699419E-01 0.  0.
         14    1    1    2    0    0  0.13323132519E-01 -0.52759020354E-02  0.21160630054E-01  0.25556080816E-01  0.00000000000E+00 0. -1.
     999901    1    3    3    0    0 -0.51478605647E-01 -0.69548991789E-02  0.10119079301E+00  0.88732068276E+00  0.88000000000E+00 0.  1.
        -11    1    4    4    0    0  0.32398042041E-01 -0.97123867185E-03 -0.80071099498E-01  0.86384133546E-01  0.51100000000E-03 0.  1.
         11    1    4    4    0    0  0.57574310865E-02  0.13202039886E-01 -0.42280323569E-01  0.44669102878E-01  0.51100000000E-03 0. -1.
</event>
<event>
 8    1  0.1070112E+005  0.1043930E+01  0.7957747E-01            NaN
         13   -1    0    0    0    0  0.00000000000E+00  0.00000000000E+00  0.74505805969E-08  0.10566000000E+00  0.10566000000E+00 0.  1.
     999900   -1    0    0    0    0 -0.00000000000E+00 -0.00000000000E+00 -0.74505805969E-08  0.93827000000E+00  0.93827000000E+00 0. -1.
     999902    2    1    2    0    0  0.11087017693E-02  0.17514325575E-01  0.14816795767E-01  0.10209622344E+01  0.10207038580E+01 0.  0.
     999903    2    3    3    0    0 -0.11238630618E+00  0.25013513487E-01 -0.58226967605E-01  0.13064052512E+00  0.20499009038E-01 0.  0.
         14    1    1    2    0    0 -0.11087017693E-02 -0.17514325575E-01 -0.14816795767E-01  0.22967765603E-01  0.00000000000E+00 0. -1.
     999901    1    3    3    0    0  0.11349500795E+00 -0.74991879112E-02  0.73043763372E-01  0.89032170928E+00  0.88000000000E+00 0.  1.
        -11    1    4    4    0    0 -0.71538315168E-01  0.20634580714E-01 -0.46996764183E-01  0.88048131286E-01  0.51100000000E-03 0.  1.
         11    1    4    4    0    0 -0.40847991016E-01  0.43789327723E-02 -0.11230203422E-01  0.42592393830E-01  0.51100000000E-03 0. -1.
</event>
<event>
 8    1  0.1070112E+005  0.1043930E+01  0.7957747E-01            NaN
         13   -1    0    0    0    0  0.00000000000E+00  0.00000000000E+00  0.74505805969E-08  0.10566000000E+00  0.10566000000E+00 0. -1.
     999900   -1    0    0    0    0 -0.00000000000E+00 -0.00000000000E+00 -0.74505805969E-08  0.93827000000E+00  0.93827000000E+00 0.  1.
     999902    2    1    2    0    0  0.96651436664E-02 -0.47898767292E-02 -0.20228791411E-01  0.10210048626E+01  0.10207474554E+01 0.  0.
     999903    2    3    3    0    0  0.12023832033E+00  0.42436115772E-01  0.24849256957E-01  0.13168559926E+00  0.21576234243E-01 0.  0.
         14    1    1    2    0    0 -0.96651436664E-02  0.47898767292E-02  0.20228791411E-01  0.22925137364E-01  0.00000000000E+00 0. -1.
     999901    1    3    3    0    0 -0.11057317666E+00 -0.47225992501E-01 -0.45078048368E-01  0.88931926337E+00  0.88000000000E+00 0.  1.
        -11    1    4    4    0    0  0.70950517994E-01  0.28364824225E-01  0.45320249850E-02  0.76546323415E-01  0.51100000000E-03 0.  1.
         11    1    4    4    0    0  0.49287802335E-01  0.14071291547E-01  0.20317231972E-01  0.55139275846E-01  0.51100000000E-03 0. -1.
</event>
<event>
 8    1  0.1070112E+005  0.1043930E+01  0.7957747E-01            NaN
         13   -1    0    0    0    0  0.00000000000E+00  0.00000000000E+00  0.74505805969E-08  0.10566000000E+00  0.10566000000E+00 0. -1.
     999900   -1    0    0    0    0 -0.00000000000E+00 -0.00000000000E+00 -0.74505805969E-08  0.93827000000E+00  0.93827000000E+00 0. -1.
     999902    2    1    2    0    0  0.51600925476E-02  0.20802035837E-01 -0.12188664836E-01  0.10192740717E+01  0.10189758184E+01 0.  0.
     999903    2    3    3    0    0 -0.21039490795E-02 -0.49794408180E-01  0.11520456579E+00  0.12727314153E+00  0.21034516616E-01 0.  0.
         14    1    1    2    0    0 -0.51600925476E-02 -0.20802035837E-01  0.12188664836E-01  0.24655928305E-01  0.00000000000E+00 0. -1.
     999901    1    3    3    0    0  0.72640416272E-02  0.70596444017E-01 -0.12739323062E+00  0.89200093017E+00  0.88000000000E+00 0. -1.
        -11    1    4    4    0    0  0.72316142608E-03 -0.50039572220E-01  0.11317527491E+00  0.12374726551E+00  0.51100000000E-03 0. -1.
         11    1    4    4    0    0 -0.28271105056E-02  0.24516404006E-03  0.20292908764E-02  0.35258760157E-02  0.51100000000E-03 0.  1.
</event>
<event>
 8    1  0.1070112E+005  0.1043930E+01  0.7957747E-01            NaN
         13   -1    0    0    0    0  0.00000000000E+00  0.00000000000E+00  0.74505805969E-08  0.10566000000E+00  0.10566000000E+00 0.  1.
     999900   -1    0    0    0    0 -0.00000000000E+00 -0.00000000000E+00 -0.74505805969E-08  0.93827000000E+00  0.93827000000E+00 0. -1.
     999902    2    1    2    0    0  0.12401590555E-02 -0.10651318316E-01  0.21594693373E-01  0.10198194347E+01  0.10195343840E+01 0.  0.
     999903    2    3    3    0    0 -0.42926667280E-01 -0.76925207881E-01 -0.91901947763E-01  0.12896342809E+00  0.20625503925E-01 0.  0.
         14    1    1    2    0    0 -0.12401590555E-02  0.10651318316E-01 -0.21594693373E-01  0.24110565282E-01  0.00000000000E+00 0. -1.
     999901    1    3    3    0    0  0.44166826335E-01  0.66273889565E-01  0.11349664114E+00  0.89085600662E+00  0.88000000000E+00 0.  1.
        -11    1    4    4    0    0 -0.76699923111E-02 -0.96418695334E-02 -0.44090516867E-02  0.13095620945E-01  0.51100000000E-03 0.  1.
         11    1    4    4    0    0 -0.35256674968E-01 -0.67283338347E-01 -0.87492896076E-01  0.11586780715E+00  0.51100000000E-03 0. -1.
</event>
<event>
 8    1  0.1070112E+005  0.1043930E+01  0.7957747E-01            NaN
         13   -1    0    0    0    0  0.00000000000E+00  0.00000000000E+00  0.74505805969E-08  0.10566000000E+00  0.10566000000E+00 0.  1.
     999900   -1    0    0    0    0 -0.00000000000E+00 -0.00000000000E+00 -0.74505805969E-08  0.93827000000E+00  0.93827000000E+00 0. -1.
     999902    2    1    2    0    0  0.16920462431E-01 -0.14864744310E-01  0.72312437817E-02  0.10202751155E+01  0.10200008617E+01 0.  0.
     999903    2    3    3    0    0  0.11652683129E-01 -0.12121833381E+00  0.48988691678E-01  0.13287299702E+00  0.20631818864E-01 0.  0.
         14    1    1    2    0    0 -0.16920462431E-01  0.14864744310E-01 -0.72312437817E-02  0.23654884463E-01  0.00000000000E+00 0. -1.
     999901    1    3    3    0    0  0.52677793026E-02  0.10635358950E+00 -0.41757447896E-01  0.88740211852E+00  0.88000000000E+00 0. -1.
        -11    1    4    4    0    0 -0.59831410912E-02 -0.27515653623E-01  0.11187690653E-01  0.30304037928E-01  0.51100000000E-03 0. -1.
         11    1    4    4    0    0  0.17635824220E-01 -0.93702680183E-01  0.37801001025E-01  0.10256895909E+00  0.51100000000E-03 0.  1.
</event>
<event>
 8    1  0.1070112E+005  0.1043930E+01  0.7957747E-01            NaN
         13   -1    0    0    0    0  0.00000000000E+00  0.00000000000E+00  0.74505805969E-08  0.10566000000E+00  0.10566000000E+00 0. -1.
     999900   -1    0    0    0    0 -0.00000000000E+00 -0.00000000000E+00 -0.74505805969E-08  0.93827000000E+00  0.93827000000E+00 0.  1.
     999902    2    1    2    0    0 -0.75245205544E-02  0.13671305652E-01  0.30548471777E-01  0.10096264705E+01  0.10090435460E+01 0.  0.
     999903    2    3    3    0    0  0.24244268051E-01  0.11013677010E+00  0.45471075552E-01  0.12365947007E+00  0.22497848001E-01 0.  0.
         14    1    1    2    0    0  0.75245205544E-02 -0.13671305652E-01 -0.30548471777E-01  0.34303529493E-01  0.00000000000E+00 0.  1.
     999901    1    3    3    0    0 -0.31768788606E-01 -0.96465464447E-01 -0.14922603776E-01  0.88596700044E+00  0.88000000000E+00 0.  1.
        -11    1    4    4    0    0  0.13901811993E-01  0.68860969933E-01  0.16454499216E-01  0.72153345191E-01  0.51100000000E-03 0.  1.
         11    1    4    4    0    0  0.10342456058E-01  0.41275800167E-01  0.29016576337E-01  0.51506124879E-01  0.51100000000E-03 0. -1.
</event>
<event>
 8    1  0.1070112E+005  0.1043930E+01  0.7957747E-01            NaN
         13   -1    0    0    0    0  0.00000000000E+00  0.00000000000E+00  0.74505805969E-08  0.10566000000E+00  0.10566000000E+00 0. -1.
     999900   -1    0    0    0    0 -0.00000000000E+00 -0.00000000000E+00 -0.74505805969E-08  0.93827000000E+00  0.93827000000E+00 0. -1.
     999902    2    1    2    0    0 -0.25781287851E-01  0.11740763743E-01  0.52343748803E-02  0.10151216849E+01  0.10147128245E+01 0.  0.
     999903    2    3    3    0    0 -0.13139334491E-01 -0.36628187795E-01 -0.11728129551E+00  0.12522873410E+00  0.20324057531E-01 0.  0.
         14    1    1    2    0    0  0.25781287851E-01 -0.11740763743E-01 -0.52343748803E-02  0.28808315065E-01  0.00000000000E+00 0.  1.
     999901    1    3    3    0    0 -0.12641953360E-01  0.48368951538E-01  0.12251567039E+00  0.88989295084E+00  0.88000000000E+00 0.  1.
        -11    1    4    4    0    0  0.37242462528E-03 -0.21555356002E-01 -0.41243268412E-01  0.46540738959E-01  0.51100000000E-03 0.  1.
         11    1    4    4    0    0 -0.13511759116E-01 -0.15072831793E-01 -0.76038027100E-01  0.78687995139E-01  0.51100000000E-03 0. -1.
</event>
<event>
 8    1  0.1070112E+005  0.1043930E+01  0.7957747E-01            NaN
         13   -1    0    0    0    0  0.00000000000E+00  0.00000000000E+00  0.74505805969E-08  0.10566000000E+00  0.10566000000E+00 0.  1.
     999900   -1    0    0    0    0 -0.00000000000E+00 -0.00000000000E+00 -0.74505805969E-08  0.93827000000E+00  0.93827000000E+00 0.  1.
     999902    2    1    2    0    0 -0.28101868106E-02  0.22793960637E-01 -0.27635114241E-02  0.10207977976E+01  0.10205356656E+01 0.  0.
     999903    2    3    3    0    0  0.61992151562E-01 -0.19882483213E-01  0.11085125156E+00  0.13010765156E+00  0.20041482735E-01 0.  0.
         14    1    1    2    0    0  0.28101868106E-02 -0.22793960637E-01  0.27635114241E-02  0.23132202377E-01  0.00000000000E+00 0.  1.
     999901    1    3    3    0    0 -0.64802338372E-01  0.42676443850E-01 -0.11361476298E+00  0.89069014606E+00  0.88000000000E+00 0.  1.
        -11    1    4    4    0    0  0.53991860980E-01 -0.12968393229E-01  0.79157831976E-01  0.96692935415E-01  0.51100000000E-03 0. -1.
         11    1    4    4    0    0  0.80002905818E-02 -0.69140899842E-02  0.31693419580E-01  0.33414716150E-01  0.51100000000E-03 0.  1.
</event>
<event>
 8    1  0.1070112E+005  0.1043930E+01  0.7957747E-01            NaN
         13   -1    0    0    0    0  0.00000000000E+00  0.00000000000E+00  0.74505805969E-08  0.10566000000E+00  0.10566000000E+00 0. -1.
     999900   -1    0    0    0    0 -0.00000000000E+00 -0.00000000000E+00 -0.74505805969E-08  0.93827000000E+00  0.93827000000E+00 0. -1.
     999902    2    1    2    0    0  0.11608122528E-01 -0.20368523510E-01 -0.34348056800E-02  0.10202356304E+01  0.10199604495E+01 0.  0.
     999903    2    3    3    0    0  0.10009602542E+00  0.59116069785E-01 -0.56250264658E-01  0.13066417056E+00  0.19877353496E-01 0.  0.
         14    1    1    2    0    0 -0.11608122528E-01  0.20368523510E-01  0.34348056800E-02  0.23694369556E-01  0.00000000000E+00 0. -1.
     999901    1    3    3    0    0 -0.88487902895E-01 -0.79484593295E-01  0.52815458978E-01  0.88957145988E+00  0.88000000000E+00 0. -1.
        -11    1    4    4    0    0  0.19249562645E-01  0.19133942564E-01 -0.76207141292E-02  0.28195563923E-01  0.51100000000E-03 0. -1.
         11    1    4    4    0    0  0.80846462778E-01  0.39982127221E-01 -0.48629550529E-01  0.10246860664E+00  0.51100000000E-03 0.  1.
</event>
<event>
 8    1  0.1070112E+005  0.1043930E+01  0.7957747E-01            NaN
         13   -1    0    0    0    0  0.00000000000E+00  0.00000000000E+00  0.74505805969E-08  0.10566000000E+00  0.10566000000E+00 0. -1.
     999900   -1    0    0    0    0 -0.00000000000E+00 -0.00000000000E+00 -0.74505805969E-08  0.93827000000E+00  0.93827000000E+00 0. -1.
     999902    2    1    2    0    0 -0.19695843258E-01 -0.61428032060E-02 -0.15082465715E-01  0.10183733757E+01  0.10180526466E+01 0.  0.
     999903    2    3    3    0    0  0.75713913799E-01  0.87062467359E-01 -0.50537628047E-01  0.12761678004E+00  0.20482205288E-01 0.  0.
         14    1    1    2    0    0  0.19695843258E-01  0.61428032060E-02  0.15082465715E-01  0.25556624286E-01  0.00000000000E+00 0. -1.
     999901    1    3    3    0    0 -0.95409757057E-01 -0.93205270565E-01  0.35455162332E-01  0.89075659568E+00  0.88000000000E+00 0. -1.
        -11    1    4    4    0    0  0.46446254296E-01  0.43768705849E-01 -0.36421574707E-01  0.73482966564E-01  0.51100000000E-03 0. -1.
         11    1    4    4    0    0  0.29267659503E-01  0.43293761510E-01 -0.14116053339E-01  0.54133813475E-01  0.51100000000E-03 0.  1.
</event>
<event>
 8    1  0.1070112E+005  0.1043930E+01  0.7957747E-01            NaN
         13   -1    0    0    0    0  0.00000000000E+00  0.00000000000E+00  0.74505805969E-08  0.10566000000E+00  0.10566000000E+00 0.  1.
     999900   -1    0    0    0    0 -0.00000000000E+00 -0.00000000000E+00 -0.74505805969E-08  0.93827000000E+00  0.93827000000E+00 0.  1.
     999902    2    1    2    0    0 -0.55757426161E-02 -0.13022331137E-01  0.17876254011E-01  0.10211214386E+01  0.10208666720E+01 0.  0.
     999903    2    3    3    0    0 -0.11339846552E+00  0.18410381979E-02 -0.62227782892E-01  0.13080502519E+00  0.19366369017E-01 0.  0.
         14    1    1    2    0    0  0.55757426161E-02  0.13022331137E-01 -0.17876254011E-01  0.22808561362E-01  0.00000000000E+00 0. -1.
     999901    1    3    3    0    0  0.10782272290E+00 -0.14863369335E-01  0.80104036902E-01  0.89031641345E+00  0.88000000000E+00 0. -1.
        -11    1    4    4    0    0 -0.73509150136E-01  0.99828324485E-03 -0.50585273851E-01  0.89239692820E-01  0.51100000000E-03 0.  1.
         11    1    4    4    0    0 -0.39889315381E-01  0.84275495309E-03 -0.11642509041E-01  0.41565332372E-01  0.51100000000E-03 0. -1.
</event>
<event>
 8    1  0.1070112E+005  0.1043930E+01  0.7957747E-01            NaN
         13   -1    0    0    0    0  0.00000000000E+00  0.00000000000E+00  0.74505805969E-08  0.10566000000E+00  0.10566000000E+00 0.  1.
     999900   -1    0    0    0    0 -0.00000000000E+00 -0.00000000000E+00 -0.74505805969E-08  0.93827000000E+00  0.93827000000E+00 0. -1.
     999902    2    1    2    0    0  0.23317549792E-01 -0.60659180413E-02 -0.46082536907E-02  0.10193996210E+01  0.10191044342E+01 0.  0.
     999903    2    3    3    0    0 -0.71066414307E-01 -0.89165353614E-01 -0.56131329274E-01  0.12896799750E+00  0.21934509940E-01 0.  0.
         14    1    1    2    0    0 -0.23317549792E-01  0.60659180413E-02  0.46082536907E-02  0.24530378963E-01  0.00000000000E+00 0. -1.
     999901    1    3    3    0    0  0.94383964099E-01  0.83099435573E-01  0.51523075583E-01  0.89043162353E+00  0.88000000000E+00 0. -1.
        -11    1    4    4    0    0 -0.55905035481E-01 -0.67999384155E-01 -0.52961400737E-01  0.10273490316E+00  0.51100000000E-03 0. -1.
         11    1    4    4    0    0 -0.15161378826E-01 -0.21165969460E-01 -0.31699285366E-02  0.26233094347E-01  0.51100000000E-03 0.  1.
</event>
<event>
 8    1  0.1070112E+005  0.1043930E+01  0.7957747E-01            NaN
         13   -1    0    0    0    0  0.00000000000E+00  0.00000000000E+00  0.74505805969E-08  0.10566000000E+00  0.10566000000E+00 0. -1.
     999900   -1    0    0    0    0 -0.00000000000E+00 -0.00000000000E+00 -0.74505805969E-08  0.93827000000E+00  0.93827000000E+00 0.  1.
     999902    2    1    2    0    0  0.14403081438E-01  0.11005489207E-01 -0.14062426368E-01  0.10209883047E+01  0.10207305212E+01 0.  0.
     999903    2    3    3    0    0  0.63604194600E-01 -0.67730775332E-01 -0.91135783279E-01  0.13275384735E+00  0.26170622740E-01 0.  0.
         14    1    1    2    0    0 -0.14403081438E-01 -0.11005489207E-01  0.14062426368E-01  0.22941695293E-01  0.00000000000E+00 0.  1.
     999901    1    3    3    0    0 -0.49201113162E-01  0.78736264539E-01  0.77073356911E-01  0.88823445736E+00  0.88000000000E+00 0. -1.
        -11    1    4    4    0    0  0.22963432259E-01 -0.32819449008E-01 -0.55341100552E-01  0.68317889206E-01  0.51100000000E-03 0. -1.
         11    1    4    4    0    0  0.40640762341E-01 -0.34911326324E-01 -0.35794682727E-01  0.64435958144E-01  0.51100000000E-03 0.  1.
</event>
<event>
 8    1  0.1070112E+005  0.1043930E+01  0.7957747E-01            NaN
         13   -1    0    0    0    0  0.00000000000E+00  0.00000000000E+00  0.74505805969E-08  0.10566000000E+00  0.10566000000E+00 0. -1.
     999900   -1    0    0    0    0 -0.00000000000E+00 -0.00000000000E+00 -0.74505805969E-08  0.93827000000E+00  0.93827000000E+00 0.  1.
     999902    2    1    2    0    0 -0.43814359291E-02 -0.13397318154E-01 -0.18896423743E-01  0.10203554386E+01  0.10200830658E+01 0.  0.
     999903    2    3    3    0    0  0.81752591154E-01  0.33459482582E-02 -0.10175575942E+00  0.13211837729E+00  0.20158112839E-01 0.  0.
         14    1    1    2    0    0  0.43814359291E-02  0.13397318154E-01  0.18896423743E-01  0.23574561391E-01  0.00000000000E+00 0. -1.
     999901    1    3    3    0    0 -0.86134027083E-01 -0.16743266412E-01  0.82859335673E-01  0.88823706132E+00  0.88000000000E+00 0. -1.
        -11    1    4    4    0    0  0.63237608628E-01 -0.42183584894E-02 -0.68626389967E-01  0.93416445095E-01  0.51100000000E-03 0. -1.
         11    1    4    4    0    0  0.18514982526E-01  0.75643067476E-02 -0.33129369449E-01  0.38701932195E-01  0.51100000000E-03 0.  1.
</event>
<event>
 8    1  0.1070112E+005  0.1043930E+01  0.7957747E-01            NaN
         13   -1    0    0    0    0  0.00000000000E+00  0.00000000000E+00  0.74505805969E-08  0.10566000000E+00  0.10566000000E+00 0.  1.
     999900   -1    0    0    0    0 -0.00000000000E+00 -0.00000000000E+00 -0.74505805969E-08  0.93827000000E+00  0.93827000000E+00 0. -1.
     999902    2    1    2    0    0 -0.21507583542E-01 -0.58464827502E-02  0.67811281698E-02  0.10206331931E+01  0.10203672739E+01 0.  0.
     999903    2    3    3    0    0 -0.11120609501E+00 -0.30321324943E-01 -0.63016553122E-01  0.13298655333E+00  0.20692005353E-01 0.  0.
         14    1    1    2    0    0  0.21507583542E-01  0.58464827502E-02 -0.67811281698E-02  0.23296806854E-01  0.00000000000E+00 0.  1.
     999901    1    3    3    0    0  0.89698511470E-01  0.24474842193E-01  0.69797681292E-01  0.88764663981E+00  0.88000000000E+00 0.  1.
        -11    1    4    4    0    0 -0.95490225162E-01 -0.32952008333E-01 -0.52069970433E-01  0.11364752921E+00  0.51100000000E-03 0. -1.
         11    1    4    4    0    0 -0.15715869849E-01  0.26306833896E-02 -0.10946582689E-01  0.19339024116E-01  0.51100000000E-03 0.  1.
</event>
<event>
 8    1  0.1070112E+005  0.1043930E+01  0.7957747E-01            NaN
         13   -1    0    0    0    0  0.00000000000E+00  0.00000000000E+00  0.74505805969E-08  0.10566000000E+00  0.10566000000E+00 0. -1.
     999900   -1    0    0    0    0 -0.00000000000E+00 -0.00000000000E+00 -0.74505805969E-08  0.93827000000E+00  0.93827000000E+00 0. -1.
     999902    2    1    2    0    0  0.56613372782E-02  0.45273925591E-02  0.20968426370E-01  0.10217439024E+01  0.10215030001E+01 0.  0.
     999903    2    3    3    0    0 -0.46637233719E-01 -0.12095177384E+00  0.18314812247E-01  0.13130176311E+00  0.10017858207E-01 0.  0.
         14    1    1    2    0    0 -0.56613372782E-02 -0.45273925591E-02 -0.20968426370E-01  0.22186097620E-01  0.00000000000E+00 0.  1.
     999901    1    3    3    0    0  0.52298570998E-01  0.12547916640E+00  0.26536141233E-02  0.89044213927E+00  0.88000000000E+00 0.  1.
        -11    1    4    4    0    0 -0.89093180580E-02 -0.25000372320E-01  0.77772625019E-02  0.27661191179E-01  0.51100000000E-03 0.  1.
         11    1    4    4    0    0 -0.37727915662E-01 -0.95951401519E-01  0.10537549745E-01  0.10364057193E+00  0.51100000000E-03 0. -1.
</event>
<event>
 8    1  0.1070112E+005  0.1043930E+01  0.7957747E-01            NaN
         13   -1    0    0    0    0  0.00000000000E+00  0.00000000000E+00  0.74505805969E-08  0.10566000000E+00  0.10566000000E+00 0.  1.
     999900   -1    0    0    0    0 -0.00000000000E+00 -0.00000000000E+00 -0.74505805969E-08  0.93827000000E+00  0.93827000000E+00 0. -1.
     999902    2    1    2    0    0 -0.15572782495E-01  0.27119587341E-02 -0.17531910574E-01  0.10203241922E+01  0.10200510884E+01 0.  0.
     999903    2    3    3    0    0 -0.62152476925E-02 -0.93338685041E-01 -0.90414224531E-01  0.13205333184E+00  0.22640914811E-01 0.  0.
         14    1    1    2    0    0  0.15572782495E-01 -0.27119587341E-02  0.17531910574E-01  0.23605807827E-01  0.00000000000E+00 0.  1.
     999901    1    3    3    0    0 -0.93575348026E-02  0.96050643775E-01  0.72882313957E-01  0.88827086033E+00  0.88000000000E+00 0.  1.
        -11    1    4    4    0    0 -0.46304513382E-02 -0.31565543981E-01 -0.17206786283E-01  0.36251334618E-01  0.51100000000E-03 0.  1.
         11    1    4    4    0    0 -0.15847963542E-02 -0.61773141061E-01 -0.73207438248E-01  0.95801997223E-01  0.51100000000E-03 0. -1.
</event>
<event>
 8    1  0.1070112E+005  0.1043930E+01  0.7957747E-01            NaN
         13   -1    0    0    0    0  0.00000000000E+00  0.00000000000E+00  0.74505805969E-08  0.10566000000E+00  0.10566000000E+00 0. -1.
     999900   -1    0    0    0    0 -0.00000000000E+00 -0.00000000000E+00 -0.74505805969E-08  0.93827000000E+00  0.93827000000E+00 0. -1.
     999902    2    1    2    0    0  0.16750928748E-01 -0.88395659640E-02 -0.13201255587E-01  0.10208431057E+01  0.10205820113E+01 0.  0.
     999903    2    3    3    0    0 -0.10256492511E+00  0.67505277547E-01  0.32629580138E-01  0.12833805045E+00  0.18150463730E-01 0.  0.
         14    1    1    2    0    0 -0.16750928748E-01  0.88395659640E-02  0.13201255587E-01  0.23086894322E-01  0.00000000000E+00 0.  1.
     999901    1    3    3    0    0  0.11931585385E+00 -0.76344843511E-01 -0.45830835726E-01  0.89250505523E+00  0.88000000000E+00 0. -1.
        -11    1    4    4    0    0 -0.39956790731E-01  0.35391927676E-01  0.19029753955E-01  0.56670330215E-01  0.51100000000E-03 0.  1.
         11    1    4    4    0    0 -0.62608134375E-01  0.32113349871E-01  0.13599826184E-01  0.71667720231E-01  0.51100000000E-03 0. -1.
</event>
<event>
 8    1  0.1070112E+005  0.1043930E+01  0.7957747E-01            NaN
         13   -1    0    0    0    0  0.00000000000E+00  0.00000000000E+00  0.74505805969E-08  0.10566000000E+00  0.10566000000E+00 0. -1.
     999900   -1    0    0    0    0 -0.00000000000E+00 -0.00000000000E+00 -0.74505805969E-08  0.93827000000E+00  0.93827000000E+00 0.  1.
     999902    2    1    2    0    0  0.50184638499E-02 -0.12222040856E-01  0.19371085875E-01  0.10204821380E+01  0.10202127189E+01 0.  0.
     999903    2    3    3    0    0 -0.24210105851E-01  0.12515562546E+00  0.81353240791E-02  0.12927331020E+00  0.19883295061E-01 0.  0.
         14    1    1    2    0    0 -0.50184638499E-02  0.12222040856E-01 -0.19371085875E-01  0.23447861951E-01  0.00000000000E+00 0.  1.
     999901    1    3    3    0    0  0.29228569701E-01 -0.13737766632E+00  0.11235761796E-01  0.89120882785E+00  0.88000000000E+00 0.  1.
        -11    1    4    4    0    0 -0.19395137961E-01  0.11161038087E+00  0.13138155112E-01  0.11404350370E+00  0.51100000000E-03 0.  1.
         11    1    4    4    0    0 -0.48149678904E-02  0.13545244587E-01 -0.50028310332E-02  0.15229806501E-01  0.51100000000E-03 0. -1.
</event>
<event>
 8    1  0.1070112E+005  0.1043930E+01  0.7957747E-01            NaN
         13   -1    0    0    0    0  0.00000000000E+00  0.00000000000E+00  0.74505805969E-08  0.10566000000E+00  0.10566000000E+00 0. -1.
     999900   -1    0    0    0    0 -0.00000000000E+00 -0.00000000000E+00 -0.74505805969E-08  0.93827000000E+00  0.93827000000E+00 0.  1.
     999902    2    1    2    0    0 -0.97260235956E-02  0.16067419444E-01  0.14456232200E-01  0.10202289420E+01  0.10199536038E+01 0.  0.
     999903    2    3    3    0    0 -0.56674377031E-01  0.93849799121E-01  0.73640311656E-01  0.13357399119E+00  0.19983638655E-01 0.  0.
         14    1    1    2    0    0  0.97260235956E-02 -0.16067419444E-01 -0.14456232200E-01  0.23701058035E-01  0.00000000000E+00 0.  1.
     999901    1    3    3    0    0  0.46948353435E-01 -0.77782379677E-01 -0.59184079457E-01  0.88665495078E+00  0.88000000000E+00 0.  1.
        -11    1    4    4    0    0 -0.20900097932E-01  0.27113056693E-01  0.33369846879E-01  0.47809410565E-01  0.51100000000E-03 0. -1.
         11    1    4    4    0    0 -0.35774279099E-01  0.66736742428E-01  0.40270464777E-01  0.85764580622E-01  0.51100000000E-03 0.  1.
</event>
<event>
 8    1  0.1070112E+005  0.1043930E+01  0.7957747E-01            NaN
         13   -1    0    0    0    0  0.00000000000E+00  0.00000000000E+00  0.74505805969E-08  0.10566000000E+00  0.10566000000E+00 0. -1.
     999900   -1    0    0    0    0 -0.00000000000E+00 -0.00000000000E+00 -0.74505805969E-08  0.93827000000E+00  0.93827000000E+00 0. -1.
     999902    2    1    2    0    0 -0.15903131670E-01  0.13541885091E-01  0.10622123152E-01  0.10204966531E+01  0.10202275713E+01 0.  0.
     999903    2    3    3    0    0 -0.27718489463E-01  0.57332125813E-01  0.11519243219E+00  0.13314546137E+00  0.20078101010E-01 0.  0.
         14    1    1    2    0    0  0.15903131670E-01 -0.13541885091E-01 -0.10622123152E-01  0.23433346944E-01  0.00000000000E+00 0.  1.
     999901    1    3    3    0    0  0.11815357793E-01 -0.43790240722E-01 -0.10457030904E+00  0.88735119169E+00  0.88000000000E+00 0. -1.
        -11    1    4    4    0    0 -0.24060190618E-01  0.28983891400E-01  0.57228815016E-01  0.68515378729E-01  0.51100000000E-03 0.  1.
         11    1    4    4    0    0 -0.36582988455E-02  0.28348234413E-01  0.57963617174E-01  0.64630082637E-01  0.51100000000E-03 0. -1.
</event>
<event>
 8    1  0.1070112E+005  0.1043930E+01  0.7957747E-01            NaN
         13   -1    0    0    0    0  0.00000000000E+00  0.00000000000E+00  0.74505805969E-08  0.10566000000E+00  0.10566000000E+00 0. -1.
     999900   -1    0    0    0    0 -0.00000000000E+00 -0.00000000000E+00 -0.74505805969E-08  0.93827000000E+00  0.93827000000E+00 0. -1.
     999902    2    1    2    0    0  0.22443382748E-01  0.60256760117E-02 -0.51548360548E-02  0.10201269217E+01  0.10198491800E+01 0.  0.
     999903    2    3    3    0    0  0.50248995115E-01  0.53396600308E-01 -0.10837578259E+00  0.13239288478E+00  0.20159544996E-01 0.  0.
         14    1    1    2    0    0 -0.22443382748E-01 -0.60256760117E-02  0.51548360548E-02  0.23803078274E-01  0.00000000000E+00 0. -1.
     999901    1    3    3    0    0 -0.27805612367E-01 -0.47370924296E-01  0.10322094653E+00  0.88773403695E+00  0.88000000000E+00 0.  1.
        -11    1    4    4    0    0  0.34624379963E-01  0.48626570046E-01 -0.85506146337E-01  0.10428304361E+00  0.51100000000E-03 0. -1.
         11    1    4    4    0    0  0.15624615152E-01  0.47700302619E-02 -0.22869636252E-01  0.28109841171E-01  0.51100000000E-03 0.  1.
</event>
<event>
 8    1  0.1070112E+005  0.1043930E+01  0.7957747E-01            NaN
         13   -1    0    0    0    0  0.00000000000E+00  0.00000000000E+00  0.74505805969E-08  0.10566000000E+00  0.10566000000E+00 0.  1.
     999900   -1    0    0    0    0 -0.00000000000E+00 -0.00000000000E+00 -0.74505805969E-08  0.93827000000E+00  0.93827000000E+00 0. -1.
     999902    2    1    2    0    0  0.43339971116E-03  0.18181814258E-01  0.16779287011E-01  0.10191850878E+01  0.10188846513E+01 0.  0.
     999903    2    3    3    0    0  0.90441182933E-01 -0.78788753007E-01  0.42674143233E-01  0.12891814162E+00  0.20286191551E-01 0.  0.
         14    1    1    2    0    0 -0.43339971116E-03 -0.18181814258E-01 -0.16779287011E-01  0.24744912157E-01  0.00000000000E+00 0. -1.
     999901    1    3    3    0    0 -0.90007783222E-01  0.96970567266E-01 -0.25894856222E-01  0.89026694622E+00  0.88000000000E+00 0.  1.
        -11    1    4    4    0    0  0.59311973266E-01 -0.44391499270E-01  0.17465142066E-01  0.76117065686E-01  0.51100000000E-03 0.  1.
         11    1    4    4    0    0  0.31129209667E-01 -0.34397253737E-01  0.25209001167E-01  0.52801075936E-01  0.51100000000E-03 0. -1.
</event>
<event>
 8    1  0.1070112E+005  0.1043930E+01  0.7957747E-01            NaN
         13   -1    0    0    0    0  0.00000000000E+00  0.00000000000E+00  0.74505805969E-08  0.10566000000E+00  0.10566000000E+00 0. -1.
     999900   -1    0    0    0    0 -0.00000000000E+00 -0.00000000000E+00 -0.74505805969E-08  0.93827000000E+00  0.93827000000E+00 0.  1.
     999902    2    1    2    0    0 -0.31154768396E-02 -0.14804573291E-01 -0.19203934136E-01  0.10194826551E+01  0.10191894875E+01 0.  0.
     999903    2    3    3    0    0 -0.85565843800E-01 -0.95798868697E-01 -0.22265320033E-01  0.13191997507E+00  0.20203922332E-01 0.  0.
         14    1    1    2    0    0  0.31154768396E-02  0.14804573291E-01  0.19203934136E-01  0.24447344898E-01  0.00000000000E+00 0. -1.
     999901    1    3    3    0    0  0.82450366960E-01  0.80994295407E-01  0.30613858965E-02  0.88756268003E+00  0.88000000000E+00 0. -1.
        -11    1    4    4    0    0 -0.39052204941E-01 -0.53796964409E-01 -0.19093247467E-01  0.69166475335E-01  0.51100000000E-03 0. -1.
         11    1    4    4    0    0 -0.46513638859E-01 -0.42001904288E-01 -0.31720725657E-02  0.62753499736E-01  0.51100000000E-03 0.  1.
</event>
<event>
 8    1  0.1070112E+005  0.1043930E+01  0.7957747E-01            NaN
         13   -1    0    0    0    0  0.00000000000E+00  0.00000000000E+00  0.74505805969E-08  0.10566000000E+00  0.10566000000E+00 0.  1.
     999900   -1    0    0    0    0 -0.00000000000E+00 -0.00000000000E+00 -0.74505805969E-08  0.93827000000E+00  0.93827000000E+00 0. -1.
     999902    2    1    2    0    0 -0.87647886710E-02  0.20901944652E-01  0.87146488377E-02  0.10196471271E+01  0.10193579381E+01 0.  0.
     999903    2    3    3    0    0  0.75586275007E-01 -0.77379876360E-01  0.66120405329E-01  0.12831675114E+00  0.19807836486E-01 0.  0.
         14    1    1    2    0    0  0.87647886710E-02 -0.20901944652E-01 -0.87146488377E-02  0.24282872874E-01  0.00000000000E+00 0.  1.
     999901    1    3    3    0    0 -0.84351063678E-01  0.98281821011E-01 -0.57405756491E-01  0.89133037599E+00  0.88000000000E+00 0. -1.
        -11    1    4    4    0    0  0.16718091409E-01 -0.29548036118E-01  0.17250526642E-01  0.38084416882E-01  0.51100000000E-03 0.  1.
         11    1    4    4    0    0  0.58868183597E-01 -0.47831840242E-01  0.48869878687E-01  0.90232334254E-01  0.51100000000E-03 0. -1.
</event>
<event>
 8    1  0.1070112E+005  0.1043930E+01  0.7957747E-01            NaN
         13   -1    0    0    0    0  0.00000000000E+00  0.00000000000E+00  0.74505805969E-08  0.10566000000E+00  0.10566000000E+00 0. -1.
     999900   -1    0    0    0    0 -0.00000000000E+00 -0.00000000000E+00 -0.74505805969E-08  0.93827000000E+00  0.93827000000E+00 0. -1.
     999902    2    1    2    0    0  0.82158840487E-02 -0.13194322841E-01 -0.16059019807E-01  0.10215808832E+01  0.10213363882E+01 0.  0.
     999903    2    3    3    0    0 -0.12871214471E-01  0.42306335124E-01 -0.12376530554E+00  0.13302833394E+00  0.20571646028E-01 0.  0.
         14    1    1    2    0    0 -0.82158840487E-02  0.13194322841E-01  0.16059019807E-01  0.22349116830E-01  0.00000000000E+00 0.  1.
     999901    1    3    3    0    0  0.21087098520E-01 -0.55500657965E-01  0.10770628574E+00  0.88855254923E+00  0.88000000000E+00 0.  1.
        -11    1    4    4    0    0 -0.17445504137E-01  0.36062602739E-01 -0.11186699590E+00  0.11882484094E+00  0.51100000000E-03 0.  1.
         11    1    4    4    0    0  0.45742896661E-02  0.62437323856E-02 -0.11898309641E-01  0.14203492999E-01  0.51100000000E-03 0. -1.
</event>
<event>
 8    1  0.1070112E+005  0.1043930E+01  0.7957747E-01            NaN
         13   -1    0    0    0    0  0.00000000000E+00  0.00000000000E+00  0.74505805969E-08  0.10566000000E+00  0.10566000000E+00 0. -1.
     999900   -1    0    0    0    0 -0.00000000000E+00 -0.00000000000E+00 -0.74505805969E-08  0.93827000000E+00  0.93827000000E+00 0. -1.
     999902    2    1    2    0    0 -0.62106707752E-03  0.15912264621E-01 -0.17172770247E-01  0.10205101382E+01  0.10202413696E+01 0.  0.
     999903    2    3    3    0    0  0.21610399561E-01  0.95160219855E-01  0.84767263295E-01  0.13081004997E+00  0.20082416077E-01 0.  0.
         14    1    1    2    0    0  0.62106707752E-03 -0.15912264621E-01  0.17172770247E-01  0.23419861819E-01  0.00000000000E+00 0. -1.
     999901    1    3    3    0    0 -0.22231466638E-01 -0.79247955234E-01 -0.10194003354E+00  0.88970008821E+00  0.88000000000E+00 0. -1.
        -11    1    4    4    0    0  0.12677799681E-01  0.18960593613E-01  0.21818650339E-01  0.31568106350E-01  0.51100000000E-03 0.  1.
         11    1    4    4    0    0  0.89325998796E-02  0.76199626242E-01  0.62948612956E-01  0.99241943623E-01  0.51100000000E-03 0. -1.
</event>
<event>
 8    1  0.1070112E+005  0.1043930E+01  0.7957747E-01            NaN
         13   -1    0    0    0    0  0.00000000000E+00  0.00000000000E+00  0.74505805969E-08  0.10566000000E+00  0.10566000000E+00 0. -1.
     999900   -1    0    0    0    0 -0.00000000000E+00 -0.00000000000E+00 -0.74505805969E-08  0.93827000000E+00  0.93827000000E+00 0. -1.
     999902    2    1    2    0    0 -0.44943857720E-02 -0.17342893922E-01  0.15090303139E-01  0.10205058090E+01  0.10202369399E+01 0.  0.
     999903    2    3    3    0    0 -0.12306221542E+00  0.34614364240E-01 -0.16174714681E-01  0.13048592823E+00  0.20554634393E-01 0.  0.
         14    1    1    2    0    0  0.44943857720E-02  0.17342893922E-01 -0.15090303139E-01  0.23424190954E-01  0.00000000000E+00 0.  1.
     999901    1    3    3    0    0  0.11856782965E+00 -0.51957258162E-01  0.31265017820E-01  0.89001988081E+00  0.88000000000E+00 0. -1.
        -11    1    4    4    0    0 -0.91292771520E-01  0.32837764952E-01 -0.17719805055E-01  0.98625258180E-01  0.51100000000E-03 0. -1.
         11    1    4    4    0    0 -0.31769443903E-01  0.17765992885E-02  0.15450903736E-02  0.31860670052E-01  0.51100000000E-03 0.  1.
</event>
<event>
 8    1  0.1070112E+005  0.1043930E+01  0.7957747E-01            NaN
         13   -1    0    0    0    0  0.00000000000E+00  0.00000000000E+00  0.74505805969E-08  0.10566000000E+00  0.10566000000E+00 0. -1.
     999900   -1    0    0    0    0 -0.00000000000E+00 -0.00000000000E+00 -0.74505805969E-08  0.93827000000E+00  0.93827000000E+00 0. -1.
     999902    2    1    2    0    0 -0.13844582222E-01 -0.28354478510E-02 -0.19604217781E-01  0.10197631306E+01  0.10194767310E+01 0.  0.
     999903    2    3    3    0    0  0.57716087287E-01  0.10997516640E+00  0.26301615635E-01  0.12849745212E+00  0.19852865309E-01 0.  0.
         14    1    1    2    0    0  0.13844582222E-01  0.28354478510E-02  0.19604217781E-01  0.24166869392E-01  0.00000000000E+00 0. -1.
     999901    1    3    3    0    0 -0.71560669509E-01 -0.11281061425E+00 -0.45905833416E-01  0.89126567849E+00  0.88000000000E+00 0. -1.
        -11    1    4    4    0    0  0.20833705385E-01  0.29348714512E-01  0.15455983105E-01  0.39173190555E-01  0.51100000000E-03 0. -1.
         11    1    4    4    0    0  0.36882381902E-01  0.80626451884E-01  0.10845632530E-01  0.89324261565E-01  0.51100000000E-03 0.  1.
</event>
<event>
 8    1  0.1070112E+005  0.1043930E+01  0.7957747E-01            NaN
         13   -1    0    0    0    0  0.00000000000E+00  0.00000000000E+00  0.74505805969E-08  0.10566000000E+00  0.10566000000E+00 0. -1.
     999900   -1    0    0    0    0 -0.00000000000E+00 -0.00000000000E+00 -0.74505805969E-08  0.93827000000E+00  0.93827000000E+00 0. -1.
     999902    2    1    2    0    0  0.13699290852E-01  0.15859296110E-01  0.12216620589E-01  0.10196723484E+01  0.10193837670E+01 0.  0.
     999903    2    3    3    0    0 -0.51945592490E-01 -0.74763797171E-01  0.90057268241E-01  0.12917756336E+00  0.16987094088E-01 0.  0.
         14    1    1    2    0    0 -0.13699290852E-01 -0.15859296110E-01 -0.12216620589E-01  0.24257651609E-01  0.00000000000E+00 0.  1.
     999901    1    3    3    0    0  0.65644883342E-01  0.90623093281E-01 -0.77840647651E-01  0.89049478503E+00  0.88000000000E+00 0.  1.
        -11    1    4    4    0    0 -0.42487652494E-01 -0.55000673931E-01  0.76729445265E-01  0.10352750185E+00  0.51100000000E-03 0.  1.
         11    1    4    4    0    0 -0.94579399967E-02 -0.19763123240E-01  0.13327822975E-01  0.25650061509E-01  0.51100000000E-03 0. -1.
</event>
<event>
 8    1  0.1070112E+005  0.1043930E+01  0.7957747E-01            NaN
         13   -1    0    0    0    0  0.00000000000E+00  0.00000000000E+00  0.74505805969E-08  0.10566000000E+00  0.10566000000E+00 0.  1.
     999900   -1    0    0    0    0 -0.00000000000E+00 -0.00000000000E+00 -0.74505805969E-08  0.93827000000E+00  0.93827000000E+00 0.  1.
     999902    2    1    2    0    0 -0.13878627331E-01 -0.10380239907E-01 -0.16836578648E-01  0.10197673003E+01  0.10194810006E+01 0.  0.
     999903    2    3    3    0    0  0.57670952672E-01 -0.11463762565E+00  0.10736525164E-01  0.13030160621E+00  0.19887473695E-01 0.  0.
         14    1    1    2    0    0  0.13878627331E-01  0.10380239907E-01  0.16836578648E-01  0.24162699719E-01  0.00000000000E+00 0.  1.
     999901    1    3    3    0    0 -0.71549580004E-01  0.10425738575E+00 -0.27573103812E-01  0.88946569407E+00  0.88000000000E+00 0. -1.
        -11    1    4    4    0    0  0.15237270423E-01 -0.45070093339E-01 -0.29527230037E-02  0.47670404001E-01  0.51100000000E-03 0. -1.
         11    1    4    4    0    0  0.42433682249E-01 -0.69567532314E-01  0.13689248168E-01  0.82631202205E-01  0.51100000000E-03 0.  1.
</event>
<event>
 8    1  0.1070112E+005  0.1043930E+01  0.7957747E-01            NaN
         13   -1    0    0    0    0  0.00000000000E+00  0.00000000000E+00  0.74505805969E-08  0.10566000000E+00  0.10566000000E+00 0. -1.
     999900   -1    0    0    0    0 -0.00000000000E+00 -0.00000000000E+00 -0.74505805969E-08  0.93827000000E+00  0.93827000000E+00 0. -1.
     999902    2    1    2    0    0  0.20229702781E-01  0.10194796168E-01 -0.14422921371E-02  0.10212307720E+01  0.10209784693E+01 0.  0.
     999903    2    3    3    0    0 -0.94449963814E-01 -0.68339663876E-01 -0.51266302814E-01  0.12892952280E+00  0.20086879371E-01 0.  0.
         14    1    1    2    0    0 -0.20229702781E-01 -0.10194796168E-01  0.14422921371E-02  0.22699227964E-01  0.00000000000E+00 0. -1.
     999901    1    3    3    0    0  0.11467966659E+00  0.78534460044E-01  0.49824010677E-01  0.89230124923E+00  0.88000000000E+00 0. -1.
        -11    1    4    4    0    0 -0.26945620244E-01 -0.31035457041E-01 -0.15764929159E-01  0.44023404644E-01  0.51100000000E-03 0. -1.
         11    1    4    4    0    0 -0.67504343570E-01 -0.37304206834E-01 -0.35501373655E-01  0.84906118158E-01  0.51100000000E-03 0.  1.
</event>
<event>
 8    1  0.1070112E+005  0.1043930E+01  0.7957747E-01            NaN
         13   -1    0    0    0    0  0.00000000000E+00  0.00000000000E+00  0.74505805969E-08  0.10566000000E+00  0.10566000000E+00 0. -1.
     999900   -1    0    0    0    0 -0.00000000000E+00 -0.00000000000E+00 -0.74505805969E-08  0.93827000000E+00  0.93827000000E+00 0. -1.
     999902    2    1    2    0    0 -0.18959506077E-01 -0.60263133380E-02 -0.13621612210E-01  0.10198192629E+01  0.10195342081E+01 0.  0.
     999903    2    3    3    0    0  0.10798361470E+00  0.20070349191E-01  0.60643477506E-01  0.12723263113E+00  0.21147839122E-01 0.  0.
         14    1    1    2    0    0  0.18959506077E-01  0.60263133380E-02  0.13621612210E-01  0.24110737076E-01  0.00000000000E+00 0. -1.
     999901    1    3    3    0    0 -0.12694312078E+00 -0.26096662529E-01 -0.74265089717E-01  0.89258663179E+00  0.88000000000E+00 0. -1.
        -11    1    4    4    0    0  0.70140721770E-01  0.32906772562E-02  0.42070041071E-01  0.81857796720E-01  0.51100000000E-03 0. -1.
         11    1    4    4    0    0  0.37842892931E-01  0.16779671935E-01  0.18573436435E-01  0.45374834409E-01  0.51100000000E-03 0.  1.
</event>
<event>
 8    1  0.1070112E+005  0.1043930E+01  0.7957747E-01            NaN
         13   -1    0    0    0    0  0.00000000000E+00  0.00000000000E+00  0.74505805969E-08  0.10566000000E+00  0.10566000000E+00 0. -1.
     999900   -1    0    0    0    0 -0.00000000000E+00 -0.00000000000E+00 -0.74505805969E-08  0.93827000000E+00  0.93827000000E+00 0. -1.
     999902    2    1    2    0    0  0.21823891297E-02  0.93445664246E-02 -0.22037453452E-01  0.10198939209E+01  0.10196106496E+01 0.  0.
     999903    2    3    3    0    0 -0.95088241216E-01  0.75953275322E-01  0.40542042630E-01  0.12982960358E+00  0.20034847037E-01 0.  0.
         14    1    1    2    0    0 -0.21823891297E-02 -0.93445664246E-02  0.22037453452E-01  0.24036079103E-01  0.00000000000E+00 0. -1.
     999901    1    3    3    0    0  0.97270630346E-01 -0.66608708897E-01 -0.62579496083E-01  0.89006431732E+00  0.88000000000E+00 0.  1.
        -11    1    4    4    0    0 -0.33201431458E-01  0.33739869517E-01  0.74100297075E-02  0.47915378608E-01  0.51100000000E-03 0. -1.
         11    1    4    4    0    0 -0.61886809758E-01  0.42213405805E-01  0.33132012923E-01  0.81914224973E-01  0.51100000000E-03 0.  1.
</event>
<event>
 8    1  0.1070112E+005  0.1043930E+01  0.7957747E-01            NaN
         13   -1    0    0    0    0  0.00000000000E+00  0.00000000000E+00  0.74505805969E-08  0.10566000000E+00  0.10566000000E+00 0. -1.
     999900   -1    0    0    0    0 -0.00000000000E+00 -0.00000000000E+00 -0.74505805969E-08  0.93827000000E+00  0.93827000000E+00 0.  1.
     999902    2    1    2    0    0 -0.21365598267E-01 -0.38463422232E-02  0.93837092230E-02  0.10202796906E+01  0.10200055440E+01 0.  0.
     999903    2    3    3    0    0 -0.77082529633E-01  0.53967579136E-01  0.91937920128E-01  0.13277643779E+00  0.17966226701E-01 0.  0.
         14    1    1    2    0    0  0.21365598267E-01  0.38463422232E-02 -0.93837092230E-02  0.23650309440E-01  0.00000000000E+00 0.  1.
     999901    1    3    3    0    0  0.55716931366E-01 -0.57813921359E-01 -0.82554210905E-01  0.88750325277E+00  0.88000000000E+00 0.  1.
        -11    1    4    4    0    0 -0.66981843229E-01  0.51750795868E-01  0.75927910304E-01  0.11371024967E+00  0.51100000000E-03 0.  1.
         11    1    4    4    0    0 -0.10100686403E-01  0.22167832678E-02  0.16010009824E-01  0.19066188120E-01  0.51100000000E-03 0. -1.
</event>
<event>
 8    1  0.1070112E+005  0.1043930E+01  0.7957747E-01            NaN
         13   -1    0    0    0    0  0.00000000000E+00  0.00000000000E+00  0.74505805969E-08  0.10566000000E+00  0.10566000000E+00 0. -1.
     999900   -1    0    0    0    0 -0.00000000000E+00 -0.00000000000E+00 -0.74505805969E-08  0.93827000000E+00  0.93827000000E+00 0.  1.
     999902    2    1    2    0    0 -0.14559952512E-01 -0.13929631608E-01 -0.53235195869E-02  0.10230885338E+01  0.10228762297E+01 0.  0.
     999903    2    3    3    0    0  0.11697371878E+00  0.52400145528E-01 -0.16210738888E-01  0.13077733381E+00  0.20280454792E-01 0.  0.
         14    1    1    2    0    0  0.14559952512E-01  0.13929631608E-01  0.53235195869E-02  0.20841466231E-01  0.00000000000E+00 0. -1.
     999901    1    3    3    0    0 -0.13153367130E+00 -0.66329777135E-01  0.10887219301E-01  0.89231119995E+00  0.88000000000E+00 0. -1.
        -11    1    4    4    0    0  0.58157505642E-01  0.15409105934E-01 -0.10315243689E-01  0.61044257564E-01  0.51100000000E-03 0.  1.
         11    1    4    4    0    0  0.58816213143E-01  0.36991039593E-01 -0.58954951987E-02  0.69733076251E-01  0.51100000000E-03 0. -1.
</event>
<event>
 8    1  0.1070112E+005  0.1043930E+01  0.7957747E-01            NaN
         13   -1    0    0    0    0  0.00000000000E+00  0.00000000000E+00  0.74505805969E-08  0.10566000000E+00  0.10566000000E+00 0.  1.
     999900   -1    0    0    0    0 -0.00000000000E+00 -0.00000000000E+00 -0.74505805969E-08  0.93827000000E+00  0.93827000000E+00 0.  1.
     999902    2    1    2    0    0  0.13527472778E-01  0.60776548004E-02 -0.12767277005E-02  0.10290450935E+01  0.10289374345E+01 0.  0.
     999903    2    3    3    0    0  0.40044636617E-01  0.74283118301E-01  0.10880139048E+00  0.13917300308E+00  0.20244199895E-01 0.  0.
         14    1    1    2    0    0 -0.13527472778E-01 -0.60776548004E-02  0.12767277005E-02  0.14884906491E-01  0.00000000000E+00 0.  1.
     999901    1    3    3    0    0 -0.26517163839E-01 -0.68205463501E-01 -0.11007811818E+00  0.88987209043E+00  0.88000000000E+00 0. -1.
        -11    1    4    4    0    0  0.27462074998E-01  0.58925121756E-01  0.69680349682E-01  0.95299253879E-01  0.51100000000E-03 0.  1.
         11    1    4    4    0    0  0.12582561619E-01  0.15357996545E-01  0.39121040795E-01  0.43873749197E-01  0.51100000000E-03 0. -1.
</event>
<event>
 8    1  0.1070112E+005  0.1043930E+01  0.7957747E-01            NaN
         13   -1    0    0    0    0  0.00000000000E+00  0.00000000000E+00  0.74505805969E-08  0.10566000000E+00  0.10566000000E+00 0.  1.
     999900   -1    0    0    0    0 -0.00000000000E+00 -0.00000000000E+00 -0.74505805969E-08  0.93827000000E+00  0.93827000000E+00 0. -1.
     999902    2    1    2    0    0  0.37196066443E-02  0.74431891421E-02  0.22309846876E-01  0.10201189562E+01  0.10198410264E+01 0.  0.
     999903    2    3    3    0    0  0.67865277480E-01 -0.96287054382E-01 -0.48456856106E-01  0.12889364422E+00  0.19713241406E-01 0.  0.
         14    1    1    2    0    0 -0.37196066443E-02 -0.74431891421E-02 -0.22309846876E-01  0.23811043778E-01  0.00000000000E+00 0. -1.
     999901    1    3    3    0    0 -0.64145670835E-01  0.10373024352E+00  0.70766702982E-01  0.89122531201E+00  0.88000000000E+00 0.  1.
        -11    1    4    4    0    0  0.16468373234E-01 -0.36980080355E-01 -0.11118602468E-01  0.41983545609E-01  0.51100000000E-03 0.  1.
         11    1    4    4    0    0  0.51396904245E-01 -0.59306974027E-01 -0.37338253638E-01  0.86910098608E-01  0.51100000000E-03 0. -1.
</event>
<event>
 8    1  0.1070112E+005  0.1043930E+01  0.7957747E-01            NaN
         13   -1    0    0    0    0  0.00000000000E+00  0.00000000000E+00  0.74505805969E-08  0.10566000000E+00  0.10566000000E+00 0.  1.
     999900   -1    0    0    0    0 -0.00000000000E+00 -0.00000000000E+00 -0.74505805969E-08  0.93827000000E+00  0.93827000000E+00 0. -1.
     999902    2    1    2    0    0 -0.13636581523E-01  0.17988993640E-01 -0.67892695008E-02  0.10203576766E+01  0.10200853562E+01 0.  0.
     999903    2    3    3    0    0  0.32094791285E-01  0.92760733504E-01  0.84842375346E-01  0.13126908158E+00  0.19967819544E-01 0.  0.
         14    1    1    2    0    0  0.13636581523E-01 -0.17988993640E-01  0.67892695008E-02  0.23572323351E-01  0.00000000000E+00 0.  1.
     999901    1    3    3    0    0 -0.45731372807E-01 -0.74771739863E-01 -0.91631644846E-01  0.88908859507E+00  0.88000000000E+00 0. -1.
        -11    1    4    4    0    0  0.20776115498E-01  0.40173327485E-01  0.28989779981E-01  0.53723474206E-01  0.51100000000E-03 0.  1.
         11    1    4    4    0    0  0.11318675786E-01  0.52587406018E-01  0.55852595365E-01  0.77545607376E-01  0.51100000000E-03 0. -1.
</event>
<event>
 8    1  0.1070112E+005  0.1043930E+01  0.7957747E-01            NaN
         13   -1    0    0    0    0  0.00000000000E+00  0.00000000000E+00  0.74505805969E-08  0.10566000000E+00  0.10566000000E+00 0. -1.
     999900   -1    0    0    0    0 -0.00000000000E+00 -0.00000000000E+00 -0.74505805969E-08  0.93827000000E+00  0.93827000000E+00 0. -1.
     999902    2    1    2    0    0 -0.84735727460E-02  0.84282824551E-02 -0.19961267335E-01  0.10206643693E+01  0.10203991695E+01 0.  0.
     999903    2    3    3    0    0  0.10082839490E-01 -0.14589769938E-02 -0.13151585600E+00  0.13337268971E+00  0.19699282099E-01 0.  0.
         14    1    1    2    0    0  0.84735727460E-02 -0.84282824551E-02  0.19961267335E-01  0.23265630743E-01  0.00000000000E+00 0. -1.
     999901    1    3    3    0    0 -0.18556412236E-01  0.98872594489E-02  0.11155458867E+00  0.88729167954E+00  0.88000000000E+00 0.  1.
        -11    1    4    4    0    0  0.23218287739E-02 -0.92442675354E-02 -0.36724068706E-01  0.37944244813E-01  0.51100000000E-03 0. -1.
         11    1    4    4    0    0  0.77610107165E-02  0.77852905416E-02 -0.94791787297E-01  0.95428444901E-01  0.51100000000E-03 0.  1.
</event>
<event>
 8    1  0.1070112E+005  0.1043930E+01  0.7957747E-01            NaN
         13   -1    0    0    0    0  0.00000000000E+00  0.00000000000E+00  0.74505805969E-08  0.10566000000E+00  0.10566000000E+00 0. -1.
     999900   -1    0    0    0    0 -0.00000000000E+00 -0.00000000000E+00 -0.74505805969E-08  0.93827000000E+00  0.93827000000E+00 0. -1.
     999902    2    1    2    0    0  0.66352810005E-02  0.15501134530E-01 -0.16004644417E-01  0.10206821879E+01  0.10204173989E+01 0.  0.
     999903    2    3    3    0    0 -0.12151318600E+00 -0.97437999903E-02  0.38257495962E-01  0.12938890495E+00  0.20431757548E-01 0.  0.
         14    1    1    2    0    0 -0.66352810005E-02 -0.15501134530E-01  0.16004644417E-01  0.23247812124E-01  0.00000000000E+00 0. -1.
     999901    1    3    3    0    0  0.12814846700E+00  0.25244934520E-01 -0.54262140379E-01  0.89129328293E+00  0.88000000000E+00 0.  1.
        -11    1    4    4    0    0 -0.93788973233E-01  0.85228384719E-03  0.31525856452E-01  0.98950687890E-01  0.51100000000E-03 0.  1.
         11    1    4    4    0    0 -0.27724212766E-01 -0.10596083837E-01  0.67316395105E-02  0.30438217058E-01  0.51100000000E-03 0. -1.
</event>
<event>
 8    1  0.1070112E+005  0.1043930E+01  0.7957747E-01            NaN
         13   -1    0    0    0    0  0.00000000000E+00  0.00000000000E+00  0.74505805969E-08  0.10566000000E+00  0.10566000000E+00 0.  1.
     999900   -1    0    0    0    0 -0.00000000000E+00 -0.00000000000E+00 -0.74505805969E-08  0.93827000000E+00  0.93827000000E+00 0. -1.
     999902    2    1    2    0    0  0.21903558239E-01  0.39797134563E-02  0.76763542104E-02  0.10203815309E+01  0.10201097677E+01 0.  0.
     999903    2    3    3    0    0 -0.56911826629E-01 -0.42396090156E-01 -0.10491169161E+00  0.12850785817E+00  0.21712257038E-01 0.  0.
         14    1    1    2    0    0 -0.21903558239E-01 -0.39797134563E-02 -0.76763542104E-02  0.23548469095E-01  0.00000000000E+00 0. -1.
     999901    1    3    3    0    0  0.78815384868E-01  0.46375803612E-01  0.11258804582E+00  0.89187367273E+00  0.88000000000E+00 0.  1.
        -11    1    4    4    0    0 -0.39536037526E-01 -0.32830466881E-01 -0.57544411250E-01  0.77152823707E-01  0.51100000000E-03 0. -1.
         11    1    4    4    0    0 -0.17375789102E-01 -0.95656232750E-02 -0.47367280357E-01  0.51355034466E-01  0.51100000000E-03 0.  1.
</event>
<event>
 8    1  0.1070112E+005  0.1043930E+01  0.7957747E-01            NaN
         13   -1    0    0    0    0  0.00000000000E+00  0.00000000000E+00  0.74505805969E-08  0.10566000000E+00  0.10566000000E+00 0. -1.
     999900   -1    0    0    0    0 -0.00000000000E+00 -0.00000000000E+00 -0.74505805969E-08  0.93827000000E+00  0.93827000000E+00 0. -1.
     999902    2    1    2    0    0  0.17865786328E-01 -0.14811850576E-01 -0.32676335523E-02  0.10204938171E+01  0.10202246694E+01 0.  0.
     999903    2    3    3    0    0  0.24933446670E-01 -0.73336575648E-01 -0.10546905136E+00  0.13261982547E+00  0.21549181461E-01 0.  0.
         14    1    1    2    0    0 -0.17865786328E-01  0.14811850576E-01  0.32676335523E-02  0.23436182873E-01  0.00000000000E+00 0. -1.
     999901    1    3    3    0    0 -0.70676603421E-02  0.58524725071E-01  0.10220141781E+00  0.88787399166E+00  0.88000000000E+00 0.  1.
        -11    1    4    4    0    0  0.15885826586E-01 -0.67479109612E-01 -0.94814794443E-01  0.11745593253E+00  0.51100000000E-03 0.  1.
         11    1    4    4    0    0  0.90476200838E-02 -0.58574660362E-02 -0.10654256914E-01  0.15163892935E-01  0.51100000000E-03 0. -1.
</event>
<event>
 8    1  0.1070112E+005  0.1043930E+01  0.7957747E-01            NaN
         13   -1    0    0    0    0  0.00000000000E+00  0.00000000000E+00  0.74505805969E-08  0.10566000000E+00  0.10566000000E+00 0. -1.
     999900   -1    0    0    0    0 -0.00000000000E+00 -0.00000000000E+00 -0.74505805969E-08  0.93827000000E+00  0.93827000000E+00 0.  1.
     999902    2    1    2    0    0  0.16057902313E-01  0.73071754073E-02  0.10382854581E-01  0.10234591742E+01  0.10232544291E+01 0.  0.
     999903    2    3    3    0    0  0.84299926838E-01  0.96983818027E-01  0.39261097711E-01  0.13580336982E+00  0.19717576874E-01 0.  0.
         14    1    1    2    0    0 -0.16057902313E-01 -0.73071754073E-02 -0.10382854581E-01  0.20470825787E-01  0.00000000000E+00 0. -1.
     999901    1    3    3    0    0 -0.68242024524E-01 -0.89676642620E-01 -0.28878243130E-01  0.88765580439E+00  0.88000000000E+00 0.  1.
        -11    1    4    4    0    0  0.63009962345E-01  0.73682456706E-01  0.38237922321E-01  0.10421976591E+00  0.51100000000E-03 0. -1.
         11    1    4    4    0    0  0.21289964492E-01  0.23301361321E-01  0.10231753894E-02  0.31583603916E-01  0.51100000000E-03 0.  1.
</event>
<event>
 8    1  0.1070112E+005  0.1043930E+01  0.7957747E-01            NaN
         13   -1    0    0    0    0  0.00000000000E+00  0.00000000000E+00  0.74505805969E-08  0.10566000000E+00  0.10566000000E+00 0. -1.
     999900   -1    0    0    0    0 -0.00000000000E+00 -0.00000000000E+00 -0.74505805969E-08  0.93827000000E+00  0.93827000000E+00 0. -1.
     999902    2    1    2    0    0  0.15495519378E-01  0.81959389107E-02  0.15684182028E-01  0.10204081357E+01  0.10201369934E+01 0.  0.
     999903    2    3    3    0    0  0.20927099597E-01  0.41907838392E-01 -0.11900975534E+00  0.12950496978E+00  0.20347110763E-01 0.  0.
         14    1    1    2    0    0 -0.15495519378E-01 -0.81959389107E-02 -0.15684182028E-01  0.23521864325E-01  0.00000000000E+00 0. -1.
     999901    1    3    3    0    0 -0.54315802182E-02 -0.33711899481E-01  0.13469393737E+00  0.89090316589E+00  0.88000000000E+00 0.  1.
        -11    1    4    4    0    0  0.14664415923E-01  0.34255165575E-01 -0.10991425851E+00  0.11605975534E+00  0.51100000000E-03 0.  1.
         11    1    4    4    0    0  0.62626836736E-02  0.76526728171E-02 -0.90954968264E-02  0.13445214448E-01  0.51100000000E-03 0. -1.
</event>
<event>
 7    1  0.1070112E+005  0.1043930E+01  0.7957747E-01            NaN
         13   -1    0    0    0    0  0.00000000000E+00  0.00000000000E+00  0.74505805969E-08  0.10566000000E+00  0.10566000000E+00 0. -1.
     999900   -1    0    0    0    0 -0.00000000000E+00 -0.00000000000E+00 -0.74505805969E-08  0.93827000000E+00  0.93827000000E+00 0.  1.
     999903    2    1    2    0    0 -0.90355284188E-02 -0.20508872695E-01  0.63326203183E-01  0.70122263839E-01  0.20116392403E-01 0.  0.
         14    1    1    2    0    0 -0.72492339960E-01 -0.27897742717E-01  0.31146138020E-01  0.83686948296E-01  0.00000000000E+00 0.  1.
     999901    1    1    2    0    0  0.81527868379E-01  0.48406615412E-01 -0.94472341202E-01  0.89012078787E+00  0.88000000000E+00 0.  1.
        -11    1    3    3    0    0 -0.54350452860E-02 -0.17226405495E-02  0.37743325080E-01  0.38174951432E-01  0.51100000000E-03 0.  1.
         11    1    3    3    0    0 -0.36004831328E-02 -0.18786232145E-01  0.25582878102E-01  0.31947312407E-01  0.51100000000E-03 0. -1.
</event>
<event>
 8    1  0.1070112E+005  0.1043930E+01  0.7957747E-01            NaN
         13   -1    0    0    0    0  0.00000000000E+00  0.00000000000E+00  0.74505805969E-08  0.10566000000E+00  0.10566000000E+00 0.  1.
     999900   -1    0    0    0    0 -0.00000000000E+00 -0.00000000000E+00 -0.74505805969E-08  0.93827000000E+00  0.93827000000E+00 0.  1.
     999902    2    1    2    0    0 -0.19027119384E-01  0.40246519969E-02  0.14153331418E-01  0.10198770192E+01  0.10195933446E+01 0.  0.
     999903    2    3    3    0    0  0.11336781292E-01  0.89638017931E-01  0.93727807773E-01  0.13162946801E+00  0.19440113918E-01 0.  0.
         14    1    1    2    0    0  0.19027119384E-01 -0.40246519969E-02 -0.14153331418E-01  0.24052980812E-01  0.00000000000E+00 0.  1.
     999901    1    3    3    0    0 -0.30363900676E-01 -0.85613365934E-01 -0.79574476356E-01  0.88824755118E+00  0.88000000000E+00 0. -1.
        -11    1    4    4    0    0 -0.42931601514E-04  0.50308426544E-01  0.61906341729E-01  0.79772149850E-01  0.51100000000E-03 0. -1.
         11    1    4    4    0    0  0.11379712893E-01  0.39329591388E-01  0.31821466045E-01  0.51857318157E-01  0.51100000000E-03 0.  1.
</event>
<event>
 8    1  0.1070112E+005  0.1043930E+01  0.7957747E-01            NaN
         13   -1    0    0    0    0  0.00000000000E+00  0.00000000000E+00  0.74505805969E-08  0.10566000000E+00  0.10566000000E+00 0. -1.
     999900   -1    0    0    0    0 -0.00000000000E+00 -0.00000000000E+00 -0.74505805969E-08  0.93827000000E+00  0.93827000000E+00 0.  1.
     999902    2    1    2    0    0 -0.17882758678E-01 -0.75430167129E-02 -0.13982117071E-01  0.10200095118E+01  0.10197289906E+01 0.  0.
     999903    2    3    3    0    0 -0.50828631384E-01 -0.79026294620E-01  0.88481417300E-01  0.13057482310E+00  0.19801974901E-01 0.  0.
         14    1    1    2    0    0  0.17882758678E-01  0.75430167129E-02  0.13982117071E-01  0.23920488224E-01  0.00000000000E+00 0.  1.
     999901    1    3    3    0    0  0.32945872706E-01  0.71483277907E-01 -0.10246353437E+00  0.88943468868E+00  0.88000000000E+00 0.  1.
        -11    1    4    4    0    0 -0.37939798571E-01 -0.71720800269E-01  0.76468593408E-01  0.11149443217E+00  0.51100000000E-03 0.  1.
         11    1    4    4    0    0 -0.12888832813E-01 -0.73054943511E-02  0.12012823892E-01  0.19080390925E-01  0.51100000000E-03 0. -1.
</event>
<event>
 8    1  0.1070112E+005  0.1043930E+01  0.7957747E-01            NaN
         13   -1    0    0    0    0  0.00000000000E+00  0.00000000000E+00  0.74505805969E-08  0.10566000000E+00  0.10566000000E+00 0.  1.
     999900   -1    0    0    0    0 -0.00000000000E+00 -0.00000000000E+00 -0.74505805969E-08  0.93827000000E+00  0.93827000000E+00 0. -1.
     999902    2    1    2    0    0 -0.46675842213E-02 -0.20914295370E-01  0.10180407202E-01  0.10202058607E+01  0.10199299797E+01 0.  0.
     999903    2    3    3    0    0 -0.94329498732E-01 -0.69233756105E-01  0.59799510672E-01  0.13294260519E+00  0.20159054624E-01 0.  0.
         14    1    1    2    0    0  0.46675842213E-02  0.20914295370E-01 -0.10180407202E-01  0.23724139269E-01  0.00000000000E+00 0.  1.
     999901    1    3    3    0    0  0.89661914510E-01  0.48319460736E-01 -0.49619103470E-01  0.88726325554E+00  0.88000000000E+00 0. -1.
        -11    1    4    4    0    0 -0.49938763856E-01 -0.24541319704E-01  0.25400803585E-01  0.61168770235E-01  0.51100000000E-03 0.  1.
         11    1    4    4    0    0 -0.44390734876E-01 -0.44692436401E-01  0.34398707086E-01  0.71773834957E-01  0.51100000000E-03 0. -1.
</event>
<event>
 8    1  0.1070112E+005  0.1043930E+01  0.7957747E-01            NaN
         13   -1    0    0    0    0  0.00000000000E+00  0.00000000000E+00  0.74505805969E-08  0.10566000000E+00  0.10566000000E+00 0.  1.
     999900   -1    0    0    0    0 -0.00000000000E+00 -0.00000000000E+00 -0.74505805969E-08  0.93827000000E+00  0.93827000000E+00 0. -1.
     999902    2    1    2    0    0  0.21231959811E-01 -0.68814143156E-02 -0.60414056380E-02  0.10208075312E+01  0.10205456223E+01 0.  0.
     999903    2    3    3    0    0  0.10262446271E+00 -0.63039730067E-01  0.53445124856E-01  0.13327322582E+00  0.19989583188E-01 0.  0.
         14    1    1    2    0    0 -0.21231959811E-01  0.68814143156E-02  0.60414056380E-02  0.23122468780E-01  0.00000000000E+00 0.  1.
     999901    1    3    3    0    0 -0.81392502896E-01  0.56158315752E-01 -0.59486530494E-01  0.88753430540E+00  0.88000000000E+00 0. -1.
        -11    1    4    4    0    0  0.19664094252E-02  0.14203712158E-02  0.17986144788E-02  0.30627365969E-02  0.51100000000E-03 0.  1.
         11    1    4    4    0    0  0.10065805328E+00 -0.64460101283E-01  0.51646510377E-01  0.13021048922E+00  0.51100000000E-03 0. -1.
</event>
<event>
 8    1  0.1070112E+005  0.1043930E+01  0.7957747E-01            NaN
         13   -1    0    0    0    0  0.00000000000E+00  0.00000000000E+00  0.74505805969E-08  0.10566000000E+00  0.10566000000E+00 0.  1.
     999900   -1    0    0    0    0 -0.00000000000E+00 -0.00000000000E+00 -0.74505805969E-08  0.93827000000E+00  0.93827000000E+00 0. -1.
     999902    2    1    2    0    0  0.17072659391E-01  0.14261156785E-01 -0.82815061597E-02  0.10201931166E+01  0.10199169356E+01 0.  0.
     999903    2    3    3    0    0  0.91387154246E-01  0.71404018371E-01 -0.63141651000E-01  0.13351527975E+00  0.19731093135E-01 0.  0.
         14    1    1    2    0    0 -0.17072659391E-01 -0.14261156785E-01  0.82815061597E-02  0.23736883448E-01  0.00000000000E+00 0.  1.
     999901    1    3    3    0    0 -0.74314494855E-01 -0.57142861586E-01  0.54860144840E-01  0.88667783680E+00  0.88000000000E+00 0.  1.
        -11    1    4    4    0    0  0.16682541832E-01  0.20371200309E-01 -0.21127092442E-01  0.33762525973E-01  0.51100000000E-03 0.  1.
         11    1    4    4    0    0  0.74704612414E-01  0.51032818062E-01 -0.42014558558E-01  0.99752753782E-01  0.51100000000E-03 0. -1.
</event>
<event>
 8    1  0.1070112E+005  0.1043930E+01  0.7957747E-01            NaN
         13   -1    0    0    0    0  0.00000000000E+00  0.00000000000E+00  0.74505805969E-08  0.10566000000E+00  0.10566000000E+00 0.  1.
     999900   -1    0    0    0    0 -0.00000000000E+00 -0.00000000000E+00 -0.74505805969E-08  0.93827000000E+00  0.93827000000E+00 0. -1.
     999902    2    1    2    0    0  0.63657451430E-03 -0.18766451029E-01 -0.13768729273E-01  0.10206456100E+01  0.10203799775E+01 0.  0.
     999903    2    3    3    0    0  0.24813108233E-01  0.99853283242E-01 -0.77167551232E-01  0.13009827451E+00  0.19605140983E-01 0.  0.
         14    1    1    2    0    0 -0.63657451430E-03  0.18766451029E-01  0.13768729273E-01  0.23284389989E-01  0.00000000000E+00 0.  1.
     999901    1    3    3    0    0 -0.24176533719E-01 -0.11861973427E+00  0.63398821959E-01  0.89054733550E+00  0.88000000000E+00 0.  1.
        -11    1    4    4    0    0  0.57995045572E-02  0.29635078135E-01 -0.34123740217E-01  0.45569319466E-01  0.51100000000E-03 0. -1.
         11    1    4    4    0    0  0.19013603676E-01  0.70218205107E-01 -0.43043811015E-01  0.84528955045E-01  0.51100000000E-03 0.  1.
</event>
<event>
 8    1  0.1070112E+005  0.1043930E+01  0.7957747E-01            NaN
         13   -1    0    0    0    0  0.00000000000E+00  0.00000000000E+00  0.74505805969E-08  0.10566000000E+00  0.10566000000E+00 0.  1.
     999900   -1    0    0    0    0 -0.00000000000E+00 -0.00000000000E+00 -0.74505805969E-08  0.93827000000E+00  0.93827000000E+00 0.  1.
     999902    2    1    2    0    0 -0.50791243013E-02  0.17934581495E-01  0.15172884123E-01  0.10198953764E+01  0.10196121399E+01 0.  0.
     999903    2    3    3    0    0 -0.35565683977E-01 -0.12041239556E+00  0.20423600688E-01  0.12854982818E+00  0.18543785470E-01 0.  0.
         14    1    1    2    0    0  0.50791243013E-02 -0.17934581495E-01 -0.15172884123E-01  0.24034623560E-01  0.00000000000E+00 0. -1.
     999901    1    3    3    0    0  0.30486559675E-01  0.13834697705E+00 -0.52507165654E-02  0.89134554826E+00  0.88000000000E+00 0.  1.
        -11    1    4    4    0    0 -0.22892482358E-01 -0.79213435794E-01  0.44442697584E-02  0.82576309032E-01  0.51100000000E-03 0. -1.
         11    1    4    4    0    0 -0.12673201619E-01 -0.41198959762E-01  0.15979330930E-01  0.45973519147E-01  0.51100000000E-03 0.  1.
</event>
<event>
 8    1  0.1070112E+005  0.1043930E+01  0.7957747E-01            NaN
         13   -1    0    0    0    0  0.00000000000E+00  0.00000000000E+00  0.74505805969E-08  0.10566000000E+00  0.10566000000E+00 0.  1.
     999900   -1    0    0    0    0 -0.00000000000E+00 -0.00000000000E+00 -0.74505805969E-08  0.93827000000E+00  0.93827000000E+00 0. -1.
     999902    2    1    2    0    0 -0.95686825485E-02 -0.18611740576E-01 -0.10943976065E-01  0.10203137517E+01  0.10200404034E+01 0.  0.
     999903    2    3    3    0    0  0.96533870738E-01 -0.54094860281E-01 -0.65794818203E-01  0.13153626631E+00  0.26977567431E-01 0.  0.
         14    1    1    2    0    0  0.95686825485E-02  0.18611740576E-01  0.10943976065E-01  0.23616248328E-01  0.00000000000E+00 0.  1.
     999901    1    3    3    0    0 -0.10610255329E+00  0.35483119705E-01  0.54850842138E-01  0.88877748536E+00  0.88000000000E+00 0.  1.
        -11    1    4    4    0    0  0.38686620621E-01 -0.34901243675E-01 -0.22403176637E-01  0.56717853182E-01  0.51100000000E-03 0.  1.
         11    1    4    4    0    0  0.57847250117E-01 -0.19193616606E-01 -0.43391641566E-01  0.74818413130E-01  0.51100000000E-03 0. -1.
</event>
<event>
 8    1  0.1070112E+005  0.1043930E+01  0.7957747E-01            NaN
         13   -1    0    0    0    0  0.00000000000E+00  0.00000000000E+00  0.74505805969E-08  0.10566000000E+00  0.10566000000E+00 0. -1.
     999900   -1    0    0    0    0 -0.00000000000E+00 -0.00000000000E+00 -0.74505805969E-08  0.93827000000E+00  0.93827000000E+00 0. -1.
     999902    2    1    2    0    0 -0.15965819874E-01  0.12153739491E-02  0.17542744260E-01  0.10201785282E+01  0.10199020036E+01 0.  0.
     999903    2    3    3    0    0 -0.10034860341E+00  0.83624425772E-01  0.39946224240E-03  0.13214384523E+00  0.19973719471E-01 0.  0.
         14    1    1    2    0    0  0.15965819874E-01 -0.12153739491E-02 -0.17542744260E-01  0.23751471833E-01  0.00000000000E+00 0.  1.
     999901    1    3    3    0    0  0.84382783539E-01 -0.82409051823E-01  0.17143282018E-01  0.88803468294E+00  0.88000000000E+00 0.  1.
        -11    1    4    4    0    0 -0.38848053196E-01  0.44401494381E-01 -0.34219206010E-02  0.59098516072E-01  0.51100000000E-03 0. -1.
         11    1    4    4    0    0 -0.61500550217E-01  0.39222931391E-01  0.38213828434E-02  0.73045329158E-01  0.51100000000E-03 0.  1.
</event>
<event>
 8    1  0.1070112E+005  0.1043930E+01  0.7957747E-01            NaN
         13   -1    0    0    0    0  0.00000000000E+00  0.00000000000E+00  0.74505805969E-08  0.10566000000E+00  0.10566000000E+00 0.  1.
     999900   -1    0    0    0    0 -0.00000000000E+00 -0.00000000000E+00 -0.74505805969E-08  0.93827000000E+00  0.93827000000E+00 0. -1.
     999902    2    1    2    0    0  0.28893918235E-02 -0.14487899975E-01  0.18573132861E-01  0.10201979732E+01  0.10199219066E+01 0.  0.
     999903    2    3    3    0    0  0.41059604789E-01  0.98415058786E-01  0.73313807469E-01  0.13047858785E+00  0.16683302411E-01 0.  0.
         14    1    1    2    0    0 -0.28893918235E-02  0.14487899975E-01 -0.18573132861E-01  0.23732026780E-01  0.00000000000E+00 0. -1.
     999901    1    3    3    0    0 -0.38170212965E-01 -0.11290295876E+00 -0.54740674608E-01  0.88971938537E+00  0.88000000000E+00 0. -1.
        -11    1    4    4    0    0  0.17106986984E-01  0.62189276324E-01  0.43511588943E-01  0.77805363482E-01  0.51100000000E-03 0. -1.
         11    1    4    4    0    0  0.23952617805E-01  0.36225782462E-01  0.29802218527E-01  0.52673224363E-01  0.51100000000E-03 0.  1.
</event>
<event>
 8    1  0.1070112E+005  0.1043930E+01  0.7957747E-01            NaN
         13   -1    0    0    0    0  0.00000000000E+00  0.00000000000E+00  0.74505805969E-08  0.10566000000E+00  0.10566000000E+00 0. -1.
     999900   -1    0    0    0    0 -0.00000000000E+00 -0.00000000000E+00 -0.74505805969E-08  0.93827000000E+00  0.93827000000E+00 0. -1.
     999902    2    1    2    0    0 -0.16497899936E-01 -0.11139948403E-01  0.13025311244E-01  0.10201405510E+01  0.10198631309E+01 0.  0.
     999903    2    3    3    0    0 -0.10060829989E+00  0.78667636556E-01 -0.20607845543E-01  0.13094363748E+00  0.20271306126E-01 0.  0.
         14    1    1    2    0    0  0.16497899936E-01  0.11139948403E-01 -0.13025311244E-01  0.23789449042E-01  0.00000000000E+00 0. -1.
     999901    1    3    3    0    0  0.84110399951E-01 -0.89807584959E-01  0.33633156787E-01  0.88919691347E+00  0.88000000000E+00 0.  1.
        -11    1    4    4    0    0 -0.72295276551E-01  0.67375595193E-01 -0.15969503928E-01  0.10010676309E+00  0.51100000000E-03 0.  1.
         11    1    4    4    0    0 -0.28313023336E-01  0.11292041363E-01 -0.46383416147E-02  0.30836874396E-01  0.51100000000E-03 0. -1.
</event>
<event>
 8    1  0.1070112E+005  0.1043930E+01  0.7957747E-01            NaN
         13   -1    0    0    0    0  0.00000000000E+00  0.00000000000E+00  0.74505805969E-08  0.10566000000E+00  0.10566000000E+00 0. -1.
     999900   -1    0    0    0    0 -0.00000000000E+00 -0.00000000000E+00 -0.74505805969E-08  0.93827000000E+00  0.93827000000E+00 0. -1.
     999902    2    1    2    0    0  0.24130245870E-02 -0.11989466027E-01  0.19979960553E-01  0.10205041850E+01  0.10202352782E+01 0.  0.
     999903    2    3    3    0    0 -0.44950526442E-01 -0.89323318168E-01  0.86102525200E-01  0.13337622120E+00  0.19400168556E-01 0.  0.
         14    1    1    2    0    0 -0.24130245870E-02  0.11989466027E-01 -0.19979960553E-01  0.23425814969E-01  0.00000000000E+00 0.  1.
     999901    1    3    3    0    0  0.47363551029E-01  0.77333852142E-01 -0.66122564647E-01  0.88712796383E+00  0.88000000000E+00 0. -1.
        -11    1    4    4    0    0 -0.15117345573E-01 -0.50246904124E-01  0.48833007447E-01  0.71681303340E-01  0.51100000000E-03 0. -1.
         11    1    4    4    0    0 -0.29833180869E-01 -0.39076414045E-01  0.37269517754E-01  0.61694917861E-01  0.51100000000E-03 0.  1.
</event>
<event>
 8    1  0.1070112E+005  0.1043930E+01  0.7957747E-01            NaN
         13   -1    0    0    0    0  0.00000000000E+00  0.00000000000E+00  0.74505805969E-08  0.10566000000E+00  0.10566000000E+00 0.  1.
     999900   -1    0    0    0    0 -0.00000000000E+00 -0.00000000000E+00 -0.74505805969E-08  0.93827000000E+00  0.93827000000E+00 0. -1.
     999902    2    1    2    0    0 -0.16273671359E-01 -0.16846920612E-01  0.45810111509E-02  0.10200629353E+01  0.10197836806E+01 0.  0.
     999903    2    3    3    0    0 -0.35123315691E-01  0.42501022191E-01  0.11684513836E+00  0.13074818694E+00  0.20057862248E-01 0.  0.
         14    1    1    2    0    0  0.16273671359E-01  0.16846920612E-01 -0.45810111509E-02  0.23867064687E-01  0.00000000000E+00 0. -1.
     999901    1    3    3    0    0  0.18849644332E-01 -0.59347942803E-01 -0.11226412721E+00  0.88931474837E+00  0.88000000000E+00 0. -1.
        -11    1    4    4    0    0 -0.12877337176E-01  0.12775351731E-01  0.19880716429E-01  0.26917270131E-01  0.51100000000E-03 0. -1.
         11    1    4    4    0    0 -0.22245978515E-01  0.29725670460E-01  0.96964421934E-01  0.10383091681E+00  0.51100000000E-03 0.  1.
</event>
<event>
 8    1  0.1070112E+005  0.1043930E+01  0.7957747E-01            NaN
         13   -1    0    0    0    0  0.00000000000E+00  0.00000000000E+00  0.74505805969E-08  0.10566000000E+00  0.10566000000E+00 0.  1.
     999900   -1    0    0    0    0 -0.00000000000E+00 -0.00000000000E+00 -0.74505805969E-08  0.93827000000E+00  0.93827000000E+00 0. -1.
     999902    2    1    2    0    0  0.58369454092E-02 -0.89356284710E-02 -0.20612156398E-01  0.10207184430E+01  0.10204544887E+01 0.  0.
     999903    2    3    3    0    0  0.45872565068E-01  0.88635959003E-01  0.79069751117E-01  0.12883305337E+00  0.19629178370E-01 0.  0.
         14    1    1    2    0    0 -0.58369454092E-02  0.89356284710E-02  0.20612156398E-01  0.23211557019E-01  0.00000000000E+00 0.  1.
     999901    1    3    3    0    0 -0.40035619658E-01 -0.97571587474E-01 -0.99681907515E-01  0.89188538962E+00  0.88000000000E+00 0.  1.
        -11    1    4    4    0    0  0.17492240900E-01  0.17726807022E-01  0.24693666129E-01  0.35075011715E-01  0.51100000000E-03 0.  1.
         11    1    4    4    0    0  0.28380324168E-01  0.70909151981E-01  0.54376084988E-01  0.93758041651E-01  0.51100000000E-03 0. -1.
</event>
<event>
 8    1  0.1070112E+005  0.1043930E+01  0.7957747E-01            NaN
         13   -1    0    0    0    0  0.00000000000E+00  0.00000000000E+00  0.74505805969E-08  0.10566000000E+00  0.10566000000E+00 0. -1.
     999900   -1    0    0    0    0 -0.00000000000E+00 -0.00000000000E+00 -0.74505805969E-08  0.93827000000E+00  0.93827000000E+00 0. -1.
     999902    2    1    2    0    0  0.43854693844E-02  0.85988880262E-02  0.18815888315E-01  0.10227826392E+01  0.10225639912E+01 0.  0.
     999903    2    3    3    0    0 -0.10577238885E-01 -0.82989538142E-01 -0.97789373899E-01  0.13025302643E+00  0.20098453232E-01 0.  0.
         14    1    1    2    0    0 -0.43854693844E-02 -0.85988880262E-02 -0.18815888315E-01  0.21147360830E-01  0.00000000000E+00 0.  1.
     999901    1    3    3    0    0  0.14962708269E-01  0.91588426168E-01  0.11660526221E+00  0.89252961274E+00  0.88000000000E+00 0. -1.
        -11    1    4    4    0    0 -0.87575856807E-02 -0.12856597845E-01 -0.22312259696E-01  0.27204511921E-01  0.51100000000E-03 0. -1.
         11    1    4    4    0    0 -0.18196532041E-02 -0.70132940297E-01 -0.75477114203E-01  0.10304851451E+00  0.51100000000E-03 0.  1.
</event>
<event>
 8    1  0.1070112E+005  0.1043930E+01  0.7957747E-01            NaN
         13   -1    0    0    0    0  0.00000000000E+00  0.00000000000E+00  0.74505805969E-08  0.10566000000E+00  0.10566000000E+00 0.  1.
     999900   -1    0    0    0    0 -0.00000000000E+00 -0.00000000000E+00 -0.74505805969E-08  0.93827000000E+00  0.93827000000E+00 0. -1.
     999902    2    1    2    0    0 -0.49094690962E-02  0.23250856622E-01 -0.36161185348E-02  0.10198929134E+01  0.10196096180E+01 0.  0.
     999903    2    3    3    0    0 -0.11796799101E+00  0.49864885934E-01 -0.24831966529E-01  0.13200742067E+00  0.20158839242E-01 0.  0.
         14    1    1    2    0    0  0.49094690962E-02 -0.23250856622E-01  0.36161185348E-02  0.24037086631E-01  0.00000000000E+00 0.  1.
     999901    1    3    3    0    0  0.11305852191E+00 -0.26614029312E-01  0.21215847994E-01  0.88788549270E+00  0.88000000000E+00 0.  1.
        -11    1    4    4    0    0 -0.34049901598E-01  0.14981758939E-01 -0.16648431102E-01  0.40758806152E-01  0.51100000000E-03 0.  1.
         11    1    4    4    0    0 -0.83918089409E-01  0.34883126995E-01 -0.81835354272E-02  0.91248614522E-01  0.51100000000E-03 0. -1.
</event>
<event>
 8    1  0.1070112E+005  0.1043930E+01  0.7957747E-01            NaN
         13   -1    0    0    0    0  0.00000000000E+00  0.00000000000E+00  0.74505805969E-08  0.10566000000E+00  0.10566000000E+00 0. -1.
     999900   -1    0    0    0    0 -0.00000000000E+00 -0.00000000000E+00 -0.74505805969E-08  0.93827000000E+00  0.93827000000E+00 0.  1.
     999902    2    1    2    0    0  0.28441335161E-01 -0.21533123980E-01 -0.11315727493E-01  0.10065049995E+01  0.10058089696E+01 0.  0.
     999903    2    3    3    0    0 -0.41051017864E-01 -0.18275912840E-01 -0.10764499226E+00  0.11851900647E+00  0.20978929386E-01 0.  0.
         14    1    1    2    0    0 -0.28441335161E-01  0.21533123980E-01  0.11315727493E-01  0.37425000505E-01  0.00000000000E+00 0.  1.
     999901    1    3    3    0    0  0.69492353025E-01 -0.32572111404E-02  0.96329264769E-01  0.88798599302E+00  0.88000000000E+00 0. -1.
        -11    1    4    4    0    0 -0.20983124500E-01 -0.20565645356E-01 -0.64243765485E-01  0.70645309875E-01  0.51100000000E-03 0. -1.
         11    1    4    4    0    0 -0.20067893364E-01  0.22897325160E-02 -0.43401226778E-01  0.47873696597E-01  0.51100000000E-03 0.  1.
</event>
<event>
 8    1  0.1070112E+005  0.1043930E+01  0.7957747E-01            NaN
         13   -1    0    0    0    0  0.00000000000E+00  0.00000000000E+00  0.74505805969E-08  0.10566000000E+00  0.10566000000E+00 0.  1.
     999900   -1    0    0    0    0 -0.00000000000E+00 -0.00000000000E+00 -0.74505805969E-08  0.93827000000E+00  0.93827000000E+00 0.  1.
     999902    2    1    2    0    0 -0.18591528066E-01 -0.57719138163E-02 -0.88046327560E-02  0.10225645732E+01  0.10223413446E+01 0.  0.
     999903    2    3    3    0    0 -0.38857432614E-01  0.65984387678E-01 -0.10804819914E+00  0.13385260682E+00  0.19449100964E-01 0.  0.
         14    1    1    2    0    0  0.18591528066E-01  0.57719138163E-02  0.88046327560E-02  0.21365426813E-01  0.00000000000E+00 0.  1.
     999901    1    3    3    0    0  0.20265904548E-01 -0.71756301494E-01  0.99243566387E-01  0.88871196637E+00  0.88000000000E+00 0. -1.
        -11    1    4    4    0    0 -0.26493765186E-01  0.51178183017E-01 -0.66210134565E-01  0.87779092332E-01  0.51100000000E-03 0.  1.
         11    1    4    4    0    0 -0.12363667429E-01  0.14806204661E-01 -0.41838064578E-01  0.46073514489E-01  0.51100000000E-03 0. -1.
</event>
<event>
 8    1  0.1070112E+005  0.1043930E+01  0.7957747E-01            NaN
         13   -1    0    0    0    0  0.00000000000E+00  0.00000000000E+00  0.74505805969E-08  0.10566000000E+00  0.10566000000E+00 0.  1.
     999900   -1    0    0    0    0 -0.00000000000E+00 -0.00000000000E+00 -0.74505805969E-08  0.93827000000E+00  0.93827000000E+00 0. -1.
     999902    2    1    2    0    0  0.25335618726E-02 -0.19800589050E-01 -0.12487574658E-01  0.10203838372E+01  0.10201121279E+01 0.  0.
     999903    2    3    3    0    0  0.60906738130E-02 -0.77513454840E-01  0.10335337341E+00  0.13091064862E+00  0.20254533772E-01 0.  0.
         14    1    1    2    0    0 -0.25335618726E-02  0.19800589050E-01  0.12487574658E-01  0.23546162815E-01  0.00000000000E+00 0. -1.
     999901    1    3    3    0    0 -0.35571119405E-02  0.57712865790E-01 -0.11584094807E+00  0.88947318856E+00  0.88000000000E+00 0. -1.
        -11    1    4    4    0    0  0.29060321680E-02 -0.69412650762E-02  0.21510750902E-01  0.22794729855E-01  0.51100000000E-03 0.  1.
         11    1    4    4    0    0  0.31846416451E-02 -0.70572189764E-01  0.81842622509E-01  0.10811591877E+00  0.51100000000E-03 0. -1.
</event>
<event>
 8    1  0.1070112E+005  0.1043930E+01  0.7957747E-01            NaN
         13   -1    0    0    0    0  0.00000000000E+00  0.00000000000E+00  0.74505805969E-08  0.10566000000E+00  0.10566000000E+00 0.  1.
     999900   -1    0    0    0    0 -0.00000000000E+00 -0.00000000000E+00 -0.74505805969E-08  0.93827000000E+00  0.93827000000E+00 0. -1.
     999902    2    1    2    0    0 -0.89029698144E-02 -0.89115693805E-02 -0.10053114506E-01  0.10278134231E+01  0.10276870577E+01 0.  0.
     999903    2    3    3    0    0  0.76530944405E-01  0.10258952607E+00 -0.42413543771E-01  0.13608552435E+00  0.18405567992E-01 0.  0.
         14    1    1    2    0    0  0.89029698144E-02  0.89115693805E-02  0.10053114506E-01  0.16116576920E-01  0.00000000000E+00 0.  1.
     999901    1    3    3    0    0 -0.85433914219E-01 -0.11150109545E+00  0.32360429265E-01  0.89172789873E+00  0.88000000000E+00 0.  1.
        -11    1    4    4    0    0  0.34361912823E-01  0.45900471429E-01 -0.28663342193E-01  0.64104934576E-01  0.51100000000E-03 0.  1.
         11    1    4    4    0    0  0.42169031582E-01  0.56689054639E-01 -0.13750201578E-01  0.71980589778E-01  0.51100000000E-03 0. -1.
</event>
<event>
 7    1  0.1070112E+005  0.1043930E+01  0.7957747E-01            NaN
         13   -1    0    0    0    0  0.00000000000E+00  0.00000000000E+00  0.74505805969E-08  0.10566000000E+00  0.10566000000E+00 0.  1.
     999900   -1    0    0    0    0 -0.00000000000E+00 -0.00000000000E+00 -0.74505805969E-08  0.93827000000E+00  0.93827000000E+00 0. -1.
     999902    2    1    2    0    0  0.17543115510E-01  0.14854753279E-01 -0.35521039210E-02  0.10206696896E+01  0.10204046125E+01 0.  0.
         14    1    1    2    0    0 -0.17543115510E-01 -0.14854753279E-01  0.35521039210E-02  0.23260310382E-01  0.00000000000E+00 0.  1.
     999901    1    3    3    0    0  0.53076688606E-01  0.83906377979E-01  0.78845482126E-01  0.88908606175E+00  0.88000000000E+00 0.  1.
        -11    1    3    3    0    0 -0.12637317762E-01 -0.23899205289E-01  0.78055310260E-02  0.28143582737E-01  0.51100000000E-03 0. -1.
         11    1    3    3    0    0 -0.22896255334E-01 -0.45152419411E-01 -0.90203117073E-01  0.10344004514E+00  0.51100000000E-03 0.  1.
</event>
<event>
 7    1  0.1070112E+005  0.1043930E+01  0.7957747E-01            NaN
         13   -1    0    0    0    0  0.00000000000E+00  0.00000000000E+00  0.74505805969E-08  0.10566000000E+00  0.10566000000E+00 0. -1.
     999900   -1    0    0    0    0 -0.00000000000E+00 -0.00000000000E+00 -0.74505805969E-08  0.93827000000E+00  0.93827000000E+00 0.  1.
     999903    2    1    2    0    0  0.88406194150E-01  0.26790194936E-01  0.55038996201E-03  0.94509673491E-01  0.19960103843E-01 0.  0.
         14    1    1    2    0    0 -0.64887993264E-01 -0.23713304278E-01  0.13612696035E-02  0.69098665143E-01  0.00000000000E+00 0. -1.
     999901    1    1    2    0    0 -0.23518200886E-01 -0.30768906583E-02 -0.19116595655E-02  0.88032166137E+00  0.88000000000E+00 0.  1.
        -11    1    3    3    0    0  0.50809859348E-01  0.24783910640E-01 -0.34789368221E-02  0.56641399665E-01  0.51100000000E-03 0. -1.
         11    1    3    3    0    0  0.37596334802E-01  0.20062842960E-02  0.40293267841E-02  0.37868273825E-01  0.51100000000E-03 0.  1.
</event>
<event>
 8    1  0.1070112E+005  0.1043930E+01  0.7957747E-01            NaN
         13   -1    0    0    0    0  0.00000000000E+00  0.00000000000E+00  0.74505805969E-08  0.10566000000E+00  0.10566000000E+00 0.  1.
     999900   -1    0    0    0    0 -0.00000000000E+00 -0.00000000000E+00 -0.74505805969E-08  0.93827000000E+00  0.93827000000E+00 0. -1.
     999902    2    1    2    0    0  0.17196616387E-01 -0.13979740259E-01 -0.59034734437E-02  0.10209951411E+01  0.10207375130E+01 0.  0.
     999903    2    3    3    0    0 -0.11610204079E+00 -0.50582877611E-01 -0.21763778892E-01  0.13006311737E+00  0.20110719657E-01 0.  0.
         14    1    1    2    0    0 -0.17196616387E-01  0.13979740259E-01  0.59034734437E-02  0.22934858874E-01  0.00000000000E+00 0.  1.
     999901    1    3    3    0    0  0.13329865718E+00  0.36603137352E-01  0.15860305449E-01  0.89093202376E+00  0.88000000000E+00 0.  1.
        -11    1    4    4    0    0 -0.56897025017E-01 -0.28419551325E-01 -0.20524084404E-01  0.66831441066E-01  0.51100000000E-03 0.  1.
         11    1    4    4    0    0 -0.59205015771E-01 -0.22163326286E-01 -0.12396944885E-02  0.63231676302E-01  0.51100000000E-03 0. -1.
</event>
<event>
 8    1  0.1070112E+005  0.1043930E+01  0.7957747E-01            NaN
         13   -1    0    0    0    0  0.00000000000E+00  0.00000000000E+00  0.74505805969E-08  0.10566000000E+00  0.10566000000E+00 0. -1.
     999900   -1    0    0    0    0 -0.00000000000E+00 -0.00000000000E+00 -0.74505805969E-08  0.93827000000E+00  0.93827000000E+00 0.  1.
     999902    2    1    2    0    0 -0.17074230452E-01  0.13809737036E-01  0.19601028307E-02  0.10218827737E+01  0.10216449105E+01 0.  0.
     999903    2    3    3    0    0  0.52109506934E-01 -0.45622019277E-01 -0.10848160842E+00  0.13030221386E+00  0.20338097629E-01 0.  0.
         14    1    1    2    0    0  0.17074230452E-01 -0.13809737036E-01 -0.19601028307E-02  0.22047226257E-01  0.00000000000E+00 0.  1.
     999901    1    3    3    0    0 -0.69183737386E-01  0.59431756313E-01  0.11044171125E+00  0.89158055988E+00  0.88000000000E+00 0. -1.
        -11    1    4    4    0    0  0.33099555700E-01 -0.31726559462E-01 -0.53326075072E-01  0.70328419337E-01  0.51100000000E-03 0. -1.
         11    1    4    4    0    0  0.19009951234E-01 -0.13895459816E-01 -0.55155533350E-01  0.59973794523E-01  0.51100000000E-03 0.  1.
</event>
<event>
 8    1  0.1070112E+005  0.1043930E+01  0.7957747E-01            NaN
         13   -1    0    0    0    0  0.00000000000E+00  0.00000000000E+00  0.74505805969E-08  0.10566000000E+00  0.10566000000E+00 0.  1.
     999900   -1    0    0    0    0 -0.00000000000E+00 -0.00000000000E+00 -0.74505805969E-08  0.93827000000E+00  0.93827000000E+00 0.  1.
     999902    2    1    2    0    0 -0.86559959661E-02 -0.20402395965E-01 -0.83221746881E-02  0.10202563307E+01  0.10199816360E+01 0.  0.
     999903    2    3    3    0    0  0.10072516119E+00 -0.26261817745E-01  0.74783415578E-01  0.12957956019E+00  0.19054186047E-01 0.  0.
         14    1    1    2    0    0  0.86559959661E-02  0.20402395965E-01  0.83221746881E-02  0.23673669315E-01  0.00000000000E+00 0. -1.
     999901    1    3    3    0    0 -0.10938115716E+00  0.58594217790E-02 -0.83105590266E-01  0.89067677049E+00  0.88000000000E+00 0.  1.
        -11    1    4    4    0    0  0.43687166590E-01 -0.35713583790E-02  0.38010303368E-01  0.58020405104E-01  0.51100000000E-03 0. -1.
         11    1    4    4    0    0  0.57037994599E-01 -0.22690459366E-01  0.36773112210E-01  0.71559155087E-01  0.51100000000E-03 0.  1.
</event>
<event>
 8    1  0.1070112E+005  0.1043930E+01  0.7957747E-01            NaN
         13   -1    0    0    0    0  0.00000000000E+00  0.00000000000E+00  0.74505805969E-08  0.10566000000E+00  0.10566000000E+00 0.  1.
     999900   -1    0    0    0    0 -0.00000000000E+00 -0.00000000000E+00 -0.74505805969E-08  0.93827000000E+00  0.93827000000E+00 0. -1.
     999902    2    1    2    0    0  0.64348082264E-02  0.13706598276E-01  0.22625917206E-01  0.10167048329E+01  0.10163402519E+01 0.  0.
     999903    2    3    3    0    0 -0.73525818930E-02  0.10178231729E+00  0.78716808231E-01  0.13042405773E+00  0.20009956627E-01 0.  0.
         14    1    1    2    0    0 -0.64348082264E-02 -0.13706598276E-01 -0.22625917206E-01  0.27225167081E-01  0.00000000000E+00 0. -1.
     999901    1    3    3    0    0  0.13787390119E-01 -0.88075719015E-01 -0.56090891025E-01  0.88628077518E+00  0.88000000000E+00 0.  1.
        -11    1    4    4    0    0  0.28549886441E-02  0.32235039311E-01  0.34871895335E-01  0.47576873844E-01  0.51100000000E-03 0.  1.
         11    1    4    4    0    0 -0.10207570537E-01  0.69547277979E-01  0.43844912896E-01  0.82847183890E-01  0.51100000000E-03 0. -1.
</event>
<event>
 8    1  0.1070112E+005  0.1043930E+01  0.7957747E-01            NaN
         13   -1    0    0    0    0  0.00000000000E+00  0.00000000000E+00  0.74505805969E-08  0.10566000000E+00  0.10566000000E+00 0. -1.
     999900   -1    0    0    0    0 -0.00000000000E+00 -0.00000000000E+00 -0.74505805969E-08  0.93827000000E+00  0.93827000000E+00 0. -1.
     999902    2    1    2    0    0 -0.17506244270E-01 -0.13790349395E-01  0.61411136324E-02  0.10208138671E+01  0.10205521033E+01 0.  0.
     999903    2    3    3    0    0 -0.91088284050E-01 -0.80288068618E-01 -0.51426581559E-01  0.13337355766E+00  0.20014073513E-01 0.  0.
         14    1    1    2    0    0  0.17506244270E-01  0.13790349395E-01 -0.61411136324E-02  0.23116132927E-01  0.00000000000E+00 0. -1.
     999901    1    3    3    0    0  0.73582039781E-01  0.66497719223E-01  0.57567695191E-01  0.88744030941E+00  0.88000000000E+00 0.  1.
        -11    1    4    4    0    0 -0.42301570582E-01 -0.50288533753E-01 -0.29710429426E-01  0.72120248463E-01  0.51100000000E-03 0.  1.
         11    1    4    4    0    0 -0.48786713469E-01 -0.29999534865E-01 -0.21716152132E-01  0.61253309197E-01  0.51100000000E-03 0. -1.
</event>
<event>
 8    1  0.1070112E+005  0.1043930E+01  0.7957747E-01            NaN
         13   -1    0    0    0    0  0.00000000000E+00  0.00000000000E+00  0.74505805969E-08  0.10566000000E+00  0.10566000000E+00 0. -1.
     999900   -1    0    0    0    0 -0.00000000000E+00 -0.00000000000E+00 -0.74505805969E-08  0.93827000000E+00  0.93827000000E+00 0.  1.
     999902    2    1    2    0    0 -0.14519967330E-01  0.19006369924E-01  0.24226096184E-03  0.10200107559E+01  0.10197302643E+01 0.  0.
     999903    2    3    3    0    0 -0.10525494385E+00 -0.68213760588E-01 -0.30423270909E-01  0.13052744408E+00  0.19496612643E-01 0.  0.
         14    1    1    2    0    0  0.14519967330E-01 -0.19006369924E-01 -0.24226096184E-03  0.23919244121E-01  0.00000000000E+00 0.  1.
     999901    1    3    3    0    0  0.90734976524E-01  0.87220130513E-01  0.30665531871E-01  0.88948331180E+00  0.88000000000E+00 0. -1.
        -11    1    4    4    0    0 -0.33350237087E-01 -0.25921396780E-01 -0.16209624471E-02  0.42273464076E-01  0.51100000000E-03 0.  1.
         11    1    4    4    0    0 -0.71904706768E-01 -0.42292363808E-01 -0.28802308462E-01  0.88253979999E-01  0.51100000000E-03 0. -1.
</event>
<event>
 8    1  0.1070112E+005  0.1043930E+01  0.7957747E-01            NaN
         13   -1    0    0    0    0  0.00000000000E+00  0.00000000000E+00  0.74505805969E-08  0.10566000000E+00  0.10566000000E+00 0.  1.
     999900   -1    0    0    0    0 -0.00000000000E+00 -0.00000000000E+00 -0.74505805969E-08  0.93827000000E+00  0.93827000000E+00 0.  1.
     999902    2    1    2    0    0  0.93334884005E-02  0.13924944167E-01  0.15955215088E-01  0.10207872481E+01  0.10205248743E+01 0.  0.
     999903    2    3    3    0    0 -0.16074356708E-01  0.40558263444E-01 -0.12134050890E+00  0.12938105109E+00  0.10610353654E-01 0.  0.
         14    1    1    2    0    0 -0.93334884005E-02 -0.13924944167E-01 -0.15955215088E-01  0.23142751874E-01  0.00000000000E+00 0. -1.
     999901    1    3    3    0    0  0.25407845108E-01 -0.26633319277E-01  0.13729572399E+00  0.89140619704E+00  0.88000000000E+00 0. -1.
        -11    1    4    4    0    0 -0.14280407267E-01  0.28060368033E-01 -0.96557995856E-01  0.10156289662E+00  0.51100000000E-03 0. -1.
         11    1    4    4    0    0 -0.17939494409E-02  0.12497895411E-01 -0.24782513041E-01  0.27818154467E-01  0.51100000000E-03 0.  1.
</event>
<event>
 8    1  0.1070112E+005  0.1043930E+01  0.7957747E-01            NaN
         13   -1    0    0    0    0  0.00000000000E+00  0.00000000000E+00  0.74505805969E-08  0.10566000000E+00  0.10566000000E+00 0.  1.
     999900   -1    0    0    0    0 -0.00000000000E+00 -0.00000000000E+00 -0.74505805969E-08  0.93827000000E+00  0.93827000000E+00 0. -1.
     999902    2    1    2    0    0  0.31844438754E-02  0.18521756988E-01 -0.14946290495E-01  0.10199177580E+01  0.10196350550E+01 0.  0.
     999903    2    3    3    0    0  0.90120093693E-01 -0.84494592348E-01  0.27467674176E-01  0.12864388327E+00  0.23104288658E-01 0.  0.
         14    1    1    2    0    0 -0.31844438754E-02 -0.18521756988E-01  0.14946290495E-01  0.24012241967E-01  0.00000000000E+00 0. -1.
     999901    1    3    3    0    0 -0.86935649817E-01  0.10301634934E+00 -0.42413964671E-01  0.89127387477E+00  0.88000000000E+00 0.  1.
        -11    1    4    4    0    0  0.63891552638E-01 -0.69345800092E-01  0.13389889462E-01  0.95239281547E-01  0.51100000000E-03 0.  1.
         11    1    4    4    0    0  0.26228541055E-01 -0.15148792257E-01  0.14077784713E-01  0.33404601721E-01  0.51100000000E-03 0. -1.
</event>
<event>
 8    1  0.1070112E+005  0.1043930E+01  0.7957747E-01            NaN
         13   -1    0    0    0    0  0.00000000000E+00  0.00000000000E+00  0.74505805969E-08  0.10566000000E+00  0.10566000000E+00 0.  1.
     999900   -1    0    0    0    0 -0.00000000000E+00 -0.00000000000E+00 -0.74505805969E-08  0.93827000000E+00  0.93827000000E+00 0. -1.
     999902    2    1    2    0    0  0.21642501555E-01  0.94937631961E-02  0.31590430046E-02  0.10200865739E+01  0.10198078787E+01 0.  0.
     999903    2    3    3    0    0  0.77116845006E-01 -0.86175670830E-01 -0.58190390711E-01  0.13104563203E+00  0.20336717448E-01 0.  0.
         14    1    1    2    0    0 -0.21642501555E-01 -0.94937631961E-02 -0.31590430046E-02  0.23843426052E-01  0.00000000000E+00 0. -1.
     999901    1    3    3    0    0 -0.55474343450E-01  0.95669434026E-01  0.61349433715E-01  0.88904094192E+00  0.88000000000E+00 0. -1.
        -11    1    4    4    0    0  0.28278559872E-01 -0.27346862105E-01 -0.97507613903E-02  0.40532286934E-01  0.51100000000E-03 0.  1.
         11    1    4    4    0    0  0.48838285133E-01 -0.58828808725E-01 -0.48439629320E-01  0.90513345096E-01  0.51100000000E-03 0. -1.
</event>
<event>
 8    1  0.1070112E+005  0.1043930E+01  0.7957747E-01            NaN
         13   -1    0    0    0    0  0.00000000000E+00  0.00000000000E+00  0.74505805969E-08  0.10566000000E+00  0.10566000000E+00 0.  1.
     999900   -1    0    0    0    0 -0.00000000000E+00 -0.00000000000E+00 -0.74505805969E-08  0.93827000000E+00  0.93827000000E+00 0. -1.
     999902    2    1    2    0    0 -0.95791520425E-02 -0.20669113697E-01 -0.74334255053E-02  0.10199669403E+01  0.10196854079E+01 0.  0.
     999903    2    3    3    0    0  0.32669546288E-01 -0.39728542374E-01  0.11774648128E+00  0.12990052515E+00  0.19085498341E-01 0.  0.
         14    1    1    2    0    0  0.95791520425E-02  0.20669113697E-01  0.74334255053E-02  0.23963059688E-01  0.00000000000E+00 0.  1.
     999901    1    3    3    0    0 -0.42248698330E-01  0.19059428678E-01 -0.12517990679E+00  0.89006641516E+00  0.88000000000E+00 0. -1.
        -11    1    4    4    0    0  0.12751862713E-01 -0.19091008809E-01  0.31311458413E-01  0.38829694423E-01  0.51100000000E-03 0.  1.
         11    1    4    4    0    0  0.19917683575E-01 -0.20637533566E-01  0.86435022868E-01  0.91070830730E-01  0.51100000000E-03 0. -1.
</event>
<event>
 8    1  0.1070112E+005  0.1043930E+01  0.7957747E-01            NaN
         13   -1    0    0    0    0  0.00000000000E+00  0.00000000000E+00  0.74505805969E-08  0.10566000000E+00  0.10566000000E+00 0.  1.
     999900   -1    0    0    0    0 -0.00000000000E+00 -0.00000000000E+00 -0.74505805969E-08  0.93827000000E+00  0.93827000000E+00 0.  1.
     999902    2    1    2    0    0  0.19626194301E-01  0.11820983224E-01 -0.35670694643E-02  0.10207427809E+01  0.10204793861E+01 0.  0.
     999903    2    3    3    0    0  0.10675779910E+00 -0.73162424775E-01  0.17814055251E-01  0.13210829543E+00  0.19628884044E-01 0.  0.
         14    1    1    2    0    0 -0.19626194301E-01 -0.11820983224E-01  0.35670694643E-02  0.23187219145E-01  0.00000000000E+00 0.  1.
     999901    1    3    3    0    0 -0.87131604803E-01  0.84983407998E-01 -0.21381124715E-01  0.88863448542E+00  0.88000000000E+00 0. -1.
        -11    1    4    4    0    0  0.26889652292E-01 -0.21516345965E-01  0.13194492766E-01  0.36883089681E-01  0.51100000000E-03 0.  1.
         11    1    4    4    0    0  0.79868146812E-01 -0.51646078809E-01  0.46195624850E-02  0.95225205750E-01  0.51100000000E-03 0. -1.
</event>
<event>
 8    1  0.1070112E+005  0.1043930E+01  0.7957747E-01            NaN
         13   -1    0    0    0    0  0.00000000000E+00  0.00000000000E+00  0.74505805969E-08  0.10566000000E+00  0.10566000000E+00 0.  1.
     999900   -1    0    0    0    0 -0.00000000000E+00 -0.00000000000E+00 -0.74505805969E-08  0.93827000000E+00  0.93827000000E+00 0. -1.
     999902    2    1    2    0    0 -0.43473161777E-03 -0.23336451900E-01  0.29657561556E-02  0.10204018320E+01  0.10201305427E+01 0.  0.
     999903    2    3    3    0    0  0.34992091492E-02 -0.70834817262E-01  0.10982815602E+00  0.13265685563E+00  0.22490035331E-01 0.  0.
         14    1    1    2    0    0  0.43473161777E-03  0.23336451900E-01 -0.29657561556E-02  0.23528167978E-01  0.00000000000E+00 0. -1.
     999901    1    3    3    0    0 -0.39339407670E-02  0.47498365363E-01 -0.10686239987E+00  0.88774497639E+00  0.88000000000E+00 0. -1.
        -11    1    4    4    0    0 -0.93017601888E-02 -0.34782297853E-01  0.57208138357E-01  0.67597065038E-01  0.51100000000E-03 0. -1.
         11    1    4    4    0    0  0.12800969338E-01 -0.36052519409E-01  0.52620017666E-01  0.65059790592E-01  0.51100000000E-03 0.  1.
</event>
<event>
 8    1  0.1070112E+005  0.1043930E+01  0.7957747E-01            NaN
         13   -1    0    0    0    0  0.00000000000E+00  0.00000000000E+00  0.74505805969E-08  0.10566000000E+00  0.10566000000E+00 0. -1.
     999900   -1    0    0    0    0 -0.00000000000E+00 -0.00000000000E+00 -0.74505805969E-08  0.93827000000E+00  0.93827000000E+00 0.  1.
     999902    2    1    2    0    0  0.47976675749E-02  0.13371032300E-01  0.19832029397E-01  0.10195350926E+01  0.10192431964E+01 0.  0.
     999903    2    3    3    0    0  0.53957859838E-01  0.66488265859E-01  0.99822151465E-01  0.13294804966E+00  0.19457179943E-01 0.  0.
         14    1    1    2    0    0 -0.47976675749E-02 -0.13371032300E-01 -0.19832029397E-01  0.24394907439E-01  0.00000000000E+00 0.  1.
     999901    1    3    3    0    0 -0.49160192263E-01 -0.53117233558E-01 -0.79990122068E-01  0.88658704290E+00  0.88000000000E+00 0.  1.
        -11    1    4    4    0    0  0.40184701227E-01  0.41830939702E-01  0.54809174209E-01  0.79805666638E-01  0.51100000000E-03 0. -1.
         11    1    4    4    0    0  0.13773158611E-01  0.24657326157E-01  0.45012977255E-01  0.53142383026E-01  0.51100000000E-03 0.  1.
</event>
<event>
 8    1  0.1070112E+005  0.1043930E+01  0.7957747E-01            NaN
         13   -1    0    0    0    0  0.00000000000E+00  0.00000000000E+00  0.74505805969E-08  0.10566000000E+00  0.10566000000E+00 0.  1.
     999900   -1    0    0    0    0 -0.00000000000E+00 -0.00000000000E+00 -0.74505805969E-08  0.93827000000E+00  0.93827000000E+00 0. -1.
     999902    2    1    2    0    0  0.54369087680E-02  0.18735896289E-01 -0.65405709002E-02  0.10233539738E+01  0.10231470974E+01 0.  0.
     999903    2    3    3    0    0  0.12317853519E+00 -0.43087552599E-01 -0.19800209968E-01  0.13326350230E+00  0.18374547884E-01 0.  0.
         14    1    1    2    0    0 -0.54369087680E-02 -0.18735896289E-01  0.65405709002E-02  0.20576026205E-01  0.00000000000E+00 0. -1.
     999901    1    3    3    0    0 -0.11774162642E+00  0.61823448888E-01  0.13259639068E-01  0.89009047150E+00  0.88000000000E+00 0.  1.
        -11    1    4    4    0    0  0.10768395961E-01 -0.93505623584E-02 -0.19155719278E-03  0.14271971943E-01  0.51100000000E-03 0. -1.
         11    1    4    4    0    0  0.11241013922E+00 -0.33736990241E-01 -0.19608652775E-01  0.11899153035E+00  0.51100000000E-03 0.  1.
</event>
<event>
 8    1  0.1070112E+005  0.1043930E+01  0.7957747E-01            NaN
         13   -1    0    0    0    0  0.00000000000E+00  0.00000000000E+00  0.74505805969E-08  0.10566000000E+00  0.10566000000E+00 0.  1.
     999900   -1    0    0    0    0 -0.00000000000E+00 -0.00000000000E+00 -0.74505805969E-08  0.93827000000E+00  0.93827000000E+00 0. -1.
     999902    2    1    2    0    0  0.14439899250E-01  0.19047101537E-01  0.18632754211E-02  0.10199555435E+01  0.10196737401E+01 0.  0.
     999903    2    3    3    0    0  0.36433971968E-01  0.10110499733E+00  0.75512227355E-01  0.13280200236E+00  0.19611745290E-01 0.  0.
         14    1    1    2    0    0 -0.14439899250E-01 -0.19047101537E-01 -0.18632754211E-02  0.23974456461E-01  0.00000000000E+00 0. -1.
     999901    1    3    3    0    0 -0.21994072718E-01 -0.82057895794E-01 -0.73648951934E-01  0.88715354117E+00  0.88000000000E+00 0. -1.
        -11    1    4    4    0    0  0.13425575116E-01  0.21819272220E-01  0.26152262781E-01  0.36613230900E-01  0.51100000000E-03 0. -1.
         11    1    4    4    0    0  0.23008396852E-01  0.79285725111E-01  0.49359964574E-01  0.96188771464E-01  0.51100000000E-03 0.  1.
</event>
<event>
 8    1  0.1070112E+005  0.1043930E+01  0.7957747E-01            NaN
         13   -1    0    0    0    0  0.00000000000E+00  0.00000000000E+00  0.74505805969E-08  0.10566000000E+00  0.10566000000E+00 0. -1.
     999900   -1    0    0    0    0 -0.00000000000E+00 -0.00000000000E+00 -0.74505805969E-08  0.93827000000E+00  0.93827000000E+00 0. -1.
     999902    2    1    2    0    0 -0.38979089155E-02 -0.26261327426E-02  0.21516612393E-01  0.10219060386E+01  0.10216686825E+01 0.  0.
     999903    2    3    3    0    0 -0.68496676512E-01  0.24239890702E-01 -0.10576514383E+00  0.13000053381E+00  0.20844811046E-01 0.  0.
         14    1    1    2    0    0  0.38979089155E-02  0.26261327426E-02 -0.21516612393E-01  0.22023961405E-01  0.00000000000E+00 0.  1.
     999901    1    3    3    0    0  0.64598767597E-01 -0.26866023445E-01  0.12728175623E+00  0.89190550478E+00  0.88000000000E+00 0.  1.
        -11    1    4    4    0    0 -0.22080169185E-01 -0.20729200198E-02 -0.33210322815E-01  0.39937670577E-01  0.51100000000E-03 0.  1.
         11    1    4    4    0    0 -0.46416507328E-01  0.26312810722E-01 -0.72554821017E-01  0.90062863237E-01  0.51100000000E-03 0. -1.
</event>
<event>
 8    1  0.1070112E+005  0.1043930E+01  0.7957747E-01            NaN
         13   -1    0    0    0    0  0.00000000000E+00  0.00000000000E+00  0.74505805969E-08  0.10566000000E+00  0.10566000000E+00 0. -1.
     999900   -1    0    0    0    0 -0.00000000000E+00 -0.00000000000E+00 -0.74505805969E-08  0.93827000000E+00  0.93827000000E+00 0.  1.
     999902    2    1    2    0    0  0.14803224323E-01 -0.50634016620E-02 -0.18185780031E-01  0.10199405006E+01  0.10196583392E+01 0.  0.
     999903    2    3    3    0    0  0.13356746852E-01  0.39585144412E-01  0.11950380318E+00  0.12811428081E+00  0.19665289912E-01 0.  0.
         14    1    1    2    0    0 -0.14803224323E-01  0.50634016620E-02  0.18185780031E-01  0.23989499413E-01  0.00000000000E+00 0. -1.
     999901    1    3    3    0    0  0.14464774706E-02 -0.44648546074E-01 -0.13768958321E+00  0.89182621978E+00  0.88000000000E+00 0.  1.
        -11    1    4    4    0    0  0.21109021559E-02  0.27459808240E-01  0.54866022342E-01  0.61392495512E-01  0.51100000000E-03 0. -1.
         11    1    4    4    0    0  0.11245844696E-01  0.12125336172E-01  0.64637780838E-01  0.66721785294E-01  0.51100000000E-03 0.  1.
</event>
<event>
 8    1  0.1070112E+005  0.1043930E+01  0.7957747E-01            NaN
         13   -1    0    0    0    0  0.00000000000E+00  0.00000000000E+00  0.74505805969E-08  0.10566000000E+00  0.10566000000E+00 0. -1.
     999900   -1    0    0    0    0 -0.00000000000E+00 -0.00000000000E+00 -0.74505805969E-08  0.93827000000E+00  0.93827000000E+00 0. -1.
     999902    2    1    2    0    0  0.18197889929E-01 -0.69401158886E-02 -0.14304776818E-01  0.10197648382E+01  0.10194784795E+01 0.  0.
     999903    2    3    3    0    0  0.91932976310E-01  0.73691899027E-01 -0.56200227639E-01  0.13201847034E+00  0.19703878032E-01 0.  0.
         14    1    1    2    0    0 -0.18197889929E-01  0.69401158886E-02  0.14304776818E-01  0.24165161829E-01  0.00000000000E+00 0. -1.
     999901    1    3    3    0    0 -0.73735086381E-01 -0.80632014916E-01  0.41895450820E-01  0.88774636783E+00  0.88000000000E+00 0.  1.
        -11    1    4    4    0    0  0.36033012439E-01  0.19491176550E-01 -0.25880218486E-01  0.48459578812E-01  0.51100000000E-03 0.  1.
         11    1    4    4    0    0  0.55899963871E-01  0.54200722477E-01 -0.30320009152E-01  0.83558891531E-01  0.51100000000E-03 0. -1.
</event>
<event>
 8    1  0.1070112E+005  0.1043930E+01  0.7957747E-01            NaN
         13   -1    0    0    0    0  0.00000000000E+00  0.00000000000E+00  0.74505805969E-08  0.10566000000E+00  0.10566000000E+00 0.  1.
     999900   -1    0    0    0    0 -0.00000000000E+00 -0.00000000000E+00 -0.74505805969E-08  0.93827000000E+00  0.93827000000E+00 0.  1.
     999902    2    1    2    0    0  0.11535762106E-01  0.18327567363E-01  0.76901140060E-02  0.10209493258E+01  0.10206906556E+01 0.  0.
     999903    2    3    3    0    0  0.30195269637E-01 -0.93756788770E-01 -0.81001592201E-01  0.12922218208E+00  0.20857244642E-01 0.  0.
         14    1    1    2    0    0 -0.11535762106E-01 -0.18327567363E-01 -0.76901140060E-02  0.22980674190E-01  0.00000000000E+00 0. -1.
     999901    1    3    3    0    0 -0.18659507531E-01  0.11208435613E+00  0.88691706207E-01  0.89172714373E+00  0.88000000000E+00 0. -1.
        -11    1    4    4    0    0  0.25079451096E-01 -0.80631515728E-01 -0.58708661275E-01  0.10284643030E+00  0.51100000000E-03 0.  1.
         11    1    4    4    0    0  0.51158185401E-02 -0.13125273042E-01 -0.22292930926E-01  0.26375751781E-01  0.51100000000E-03 0. -1.
</event>
<event>
 8    1  0.1070112E+005  0.1043930E+01  0.7957747E-01            NaN
         13   -1    0    0    0    0  0.00000000000E+00  0.00000000000E+00  0.74505805969E-08  0.10566000000E+00  0.10566000000E+00 0.  1.
     999900   -1    0    0    0    0 -0.00000000000E+00 -0.00000000000E+00 -0.74505805969E-08  0.93827000000E+00  0.93827000000E+00 0. -1.
     999902    2    1    2    0    0 -0.16302454975E-01  0.14447817357E-02 -0.20099776942E-01  0.10180097673E+01  0.10176797275E+01 0.  0.
     999903    2    3    3    0    0  0.11979434947E+00 -0.53169788018E-02  0.30910357887E-01  0.12606240589E+00  0.23607700599E-01 0.  0.
         14    1    1    2    0    0  0.16302454975E-01 -0.14447817357E-02  0.20099776942E-01  0.25920232745E-01  0.00000000000E+00 0.  1.
     999901    1    3    3    0    0 -0.13609680444E+00  0.67617605375E-02 -0.51010134829E-01  0.89194736136E+00  0.88000000000E+00 0.  1.
        -11    1    4    4    0    0  0.54168702086E-01  0.88665525602E-02  0.10512304093E-01  0.55889477527E-01  0.51100000000E-03 0. -1.
         11    1    4    4    0    0  0.65625647379E-01 -0.14183531362E-01  0.20398053794E-01  0.70172928366E-01  0.51100000000E-03 0.  1.
</event>
<event>
 8    1  0.1070112E+005  0.1043930E+01  0.7957747E-01            NaN
         13   -1    0    0    0    0  0.00000000000E+00  0.00000000000E+00  0.74505805969E-08  0.10566000000E+00  0.10566000000E+00 0.  1.
     999900   -1    0    0    0    0 -0.00000000000E+00 -0.00000000000E+00 -0.74505805969E-08  0.93827000000E+00  0.93827000000E+00 0.  1.
     999902    2    1    2    0    0 -0.15201027105E-01  0.16995878939E-01 -0.14961288292E-01  0.10166578297E+01  0.10162919715E+01 0.  0.
     999903    2    3    3    0    0 -0.15162227159E-01  0.24043793182E-01  0.12124159738E+00  0.12615184955E+00  0.20168467631E-01 0.  0.
         14    1    1    2    0    0  0.15201027105E-01 -0.16995878939E-01  0.14961288292E-01  0.27272170308E-01  0.00000000000E+00 0.  1.
     999901    1    3    3    0    0 -0.38799945835E-04 -0.70479142434E-02 -0.13620288567E+00  0.89050598014E+00  0.88000000000E+00 0.  1.
        -11    1    4    4    0    0  0.29675457592E-02  0.13340046134E-01  0.42755334634E-01  0.44889229436E-01  0.51100000000E-03 0. -1.
         11    1    4    4    0    0 -0.18129772918E-01  0.10703747048E-01  0.78486262748E-01  0.81262620116E-01  0.51100000000E-03 0.  1.
</event>
<event>
 8    1  0.1070112E+005  0.1043930E+01  0.7957747E-01            NaN
         13   -1    0    0    0    0  0.00000000000E+00  0.00000000000E+00  0.74505805969E-08  0.10566000000E+00  0.10566000000E+00 0. -1.
     999900   -1    0    0    0    0 -0.00000000000E+00 -0.00000000000E+00 -0.74505805969E-08  0.93827000000E+00  0.93827000000E+00 0.  1.
     999902    2    1    2    0    0  0.15208426977E-01 -0.87326617190E-02  0.16058900812E-01  0.10201509351E+01  0.10198737601E+01 0.  0.
     999903    2    3    3    0    0 -0.43201611698E-01 -0.82739413840E-01  0.92240995835E-01  0.13184218046E+00  0.12718859248E-01 0.  0.
         14    1    1    2    0    0 -0.15208426977E-01  0.87326617190E-02 -0.16058900812E-01  0.23779064892E-01  0.00000000000E+00 0.  1.
     999901    1    3    3    0    0  0.58410038675E-01  0.74006752121E-01 -0.76182095023E-01  0.88830875465E+00  0.88000000000E+00 0.  1.
        -11    1    4    4    0    0 -0.26135026924E-01 -0.51861730248E-01  0.48654056580E-01  0.75763824081E-01  0.51100000000E-03 0. -1.
         11    1    4    4    0    0 -0.17066584774E-01 -0.30877683592E-01  0.43586939255E-01  0.56078356382E-01  0.51100000000E-03 0.  1.
</event>
<event>
 8    1  0.1070112E+005  0.1043930E+01  0.7957747E-01            NaN
         13   -1    0    0    0    0  0.00000000000E+00  0.00000000000E+00  0.74505805969E-08  0.10566000000E+00  0.10566000000E+00 0. -1.
     999900   -1    0    0    0    0 -0.00000000000E+00 -0.00000000000E+00 -0.74505805969E-08  0.93827000000E+00  0.93827000000E+00 0.  1.
     999902    2    1    2    0    0  0.95635195698E-02  0.18037272792E-01  0.11345015118E-01  0.10205737699E+01  0.10203064767E+01 0.  0.
     999903    2    3    3    0    0  0.16307314211E-01 -0.12458027180E+00 -0.17449170968E-01  0.12860160221E+00  0.21159534591E-01 0.  0.
         14    1    1    2    0    0 -0.95635195698E-02 -0.18037272792E-01 -0.11345015118E-01  0.23356230097E-01  0.00000000000E+00 0.  1.
     999901    1    3    3    0    0 -0.67437946414E-02  0.14261754459E+00  0.28794186086E-01  0.89197216770E+00  0.88000000000E+00 0. -1.
        -11    1    4    4    0    0 -0.10673912726E-02 -0.62765971852E-01 -0.33890847242E-02  0.62868541918E-01  0.51100000000E-03 0. -1.
         11    1    4    4    0    0  0.17374705484E-01 -0.61814299948E-01 -0.14060086244E-01  0.65733060288E-01  0.51100000000E-03 0.  1.
</event>
<event>
 8    1  0.1070112E+005  0.1043930E+01  0.7957747E-01            NaN
         13   -1    0    0    0    0  0.00000000000E+00  0.00000000000E+00  0.74505805969E-08  0.10566000000E+00  0.10566000000E+00 0.  1.
     999900   -1    0    0    0    0 -0.00000000000E+00 -0.00000000000E+00 -0.74505805969E-08  0.93827000000E+00  0.93827000000E+00 0. -1.
     999902    2    1    2    0    0  0.14612556288E-01  0.81846214680E-02  0.16642815396E-01  0.10203186016E+01  0.10200453670E+01 0.  0.
     999903    2    3    3    0    0 -0.32968216537E-01 -0.28447624689E-01  0.12283210554E+00  0.13190314882E+00  0.20360350374E-01 0.  0.
         14    1    1    2    0    0 -0.14612556288E-01 -0.81846214680E-02 -0.16642815396E-01  0.23611398395E-01  0.00000000000E+00 0. -1.
     999901    1    3    3    0    0  0.47580772825E-01  0.36632246157E-01 -0.10618929014E+00  0.88841545278E+00  0.88000000000E+00 0. -1.
        -11    1    4    4    0    0 -0.82340576201E-02 -0.20315055298E-01  0.51896061493E-01  0.56337940113E-01  0.51100000000E-03 0. -1.
         11    1    4    4    0    0 -0.24734158916E-01 -0.81325693911E-02  0.70936044042E-01  0.75565208711E-01  0.51100000000E-03 0.  1.
</event>
<event>
 8    1  0.1070112E+005  0.1043930E+01  0.7957747E-01            NaN
         13   -1    0    0    0    0  0.00000000000E+00  0.00000000000E+00  0.74505805969E-08  0.10566000000E+00  0.10566000000E+00 0. -1.
     999900   -1    0    0    0    0 -0.00000000000E+00 -0.00000000000E+00 -0.74505805969E-08  0.93827000000E+00  0.93827000000E+00 0.  1.
     999902    2    1    2    0    0 -0.12431812018E-01  0.18023226742E-01  0.84933724172E-02  0.10204454513E+01  0.10201751786E+01 0.  0.
     999903    2    3    3    0    0 -0.10100453022E+00  0.72282262885E-01 -0.42912303375E-01  0.13284660446E+00  0.19496509522E-01 0.  0.
         14    1    1    2    0    0  0.12431812018E-01 -0.18023226742E-01 -0.84933724172E-02  0.23484548692E-01  0.00000000000E+00 0.  1.
     999901    1    3    3    0    0  0.88572718205E-01 -0.54259036143E-01  0.51405675792E-01  0.88759884684E+00  0.88000000000E+00 0. -1.
        -11    1    4    4    0    0 -0.43869870156E-01  0.40207539293E-01 -0.13491624200E-01  0.61020461880E-01  0.51100000000E-03 0.  1.
         11    1    4    4    0    0 -0.57134660067E-01  0.32074723592E-01 -0.29420679176E-01  0.71826142585E-01  0.51100000000E-03 0. -1.
</event>
<event>
 8    1  0.1070112E+005  0.1043930E+01  0.7957747E-01            NaN
         13   -1    0    0    0    0  0.00000000000E+00  0.00000000000E+00  0.74505805969E-08  0.10566000000E+00  0.10566000000E+00 0. -1.
     999900   -1    0    0    0    0 -0.00000000000E+00 -0.00000000000E+00 -0.74505805969E-08  0.93827000000E+00  0.93827000000E+00 0. -1.
     999902    2    1    2    0    0  0.15071479023E-01  0.11625146238E-01  0.14553099893E-01  0.10199699036E+01  0.10196884416E+01 0.  0.
     999903    2    3    3    0    0 -0.43642972529E-01  0.11814629822E+00 -0.28366344507E-01  0.13056773280E+00  0.19494268772E-01 0.  0.
         14    1    1    2    0    0 -0.15071479023E-01 -0.11625146238E-01 -0.14553099893E-01  0.23960096442E-01  0.00000000000E+00 0.  1.
     999901    1    3    3    0    0  0.58714451553E-01 -0.10652115198E+00  0.42919444400E-01  0.88940217076E+00  0.88000000000E+00 0.  1.
        -11    1    4    4    0    0 -0.38715554734E-01  0.11528287079E+00 -0.28227139216E-01  0.12484417081E+00  0.51100000000E-03 0. -1.
         11    1    4    4    0    0 -0.49274177949E-02  0.28634274245E-02 -0.13920529069E-03  0.57235619901E-02  0.51100000000E-03 0.  1.
</event>
<event>
 8    1  0.1070112E+005  0.1043930E+01  0.7957747E-01            NaN
         13   -1    0    0    0    0  0.00000000000E+00  0.00000000000E+00  0.74505805969E-08  0.10566000000E+00  0.10566000000E+00 0. -1.
     999900   -1    0    0    0    0 -0.00000000000E+00 -0.00000000000E+00 -0.74505805969E-08  0.93827000000E+00  0.93827000000E+00 0. -1.
     999902    2    1    2    0    0  0.13105695315E-02 -0.35450236636E-02 -0.22760912189E-01  0.10208574208E+01  0.10205966538E+01 0.  0.
     999903    2    3    3    0    0  0.90811798707E-01 -0.86021726930E-01  0.31927143997E-01  0.13079918674E+00  0.21037215588E-01 0.  0.
         14    1    1    2    0    0 -0.13105695315E-02  0.35450236636E-02  0.22760912189E-01  0.23072579157E-01  0.00000000000E+00 0. -1.
     999901    1    3    3    0    0 -0.89501229176E-01  0.82476703266E-01 -0.54688056185E-01  0.89005823410E+00  0.88000000000E+00 0.  1.
        -11    1    4    4    0    0  0.32145205516E-01 -0.42712863346E-01  0.80221564642E-02  0.54058478043E-01  0.51100000000E-03 0. -1.
         11    1    4    4    0    0  0.58666593191E-01 -0.43308863583E-01  0.23904987532E-01  0.76740708698E-01  0.51100000000E-03 0.  1.
</event>
<event>
 8    1  0.1070112E+005  0.1043930E+01  0.7957747E-01            NaN
         13   -1    0    0    0    0  0.00000000000E+00  0.00000000000E+00  0.74505805969E-08  0.10566000000E+00  0.10566000000E+00 0.  1.
     999900   -1    0    0    0    0 -0.00000000000E+00 -0.00000000000E+00 -0.74505805969E-08  0.93827000000E+00  0.93827000000E+00 0.  1.
     999902    2    1    2    0    0 -0.21849426658E-01  0.56222368348E-02 -0.83140652048E-02  0.10198856520E+01  0.10196021834E+01 0.  0.
     999903    2    3    3    0    0  0.82849823402E-01  0.48105020132E-01  0.82142326898E-01  0.12806219482E+00  0.21780212897E-01 0.  0.
         14    1    1    2    0    0  0.21849426658E-01 -0.56222368348E-02  0.83140652048E-02  0.24044348038E-01  0.00000000000E+00 0.  1.
     999901    1    3    3    0    0 -0.10469925006E+00 -0.42482783297E-01 -0.90456392103E-01  0.89182345714E+00  0.88000000000E+00 0. -1.
        -11    1    4    4    0    0  0.29723415335E-01  0.24847411652E-01  0.44099991398E-01  0.58702177535E-01  0.51100000000E-03 0.  1.
         11    1    4    4    0    0  0.53126408067E-01  0.23257608480E-01  0.38042335500E-01  0.69360017284E-01  0.51100000000E-03 0. -1.
</event>
<event>
 8    1  0.1070112E+005  0.1043930E+01  0.7957747E-01            NaN
         13   -1    0    0    0    0  0.00000000000E+00  0.00000000000E+00  0.74505805969E-08  0.10566000000E+00  0.10566000000E+00 0.  1.
     999900   -1    0    0    0    0 -0.00000000000E+00 -0.00000000000E+00 -0.74505805969E-08  0.93827000000E+00  0.93827000000E+00 0.  1.
     999902    2    1    2    0    0  0.24103185837E-02  0.22147355231E-01 -0.86492420043E-02  0.10200317916E+01  0.10197517989E+01 0.  0.
     999903    2    3    3    0    0 -0.10345947807E+00 -0.53052459910E-01  0.51221608998E-01  0.12848933893E+00  0.19168460690E-01 0.  0.
         14    1    1    2    0    0 -0.24103185837E-02 -0.22147355231E-01  0.86492420043E-02  0.23898208440E-01  0.00000000000E+00 0.  1.
     999901    1    3    3    0    0  0.10586979665E+00  0.75199815141E-01 -0.59870851003E-01  0.89154245263E+00  0.88000000000E+00 0.  1.
        -11    1    4    4    0    0 -0.95459459973E-01 -0.53381745473E-01  0.44717470505E-01  0.11816104492E+00  0.51100000000E-03 0. -1.
         11    1    4    4    0    0 -0.80000180975E-02  0.32928556331E-03  0.65041384933E-02  0.10328294006E-01  0.51100000000E-03 0.  1.
</event>
<event>
 8    1  0.1070112E+005  0.1043930E+01  0.7957747E-01            NaN
         13   -1    0    0    0    0  0.00000000000E+00  0.00000000000E+00  0.74505805969E-08  0.10566000000E+00  0.10566000000E+00 0. -1.
     999900   -1    0    0    0    0 -0.00000000000E+00 -0.00000000000E+00 -0.74505805969E-08  0.93827000000E+00  0.93827000000E+00 0. -1.
     999902    2    1    2    0    0 -0.12141322188E-01  0.11952172292E-01  0.15744419528E-01  0.10207318778E+01  0.10204682325E+01 0.  0.
     999903    2    3    3    0    0 -0.12362468865E-01  0.90673417318E-01 -0.91927407979E-01  0.13068114568E+00  0.15887550271E-01 0.  0.
         14    1    1    2    0    0  0.12141322188E-01 -0.11952172292E-01 -0.15744419528E-01  0.23198122192E-01  0.00000000000E+00 0. -1.
     999901    1    3    3    0    0  0.22114667736E-03 -0.78721245026E-01  0.10767182751E+00  0.89005073213E+00  0.88000000000E+00 0.  1.
        -11    1    4    4    0    0 -0.34673129053E-02  0.30070093334E-01 -0.41330244416E-01  0.51231660097E-01  0.51100000000E-03 0. -1.
         11    1    4    4    0    0 -0.88951559596E-02  0.60603323984E-01 -0.50597163564E-01  0.79449485581E-01  0.51100000000E-03 0.  1.
</event>
<event>
 8    1  0.1070112E+005  0.1043930E+01  0.7957747E-01            NaN
         13   -1    0    0    0    0  0.00000000000E+00  0.00000000000E+00  0.74505805969E-08  0.10566000000E+00  0.10566000000E+00 0. -1.
     999900   -1    0    0    0    0 -0.00000000000E+00 -0.00000000000E+00 -0.74505805969E-08  0.93827000000E+00  0.93827000000E+00 0. -1.
     999902    2    1    2    0    0  0.10682200616E-01  0.19926895241E-01  0.46553753597E-02  0.10208461727E+01  0.10205851484E+01 0.  0.
     999903    2    3    3    0    0 -0.71677562719E-01 -0.71099114479E-01  0.77852246110E-01  0.12931566454E+00  0.21652062110E-01 0.  0.
         14    1    1    2    0    0 -0.10682200616E-01 -0.19926895241E-01 -0.46553753597E-02  0.23083827319E-01  0.00000000000E+00 0. -1.
     999901    1    3    3    0    0  0.82359763335E-01  0.91026009720E-01 -0.73196870750E-01  0.89153050814E+00  0.88000000000E+00 0.  1.
        -11    1    4    4    0    0 -0.30093305090E-01 -0.25026982978E-01  0.17968952873E-01  0.43070886647E-01  0.51100000000E-03 0. -1.
         11    1    4    4    0    0 -0.41584257629E-01 -0.46072131501E-01  0.59883293237E-01  0.86244777891E-01  0.51100000000E-03 0.  1.
</event>
<event>
 8    1  0.1070112E+005  0.1043930E+01  0.7957747E-01            NaN
         13   -1    0    0    0    0  0.00000000000E+00  0.00000000000E+00  0.74505805969E-08  0.10566000000E+00  0.10566000000E+00 0. -1.
     999900   -1    0    0    0    0 -0.00000000000E+00 -0.00000000000E+00 -0.74505805969E-08  0.93827000000E+00  0.93827000000E+00 0. -1.
     999902    2    1    2    0    0  0.74268656327E-02  0.15113336879E-01  0.14148272964E-01  0.10219357982E+01  0.10216990901E+01 0.  0.
     999903    2    3    3    0    0 -0.43806044240E-01  0.11379096067E+00 -0.49109857965E-01  0.13268685915E+00  0.18074075335E-01 0.  0.
         14    1    1    2    0    0 -0.74268656327E-02 -0.15113336879E-01 -0.14148272964E-01  0.21994201795E-01  0.00000000000E+00 0.  1.
     999901    1    3    3    0    0  0.51232909873E-01 -0.98677623787E-01  0.63258130928E-01  0.88924893906E+00  0.88000000000E+00 0.  1.
        -11    1    4    4    0    0 -0.28155499111E-01  0.87761592221E-01 -0.42982855861E-01  0.10169865396E+00  0.51100000000E-03 0.  1.
         11    1    4    4    0    0 -0.15650545129E-01  0.26029368446E-01 -0.61270021035E-02  0.30988205180E-01  0.51100000000E-03 0. -1.
</event>
<event>
 8    1  0.1070112E+005  0.1043930E+01  0.7957747E-01            NaN
         13   -1    0    0    0    0  0.00000000000E+00  0.00000000000E+00  0.74505805969E-08  0.10566000000E+00  0.10566000000E+00 0. -1.
     999900   -1    0    0    0    0 -0.00000000000E+00 -0.00000000000E+00 -0.74505805969E-08  0.93827000000E+00  0.93827000000E+00 0. -1.
     999902    2    1    2    0    0  0.10562435788E-01  0.57007269548E-02  0.20451945660E-01  0.10202161766E+01  0.10199405383E+01 0.  0.
     999903    2    3    3    0    0 -0.11847858989E+00 -0.28599838231E-01 -0.34986017387E-01  0.12841940447E+00  0.20307511486E-01 0.  0.
         14    1    1    2    0    0 -0.10562435788E-01 -0.57007269548E-02 -0.20451945660E-01  0.23713823371E-01  0.00000000000E+00 0. -1.
     999901    1    3    3    0    0  0.12904102568E+00  0.34300565186E-01  0.55437963047E-01  0.89179677216E+00  0.88000000000E+00 0.  1.
        -11    1    4    4    0    0 -0.88028143150E-01 -0.14798796682E-01 -0.18591245092E-01  0.91180337161E-01  0.51100000000E-03 0. -1.
         11    1    4    4    0    0 -0.30450446743E-01 -0.13801041549E-01 -0.16394772295E-01  0.37239067312E-01  0.51100000000E-03 0.  1.
</event>
<event>
 8    1  0.1070112E+005  0.1043930E+01  0.7957747E-01            NaN
         13   -1    0    0    0    0  0.00000000000E+00  0.00000000000E+00  0.74505805969E-08  0.10566000000E+00  0.10566000000E+00 0. -1.
     999900   -1    0    0    0    0 -0.00000000000E+00 -0.00000000000E+00 -0.74505805969E-08  0.93827000000E+00  0.93827000000E+00 0. -1.
     999902    2    1    2    0    0  0.27076973459E-02 -0.19019279067E-01 -0.13289779656E-01  0.10205701446E+01  0.10203027674E+01 0.  0.
     999903    2    3    3    0    0 -0.40664686185E-01 -0.95899785951E-01 -0.81116774817E-01  0.13355702335E+00  0.20178247726E-01 0.  0.
         14    1    1    2    0    0 -0.27076973459E-02  0.19019279067E-01  0.13289779656E-01  0.23359855403E-01  0.00000000000E+00 0. -1.
     999901    1    3    3    0    0  0.43372383531E-01  0.76880506885E-01  0.67826995161E-01  0.88701312125E+00  0.88000000000E+00 0.  1.
        -11    1    4    4    0    0 -0.19427908107E-01 -0.32141102436E-01 -0.19221777910E-01  0.42192794956E-01  0.51100000000E-03 0. -1.
         11    1    4    4    0    0 -0.21236778077E-01 -0.63758683515E-01 -0.61894996908E-01  0.91364228393E-01  0.51100000000E-03 0.  1.
</event>
<event>
 8    1  0.1070112E+005  0.1043930E+01  0.7957747E-01            NaN
         13   -1    0    0    0    0  0.00000000000E+00  0.00000000000E+00  0.74505805969E-08  0.10566000000E+00  0.10566000000E+00 0. -1.
     999900   -1    0    0    0    0 -0.00000000000E+00 -0.00000000000E+00 -0.74505805969E-08  0.93827000000E+00  0.93827000000E+00 0. -1.
     999902    2    1    2    0    0  0.13458406385E-01 -0.16376674680E-01 -0.10254230474E-01  0.10203827407E+01  0.10201110058E+01 0.  0.
     999903    2    3    3    0    0  0.18480619657E-02  0.10517581369E+00  0.69595846030E-01  0.12837049741E+00  0.23875420465E-01 0.  0.
         14    1    1    2    0    0 -0.13458406385E-01  0.16376674680E-01  0.10254230474E-01  0.23547259259E-01  0.00000000000E+00 0.  1.
     999901    1    3    3    0    0  0.11610344419E-01 -0.12155248837E+00 -0.79850076504E-01  0.89201224333E+00  0.88000000000E+00 0. -1.
        -11    1    4    4    0    0  0.11213016114E-01  0.35500565618E-01  0.28944864840E-01  0.47160239728E-01  0.51100000000E-03 0. -1.
         11    1    4    4    0    0 -0.93649541488E-02  0.69675248077E-01  0.40650981190E-01  0.81210257686E-01  0.51100000000E-03 0.  1.
</event>
<event>
 8    1  0.1070112E+005  0.1043930E+01  0.7957747E-01            NaN
         13   -1    0    0    0    0  0.00000000000E+00  0.00000000000E+00  0.74505805969E-08  0.10566000000E+00  0.10566000000E+00 0. -1.
     999900   -1    0    0    0    0 -0.00000000000E+00 -0.00000000000E+00 -0.74505805969E-08  0.93827000000E+00  0.93827000000E+00 0. -1.
     999902    2    1    2    0    0 -0.23616528307E-01  0.12437883843E-01  0.93955598636E-02  0.10156330406E+01  0.10152387676E+01 0.  0.
     999903    2    3    3    0    0 -0.11259641068E+00 -0.27425942506E-01  0.53499684635E-01  0.12915026137E+00  0.19683488933E-01 0.  0.
         14    1    1    2    0    0  0.23616528307E-01 -0.12437883843E-01 -0.93955598636E-02  0.28296959358E-01  0.00000000000E+00 0.  1.
     999901    1    3    3    0    0  0.88979882373E-01  0.39863826349E-01 -0.44104124771E-01  0.88648277927E+00  0.88000000000E+00 0. -1.
        -11    1    4    4    0    0 -0.41993959277E-01 -0.50840445441E-02  0.10774414867E-01  0.43654200960E-01  0.51100000000E-03 0.  1.
         11    1    4    4    0    0 -0.70602451402E-01 -0.22341897962E-01  0.42725269768E-01  0.85496060414E-01  0.51100000000E-03 0. -1.
</event>
<event>
 8    1  0.1070112E+005  0.1043930E+01  0.7957747E-01            NaN
         13   -1    0    0    0    0  0.00000000000E+00  0.00000000000E+00  0.74505805969E-08  0.10566000000E+00  0.10566000000E+00 0.  1.
     999900   -1    0    0    0    0 -0.00000000000E+00 -0.00000000000E+00 -0.74505805969E-08  0.93827000000E+00  0.93827000000E+00 0. -1.
     999902    2    1    2    0    0  0.16109560142E-01  0.16978306889E-01 -0.52899869516E-02  0.10199349006E+01  0.10196526059E+01 0.  0.
     999903    2    3    3    0    0  0.11914112492E+00 -0.49178631785E-01 -0.15769176577E-01  0.13139561769E+00  0.20074758940E-01 0.  0.
         14    1    1    2    0    0 -0.16109560142E-01 -0.16978306889E-01  0.52899869516E-02  0.23995099389E-01  0.00000000000E+00 0. -1.
     999901    1    3    3    0    0 -0.10303156478E+00  0.66156938674E-01  0.10479189625E-01  0.88853928292E+00  0.88000000000E+00 0.  1.
        -11    1    4    4    0    0  0.78068372065E-01 -0.26496385108E-01 -0.18975976524E-02  0.82465696738E-01  0.51100000000E-03 0. -1.
         11    1    4    4    0    0  0.41072752858E-01 -0.22682246677E-01 -0.13871578925E-01  0.48929920953E-01  0.51100000000E-03 0.  1.
</event>
<event>
 8    1  0.1070112E+005  0.1043930E+01  0.7957747E-01            NaN
         13   -1    0    0    0    0  0.00000000000E+00  0.00000000000E+00  0.74505805969E-08  0.10566000000E+00  0.10566000000E+00 0. -1.
     999900   -1    0    0    0    0 -0.00000000000E+00 -0.00000000000E+00 -0.74505805969E-08  0.93827000000E+00  0.93827000000E+00 0. -1.
     999902    2    1    2    0    0 -0.14522870118E-02 -0.96582517100E-02 -0.21243446859E-01  0.10205489179E+01  0.10202810490E+01 0.  0.
     999903    2    3    3    0    0  0.78186619386E-01 -0.90273254607E-03 -0.10553522198E+00  0.13289801929E+00  0.20254334732E-01 0.  0.
         14    1    1    2    0    0  0.14522870118E-02  0.96582517100E-02  0.21243446859E-01  0.23381082056E-01  0.00000000000E+00 0. -1.
     999901    1    3    3    0    0 -0.79638906398E-01 -0.87555191639E-02  0.84291775123E-01  0.88765089865E+00  0.88000000000E+00 0.  1.
        -11    1    4    4    0    0  0.34175201276E-01 -0.25802741168E-02 -0.62700858803E-01  0.71458106695E-01  0.51100000000E-03 0.  1.
         11    1    4    4    0    0  0.44011418111E-01  0.16775415707E-02 -0.42834363179E-01  0.61439912595E-01  0.51100000000E-03 0. -1.
</event>
<event>
 8    1  0.1070112E+005  0.1043930E+01  0.7957747E-01            NaN
         13   -1    0    0    0    0  0.00000000000E+00  0.00000000000E+00  0.74505805969E-08  0.10566000000E+00  0.10566000000E+00 0.  1.
     999900   -1    0    0    0    0 -0.00000000000E+00 -0.00000000000E+00 -0.74505805969E-08  0.93827000000E+00  0.93827000000E+00 0.  1.
     999902    2    1    2    0    0  0.13709810601E-01 -0.48009166269E-03  0.19097385661E-01  0.10204161842E+01  0.10201452296E+01 0.  0.
     999903    2    3    3    0    0 -0.40902111433E-01 -0.10095807160E+00 -0.66803985580E-01  0.12886846698E+00  0.16697136066E-01 0.  0.
         14    1    1    2    0    0 -0.13709810601E-01  0.48009166269E-03 -0.19097385661E-01  0.23513815808E-01  0.00000000000E+00 0. -1.
     999901    1    3    3    0    0  0.54611922035E-01  0.10047797994E+00  0.85901371241E-01  0.89154771721E+00  0.88000000000E+00 0. -1.
        -11    1    4    4    0    0 -0.33972988518E-01 -0.92628844969E-01 -0.55500493075E-01  0.11320261800E+00  0.51100000000E-03 0.  1.
         11    1    4    4    0    0 -0.69291229158E-02 -0.83292266293E-02 -0.11303492505E-01  0.15665848985E-01  0.51100000000E-03 0. -1.
</event>
<event>
 8    1  0.1070112E+005  0.1043930E+01  0.7957747E-01            NaN
         13   -1    0    0    0    0  0.00000000000E+00  0.00000000000E+00  0.74505805969E-08  0.10566000000E+00  0.10566000000E+00 0. -1.
     999900   -1    0    0    0    0 -0.00000000000E+00 -0.00000000000E+00 -0.74505805969E-08  0.93827000000E+00  0.93827000000E+00 0.  1.
     999902    2    1    2    0    0 -0.57769472348E-04 -0.13673563923E-01 -0.18772028669E-01  0.10207059016E+01  0.10204416587E+01 0.  0.
     999903    2    3    3    0    0 -0.38514104103E-01  0.12067259934E+00 -0.19317206462E-01  0.12967948306E+00  0.19959995400E-01 0.  0.
         14    1    1    2    0    0  0.57769472348E-04  0.13673563923E-01  0.18772028669E-01  0.23224098433E-01  0.00000000000E+00 0. -1.
     999901    1    3    3    0    0  0.38456334630E-01 -0.13434616326E+00  0.54517779374E-03  0.89102641851E+00  0.88000000000E+00 0. -1.
        -11    1    4    4    0    0 -0.34775974164E-01  0.11754402245E+00 -0.21252033457E-01  0.12441011068E+00  0.51100000000E-03 0. -1.
         11    1    4    4    0    0 -0.37381299393E-02  0.31285768830E-02  0.19348269943E-02  0.52693723776E-02  0.51100000000E-03 0.  1.
</event>
<event>
 8    1  0.1070112E+005  0.1043930E+01  0.7957747E-01            NaN
         13   -1    0    0    0    0  0.00000000000E+00  0.00000000000E+00  0.74505805969E-08  0.10566000000E+00  0.10566000000E+00 0. -1.
     999900   -1    0    0    0    0 -0.00000000000E+00 -0.00000000000E+00 -0.74505805969E-08  0.93827000000E+00  0.93827000000E+00 0. -1.
     999902    2    1    2    0    0  0.11256625038E-01 -0.15546613334E-01  0.14274585009E-01  0.10200098710E+01  0.10197293584E+01 0.  0.
     999903    2    3    3    0    0 -0.44891135170E-01 -0.46562313710E-01 -0.10978616408E+00  0.12899605849E+00  0.20092740152E-01 0.  0.
         14    1    1    2    0    0 -0.11256625038E-01  0.15546613334E-01 -0.14274585009E-01  0.23920128984E-01  0.00000000000E+00 0.  1.
     999901    1    3    3    0    0  0.56147760208E-01  0.31015700376E-01  0.12406074909E+00  0.89101381253E+00  0.88000000000E+00 0.  1.
        -11    1    4    4    0    0 -0.20427382949E-01 -0.10080182716E-01 -0.48577712162E-01  0.53655785313E-01  0.51100000000E-03 0.  1.
         11    1    4    4    0    0 -0.24463752221E-01 -0.36482130994E-01 -0.61208451923E-01  0.75340273177E-01  0.51100000000E-03 0. -1.
</event>
<event>
 8    1  0.1070112E+005  0.1043930E+01  0.7957747E-01            NaN
         13   -1    0    0    0    0  0.00000000000E+00  0.00000000000E+00  0.74505805969E-08  0.10566000000E+00  0.10566000000E+00 0.  1.
     999900   -1    0    0    0    0 -0.00000000000E+00 -0.00000000000E+00 -0.74505805969E-08  0.93827000000E+00  0.93827000000E+00 0.  1.
     999902    2    1    2    0    0 -0.64262240200E-03  0.89268400515E-03 -0.23229719177E-01  0.10206742544E+01  0.10204092826E+01 0.  0.
     999903    2    3    3    0    0 -0.42962269428E-02  0.11555158416E+00 -0.60805018698E-01  0.13243334380E+00  0.21695946227E-01 0.  0.
         14    1    1    2    0    0  0.64262240200E-03 -0.89268400515E-03  0.23229719177E-01  0.23255745555E-01  0.00000000000E+00 0.  1.
     999901    1    3    3    0    0  0.36536045408E-02 -0.11465890016E+00  0.37575299521E-01  0.88824091065E+00  0.88000000000E+00 0. -1.
        -11    1    4    4    0    0 -0.39266188474E-02  0.68694275860E-02 -0.67385747911E-04  0.79292517157E-02  0.51100000000E-03 0.  1.
         11    1    4    4    0    0 -0.36960809542E-03  0.10868215658E+00 -0.60737632950E-01  0.12450409208E+00  0.51100000000E-03 0. -1.
</event>
<event>
 8    1  0.1070112E+005  0.1043930E+01  0.7957747E-01            NaN
         13   -1    0    0    0    0  0.00000000000E+00  0.00000000000E+00  0.74505805969E-08  0.10566000000E+00  0.10566000000E+00 0.  1.
     999900   -1    0    0    0    0 -0.00000000000E+00 -0.00000000000E+00 -0.74505805969E-08  0.93827000000E+00  0.93827000000E+00 0.  1.
     999902    2    1    2    0    0  0.19193894253E-01  0.10068460402E-01 -0.88923103192E-02  0.10205023955E+01  0.10202334471E+01 0.  0.
     999903    2    3    3    0    0 -0.26945536716E-02 -0.10624350008E+00  0.70318100026E-01  0.12905308933E+00  0.20374561229E-01 0.  0.
         14    1    1    2    0    0 -0.19193894253E-01 -0.10068460402E-01  0.88923103192E-02  0.23427604536E-01  0.00000000000E+00 0. -1.
     999901    1    3    3    0    0  0.21888447925E-01  0.11631196048E+00 -0.79210410345E-01  0.89144930614E+00  0.88000000000E+00 0.  1.
        -11    1    4    4    0    0 -0.64475959276E-02 -0.46151621028E-01  0.41055939884E-01  0.62107929748E-01  0.51100000000E-03 0. -1.
         11    1    4    4    0    0  0.37530422560E-02 -0.60091879051E-01  0.29262160142E-01  0.66945159580E-01  0.51100000000E-03 0.  1.
</event>
<event>
 8    1  0.1070112E+005  0.1043930E+01  0.7957747E-01            NaN
         13   -1    0    0    0    0  0.00000000000E+00  0.00000000000E+00  0.74505805969E-08  0.10566000000E+00  0.10566000000E+00 0. -1.
     999900   -1    0    0    0    0 -0.00000000000E+00 -0.00000000000E+00 -0.74505805969E-08  0.93827000000E+00  0.93827000000E+00 0. -1.
     999902    2    1    2    0    0 -0.13810782064E-01 -0.23641390410E-02 -0.30587957805E-01  0.10102855351E+01  0.10097251668E+01 0.  0.
     999903    2    3    3    0    0 -0.74869156376E-01  0.26978816789E-01 -0.94476441081E-01  0.12537261713E+00  0.21430074060E-01 0.  0.
         14    1    1    2    0    0  0.13810782064E-01  0.23641390410E-02  0.30587957805E-01  0.33644464883E-01  0.00000000000E+00 0. -1.
     999901    1    3    3    0    0  0.61058374312E-01 -0.29342955830E-01  0.63888483276E-01  0.88491291799E+00  0.88000000000E+00 0.  1.
        -11    1    4    4    0    0 -0.47657228441E-01  0.24327733710E-01 -0.73465720643E-01  0.90887420915E-01  0.51100000000E-03 0.  1.
         11    1    4    4    0    0 -0.27211927934E-01  0.26510830795E-02 -0.21010720438E-01  0.34485196211E-01  0.51100000000E-03 0. -1.
</event>
<event>
 8    1  0.1070112E+005  0.1043930E+01  0.7957747E-01            NaN
         13   -1    0    0    0    0  0.00000000000E+00  0.00000000000E+00  0.74505805969E-08  0.10566000000E+00  0.10566000000E+00 0. -1.
     999900   -1    0    0    0    0 -0.00000000000E+00 -0.00000000000E+00 -0.74505805969E-08  0.93827000000E+00  0.93827000000E+00 0.  1.
     999902    2    1    2    0    0  0.29042127130E-02 -0.15277446192E-01 -0.17502374671E-01  0.10205170136E+01  0.10202484046E+01 0.  0.
     999903    2    3    3    0    0 -0.91981340571E-01  0.70490106073E-01 -0.56504392172E-01  0.13041561565E+00  0.19648521641E-01 0.  0.
         14    1    1    2    0    0 -0.29042127130E-02  0.15277446192E-01  0.17502374671E-01  0.23412986413E-01  0.00000000000E+00 0. -1.
     999901    1    3    3    0    0  0.94885553284E-01 -0.85767552266E-01  0.39002017501E-01  0.89010139794E+00  0.88000000000E+00 0. -1.
        -11    1    4    4    0    0 -0.73315358666E-01  0.51763236768E-01 -0.51581407895E-01  0.10351558945E+00  0.51100000000E-03 0.  1.
         11    1    4    4    0    0 -0.18665981905E-01  0.18726869305E-01 -0.49229842772E-02  0.26900026202E-01  0.51100000000E-03 0. -1.
</event>
<event>
 8    1  0.1070112E+005  0.1043930E+01  0.7957747E-01            NaN
         13   -1    0    0    0    0  0.00000000000E+00  0.00000000000E+00  0.74505805969E-08  0.10566000000E+00  0.10566000000E+00 0. -1.
     999900   -1    0    0    0    0 -0.00000000000E+00 -0.00000000000E+00 -0.74505805969E-08  0.93827000000E+00  0.93827000000E+00 0.  1.
     999902    2    1    2    0    0 -0.44610092856E-02 -0.22752021493E-01  0.39946147627E-02  0.10204031636E+01  0.10201319053E+01 0.  0.
     999903    2    3    3    0    0  0.12039852987E+00 -0.47947106923E-01 -0.63134295920E-02  0.13117262392E+00  0.19278662213E-01 0.  0.
         14    1    1    2    0    0  0.44610092856E-02  0.22752021493E-01 -0.39946147627E-02  0.23526836442E-01  0.00000000000E+00 0. -1.
     999901    1    3    3    0    0 -0.12485953915E+00  0.25195085430E-01  0.10308044355E-01  0.88923053964E+00  0.88000000000E+00 0.  1.
        -11    1    4    4    0    0  0.22495157617E-01 -0.12534564591E-02 -0.18424496416E-02  0.22611037371E-01  0.51100000000E-03 0. -1.
         11    1    4    4    0    0  0.97903372248E-01 -0.46693650464E-01 -0.44709799504E-02  0.10856158655E+00  0.51100000000E-03 0.  1.
</event>
<event>
 8    1  0.1070112E+005  0.1043930E+01  0.7957747E-01            NaN
         13   -1    0    0    0    0  0.00000000000E+00  0.00000000000E+00  0.74505805969E-08  0.10566000000E+00  0.10566000000E+00 0.  1.
     999900   -1    0    0    0    0 -0.00000000000E+00 -0.00000000000E+00 -0.74505805969E-08  0.93827000000E+00  0.93827000000E+00 0. -1.
     999902    2    1    2    0    0  0.12256081915E-02 -0.21743880024E-01 -0.96454766090E-02  0.10201112332E+01  0.10198331209E+01 0.  0.
     999903    2    3    3    0    0  0.76159427213E-01  0.99847143938E-01 -0.19696693051E-01  0.12853931724E+00  0.19096749792E-01 0.  0.
         14    1    1    2    0    0 -0.12256081915E-02  0.21743880024E-01  0.96454766090E-02  0.23818766823E-01  0.00000000000E+00 0. -1.
     999901    1    3    3    0    0 -0.74933819021E-01 -0.12159102396E+00  0.10051216442E-01  0.89157191594E+00  0.88000000000E+00 0.  1.
        -11    1    4    4    0    0  0.44831104536E-01  0.45822742328E-01 -0.45086582314E-02  0.64266171260E-01  0.51100000000E-03 0.  1.
         11    1    4    4    0    0  0.31328322676E-01  0.54024401611E-01 -0.15188034819E-01  0.64273145977E-01  0.51100000000E-03 0. -1.
</event>
<event>
 8    1  0.1070112E+005  0.1043930E+01  0.7957747E-01            NaN
         13   -1    0    0    0    0  0.00000000000E+00  0.00000000000E+00  0.74505805969E-08  0.10566000000E+00  0.10566000000E+00 0.  1.
     999900   -1    0    0    0    0 -0.00000000000E+00 -0.00000000000E+00 -0.74505805969E-08  0.93827000000E+00  0.93827000000E+00 0. -1.
     999902    2    1    2    0    0  0.10743364605E-02  0.87434313697E-02  0.21307685287E-01  0.10208731302E+01  0.10206127222E+01 0.  0.
     999903    2    3    3    0    0  0.53403536925E-01 -0.11683414364E+00  0.32369660418E-02  0.13023592943E+00  0.21184062177E-01 0.  0.
         14    1    1    2    0    0 -0.10743364605E-02 -0.87434313697E-02 -0.21307685287E-01  0.23056869762E-01  0.00000000000E+00 0. -1.
     999901    1    3    3    0    0 -0.52329200464E-01  0.12557757501E+00  0.18070719245E-01  0.89063720081E+00  0.88000000000E+00 0. -1.
        -11    1    4    4    0    0  0.25059206279E-01 -0.79164883151E-01  0.11836080290E-02  0.83046400239E-01  0.51100000000E-03 0.  1.
         11    1    4    4    0    0  0.28344330646E-01 -0.37669260486E-01  0.20533580128E-02  0.47189529193E-01  0.51100000000E-03 0. -1.
</event>
<event>
 8    1  0.1070112E+005  0.1043930E+01  0.7957747E-01            NaN
         13   -1    0    0    0    0  0.00000000000E+00  0.00000000000E+00  0.74505805969E-08  0.10566000000E+00  0.10566000000E+00 0. -1.
     999900   -1    0    0    0    0 -0.00000000000E+00 -0.00000000000E+00 -0.74505805969E-08  0.93827000000E+00  0.93827000000E+00 0.  1.
     999902    2    1    2    0    0 -0.17004287378E-01  0.14655649139E-01  0.50263767826E-02  0.10209256894E+01  0.10206664808E+01 0.  0.
     999903    2    3    3    0    0  0.83162133883E-01 -0.95371954508E-01  0.90777843359E-02  0.12842594187E+00  0.19976640277E-01 0.  0.
         14    1    1    2    0    0  0.17004287378E-01 -0.14655649139E-01 -0.50263767826E-02  0.23004310563E-01  0.00000000000E+00 0.  1.
     999901    1    3    3    0    0 -0.10016642126E+00  0.11002760365E+00 -0.40514075533E-02  0.89249974757E+00  0.88000000000E+00 0.  1.
        -11    1    4    4    0    0  0.52958650007E-01 -0.69990839583E-01  0.13195273354E-01  0.88756479177E-01  0.51100000000E-03 0. -1.
         11    1    4    4    0    0  0.30203483877E-01 -0.25381114926E-01 -0.41174890178E-02  0.39669462688E-01  0.51100000000E-03 0.  1.
</event>
<event>
 8    1  0.1070112E+005  0.1043930E+01  0.7957747E-01            NaN
         13   -1    0    0    0    0  0.00000000000E+00  0.00000000000E+00  0.74505805969E-08  0.10566000000E+00  0.10566000000E+00 0. -1.
     999900   -1    0    0    0    0 -0.00000000000E+00 -0.00000000000E+00 -0.74505805969E-08  0.93827000000E+00  0.93827000000E+00 0. -1.
     999902    2    1    2    0    0  0.16716623451E-01  0.16754002656E-01  0.89903856797E-03  0.10202456090E+01  0.10199706625E+01 0.  0.
     999903    2    3    3    0    0 -0.70603135212E-01  0.10823358947E+00  0.10205354501E-01  0.13115626451E+00  0.19962561652E-01 0.  0.
         14    1    1    2    0    0 -0.16716623451E-01 -0.16754002656E-01 -0.89903856797E-03  0.23684390956E-01  0.00000000000E+00 0. -1.
     999901    1    3    3    0    0  0.87319758664E-01 -0.91479586811E-01 -0.93063159331E-02  0.88908934454E+00  0.88000000000E+00 0. -1.
        -11    1    4    4    0    0 -0.35388316050E-01  0.36572605732E-01  0.29268527889E-02  0.50977602839E-01  0.51100000000E-03 0.  1.
         11    1    4    4    0    0 -0.35214819162E-01  0.71660983735E-01  0.72785017122E-02  0.80178661667E-01  0.51100000000E-03 0. -1.
</event>
<event>
 8    1  0.1070112E+005  0.1043930E+01  0.7957747E-01            NaN
         13   -1    0    0    0    0  0.00000000000E+00  0.00000000000E+00  0.74505805969E-08  0.10566000000E+00  0.10566000000E+00 0. -1.
     999900   -1    0    0    0    0 -0.00000000000E+00 -0.00000000000E+00 -0.74505805969E-08  0.93827000000E+00  0.93827000000E+00 0. -1.
     999902    2    1    2    0    0 -0.15967711156E-01 -0.17295649881E-01 -0.89566595446E-02  0.10187441100E+01  0.10184327335E+01 0.  0.
     999903    2    3    3    0    0 -0.30338442227E-01 -0.12674880201E+00  0.40983235805E-02  0.13175090654E+00  0.18863330257E-01 0.  0.
         14    1    1    2    0    0  0.15967711156E-01  0.17295649881E-01  0.89566595446E-02  0.25185889989E-01  0.00000000000E+00 0. -1.
     999901    1    3    3    0    0  0.14370731071E-01  0.10945315213E+00 -0.13054983125E-01  0.88699320347E+00  0.88000000000E+00 0.  1.
        -11    1    4    4    0    0 -0.13133802258E-01 -0.82735087425E-01  0.89191156821E-02  0.84246087140E-01  0.51100000000E-03 0. -1.
         11    1    4    4    0    0 -0.17204639969E-01 -0.44013714590E-01 -0.48207921016E-02  0.47504819397E-01  0.51100000000E-03 0.  1.
</event>
<event>
 8    1  0.1070112E+005  0.1043930E+01  0.7957747E-01            NaN
         13   -1    0    0    0    0  0.00000000000E+00  0.00000000000E+00  0.74505805969E-08  0.10566000000E+00  0.10566000000E+00 0.  1.
     999900   -1    0    0    0    0 -0.00000000000E+00 -0.00000000000E+00 -0.74505805969E-08  0.93827000000E+00  0.93827000000E+00 0. -1.
     999902    2    1    2    0    0 -0.18658174778E-01 -0.10944903517E-01  0.89117211498E-02  0.10205347617E+01  0.10202665646E+01 0.  0.
     999903    2    3    3    0    0 -0.10788281986E+00 -0.59437847515E-01  0.48189958442E-01  0.13382433391E+00  0.20374486839E-01 0.  0.
         14    1    1    2    0    0  0.18658174778E-01  0.10944903517E-01 -0.89117211498E-02  0.23395238253E-01  0.00000000000E+00 0. -1.
     999901    1    3    3    0    0  0.89224645082E-01  0.48492943998E-01 -0.39278237293E-01  0.88671042784E+00  0.88000000000E+00 0. -1.
        -11    1    4    4    0    0 -0.70085613587E-01 -0.37940309919E-01  0.41407397258E-01  0.89812549331E-01  0.51100000000E-03 0.  1.
         11    1    4    4    0    0 -0.37797206273E-01 -0.21497537597E-01  0.67825611843E-02  0.44011784581E-01  0.51100000000E-03 0. -1.
</event>
<event>
 8    1  0.1070112E+005  0.1043930E+01  0.7957747E-01            NaN
         13   -1    0    0    0    0  0.00000000000E+00  0.00000000000E+00  0.74505805969E-08  0.10566000000E+00  0.10566000000E+00 0. -1.
     999900   -1    0    0    0    0 -0.00000000000E+00 -0.00000000000E+00 -0.74505805969E-08  0.93827000000E+00  0.93827000000E+00 0. -1.
     999902    2    1    2    0    0  0.22537599972E-01 -0.70234944766E-02 -0.51814238581E-02  0.10197614245E+01  0.10194749840E+01 0.  0.
     999903    2    3    3    0    0 -0.87726467203E-02  0.99303500837E-01 -0.80180786589E-01  0.12964308077E+00  0.20981545345E-01 0.  0.
         14    1    1    2    0    0 -0.22537599972E-01  0.70234944766E-02  0.51814238581E-02  0.24168575472E-01  0.00000000000E+00 0.  1.
     999901    1    3    3    0    0  0.31310246692E-01 -0.10632699531E+00  0.74999362731E-01  0.89011834376E+00  0.88000000000E+00 0.  1.
        -11    1    4    4    0    0 -0.86085366689E-02  0.55174429156E-01 -0.56984080419E-01  0.79785782433E-01  0.51100000000E-03 0.  1.
         11    1    4    4    0    0 -0.16411005141E-03  0.44129071680E-01 -0.23196706170E-01  0.49857298339E-01  0.51100000000E-03 0. -1.
</event>
<event>
 8    1  0.1070112E+005  0.1043930E+01  0.7957747E-01            NaN
         13   -1    0    0    0    0  0.00000000000E+00  0.00000000000E+00  0.74505805969E-08  0.10566000000E+00  0.10566000000E+00 0.  1.
     999900   -1    0    0    0    0 -0.00000000000E+00 -0.00000000000E+00 -0.74505805969E-08  0.93827000000E+00  0.93827000000E+00 0. -1.
     999902    2    1    2    0    0  0.25593638053E-01  0.21586024167E-01  0.43320894654E-02  0.10101697016E+01  0.10096054023E+01 0.  0.
     999903    2    3    3    0    0  0.40948788868E-01  0.20987450567E-01 -0.11162909455E+00  0.12242923552E+00  0.20262935828E-01 0.  0.
         14    1    1    2    0    0 -0.25593638053E-01 -0.21586024167E-01 -0.43320894654E-02  0.33760298388E-01  0.00000000000E+00 0.  1.
     999901    1    3    3    0    0 -0.15355150815E-01  0.59857360031E-03  0.11596118401E+00  0.88774046610E+00  0.88000000000E+00 0.  1.
        -11    1    4    4    0    0  0.16022442514E-01  0.11329786321E-01 -0.71971878632E-01  0.74600905873E-01  0.51100000000E-03 0.  1.
         11    1    4    4    0    0  0.24926346355E-01  0.96576642454E-02 -0.39657215915E-01  0.47828329643E-01  0.51100000000E-03 0. -1.
</event>
<event>
 8    1  0.1070112E+005  0.1043930E+01  0.7957747E-01            NaN
         13   -1    0    0    0    0  0.00000000000E+00  0.00000000000E+00  0.74505805969E-08  0.10566000000E+00  0.10566000000E+00 0.  1.
     999900   -1    0    0    0    0 -0.00000000000E+00 -0.00000000000E+00 -0.74505805969E-08  0.93827000000E+00  0.93827000000E+00 0.  1.
     999902    2    1    2    0    0  0.42140980418E-02  0.77928512618E-02 -0.21237197313E-01  0.10209190091E+01  0.10206596482E+01 0.  0.
     999903    2    3    3    0    0  0.20822547548E-01  0.57116454320E-01 -0.11754700604E+00  0.13413592531E+00  0.21892464201E-01 0.  0.
         14    1    1    2    0    0 -0.42140980418E-02 -0.77928512618E-02  0.21237197313E-01  0.23010990913E-01  0.00000000000E+00 0.  1.
     999901    1    3    3    0    0 -0.16608449506E-01 -0.49323603058E-01  0.96309808730E-01  0.88678308378E+00  0.88000000000E+00 0. -1.
        -11    1    4    4    0    0  0.72478515728E-02  0.47285259797E-01 -0.86195879211E-01  0.98582036196E-01  0.51100000000E-03 0. -1.
         11    1    4    4    0    0  0.13574695975E-01  0.98311945230E-02 -0.31351126832E-01  0.35553889115E-01  0.51100000000E-03 0.  1.
</event>
<event>
 8    1  0.1070112E+005  0.1043930E+01  0.7957747E-01            NaN
         13   -1    0    0    0    0  0.00000000000E+00  0.00000000000E+00  0.74505805969E-08  0.10566000000E+00  0.10566000000E+00 0.  1.
     999900   -1    0    0    0    0 -0.00000000000E+00 -0.00000000000E+00 -0.74505805969E-08  0.93827000000E+00  0.93827000000E+00 0. -1.
     999902    2    1    2    0    0 -0.12061483913E-01 -0.18980744959E-01 -0.89483441188E-02  0.10197262619E+01  0.10194389773E+01 0.  0.
     999903    2    3    3    0    0  0.95876514160E-01  0.13623773287E-01  0.81214463425E-01  0.12796228089E+00  0.20016070938E-01 0.  0.
         14    1    1    2    0    0  0.12061483913E-01  0.18980744959E-01  0.89483441188E-02  0.24203738055E-01  0.00000000000E+00 0.  1.
     999901    1    3    3    0    0 -0.10793799807E+00 -0.32604518246E-01 -0.90162807544E-01  0.89176398105E+00  0.88000000000E+00 0. -1.
        -11    1    4    4    0    0  0.81668179257E-01  0.11275042500E-01  0.58606703958E-01  0.10115248369E+00  0.51100000000E-03 0.  1.
         11    1    4    4    0    0  0.14208334903E-01  0.23487307878E-02  0.22607759467E-01  0.26809797205E-01  0.51100000000E-03 0. -1.
</event>
<event>
 8    1  0.1070112E+005  0.1043930E+01  0.7957747E-01            NaN
         13   -1    0    0    0    0  0.00000000000E+00  0.00000000000E+00  0.74505805969E-08  0.10566000000E+00  0.10566000000E+00 0.  1.
     999900   -1    0    0    0    0 -0.00000000000E+00 -0.00000000000E+00 -0.74505805969E-08  0.93827000000E+00  0.93827000000E+00 0. -1.
     999902    2    1    2    0    0 -0.76054041090E-02 -0.17786931977E-01  0.15468328549E-01  0.10191613442E+01  0.10188603237E+01 0.  0.
     999903    2    3    3    0    0  0.77889395631E-01 -0.66761749276E-01 -0.75622559646E-01  0.12898976333E+00  0.19892169303E-01 0.  0.
         14    1    1    2    0    0  0.76054041090E-02  0.17786931977E-01 -0.15468328549E-01  0.24768655776E-01  0.00000000000E+00 0.  1.
     999901    1    3    3    0    0 -0.85494799740E-01  0.48974817299E-01  0.91090888195E-01  0.89017158089E+00  0.88000000000E+00 0.  1.
        -11    1    4    4    0    0  0.23429417229E-01 -0.31054298285E-01 -0.22464689551E-01  0.44924719602E-01  0.51100000000E-03 0. -1.
         11    1    4    4    0    0  0.54459978402E-01 -0.35707450991E-01 -0.53157870094E-01  0.84065043733E-01  0.51100000000E-03 0.  1.
</event>
<event>
 8    1  0.1070112E+005  0.1043930E+01  0.7957747E-01            NaN
         13   -1    0    0    0    0  0.00000000000E+00  0.00000000000E+00  0.74505805969E-08  0.10566000000E+00  0.10566000000E+00 0. -1.
     999900   -1    0    0    0    0 -0.00000000000E+00 -0.00000000000E+00 -0.74505805969E-08  0.93827000000E+00  0.93827000000E+00 0.  1.
     999902    2    1    2    0    0 -0.46311272681E-03 -0.23240586347E-01  0.50680777945E-02  0.10201387256E+01  0.10198612624E+01 0.  0.
     999903    2    3    3    0    0  0.26920557988E-02  0.38526619832E-01  0.12259524622E+00  0.13017368233E+00  0.20592366887E-01 0.  0.
         14    1    1    2    0    0  0.46311272681E-03  0.23240586347E-01 -0.50680777945E-02  0.23791274444E-01  0.00000000000E+00 0.  1.
     999901    1    3    3    0    0 -0.31551685256E-02 -0.61767206178E-01 -0.11752716843E+00  0.88996504323E+00  0.88000000000E+00 0.  1.
        -11    1    4    4    0    0  0.10598464390E-01  0.26968356510E-01  0.70439996950E-01  0.76168720559E-01  0.51100000000E-03 0.  1.
         11    1    4    4    0    0 -0.79064085912E-02  0.11558263321E-01  0.52155249275E-01  0.54004961770E-01  0.51100000000E-03 0. -1.
</event>
<event>
 8    1  0.1070112E+005  0.1043930E+01  0.7957747E-01            NaN
         13   -1    0    0    0    0  0.00000000000E+00  0.00000000000E+00  0.74505805969E-08  0.10566000000E+00  0.10566000000E+00 0.  1.
     999900   -1    0    0    0    0 -0.00000000000E+00 -0.00000000000E+00 -0.74505805969E-08  0.93827000000E+00  0.93827000000E+00 0.  1.
     999902    2    1    2    0    0  0.10140040036E-02  0.94247394183E-02  0.23333025155E-01  0.10187450049E+01  0.10184336507E+01 0.  0.
     999903    2    3    3    0    0 -0.12723451125E+00  0.63155527328E-02  0.10939381368E-01  0.12935704052E+00  0.19623119251E-01 0.  0.
         14    1    1    2    0    0 -0.10140040036E-02 -0.94247394183E-02 -0.23333025155E-01  0.25184995138E-01  0.00000000000E+00 0. -1.
     999901    1    3    3    0    0  0.12824851525E+00  0.31091866855E-02  0.12393643788E-01  0.88938796434E+00  0.88000000000E+00 0. -1.
        -11    1    4    4    0    0 -0.17412474038E-01 -0.47694237054E-02  0.53395854222E-02  0.18833851122E-01  0.51100000000E-03 0.  1.
         11    1    4    4    0    0 -0.10982203721E+00  0.11084976438E-01  0.55997959456E-02  0.11052318940E+00  0.51100000000E-03 0. -1.
</event>
<event>
 7    1  0.1070112E+005  0.1043930E+01  0.7957747E-01            NaN
         13   -1    0    0    0    0  0.00000000000E+00  0.00000000000E+00  0.74505805969E-08  0.10566000000E+00  0.10566000000E+00 0. -1.
     999900   -1    0    0    0    0 -0.00000000000E+00 -0.00000000000E+00 -0.74505805969E-08  0.93827000000E+00  0.93827000000E+00 0.  1.
     999903    2    1    2    0    0  0.49935358896E-01 -0.97209119132E-01 -0.26695507564E-01  0.11417370424E+00  0.19489271522E-01 0.  0.
         14    1    1    2    0    0  0.36668259854E-01 -0.56023387398E-03 -0.13830611981E-01  0.39193889454E-01  0.00000000000E+00 0.  1.
     999901    1    1    2    0    0 -0.86603618751E-01  0.97769353006E-01  0.40526119544E-01  0.89056240631E+00  0.88000000000E+00 0.  1.
        -11    1    3    3    0    0  0.46272771093E-01 -0.73717064473E-01 -0.23680450539E-01  0.90201994423E-01  0.51100000000E-03 0. -1.
         11    1    3    3    0    0  0.36625878030E-02 -0.23492054659E-01 -0.30150570250E-02  0.23971709813E-01  0.51100000000E-03 0.  1.
</event>
<event>
 8    1  0.1070112E+005  0.1043930E+01  0.7957747E-01            NaN
         13   -1    0    0    0    0  0.00000000000E+00  0.00000000000E+00  0.74505805969E-08  0.10566000000E+00  0.10566000000E+00 0.  1.
     999900   -1    0    0    0    0 -0.00000000000E+00 -0.00000000000E+00 -0.74505805969E-08  0.93827000000E+00  0.93827000000E+00 0. -1.
     999902    2    1    2    0    0  0.17908901030E-01 -0.14310553322E-01 -0.38011200343E-02  0.10206927629E+01  0.10204282175E+01 0.  0.
     999903    2    3    3    0    0  0.52254722202E-01 -0.99122925791E-01 -0.69636474997E-01  0.13350221525E+00  0.20437524721E-01 0.  0.
         14    1    1    2    0    0 -0.17908901030E-01  0.14310553322E-01  0.38011200343E-02  0.23237237056E-01  0.00000000000E+00 0.  1.
     999901    1    3    3    0    0 -0.34345821171E-01  0.84812372469E-01  0.65835354962E-01  0.88719054769E+00  0.88000000000E+00 0.  1.
        -11    1    4    4    0    0  0.45510449675E-01 -0.71839787441E-01 -0.45488264875E-01  0.96444800023E-01  0.51100000000E-03 0. -1.
         11    1    4    4    0    0  0.67442725265E-02 -0.27283138350E-01 -0.24148210122E-01  0.37057415226E-01  0.51100000000E-03 0.  1.
</event>
<event>
 8    1  0.1070112E+005  0.1043930E+01  0.7957747E-01            NaN
         13   -1    0    0    0    0  0.00000000000E+00  0.00000000000E+00  0.74505805969E-08  0.10566000000E+00  0.10566000000E+00 0. -1.
     999900   -1    0    0    0    0 -0.00000000000E+00 -0.00000000000E+00 -0.74505805969E-08  0.93827000000E+00  0.93827000000E+00 0. -1.
     999902    2    1    2    0    0 -0.24544266279E-02 -0.32163286476E-02 -0.22911645330E-01  0.10206638772E+01  0.10203986661E+01 0.  0.
     999903    2    3    3    0    0  0.14915148327E-01  0.65603043813E-01  0.10730212626E+00  0.12825509501E+00  0.20233686951E-01 0.  0.
         14    1    1    2    0    0  0.24544266279E-02  0.32163286476E-02  0.22911645330E-01  0.23266122835E-01  0.00000000000E+00 0. -1.
     999901    1    3    3    0    0 -0.17369574955E-01 -0.68819372461E-01 -0.13021377159E+00  0.89240878216E+00  0.88000000000E+00 0. -1.
        -11    1    4    4    0    0  0.75924477578E-02  0.54854560991E-01  0.96835628014E-01  0.11155298337E+00  0.51100000000E-03 0. -1.
         11    1    4    4    0    0  0.73227005697E-02  0.10748482822E-01  0.10466498248E-01  0.16702111639E-01  0.51100000000E-03 0.  1.
</event>
<event>
 8    1  0.1070112E+005  0.1043930E+01  0.7957747E-01            NaN
         13   -1    0    0    0    0  0.00000000000E+00  0.00000000000E+00  0.74505805969E-08  0.10566000000E+00  0.10566000000E+00 0. -1.
     999900   -1    0    0    0    0 -0.00000000000E+00 -0.00000000000E+00 -0.74505805969E-08  0.93827000000E+00  0.93827000000E+00 0. -1.
     999902    2    1    2    0    0 -0.19739305418E-01 -0.10480013828E-01 -0.18609359160E-02  0.10215038111E+01  0.10212576081E+01 0.  0.
     999903    2    3    3    0    0 -0.57743608882E-01 -0.42353238377E-01 -0.11098434368E+00  0.13337761076E+00  0.18545655630E-01 0.  0.
         14    1    1    2    0    0  0.19739305418E-01  0.10480013828E-01  0.18609359160E-02  0.22426188947E-01  0.00000000000E+00 0. -1.
     999901    1    3    3    0    0  0.38004303464E-01  0.31873224549E-01  0.10912340776E+00  0.88812620029E+00  0.88000000000E+00 0.  1.
        -11    1    4    4    0    0 -0.99972068326E-02 -0.47138644984E-02 -0.30947032008E-01  0.32865553001E-01  0.51100000000E-03 0. -1.
         11    1    4    4    0    0 -0.47746402049E-01 -0.37639373878E-01 -0.80037311670E-01  0.10051205776E+00  0.51100000000E-03 0.  1.
</event>
<event>
 8    1  0.1070112E+005  0.1043930E+01  0.7957747E-01            NaN
         13   -1    0    0    0    0  0.00000000000E+00  0.00000000000E+00  0.74505805969E-08  0.10566000000E+00  0.10566000000E+00 0. -1.
     999900   -1    0    0    0    0 -0.00000000000E+00 -0.00000000000E+00 -0.74505805969E-08  0.93827000000E+00  0.93827000000E+00 0. -1.
     999902    2    1    2    0    0  0.75178610708E-02  0.17825968494E-01  0.17596068352E-01  0.10177784224E+01  0.10174423876E+01 0.  0.
     999903    2    3    3    0    0  0.10524849835E+00 -0.26770412271E-01  0.67829697688E-01  0.12982373206E+00  0.21434368187E-01 0.  0.
         14    1    1    2    0    0 -0.75178610708E-02 -0.17825968494E-01 -0.17596068352E-01  0.26151577568E-01  0.00000000000E+00 0.  1.
     999901    1    3    3    0    0 -0.97730637277E-01  0.44596380765E-01 -0.50233629335E-01  0.88795469037E+00  0.88000000000E+00 0. -1.
        -11    1    4    4    0    0  0.79060517175E-02  0.28910018780E-02  0.21398475554E-02  0.87007823889E-02  0.51100000000E-03 0. -1.
         11    1    4    4    0    0  0.97342446631E-01 -0.29661414149E-01  0.65689850132E-01  0.12112294967E+00  0.51100000000E-03 0.  1.
</event>
<event>
 8    1  0.1070112E+005  0.1043930E+01  0.7957747E-01            NaN
         13   -1    0    0    0    0  0.00000000000E+00  0.00000000000E+00  0.74505805969E-08  0.10566000000E+00  0.10566000000E+00 0. -1.
     999900   -1    0    0    0    0 -0.00000000000E+00 -0.00000000000E+00 -0.74505805969E-08  0.93827000000E+00  0.93827000000E+00 0.  1.
     999902    2    1    2    0    0  0.17107625549E-01 -0.27179249073E-02  0.16490697228E-01  0.10200134563E+01  0.10197330288E+01 0.  0.
     999903    2    3    3    0    0 -0.38219720593E-01 -0.11974840641E+00 -0.22933565412E-01  0.12966997127E+00  0.22089027748E-01 0.  0.
         14    1    1    2    0    0 -0.17107625549E-01  0.27179249073E-02 -0.16490697228E-01  0.23916543705E-01  0.00000000000E+00 0.  1.
     999901    1    3    3    0    0  0.55327346143E-01  0.11703048151E+00  0.39424262639E-01  0.89034348502E+00  0.88000000000E+00 0. -1.
        -11    1    4    4    0    0 -0.28971237921E-01 -0.60730220646E-01 -0.18392605501E-01  0.69757016740E-01  0.51100000000E-03 0. -1.
         11    1    4    4    0    0 -0.92484826726E-02 -0.59018185769E-01 -0.45409599108E-02  0.59912954535E-01  0.51100000000E-03 0.  1.
</event>
<event>
 8    1  0.1070112E+005  0.1043930E+01  0.7957747E-01            NaN
         13   -1    0    0    0    0  0.00000000000E+00  0.00000000000E+00  0.74505805969E-08  0.10566000000E+00  0.10566000000E+00 0. -1.
     999900   -1    0    0    0    0 -0.00000000000E+00 -0.00000000000E+00 -0.74505805969E-08  0.93827000000E+00  0.93827000000E+00 0.  1.
     999902    2    1    2    0    0 -0.23658814081E-01 -0.21448887966E-02 -0.62283226699E-02  0.10193712534E+01  0.10190753751E+01 0.  0.
     999903    2    3    3    0    0 -0.68776124661E-01 -0.10789637211E+00 -0.23974813907E-01  0.13171485259E+00  0.20055628937E-01 0.  0.
         14    1    1    2    0    0  0.23658814081E-01  0.21448887966E-02  0.62283226699E-02  0.24558746608E-01  0.00000000000E+00 0. -1.
     999901    1    3    3    0    0  0.45117310579E-01  0.10575148332E+00  0.17746491237E-01  0.88765640080E+00  0.88000000000E+00 0. -1.
        -11    1    4    4    0    0 -0.35516259368E-01 -0.38815560580E-01 -0.59309914220E-02  0.52947995268E-01  0.51100000000E-03 0.  1.
         11    1    4    4    0    0 -0.33259865293E-01 -0.69080811531E-01 -0.18043822485E-01  0.78766857320E-01  0.51100000000E-03 0. -1.
</event>
<event>
 8    1  0.1070112E+005  0.1043930E+01  0.7957747E-01            NaN
         13   -1    0    0    0    0  0.00000000000E+00  0.00000000000E+00  0.74505805969E-08  0.10566000000E+00  0.10566000000E+00 0. -1.
     999900   -1    0    0    0    0 -0.00000000000E+00 -0.00000000000E+00 -0.74505805969E-08  0.93827000000E+00  0.93827000000E+00 0.  1.
     999902    2    1    2    0    0  0.21308408197E-01 -0.38830079176E-03  0.10565627061E-01  0.10201427868E+01  0.10198654195E+01 0.  0.
     999903    2    3    3    0    0 -0.72421528813E-01 -0.89419862248E-01 -0.53214642025E-01  0.12841421667E+00  0.20435834160E-01 0.  0.
         14    1    1    2    0    0 -0.21308408197E-01  0.38830079176E-03 -0.10565627061E-01  0.23787213216E-01  0.00000000000E+00 0. -1.
     999901    1    3    3    0    0  0.93729937010E-01  0.89031561457E-01  0.63780269086E-01  0.89172857011E+00  0.88000000000E+00 0.  1.
        -11    1    4    4    0    0 -0.35679147757E-01 -0.53632852636E-01 -0.38523884304E-01  0.75058878551E-01  0.51100000000E-03 0. -1.
         11    1    4    4    0    0 -0.36742381056E-01 -0.35787009613E-01 -0.14690757721E-01  0.53355338122E-01  0.51100000000E-03 0.  1.
</event>
<event>
 8    1  0.1070112E+005  0.1043930E+01  0.7957747E-01            NaN
         13   -1    0    0    0    0  0.00000000000E+00  0.00000000000E+00  0.74505805969E-08  0.10566000000E+00  0.10566000000E+00 0. -1.
     999900   -1    0    0    0    0 -0.00000000000E+00 -0.00000000000E+00 -0.74505805969E-08  0.93827000000E+00  0.93827000000E+00 0.  1.
     999902    2    1    2    0    0  0.13264655678E-01 -0.18655751181E-01  0.70838532872E-02  0.10199681737E+01  0.10196866706E+01 0.  0.
     999903    2    3    3    0    0  0.84474583587E-01  0.92437960273E-01 -0.26172530731E-01  0.12950837470E+00  0.20166456809E-01 0.  0.
         14    1    1    2    0    0 -0.13264655678E-01  0.18655751181E-01 -0.70838532872E-02  0.23961826303E-01  0.00000000000E+00 0. -1.
     999901    1    3    3    0    0 -0.71209927909E-01 -0.11109371145E+00  0.33256384019E-01  0.89045979900E+00  0.88000000000E+00 0.  1.
        -11    1    4    4    0    0  0.38747285092E-01  0.38825446993E-01 -0.21397147744E-01  0.58880102656E-01  0.51100000000E-03 0. -1.
         11    1    4    4    0    0  0.45727298494E-01  0.53612513280E-01 -0.47753829870E-02  0.70628272041E-01  0.51100000000E-03 0.  1.
</event>
<event>
 8    1  0.1070112E+005  0.1043930E+01  0.7957747E-01            NaN
         13   -1    0    0    0    0  0.00000000000E+00  0.00000000000E+00  0.74505805969E-08  0.10566000000E+00  0.10566000000E+00 0.  1.
     999900   -1    0    0    0    0 -0.00000000000E+00 -0.00000000000E+00 -0.74505805969E-08  0.93827000000E+00  0.93827000000E+00 0. -1.
     999902    2    1    2    0    0  0.97727481743E-02 -0.22962580229E-02  0.20952384025E-01  0.10206967952E+01  0.10204323427E+01 0.  0.
     999903    2    3    3    0    0 -0.88883903202E-01  0.22735903196E-01 -0.87428360416E-01  0.12822487425E+00  0.19509757299E-01 0.  0.
         14    1    1    2    0    0 -0.97727481743E-02  0.22962580229E-02 -0.20952384025E-01  0.23233204775E-01  0.00000000000E+00 0. -1.
     999901    1    3    3    0    0  0.98656651376E-01 -0.25032161219E-01  0.10838074444E+00  0.89247192097E+00  0.88000000000E+00 0.  1.
        -11    1    4    4    0    0 -0.35567112404E-01  0.30345660985E-02 -0.44174110788E-01  0.56796489865E-01  0.51100000000E-03 0. -1.
         11    1    4    4    0    0 -0.53316790799E-01  0.19701337097E-01 -0.43254249628E-01  0.71428384389E-01  0.51100000000E-03 0.  1.
</event>
<event>
 8    1  0.1070112E+005  0.1043930E+01  0.7957747E-01            NaN
         13   -1    0    0    0    0  0.00000000000E+00  0.00000000000E+00  0.74505805969E-08  0.10566000000E+00  0.10566000000E+00 0.  1.
     999900   -1    0    0    0    0 -0.00000000000E+00 -0.00000000000E+00 -0.74505805969E-08  0.93827000000E+00  0.93827000000E+00 0.  1.
     999902    2    1    2    0    0  0.10978193550E-01 -0.15417202127E-01 -0.13848488111E-01  0.10204781029E+01  0.10202085899E+01 0.  0.
     999903    2    3    3    0    0  0.91292284275E-01  0.90522880088E-01  0.95119527310E-02  0.13018637296E+00  0.18147767684E-01 0.  0.
         14    1    1    2    0    0 -0.10978193550E-01  0.15417202127E-01  0.13848488111E-01  0.23451897109E-01  0.00000000000E+00 0.  1.
     999901    1    3    3    0    0 -0.80314090725E-01 -0.10594008221E+00 -0.23360440842E-01  0.89029172993E+00  0.88000000000E+00 0.  1.
        -11    1    4    4    0    0  0.38324855795E-01  0.26274924233E-01  0.95368992675E-03  0.46479424056E-01  0.51100000000E-03 0. -1.
         11    1    4    4    0    0  0.52967428480E-01  0.64247955856E-01  0.85582628043E-02  0.83706948903E-01  0.51100000000E-03 0.  1.
</event>
<event>
 8    1  0.1070112E+005  0.1043930E+01  0.7957747E-01            NaN
         13   -1    0    0    0    0  0.00000000000E+00  0.00000000000E+00  0.74505805969E-08  0.10566000000E+00  0.10566000000E+00 0. -1.
     999900   -1    0    0    0    0 -0.00000000000E+00 -0.00000000000E+00 -0.74505805969E-08  0.93827000000E+00  0.93827000000E+00 0.  1.
     999902    2    1    2    0    0  0.57812420715E-02  0.27375051327E-01 -0.22435865509E-01  0.10080665889E+01  0.10074284408E+01 0.  0.
     999903    2    3    3    0    0 -0.15850550688E-01  0.96526296010E-01 -0.73010662635E-01  0.12364155578E+00  0.19700550198E-01 0.  0.
         14    1    1    2    0    0 -0.57812420715E-02 -0.27375051327E-01  0.22435865509E-01  0.35863411106E-01  0.00000000000E+00 0.  1.
     999901    1    3    3    0    0  0.21631792759E-01 -0.69151244683E-01  0.50574797126E-01  0.88442503312E+00  0.88000000000E+00 0. -1.
        -11    1    4    4    0    0 -0.18918343152E-01  0.71478445474E-01 -0.48299266232E-01  0.88318469838E-01  0.51100000000E-03 0.  1.
         11    1    4    4    0    0  0.30677924643E-02  0.25047850536E-01 -0.24711396403E-01  0.35323085939E-01  0.51100000000E-03 0. -1.
</event>
<event>
 8    1  0.1070112E+005  0.1043930E+01  0.7957747E-01            NaN
         13   -1    0    0    0    0  0.00000000000E+00  0.00000000000E+00  0.74505805969E-08  0.10566000000E+00  0.10566000000E+00 0. -1.
     999900   -1    0    0    0    0 -0.00000000000E+00 -0.00000000000E+00 -0.74505805969E-08  0.93827000000E+00  0.93827000000E+00 0.  1.
     999902    2    1    2    0    0  0.21252107454E-01  0.10738057752E-01 -0.27086457655E-02  0.10199655531E+01  0.10196839877E+01 0.  0.
     999903    2    3    3    0    0  0.38068938456E-02 -0.66363914214E-01 -0.10977434360E+00  0.12995874791E+00  0.20498977883E-01 0.  0.
         14    1    1    2    0    0 -0.21252107454E-01 -0.10738057752E-01  0.27086457655E-02  0.23964446945E-01  0.00000000000E+00 0. -1.
     999901    1    3    3    0    0  0.17445213608E-01  0.77101971967E-01  0.10706569783E+00  0.89000680515E+00  0.88000000000E+00 0. -1.
        -11    1    4    4    0    0  0.94117296343E-02 -0.52144640145E-01 -0.94511444534E-01  0.10835274994E+00  0.51100000000E-03 0.  1.
         11    1    4    4    0    0 -0.56048357887E-02 -0.14219274069E-01 -0.15262899064E-01  0.21605997966E-01  0.51100000000E-03 0. -1.
</event>
<event>
 8    1  0.1070112E+005  0.1043930E+01  0.7957747E-01            NaN
         13   -1    0    0    0    0  0.00000000000E+00  0.00000000000E+00  0.74505805969E-08  0.10566000000E+00  0.10566000000E+00 0.  1.
     999900   -1    0    0    0    0 -0.00000000000E+00 -0.00000000000E+00 -0.74505805969E-08  0.93827000000E+00  0.93827000000E+00 0. -1.
     999902    2    1    2    0    0 -0.18141654766E-01  0.14968025892E-02  0.13592158812E-01  0.10212120151E+01  0.10209592906E+01 0.  0.
     999903    2    3    3    0    0 -0.43704727538E-01 -0.87413139190E-01  0.88722124719E-01  0.13317881743E+00  0.17715018611E-01 0.  0.
         14    1    1    2    0    0  0.18141654766E-01 -0.14968025892E-02 -0.13592158812E-01  0.22717984876E-01  0.00000000000E+00 0.  1.
     999901    1    3    3    0    0  0.25563072772E-01  0.88909941779E-01 -0.75129965907E-01  0.88803319770E+00  0.88000000000E+00 0. -1.
        -11    1    4    4    0    0 -0.30357103473E-01 -0.41713882043E-01  0.49379804585E-01  0.71415879944E-01  0.51100000000E-03 0.  1.
         11    1    4    4    0    0 -0.13347624065E-01 -0.45699257147E-01  0.39342320133E-01  0.61762937482E-01  0.51100000000E-03 0. -1.
</event>
<event>
 8    1  0.1070112E+005  0.1043930E+01  0.7957747E-01            NaN
         13   -1    0    0    0    0  0.00000000000E+00  0.00000000000E+00  0.74505805969E-08  0.10566000000E+00  0.10566000000E+00 0.  1.
     999900   -1    0    0    0    0 -0.00000000000E+00 -0.00000000000E+00 -0.74505805969E-08  0.93827000000E+00  0.93827000000E+00 0.  1.
     999902    2    1    2    0    0  0.70435474057E-02 -0.22556983793E-01 -0.40445049486E-02  0.10199552821E+01  0.10196734724E+01 0.  0.
     999903    2    3    3    0    0  0.84774377065E-01 -0.36594410305E-01 -0.92132765070E-01  0.13203711426E+00  0.20481876608E-01 0.  0.
         14    1    1    2    0    0 -0.70435474057E-02  0.22556983793E-01  0.40445049486E-02  0.23974717896E-01  0.00000000000E+00 0.  1.
     999901    1    3    3    0    0 -0.77730829660E-01  0.14037426512E-01  0.88088260122E-01  0.88791816785E+00  0.88000000000E+00 0.  1.
        -11    1    4    4    0    0  0.46724107755E-01 -0.98991835533E-02 -0.52217118699E-01  0.70767398474E-01  0.51100000000E-03 0.  1.
         11    1    4    4    0    0  0.38050269310E-01 -0.26695226751E-01 -0.39915646372E-01  0.61269715783E-01  0.51100000000E-03 0. -1.
</event>
<event>
 8    1  0.1070112E+005  0.1043930E+01  0.7957747E-01            NaN
         13   -1    0    0    0    0  0.00000000000E+00  0.00000000000E+00  0.74505805969E-08  0.10566000000E+00  0.10566000000E+00 0.  1.
     999900   -1    0    0    0    0 -0.00000000000E+00 -0.00000000000E+00 -0.74505805969E-08  0.93827000000E+00  0.93827000000E+00 0. -1.
     999902    2    1    2    0    0 -0.12349067526E-01 -0.91416078190E-02  0.17990509588E-01  0.10202714519E+01  0.10199971121E+01 0.  0.
     999903    2    3    3    0    0  0.10893857724E+00 -0.29047379937E-01  0.63223554401E-01  0.13057883034E+00  0.18499978665E-01 0.  0.
         14    1    1    2    0    0  0.12349067526E-01  0.91416078190E-02 -0.17990509588E-01  0.23658548086E-01  0.00000000000E+00 0. -1.
     999901    1    3    3    0    0 -0.12128764476E+00  0.19905772118E-01 -0.45233044813E-01  0.88969262157E+00  0.88000000000E+00 0. -1.
        -11    1    4    4    0    0  0.66715478786E-01 -0.14566068366E-01  0.28386410635E-01  0.73953869994E-01  0.51100000000E-03 0.  1.
         11    1    4    4    0    0  0.42223098452E-01 -0.14481311571E-01  0.34837143766E-01  0.56624960349E-01  0.51100000000E-03 0. -1.
</event>
<event>
 8    1  0.1070112E+005  0.1043930E+01  0.7957747E-01            NaN
         13   -1    0    0    0    0  0.00000000000E+00  0.00000000000E+00  0.74505805969E-08  0.10566000000E+00  0.10566000000E+00 0.  1.
     999900   -1    0    0    0    0 -0.00000000000E+00 -0.00000000000E+00 -0.74505805969E-08  0.93827000000E+00  0.93827000000E+00 0. -1.
     999902    2    1    2    0    0  0.77150899265E-02 -0.71285066505E-02  0.22044704763E-01  0.10195105973E+01  0.10192181076E+01 0.  0.
     999903    2    3    3    0    0 -0.11316762079E+00 -0.56674982409E-02  0.61045584396E-01  0.13038977711E+00  0.20878210412E-01 0.  0.
         14    1    1    2    0    0 -0.77150899265E-02  0.71285066505E-02 -0.22044704763E-01  0.24419402690E-01  0.00000000000E+00 0. -1.
     999901    1    3    3    0    0  0.12088271072E+00 -0.14610084096E-02 -0.39000879633E-01  0.88912082020E+00  0.88000000000E+00 0. -1.
        -11    1    4    4    0    0 -0.66237564531E-01  0.69403054230E-02  0.36429000008E-01  0.75913871966E-01  0.51100000000E-03 0.  1.
         11    1    4    4    0    0 -0.46930056258E-01 -0.12607803664E-01  0.24616584388E-01  0.54475905147E-01  0.51100000000E-03 0. -1.
</event>
<event>
 8    1  0.1070112E+005  0.1043930E+01  0.7957747E-01            NaN
         13   -1    0    0    0    0  0.00000000000E+00  0.00000000000E+00  0.74505805969E-08  0.10566000000E+00  0.10566000000E+00 0. -1.
     999900   -1    0    0    0    0 -0.00000000000E+00 -0.00000000000E+00 -0.74505805969E-08  0.93827000000E+00  0.93827000000E+00 0.  1.
     999902    2    1    2    0    0 -0.55569444175E-02  0.17454696958E-01 -0.15704613463E-01  0.10198015736E+01  0.10195160953E+01 0.  0.
     999903    2    3    3    0    0  0.49976317534E-01 -0.11185335615E+00 -0.33969438345E-01  0.12843289587E+00  0.18228560156E-01 0.  0.
         14    1    1    2    0    0  0.55569444175E-02 -0.17454696958E-01  0.15704613463E-01  0.24128426413E-01  0.00000000000E+00 0. -1.
     999901    1    3    3    0    0 -0.55533261951E-01  0.12930805310E+00  0.18264824882E-01  0.89136867771E+00  0.88000000000E+00 0. -1.
        -11    1    4    4    0    0  0.43656099014E-01 -0.10244575711E+00 -0.25415095400E-01  0.11422423703E+00  0.51100000000E-03 0. -1.
         11    1    4    4    0    0  0.63202185201E-02 -0.94075990384E-02 -0.85543429453E-02  0.14208658840E-01  0.51100000000E-03 0.  1.
</event>
<event>
 8    1  0.1070112E+005  0.1043930E+01  0.7957747E-01            NaN
         13   -1    0    0    0    0  0.00000000000E+00  0.00000000000E+00  0.74505805969E-08  0.10566000000E+00  0.10566000000E+00 0. -1.
     999900   -1    0    0    0    0 -0.00000000000E+00 -0.00000000000E+00 -0.74505805969E-08  0.93827000000E+00  0.93827000000E+00 0.  1.
     999902    2    1    2    0    0 -0.16877925167E-01  0.56197303665E-02  0.15339405198E-01  0.10204407880E+01  0.10201704067E+01 0.  0.
     999903    2    3    3    0    0 -0.11950922192E+00 -0.35294114757E-02  0.55981122639E-01  0.13349736307E+00  0.19817895607E-01 0.  0.
         14    1    1    2    0    0  0.16877925167E-01 -0.56197303665E-02 -0.15339405198E-01  0.23489211974E-01  0.00000000000E+00 0.  1.
     999901    1    3    3    0    0  0.10263129675E+00  0.91491418422E-02 -0.40641717441E-01  0.88694342495E+00  0.88000000000E+00 0.  1.
        -11    1    4    4    0    0 -0.95350942953E-01  0.29596107450E-02  0.50275273165E-01  0.10783517900E+00  0.51100000000E-03 0.  1.
         11    1    4    4    0    0 -0.24158278968E-01 -0.64890222207E-02  0.57058494734E-02  0.25662184071E-01  0.51100000000E-03 0. -1.
</event>
<event>
 8    1  0.1070112E+005  0.1043930E+01  0.7957747E-01            NaN
         13   -1    0    0    0    0  0.00000000000E+00  0.00000000000E+00  0.74505805969E-08  0.10566000000E+00  0.10566000000E+00 0. -1.
     999900   -1    0    0    0    0 -0.00000000000E+00 -0.00000000000E+00 -0.74505805969E-08  0.93827000000E+00  0.93827000000E+00 0. -1.
     999902    2    1    2    0    0 -0.99868168320E-02  0.22439613608E-01 -0.47927925411E-02  0.10189051398E+01  0.10185977814E+01 0.  0.
     999903    2    3    3    0    0  0.66450756315E-01 -0.10199152514E+00  0.26944117357E-01  0.12630610194E+00  0.20230464923E-01 0.  0.
         14    1    1    2    0    0  0.99868168320E-02 -0.22439613608E-01  0.47927925411E-02  0.25024860233E-01  0.00000000000E+00 0. -1.
     999901    1    3    3    0    0 -0.76437573147E-01  0.12443113875E+00 -0.31736909898E-01  0.89259903783E+00  0.88000000000E+00 0.  1.
        -11    1    4    4    0    0  0.45497509259E-01 -0.57063171250E-01  0.23229029060E-01  0.76590324284E-01  0.51100000000E-03 0.  1.
         11    1    4    4    0    0  0.20953247056E-01 -0.44928353895E-01  0.37150882966E-02  0.49715777656E-01  0.51100000000E-03 0. -1.
</event>
<event>
 8    1  0.1070112E+005  0.1043930E+01  0.7957747E-01            NaN
         13   -1    0    0    0    0  0.00000000000E+00  0.00000000000E+00  0.74505805969E-08  0.10566000000E+00  0.10566000000E+00 0. -1.
     999900   -1    0    0    0    0 -0.00000000000E+00 -0.00000000000E+00 -0.74505805969E-08  0.93827000000E+00  0.93827000000E+00 0.  1.
     999902    2    1    2    0    0 -0.16254243340E-01  0.20131910823E-01  0.30576937379E-02  0.10178753699E+01  0.10175418541E+01 0.  0.
     999903    2    3    3    0    0 -0.91770649917E-01 -0.86957367139E-01  0.52762275573E-02  0.12816993378E+00  0.20402388666E-01 0.  0.
         14    1    1    2    0    0  0.16254243340E-01 -0.20131910823E-01 -0.30576937379E-02  0.26054630125E-01  0.00000000000E+00 0.  1.
     999901    1    3    3    0    0  0.75516406577E-01  0.10708927796E+00 -0.22185338194E-02  0.88970543609E+00  0.88000000000E+00 0. -1.
        -11    1    4    4    0    0 -0.73158930204E-01 -0.67693379860E-01 -0.41734510780E-02  0.99761222729E-01  0.51100000000E-03 0.  1.
         11    1    4    4    0    0 -0.18611719713E-01 -0.19263987279E-01  0.94496786352E-02  0.28408711056E-01  0.51100000000E-03 0. -1.
</event>
<event>
 8    1  0.1070112E+005  0.1043930E+01  0.7957747E-01            NaN
         13   -1    0    0    0    0  0.00000000000E+00  0.00000000000E+00  0.74505805969E-08  0.10566000000E+00  0.10566000000E+00 0. -1.
     999900   -1    0    0    0    0 -0.00000000000E+00 -0.00000000000E+00 -0.74505805969E-08  0.93827000000E+00  0.93827000000E+00 0.  1.
     999902    2    1    2    0    0  0.20474127900E-01 -0.59960475628E-02  0.11446677148E-01  0.10197190744E+01  0.10194316170E+01 0.  0.
     999903    2    3    3    0    0  0.55936558632E-01 -0.80360716986E-01 -0.84727977179E-01  0.13065369314E+00  0.17458922906E-01 0.  0.
         14    1    1    2    0    0 -0.20474127900E-01  0.59960475628E-02 -0.11446677148E-01  0.24210925579E-01  0.00000000000E+00 0.  1.
     999901    1    3    3    0    0 -0.35462430732E-01  0.74364669423E-01  0.96174654327E-01  0.88906538128E+00  0.88000000000E+00 0. -1.
        -11    1    4    4    0    0  0.34398347440E-01 -0.39023211084E-01 -0.53003153390E-01  0.74267440377E-01  0.51100000000E-03 0.  1.
         11    1    4    4    0    0  0.21538211192E-01 -0.41337505902E-01 -0.31724823790E-01  0.56386252766E-01  0.51100000000E-03 0. -1.
</event>
<event>
 7    1  0.1070112E+005  0.1043930E+01  0.7957747E-01            NaN
         13   -1    0    0    0    0  0.00000000000E+00  0.00000000000E+00  0.74505805969E-08  0.10566000000E+00  0.10566000000E+00 0.  1.
     999900   -1    0    0    0    0 -0.00000000000E+00 -0.00000000000E+00 -0.74505805969E-08  0.93827000000E+00  0.93827000000E+00 0.  1.
     999903    2    1    2    0    0 -0.86175710704E-01 -0.48398676817E-02 -0.67621058981E-01  0.11135306977E+00  0.19422180518E-01 0.  0.
         14    1    1    2    0    0 -0.35203777924E-01 -0.21491464680E-01  0.65159703799E-02  0.41756998266E-01  0.00000000000E+00 0. -1.
     999901    1    1    2    0    0  0.12137948863E+00  0.26331332362E-01  0.61105088601E-01  0.89081993196E+00  0.88000000000E+00 0. -1.
        -11    1    3    3    0    0 -0.15148512835E-01 -0.70670582674E-02 -0.18648836488E-01  0.25049171185E-01  0.51100000000E-03 0. -1.
         11    1    3    3    0    0 -0.71027197868E-01  0.22271905857E-02 -0.48972222492E-01  0.86303898589E-01  0.51100000000E-03 0.  1.
</event>
<event>
 8    1  0.1070112E+005  0.1043930E+01  0.7957747E-01            NaN
         13   -1    0    0    0    0  0.00000000000E+00  0.00000000000E+00  0.74505805969E-08  0.10566000000E+00  0.10566000000E+00 0.  1.
     999900   -1    0    0    0    0 -0.00000000000E+00 -0.00000000000E+00 -0.74505805969E-08  0.93827000000E+00  0.93827000000E+00 0.  1.
     999902    2    1    2    0    0 -0.71015789286E-02 -0.17009212109E-01  0.13408268756E-01  0.10211368565E+01  0.10208824380E+01 0.  0.
     999903    2    3    3    0    0  0.83202926307E-01  0.96463391787E-01 -0.44987777965E-02  0.12908775593E+00  0.20383739318E-01 0.  0.
         14    1    1    2    0    0  0.71015789286E-02  0.17009212109E-01 -0.13408268756E-01  0.22793143506E-01  0.00000000000E+00 0.  1.
     999901    1    3    3    0    0 -0.90304505235E-01 -0.11347260390E+00  0.17907046552E-01  0.89204910056E+00  0.88000000000E+00 0. -1.
        -11    1    4    4    0    0  0.11506131941E-01  0.19061789182E-01  0.59849626708E-02  0.23061304782E-01  0.51100000000E-03 0. -1.
         11    1    4    4    0    0  0.71696794365E-01  0.77401602604E-01 -0.10483740467E-01  0.10602645115E+00  0.51100000000E-03 0.  1.
</event>
<event>
 8    1  0.1070112E+005  0.1043930E+01  0.7957747E-01            NaN
         13   -1    0    0    0    0  0.00000000000E+00  0.00000000000E+00  0.74505805969E-08  0.10566000000E+00  0.10566000000E+00 0.  1.
     999900   -1    0    0    0    0 -0.00000000000E+00 -0.00000000000E+00 -0.74505805969E-08  0.93827000000E+00  0.93827000000E+00 0. -1.
     999902    2    1    2    0    0 -0.11025265280E-01  0.16701843496E-01  0.22740747619E-02  0.10237885138E+01  0.10235903680E+01 0.  0.
     999903    2    3    3    0    0  0.10686585368E+00 -0.10869613143E-01 -0.74586468233E-01  0.13217983044E+00  0.19232970644E-01 0.  0.
         14    1    1    2    0    0  0.11025265280E-01 -0.16701843496E-01 -0.22740747619E-02  0.20141486208E-01  0.00000000000E+00 0.  1.
     999901    1    3    3    0    0 -0.11789111896E+00  0.27571456639E-01  0.76860542995E-01  0.89160868335E+00  0.88000000000E+00 0.  1.
        -11    1    4    4    0    0  0.91297154873E-01 -0.36097208994E-02 -0.57566526836E-01  0.10799243819E+00  0.51100000000E-03 0. -1.
         11    1    4    4    0    0  0.15568698808E-01 -0.72598922436E-02 -0.17019941397E-01  0.24187392256E-01  0.51100000000E-03 0.  1.
</event>
<event>
 8    1  0.1070112E+005  0.1043930E+01  0.7957747E-01            NaN
         13   -1    0    0    0    0  0.00000000000E+00  0.00000000000E+00  0.74505805969E-08  0.10566000000E+00  0.10566000000E+00 0.  1.
     999900   -1    0    0    0    0 -0.00000000000E+00 -0.00000000000E+00 -0.74505805969E-08  0.93827000000E+00  0.93827000000E+00 0. -1.
     999902    2    1    2    0    0 -0.10935181424E-02 -0.20679001743E-01  0.16120929929E-01  0.10176868813E+01  0.10173484591E+01 0.  0.
     999903    2    3    3    0    0  0.29044687564E-01 -0.12590927273E+00 -0.98829477215E-03  0.13074018230E+00  0.19881642435E-01 0.  0.
         14    1    1    2    0    0  0.10935181424E-02  0.20679001743E-01 -0.16120929929E-01  0.26243118656E-01  0.00000000000E+00 0. -1.
     999901    1    3    3    0    0 -0.30138205707E-01  0.10523027099E+00  0.17109224701E-01  0.88694669904E+00  0.88000000000E+00 0.  1.
        -11    1    4    4    0    0  0.12303431810E-01 -0.39900548155E-01  0.84665607213E-02  0.42607181892E-01  0.51100000000E-03 0. -1.
         11    1    4    4    0    0  0.16741255755E-01 -0.86008724577E-01 -0.94548554934E-02  0.88133000408E-01  0.51100000000E-03 0.  1.
</event>
<event>
 8    1  0.1070112E+005  0.1043930E+01  0.7957747E-01            NaN
         13   -1    0    0    0    0  0.00000000000E+00  0.00000000000E+00  0.74505805969E-08  0.10566000000E+00  0.10566000000E+00 0.  1.
     999900   -1    0    0    0    0 -0.00000000000E+00 -0.00000000000E+00 -0.74505805969E-08  0.93827000000E+00  0.93827000000E+00 0.  1.
     999902    2    1    2    0    0 -0.18035670606E-01  0.11540731769E-01 -0.11283169639E-01  0.10197270287E+01  0.10194397624E+01 0.  0.
     999903    2    3    3    0    0 -0.12296588443E+00  0.23896671446E-01  0.37001552812E-01  0.13209285096E+00  0.19691285497E-01 0.  0.
         14    1    1    2    0    0  0.18035670606E-01 -0.11540731769E-01  0.11283169639E-01  0.24202971327E-01  0.00000000000E+00 0.  1.
     999901    1    3    3    0    0  0.10493021383E+00 -0.12355939677E-01 -0.48284722451E-01  0.88763417771E+00  0.88000000000E+00 0.  1.
        -11    1    4    4    0    0 -0.69241271384E-01  0.38154215148E-02  0.17648964356E-01  0.71558774221E-01  0.51100000000E-03 0. -1.
         11    1    4    4    0    0 -0.53724613047E-01  0.20081249931E-01  0.19352588455E-01  0.60534076740E-01  0.51100000000E-03 0.  1.
</event>
<event>
 8    1  0.1070112E+005  0.1043930E+01  0.7957747E-01            NaN
         13   -1    0    0    0    0  0.00000000000E+00  0.00000000000E+00  0.74505805969E-08  0.10566000000E+00  0.10566000000E+00 0.  1.
     999900   -1    0    0    0    0 -0.00000000000E+00 -0.00000000000E+00 -0.74505805969E-08  0.93827000000E+00  0.93827000000E+00 0. -1.
     999902    2    1    2    0    0 -0.39631413000E-02 -0.17336259795E-01 -0.15363484881E-01  0.10204291689E+01  0.10201585170E+01 0.  0.
     999903    2    3    3    0    0 -0.47012034058E-01 -0.96999116667E-03 -0.12277457545E+00  0.13270274470E+00  0.18037456782E-01 0.  0.
         14    1    1    2    0    0  0.39631413000E-02  0.17336259795E-01  0.15363484881E-01  0.23500831056E-01  0.00000000000E+00 0. -1.
     999901    1    3    3    0    0  0.43048892758E-01 -0.16366268628E-01  0.10741109056E+00  0.88772642424E+00  0.88000000000E+00 0.  1.
        -11    1    4    4    0    0 -0.31614891892E-01 -0.62226200290E-02 -0.97059529090E-01  0.10226942699E+00  0.51100000000E-03 0. -1.
         11    1    4    4    0    0 -0.15397142166E-01  0.52526288624E-02 -0.25715046355E-01  0.30433317711E-01  0.51100000000E-03 0.  1.
</event>
<event>
 8    1  0.1070112E+005  0.1043930E+01  0.7957747E-01            NaN
         13   -1    0    0    0    0  0.00000000000E+00  0.00000000000E+00  0.74505805969E-08  0.10566000000E+00  0.10566000000E+00 0.  1.
     999900   -1    0    0    0    0 -0.00000000000E+00 -0.00000000000E+00 -0.74505805969E-08  0.93827000000E+00  0.93827000000E+00 0. -1.
     999902    2    1    2    0    0  0.21816612699E-01  0.68449859096E-02 -0.11163869506E-01  0.10184849532E+01  0.10181670539E+01 0.  0.
     999903    2    3    3    0    0 -0.10347816819E+00  0.42613454263E-01  0.55261787300E-01  0.12641402932E+00  0.20074956941E-01 0.  0.
         14    1    1    2    0    0 -0.21816612699E-01 -0.68449859096E-02  0.11163869506E-01  0.25445046750E-01  0.00000000000E+00 0.  1.
     999901    1    3    3    0    0  0.12529478089E+00 -0.35768468354E-01 -0.66425656807E-01  0.89207092393E+00  0.88000000000E+00 0. -1.
        -11    1    4    4    0    0 -0.77128659498E-01  0.37546196619E-01  0.34407112280E-01  0.92426497786E-01  0.51100000000E-03 0.  1.
         11    1    4    4    0    0 -0.26349508691E-01  0.50672576445E-02  0.20854675020E-01  0.33987531530E-01  0.51100000000E-03 0. -1.
</event>
<event>
 8    1  0.1070112E+005  0.1043930E+01  0.7957747E-01            NaN
         13   -1    0    0    0    0  0.00000000000E+00  0.00000000000E+00  0.74505805969E-08  0.10566000000E+00  0.10566000000E+00 0.  1.
     999900   -1    0    0    0    0 -0.00000000000E+00 -0.00000000000E+00 -0.74505805969E-08  0.93827000000E+00  0.93827000000E+00 0. -1.
     999902    2    1    2    0    0 -0.10993369152E-01 -0.17415865401E-01  0.83243604001E-02  0.10217160065E+01  0.10214744913E+01 0.  0.
     999903    2    3    3    0    0  0.63985437407E-01  0.76205925229E-02  0.11343934712E+00  0.13194198678E+00  0.19697532108E-01 0.  0.
         14    1    1    2    0    0  0.10993369152E-01  0.17415865401E-01 -0.83243604001E-02  0.22213993541E-01  0.00000000000E+00 0. -1.
     999901    1    3    3    0    0 -0.74978806559E-01 -0.25036457924E-01 -0.10511498672E+00  0.88977401968E+00  0.88000000000E+00 0. -1.
        -11    1    4    4    0    0  0.54455618936E-01  0.13350076657E-01  0.90864691670E-01  0.10677215130E+00  0.51100000000E-03 0. -1.
         11    1    4    4    0    0  0.95298184707E-02 -0.57294841338E-02  0.22574655447E-01  0.25169835480E-01  0.51100000000E-03 0.  1.
</event>
<event>
 8    1  0.1070112E+005  0.1043930E+01  0.7957747E-01            NaN
         13   -1    0    0    0    0  0.00000000000E+00  0.00000000000E+00  0.74505805969E-08  0.10566000000E+00  0.10566000000E+00 0.  1.
     999900   -1    0    0    0    0 -0.00000000000E+00 -0.00000000000E+00 -0.74505805969E-08  0.93827000000E+00  0.93827000000E+00 0. -1.
     999902    2    1    2    0    0  0.21817103813E-01  0.29059306349E-02  0.90216658252E-02  0.10201430097E+01  0.10198656477E+01 0.  0.
     999903    2    3    3    0    0  0.67823285365E-01  0.13054066159E-01 -0.10948384617E+00  0.13095061786E+00  0.19772330782E-01 0.  0.
         14    1    1    2    0    0 -0.21817103813E-01 -0.29059306349E-02 -0.90216658252E-02  0.23786990266E-01  0.00000000000E+00 0. -1.
     999901    1    3    3    0    0 -0.46006181551E-01 -0.10148135524E-01  0.11850551199E+00  0.88919239188E+00  0.88000000000E+00 0.  1.
        -11    1    4    4    0    0  0.59950103832E-01  0.58749330726E-02 -0.84397706627E-01  0.10369071218E+00  0.51100000000E-03 0. -1.
         11    1    4    4    0    0  0.78731815333E-02  0.71791330865E-02 -0.25086139542E-01  0.27259905676E-01  0.51100000000E-03 0.  1.
</event>
<event>
 8    1  0.1070112E+005  0.1043930E+01  0.7957747E-01            NaN
         13   -1    0    0    0    0  0.00000000000E+00  0.00000000000E+00  0.74505805969E-08  0.10566000000E+00  0.10566000000E+00 0. -1.
     999900   -1    0    0    0    0 -0.00000000000E+00 -0.00000000000E+00 -0.74505805969E-08  0.93827000000E+00  0.93827000000E+00 0.  1.
     999902    2    1    2    0    0  0.11278673971E-02  0.17275748235E-01 -0.16373900470E-01  0.10201008544E+01  0.10198224968E+01 0.  0.
     999903    2    3    3    0    0 -0.86741954944E-01  0.91426510835E-01 -0.36906588430E-01  0.13238410200E+00  0.16747553905E-01 0.  0.
         14    1    1    2    0    0 -0.11278673971E-02 -0.17275748235E-01  0.16373900470E-01  0.23829145569E-01  0.00000000000E+00 0. -1.
     999901    1    3    3    0    0  0.87869822341E-01 -0.74150762600E-01  0.20532687961E-01  0.88771675243E+00  0.88000000000E+00 0. -1.
        -11    1    4    4    0    0 -0.77369590950E-01  0.86871265576E-01 -0.36575989461E-01  0.12194562113E+00  0.51100000000E-03 0.  1.
         11    1    4    4    0    0 -0.93723639948E-02  0.45552452588E-02 -0.33059896934E-03  0.10438480871E-01  0.51100000000E-03 0. -1.
</event>
<event>
 8    1  0.1070112E+005  0.1043930E+01  0.7957747E-01            NaN
         13   -1    0    0    0    0  0.00000000000E+00  0.00000000000E+00  0.74505805969E-08  0.10566000000E+00  0.10566000000E+00 0. -1.
     999900   -1    0    0    0    0 -0.00000000000E+00 -0.00000000000E+00 -0.74505805969E-08  0.93827000000E+00  0.93827000000E+00 0. -1.
     999902    2    1    2    0    0  0.88140648461E-02  0.14528161377E-01 -0.16338537643E-01  0.10203566459E+01  0.10200843013E+01 0.  0.
     999903    2    3    3    0    0 -0.14565474962E-01  0.83424178055E-01 -0.10098590096E+00  0.13330623011E+00  0.20016299599E-01 0.  0.
         14    1    1    2    0    0 -0.88140648461E-02 -0.14528161377E-01  0.16338537643E-01  0.23573354119E-01  0.00000000000E+00 0. -1.
     999901    1    3    3    0    0  0.23379539808E-01 -0.68896016678E-01  0.84647363317E-01  0.88705041577E+00  0.88000000000E+00 0.  1.
        -11    1    4    4    0    0 -0.59347056641E-02  0.14617499044E-01 -0.92063414325E-02  0.18273200409E-01  0.51100000000E-03 0.  1.
         11    1    4    4    0    0 -0.86307692982E-02  0.68806679012E-01 -0.91779559527E-01  0.11503302971E+00  0.51100000000E-03 0. -1.
</event>
<event>
 8    1  0.1070112E+005  0.1043930E+01  0.7957747E-01            NaN
         13   -1    0    0    0    0  0.00000000000E+00  0.00000000000E+00  0.74505805969E-08  0.10566000000E+00  0.10566000000E+00 0. -1.
     999900   -1    0    0    0    0 -0.00000000000E+00 -0.00000000000E+00 -0.74505805969E-08  0.93827000000E+00  0.93827000000E+00 0. -1.
     999902    2    1    2    0    0  0.60577541593E-03  0.23319119642E-01  0.38971006560E-02  0.10202797210E+01  0.10200055751E+01 0.  0.
     999903    2    3    3    0    0 -0.70537858999E-01  0.49062848392E-01  0.98317170695E-01  0.13200087628E+00  0.19370406344E-01 0.  0.
         14    1    1    2    0    0 -0.60577541593E-03 -0.23319119642E-01 -0.38971006560E-02  0.23650279031E-01  0.00000000000E+00 0.  1.
     999901    1    3    3    0    0  0.71143634415E-01 -0.25743728751E-01 -0.94420070039E-01  0.88827884468E+00  0.88000000000E+00 0. -1.
        -11    1    4    4    0    0 -0.53940066057E-01  0.38592508242E-01  0.86802200329E-01  0.10924191284E+00  0.51100000000E-03 0.  1.
         11    1    4    4    0    0 -0.16597792942E-01  0.10470340150E-01  0.11514970365E-01  0.22758963441E-01  0.51100000000E-03 0. -1.
</event>
<event>
 8    1  0.1070112E+005  0.1043930E+01  0.7957747E-01            NaN
         13   -1    0    0    0    0  0.00000000000E+00  0.00000000000E+00  0.74505805969E-08  0.10566000000E+00  0.10566000000E+00 0. -1.
     999900   -1    0    0    0    0 -0.00000000000E+00 -0.00000000000E+00 -0.74505805969E-08  0.93827000000E+00  0.93827000000E+00 0.  1.
     999902    2    1    2    0    0  0.16604339078E-01 -0.29457715989E-02  0.15585673410E-01  0.10209670981E+01  0.10207088324E+01 0.  0.
     999903    2    3    3    0    0  0.16545923056E-01  0.22941672995E-01  0.12872426743E+00  0.13334639949E+00  0.20278986696E-01 0.  0.
         14    1    1    2    0    0 -0.16604339078E-01  0.29457715989E-02 -0.15585673410E-01  0.22962901868E-01  0.00000000000E+00 0.  1.
     999901    1    3    3    0    0  0.58416022073E-04 -0.25887444594E-01 -0.11313859402E+00  0.88762069864E+00  0.88000000000E+00 0.  1.
        -11    1    4    4    0    0  0.14586672239E-01  0.60775996603E-02  0.84624040802E-01  0.86088312954E-01  0.51100000000E-03 0. -1.
         11    1    4    4    0    0  0.19592508176E-02  0.16864073335E-01  0.44100226630E-01  0.47258086536E-01  0.51100000000E-03 0.  1.
</event>
<event>
 8    1  0.1070112E+005  0.1043930E+01  0.7957747E-01            NaN
         13   -1    0    0    0    0  0.00000000000E+00  0.00000000000E+00  0.74505805969E-08  0.10566000000E+00  0.10566000000E+00 0. -1.
     999900   -1    0    0    0    0 -0.00000000000E+00 -0.00000000000E+00 -0.74505805969E-08  0.93827000000E+00  0.93827000000E+00 0. -1.
     999902    2    1    2    0    0  0.12073734577E-01  0.23422252445E-01 -0.69738054829E-02  0.10166717730E+01  0.10163062939E+01 0.  0.
     999903    2    3    3    0    0  0.11330981323E+00 -0.27931469555E-01  0.47626099165E-01  0.12770208962E+00  0.20501161072E-01 0.  0.
         14    1    1    2    0    0 -0.12073734577E-01 -0.23422252445E-01  0.69738054829E-02  0.27258226999E-01  0.00000000000E+00 0. -1.
     999901    1    3    3    0    0 -0.10123607865E+00  0.51353721999E-01 -0.54599904648E-01  0.88896968338E+00  0.88000000000E+00 0.  1.
        -11    1    4    4    0    0  0.38474987259E-01 -0.93735800371E-02  0.26854575059E-01  0.47849952663E-01  0.51100000000E-03 0. -1.
         11    1    4    4    0    0  0.74834825973E-01 -0.18557889517E-01  0.20771524107E-01  0.79852136956E-01  0.51100000000E-03 0.  1.
</event>
<event>
 8    1  0.1070112E+005  0.1043930E+01  0.7957747E-01            NaN
         13   -1    0    0    0    0  0.00000000000E+00  0.00000000000E+00  0.74505805969E-08  0.10566000000E+00  0.10566000000E+00 0. -1.
     999900   -1    0    0    0    0 -0.00000000000E+00 -0.00000000000E+00 -0.74505805969E-08  0.93827000000E+00  0.93827000000E+00 0. -1.
     999902    2    1    2    0    0  0.26894831938E-02 -0.59215726698E-02 -0.29101169117E-01  0.10141109392E+01  0.10136724425E+01 0.  0.
     999903    2    3    3    0    0 -0.91641444932E-01  0.56931647320E-01  0.55352256641E-01  0.12283026939E+00  0.19596833094E-01 0.  0.
         14    1    1    2    0    0 -0.26894831938E-02  0.59215726698E-02  0.29101169117E-01  0.29819060795E-01  0.00000000000E+00 0. -1.
     999901    1    3    3    0    0  0.94330928126E-01 -0.62853219990E-01 -0.84453425758E-01  0.89128066982E+00  0.88000000000E+00 0. -1.
        -11    1    4    4    0    0 -0.31372014941E-01  0.23384616296E-01  0.30120161184E-01  0.49381462428E-01  0.51100000000E-03 0.  1.
         11    1    4    4    0    0 -0.60269429991E-01  0.33547031023E-01  0.25232095457E-01  0.73448806962E-01  0.51100000000E-03 0. -1.
</event>
<event>
 8    1  0.1070112E+005  0.1043930E+01  0.7957747E-01            NaN
         13   -1    0    0    0    0  0.00000000000E+00  0.00000000000E+00  0.74505805969E-08  0.10566000000E+00  0.10566000000E+00 0.  1.
     999900   -1    0    0    0    0 -0.00000000000E+00 -0.00000000000E+00 -0.74505805969E-08  0.93827000000E+00  0.93827000000E+00 0. -1.
     999902    2    1    2    0    0  0.19122330892E-01 -0.12452655881E-01 -0.64736043716E-02  0.10202099719E+01  0.10199341876E+01 0.  0.
     999903    2    3    3    0    0  0.48931095189E-01  0.11897337375E+00 -0.31438121012E-02  0.12994458949E+00  0.18077528691E-01 0.  0.
         14    1    1    2    0    0 -0.19122330892E-01  0.12452655881E-01  0.64736043716E-02  0.23720028052E-01  0.00000000000E+00 0.  1.
     999901    1    3    3    0    0 -0.29808764297E-01 -0.13142602963E+00 -0.33297922705E-02  0.89026538246E+00  0.88000000000E+00 0. -1.
        -11    1    4    4    0    0  0.38419997592E-01  0.87269158434E-01  0.52609319802E-02  0.95498380903E-01  0.51100000000E-03 0.  1.
         11    1    4    4    0    0  0.10511097597E-01  0.31704215319E-01 -0.84047440813E-02  0.34446208583E-01  0.51100000000E-03 0. -1.
</event>
<event>
 8    1  0.1070112E+005  0.1043930E+01  0.7957747E-01            NaN
         13   -1    0    0    0    0  0.00000000000E+00  0.00000000000E+00  0.74505805969E-08  0.10566000000E+00  0.10566000000E+00 0. -1.
     999900   -1    0    0    0    0 -0.00000000000E+00 -0.00000000000E+00 -0.74505805969E-08  0.93827000000E+00  0.93827000000E+00 0.  1.
     999902    2    1    2    0    0 -0.15469459449E-01  0.92420868204E-02 -0.87503448894E-02  0.10238978039E+01  0.10237018238E+01 0.  0.
     999903    2    3    3    0    0  0.78582231162E-01 -0.99440239818E-01  0.28628781855E-01  0.13145465853E+00  0.19929670049E-01 0.  0.
         14    1    1    2    0    0  0.15469459449E-01 -0.92420868204E-02  0.87503448894E-02  0.20032196088E-01  0.00000000000E+00 0.  1.
     999901    1    3    3    0    0 -0.94051690611E-01  0.10868232664E+00 -0.37379126744E-01  0.89244314539E+00  0.88000000000E+00 0. -1.
        -11    1    4    4    0    0  0.58627753103E-01 -0.64872729682E-01  0.26960013094E-01  0.91502939392E-01  0.51100000000E-03 0.  1.
         11    1    4    4    0    0  0.19954478058E-01 -0.34567510135E-01  0.16687687605E-02  0.39951719133E-01  0.51100000000E-03 0. -1.
</event>
<event>
 8    1  0.1070112E+005  0.1043930E+01  0.7957747E-01            NaN
         13   -1    0    0    0    0  0.00000000000E+00  0.00000000000E+00  0.74505805969E-08  0.10566000000E+00  0.10566000000E+00 0.  1.
     999900   -1    0    0    0    0 -0.00000000000E+00 -0.00000000000E+00 -0.74505805969E-08  0.93827000000E+00  0.93827000000E+00 0. -1.
     999902    2    1    2    0    0 -0.68990296282E-02 -0.21293161519E-01 -0.55855617657E-02  0.10208606732E+01  0.10205999806E+01 0.  0.
     999903    2    3    3    0    0  0.10188277733E+00 -0.40059241180E-01  0.68928470942E-01  0.13083933172E+00  0.19569197703E-01 0.  0.
         14    1    1    2    0    0  0.68990296282E-02  0.21293161519E-01  0.55855617657E-02  0.23069326768E-01  0.00000000000E+00 0.  1.
     999901    1    3    3    0    0 -0.10878180696E+00  0.18766079661E-01 -0.74514032708E-01  0.89002134151E+00  0.88000000000E+00 0. -1.
        -11    1    4    4    0    0  0.39499368862E-01 -0.10723139115E-01  0.16092496232E-01  0.43981989598E-01  0.51100000000E-03 0.  1.
         11    1    4    4    0    0  0.62383408469E-01 -0.29336102065E-01  0.52835974710E-01  0.86857342126E-01  0.51100000000E-03 0. -1.
</event>
<event>
 8    1  0.1070112E+005  0.1043930E+01  0.7957747E-01            NaN
         13   -1    0    0    0    0  0.00000000000E+00  0.00000000000E+00  0.74505805969E-08  0.10566000000E+00  0.10566000000E+00 0. -1.
     999900   -1    0    0    0    0 -0.00000000000E+00 -0.00000000000E+00 -0.74505805969E-08  0.93827000000E+00  0.93827000000E+00 0.  1.
     999902    2    1    2    0    0 -0.38297975049E-02 -0.23998440687E-01  0.39219827477E-02  0.10193134516E+01  0.10190161619E+01 0.  0.
     999903    2    3    3    0    0 -0.98365639234E-01  0.72431071705E-01  0.34595566364E-01  0.12848431822E+00  0.19730881506E-01 0.  0.
         14    1    1    2    0    0  0.38297975049E-02  0.23998440687E-01 -0.39219827477E-02  0.24616548357E-01  0.00000000000E+00 0. -1.
     999901    1    3    3    0    0  0.94535841729E-01 -0.96429512392E-01 -0.30673583616E-01  0.89082913343E+00  0.88000000000E+00 0. -1.
        -11    1    4    4    0    0 -0.67276088846E-01  0.51110071552E-01  0.14380398078E-01  0.85705125368E-01  0.51100000000E-03 0.  1.
         11    1    4    4    0    0 -0.31089550388E-01  0.21321000152E-01  0.20215168286E-01  0.42779192847E-01  0.51100000000E-03 0. -1.
</event>
<event>
 8    1  0.1070112E+005  0.1043930E+01  0.7957747E-01            NaN
         13   -1    0    0    0    0  0.00000000000E+00  0.00000000000E+00  0.74505805969E-08  0.10566000000E+00  0.10566000000E+00 0. -1.
     999900   -1    0    0    0    0 -0.00000000000E+00 -0.00000000000E+00 -0.74505805969E-08  0.93827000000E+00  0.93827000000E+00 0.  1.
     999902    2    1    2    0    0  0.24245669083E-02  0.22342552451E-01  0.78373640202E-02  0.10201288981E+01  0.10198512031E+01 0.  0.
     999903    2    3    3    0    0  0.46989927013E-01  0.51258429565E-01  0.11095319297E+00  0.13251689200E+00  0.20362607723E-01 0.  0.
         14    1    1    2    0    0 -0.24245669083E-02 -0.22342552451E-01 -0.78373640202E-02  0.23801101854E-01  0.00000000000E+00 0. -1.
     999901    1    3    3    0    0 -0.44565360105E-01 -0.28915877115E-01 -0.10311582895E+00  0.88761200614E+00  0.88000000000E+00 0.  1.
        -11    1    4    4    0    0  0.38045959164E-01  0.50325431858E-01  0.92287937251E-01  0.11179207746E+00  0.51100000000E-03 0. -1.
         11    1    4    4    0    0  0.89439678494E-02  0.93299770768E-03  0.18665255720E-01  0.20724814539E-01  0.51100000000E-03 0.  1.
</event>
<event>
 8    1  0.1070112E+005  0.1043930E+01  0.7957747E-01            NaN
         13   -1    0    0    0    0  0.00000000000E+00  0.00000000000E+00  0.74505805969E-08  0.10566000000E+00  0.10566000000E+00 0. -1.
     999900   -1    0    0    0    0 -0.00000000000E+00 -0.00000000000E+00 -0.74505805969E-08  0.93827000000E+00  0.93827000000E+00 0.  1.
     999902    2    1    2    0    0 -0.11935561695E-01  0.14517691179E-01  0.12481813482E-01  0.10213686025E+01  0.10211193885E+01 0.  0.
     999903    2    3    3    0    0 -0.91370036014E-01 -0.91218546621E-01  0.69537030684E-02  0.13146942409E+00  0.23802284682E-01 0.  0.
         14    1    1    2    0    0  0.11935561695E-01 -0.14517691179E-01 -0.12481813482E-01  0.22561397517E-01  0.00000000000E+00 0.  1.
     999901    1    3    3    0    0  0.79434474319E-01  0.10573623780E+00  0.55281104140E-02  0.88989917839E+00  0.88000000000E+00 0.  1.
        -11    1    4    4    0    0 -0.55745171431E-01 -0.65076192746E-01  0.13664219562E-01  0.86772155773E-01  0.51100000000E-03 0. -1.
         11    1    4    4    0    0 -0.35624864583E-01 -0.26142353875E-01 -0.67105164932E-02  0.44697268320E-01  0.51100000000E-03 0.  1.
</event>
<event>
 8    1  0.1070112E+005  0.1043930E+01  0.7957747E-01            NaN
         13   -1    0    0    0    0  0.00000000000E+00  0.00000000000E+00  0.74505805969E-08  0.10566000000E+00  0.10566000000E+00 0.  1.
     999900   -1    0    0    0    0 -0.00000000000E+00 -0.00000000000E+00 -0.74505805969E-08  0.93827000000E+00  0.93827000000E+00 0. -1.
     999902    2    1    2    0    0 -0.51961195163E-02 -0.11265048873E-01  0.19488087348E-01  0.10208283435E+01  0.10205669113E+01 0.  0.
     999903    2    3    3    0    0  0.11720247679E+00 -0.39513198961E-02 -0.51031332981E-01  0.12953271598E+00  0.20554660513E-01 0.  0.
         14    1    1    2    0    0  0.51961195163E-02  0.11265048873E-01 -0.19488087348E-01  0.23101656491E-01  0.00000000000E+00 0. -1.
     999901    1    3    3    0    0 -0.12239859631E+00 -0.73137289766E-02  0.70519420329E-01  0.89129562753E+00  0.88000000000E+00 0.  1.
        -11    1    4    4    0    0  0.56843108163E-01  0.64220387310E-02 -0.31163042884E-01  0.65144285167E-01  0.51100000000E-03 0.  1.
         11    1    4    4    0    0  0.60359368627E-01 -0.10373358627E-01 -0.19868290097E-01  0.64388430814E-01  0.51100000000E-03 0. -1.
</event>
<event>
 8    1  0.1070112E+005  0.1043930E+01  0.7957747E-01            NaN
         13   -1    0    0    0    0  0.00000000000E+00  0.00000000000E+00  0.74505805969E-08  0.10566000000E+00  0.10566000000E+00 0.  1.
     999900   -1    0    0    0    0 -0.00000000000E+00 -0.00000000000E+00 -0.74505805969E-08  0.93827000000E+00  0.93827000000E+00 0.  1.
     999902    2    1    2    0    0 -0.18743860342E-01 -0.88732914453E-02  0.12061178538E-01  0.10199395930E+01  0.10196574100E+01 0.  0.
     999903    2    3    3    0    0  0.87191655144E-01 -0.90404722498E-01  0.25719756906E-01  0.12973946690E+00  0.19885291058E-01 0.  0.
         14    1    1    2    0    0  0.18743860342E-01  0.88732914453E-02 -0.12061178538E-01  0.23990407027E-01  0.00000000000E+00 0. -1.
     999901    1    3    3    0    0 -0.10593551549E+00  0.81531431052E-01 -0.13658578368E-01  0.89020012607E+00  0.88000000000E+00 0.  1.
        -11    1    4    4    0    0  0.45773549359E-01 -0.51255007449E-01  0.43096054491E-02  0.68855845283E-01  0.51100000000E-03 0. -1.
         11    1    4    4    0    0  0.41418105785E-01 -0.39149715049E-01  0.21410151457E-01  0.60883621621E-01  0.51100000000E-03 0.  1.
</event>
<event>
 8    1  0.1070112E+005  0.1043930E+01  0.7957747E-01            NaN
         13   -1    0    0    0    0  0.00000000000E+00  0.00000000000E+00  0.74505805969E-08  0.10566000000E+00  0.10566000000E+00 0. -1.
     999900   -1    0    0    0    0 -0.00000000000E+00 -0.00000000000E+00 -0.74505805969E-08  0.93827000000E+00  0.93827000000E+00 0. -1.
     999902    2    1    2    0    0  0.66350135253E-02 -0.17288517649E-01  0.15237247877E-01  0.10199489665E+01  0.10196670065E+01 0.  0.
     999903    2    3    3    0    0  0.94786760038E-01  0.49467184228E-02  0.89539254133E-01  0.13215060857E+00  0.20916630038E-01 0.  0.
         14    1    1    2    0    0 -0.66350135253E-02  0.17288517649E-01 -0.15237247877E-01  0.23981033544E-01  0.00000000000E+00 0. -1.
     999901    1    3    3    0    0 -0.88151746513E-01 -0.22235236072E-01 -0.74302006256E-01  0.88779835789E+00  0.88000000000E+00 0. -1.
        -11    1    4    4    0    0  0.32240242666E-01  0.92016044966E-02  0.22595166039E-01  0.40433963716E-01  0.51100000000E-03 0. -1.
         11    1    4    4    0    0  0.62546517373E-01 -0.42548860738E-02  0.66944088094E-01  0.91716644851E-01  0.51100000000E-03 0.  1.
</event>
<event>
 8    1  0.1070112E+005  0.1043930E+01  0.7957747E-01            NaN
         13   -1    0    0    0    0  0.00000000000E+00  0.00000000000E+00  0.74505805969E-08  0.10566000000E+00  0.10566000000E+00 0.  1.
     999900   -1    0    0    0    0 -0.00000000000E+00 -0.00000000000E+00 -0.74505805969E-08  0.93827000000E+00  0.93827000000E+00 0. -1.
     999902    2    1    2    0    0 -0.28861228243E-01 -0.37353470448E-02 -0.59844023306E-03  0.10148219007E+01  0.10144043615E+01 0.  0.
     999903    2    3    3    0    0 -0.37204938803E-01  0.11914325767E+00  0.35773215402E-03  0.12624456403E+00  0.18927193549E-01 0.  0.
         14    1    1    2    0    0  0.28861228243E-01  0.37353470448E-02  0.59844023306E-03  0.29108099285E-01  0.00000000000E+00 0. -1.
     999901    1    3    3    0    0  0.83437105602E-02 -0.12287860471E+00 -0.95617238708E-03  0.88857733668E+00  0.88000000000E+00 0. -1.
        -11    1    4    4    0    0 -0.25442635917E-01  0.71313736798E-01 -0.85120534552E-02  0.76195097962E-01  0.51100000000E-03 0.  1.
         11    1    4    4    0    0 -0.11762302886E-01  0.47829520873E-01  0.88697856092E-02  0.50049466069E-01  0.51100000000E-03 0. -1.
</event>
<event>
 8    1  0.1070112E+005  0.1043930E+01  0.7957747E-01            NaN
         13   -1    0    0    0    0  0.00000000000E+00  0.00000000000E+00  0.74505805969E-08  0.10566000000E+00  0.10566000000E+00 0.  1.
     999900   -1    0    0    0    0 -0.00000000000E+00 -0.00000000000E+00 -0.74505805969E-08  0.93827000000E+00  0.93827000000E+00 0.  1.
     999902    2    1    2    0    0  0.28444251948E-01 -0.89247170680E-02  0.65761508850E-02  0.10134017868E+01  0.10129418589E+01 0.  0.
     999903    2    3    3    0    0 -0.46539408466E-02 -0.10987061733E+00 -0.55828283842E-01  0.12481871319E+00  0.19227640725E-01 0.  0.
         14    1    1    2    0    0 -0.28444251948E-01  0.89247170680E-02 -0.65761508850E-02  0.30528213248E-01  0.00000000000E+00 0. -1.
     999901    1    3    3    0    0  0.33098192795E-01  0.10094590026E+00  0.62404434727E-01  0.88858307356E+00  0.88000000000E+00 0. -1.
        -11    1    4    4    0    0 -0.19370280496E-02 -0.84554015174E-01 -0.33572733704E-01  0.90997379793E-01  0.51100000000E-03 0.  1.
         11    1    4    4    0    0 -0.27169127969E-02 -0.25316602157E-01 -0.22255550138E-01  0.33821333398E-01  0.51100000000E-03 0. -1.
</event>
<event>
 8    1  0.1070112E+005  0.1043930E+01  0.7957747E-01            NaN
         13   -1    0    0    0    0  0.00000000000E+00  0.00000000000E+00  0.74505805969E-08  0.10566000000E+00  0.10566000000E+00 0. -1.
     999900   -1    0    0    0    0 -0.00000000000E+00 -0.00000000000E+00 -0.74505805969E-08  0.93827000000E+00  0.93827000000E+00 0. -1.
     999902    2    1    2    0    0 -0.18717041805E-02 -0.21077851863E-01  0.10247702656E-01  0.10204184172E+01  0.10201475147E+01 0.  0.
     999903    2    3    3    0    0  0.12672487362E+00 -0.25745470111E-01 -0.44903957768E-02  0.13093762594E+00  0.20061789771E-01 0.  0.
         14    1    1    2    0    0  0.18717041805E-02  0.21077851863E-01 -0.10247702656E-01  0.23511582793E-01  0.00000000000E+00 0.  1.
     999901    1    3    3    0    0 -0.12859657780E+00  0.46676182480E-02  0.14738098432E-01  0.88948079126E+00  0.88000000000E+00 0.  1.
        -11    1    4    4    0    0  0.31278487110E-01  0.11866651786E-04  0.47639577980E-02  0.31643329654E-01  0.51100000000E-03 0.  1.
         11    1    4    4    0    0  0.95446386508E-01 -0.25757336763E-01 -0.92543535748E-02  0.99294296289E-01  0.51100000000E-03 0. -1.
</event>
<event>
 8    1  0.1070112E+005  0.1043930E+01  0.7957747E-01            NaN
         13   -1    0    0    0    0  0.00000000000E+00  0.00000000000E+00  0.74505805969E-08  0.10566000000E+00  0.10566000000E+00 0.  1.
     999900   -1    0    0    0    0 -0.00000000000E+00 -0.00000000000E+00 -0.74505805969E-08  0.93827000000E+00  0.93827000000E+00 0. -1.
     999902    2    1    2    0    0  0.15374142601E-01 -0.18612522997E-01 -0.96564475455E-03  0.10197696452E+01  0.10194834018E+01 0.  0.
     999903    2    3    3    0    0  0.11335441647E+00  0.80043073534E-02  0.63261135060E-01  0.13160655830E+00  0.20125166080E-01 0.  0.
         14    1    1    2    0    0 -0.15374142601E-01  0.18612522997E-01  0.96564475455E-03  0.24160354775E-01  0.00000000000E+00 0. -1.
     999901    1    3    3    0    0 -0.97980273870E-01 -0.26616830351E-01 -0.64226779815E-01  0.88816308692E+00  0.88000000000E+00 0. -1.
        -11    1    4    4    0    0  0.80737082929E-01  0.11024107989E-01  0.36428997511E-01  0.89259960215E-01  0.51100000000E-03 0.  1.
         11    1    4    4    0    0  0.32617333542E-01 -0.30198006354E-02  0.26832137549E-01  0.42346598089E-01  0.51100000000E-03 0. -1.
</event>
<event>
 8    1  0.1070112E+005  0.1043930E+01  0.7957747E-01            NaN
         13   -1    0    0    0    0  0.00000000000E+00  0.00000000000E+00  0.74505805969E-08  0.10566000000E+00  0.10566000000E+00 0. -1.
     999900   -1    0    0    0    0 -0.00000000000E+00 -0.00000000000E+00 -0.74505805969E-08  0.93827000000E+00  0.93827000000E+00 0.  1.
     999902    2    1    2    0    0  0.16198059722E-02 -0.23662621910E-02 -0.24774275405E-01  0.10189903190E+01  0.10186850752E+01 0.  0.
     999903    2    3    3    0    0  0.74464914124E-01 -0.10164306085E+00 -0.26785869801E-01  0.13041486407E+00  0.20352363360E-01 0.  0.
         14    1    1    2    0    0 -0.16198059722E-02  0.23662621910E-02  0.24774275405E-01  0.24939681032E-01  0.00000000000E+00 0. -1.
     999901    1    3    3    0    0 -0.72845108152E-01  0.99276798663E-01  0.20115943961E-02  0.88857545490E+00  0.88000000000E+00 0. -1.
        -11    1    4    4    0    0  0.34985913812E-01 -0.35631616622E-01 -0.35541446874E-02  0.50065150892E-01  0.51100000000E-03 0. -1.
         11    1    4    4    0    0  0.39479000313E-01 -0.66011444231E-01 -0.23231725113E-01  0.80349713179E-01  0.51100000000E-03 0.  1.
</event>
<event>
 8    1  0.1070112E+005  0.1043930E+01  0.7957747E-01            NaN
         13   -1    0    0    0    0  0.00000000000E+00  0.00000000000E+00  0.74505805969E-08  0.10566000000E+00  0.10566000000E+00 0.  1.
     999900   -1    0    0    0    0 -0.00000000000E+00 -0.00000000000E+00 -0.74505805969E-08  0.93827000000E+00  0.93827000000E+00 0. -1.
     999902    2    1    2    0    0  0.17160515571E-01 -0.17239018037E-01  0.73926469206E-03  0.10195945619E+01  0.10193041043E+01 0.  0.
     999903    2    3    3    0    0  0.89350670847E-01  0.79916332648E-01 -0.46306954104E-01  0.13006438958E+00  0.20056142024E-01 0.  0.
         14    1    1    2    0    0 -0.17160515571E-01  0.17239018037E-01 -0.73926469206E-03  0.24335438147E-01  0.00000000000E+00 0. -1.
     999901    1    3    3    0    0 -0.72190155276E-01 -0.97155350685E-01  0.47046218796E-01  0.88953017228E+00  0.88000000000E+00 0.  1.
        -11    1    4    4    0    0  0.37614036268E-01  0.47076306475E-01 -0.22767229081E-01  0.64417406007E-01  0.51100000000E-03 0. -1.
         11    1    4    4    0    0  0.51736634579E-01  0.32840026173E-01 -0.23539725023E-01  0.65646983570E-01  0.51100000000E-03 0.  1.
</event>
<event>
 8    1  0.1070112E+005  0.1043930E+01  0.7957747E-01            NaN
         13   -1    0    0    0    0  0.00000000000E+00  0.00000000000E+00  0.74505805969E-08  0.10566000000E+00  0.10566000000E+00 0. -1.
     999900   -1    0    0    0    0 -0.00000000000E+00 -0.00000000000E+00 -0.74505805969E-08  0.93827000000E+00  0.93827000000E+00 0.  1.
     999902    2    1    2    0    0 -0.16033860592E-01  0.26315002480E-02 -0.17617914575E-01  0.10199633483E+01  0.10196817305E+01 0.  0.
     999903    2    3    3    0    0 -0.65211747332E-01  0.10655554809E+00  0.29057795905E-01  0.13125794481E+00  0.27886121177E-01 0.  0.
         14    1    1    2    0    0  0.16033860592E-01 -0.26315002480E-02  0.17617914575E-01  0.23966651685E-01  0.00000000000E+00 0. -1.
     999901    1    3    3    0    0  0.49177886740E-01 -0.10392404784E+00 -0.46675710480E-01  0.88870540350E+00  0.88000000000E+00 0.  1.
        -11    1    4    4    0    0 -0.10316400176E-02  0.10006901036E-01 -0.37848768216E-02  0.10760518715E-01  0.51100000000E-03 0. -1.
         11    1    4    4    0    0 -0.64180107315E-01  0.96548647057E-01  0.32842672726E-01  0.12049742610E+00  0.51100000000E-03 0.  1.
</event>
<event>
 8    1  0.1070112E+005  0.1043930E+01  0.7957747E-01            NaN
         13   -1    0    0    0    0  0.00000000000E+00  0.00000000000E+00  0.74505805969E-08  0.10566000000E+00  0.10566000000E+00 0. -1.
     999900   -1    0    0    0    0 -0.00000000000E+00 -0.00000000000E+00 -0.74505805969E-08  0.93827000000E+00  0.93827000000E+00 0.  1.
     999902    2    1    2    0    0 -0.12138389398E-01 -0.25132397904E-01  0.29382886110E-02  0.10158655837E+01  0.10154778544E+01 0.  0.
     999903    2    3    3    0    0  0.70856916764E-01 -0.79261317343E-01  0.67392323929E-01  0.12796216361E+00  0.23011538640E-01 0.  0.
         14    1    1    2    0    0  0.12138389398E-01  0.25132397904E-01 -0.29382886110E-02  0.28064416287E-01  0.00000000000E+00 0. -1.
     999901    1    3    3    0    0 -0.82995306161E-01  0.54128919439E-01 -0.64454035318E-01  0.88790342010E+00  0.88000000000E+00 0.  1.
        -11    1    4    4    0    0  0.11698563387E-01 -0.13017257442E-01  0.19027564514E-02  0.17612125929E-01  0.51100000000E-03 0. -1.
         11    1    4    4    0    0  0.59158353377E-01 -0.66244059901E-01  0.65489567477E-01  0.11035003768E+00  0.51100000000E-03 0.  1.
</event>
<event>
 8    1  0.1240379E+005  0.1043930E+01  0.7957747E-01            NaN
         13   -1    0    0    0    0  0.00000000000E+00  0.00000000000E+00  0.74505805969E-08  0.10566000000E+00  0.10566000000E+00 0. -1.
     999900   -1    0    0    0    0 -0.00000000000E+00 -0.00000000000E+00 -0.74505805969E-08  0.93827000000E+00  0.93827000000E+00 0.  1.
     999902    2    1    2    0    0 -0.21520683359E-01  0.35040580926E-02  0.27010231009E-02  0.10219592521E+01  0.10217230541E+01 0.  0.
     999903    2    3    3    0    0  0.53827049071E-01  0.59811318098E-01  0.10258729572E+00  0.13132742262E+00  0.15747815868E-01 0.  0.
         14    1    1    2    0    0  0.21520683359E-01 -0.35040580926E-02 -0.27010231009E-02  0.21970747851E-01  0.00000000000E+00 0.  1.
     999901    1    3    3    0    0 -0.75347732430E-01 -0.56307260005E-01 -0.99886272619E-01  0.89063182953E+00  0.88000000000E+00 0.  1.
        -11    1    4    4    0    0  0.37784090581E-01  0.32139211523E-01  0.55972093681E-01  0.74791061033E-01  0.51100000000E-03 0.  1.
         11    1    4    4    0    0  0.16042958489E-01  0.27672106575E-01  0.46615202039E-01  0.56536361587E-01  0.51100000000E-03 0. -1.
</event>
<event>
 8    1  0.1070112E+005  0.1043930E+01  0.7957747E-01            NaN
         13   -1    0    0    0    0  0.00000000000E+00  0.00000000000E+00  0.74505805969E-08  0.10566000000E+00  0.10566000000E+00 0.  1.
     999900   -1    0    0    0    0 -0.00000000000E+00 -0.00000000000E+00 -0.74505805969E-08  0.93827000000E+00  0.93827000000E+00 0. -1.
     999902    2    1    2    0    0  0.78280878529E-03  0.16408932385E-01  0.14951170977E-01  0.10217173152E+01  0.10214758288E+01 0.  0.
     999903    2    3    3    0    0 -0.10198553487E+00  0.12346323326E-01  0.82179053963E-01  0.13318063871E+00  0.20741373973E-01 0.  0.
         14    1    1    2    0    0 -0.78280878529E-03 -0.16408932385E-01 -0.14951170977E-01  0.22212684781E-01  0.00000000000E+00 0.  1.
     999901    1    3    3    0    0  0.10276834366E+00  0.40626090582E-02 -0.67227882986E-01  0.88853667651E+00  0.88000000000E+00 0. -1.
        -11    1    4    4    0    0 -0.79120673156E-01  0.17111082599E-01  0.58188992378E-01  0.99694984945E-01  0.51100000000E-03 0. -1.
         11    1    4    4    0    0 -0.22864861716E-01 -0.47647592723E-02  0.23990061585E-01  0.33485653765E-01  0.51100000000E-03 0.  1.
</event>
<event>
 8    1  0.1072598E+005  0.1043930E+01  0.7957747E-01            NaN
         13   -1    0    0    0    0  0.00000000000E+00  0.00000000000E+00  0.74505805969E-08  0.10566000000E+00  0.10566000000E+00 0. -1.
     999900   -1    0    0    0    0 -0.00000000000E+00 -0.00000000000E+00 -0.74505805969E-08  0.93827000000E+00  0.93827000000E+00 0.  1.
     999902    2    1    2    0    0  0.22969508038E-02  0.16362585505E-01  0.16929374710E-01  0.10202738398E+01  0.10199995560E+01 0.  0.
     999903    2    3    3    0    0 -0.57948835688E-01 -0.10974900180E+00 -0.25029105851E-01  0.12825691096E+00  0.20505319220E-01 0.  0.
         14    1    1    2    0    0 -0.22969508038E-02 -0.16362585505E-01 -0.16929374710E-01  0.23656160202E-01  0.00000000000E+00 0. -1.
     999901    1    3    3    0    0  0.60245786492E-01  0.12611158730E+00  0.41958480562E-01  0.89201692884E+00  0.88000000000E+00 0. -1.
        -11    1    4    4    0    0 -0.15495139462E-01 -0.50961209739E-01 -0.99015917087E-02  0.54179764529E-01  0.51100000000E-03 0. -1.
         11    1    4    4    0    0 -0.42453696226E-01 -0.58787792058E-01 -0.15127514143E-01  0.74077146432E-01  0.51100000000E-03 0.  1.
</event>
<event>
 8    1  0.1070112E+005  0.1043930E+01  0.7957747E-01            NaN
         13   -1    0    0    0    0  0.00000000000E+00  0.00000000000E+00  0.74505805969E-08  0.10566000000E+00  0.10566000000E+00 0. -1.
     999900   -1    0    0    0    0 -0.00000000000E+00 -0.00000000000E+00 -0.74505805969E-08  0.93827000000E+00  0.93827000000E+00 0.  1.
     999902    2    1    2    0    0  0.57267424996E-02 -0.18441947973E-01  0.99369229387E-02  0.10222126461E+01  0.10219819227E+01 0.  0.
     999903    2    3    3    0    0  0.54013386795E-01 -0.94274853663E-01 -0.74967165987E-01  0.13356708459E+00  0.20368999079E-01 0.  0.
         14    1    1    2    0    0 -0.57267424996E-02  0.18441947973E-01 -0.99369229387E-02  0.21717353940E-01  0.00000000000E+00 0.  1.
     999901    1    3    3    0    0 -0.48286644296E-01  0.75832905691E-01  0.84904088926E-01  0.88864556147E+00  0.88000000000E+00 0. -1.
        -11    1    4    4    0    0  0.18378295144E-01 -0.23429527300E-01 -0.11247045555E-01  0.31834912229E-01  0.51100000000E-03 0.  1.
         11    1    4    4    0    0  0.35635091651E-01 -0.70845326363E-01 -0.63720120432E-01  0.10173217236E+00  0.51100000000E-03 0. -1.
</event>
<event>
 8    1  0.1070112E+005  0.1043930E+01  0.7957747E-01            NaN
         13   -1    0    0    0    0  0.00000000000E+00  0.00000000000E+00  0.74505805969E-08  0.10566000000E+00  0.10566000000E+00 0. -1.
     999900   -1    0    0    0    0 -0.00000000000E+00 -0.00000000000E+00 -0.74505805969E-08  0.93827000000E+00  0.93827000000E+00 0. -1.
     999902    2    1    2    0    0  0.17835062412E-01 -0.21668810020E-01  0.13459603401E-02  0.10158330538E+01  0.10154444124E+01 0.  0.
     999903    2    3    3    0    0  0.11574424647E+00 -0.63994611989E-02  0.52385602274E-01  0.12880182185E+00  0.20198373443E-01 0.  0.
         14    1    1    2    0    0 -0.17835062412E-01  0.21668810020E-01 -0.13459603401E-02  0.28096946243E-01  0.00000000000E+00 0. -1.
     999901    1    3    3    0    0 -0.97909184062E-01 -0.15269348822E-01 -0.51039641934E-01  0.88703123191E+00  0.88000000000E+00 0. -1.
        -11    1    4    4    0    0  0.58111391013E-01 -0.66369677155E-02  0.36767573349E-01  0.69087615945E-01  0.51100000000E-03 0.  1.
         11    1    4    4    0    0  0.57632855461E-01  0.23750651656E-03  0.15618028925E-01  0.59714205901E-01  0.51100000000E-03 0. -1.
</event>
<event>
 8    1  0.1070112E+005  0.1043930E+01  0.7957747E-01            NaN
         13   -1    0    0    0    0  0.00000000000E+00  0.00000000000E+00  0.74505805969E-08  0.10566000000E+00  0.10566000000E+00 0. -1.
     999900   -1    0    0    0    0 -0.00000000000E+00 -0.00000000000E+00 -0.74505805969E-08  0.93827000000E+00  0.93827000000E+00 0. -1.
     999902    2    1    2    0    0  0.23006828488E-01 -0.45281258985E-02  0.29512388980E-02  0.10202968053E+01  0.10200230600E+01 0.  0.
     999903    2    3    3    0    0  0.10385667367E+00  0.22547619826E-01 -0.76562785195E-01  0.13260751646E+00  0.20695156898E-01 0.  0.
         14    1    1    2    0    0 -0.23006828488E-01  0.45281258985E-02 -0.29512388980E-02  0.23633194711E-01  0.00000000000E+00 0.  1.
     999901    1    3    3    0    0 -0.80849845185E-01 -0.27075745724E-01  0.79514024093E-01  0.88768928883E+00  0.88000000000E+00 0.  1.
        -11    1    4    4    0    0  0.58113000050E-01  0.11723122845E-01 -0.30012138027E-01  0.66449544272E-01  0.51100000000E-03 0.  1.
         11    1    4    4    0    0  0.45743673623E-01  0.10824496980E-01 -0.46550647168E-01  0.66157972189E-01  0.51100000000E-03 0. -1.
</event>
<event>
 8    1  0.1070112E+005  0.1043930E+01  0.7957747E-01            NaN
         13   -1    0    0    0    0  0.00000000000E+00  0.00000000000E+00  0.74505805969E-08  0.10566000000E+00  0.10566000000E+00 0. -1.
     999900   -1    0    0    0    0 -0.00000000000E+00 -0.00000000000E+00 -0.74505805969E-08  0.93827000000E+00  0.93827000000E+00 0. -1.
     999902    2    1    2    0    0 -0.18129774150E-01  0.93219743105E-02  0.14532612931E-01  0.10188943304E+01  0.10185867031E+01 0.  0.
     999903    2    3    3    0    0 -0.67230132782E-01  0.63655062778E-01 -0.87179994458E-01  0.13001391983E+00  0.27044595480E-01 0.  0.
         14    1    1    2    0    0  0.18129774150E-01 -0.93219743105E-02 -0.14532612931E-01  0.25035669641E-01  0.00000000000E+00 0.  1.
     999901    1    3    3    0    0  0.49100358632E-01 -0.54333088468E-01  0.10171260739E+00  0.88888041053E+00  0.88000000000E+00 0.  1.
        -11    1    4    4    0    0 -0.39105951009E-01  0.19040510338E-01 -0.35116641047E-01  0.55903989462E-01  0.51100000000E-03 0.  1.
         11    1    4    4    0    0 -0.28124181772E-01  0.44614552440E-01 -0.52063353411E-01  0.74109930369E-01  0.51100000000E-03 0. -1.
</event>
<event>
 8    1  0.1070112E+005  0.1043930E+01  0.7957747E-01            NaN
         13   -1    0    0    0    0  0.00000000000E+00  0.00000000000E+00  0.74505805969E-08  0.10566000000E+00  0.10566000000E+00 0. -1.
     999900   -1    0    0    0    0 -0.00000000000E+00 -0.00000000000E+00 -0.74505805969E-08  0.93827000000E+00  0.93827000000E+00 0.  1.
     999902    2    1    2    0    0  0.14901564216E-02 -0.27023485974E-02  0.23949930296E-01  0.10197820722E+01  0.10194961267E+01 0.  0.
     999903    2    3    3    0    0 -0.36247691203E-01  0.97266259967E-01 -0.72707378380E-01  0.12806434607E+00  0.18425347148E-01 0.  0.
         14    1    1    2    0    0 -0.14901564216E-02  0.27023485974E-02 -0.23949930296E-01  0.24147927764E-01  0.00000000000E+00 0.  1.
     999901    1    3    3    0    0  0.37737847625E-01 -0.99968608564E-01  0.96657308676E-01  0.89171772617E+00  0.88000000000E+00 0. -1.
        -11    1    4    4    0    0 -0.28808134275E-01  0.84385750509E-01 -0.54333168255E-01  0.10441847434E+00  0.51100000000E-03 0.  1.
         11    1    4    4    0    0 -0.74395569287E-02  0.12880509458E-01 -0.18374210125E-01  0.23645871731E-01  0.51100000000E-03 0. -1.
</event>
<event>
 7    1  0.1070112E+005  0.1043930E+01  0.7957747E-01            NaN
         13   -1    0    0    0    0  0.00000000000E+00  0.00000000000E+00  0.74505805969E-08  0.10566000000E+00  0.10566000000E+00 0. -1.
     999900   -1    0    0    0    0 -0.00000000000E+00 -0.00000000000E+00 -0.74505805969E-08  0.93827000000E+00  0.93827000000E+00 0. -1.
     999903    2    1    2    0    0  0.97856405156E-02 -0.65198635813E-01 -0.51693641213E-01  0.86143306603E-01  0.20045345056E-01 0.  0.
         14    1    1    2    0    0 -0.22093826658E-01 -0.63026904717E-01  0.89254533819E-02  0.67380943988E-01  0.00000000000E+00 0. -1.
     999901    1    1    2    0    0  0.12308186142E-01  0.12822554053E+00  0.42768187831E-01  0.89040574941E+00  0.88000000000E+00 0.  1.
        -11    1    3    3    0    0 -0.12162762579E-02 -0.50615488217E-01 -0.37746703045E-01  0.63154427297E-01  0.51100000000E-03 0. -1.
         11    1    3    3    0    0  0.11001916774E-01 -0.14583147596E-01 -0.13946938168E-01  0.22988879306E-01  0.51100000000E-03 0.  1.
</event>
<event>
 8    1  0.1070112E+005  0.1043930E+01  0.7957747E-01            NaN
         13   -1    0    0    0    0  0.00000000000E+00  0.00000000000E+00  0.74505805969E-08  0.10566000000E+00  0.10566000000E+00 0. -1.
     999900   -1    0    0    0    0 -0.00000000000E+00 -0.00000000000E+00 -0.74505805969E-08  0.93827000000E+00  0.93827000000E+00 0. -1.
     999902    2    1    2    0    0  0.12244964313E-01 -0.38917212748E-02 -0.18932393593E-01  0.10210494368E+01  0.10207930408E+01 0.  0.
     999903    2    3    3    0    0  0.50245146740E-01 -0.64535772959E-01  0.99586662327E-01  0.13022482920E+00  0.18749988411E-01 0.  0.
         14    1    1    2    0    0 -0.12244964313E-01  0.38917212748E-02  0.18932393593E-01  0.22880563207E-01  0.00000000000E+00 0. -1.
     999901    1    3    3    0    0 -0.38000182427E-01  0.60644051685E-01 -0.11851905592E+00  0.89082460759E+00  0.88000000000E+00 0. -1.
        -11    1    4    4    0    0  0.47537680456E-01 -0.49541361743E-01  0.81033758137E-01  0.10621162208E+00  0.51100000000E-03 0. -1.
         11    1    4    4    0    0  0.27074662844E-02 -0.14994411217E-01  0.18552904190E-01  0.24013207123E-01  0.51100000000E-03 0.  1.
</event>
<event>
 8    1  0.1070112E+005  0.1043930E+01  0.7957747E-01            NaN
         13   -1    0    0    0    0  0.00000000000E+00  0.00000000000E+00  0.74505805969E-08  0.10566000000E+00  0.10566000000E+00 0.  1.
     999900   -1    0    0    0    0 -0.00000000000E+00 -0.00000000000E+00 -0.74505805969E-08  0.93827000000E+00  0.93827000000E+00 0.  1.
     999902    2    1    2    0    0 -0.27871684235E-01  0.66718851068E-02 -0.60828071485E-02  0.10146324681E+01  0.10142093965E+01 0.  0.
     999903    2    3    3    0    0  0.66306838674E-01  0.10229802267E+00  0.13408074819E-01  0.12424275182E+00  0.19874672653E-01 0.  0.
         14    1    1    2    0    0  0.27871684235E-01 -0.66718851068E-02  0.60828071485E-02  0.29297531905E-01  0.00000000000E+00 0.  1.
     999901    1    3    3    0    0 -0.94178522908E-01 -0.95626137563E-01 -0.19490881968E-01  0.89038971627E+00  0.88000000000E+00 0.  1.
        -11    1    4    4    0    0  0.42406382953E-01  0.69191555293E-01  0.18070872711E-01  0.83141988193E-01  0.51100000000E-03 0. -1.
         11    1    4    4    0    0  0.23900455721E-01  0.33106467376E-01 -0.46627978918E-02  0.41100763630E-01  0.51100000000E-03 0.  1.
</event>
<event>
 8    1  0.1070112E+005  0.1043930E+01  0.7957747E-01            NaN
         13   -1    0    0    0    0  0.00000000000E+00  0.00000000000E+00  0.74505805969E-08  0.10566000000E+00  0.10566000000E+00 0.  1.
     999900   -1    0    0    0    0 -0.00000000000E+00 -0.00000000000E+00 -0.74505805969E-08  0.93827000000E+00  0.93827000000E+00 0.  1.
     999902    2    1    2    0    0 -0.11849841162E-01  0.19109125148E-01  0.76060573451E-02  0.10201933299E+01  0.10199171539E+01 0.  0.
     999903    2    3    3    0    0 -0.32720458834E-01  0.12755518936E+00  0.48574876278E-02  0.13328652184E+00  0.20018665299E-01 0.  0.
         14    1    1    2    0    0  0.11849841162E-01 -0.19109125148E-01 -0.76060573451E-02  0.23736670109E-01  0.00000000000E+00 0.  1.
     999901    1    3    3    0    0  0.20870617672E-01 -0.10844606421E+00  0.27485697174E-02  0.88690680805E+00  0.88000000000E+00 0.  1.
        -11    1    4    4    0    0  0.20150347851E-02  0.21122774573E-01  0.47280444738E-04  0.21224875201E-01  0.51100000000E-03 0.  1.
         11    1    4    4    0    0 -0.34735493620E-01  0.10643241479E+00  0.48102071830E-02  0.11206164664E+00  0.51100000000E-03 0. -1.
</event>
<event>
 8    1  0.1070112E+005  0.1043930E+01  0.7957747E-01            NaN
         13   -1    0    0    0    0  0.00000000000E+00  0.00000000000E+00  0.74505805969E-08  0.10566000000E+00  0.10566000000E+00 0.  1.
     999900   -1    0    0    0    0 -0.00000000000E+00 -0.00000000000E+00 -0.74505805969E-08  0.93827000000E+00  0.93827000000E+00 0. -1.
     999902    2    1    2    0    0  0.13547431657E-01 -0.18958797770E-01  0.20655290885E-02  0.10205369385E+01  0.10202687918E+01 0.  0.
     999903    2    3    3    0    0  0.28120408956E-01 -0.11413727413E+00 -0.59286351439E-01  0.13316138817E+00  0.19975211809E-01 0.  0.
         14    1    1    2    0    0 -0.13547431657E-01  0.18958797770E-01 -0.20655290885E-02  0.23393061531E-01  0.00000000000E+00 0. -1.
     999901    1    3    3    0    0 -0.14572977299E-01  0.95178476355E-01  0.61351880528E-01  0.88737555030E+00  0.88000000000E+00 0.  1.
        -11    1    4    4    0    0  0.28139135249E-01 -0.78614008981E-01 -0.37945253904E-01  0.91717374338E-01  0.51100000000E-03 0. -1.
         11    1    4    4    0    0 -0.18726293153E-04 -0.35523265145E-01 -0.21341097536E-01  0.41444013829E-01  0.51100000000E-03 0.  1.
</event>
<event>
 8    1  0.1070112E+005  0.1043930E+01  0.7957747E-01            NaN
         13   -1    0    0    0    0  0.00000000000E+00  0.00000000000E+00  0.74505805969E-08  0.10566000000E+00  0.10566000000E+00 0. -1.
     999900   -1    0    0    0    0 -0.00000000000E+00 -0.00000000000E+00 -0.74505805969E-08  0.93827000000E+00  0.93827000000E+00 0. -1.
     999902    2    1    2    0    0 -0.12504896209E-01 -0.15525583957E-01 -0.51801643954E-02  0.10233326630E+01  0.10231253535E+01 0.  0.
     999903    2    3    3    0    0 -0.39700601972E-01 -0.88540397356E-01  0.91345428399E-01  0.13463251145E+00  0.19141214389E-01 0.  0.
         14    1    1    2    0    0  0.12504896209E-01  0.15525583957E-01  0.51801643954E-02  0.20597336953E-01  0.00000000000E+00 0. -1.
     999901    1    3    3    0    0  0.27195705763E-01  0.73014813400E-01 -0.96525592795E-01  0.88870015160E+00  0.88000000000E+00 0. -1.
        -11    1    4    4    0    0 -0.27040779863E-01 -0.58527576090E-01  0.47854495035E-01  0.80293180001E-01  0.51100000000E-03 0. -1.
         11    1    4    4    0    0 -0.12659822109E-01 -0.30012821266E-01  0.43490933364E-01  0.54339331447E-01  0.51100000000E-03 0.  1.
</event>
<event>
 8    1  0.1070112E+005  0.1043930E+01  0.7957747E-01            NaN
         13   -1    0    0    0    0  0.00000000000E+00  0.00000000000E+00  0.74505805969E-08  0.10566000000E+00  0.10566000000E+00 0. -1.
     999900   -1    0    0    0    0 -0.00000000000E+00 -0.00000000000E+00 -0.74505805969E-08  0.93827000000E+00  0.93827000000E+00 0.  1.
     999902    2    1    2    0    0  0.52588174103E-02  0.39666211230E-02 -0.22626913945E-01  0.10203637852E+01  0.10200916075E+01 0.  0.
     999903    2    3    3    0    0  0.10606793773E+00  0.74659994834E-01 -0.41178887085E-02  0.13159912806E+00  0.21836924128E-01 0.  0.
         14    1    1    2    0    0 -0.52588174103E-02 -0.39666211230E-02  0.22626913945E-01  0.23566214765E-01  0.00000000000E+00 0. -1.
     999901    1    3    3    0    0 -0.10080912032E+00 -0.70693373711E-01 -0.18509025236E-01  0.88876465717E+00  0.88000000000E+00 0.  1.
        -11    1    4    4    0    0  0.51067272026E-01  0.40599343343E-01 -0.12293354596E-01  0.66389461816E-01  0.51100000000E-03 0. -1.
         11    1    4    4    0    0  0.55000665707E-01  0.34060651491E-01  0.81754658875E-02  0.65209666244E-01  0.51100000000E-03 0.  1.
</event>
<event>
 8    1  0.1070112E+005  0.1043930E+01  0.7957747E-01            NaN
         13   -1    0    0    0    0  0.00000000000E+00  0.00000000000E+00  0.74505805969E-08  0.10566000000E+00  0.10566000000E+00 0.  1.
     999900   -1    0    0    0    0 -0.00000000000E+00 -0.00000000000E+00 -0.74505805969E-08  0.93827000000E+00  0.93827000000E+00 0.  1.
     999902    2    1    2    0    0  0.16604206332E-01 -0.15747528726E-01 -0.12745751360E-02  0.10210103824E+01  0.10207531005E+01 0.  0.
     999903    2    3    3    0    0 -0.67762382392E-01 -0.14765834562E-01  0.10845614640E+00  0.13019080681E+00  0.19420096494E-01 0.  0.
         14    1    1    2    0    0 -0.16604206332E-01  0.15747528726E-01  0.12745751360E-02  0.22919617595E-01  0.00000000000E+00 0.  1.
     999901    1    3    3    0    0  0.84366588724E-01 -0.98169416455E-03 -0.10973072154E+00  0.89081957560E+00  0.88000000000E+00 0.  1.
        -11    1    4    4    0    0 -0.56198409900E-01 -0.51945500340E-02  0.78545021051E-01  0.96720349866E-01  0.51100000000E-03 0.  1.
         11    1    4    4    0    0 -0.11563972493E-01 -0.95712845276E-02  0.29911125350E-01  0.33470456944E-01  0.51100000000E-03 0. -1.
</event>
<event>
 8    1  0.1070112E+005  0.1043930E+01  0.7957747E-01            NaN
         13   -1    0    0    0    0  0.00000000000E+00  0.00000000000E+00  0.74505805969E-08  0.10566000000E+00  0.10566000000E+00 0.  1.
     999900   -1    0    0    0    0 -0.00000000000E+00 -0.00000000000E+00 -0.74505805969E-08  0.93827000000E+00  0.93827000000E+00 0.  1.
     999902    2    1    2    0    0  0.31241721546E-02 -0.11141961147E-01 -0.20787508645E-01  0.10201387355E+01  0.10198612726E+01 0.  0.
     999903    2    3    3    0    0 -0.47300236485E-02 -0.12020122658E+00  0.47379795392E-01  0.13075558237E+00  0.19531239427E-01 0.  0.
         14    1    1    2    0    0 -0.31241721546E-02  0.11141961147E-01  0.20787508645E-01  0.23791264479E-01  0.00000000000E+00 0.  1.
     999901    1    3    3    0    0  0.78541958031E-02  0.10905926544E+00 -0.68167304037E-01  0.88938315315E+00  0.88000000000E+00 0.  1.
        -11    1    4    4    0    0  0.52618097800E-02 -0.54862803694E-01  0.28295678332E-01  0.61955793955E-01  0.51100000000E-03 0. -1.
         11    1    4    4    0    0 -0.99918334285E-02 -0.65338422889E-01  0.19084117060E-01  0.68799788414E-01  0.51100000000E-03 0.  1.
</event>
<event>
 8    1  0.1070112E+005  0.1043930E+01  0.7957747E-01            NaN
         13   -1    0    0    0    0  0.00000000000E+00  0.00000000000E+00  0.74505805969E-08  0.10566000000E+00  0.10566000000E+00 0. -1.
     999900   -1    0    0    0    0 -0.00000000000E+00 -0.00000000000E+00 -0.74505805969E-08  0.93827000000E+00  0.93827000000E+00 0.  1.
     999902    2    1    2    0    0  0.26679361017E-03  0.23643917007E-01  0.11280282779E-01  0.10177317029E+01  0.10173944507E+01 0.  0.
     999903    2    3    3    0    0  0.84787970611E-01  0.95502068466E-01  0.15740342206E-01  0.13075520074E+00  0.23227550576E-01 0.  0.
         14    1    1    2    0    0 -0.26679361017E-03 -0.23643917007E-01 -0.11280282779E-01  0.26198297079E-01  0.00000000000E+00 0.  1.
     999901    1    3    3    0    0 -0.84521177001E-01 -0.71858151459E-01 -0.44600594272E-02  0.88697650218E+00  0.88000000000E+00 0.  1.
        -11    1    4    4    0    0  0.43371566683E-01  0.55774164347E-01 -0.20010917680E-02  0.70683206594E-01  0.51100000000E-03 0.  1.
         11    1    4    4    0    0  0.41416403928E-01  0.39727904119E-01  0.17741433974E-01  0.60071994144E-01  0.51100000000E-03 0. -1.
</event>
<event>
 8    1  0.1070112E+005  0.1043930E+01  0.7957747E-01            NaN
         13   -1    0    0    0    0  0.00000000000E+00  0.00000000000E+00  0.74505805969E-08  0.10566000000E+00  0.10566000000E+00 0. -1.
     999900   -1    0    0    0    0 -0.00000000000E+00 -0.00000000000E+00 -0.74505805969E-08  0.93827000000E+00  0.93827000000E+00 0. -1.
     999902    2    1    2    0    0  0.12169521371E-02  0.14939446035E-01 -0.18210299845E-01  0.10203443467E+01  0.10200717146E+01 0.  0.
     999903    2    3    3    0    0  0.94164343166E-01 -0.73725271357E-02  0.85314156405E-01  0.12913485693E+00  0.21818073029E-01 0.  0.
         14    1    1    2    0    0 -0.12169521371E-02 -0.14939446035E-01  0.18210299845E-01  0.23585653283E-01  0.00000000000E+00 0. -1.
     999901    1    3    3    0    0 -0.92947391029E-01  0.22311973171E-01 -0.10352445625E+00  0.89120948979E+00  0.88000000000E+00 0.  1.
        -11    1    4    4    0    0  0.54726364960E-02  0.20182034888E-02  0.21279751399E-03  0.58591210366E-02  0.51100000000E-03 0. -1.
         11    1    4    4    0    0  0.88691706670E-01 -0.93907306244E-02  0.85101358891E-01  0.12327573589E+00  0.51100000000E-03 0.  1.
</event>
<event>
 8    1  0.1070112E+005  0.1043930E+01  0.7957747E-01            NaN
         13   -1    0    0    0    0  0.00000000000E+00  0.00000000000E+00  0.74505805969E-08  0.10566000000E+00  0.10566000000E+00 0.  1.
     999900   -1    0    0    0    0 -0.00000000000E+00 -0.00000000000E+00 -0.74505805969E-08  0.93827000000E+00  0.93827000000E+00 0.  1.
     999902    2    1    2    0    0 -0.12251289100E-01 -0.91834490356E-02 -0.16983139455E-01  0.10210639368E+01  0.10208078694E+01 0.  0.
     999903    2    3    3    0    0 -0.57825843169E-01 -0.93764646184E-01  0.69063650868E-01  0.13166241385E+00  0.20725982182E-01 0.  0.
         14    1    1    2    0    0  0.12251289100E-01  0.91834490356E-02  0.16983139455E-01  0.22866063206E-01  0.00000000000E+00 0.  1.
     999901    1    3    3    0    0  0.45574554069E-01  0.84581197148E-01 -0.86046790323E-01  0.88940152294E+00  0.88000000000E+00 0.  1.
        -11    1    4    4    0    0 -0.25623725908E-01 -0.29360116146E-01  0.33302578525E-01  0.51263189590E-01  0.51100000000E-03 0. -1.
         11    1    4    4    0    0 -0.32202117261E-01 -0.64404530038E-01  0.35761072342E-01  0.80399224260E-01  0.51100000000E-03 0.  1.
</event>
<event>
 8    1  0.1070112E+005  0.1043930E+01  0.7957747E-01            NaN
         13   -1    0    0    0    0  0.00000000000E+00  0.00000000000E+00  0.74505805969E-08  0.10566000000E+00  0.10566000000E+00 0. -1.
     999900   -1    0    0    0    0 -0.00000000000E+00 -0.00000000000E+00 -0.74505805969E-08  0.93827000000E+00  0.93827000000E+00 0. -1.
     999902    2    1    2    0    0  0.21780675383E-01  0.80545365720E-02 -0.65870141316E-02  0.10197916046E+01  0.10195058875E+01 0.  0.
     999903    2    3    3    0    0 -0.55577319205E-01 -0.81972633116E-01  0.78377442032E-01  0.12776687989E+00  0.19313238624E-01 0.  0.
         14    1    1    2    0    0 -0.21780675383E-01 -0.80545365720E-02  0.65870141316E-02  0.24138395446E-01  0.00000000000E+00 0.  1.
     999901    1    3    3    0    0  0.77357994588E-01  0.90027169688E-01 -0.84964456164E-01  0.89202472467E+00  0.88000000000E+00 0.  1.
        -11    1    4    4    0    0 -0.39014279171E-01 -0.44052905055E-01  0.38673049719E-01  0.70417599494E-01  0.51100000000E-03 0. -1.
         11    1    4    4    0    0 -0.16563040034E-01 -0.37919728061E-01  0.39704392313E-01  0.57349280391E-01  0.51100000000E-03 0.  1.
</event>
<event>
 8    1  0.1070112E+005  0.1043930E+01  0.7957747E-01            NaN
         13   -1    0    0    0    0  0.00000000000E+00  0.00000000000E+00  0.74505805969E-08  0.10566000000E+00  0.10566000000E+00 0. -1.
     999900   -1    0    0    0    0 -0.00000000000E+00 -0.00000000000E+00 -0.74505805969E-08  0.93827000000E+00  0.93827000000E+00 0. -1.
     999902    2    1    2    0    0  0.16906525100E-03 -0.17893789220E-01 -0.16028978803E-01  0.10199061694E+01  0.10196231902E+01 0.  0.
     999903    2    3    3    0    0 -0.16962934269E-01 -0.11969420372E+00 -0.51585607723E-01  0.13315868354E+00  0.21347518209E-01 0.  0.
         14    1    1    2    0    0 -0.16906525100E-03  0.17893789220E-01  0.16028978803E-01  0.24023830610E-01  0.00000000000E+00 0. -1.
     999901    1    3    3    0    0  0.17131999520E-01  0.10180041450E+00  0.35556628920E-01  0.88674748585E+00  0.88000000000E+00 0.  1.
        -11    1    4    4    0    0 -0.76167486796E-02 -0.64250871962E-01 -0.38972456019E-01  0.75533455220E-01  0.51100000000E-03 0. -1.
         11    1    4    4    0    0 -0.93461855898E-02 -0.55443331763E-01 -0.12613151704E-01  0.57625228320E-01  0.51100000000E-03 0.  1.
</event>
<event>
 8    1  0.1070112E+005  0.1043930E+01  0.7957747E-01            NaN
         13   -1    0    0    0    0  0.00000000000E+00  0.00000000000E+00  0.74505805969E-08  0.10566000000E+00  0.10566000000E+00 0. -1.
     999900   -1    0    0    0    0 -0.00000000000E+00 -0.00000000000E+00 -0.74505805969E-08  0.93827000000E+00  0.93827000000E+00 0. -1.
     999902    2    1    2    0    0 -0.84778950847E-02 -0.19983472485E-01  0.78574649113E-02  0.10208442115E+01  0.10205831423E+01 0.  0.
     999903    2    3    3    0    0 -0.62751371989E-01 -0.12909816146E-01 -0.11248800245E+00  0.13096855811E+00  0.19869939112E-01 0.  0.
         14    1    1    2    0    0  0.84778950847E-02  0.19983472485E-01 -0.78574649113E-02  0.23085788539E-01  0.00000000000E+00 0.  1.
     999901    1    3    3    0    0  0.54273476905E-01 -0.70736563392E-02  0.12034546736E+00  0.88987565335E+00  0.88000000000E+00 0.  1.
        -11    1    4    4    0    0 -0.42094662688E-01 -0.92340838308E-02 -0.92211166657E-01  0.10178599760E+00  0.51100000000E-03 0.  1.
         11    1    4    4    0    0 -0.20656709301E-01 -0.36757323151E-02 -0.20276835789E-01  0.29182560509E-01  0.51100000000E-03 0. -1.
</event>
<event>
 8    1  0.1070112E+005  0.1043930E+01  0.7957747E-01            NaN
         13   -1    0    0    0    0  0.00000000000E+00  0.00000000000E+00  0.74505805969E-08  0.10566000000E+00  0.10566000000E+00 0. -1.
     999900   -1    0    0    0    0 -0.00000000000E+00 -0.00000000000E+00 -0.74505805969E-08  0.93827000000E+00  0.93827000000E+00 0.  1.
     999902    2    1    2    0    0  0.49720316969E-02 -0.61392965107E-02  0.20285300268E-01  0.10221606301E+01  0.10219287882E+01 0.  0.
     999903    2    3    3    0    0 -0.12428735204E+00  0.15608993499E-01  0.37702943396E-01  0.13228178960E+00  0.19646204825E-01 0.  0.
         14    1    1    2    0    0 -0.49720316969E-02  0.61392965107E-02 -0.20285300268E-01  0.21769369945E-01  0.00000000000E+00 0.  1.
     999901    1    3    3    0    0  0.12925938373E+00 -0.21748290010E-01 -0.17417643127E-01  0.88987884046E+00  0.88000000000E+00 0.  1.
        -11    1    4    4    0    0 -0.64456304257E-01 -0.14728851852E-02  0.21758266208E-01  0.68047540871E-01  0.51100000000E-03 0. -1.
         11    1    4    4    0    0 -0.59831047780E-01  0.17081878684E-01  0.15944677188E-01  0.64234248726E-01  0.51100000000E-03 0.  1.
</event>
<event>
 8    1  0.1070112E+005  0.1043930E+01  0.7957747E-01            NaN
         13   -1    0    0    0    0  0.00000000000E+00  0.00000000000E+00  0.74505805969E-08  0.10566000000E+00  0.10566000000E+00 0.  1.
     999900   -1    0    0    0    0 -0.00000000000E+00 -0.00000000000E+00 -0.74505805969E-08  0.93827000000E+00  0.93827000000E+00 0. -1.
     999902    2    1    2    0    0  0.83074012490E-02 -0.10378658846E-01  0.17131214184E-01  0.10222457206E+01  0.10220157069E+01 0.  0.
     999903    2    3    3    0    0 -0.23267054555E-01  0.88722789493E-01  0.93966902611E-01  0.13279545983E+00  0.19793083666E-01 0.  0.
         14    1    1    2    0    0 -0.83074012490E-02  0.10378658846E-01 -0.17131214184E-01  0.21684279429E-01  0.00000000000E+00 0. -1.
     999901    1    3    3    0    0  0.31574455804E-01 -0.99101448339E-01 -0.76835688428E-01  0.88945026074E+00  0.88000000000E+00 0. -1.
        -11    1    4    4    0    0 -0.21211235712E-01  0.42007058024E-01  0.46207507429E-01  0.65953804349E-01  0.51100000000E-03 0. -1.
         11    1    4    4    0    0 -0.20558188432E-02  0.46715731469E-01  0.47759395182E-01  0.66841655478E-01  0.51100000000E-03 0.  1.
</event>
<event>
 8    1  0.1070112E+005  0.1043930E+01  0.7957747E-01            NaN
         13   -1    0    0    0    0  0.00000000000E+00  0.00000000000E+00  0.74505805969E-08  0.10566000000E+00  0.10566000000E+00 0.  1.
     999900   -1    0    0    0    0 -0.00000000000E+00 -0.00000000000E+00 -0.74505805969E-08  0.93827000000E+00  0.93827000000E+00 0. -1.
     999902    2    1    2    0    0 -0.17099804769E-02  0.26380424642E-01  0.22336166186E-01  0.10093214005E+01  0.10087278793E+01 0.  0.
     999903    2    3    3    0    0 -0.47088480322E-01  0.47872583911E-01 -0.97413579709E-01  0.11979280470E+00  0.18756366281E-01 0.  0.
         14    1    1    2    0    0  0.17099804769E-02 -0.26380424642E-01 -0.22336166186E-01  0.34608599472E-01  0.00000000000E+00 0. -1.
     999901    1    3    3    0    0  0.45378499845E-01 -0.21492159269E-01  0.11974974590E+00  0.88952859583E+00  0.88000000000E+00 0.  1.
        -11    1    4    4    0    0 -0.21380288036E-01  0.11528584336E-01 -0.25559835459E-01  0.35264589647E-01  0.51100000000E-03 0. -1.
         11    1    4    4    0    0 -0.25708192286E-01  0.36343999575E-01 -0.71853744251E-01  0.84528215050E-01  0.51100000000E-03 0.  1.
</event>
<event>
 7    1  0.1070112E+005  0.1043930E+01  0.7957747E-01            NaN
         13   -1    0    0    0    0  0.00000000000E+00  0.00000000000E+00  0.74505805969E-08  0.10566000000E+00  0.10566000000E+00 0. -1.
     999900   -1    0    0    0    0 -0.00000000000E+00 -0.00000000000E+00 -0.74505805969E-08  0.93827000000E+00  0.93827000000E+00 0. -1.
     999903    2    1    2    0    0 -0.12095905675E+00 -0.54218516985E-01  0.55517861281E-01  0.14486012427E+00  0.18206638633E-01 0.  0.
         14    1    1    2    0    0  0.49618387006E-02  0.58312044210E-02  0.29824674295E-02  0.82169276653E-02  0.00000000000E+00 0. -1.
     999901    1    1    2    0    0  0.11599721804E+00  0.48387312564E-01 -0.58500328711E-01  0.89085294806E+00  0.88000000000E+00 0. -1.
        -11    1    3    3    0    0 -0.60791960608E-01 -0.36787785355E-01  0.26740053381E-01  0.75922955697E-01  0.51100000000E-03 0.  1.
         11    1    3    3    0    0 -0.60167096138E-01 -0.17430731630E-01  0.28777807900E-01  0.68937168576E-01  0.51100000000E-03 0. -1.
</event>
<event>
 8    1  0.1070112E+005  0.1043930E+01  0.7957747E-01            NaN
         13   -1    0    0    0    0  0.00000000000E+00  0.00000000000E+00  0.74505805969E-08  0.10566000000E+00  0.10566000000E+00 0. -1.
     999900   -1    0    0    0    0 -0.00000000000E+00 -0.00000000000E+00 -0.74505805969E-08  0.93827000000E+00  0.93827000000E+00 0. -1.
     999902    2    1    2    0    0  0.14824852132E-01 -0.17573924869E-01 -0.25733696378E-02  0.10207947173E+01  0.10205325147E+01 0.  0.
     999903    2    3    3    0    0  0.80511254953E-01 -0.99350200722E-01  0.33853872102E-01  0.13381726166E+00  0.20210153485E-01 0.  0.
         14    1    1    2    0    0 -0.14824852132E-01  0.17573924869E-01  0.25733696378E-02  0.23135282738E-01  0.00000000000E+00 0.  1.
     999901    1    3    3    0    0 -0.65686402821E-01  0.81776275853E-01 -0.36427241740E-01  0.88697745560E+00  0.88000000000E+00 0.  1.
        -11    1    4    4    0    0  0.24152358750E-01 -0.23713506925E-01  0.78050600445E-03  0.33860554551E-01  0.51100000000E-03 0. -1.
         11    1    4    4    0    0  0.56358896203E-01 -0.75636693797E-01  0.33073366098E-01  0.99956707108E-01  0.51100000000E-03 0.  1.
</event>
<event>
 8    1  0.1070112E+005  0.1043930E+01  0.7957747E-01            NaN
         13   -1    0    0    0    0  0.00000000000E+00  0.00000000000E+00  0.74505805969E-08  0.10566000000E+00  0.10566000000E+00 0. -1.
     999900   -1    0    0    0    0 -0.00000000000E+00 -0.00000000000E+00 -0.74505805969E-08  0.93827000000E+00  0.93827000000E+00 0.  1.
     999902    2    1    2    0    0  0.17982734098E-02 -0.21030556026E-01 -0.99632328700E-02  0.10205893898E+01  0.10203224581E+01 0.  0.
     999903    2    3    3    0    0 -0.21469719673E-01 -0.11384650368E+00 -0.63721123255E-01  0.13377142067E+00  0.20308524741E-01 0.  0.
         14    1    1    2    0    0 -0.17982734098E-02  0.21030556026E-01  0.99632328700E-02  0.23340610173E-01  0.00000000000E+00 0. -1.
     999901    1    3    3    0    0  0.23267993083E-01  0.92815947651E-01  0.53757890385E-01  0.88681796916E+00  0.88000000000E+00 0. -1.
        -11    1    4    4    0    0 -0.37548302839E-03 -0.22944255930E-01 -0.49282105107E-02  0.23476120794E-01  0.51100000000E-03 0.  1.
         11    1    4    4    0    0 -0.21094236644E-01 -0.90902247747E-01 -0.58792912745E-01  0.11029529988E+00  0.51100000000E-03 0. -1.
</event>
<event>
 8    1  0.1070112E+005  0.1043930E+01  0.7957747E-01            NaN
         13   -1    0    0    0    0  0.00000000000E+00  0.00000000000E+00  0.74505805969E-08  0.10566000000E+00  0.10566000000E+00 0.  1.
     999900   -1    0    0    0    0 -0.00000000000E+00 -0.00000000000E+00 -0.74505805969E-08  0.93827000000E+00  0.93827000000E+00 0. -1.
     999902    2    1    2    0    0 -0.24290914438E-01  0.36634784567E-02 -0.14824642225E-02  0.10193196912E+01  0.10190225540E+01 0.  0.
     999903    2    3    3    0    0 -0.88538701613E-01 -0.41922446879E-01 -0.85691760677E-01  0.13179669976E+00  0.20753288492E-01 0.  0.
         14    1    1    2    0    0  0.24290914438E-01 -0.36634784567E-02  0.14824642225E-02  0.24610308792E-01  0.00000000000E+00 0. -1.
     999901    1    3    3    0    0  0.64247787175E-01  0.45585925336E-01  0.84209296455E-01  0.88752299145E+00  0.88000000000E+00 0. -1.
        -11    1    4    4    0    0 -0.75226505618E-02 -0.75786067749E-02 -0.17348421913E-01  0.20377792225E-01  0.51100000000E-03 0. -1.
         11    1    4    4    0    0 -0.81016051051E-01 -0.34343840104E-01 -0.68343338765E-01  0.11141890753E+00  0.51100000000E-03 0.  1.
</event>
<event>
 8    1  0.1070112E+005  0.1043930E+01  0.7957747E-01            NaN
         13   -1    0    0    0    0  0.00000000000E+00  0.00000000000E+00  0.74505805969E-08  0.10566000000E+00  0.10566000000E+00 0.  1.
     999900   -1    0    0    0    0 -0.00000000000E+00 -0.00000000000E+00 -0.74505805969E-08  0.93827000000E+00  0.93827000000E+00 0. -1.
     999902    2    1    2    0    0  0.21925132050E-01  0.48823571160E-02 -0.72854120499E-02  0.10203158929E+01  0.10200425948E+01 0.  0.
     999903    2    3    3    0    0  0.53175062505E-01  0.10871585550E+00  0.48482991016E-01  0.13190829030E+00  0.20061707855E-01 0.  0.
         14    1    1    2    0    0 -0.21925132050E-01 -0.48823571160E-02  0.72854120499E-02  0.23614107122E-01  0.00000000000E+00 0.  1.
     999901    1    3    3    0    0 -0.31249930455E-01 -0.10383349838E+00 -0.55768403066E-01  0.88840760258E+00  0.88000000000E+00 0. -1.
        -11    1    4    4    0    0  0.38605020108E-01  0.70643109695E-01  0.22598845550E-01  0.83616777420E-01  0.51100000000E-03 0.  1.
         11    1    4    4    0    0  0.14570042398E-01  0.38072745805E-01  0.25884145466E-01  0.48291512879E-01  0.51100000000E-03 0. -1.
</event>
<event>
 8    1  0.1070112E+005  0.1043930E+01  0.7957747E-01            NaN
         13   -1    0    0    0    0  0.00000000000E+00  0.00000000000E+00  0.74505805969E-08  0.10566000000E+00  0.10566000000E+00 0.  1.
     999900   -1    0    0    0    0 -0.00000000000E+00 -0.00000000000E+00 -0.74505805969E-08  0.93827000000E+00  0.93827000000E+00 0.  1.
     999902    2    1    2    0    0  0.96287088170E-02  0.17508239784E-01  0.13864646834E-01  0.10196096602E+01  0.10193195673E+01 0.  0.
     999903    2    3    3    0    0  0.94547245230E-01  0.57970973698E-01  0.71378933813E-01  0.13272957598E+00  0.14912168715E-01 0.  0.
         14    1    1    2    0    0 -0.96287088170E-02 -0.17508239784E-01 -0.13864646834E-01  0.24320339752E-01  0.00000000000E+00 0. -1.
     999901    1    3    3    0    0 -0.84918536413E-01 -0.40462733914E-01 -0.57514286979E-01  0.88688008427E+00  0.88000000000E+00 0. -1.
        -11    1    4    4    0    0  0.52881544043E-01  0.32058920111E-01  0.48484659114E-01  0.78582792960E-01  0.51100000000E-03 0.  1.
         11    1    4    4    0    0  0.41665701187E-01  0.25912053587E-01  0.22894274699E-01  0.54146783021E-01  0.51100000000E-03 0. -1.
</event>
<event>
 8    1  0.1070112E+005  0.1043930E+01  0.7957747E-01            NaN
         13   -1    0    0    0    0  0.00000000000E+00  0.00000000000E+00  0.74505805969E-08  0.10566000000E+00  0.10566000000E+00 0. -1.
     999900   -1    0    0    0    0 -0.00000000000E+00 -0.00000000000E+00 -0.74505805969E-08  0.93827000000E+00  0.93827000000E+00 0. -1.
     999902    2    1    2    0    0 -0.14073868053E-01 -0.16531938685E-01  0.92421905468E-02  0.10203334569E+01  0.10200605700E+01 0.  0.
     999903    2    3    3    0    0 -0.82515127702E-01  0.48808937534E-01 -0.85361585215E-01  0.13021913252E+00  0.21894372843E-01 0.  0.
         14    1    1    2    0    0  0.14073868053E-01  0.16531938685E-01 -0.92421905468E-02  0.23596543068E-01  0.00000000000E+00 0.  1.
     999901    1    3    3    0    0  0.68441259649E-01 -0.65340876219E-01  0.94603775761E-01  0.89011432441E+00  0.88000000000E+00 0.  1.
        -11    1    4    4    0    0 -0.24404583870E-01  0.48343945168E-02 -0.15818225317E-01  0.29486140089E-01  0.51100000000E-03 0.  1.
         11    1    4    4    0    0 -0.58110543832E-01  0.43974543017E-01 -0.69543359898E-01  0.10073299243E+00  0.51100000000E-03 0. -1.
</event>
<event>
 8    1  0.1070112E+005  0.1043930E+01  0.7957747E-01            NaN
         13   -1    0    0    0    0  0.00000000000E+00  0.00000000000E+00  0.74505805969E-08  0.10566000000E+00  0.10566000000E+00 0. -1.
     999900   -1    0    0    0    0 -0.00000000000E+00 -0.00000000000E+00 -0.74505805969E-08  0.93827000000E+00  0.93827000000E+00 0. -1.
     999902    2    1    2    0    0  0.19062032844E-01 -0.15041198576E-02 -0.14154332685E-01  0.10201399053E+01  0.10198624700E+01 0.  0.
     999903    2    3    3    0    0 -0.48026136058E-01 -0.11830813138E+00  0.97145106622E-02  0.12957058109E+00  0.19769675558E-01 0.  0.
         14    1    1    2    0    0 -0.19062032844E-01  0.15041198576E-02  0.14154332685E-01  0.23790094713E-01  0.00000000000E+00 0. -1.
     999901    1    3    3    0    0  0.67088168902E-01  0.11680401152E+00 -0.23868843347E-01  0.89056932420E+00  0.88000000000E+00 0.  1.
        -11    1    4    4    0    0 -0.39222073795E-01 -0.72087921467E-01  0.39377937597E-02  0.82163293720E-01  0.51100000000E-03 0. -1.
         11    1    4    4    0    0 -0.88040622624E-02 -0.46220209914E-01  0.57767169025E-02  0.47407287372E-01  0.51100000000E-03 0.  1.
</event>
<event>
 8    1  0.1070112E+005  0.1043930E+01  0.7957747E-01            NaN
         13   -1    0    0    0    0  0.00000000000E+00  0.00000000000E+00  0.74505805969E-08  0.10566000000E+00  0.10566000000E+00 0. -1.
     999900   -1    0    0    0    0 -0.00000000000E+00 -0.00000000000E+00 -0.74505805969E-08  0.93827000000E+00  0.93827000000E+00 0. -1.
     999902    2    1    2    0    0 -0.76039601285E-02  0.18411938839E-01 -0.12350829511E-01  0.10204915126E+01  0.10202223114E+01 0.  0.
     999903    2    3    3    0    0  0.97255095283E-01  0.52128034222E-01  0.67201145076E-01  0.13006424818E+00  0.14994307039E-01 0.  0.
         14    1    1    2    0    0  0.76039601285E-02 -0.18411938839E-01  0.12350829511E-01  0.23438487389E-01  0.00000000000E+00 0. -1.
     999901    1    3    3    0    0 -0.10485905541E+00 -0.33716095383E-01 -0.79551974587E-01  0.89042726444E+00  0.88000000000E+00 0. -1.
        -11    1    4    4    0    0  0.64711250952E-01  0.26785892721E-01  0.44514930070E-01  0.82987168700E-01  0.51100000000E-03 0. -1.
         11    1    4    4    0    0  0.32543844331E-01  0.25342141501E-01  0.22686215006E-01  0.47077079476E-01  0.51100000000E-03 0.  1.
</event>
<event>
 8    1  0.1070112E+005  0.1043930E+01  0.7957747E-01            NaN
         13   -1    0    0    0    0  0.00000000000E+00  0.00000000000E+00  0.74505805969E-08  0.10566000000E+00  0.10566000000E+00 0. -1.
     999900   -1    0    0    0    0 -0.00000000000E+00 -0.00000000000E+00 -0.74505805969E-08  0.93827000000E+00  0.93827000000E+00 0.  1.
     999902    2    1    2    0    0  0.29251430205E-02 -0.16897498206E-01 -0.16145349102E-01  0.10203767793E+01  0.10201049052E+01 0.  0.
     999903    2    3    3    0    0  0.67486761358E-01 -0.11201767791E+00  0.10426441048E-01  0.13250172550E+00  0.18589606352E-01 0.  0.
         14    1    1    2    0    0 -0.29251430205E-02  0.16897498206E-01  0.16145349102E-01  0.23553220691E-01  0.00000000000E+00 0. -1.
     999901    1    3    3    0    0 -0.64561618337E-01  0.95120179703E-01 -0.26571790150E-01  0.88787505381E+00  0.88000000000E+00 0.  1.
        -11    1    4    4    0    0  0.52475536362E-01 -0.71837197730E-01  0.33559617618E-02  0.89026897590E-01  0.51100000000E-03 0. -1.
         11    1    4    4    0    0  0.15011224996E-01 -0.40180480179E-01  0.70704792861E-02  0.43474827908E-01  0.51100000000E-03 0.  1.
</event>
<event>
 8    1  0.1070112E+005  0.1043930E+01  0.7957747E-01            NaN
         13   -1    0    0    0    0  0.00000000000E+00  0.00000000000E+00  0.74505805969E-08  0.10566000000E+00  0.10566000000E+00 0. -1.
     999900   -1    0    0    0    0 -0.00000000000E+00 -0.00000000000E+00 -0.74505805969E-08  0.93827000000E+00  0.93827000000E+00 0. -1.
     999902    2    1    2    0    0  0.12376511787E-01  0.57129487982E-02  0.22875781855E-01  0.10173007450E+01  0.10169521564E+01 0.  0.
     999903    2    3    3    0    0  0.10125481271E-01  0.12515469457E+00 -0.16759378096E-01  0.12834498472E+00  0.20623661333E-01 0.  0.
         14    1    1    2    0    0 -0.12376511787E-01 -0.57129487982E-02 -0.22875781855E-01  0.26629255030E-01  0.00000000000E+00 0.  1.
     999901    1    3    3    0    0  0.22510305162E-02 -0.11944174577E+00  0.39635159951E-01  0.88895576025E+00  0.88000000000E+00 0.  1.
        -11    1    4    4    0    0 -0.53937879544E-02  0.48360544341E-01 -0.10216726731E-01  0.49724016567E-01  0.51100000000E-03 0.  1.
         11    1    4    4    0    0  0.15519269226E-01  0.76794150225E-01 -0.65426513649E-02  0.78620968157E-01  0.51100000000E-03 0. -1.
</event>
<event>
 8    1  0.1070112E+005  0.1043930E+01  0.7957747E-01            NaN
         13   -1    0    0    0    0  0.00000000000E+00  0.00000000000E+00  0.74505805969E-08  0.10566000000E+00  0.10566000000E+00 0. -1.
     999900   -1    0    0    0    0 -0.00000000000E+00 -0.00000000000E+00 -0.74505805969E-08  0.93827000000E+00  0.93827000000E+00 0. -1.
     999902    2    1    2    0    0  0.17704091378E-02  0.16738315940E-01  0.16703864205E-01  0.10202166146E+01  0.10199409865E+01 0.  0.
     999903    2    3    3    0    0  0.36804738840E-01  0.12527571054E+00  0.13693159411E-01  0.13285150672E+00  0.20332923375E-01 0.  0.
         14    1    1    2    0    0 -0.17704091378E-02 -0.16738315940E-01 -0.16703864205E-01  0.23713385427E-01  0.00000000000E+00 0. -1.
     999901    1    3    3    0    0 -0.35034329702E-01 -0.10853739460E+00  0.30107047943E-02  0.88736510785E+00  0.88000000000E+00 0.  1.
        -11    1    4    4    0    0  0.29761427473E-01  0.10753598806E+00  0.18644022768E-01  0.11312644253E+00  0.51100000000E-03 0.  1.
         11    1    4    4    0    0  0.70433113674E-02  0.17739722472E-01 -0.49508633570E-02  0.19725064192E-01  0.51100000000E-03 0. -1.
</event>
<event>
 8    1  0.1070112E+005  0.1043930E+01  0.7957747E-01            NaN
         13   -1    0    0    0    0  0.00000000000E+00  0.00000000000E+00  0.74505805969E-08  0.10566000000E+00  0.10566000000E+00 0.  1.
     999900   -1    0    0    0    0 -0.00000000000E+00 -0.00000000000E+00 -0.74505805969E-08  0.93827000000E+00  0.93827000000E+00 0.  1.
     999902    2    1    2    0    0 -0.21497914047E-01  0.35403218872E-02 -0.10452298343E-01  0.10197650517E+01  0.10194786981E+01 0.  0.
     999903    2    3    3    0    0  0.12028415975E+00  0.20016992608E-01  0.22078475009E-01  0.12767094881E+00  0.30715680551E-01 0.  0.
         14    1    1    2    0    0  0.21497914047E-01 -0.35403218872E-02  0.10452298343E-01  0.24164948336E-01  0.00000000000E+00 0. -1.
     999901    1    3    3    0    0 -0.14178207380E+00 -0.16476670721E-01 -0.32530773352E-01  0.89209410285E+00  0.88000000000E+00 0. -1.
        -11    1    4    4    0    0  0.39741542689E-01  0.12193260848E-01 -0.60230335140E-02  0.42007188422E-01  0.51100000000E-03 0. -1.
         11    1    4    4    0    0  0.80542617063E-01  0.78237317598E-02  0.28101508523E-01  0.85663760391E-01  0.51100000000E-03 0.  1.
</event>
<event>
 8    1  0.1070112E+005  0.1043930E+01  0.7957747E-01            NaN
         13   -1    0    0    0    0  0.00000000000E+00  0.00000000000E+00  0.74505805969E-08  0.10566000000E+00  0.10566000000E+00 0.  1.
     999900   -1    0    0    0    0 -0.00000000000E+00 -0.00000000000E+00 -0.74505805969E-08  0.93827000000E+00  0.93827000000E+00 0.  1.
     999902    2    1    2    0    0 -0.16693476252E-01 -0.15882716244E-01  0.23039996489E-02  0.10207731168E+01  0.10205104187E+01 0.  0.
     999903    2    3    3    0    0 -0.19077245271E-01 -0.11464763773E+00  0.61162001200E-01  0.13329102887E+00  0.22752711084E-01 0.  0.
         14    1    1    2    0    0  0.16693476252E-01  0.15882716244E-01 -0.23039996489E-02  0.23156883189E-01  0.00000000000E+00 0. -1.
     999901    1    3    3    0    0  0.23837690191E-02  0.98764921487E-01 -0.58858001551E-01  0.88748208794E+00  0.88000000000E+00 0.  1.
        -11    1    4    4    0    0 -0.21190628521E-01 -0.65847790979E-01  0.41247258751E-01  0.80539256202E-01  0.51100000000E-03 0. -1.
         11    1    4    4    0    0  0.21133832500E-02 -0.48799846752E-01  0.19914742449E-01  0.52751772667E-01  0.51100000000E-03 0.  1.
</event>
<event>
 8    1  0.1070112E+005  0.1043930E+01  0.7957747E-01            NaN
         13   -1    0    0    0    0  0.00000000000E+00  0.00000000000E+00  0.74505805969E-08  0.10566000000E+00  0.10566000000E+00 0.  1.
     999900   -1    0    0    0    0 -0.00000000000E+00 -0.00000000000E+00 -0.74505805969E-08  0.93827000000E+00  0.93827000000E+00 0.  1.
     999902    2    1    2    0    0  0.16407507644E-02 -0.22888484481E-01  0.45327541790E-02  0.10205393898E+01  0.10202712999E+01 0.  0.
     999903    2    3    3    0    0  0.19208251855E-01  0.60848899509E-01  0.11142491875E+00  0.12995166172E+00  0.20009406647E-01 0.  0.
         14    1    1    2    0    0 -0.16407507644E-02  0.22888484481E-01 -0.45327541790E-02  0.23390610196E-01  0.00000000000E+00 0.  1.
     999901    1    3    3    0    0 -0.17567501091E-01 -0.83737383990E-01 -0.10689216457E+00  0.89058772809E+00  0.88000000000E+00 0.  1.
        -11    1    4    4    0    0  0.11324161214E-01  0.46180555734E-01  0.64331802389E-01  0.79998264198E-01  0.51100000000E-03 0.  1.
         11    1    4    4    0    0  0.78840906410E-02  0.14668343775E-01  0.47093116358E-01  0.49953397519E-01  0.51100000000E-03 0. -1.
</event>
<event>
 8    1  0.1070112E+005  0.1043930E+01  0.7957747E-01            NaN
         13   -1    0    0    0    0  0.00000000000E+00  0.00000000000E+00  0.74505805969E-08  0.10566000000E+00  0.10566000000E+00 0.  1.
     999900   -1    0    0    0    0 -0.00000000000E+00 -0.00000000000E+00 -0.74505805969E-08  0.93827000000E+00  0.93827000000E+00 0. -1.
     999902    2    1    2    0    0 -0.66456310530E-02 -0.14287319366E-01  0.17858556872E-01  0.10201136199E+01  0.10198355640E+01 0.  0.
     999903    2    3    3    0    0  0.93955535434E-01  0.77859016681E-01 -0.33462130696E-01  0.12812407126E+00  0.20159224375E-01 0.  0.
         14    1    1    2    0    0  0.66456310530E-02  0.14287319366E-01 -0.17858556872E-01  0.23816380084E-01  0.00000000000E+00 0. -1.
     999901    1    3    3    0    0 -0.10060116649E+00 -0.92146336047E-01  0.51320687568E-01  0.89198954866E+00  0.88000000000E+00 0. -1.
        -11    1    4    4    0    0  0.41680329579E-01  0.35794014711E-01 -0.47785738467E-02  0.55150315066E-01  0.51100000000E-03 0. -1.
         11    1    4    4    0    0  0.52275205856E-01  0.42065001971E-01 -0.28683556850E-01  0.72973756191E-01  0.51100000000E-03 0.  1.
</event>
<event>
 8    1  0.1070112E+005  0.1043930E+01  0.7957747E-01            NaN
         13   -1    0    0    0    0  0.00000000000E+00  0.00000000000E+00  0.74505805969E-08  0.10566000000E+00  0.10566000000E+00 0. -1.
     999900   -1    0    0    0    0 -0.00000000000E+00 -0.00000000000E+00 -0.74505805969E-08  0.93827000000E+00  0.93827000000E+00 0. -1.
     999902    2    1    2    0    0  0.19314256621E-01  0.13393426919E-02 -0.13941040134E-01  0.10200723608E+01  0.10197933292E+01 0.  0.
     999903    2    3    3    0    0  0.23767804639E-01 -0.12666272379E+00 -0.92323180653E-02  0.13078807827E+00  0.20296097796E-01 0.  0.
         14    1    1    2    0    0 -0.19314256621E-01 -0.13393426919E-02  0.13941040134E-01  0.23857639190E-01  0.00000000000E+00 0. -1.
     999901    1    3    3    0    0 -0.44535480180E-02  0.12800206648E+00 -0.47087220690E-02  0.88928428254E+00  0.88000000000E+00 0.  1.
        -11    1    4    4    0    0  0.15075726002E-01 -0.71973305816E-01 -0.15192698853E-01  0.75090035851E-01  0.51100000000E-03 0.  1.
         11    1    4    4    0    0  0.86920786373E-02 -0.54689417971E-01  0.59603807880E-02  0.55698042418E-01  0.51100000000E-03 0. -1.
</event>
<event>
 8    1  0.1070112E+005  0.1043930E+01  0.7957747E-01            NaN
         13   -1    0    0    0    0  0.00000000000E+00  0.00000000000E+00  0.74505805969E-08  0.10566000000E+00  0.10566000000E+00 0. -1.
     999900   -1    0    0    0    0 -0.00000000000E+00 -0.00000000000E+00 -0.74505805969E-08  0.93827000000E+00  0.93827000000E+00 0. -1.
     999902    2    1    2    0    0  0.37311875405E-02 -0.12248628710E-01  0.20567422255E-01  0.10197025461E+01  0.10194146913E+01 0.  0.
     999903    2    3    3    0    0 -0.96547480670E-01 -0.62939664587E-01  0.60446588169E-01  0.13166215268E+00  0.19957831177E-01 0.  0.
         14    1    1    2    0    0 -0.37311875405E-02  0.12248628710E-01 -0.20567422255E-01  0.24227453930E-01  0.00000000000E+00 0.  1.
     999901    1    3    3    0    0  0.10027866821E+00  0.50691035877E-01 -0.39879165914E-01  0.88804039339E+00  0.88000000000E+00 0. -1.
        -11    1    4    4    0    0 -0.33728834625E-01 -0.22768652429E-01  0.10888528098E-01  0.42129170224E-01  0.51100000000E-03 0.  1.
         11    1    4    4    0    0 -0.62818646044E-01 -0.40171012157E-01  0.49558060071E-01  0.89532982457E-01  0.51100000000E-03 0. -1.
</event>
<event>
 8    1  0.1070112E+005  0.1043930E+01  0.7957747E-01            NaN
         13   -1    0    0    0    0  0.00000000000E+00  0.00000000000E+00  0.74505805969E-08  0.10566000000E+00  0.10566000000E+00 0.  1.
     999900   -1    0    0    0    0 -0.00000000000E+00 -0.00000000000E+00 -0.74505805969E-08  0.93827000000E+00  0.93827000000E+00 0.  1.
     999902    2    1    2    0    0 -0.20001001342E-01  0.70770823082E-02  0.14186351397E-01  0.10184078975E+01  0.10180880453E+01 0.  0.
     999903    2    3    3    0    0  0.29526476941E-01 -0.77122596569E-01 -0.93451625532E-01  0.12648385866E+00  0.21101005793E-01 0.  0.
         14    1    1    2    0    0  0.20001001342E-01 -0.70770823082E-02 -0.14186351397E-01  0.25522102472E-01  0.00000000000E+00 0.  1.
     999901    1    3    3    0    0 -0.49527478283E-01  0.84199678877E-01  0.10763797693E+00  0.89192403887E+00  0.88000000000E+00 0. -1.
        -11    1    4    4    0    0  0.16032514005E-02 -0.32824170845E-01 -0.36202995081E-01  0.48896979258E-01  0.51100000000E-03 0.  1.
         11    1    4    4    0    0  0.27923225541E-01 -0.44298425723E-01 -0.57248630451E-01  0.77586879404E-01  0.51100000000E-03 0. -1.
</event>
<event>
 8    1  0.1070112E+005  0.1043930E+01  0.7957747E-01            NaN
         13   -1    0    0    0    0  0.00000000000E+00  0.00000000000E+00  0.74505805969E-08  0.10566000000E+00  0.10566000000E+00 0.  1.
     999900   -1    0    0    0    0 -0.00000000000E+00 -0.00000000000E+00 -0.74505805969E-08  0.93827000000E+00  0.93827000000E+00 0.  1.
     999902    2    1    2    0    0 -0.20575751563E-01  0.27509892753E-02 -0.10543043383E-01  0.10206472755E+01  0.10203816814E+01 0.  0.
     999903    2    3    3    0    0  0.17889406935E-01 -0.82699976275E-01  0.95648481110E-01  0.12932349834E+00  0.20411230442E-01 0.  0.
         14    1    1    2    0    0  0.20575751563E-01 -0.27509892753E-02  0.10543043383E-01  0.23282724457E-01  0.00000000000E+00 0.  1.
     999901    1    3    3    0    0 -0.38465158497E-01  0.85450965550E-01 -0.10619152449E+00  0.89132377720E+00  0.88000000000E+00 0.  1.
        -11    1    4    4    0    0  0.15396791382E-01 -0.26964510885E-01  0.38370832075E-01  0.49363224239E-01  0.51100000000E-03 0.  1.
         11    1    4    4    0    0  0.24926155532E-02 -0.55735465390E-01  0.57277649035E-01  0.79960274102E-01  0.51100000000E-03 0. -1.
</event>
<event>
 8    1  0.1070112E+005  0.1043930E+01  0.7957747E-01            NaN
         13   -1    0    0    0    0  0.00000000000E+00  0.00000000000E+00  0.74505805969E-08  0.10566000000E+00  0.10566000000E+00 0. -1.
     999900   -1    0    0    0    0 -0.00000000000E+00 -0.00000000000E+00 -0.74505805969E-08  0.93827000000E+00  0.93827000000E+00 0.  1.
     999902    2    1    2    0    0  0.24440745842E-04 -0.78733291397E-02 -0.21434161884E-01  0.10210955260E+01  0.10208401735E+01 0.  0.
     999903    2    3    3    0    0  0.60515389090E-01 -0.36119106835E-01 -0.11215896026E+00  0.13391574270E+00  0.19674643048E-01 0.  0.
         14    1    1    2    0    0 -0.24440745842E-04  0.78733291397E-02  0.21434161884E-01  0.22834474041E-01  0.00000000000E+00 0. -1.
     999901    1    3    3    0    0 -0.60490948345E-01  0.28245777695E-01  0.90724798380E-01  0.88717978326E+00  0.88000000000E+00 0. -1.
        -11    1    4    4    0    0  0.16295558053E-01 -0.19711039019E-01 -0.32774529445E-01  0.41575247117E-01  0.51100000000E-03 0.  1.
         11    1    4    4    0    0  0.44219831037E-01 -0.16408067816E-01 -0.79384430818E-01  0.92340495579E-01  0.51100000000E-03 0. -1.
</event>
<event>
 8    1  0.1070112E+005  0.1043930E+01  0.7957747E-01            NaN
         13   -1    0    0    0    0  0.00000000000E+00  0.00000000000E+00  0.74505805969E-08  0.10566000000E+00  0.10566000000E+00 0. -1.
     999900   -1    0    0    0    0 -0.00000000000E+00 -0.00000000000E+00 -0.74505805969E-08  0.93827000000E+00  0.93827000000E+00 0.  1.
     999902    2    1    2    0    0 -0.18551606458E-01 -0.18693001070E-02  0.15234861365E-01  0.10198518484E+01  0.10195675727E+01 0.  0.
     999903    2    3    3    0    0 -0.50552146720E-01  0.16316134933E-01 -0.11618829614E+00  0.12933133151E+00  0.20128024035E-01 0.  0.
         14    1    1    2    0    0  0.18551606458E-01  0.18693001070E-02 -0.15234861365E-01  0.24078151629E-01  0.00000000000E+00 0.  1.
     999901    1    3    3    0    0  0.32000540262E-01 -0.18185435040E-01  0.13142315751E+00  0.89052051686E+00  0.88000000000E+00 0. -1.
        -11    1    4    4    0    0 -0.29653187925E-01  0.77514701521E-03 -0.74298964528E-01  0.80003185299E-01  0.51100000000E-03 0. -1.
         11    1    4    4    0    0 -0.20898958795E-01  0.15540987918E-01 -0.41889331616E-01  0.49328146209E-01  0.51100000000E-03 0.  1.
</event>
<event>
 8    1  0.1070112E+005  0.1043930E+01  0.7957747E-01            NaN
         13   -1    0    0    0    0  0.00000000000E+00  0.00000000000E+00  0.74505805969E-08  0.10566000000E+00  0.10566000000E+00 0. -1.
     999900   -1    0    0    0    0 -0.00000000000E+00 -0.00000000000E+00 -0.74505805969E-08  0.93827000000E+00  0.93827000000E+00 0. -1.
     999902    2    1    2    0    0 -0.18870279744E-01  0.14037371844E-01 -0.40050624310E-02  0.10200725946E+01  0.10197935686E+01 0.  0.
     999903    2    3    3    0    0  0.96222332519E-01  0.84961594108E-01 -0.21508744295E-02  0.12974681565E+00  0.18772324372E-01 0.  0.
         14    1    1    2    0    0  0.18870279744E-01 -0.14037371844E-01  0.40050624310E-02  0.23857405369E-01  0.00000000000E+00 0. -1.
     999901    1    3    3    0    0 -0.11509261226E+00 -0.70924222264E-01 -0.18541880015E-02  0.89032577898E+00  0.88000000000E+00 0.  1.
        -11    1    4    4    0    0  0.22706813873E-01  0.23959205220E-01  0.71028436341E-02  0.33769134128E-01  0.51100000000E-03 0. -1.
         11    1    4    4    0    0  0.73515518646E-01  0.61002388887E-01 -0.92537180636E-02  0.95977681524E-01  0.51100000000E-03 0.  1.
</event>
<event>
 8    1  0.1070112E+005  0.1043930E+01  0.7957747E-01            NaN
         13   -1    0    0    0    0  0.00000000000E+00  0.00000000000E+00  0.74505805969E-08  0.10566000000E+00  0.10566000000E+00 0.  1.
     999900   -1    0    0    0    0 -0.00000000000E+00 -0.00000000000E+00 -0.74505805969E-08  0.93827000000E+00  0.93827000000E+00 0.  1.
     999902    2    1    2    0    0  0.46095157932E-02  0.15964728526E-01  0.18067350823E-01  0.10193831192E+01  0.10190875302E+01 0.  0.
     999903    2    3    3    0    0  0.83716271890E-03 -0.99995287415E-01 -0.75516344473E-01  0.12684804200E+00  0.19696424327E-01 0.  0.
         14    1    1    2    0    0 -0.46095157932E-02 -0.15964728526E-01 -0.18067350823E-01  0.24546880830E-01  0.00000000000E+00 0. -1.
     999901    1    3    3    0    0  0.37723530743E-02  0.11596001594E+00  0.93583695296E-01  0.89253507716E+00  0.88000000000E+00 0.  1.
        -11    1    4    4    0    0 -0.93797685026E-02 -0.50776868231E-01 -0.37317797907E-01  0.63711455533E-01  0.51100000000E-03 0. -1.
         11    1    4    4    0    0  0.10216931221E-01 -0.49218419184E-01 -0.38198546566E-01  0.63136586472E-01  0.51100000000E-03 0.  1.
</event>
<event>
 8    1  0.1070112E+005  0.1043930E+01  0.7957747E-01            NaN
         13   -1    0    0    0    0  0.00000000000E+00  0.00000000000E+00  0.74505805969E-08  0.10566000000E+00  0.10566000000E+00 0. -1.
     999900   -1    0    0    0    0 -0.00000000000E+00 -0.00000000000E+00 -0.74505805969E-08  0.93827000000E+00  0.93827000000E+00 0.  1.
     999902    2    1    2    0    0 -0.75307187358E-02  0.11702269823E-01 -0.15549840072E-01  0.10230625045E+01  0.10228496643E+01 0.  0.
     999903    2    3    3    0    0  0.42824311120E-01 -0.12167012160E+00 -0.17187237287E-01  0.13158816109E+00  0.19557681373E-01 0.  0.
         14    1    1    2    0    0  0.75307187358E-02 -0.11702269823E-01  0.15549840072E-01  0.20867495537E-01  0.00000000000E+00 0. -1.
     999901    1    3    3    0    0 -0.50355029855E-01  0.13337239142E+00  0.16373972148E-02  0.89147434337E+00  0.88000000000E+00 0. -1.
        -11    1    4    4    0    0  0.12052587870E-01 -0.63614271221E-01 -0.90542889666E-02  0.65377990540E-01  0.51100000000E-03 0.  1.
         11    1    4    4    0    0  0.30771723250E-01 -0.58055850377E-01 -0.81329483207E-02  0.66210170549E-01  0.51100000000E-03 0. -1.
</event>
<event>
 8    1  0.1070112E+005  0.1043930E+01  0.7957747E-01            NaN
         13   -1    0    0    0    0  0.00000000000E+00  0.00000000000E+00  0.74505805969E-08  0.10566000000E+00  0.10566000000E+00 0.  1.
     999900   -1    0    0    0    0 -0.00000000000E+00 -0.00000000000E+00 -0.74505805969E-08  0.93827000000E+00  0.93827000000E+00 0.  1.
     999902    2    1    2    0    0 -0.26171119408E-02  0.80715852017E-02 -0.24599226225E-01  0.10179084379E+01  0.10175757791E+01 0.  0.
     999903    2    3    3    0    0 -0.43460042578E-01  0.11846597398E+00 -0.24277644098E-01  0.13007108261E+00  0.20152425066E-01 0.  0.
         14    1    1    2    0    0  0.26171119408E-02 -0.80715852017E-02  0.24599226225E-01  0.26021562087E-01  0.00000000000E+00 0.  1.
     999901    1    3    3    0    0  0.40842930637E-01 -0.11039438878E+00 -0.32158212681E-03  0.88783735530E+00  0.88000000000E+00 0.  1.
        -11    1    4    4    0    0 -0.16796073548E-01  0.72802351849E-01 -0.17683494521E-01  0.76780581014E-01  0.51100000000E-03 0. -1.
         11    1    4    4    0    0 -0.26663969029E-01  0.45663622133E-01 -0.65941495764E-02  0.53290501596E-01  0.51100000000E-03 0.  1.
</event>
<event>
 8    1  0.1070112E+005  0.1043930E+01  0.7957747E-01            NaN
         13   -1    0    0    0    0  0.00000000000E+00  0.00000000000E+00  0.74505805969E-08  0.10566000000E+00  0.10566000000E+00 0.  1.
     999900   -1    0    0    0    0 -0.00000000000E+00 -0.00000000000E+00 -0.74505805969E-08  0.93827000000E+00  0.93827000000E+00 0.  1.
     999902    2    1    2    0    0  0.14284700006E-01 -0.18869891884E-01 -0.12421476095E-01  0.10172013909E+01  0.10168501616E+01 0.  0.
     999903    2    3    3    0    0 -0.11215553492E+00  0.52289582530E-01 -0.26047694808E-02  0.12526688015E+00  0.19285797455E-01 0.  0.
         14    1    1    2    0    0 -0.14284700006E-01  0.18869891884E-01  0.12421476095E-01  0.26728609061E-01  0.00000000000E+00 0.  1.
     999901    1    3    3    0    0  0.12644023493E+00 -0.71159474414E-01 -0.98167066142E-02  0.89193451079E+00  0.88000000000E+00 0. -1.
        -11    1    4    4    0    0 -0.39212792630E-01  0.85688253859E-02  0.89477635196E-03  0.40151333976E-01  0.51100000000E-03 0.  1.
         11    1    4    4    0    0 -0.72942742293E-01  0.43720757144E-01 -0.34995458327E-02  0.85115546174E-01  0.51100000000E-03 0. -1.
</event>
<event>
 8    1  0.1070112E+005  0.1043930E+01  0.7957747E-01            NaN
         13   -1    0    0    0    0  0.00000000000E+00  0.00000000000E+00  0.74505805969E-08  0.10566000000E+00  0.10566000000E+00 0. -1.
     999900   -1    0    0    0    0 -0.00000000000E+00 -0.00000000000E+00 -0.74505805969E-08  0.93827000000E+00  0.93827000000E+00 0. -1.
     999902    2    1    2    0    0  0.11242971743E-01  0.26143298578E-02  0.22096629029E-01  0.10190000953E+01  0.10186950938E+01 0.  0.
     999903    2    3    3    0    0  0.41914117181E-02  0.50186908830E-01  0.12055996111E+00  0.13220366852E+00  0.20169581015E-01 0.  0.
         14    1    1    2    0    0 -0.11242971743E-01 -0.26143298578E-02 -0.22096629029E-01  0.24929904707E-01  0.00000000000E+00 0.  1.
     999901    1    3    3    0    0  0.70515600252E-02 -0.47572578972E-01 -0.98463332079E-01  0.88679642677E+00  0.88000000000E+00 0. -1.
        -11    1    4    4    0    0 -0.80587429000E-02  0.17893054380E-01  0.40356662947E-01  0.44877902105E-01  0.51100000000E-03 0.  1.
         11    1    4    4    0    0  0.12250154618E-01  0.32293854449E-01  0.80203298162E-01  0.87325766417E-01  0.51100000000E-03 0. -1.
</event>
<event>
 8    1  0.1070112E+005  0.1043930E+01  0.7957747E-01            NaN
         13   -1    0    0    0    0  0.00000000000E+00  0.00000000000E+00  0.74505805969E-08  0.10566000000E+00  0.10566000000E+00 0. -1.
     999900   -1    0    0    0    0 -0.00000000000E+00 -0.00000000000E+00 -0.74505805969E-08  0.93827000000E+00  0.93827000000E+00 0.  1.
     999902    2    1    2    0    0 -0.19273876217E-01  0.11721004964E-02 -0.12530651892E-01  0.10209110217E+01  0.10206514787E+01 0.  0.
     999903    2    3    3    0    0 -0.68153840090E-01 -0.55127010714E-01 -0.98219959147E-01  0.13361090442E+00  0.22820608579E-01 0.  0.
         14    1    1    2    0    0  0.19273876217E-01 -0.11721004964E-02  0.12530651892E-01  0.23018978275E-01  0.00000000000E+00 0. -1.
     999901    1    3    3    0    0  0.48879963873E-01  0.56299111210E-01  0.85689307255E-01  0.88730011730E+00  0.88000000000E+00 0. -1.
        -11    1    4    4    0    0 -0.24607155219E-01 -0.87875538158E-02 -0.37325105007E-01  0.45564874353E-01  0.51100000000E-03 0. -1.
         11    1    4    4    0    0 -0.43546684870E-01 -0.46339456898E-01 -0.60894854140E-01  0.88046030067E-01  0.51100000000E-03 0.  1.
</event>
<event>
 8    1  0.1070112E+005  0.1043930E+01  0.7957747E-01            NaN
         13   -1    0    0    0    0  0.00000000000E+00  0.00000000000E+00  0.74505805969E-08  0.10566000000E+00  0.10566000000E+00 0.  1.
     999900   -1    0    0    0    0 -0.00000000000E+00 -0.00000000000E+00 -0.74505805969E-08  0.93827000000E+00  0.93827000000E+00 0. -1.
     999902    2    1    2    0    0 -0.15276724730E-01  0.12766654090E-01  0.13087844356E-01  0.10201044372E+01  0.10198261642E+01 0.  0.
     999903    2    3    3    0    0 -0.41904387618E-01  0.11173410653E+00 -0.52144206724E-01  0.13175832805E+00  0.20018752487E-01 0.  0.
         14    1    1    2    0    0  0.15276724730E-01 -0.12766654090E-01 -0.13087844356E-01  0.23825562848E-01  0.00000000000E+00 0.  1.
     999901    1    3    3    0    0  0.26627662888E-01 -0.98967452441E-01  0.65232051080E-01  0.88834610910E+00  0.88000000000E+00 0.  1.
        -11    1    4    4    0    0 -0.33775265176E-01  0.62736337675E-01 -0.28383116611E-01  0.76697320893E-01  0.51100000000E-03 0. -1.
         11    1    4    4    0    0 -0.81291224413E-02  0.48997768856E-01 -0.23761090114E-01  0.55061007155E-01  0.51100000000E-03 0.  1.
</event>
<event>
 8    1  0.1070112E+005  0.1043930E+01  0.7957747E-01            NaN
         13   -1    0    0    0    0  0.00000000000E+00  0.00000000000E+00  0.74505805969E-08  0.10566000000E+00  0.10566000000E+00 0.  1.
     999900   -1    0    0    0    0 -0.00000000000E+00 -0.00000000000E+00 -0.74505805969E-08  0.93827000000E+00  0.93827000000E+00 0.  1.
     999902    2    1    2    0    0 -0.17802520603E-01 -0.15248081138E-01  0.36648271269E-02  0.10202052307E+01  0.10199293349E+01 0.  0.
     999903    2    3    3    0    0  0.65779760192E-01 -0.23832945878E-02  0.11022447934E+00  0.12975227866E+00  0.18803218577E-01 0.  0.
         14    1    1    2    0    0  0.17802520603E-01  0.15248081138E-01 -0.36648271269E-02  0.23724769252E-01  0.00000000000E+00 0.  1.
     999901    1    3    3    0    0 -0.83582280795E-01 -0.12864786550E-01 -0.10655965221E+00  0.89045295208E+00  0.88000000000E+00 0.  1.
        -11    1    4    4    0    0  0.24379743330E-01  0.78208647925E-02  0.46302876579E-01  0.52912714081E-01  0.51100000000E-03 0.  1.
         11    1    4    4    0    0  0.41400016862E-01 -0.10204159380E-01  0.63921602759E-01  0.76839564582E-01  0.51100000000E-03 0. -1.
</event>
<event>
 7    1  0.1070112E+005  0.1043930E+01  0.7957747E-01            NaN
         13   -1    0    0    0    0  0.00000000000E+00  0.00000000000E+00  0.74505805969E-08  0.10566000000E+00  0.10566000000E+00 0. -1.
     999900   -1    0    0    0    0 -0.00000000000E+00 -0.00000000000E+00 -0.74505805969E-08  0.93827000000E+00  0.93827000000E+00 0.  1.
     999903    2    1    2    0    0  0.28157564484E-01 -0.99648121490E-01 -0.32623110741E-01  0.11041721102E+00  0.20127011218E-01 0.  0.
         14    1    1    2    0    0  0.40132393863E-01 -0.14347059672E-01  0.68212187919E-02  0.43162207824E-01  0.00000000000E+00 0.  1.
     999901    1    1    2    0    0 -0.68289958348E-01  0.11399518116E+00  0.25801891949E-01  0.89035058116E+00  0.88000000000E+00 0. -1.
        -11    1    3    3    0    0  0.21125457313E-01 -0.68529220132E-01 -0.31934059643E-01  0.78502128920E-01  0.51100000000E-03 0.  1.
         11    1    3    3    0    0  0.70321071707E-02 -0.31118901358E-01 -0.68905109783E-03  0.31915082099E-01  0.51100000000E-03 0. -1.
</event>
<event>
 8    1  0.1070112E+005  0.1043930E+01  0.7957747E-01            NaN
         13   -1    0    0    0    0  0.00000000000E+00  0.00000000000E+00  0.74505805969E-08  0.10566000000E+00  0.10566000000E+00 0.  1.
     999900   -1    0    0    0    0 -0.00000000000E+00 -0.00000000000E+00 -0.74505805969E-08  0.93827000000E+00  0.93827000000E+00 0. -1.
     999902    2    1    2    0    0  0.27609331405E-02  0.17676728396E-01  0.12176963773E-01  0.10222881903E+01  0.10220590864E+01 0.  0.
     999903    2    3    3    0    0 -0.34167284191E-02 -0.63963805431E-01 -0.11039479973E+00  0.13002859949E+00  0.24847181693E-01 0.  0.
         14    1    1    2    0    0 -0.27609331405E-02 -0.17676728396E-01 -0.12176963773E-01  0.21641809659E-01  0.00000000000E+00 0.  1.
     999901    1    3    3    0    0  0.61776615596E-02  0.81640533827E-01  0.12257176350E+00  0.89225959086E+00  0.88000000000E+00 0.  1.
        -11    1    4    4    0    0  0.86716481872E-02 -0.32524959461E-01 -0.68022543534E-01  0.75897285986E-01  0.51100000000E-03 0.  1.
         11    1    4    4    0    0 -0.12088376606E-01 -0.31438845970E-01 -0.42372256197E-01  0.54131313500E-01  0.51100000000E-03 0. -1.
</event>
<event>
 8    1  0.1070112E+005  0.1043930E+01  0.7957747E-01            NaN
         13   -1    0    0    0    0  0.00000000000E+00  0.00000000000E+00  0.74505805969E-08  0.10566000000E+00  0.10566000000E+00 0. -1.
     999900   -1    0    0    0    0 -0.00000000000E+00 -0.00000000000E+00 -0.74505805969E-08  0.93827000000E+00  0.93827000000E+00 0.  1.
     999902    2    1    2    0    0 -0.23628349151E-01 -0.10560216349E-01  0.88308489003E-02  0.10165840507E+01  0.10162161833E+01 0.  0.
     999903    2    3    3    0    0 -0.86828464109E-01 -0.40655541734E-01 -0.83790121043E-01  0.12895877657E+00  0.20433463132E-01 0.  0.
         14    1    1    2    0    0  0.23628349151E-01  0.10560216349E-01 -0.88308489003E-02  0.27345949339E-01  0.00000000000E+00 0.  1.
     999901    1    3    3    0    0  0.63200114958E-01  0.30095325385E-01  0.92620969943E-01  0.88762527410E+00  0.88000000000E+00 0. -1.
        -11    1    4    4    0    0 -0.47671244042E-01 -0.23096942583E-01 -0.59420130015E-01  0.79605459845E-01  0.51100000000E-03 0. -1.
         11    1    4    4    0    0 -0.39157220068E-01 -0.17558599151E-01 -0.24369991028E-01  0.49353316720E-01  0.51100000000E-03 0.  1.
</event>
<event>
 8    1  0.1070112E+005  0.1043930E+01  0.7957747E-01            NaN
         13   -1    0    0    0    0  0.00000000000E+00  0.00000000000E+00  0.74505805969E-08  0.10566000000E+00  0.10566000000E+00 0. -1.
     999900   -1    0    0    0    0 -0.00000000000E+00 -0.00000000000E+00 -0.74505805969E-08  0.93827000000E+00  0.93827000000E+00 0. -1.
     999902    2    1    2    0    0 -0.15265971913E-01  0.17600245172E-01  0.30940689741E-02  0.10204269834E+01  0.10201562805E+01 0.  0.
     999903    2    3    3    0    0  0.50327085948E-01 -0.73085869963E-01 -0.90639809690E-01  0.12839981968E+00  0.19914281959E-01 0.  0.
         14    1    1    2    0    0  0.15265971913E-01 -0.17600245172E-01 -0.30940689741E-02  0.23503016644E-01  0.00000000000E+00 0.  1.
     999901    1    3    3    0    0 -0.65593057861E-01  0.90686115135E-01  0.93733878664E-01  0.89202716367E+00  0.88000000000E+00 0.  1.
        -11    1    4    4    0    0  0.11384050310E-01 -0.18679842998E-01 -0.35481306759E-01  0.41685937511E-01  0.51100000000E-03 0.  1.
         11    1    4    4    0    0  0.38943035639E-01 -0.54406026965E-01 -0.55158502931E-01  0.86713882173E-01  0.51100000000E-03 0. -1.
</event>
<event>
 8    1  0.1070112E+005  0.1043930E+01  0.7957747E-01            NaN
         13   -1    0    0    0    0  0.00000000000E+00  0.00000000000E+00  0.74505805969E-08  0.10566000000E+00  0.10566000000E+00 0.  1.
     999900   -1    0    0    0    0 -0.00000000000E+00 -0.00000000000E+00 -0.74505805969E-08  0.93827000000E+00  0.93827000000E+00 0. -1.
     999902    2    1    2    0    0 -0.18705670401E-01 -0.90327422492E-02  0.10210606488E-01  0.10207837471E+01  0.10205212929E+01 0.  0.
     999903    2    3    3    0    0 -0.84932250146E-02 -0.27369938964E-01  0.12809630737E+00  0.13267475308E+00  0.19304862384E-01 0.  0.
         14    1    1    2    0    0  0.18705670401E-01  0.90327422492E-02 -0.10210606488E-01  0.23146252884E-01  0.00000000000E+00 0. -1.
     999901    1    3    3    0    0 -0.10212445387E-01  0.18337196715E-01 -0.11788570088E+00  0.88810899404E+00  0.88000000000E+00 0. -1.
        -11    1    4    4    0    0 -0.54776015968E-02  0.17770367619E-03  0.38434775980E-01  0.38826908498E-01  0.51100000000E-03 0.  1.
         11    1    4    4    0    0 -0.30156234178E-02 -0.27547642640E-01  0.89661531390E-01  0.93847844578E-01  0.51100000000E-03 0. -1.
</event>
<event>
 8    1  0.1070112E+005  0.1043930E+01  0.7957747E-01            NaN
         13   -1    0    0    0    0  0.00000000000E+00  0.00000000000E+00  0.74505805969E-08  0.10566000000E+00  0.10566000000E+00 0. -1.
     999900   -1    0    0    0    0 -0.00000000000E+00 -0.00000000000E+00 -0.74505805969E-08  0.93827000000E+00  0.93827000000E+00 0.  1.
     999902    2    1    2    0    0  0.10470796628E-01 -0.19232014008E-01  0.95609120003E-02  0.10200360890E+01  0.10197561983E+01 0.  0.
     999903    2    3    3    0    0  0.10511842107E+00 -0.77353038528E-01  0.16562691438E-01  0.13302692826E+00  0.19709537734E-01 0.  0.
         14    1    1    2    0    0 -0.10470796628E-01  0.19232014008E-01 -0.95609120003E-02  0.23893911005E-01  0.00000000000E+00 0.  1.
     999901    1    3    3    0    0 -0.94647624445E-01  0.58121024520E-01 -0.70017794379E-02  0.88700916073E+00  0.88000000000E+00 0.  1.
        -11    1    4    4    0    0  0.34398197666E-01 -0.15105100652E-01  0.13859532518E-02  0.37597633646E-01  0.51100000000E-03 0. -1.
         11    1    4    4    0    0  0.70720223407E-01 -0.62247937876E-01  0.15176738186E-01  0.95429294619E-01  0.51100000000E-03 0.  1.
</event>
<event>
 8    1  0.1070112E+005  0.1043930E+01  0.7957747E-01            NaN
         13   -1    0    0    0    0  0.00000000000E+00  0.00000000000E+00  0.74505805969E-08  0.10566000000E+00  0.10566000000E+00 0. -1.
     999900   -1    0    0    0    0 -0.00000000000E+00 -0.00000000000E+00 -0.74505805969E-08  0.93827000000E+00  0.93827000000E+00 0. -1.
     999902    2    1    2    0    0 -0.13159444053E-02  0.18713212405E-01 -0.12622479976E-01  0.10213193160E+01  0.10210689998E+01 0.  0.
     999903    2    3    3    0    0 -0.35683184825E-01 -0.84563877293E-01 -0.91642633206E-01  0.13109942799E+00  0.19087922260E-01 0.  0.
         14    1    1    2    0    0  0.13159444053E-02 -0.18713212405E-01  0.12622479976E-01  0.22610683956E-01  0.00000000000E+00 0. -1.
     999901    1    3    3    0    0  0.34367240420E-01  0.10327708970E+00  0.79020153231E-01  0.89021988805E+00  0.88000000000E+00 0.  1.
        -11    1    4    4    0    0 -0.36619524082E-01 -0.69241670616E-01 -0.78292362136E-01  0.11074905681E+00  0.51100000000E-03 0.  1.
         11    1    4    4    0    0  0.93633925658E-03 -0.15322206677E-01 -0.13350271070E-01  0.20350371183E-01  0.51100000000E-03 0. -1.
</event>
<event>
 8    1  0.1070112E+005  0.1043930E+01  0.7957747E-01            NaN
         13   -1    0    0    0    0  0.00000000000E+00  0.00000000000E+00  0.74505805969E-08  0.10566000000E+00  0.10566000000E+00 0.  1.
     999900   -1    0    0    0    0 -0.00000000000E+00 -0.00000000000E+00 -0.74505805969E-08  0.93827000000E+00  0.93827000000E+00 0. -1.
     999902    2    1    2    0    0 -0.52211496429E-02 -0.23035132798E-02  0.22314369023E-01  0.10208974656E+01  0.10206376132E+01 0.  0.
     999903    2    3    3    0    0  0.41971936303E-01  0.39718863737E-01  0.11563111414E+00  0.13371029116E+00  0.34185608534E-01 0.  0.
         14    1    1    2    0    0  0.52211496429E-02  0.23035132798E-02 -0.22314369023E-01  0.23032534423E-01  0.00000000000E+00 0. -1.
     999901    1    3    3    0    0 -0.47193085946E-01 -0.42022377016E-01 -0.93316745119E-01  0.88718717442E+00  0.88000000000E+00 0. -1.
        -11    1    4    4    0    0  0.24975565825E-01  0.30456351811E-02  0.31065244687E-01  0.39979561408E-01  0.51100000000E-03 0. -1.
         11    1    4    4    0    0  0.16996370478E-01  0.36673228556E-01  0.84565869455E-01  0.93730729752E-01  0.51100000000E-03 0.  1.
</event>
<event>
 8    1  0.1070112E+005  0.1043930E+01  0.7957747E-01            NaN
         13   -1    0    0    0    0  0.00000000000E+00  0.00000000000E+00  0.74505805969E-08  0.10566000000E+00  0.10566000000E+00 0. -1.
     999900   -1    0    0    0    0 -0.00000000000E+00 -0.00000000000E+00 -0.74505805969E-08  0.93827000000E+00  0.93827000000E+00 0.  1.
     999902    2    1    2    0    0  0.17240813499E-01 -0.60018575582E-02 -0.23337011071E-01  0.10143008922E+01  0.10138680466E+01 0.  0.
     999903    2    3    3    0    0  0.39040128131E-01  0.71623974231E-01  0.90218769068E-01  0.12334865155E+00  0.20526525737E-01 0.  0.
         14    1    1    2    0    0 -0.17240813499E-01  0.60018575582E-02  0.23337011071E-01  0.29629107817E-01  0.00000000000E+00 0. -1.
     999901    1    3    3    0    0 -0.21799314632E-01 -0.77625831790E-01 -0.11355578014E+00  0.89095224063E+00  0.88000000000E+00 0.  1.
        -11    1    4    4    0    0  0.21086102053E-01  0.31655584451E-01  0.27932103127E-01  0.47192830312E-01  0.51100000000E-03 0. -1.
         11    1    4    4    0    0  0.17954026078E-01  0.39968389780E-01  0.62286665941E-01  0.76155821242E-01  0.51100000000E-03 0.  1.
</event>
<event>
 8    1  0.1070112E+005  0.1043930E+01  0.7957747E-01            NaN
         13   -1    0    0    0    0  0.00000000000E+00  0.00000000000E+00  0.74505805969E-08  0.10566000000E+00  0.10566000000E+00 0.  1.
     999900   -1    0    0    0    0 -0.00000000000E+00 -0.00000000000E+00 -0.74505805969E-08  0.93827000000E+00  0.93827000000E+00 0. -1.
     999902    2    1    2    0    0 -0.12643502532E-01  0.13039649382E-01  0.14933781766E-01  0.10204159946E+01  0.10201450356E+01 0.  0.
     999903    2    3    3    0    0 -0.68482246927E-01  0.71360226299E-01 -0.83896994394E-01  0.13121029433E+00  0.19883048773E-01 0.  0.
         14    1    1    2    0    0  0.12643502532E-01 -0.13039649382E-01 -0.14933781766E-01  0.23514005404E-01  0.00000000000E+00 0. -1.
     999901    1    3    3    0    0  0.55838744395E-01 -0.58320576917E-01  0.98830776161E-01  0.88920570027E+00  0.88000000000E+00 0.  1.
        -11    1    4    4    0    0 -0.32847512416E-01  0.42626612173E-01 -0.55662632524E-01  0.77424653165E-01  0.51100000000E-03 0.  1.
         11    1    4    4    0    0 -0.35634734511E-01  0.28733614125E-01 -0.28234361870E-01  0.53785641166E-01  0.51100000000E-03 0. -1.
</event>
<event>
 8    1  0.1070112E+005  0.1043930E+01  0.7957747E-01            NaN
         13   -1    0    0    0    0  0.00000000000E+00  0.00000000000E+00  0.74505805969E-08  0.10566000000E+00  0.10566000000E+00 0. -1.
     999900   -1    0    0    0    0 -0.00000000000E+00 -0.00000000000E+00 -0.74505805969E-08  0.93827000000E+00  0.93827000000E+00 0.  1.
     999902    2    1    2    0    0 -0.14973828917E-02 -0.21559761273E-01  0.10131595925E-01  0.10200613030E+01  0.10197820096E+01 0.  0.
     999903    2    3    3    0    0 -0.21176793185E-01 -0.12978893813E+00 -0.21828044145E-02  0.13312698840E+00  0.20601101311E-01 0.  0.
         14    1    1    2    0    0  0.14973828917E-02  0.21559761273E-01 -0.10131595925E-01  0.23868697024E-01  0.00000000000E+00 0. -1.
     999901    1    3    3    0    0  0.19679410293E-01  0.10822917686E+00  0.12314400339E-01  0.88693431457E+00  0.88000000000E+00 0.  1.
        -11    1    4    4    0    0 -0.16647796335E-01 -0.42028731066E-01  0.40305662969E-03  0.45210473715E-01  0.51100000000E-03 0.  1.
         11    1    4    4    0    0 -0.45289968497E-02 -0.87760207064E-01 -0.25858610442E-02  0.87916514687E-01  0.51100000000E-03 0. -1.
</event>
<event>
 8    1  0.1070112E+005  0.1043930E+01  0.7957747E-01            NaN
         13   -1    0    0    0    0  0.00000000000E+00  0.00000000000E+00  0.74505805969E-08  0.10566000000E+00  0.10566000000E+00 0. -1.
     999900   -1    0    0    0    0 -0.00000000000E+00 -0.00000000000E+00 -0.74505805969E-08  0.93827000000E+00  0.93827000000E+00 0. -1.
     999902    2    1    2    0    0 -0.16527972720E-01 -0.13462326062E-01  0.10675430949E-01  0.10200894268E+01  0.10198107990E+01 0.  0.
     999903    2    3    3    0    0 -0.11114162553E+00  0.65567828243E-01 -0.12720732978E-01  0.13118848232E+00  0.19924854352E-01 0.  0.
         14    1    1    2    0    0  0.16527972720E-01  0.13462326062E-01 -0.10675430949E-01  0.23840573214E-01  0.00000000000E+00 0.  1.
     999901    1    3    3    0    0  0.94613652806E-01 -0.79030154305E-01  0.23396163927E-01  0.88890094447E+00  0.88000000000E+00 0. -1.
        -11    1    4    4    0    0 -0.85349580495E-01  0.40607241001E-01 -0.63507758940E-02  0.94731686292E-01  0.51100000000E-03 0. -1.
         11    1    4    4    0    0 -0.25792045030E-01  0.24960587242E-01 -0.63699570840E-02  0.36456796027E-01  0.51100000000E-03 0.  1.
</event>
<event>
 8    1  0.1070112E+005  0.1043930E+01  0.7957747E-01            NaN
         13   -1    0    0    0    0  0.00000000000E+00  0.00000000000E+00  0.74505805969E-08  0.10566000000E+00  0.10566000000E+00 0.  1.
     999900   -1    0    0    0    0 -0.00000000000E+00 -0.00000000000E+00 -0.74505805969E-08  0.93827000000E+00  0.93827000000E+00 0.  1.
     999902    2    1    2    0    0 -0.46798653042E-02 -0.12991303779E-01 -0.19643576377E-01  0.10199186442E+01  0.10196359623E+01 0.  0.
     999903    2    3    3    0    0 -0.18603631076E-01 -0.82790309299E-01 -0.10114731695E+00  0.13329097031E+00  0.18313182071E-01 0.  0.
         14    1    1    2    0    0  0.46798653042E-02  0.12991303779E-01  0.19643576377E-01  0.24011355772E-01  0.00000000000E+00 0.  1.
     999901    1    3    3    0    0  0.13923765772E-01  0.69799005520E-01  0.81503740574E-01  0.88662767392E+00  0.88000000000E+00 0. -1.
        -11    1    4    4    0    0 -0.21745615042E-01 -0.63607067578E-01 -0.75211541509E-01  0.10087501136E+00  0.51100000000E-03 0. -1.
         11    1    4    4    0    0  0.31419839659E-02 -0.19183241721E-01 -0.25935775441E-01  0.32415958954E-01  0.51100000000E-03 0.  1.
</event>
<event>
 8    1  0.1070112E+005  0.1043930E+01  0.7957747E-01            NaN
         13   -1    0    0    0    0  0.00000000000E+00  0.00000000000E+00  0.74505805969E-08  0.10566000000E+00  0.10566000000E+00 0. -1.
     999900   -1    0    0    0    0 -0.00000000000E+00 -0.00000000000E+00 -0.74505805969E-08  0.93827000000E+00  0.93827000000E+00 0.  1.
     999902    2    1    2    0    0 -0.30277567374E-02  0.20294594608E-01 -0.88398672688E-02  0.10215876381E+01  0.10213432925E+01 0.  0.
     999903    2    3    3    0    0  0.93512003570E-01 -0.58003355508E-01 -0.67931870137E-01  0.13088995702E+00  0.20212812918E-01 0.  0.
         14    1    1    2    0    0  0.30277567374E-02 -0.20294594608E-01  0.88398672688E-02  0.22342361883E-01  0.00000000000E+00 0.  1.
     999901    1    3    3    0    0 -0.96539760307E-01  0.78297950116E-01  0.59092002868E-01  0.89069768110E+00  0.88000000000E+00 0. -1.
        -11    1    4    4    0    0  0.42218132912E-01 -0.31563027686E-01 -0.21953114607E-01  0.57103378405E-01  0.51100000000E-03 0. -1.
         11    1    4    4    0    0  0.51293870658E-01 -0.26440327822E-01 -0.45978755530E-01  0.73786578614E-01  0.51100000000E-03 0.  1.
</event>
<event>
 8    1  0.1070112E+005  0.1043930E+01  0.7957747E-01            NaN
         13   -1    0    0    0    0  0.00000000000E+00  0.00000000000E+00  0.74505805969E-08  0.10566000000E+00  0.10566000000E+00 0. -1.
     999900   -1    0    0    0    0 -0.00000000000E+00 -0.00000000000E+00 -0.74505805969E-08  0.93827000000E+00  0.93827000000E+00 0.  1.
     999902    2    1    2    0    0 -0.16933842755E-01 -0.24977112151E-02  0.16875451950E-01  0.10198930603E+01  0.10196097685E+01 0.  0.
     999903    2    3    3    0    0  0.71632830463E-01 -0.79191536587E-01  0.72164148512E-01  0.13040846885E+00  0.19903330122E-01 0.  0.
         14    1    1    2    0    0  0.16933842755E-01  0.24977112151E-02 -0.16875451950E-01  0.24036939703E-01  0.00000000000E+00 0. -1.
     999901    1    3    3    0    0 -0.88566673218E-01  0.76693825372E-01 -0.55288696562E-01  0.88948459145E+00  0.88000000000E+00 0.  1.
        -11    1    4    4    0    0  0.13984856248E-02 -0.62066175135E-02  0.90108305945E-02  0.11042375288E-01  0.51100000000E-03 0.  1.
         11    1    4    4    0    0  0.70234344838E-01 -0.72984919074E-01  0.63153317918E-01  0.11936609356E+00  0.51100000000E-03 0. -1.
</event>
<event>
 8    1  0.1070112E+005  0.1043930E+01  0.7957747E-01            NaN
         13   -1    0    0    0    0  0.00000000000E+00  0.00000000000E+00  0.74505805969E-08  0.10566000000E+00  0.10566000000E+00 0.  1.
     999900   -1    0    0    0    0 -0.00000000000E+00 -0.00000000000E+00 -0.74505805969E-08  0.93827000000E+00  0.93827000000E+00 0.  1.
     999902    2    1    2    0    0  0.63644189975E-02 -0.13606329708E-01  0.17887882814E-01  0.10205716099E+01  0.10203042666E+01 0.  0.
     999903    2    3    3    0    0  0.70432551320E-01  0.60941263462E-01  0.91520581477E-01  0.13204257629E+00  0.19612323716E-01 0.  0.
         14    1    1    2    0    0 -0.63644189975E-02  0.13606329708E-01 -0.17887882814E-01  0.23358390117E-01  0.00000000000E+00 0. -1.
     999901    1    3    3    0    0 -0.64068132322E-01 -0.74547593169E-01 -0.73632698664E-01  0.88852903359E+00  0.88000000000E+00 0.  1.
        -11    1    4    4    0    0  0.28906440367E-01  0.27683454963E-01  0.52713367034E-01  0.66188489622E-01  0.51100000000E-03 0.  1.
         11    1    4    4    0    0  0.41526110953E-01  0.33257808498E-01  0.38807214444E-01  0.65854086668E-01  0.51100000000E-03 0. -1.
</event>
<event>
 8    1  0.1070112E+005  0.1043930E+01  0.7957747E-01            NaN
         13   -1    0    0    0    0  0.00000000000E+00  0.00000000000E+00  0.74505805969E-08  0.10566000000E+00  0.10566000000E+00 0. -1.
     999900   -1    0    0    0    0 -0.00000000000E+00 -0.00000000000E+00 -0.74505805969E-08  0.93827000000E+00  0.93827000000E+00 0.  1.
     999902    2    1    2    0    0 -0.17713728427E-03 -0.10444955240E-01 -0.21629616627E-01  0.10199098255E+01  0.10196269334E+01 0.  0.
     999903    2    3    3    0    0  0.40464645240E-01 -0.12461565306E+00  0.31012677595E-02  0.13126010859E+00  0.72903869878E-02 0.  0.
         14    1    1    2    0    0  0.17713728427E-03  0.10444955240E-01  0.21629616627E-01  0.24020174501E-01  0.00000000000E+00 0. -1.
     999901    1    3    3    0    0 -0.40641782524E-01  0.11417069782E+00 -0.24730884387E-01  0.88864971691E+00  0.88000000000E+00 0.  1.
        -11    1    4    4    0    0  0.39253183985E-01 -0.11555454828E+00  0.22081942666E-02  0.12206065428E+00  0.51100000000E-03 0. -1.
         11    1    4    4    0    0  0.12114612545E-02 -0.90611047839E-02  0.89307349294E-03  0.91994543067E-02  0.51100000000E-03 0.  1.
</event>
<event>
 8    1  0.1070112E+005  0.1043930E+01  0.7957747E-01            NaN
         13   -1    0    0    0    0  0.00000000000E+00  0.00000000000E+00  0.74505805969E-08  0.10566000000E+00  0.10566000000E+00 0.  1.
     999900   -1    0    0    0    0 -0.00000000000E+00 -0.00000000000E+00 -0.74505805969E-08  0.93827000000E+00  0.93827000000E+00 0. -1.
     999902    2    1    2    0    0 -0.22844494479E-02 -0.21594418451E-01 -0.10734460418E-01  0.10197067414E+01  0.10194189875E+01 0.  0.
     999903    2    3    3    0    0  0.10064278061E+00 -0.72787926683E-01  0.36610646770E-01  0.13096811325E+00  0.19627930887E-01 0.  0.
         14    1    1    2    0    0  0.22844494479E-02  0.21594418451E-01  0.10734460418E-01  0.24223258616E-01  0.00000000000E+00 0.  1.
     999901    1    3    3    0    0 -0.10292723005E+00  0.51193508232E-01 -0.47345107188E-01  0.88873862814E+00  0.88000000000E+00 0. -1.
        -11    1    4    4    0    0  0.61728885443E-01 -0.54313781772E-01  0.18758812229E-01  0.84336210169E-01  0.51100000000E-03 0. -1.
         11    1    4    4    0    0  0.38913895164E-01 -0.18474144912E-01  0.17851834541E-01  0.46631903076E-01  0.51100000000E-03 0.  1.
</event>
<event>
 8    1  0.1070112E+005  0.1043930E+01  0.7957747E-01            NaN
         13   -1    0    0    0    0  0.00000000000E+00  0.00000000000E+00  0.74505805969E-08  0.10566000000E+00  0.10566000000E+00 0. -1.
     999900   -1    0    0    0    0 -0.00000000000E+00 -0.00000000000E+00 -0.74505805969E-08  0.93827000000E+00  0.93827000000E+00 0. -1.
     999902    2    1    2    0    0  0.90612007935E-02 -0.85637554410E-03  0.20749577605E-01  0.10212720277E+01  0.10210206515E+01 0.  0.
     999903    2    3    3    0    0  0.84869874860E-01 -0.81122735684E-01  0.60162971392E-01  0.13349781131E+00  0.20452104907E-01 0.  0.
         14    1    1    2    0    0 -0.90612007935E-02  0.85637554410E-03 -0.20749577605E-01  0.22657972321E-01  0.00000000000E+00 0.  1.
     999901    1    3    3    0    0 -0.75808674066E-01  0.80266360140E-01 -0.39413393787E-01  0.88777421637E+00  0.88000000000E+00 0. -1.
        -11    1    4    4    0    0  0.28598822288E-01 -0.40632448887E-01  0.28493704511E-01  0.57280370604E-01  0.51100000000E-03 0. -1.
         11    1    4    4    0    0  0.56271052572E-01 -0.40490286798E-01  0.31669266881E-01  0.76217440710E-01  0.51100000000E-03 0.  1.
</event>
<event>
 8    1  0.1070112E+005  0.1043930E+01  0.7957747E-01            NaN
         13   -1    0    0    0    0  0.00000000000E+00  0.00000000000E+00  0.74505805969E-08  0.10566000000E+00  0.10566000000E+00 0.  1.
     999900   -1    0    0    0    0 -0.00000000000E+00 -0.00000000000E+00 -0.74505805969E-08  0.93827000000E+00  0.93827000000E+00 0.  1.
     999902    2    1    2    0    0  0.65687735328E-02 -0.18320249872E-01  0.16119437031E-01  0.10186591355E+01  0.10183456279E+01 0.  0.
     999903    2    3    3    0    0  0.98379337747E-01 -0.39369733038E-01 -0.71160056757E-01  0.12933918721E+00  0.20890229640E-01 0.  0.
         14    1    1    2    0    0 -0.65687735328E-02  0.18320249872E-01 -0.16119437031E-01  0.25270864475E-01  0.00000000000E+00 0. -1.
     999901    1    3    3    0    0 -0.91810564214E-01  0.21049483166E-01  0.87279493788E-01  0.88931994832E+00  0.88000000000E+00 0. -1.
        -11    1    4    4    0    0  0.42959733310E-01 -0.28414928103E-01 -0.34129559347E-01  0.61790248158E-01  0.51100000000E-03 0. -1.
         11    1    4    4    0    0  0.55419604437E-01 -0.10954804935E-01 -0.37030497409E-01  0.67548939048E-01  0.51100000000E-03 0.  1.
</event>
<event>
 8    1  0.1070112E+005  0.1043930E+01  0.7957747E-01            NaN
         13   -1    0    0    0    0  0.00000000000E+00  0.00000000000E+00  0.74505805969E-08  0.10566000000E+00  0.10566000000E+00 0.  1.
     999900   -1    0    0    0    0 -0.00000000000E+00 -0.00000000000E+00 -0.74505805969E-08  0.93827000000E+00  0.93827000000E+00 0. -1.
     999902    2    1    2    0    0  0.19688546646E-01 -0.79354505954E-02 -0.20403487758E-02  0.10226045863E+01  0.10223822019E+01 0.  0.
     999903    2    3    3    0    0 -0.54519538777E-02  0.11499997839E+00 -0.60565486580E-01  0.13177892649E+00  0.21042539595E-01 0.  0.
         14    1    1    2    0    0 -0.19688546646E-01  0.79354505954E-02  0.20403487758E-02  0.21325413673E-01  0.00000000000E+00 0.  1.
     999901    1    3    3    0    0  0.25140500524E-01 -0.12293542898E+00  0.58525137805E-01  0.89082565984E+00  0.88000000000E+00 0.  1.
        -11    1    4    4    0    0  0.24290878091E-02  0.76911036592E-01 -0.31180040742E-01  0.83028092106E-01  0.51100000000E-03 0. -1.
         11    1    4    4    0    0 -0.78810416867E-02  0.38088941796E-01 -0.29385445839E-01  0.48750834386E-01  0.51100000000E-03 0.  1.
</event>
<event>
 8    1  0.1070112E+005  0.1043930E+01  0.7957747E-01            NaN
         13   -1    0    0    0    0  0.00000000000E+00  0.00000000000E+00  0.74505805969E-08  0.10566000000E+00  0.10566000000E+00 0.  1.
     999900   -1    0    0    0    0 -0.00000000000E+00 -0.00000000000E+00 -0.74505805969E-08  0.93827000000E+00  0.93827000000E+00 0.  1.
     999902    2    1    2    0    0 -0.22225834665E-01 -0.22977687389E-01  0.85510514518E-02  0.10108379719E+01  0.10102961561E+01 0.  0.
     999903    2    3    3    0    0 -0.11051024920E+00 -0.79379499145E-02  0.54135813011E-01  0.12511888433E+00  0.21178355470E-01 0.  0.
         14    1    1    2    0    0  0.22225834665E-01  0.22977687389E-01 -0.85510514518E-02  0.33092028122E-01  0.00000000000E+00 0. -1.
     999901    1    3    3    0    0  0.88284414531E-01 -0.15039737474E-01 -0.45584761559E-01  0.88571908754E+00  0.88000000000E+00 0. -1.
        -11    1    4    4    0    0 -0.88672931477E-01 -0.43606489732E-02  0.51982144027E-01  0.10288006831E+00  0.51100000000E-03 0.  1.
         11    1    4    4    0    0 -0.21837317720E-01 -0.35773009413E-02  0.21536689835E-02  0.22238816028E-01  0.51100000000E-03 0. -1.
</event>
<event>
 8    1  0.1070112E+005  0.1043930E+01  0.7957747E-01            NaN
         13   -1    0    0    0    0  0.00000000000E+00  0.00000000000E+00  0.74505805969E-08  0.10566000000E+00  0.10566000000E+00 0. -1.
     999900   -1    0    0    0    0 -0.00000000000E+00 -0.00000000000E+00 -0.74505805969E-08  0.93827000000E+00  0.93827000000E+00 0. -1.
     999902    2    1    2    0    0  0.17384852706E-01  0.50431919605E-02  0.10611950019E-02  0.10257973492E+01  0.10256370745E+01 0.  0.
     999903    2    3    3    0    0  0.65192813610E-01  0.15617674315E-01  0.11759829329E+00  0.13676511356E+00  0.19527493554E-01 0.  0.
         14    1    1    2    0    0 -0.17384852706E-01 -0.50431919605E-02 -0.10611950019E-02  0.18132650760E-01  0.00000000000E+00 0.  1.
     999901    1    3    3    0    0 -0.47807960904E-01 -0.10574482354E-01 -0.11653709829E+00  0.88903223568E+00  0.88000000000E+00 0. -1.
        -11    1    4    4    0    0  0.18237782084E-01  0.10552641224E-01  0.24110793926E-01  0.32024466223E-01  0.51100000000E-03 0.  1.
         11    1    4    4    0    0  0.46955031526E-01  0.50650330910E-02  0.93487499365E-01  0.10474064734E+00  0.51100000000E-03 0. -1.
</event>
<event>
 8    1  0.1070112E+005  0.1043930E+01  0.7957747E-01            NaN
         13   -1    0    0    0    0  0.00000000000E+00  0.00000000000E+00  0.74505805969E-08  0.10566000000E+00  0.10566000000E+00 0. -1.
     999900   -1    0    0    0    0 -0.00000000000E+00 -0.00000000000E+00 -0.74505805969E-08  0.93827000000E+00  0.93827000000E+00 0. -1.
     999902    2    1    2    0    0 -0.11485393784E-01 -0.20668112646E-02 -0.20490242407E-01  0.10203495841E+01  0.10200770744E+01 0.  0.
     999903    2    3    3    0    0 -0.55338937428E-01  0.11520607730E+00 -0.23557825872E-01  0.13148206095E+00  0.19942992480E-01 0.  0.
         14    1    1    2    0    0  0.11485393784E-01  0.20668112646E-02  0.20490242407E-01  0.23580415880E-01  0.00000000000E+00 0. -1.
     999901    1    3    3    0    0  0.43853543644E-01 -0.11727288856E+00  0.30675834645E-02  0.88886752317E+00  0.88000000000E+00 0. -1.
        -11    1    4    4    0    0 -0.43996150651E-01  0.94858481156E-01 -0.26827452103E-01  0.10795261010E+00  0.51100000000E-03 0. -1.
         11    1    4    4    0    0 -0.11342786778E-01  0.20347596142E-01  0.32696262317E-02  0.23529450851E-01  0.51100000000E-03 0.  1.
</event>
<event>
 8    1  0.1070112E+005  0.1043930E+01  0.7957747E-01            NaN
         13   -1    0    0    0    0  0.00000000000E+00  0.00000000000E+00  0.74505805969E-08  0.10566000000E+00  0.10566000000E+00 0.  1.
     999900   -1    0    0    0    0 -0.00000000000E+00 -0.00000000000E+00 -0.74505805969E-08  0.93827000000E+00  0.93827000000E+00 0. -1.
     999902    2    1    2    0    0 -0.21704434067E-01  0.32456228432E-02  0.85537190924E-02  0.10203761758E+01  0.10201042875E+01 0.  0.
     999903    2    3    3    0    0 -0.94467791374E-01 -0.68038018049E-01 -0.58762752570E-01  0.13194645374E+00  0.20086564091E-01 0.  0.
         14    1    1    2    0    0  0.21704434067E-01 -0.32456228432E-02 -0.85537190924E-02  0.23553824235E-01  0.00000000000E+00 0. -1.
     999901    1    3    3    0    0  0.72763357307E-01  0.71283640892E-01  0.67316471663E-01  0.88842972203E+00  0.88000000000E+00 0.  1.
        -11    1    4    4    0    0 -0.28618611293E-01 -0.24638437276E-01 -0.94465605431E-02  0.38930401113E-01  0.51100000000E-03 0.  1.
         11    1    4    4    0    0 -0.65849180081E-01 -0.43399580773E-01 -0.49316192027E-01  0.93016052624E-01  0.51100000000E-03 0. -1.
</event>
<event>
 8    1  0.1070112E+005  0.1043930E+01  0.7957747E-01            NaN
         13   -1    0    0    0    0  0.00000000000E+00  0.00000000000E+00  0.74505805969E-08  0.10566000000E+00  0.10566000000E+00 0.  1.
     999900   -1    0    0    0    0 -0.00000000000E+00 -0.00000000000E+00 -0.74505805969E-08  0.93827000000E+00  0.93827000000E+00 0.  1.
     999902    2    1    2    0    0  0.13236911249E-01  0.65055478842E-03 -0.19947178145E-01  0.10199815354E+01  0.10197003499E+01 0.  0.
     999903    2    3    3    0    0  0.41908029996E-01 -0.11678866017E+00 -0.38625808899E-01  0.13152056636E+00  0.20244311281E-01 0.  0.
         14    1    1    2    0    0 -0.13236911249E-01 -0.65055478842E-03  0.19947178145E-01  0.23948464604E-01  0.00000000000E+00 0.  1.
     999901    1    3    3    0    0 -0.28671118747E-01  0.11743921496E+00  0.18678630754E-01  0.88846096904E+00  0.88000000000E+00 0. -1.
        -11    1    4    4    0    0  0.32689218418E-01 -0.67376519287E-01 -0.29179050250E-01  0.80373244594E-01  0.51100000000E-03 0.  1.
         11    1    4    4    0    0  0.92188115780E-02 -0.49412140882E-01 -0.94467586481E-02  0.51147321762E-01  0.51100000000E-03 0. -1.
</event>
<event>
 8    1  0.1070112E+005  0.1043930E+01  0.7957747E-01            NaN
         13   -1    0    0    0    0  0.00000000000E+00  0.00000000000E+00  0.74505805969E-08  0.10566000000E+00  0.10566000000E+00 0. -1.
     999900   -1    0    0    0    0 -0.00000000000E+00 -0.00000000000E+00 -0.74505805969E-08  0.93827000000E+00  0.93827000000E+00 0.  1.
     999902    2    1    2    0    0  0.15830093114E-02 -0.19022866180E-01  0.14130743514E-01  0.10201801943E+01  0.10199037090E+01 0.  0.
     999903    2    3    3    0    0  0.11852795506E+00 -0.16318566762E-01  0.51315189182E-01  0.13166113627E+00  0.19652847440E-01 0.  0.
         14    1    1    2    0    0 -0.15830093114E-02  0.19022866180E-01 -0.14130743514E-01  0.23749805650E-01  0.00000000000E+00 0.  1.
     999901    1    3    3    0    0 -0.11694494574E+00 -0.27042994179E-02 -0.37184445668E-01  0.88851905808E+00  0.88000000000E+00 0.  1.
        -11    1    4    4    0    0  0.65348163558E-01 -0.44243561205E-02  0.18559470955E-01  0.68078428967E-01  0.51100000000E-03 0.  1.
         11    1    4    4    0    0  0.53179791498E-01 -0.11894210641E-01  0.32755718227E-01  0.63582707304E-01  0.51100000000E-03 0. -1.
</event>
<event>
 8    1  0.1070112E+005  0.1043930E+01  0.7957747E-01            NaN
         13   -1    0    0    0    0  0.00000000000E+00  0.00000000000E+00  0.74505805969E-08  0.10566000000E+00  0.10566000000E+00 0. -1.
     999900   -1    0    0    0    0 -0.00000000000E+00 -0.00000000000E+00 -0.74505805969E-08  0.93827000000E+00  0.93827000000E+00 0.  1.
     999902    2    1    2    0    0 -0.14754989681E-01  0.10006231579E-01  0.14830275796E-01  0.10207400998E+01  0.10204766435E+01 0.  0.
     999903    2    3    3    0    0  0.10322027503E+00 -0.43554574266E-01 -0.59001408195E-01  0.12819427993E+00  0.20029506298E-01 0.  0.
         14    1    1    2    0    0  0.14754989681E-01 -0.10006231579E-01 -0.14830275796E-01  0.23189900196E-01  0.00000000000E+00 0.  1.
     999901    1    3    3    0    0 -0.11797526471E+00  0.53560805845E-01  0.73831683992E-01  0.89254581987E+00  0.88000000000E+00 0.  1.
        -11    1    4    4    0    0  0.84171699002E-01 -0.41595483151E-01 -0.43151751511E-01  0.10333147590E+00  0.51100000000E-03 0.  1.
         11    1    4    4    0    0  0.19048576026E-01 -0.19590911143E-02 -0.15849656685E-01  0.24862804038E-01  0.51100000000E-03 0. -1.
</event>
<event>
 8    1  0.1070112E+005  0.1043930E+01  0.7957747E-01            NaN
         13   -1    0    0    0    0  0.00000000000E+00  0.00000000000E+00  0.74505805969E-08  0.10566000000E+00  0.10566000000E+00 0. -1.
     999900   -1    0    0    0    0 -0.00000000000E+00 -0.00000000000E+00 -0.74505805969E-08  0.93827000000E+00  0.93827000000E+00 0.  1.
     999902    2    1    2    0    0 -0.84270238456E-02  0.62176667003E-02 -0.21582257922E-01  0.10199410866E+01  0.10196589391E+01 0.  0.
     999903    2    3    3    0    0  0.54441717529E-02 -0.10234359883E+00 -0.79473809624E-01  0.13127388779E+00  0.20319841842E-01 0.  0.
         14    1    1    2    0    0  0.84270238456E-02 -0.62176667003E-02  0.21582257922E-01  0.23988913421E-01  0.00000000000E+00 0. -1.
     999901    1    3    3    0    0 -0.13871195598E-01  0.10856126553E+00  0.57891551702E-01  0.88866719879E+00  0.88000000000E+00 0. -1.
        -11    1    4    4    0    0  0.34865027603E-02 -0.58024062736E-01 -0.57500040161E-01  0.81764682458E-01  0.51100000000E-03 0.  1.
         11    1    4    4    0    0  0.19576689925E-02 -0.44319536094E-01 -0.21973769463E-01  0.49509205335E-01  0.51100000000E-03 0. -1.
</event>
<event>
 8    1  0.1070112E+005  0.1043930E+01  0.7957747E-01            NaN
         13   -1    0    0    0    0  0.00000000000E+00  0.00000000000E+00  0.74505805969E-08  0.10566000000E+00  0.10566000000E+00 0. -1.
     999900   -1    0    0    0    0 -0.00000000000E+00 -0.00000000000E+00 -0.74505805969E-08  0.93827000000E+00  0.93827000000E+00 0. -1.
     999902    2    1    2    0    0  0.23354111887E-01 -0.67574236982E-02 -0.82365962301E-02  0.10182605856E+01  0.10179369830E+01 0.  0.
     999903    2    3    3    0    0 -0.40375649214E-01  0.12467788778E-01  0.11784332013E+00  0.12678583188E+00  0.20048946583E-01 0.  0.
         14    1    1    2    0    0 -0.23354111887E-01  0.67574236982E-02  0.82365962301E-02  0.25669414378E-01  0.00000000000E+00 0.  1.
     999901    1    3    3    0    0  0.63729761101E-01 -0.19225212476E-01 -0.12607991636E+00  0.89147475374E+00  0.88000000000E+00 0. -1.
        -11    1    4    4    0    0 -0.10445213163E-01  0.40817586688E-02  0.11830811658E-01  0.16309275194E-01  0.51100000000E-03 0. -1.
         11    1    4    4    0    0 -0.29930436052E-01  0.83860301095E-02  0.10601250848E+00  0.11047655669E+00  0.51100000000E-03 0.  1.
</event>
<event>
 8    1  0.1070112E+005  0.1043930E+01  0.7957747E-01            NaN
         13   -1    0    0    0    0  0.00000000000E+00  0.00000000000E+00  0.74505805969E-08  0.10566000000E+00  0.10566000000E+00 0. -1.
     999900   -1    0    0    0    0 -0.00000000000E+00 -0.00000000000E+00 -0.74505805969E-08  0.93827000000E+00  0.93827000000E+00 0. -1.
     999902    2    1    2    0    0  0.12240849675E-01 -0.12458943698E-01 -0.16088817177E-01  0.10201831325E+01  0.10199067164E+01 0.  0.
     999903    2    3    3    0    0  0.11379841122E+00  0.60978033432E-01 -0.13305969892E-01  0.13129918496E+00  0.19850143054E-01 0.  0.
         14    1    1    2    0    0 -0.12240849675E-01  0.12458943698E-01  0.16088817177E-01  0.23746867520E-01  0.00000000000E+00 0. -1.
     999901    1    3    3    0    0 -0.10155756155E+00 -0.73436977130E-01 -0.27828472854E-02  0.88888394752E+00  0.88000000000E+00 0.  1.
        -11    1    4    4    0    0  0.10101965234E+00  0.46265142483E-01 -0.10546935559E-01  0.11161062915E+00  0.51100000000E-03 0. -1.
         11    1    4    4    0    0  0.12778758878E-01  0.14712890949E-01 -0.27590343327E-02  0.19688555813E-01  0.51100000000E-03 0.  1.
</event>
<event>
 8    1  0.1070112E+005  0.1043930E+01  0.7957747E-01            NaN
         13   -1    0    0    0    0  0.00000000000E+00  0.00000000000E+00  0.74505805969E-08  0.10566000000E+00  0.10566000000E+00 0.  1.
     999900   -1    0    0    0    0 -0.00000000000E+00 -0.00000000000E+00 -0.74505805969E-08  0.93827000000E+00  0.93827000000E+00 0. -1.
     999902    2    1    2    0    0 -0.10154932834E-01  0.27829720430E-02  0.18733703365E-01  0.10224400201E+01  0.10222141534E+01 0.  0.
     999903    2    3    3    0    0 -0.62752230688E-01 -0.20567252178E-01  0.11619312497E+00  0.13519143736E+00  0.20372239164E-01 0.  0.
         14    1    1    2    0    0  0.10154932834E-01 -0.27829720430E-02 -0.18733703365E-01  0.21489979898E-01  0.00000000000E+00 0. -1.
     999901    1    3    3    0    0  0.52597297854E-01  0.23350224221E-01 -0.97459421601E-01  0.88724858274E+00  0.88000000000E+00 0.  1.
        -11    1    4    4    0    0 -0.72603442038E-02 -0.88176071527E-02  0.28981002493E-01  0.31154813759E-01  0.51100000000E-03 0.  1.
         11    1    4    4    0    0 -0.55491886484E-01 -0.11749645025E-01  0.87212122473E-01  0.10403662360E+00  0.51100000000E-03 0. -1.
</event>
<event>
 8    1  0.1070112E+005  0.1043930E+01  0.7957747E-01            NaN
         13   -1    0    0    0    0  0.00000000000E+00  0.00000000000E+00  0.74505805969E-08  0.10566000000E+00  0.10566000000E+00 0. -1.
     999900   -1    0    0    0    0 -0.00000000000E+00 -0.00000000000E+00 -0.74505805969E-08  0.93827000000E+00  0.93827000000E+00 0.  1.
     999902    2    1    2    0    0 -0.20234757347E-01 -0.73669288003E-02  0.10060796991E-01  0.10201616033E+01  0.10198846799E+01 0.  0.
     999903    2    3    3    0    0 -0.73336026112E-01 -0.44356787627E-01 -0.97327281309E-01  0.13127454988E+00  0.20364440211E-01 0.  0.
         14    1    1    2    0    0  0.20234757347E-01  0.73669288003E-02 -0.10060796991E-01  0.23768396685E-01  0.00000000000E+00 0.  1.
     999901    1    3    3    0    0  0.53101268765E-01  0.36989858827E-01  0.10738807830E+00  0.88888705343E+00  0.88000000000E+00 0. -1.
        -11    1    4    4    0    0  0.53536771620E-03 -0.98615096392E-03 -0.57332520287E-02  0.58643339042E-02  0.51100000000E-03 0. -1.
         11    1    4    4    0    0 -0.73871393829E-01 -0.43370636663E-01 -0.91594029281E-01  0.12541021598E+00  0.51100000000E-03 0.  1.
</event>
<event>
 8    1  0.1070112E+005  0.1043930E+01  0.7957747E-01            NaN
         13   -1    0    0    0    0  0.00000000000E+00  0.00000000000E+00  0.74505805969E-08  0.10566000000E+00  0.10566000000E+00 0. -1.
     999900   -1    0    0    0    0 -0.00000000000E+00 -0.00000000000E+00 -0.74505805969E-08  0.93827000000E+00  0.93827000000E+00 0.  1.
     999902    2    1    2    0    0 -0.10998499599E-01 -0.18161180077E-01 -0.62020508392E-02  0.10218107575E+01  0.10215713207E+01 0.  0.
     999903    2    3    3    0    0  0.59242107435E-02 -0.10094241290E+00  0.84150625756E-01  0.13315856635E+00  0.20625445012E-01 0.  0.
         14    1    1    2    0    0  0.10998499599E-01  0.18161180077E-01  0.62020508392E-02  0.22119242524E-01  0.00000000000E+00 0.  1.
     999901    1    3    3    0    0 -0.16922710343E-01  0.82781232819E-01 -0.90352676595E-01  0.88865219113E+00  0.88000000000E+00 0.  1.
        -11    1    4    4    0    0  0.54141774308E-02 -0.36367411889E-01  0.18863247224E-01  0.41327777361E-01  0.51100000000E-03 0. -1.
         11    1    4    4    0    0  0.51003331271E-03 -0.64575001008E-01  0.65287378532E-01  0.91830788985E-01  0.51100000000E-03 0.  1.
</event>
<event>
 8    1  0.1070112E+005  0.1043930E+01  0.7957747E-01            NaN
         13   -1    0    0    0    0  0.00000000000E+00  0.00000000000E+00  0.74505805969E-08  0.10566000000E+00  0.10566000000E+00 0. -1.
     999900   -1    0    0    0    0 -0.00000000000E+00 -0.00000000000E+00 -0.74505805969E-08  0.93827000000E+00  0.93827000000E+00 0. -1.
     999902    2    1    2    0    0 -0.15595225840E-02  0.15961486949E-01 -0.17833929883E-01  0.10199456253E+01  0.10196635858E+01 0.  0.
     999903    2    3    3    0    0 -0.25616028965E-01 -0.59012665020E-01  0.10847209193E+00  0.12744741792E+00  0.18384070160E-01 0.  0.
         14    1    1    2    0    0  0.15595225840E-02 -0.15961486949E-01  0.17833929883E-01  0.23984374734E-01  0.00000000000E+00 0. -1.
     999901    1    3    3    0    0  0.24056506381E-01  0.74974151969E-01 -0.12630602181E+00  0.89249820734E+00  0.88000000000E+00 0. -1.
        -11    1    4    4    0    0 -0.22150299023E-02 -0.18993342858E-01  0.44544543512E-01  0.48478148769E-01  0.51100000000E-03 0. -1.
         11    1    4    4    0    0 -0.23400999062E-01 -0.40019322162E-01  0.63927548416E-01  0.78969269155E-01  0.51100000000E-03 0.  1.
</event>
<event>
 8    1  0.1070112E+005  0.1043930E+01  0.7957747E-01            NaN
         13   -1    0    0    0    0  0.00000000000E+00  0.00000000000E+00  0.74505805969E-08  0.10566000000E+00  0.10566000000E+00 0. -1.
     999900   -1    0    0    0    0 -0.00000000000E+00 -0.00000000000E+00 -0.74505805969E-08  0.93827000000E+00  0.93827000000E+00 0.  1.
     999902    2    1    2    0    0  0.13917816563E-01 -0.16323652939E-02  0.18665205458E-01  0.10205899030E+01  0.10203229831E+01 0.  0.
     999903    2    3    3    0    0  0.11066898692E+00  0.59550437890E-01  0.38208958756E-01  0.13296042923E+00  0.20607568804E-01 0.  0.
         14    1    1    2    0    0 -0.13917816563E-01  0.16323652939E-02 -0.18665205458E-01  0.23340097025E-01  0.00000000000E+00 0.  1.
     999901    1    3    3    0    0 -0.96751170359E-01 -0.61182803184E-01 -0.19543753298E-01  0.88762947375E+00  0.88000000000E+00 0.  1.
        -11    1    4    4    0    0  0.50800452810E-01  0.22278972630E-01  0.72684156477E-02  0.55947561289E-01  0.51100000000E-03 0.  1.
         11    1    4    4    0    0  0.59868534112E-01  0.37271465260E-01  0.30940543109E-01  0.77012867939E-01  0.51100000000E-03 0. -1.
</event>
<event>
 8    1  0.1070112E+005  0.1043930E+01  0.7957747E-01            NaN
         13   -1    0    0    0    0  0.00000000000E+00  0.00000000000E+00  0.74505805969E-08  0.10566000000E+00  0.10566000000E+00 0.  1.
     999900   -1    0    0    0    0 -0.00000000000E+00 -0.00000000000E+00 -0.74505805969E-08  0.93827000000E+00  0.93827000000E+00 0. -1.
     999902    2    1    2    0    0  0.18867221064E-01 -0.13602717245E-01  0.62617103374E-02  0.10198423483E+01  0.10195578456E+01 0.  0.
     999903    2    3    3    0    0  0.29058145880E-02 -0.11369855040E+00 -0.62594760663E-01  0.13135196801E+00  0.19985777803E-01 0.  0.
         14    1    1    2    0    0 -0.18867221064E-01  0.13602717245E-01 -0.62617103374E-02  0.24087651680E-01  0.00000000000E+00 0. -1.
     999901    1    3    3    0    0  0.15961406476E-01  0.10009583316E+00  0.68856471000E-01  0.88849038031E+00  0.88000000000E+00 0.  1.
        -11    1    4    4    0    0 -0.60840340744E-04 -0.34826081288E-01 -0.90904236032E-02  0.35996618754E-01  0.51100000000E-03 0. -1.
         11    1    4    4    0    0  0.29666549287E-02 -0.78872469114E-01 -0.53504337060E-01  0.95355349252E-01  0.51100000000E-03 0.  1.
</event>
<event>
 8    1  0.1070112E+005  0.1043930E+01  0.7957747E-01            NaN
         13   -1    0    0    0    0  0.00000000000E+00  0.00000000000E+00  0.74505805969E-08  0.10566000000E+00  0.10566000000E+00 0. -1.
     999900   -1    0    0    0    0 -0.00000000000E+00 -0.00000000000E+00 -0.74505805969E-08  0.93827000000E+00  0.93827000000E+00 0.  1.
     999902    2    1    2    0    0  0.13335236666E-01  0.10700781806E-01 -0.13989463194E-01  0.10218383647E+01  0.10215995318E+01 0.  0.
     999903    2    3    3    0    0 -0.94876136688E-01 -0.11121641690E-01  0.84879405265E-01  0.12944777052E+00  0.20664937170E-01 0.  0.
         14    1    1    2    0    0 -0.13335236666E-01 -0.10700781806E-01  0.13989463194E-01  0.22091635264E-01  0.00000000000E+00 0. -1.
     999901    1    3    3    0    0  0.10821137335E+00  0.21822423496E-01 -0.98868868459E-01  0.89239059421E+00  0.88000000000E+00 0.  1.
        -11    1    4    4    0    0 -0.63191517932E-01  0.17297610838E-02  0.49982556656E-01  0.80589559515E-01  0.51100000000E-03 0.  1.
         11    1    4    4    0    0 -0.31684618756E-01 -0.12851402774E-01  0.34896848609E-01  0.48858211007E-01  0.51100000000E-03 0. -1.
</event>
<event>
 8    1  0.1070112E+005  0.1043930E+01  0.7957747E-01            NaN
         13   -1    0    0    0    0  0.00000000000E+00  0.00000000000E+00  0.74505805969E-08  0.10566000000E+00  0.10566000000E+00 0. -1.
     999900   -1    0    0    0    0 -0.00000000000E+00 -0.00000000000E+00 -0.74505805969E-08  0.93827000000E+00  0.93827000000E+00 0. -1.
     999902    2    1    2    0    0  0.22404135246E-02 -0.16101017879E-01  0.17598500006E-01  0.10199723408E+01  0.10196909368E+01 0.  0.
     999903    2    3    3    0    0  0.49048104958E-01  0.10837116514E+00 -0.42495650837E-01  0.12795463290E+00  0.20407883484E-01 0.  0.
         14    1    1    2    0    0 -0.22404135246E-02  0.16101017879E-01 -0.17598500006E-01  0.23957659150E-01  0.00000000000E+00 0.  1.
     999901    1    3    3    0    0 -0.46807691433E-01 -0.12447218302E+00  0.60094150843E-01  0.89201770795E+00  0.88000000000E+00 0.  1.
        -11    1    4    4    0    0  0.43844207398E-01  0.78103771780E-01 -0.36152422825E-01  0.96590747413E-01  0.51100000000E-03 0. -1.
         11    1    4    4    0    0  0.52038975592E-02  0.30267393359E-01 -0.63432280119E-02  0.31363885492E-01  0.51100000000E-03 0.  1.
</event>
<event>
 8    1  0.1070112E+005  0.1043930E+01  0.7957747E-01            NaN
         13   -1    0    0    0    0  0.00000000000E+00  0.00000000000E+00  0.74505805969E-08  0.10566000000E+00  0.10566000000E+00 0.  1.
     999900   -1    0    0    0    0 -0.00000000000E+00 -0.00000000000E+00 -0.74505805969E-08  0.93827000000E+00  0.93827000000E+00 0. -1.
     999902    2    1    2    0    0  0.26496160137E-02 -0.12463742968E-02 -0.23470791033E-01  0.10202772635E+01  0.10200030600E+01 0.  0.
     999903    2    3    3    0    0 -0.10955356961E+00 -0.56343456973E-01  0.34834132244E-01  0.12953335669E+00  0.19720648276E-01 0.  0.
         14    1    1    2    0    0 -0.26496160137E-02  0.12463742968E-02  0.23470791033E-01  0.23652736536E-01  0.00000000000E+00 0.  1.
     999901    1    3    3    0    0  0.11220318562E+00  0.55097082676E-01 -0.58304923277E-01  0.89074390678E+00  0.88000000000E+00 0. -1.
        -11    1    4    4    0    0 -0.86419113466E-02 -0.11249819089E-01  0.29754066719E-02  0.14503628068E-01  0.51100000000E-03 0.  1.
         11    1    4    4    0    0 -0.10091165826E+00 -0.45093637884E-01  0.31858725572E-01  0.11502972862E+00  0.51100000000E-03 0. -1.
</event>
<event>
 8    1  0.1070112E+005  0.1043930E+01  0.7957747E-01            NaN
         13   -1    0    0    0    0  0.00000000000E+00  0.00000000000E+00  0.74505805969E-08  0.10566000000E+00  0.10566000000E+00 0.  1.
     999900   -1    0    0    0    0 -0.00000000000E+00 -0.00000000000E+00 -0.74505805969E-08  0.93827000000E+00  0.93827000000E+00 0. -1.
     999902    2    1    2    0    0  0.13397204331E-01  0.77237116314E-02  0.18245161463E-01  0.10200129199E+01  0.10197324796E+01 0.  0.
     999903    2    3    3    0    0  0.82712046158E-01  0.74244879086E-01 -0.65989227450E-01  0.13078570183E+00  0.19918258318E-01 0.  0.
         14    1    1    2    0    0 -0.13397204331E-01 -0.77237116314E-02 -0.18245161463E-01  0.23917080133E-01  0.00000000000E+00 0. -1.
     999901    1    3    3    0    0 -0.69314841827E-01 -0.66521167454E-01  0.84234388913E-01  0.88922721803E+00  0.88000000000E+00 0.  1.
        -11    1    4    4    0    0  0.30829938657E-01  0.37261924356E-01 -0.20673941761E-01  0.52598565695E-01  0.51100000000E-03 0. -1.
         11    1    4    4    0    0  0.51882107502E-01  0.36982954730E-01 -0.45315285689E-01  0.78187136138E-01  0.51100000000E-03 0.  1.
</event>
<event>
 8    1  0.1070112E+005  0.1043930E+01  0.7957747E-01            NaN
         13   -1    0    0    0    0  0.00000000000E+00  0.00000000000E+00  0.74505805969E-08  0.10566000000E+00  0.10566000000E+00 0. -1.
     999900   -1    0    0    0    0 -0.00000000000E+00 -0.00000000000E+00 -0.74505805969E-08  0.93827000000E+00  0.93827000000E+00 0. -1.
     999902    2    1    2    0    0 -0.29247934724E-02 -0.13742203154E-01  0.18805671227E-01  0.10204554215E+01  0.10201853809E+01 0.  0.
     999903    2    3    3    0    0  0.12882475981E+00 -0.33628910623E-02  0.28418624681E-02  0.13044389457E+00  0.20010139246E-01 0.  0.
         14    1    1    2    0    0  0.29247934724E-02  0.13742203154E-01 -0.18805671227E-01  0.23474578477E-01  0.00000000000E+00 0.  1.
     999901    1    3    3    0    0 -0.13174955328E+00 -0.10379312092E-01  0.15963808759E-01  0.89001152695E+00  0.88000000000E+00 0. -1.
        -11    1    4    4    0    0  0.39707084280E-01  0.24512272175E-02  0.94444680793E-02  0.40891565820E-01  0.51100000000E-03 0.  1.
         11    1    4    4    0    0  0.89117675532E-01 -0.58141182798E-02 -0.66026056113E-02  0.89552328755E-01  0.51100000000E-03 0. -1.
</event>
<event>
 8    1  0.1070112E+005  0.1043930E+01  0.7957747E-01            NaN
         13   -1    0    0    0    0  0.00000000000E+00  0.00000000000E+00  0.74505805969E-08  0.10566000000E+00  0.10566000000E+00 0.  1.
     999900   -1    0    0    0    0 -0.00000000000E+00 -0.00000000000E+00 -0.74505805969E-08  0.93827000000E+00  0.93827000000E+00 0. -1.
     999902    2    1    2    0    0 -0.16776339470E-01  0.77906188474E-02 -0.14557486426E-01  0.10203915268E+01  0.10201199970E+01 0.  0.
     999903    2    3    3    0    0  0.11584002133E+00 -0.51660047408E-01 -0.75574417267E-03  0.12836463881E+00  0.19729123326E-01 0.  0.
         14    1    1    2    0    0  0.16776339470E-01 -0.77906188474E-02  0.14557486426E-01  0.23538473168E-01  0.00000000000E+00 0.  1.
     999901    1    3    3    0    0 -0.13261636080E+00  0.59450666255E-01 -0.13801742254E-01  0.89202688802E+00  0.88000000000E+00 0. -1.
        -11    1    4    4    0    0  0.40961956864E-01 -0.15190973672E-01  0.86747734047E-02  0.44543915475E-01  0.51100000000E-03 0. -1.
         11    1    4    4    0    0  0.74878064465E-01 -0.36469073736E-01 -0.94305175774E-02  0.83820723332E-01  0.51100000000E-03 0.  1.
</event>
<event>
 8    1  0.1070112E+005  0.1043930E+01  0.7957747E-01            NaN
         13   -1    0    0    0    0  0.00000000000E+00  0.00000000000E+00  0.74505805969E-08  0.10566000000E+00  0.10566000000E+00 0.  1.
     999900   -1    0    0    0    0 -0.00000000000E+00 -0.00000000000E+00 -0.74505805969E-08  0.93827000000E+00  0.93827000000E+00 0.  1.
     999902    2    1    2    0    0  0.11745245233E-02  0.94315554905E-02 -0.16392298021E-01  0.10249816180E+01  0.10248064578E+01 0.  0.
     999903    2    3    3    0    0  0.83791554699E-01 -0.10052238939E+00  0.18252800661E-01  0.13362550142E+00  0.19920705052E-01 0.  0.
         14    1    1    2    0    0 -0.11745245233E-02 -0.94315554905E-02  0.16392298021E-01  0.18948382021E-01  0.00000000000E+00 0.  1.
     999901    1    3    3    0    0 -0.82617030176E-01  0.10995394488E+00 -0.34645098682E-01  0.89135611656E+00  0.88000000000E+00 0.  1.
        -11    1    4    4    0    0  0.45257594256E-02 -0.13810883044E-01  0.50902883615E-02  0.15407632701E-01  0.51100000000E-03 0.  1.
         11    1    4    4    0    0  0.79265795274E-01 -0.86711506344E-01  0.13162512300E-01  0.11821786872E+00  0.51100000000E-03 0. -1.
</event>
<event>
 8    1  0.1070112E+005  0.1043930E+01  0.7957747E-01            NaN
         13   -1    0    0    0    0  0.00000000000E+00  0.00000000000E+00  0.74505805969E-08  0.10566000000E+00  0.10566000000E+00 0. -1.
     999900   -1    0    0    0    0 -0.00000000000E+00 -0.00000000000E+00 -0.74505805969E-08  0.93827000000E+00  0.93827000000E+00 0.  1.
     999902    2    1    2    0    0 -0.94318367916E-02 -0.12838018652E-01 -0.14597405229E-01  0.10223230912E+01  0.10220947335E+01 0.  0.
     999903    2    3    3    0    0  0.97644886480E-01  0.60314006375E-01  0.57542493684E-01  0.12989897205E+00  0.19756040607E-01 0.  0.
         14    1    1    2    0    0  0.94318367916E-02  0.12838018652E-01  0.14597405229E-01  0.21606908793E-01  0.00000000000E+00 0. -1.
     999901    1    3    3    0    0 -0.10707672327E+00 -0.73152025027E-01 -0.72139898912E-01  0.89242411915E+00  0.88000000000E+00 0.  1.
        -11    1    4    4    0    0  0.24810047395E-01  0.25401140603E-01  0.14317634664E-01  0.38288538481E-01  0.51100000000E-03 0.  1.
         11    1    4    4    0    0  0.72834839085E-01  0.34912865773E-01  0.43224859020E-01  0.91610433573E-01  0.51100000000E-03 0. -1.
</event>
<event>
 8    1  0.1070112E+005  0.1043930E+01  0.7957747E-01            NaN
         13   -1    0    0    0    0  0.00000000000E+00  0.00000000000E+00  0.74505805969E-08  0.10566000000E+00  0.10566000000E+00 0.  1.
     999900   -1    0    0    0    0 -0.00000000000E+00 -0.00000000000E+00 -0.74505805969E-08  0.93827000000E+00  0.93827000000E+00 0. -1.
     999902    2    1    2    0    0 -0.40938214466E-02  0.23108264118E-01 -0.40574751444E-02  0.10201137377E+01  0.10198356846E+01 0.  0.
     999903    2    3    3    0    0  0.10670242074E+00  0.44625509558E-01 -0.58778476774E-01  0.13121937552E+00  0.19666532088E-01 0.  0.
         14    1    1    2    0    0  0.40938214466E-02 -0.23108264118E-01  0.40574751444E-02  0.23816262283E-01  0.00000000000E+00 0.  1.
     999901    1    3    3    0    0 -0.11079624218E+00 -0.21517245440E-01  0.54721001629E-01  0.88889436220E+00  0.88000000000E+00 0.  1.
        -11    1    4    4    0    0  0.44442218592E-01  0.12345454093E-01 -0.32034890519E-01  0.56160629998E-01  0.51100000000E-03 0. -1.
         11    1    4    4    0    0  0.62260202145E-01  0.32280055465E-01 -0.26743586254E-01  0.75058745518E-01  0.51100000000E-03 0.  1.
</event>
<event>
 7    1  0.1070112E+005  0.1043930E+01  0.7957747E-01            NaN
         13   -1    0    0    0    0  0.00000000000E+00  0.00000000000E+00  0.74505805969E-08  0.10566000000E+00  0.10566000000E+00 0. -1.
     999900   -1    0    0    0    0 -0.00000000000E+00 -0.00000000000E+00 -0.74505805969E-08  0.93827000000E+00  0.93827000000E+00 0. -1.
     999903    2    1    2    0    0  0.69052478449E-01  0.24927021733E-01  0.63636601101E-01  0.98900045127E-01  0.18493261854E-01 0.  0.
         14    1    1    2    0    0 -0.87647596484E-02  0.51912494954E-01  0.18551921154E-01  0.55820264443E-01  0.00000000000E+00 0.  1.
     999901    1    1    2    0    0 -0.60287718801E-01 -0.76839516687E-01 -0.82188522255E-01  0.88920969043E+00  0.88000000000E+00 0. -1.
        -11    1    3    3    0    0  0.14662139633E-01  0.34765653327E-04  0.60567698984E-02  0.15872149504E-01  0.51100000000E-03 0.  1.
         11    1    3    3    0    0  0.54390338816E-01  0.24892256080E-01  0.57579831203E-01  0.83027895623E-01  0.51100000000E-03 0. -1.
</event>
<event>
 8    1  0.1080580E+005  0.1043930E+01  0.7957747E-01            NaN
         13   -1    0    0    0    0  0.00000000000E+00  0.00000000000E+00  0.74505805969E-08  0.10566000000E+00  0.10566000000E+00 0. -1.
     999900   -1    0    0    0    0 -0.00000000000E+00 -0.00000000000E+00 -0.74505805969E-08  0.93827000000E+00  0.93827000000E+00 0. -1.
     999902    2    1    2    0    0 -0.46354535113E-02  0.91211370047E-02 -0.20960666003E-01  0.10206055045E+01  0.10203389455E+01 0.  0.
     999903    2    3    3    0    0  0.10931135663E+00 -0.39223772381E-02 -0.71792280344E-01  0.13170851285E+00  0.15120949346E-01 0.  0.
         14    1    1    2    0    0  0.46354535113E-02 -0.91211370047E-02  0.20960666003E-01  0.23324495467E-01  0.00000000000E+00 0. -1.
     999901    1    3    3    0    0 -0.11394681014E+00  0.13043514243E-01  0.50831614341E-01  0.88889699168E+00  0.88000000000E+00 0.  1.
        -11    1    4    4    0    0  0.58011938874E-01 -0.24249838990E-02 -0.29095890745E-01  0.64946882743E-01  0.51100000000E-03 0.  1.
         11    1    4    4    0    0  0.51299417755E-01 -0.14973933391E-02 -0.42696389599E-01  0.66761630107E-01  0.51100000000E-03 0. -1.
</event>
<event>
 8    1  0.1070112E+005  0.1043930E+01  0.7957747E-01            NaN
         13   -1    0    0    0    0  0.00000000000E+00  0.00000000000E+00  0.74505805969E-08  0.10566000000E+00  0.10566000000E+00 0. -1.
     999900   -1    0    0    0    0 -0.00000000000E+00 -0.00000000000E+00 -0.74505805969E-08  0.93827000000E+00  0.93827000000E+00 0.  1.
     999902    2    1    2    0    0 -0.15723095829E-01  0.18184814379E-01 -0.21879238817E-02  0.10197910227E+01  0.10195052916E+01 0.  0.
     999903    2    3    3    0    0 -0.71611660625E-02  0.79959664204E-01 -0.10226978588E+00  0.13192514437E+00  0.22367485673E-01 0.  0.
         14    1    1    2    0    0  0.15723095829E-01 -0.18184814379E-01  0.21879238817E-02  0.24138977347E-01  0.00000000000E+00 0.  1.
     999901    1    3    3    0    0 -0.85619297669E-02 -0.61774849826E-01  0.10008186200E+00  0.88786587828E+00  0.88000000000E+00 0. -1.
        -11    1    4    4    0    0  0.71049674994E-02  0.15231110639E-01 -0.16851148242E-01  0.23805243383E-01  0.51100000000E-03 0.  1.
         11    1    4    4    0    0 -0.14266133562E-01  0.64728553565E-01 -0.85418637637E-01  0.10811990099E+00  0.51100000000E-03 0. -1.
</event>
<event>
 8    1  0.1070112E+005  0.1043930E+01  0.7957747E-01            NaN
         13   -1    0    0    0    0  0.00000000000E+00  0.00000000000E+00  0.74505805969E-08  0.10566000000E+00  0.10566000000E+00 0. -1.
     999900   -1    0    0    0    0 -0.00000000000E+00 -0.00000000000E+00 -0.74505805969E-08  0.93827000000E+00  0.93827000000E+00 0.  1.
     999902    2    1    2    0    0 -0.23556154420E-02 -0.88727020254E-02 -0.22090733378E-01  0.10200077454E+01  0.10197271823E+01 0.  0.
     999903    2    3    3    0    0 -0.10823274485E+00 -0.68940745594E-01  0.15559490918E-01  0.13083077998E+00  0.20185186932E-01 0.  0.
         14    1    1    2    0    0  0.23556154420E-02  0.88727020254E-02  0.22090733378E-01  0.23922254629E-01  0.00000000000E+00 0. -1.
     999901    1    3    3    0    0  0.10587712941E+00  0.60068043568E-01 -0.37650224296E-01  0.88917696539E+00  0.88000000000E+00 0. -1.
        -11    1    4    4    0    0 -0.89124253056E-01 -0.55072207049E-01  0.47973106762E-02  0.10487781359E+00  0.51100000000E-03 0.  1.
         11    1    4    4    0    0 -0.19108491797E-01 -0.13868538544E-01  0.10762180242E-01  0.25952966394E-01  0.51100000000E-03 0. -1.
</event>
<event>
 8    1  0.1070112E+005  0.1043930E+01  0.7957747E-01            NaN
         13   -1    0    0    0    0  0.00000000000E+00  0.00000000000E+00  0.74505805969E-08  0.10566000000E+00  0.10566000000E+00 0. -1.
     999900   -1    0    0    0    0 -0.00000000000E+00 -0.00000000000E+00 -0.74505805969E-08  0.93827000000E+00  0.93827000000E+00 0. -1.
     999902    2    1    2    0    0 -0.11738257216E-01 -0.17548078428E-01 -0.94562109588E-02  0.10207968708E+01  0.10205347176E+01 0.  0.
     999903    2    3    3    0    0  0.64207278985E-01  0.10879992902E+00  0.10397280753E-01  0.12831398328E+00  0.19909184553E-01 0.  0.
         14    1    1    2    0    0  0.11738257216E-01  0.17548078428E-01  0.94562109588E-02  0.23133129159E-01  0.00000000000E+00 0. -1.
     999901    1    3    3    0    0 -0.75945536201E-01 -0.12634800745E+00 -0.19853491712E-01  0.89248288756E+00  0.88000000000E+00 0. -1.
        -11    1    4    4    0    0  0.49834411278E-01  0.65787656353E-01  0.61288632279E-02  0.82760548338E-01  0.51100000000E-03 0. -1.
         11    1    4    4    0    0  0.14372867707E-01  0.43012272665E-01  0.42684175254E-02  0.45553434943E-01  0.51100000000E-03 0.  1.
</event>
<event>
 8    1  0.1070112E+005  0.1043930E+01  0.7957747E-01            NaN
         13   -1    0    0    0    0  0.00000000000E+00  0.00000000000E+00  0.74505805969E-08  0.10566000000E+00  0.10566000000E+00 0.  1.
     999900   -1    0    0    0    0 -0.00000000000E+00 -0.00000000000E+00 -0.74505805969E-08  0.93827000000E+00  0.93827000000E+00 0.  1.
     999902    2    1    2    0    0  0.19077043054E-03  0.15753688752E-01  0.18166585904E-01  0.10198833797E+01  0.10195998570E+01 0.  0.
     999903    2    3    3    0    0 -0.81720413074E-01 -0.66177123829E-01 -0.70087314874E-01  0.12791317225E+00  0.19796724444E-01 0.  0.
         14    1    1    2    0    0 -0.19077043054E-03 -0.15753688752E-01 -0.18166585904E-01  0.24046620263E-01  0.00000000000E+00 0. -1.
     999901    1    3    3    0    0  0.81911183505E-01  0.81930812582E-01  0.88253900778E-01  0.89197020748E+00  0.88000000000E+00 0. -1.
        -11    1    4    4    0    0 -0.29631955839E-01 -0.34345730919E-01 -0.36577667925E-01  0.58274084729E-01  0.51100000000E-03 0. -1.
         11    1    4    4    0    0 -0.52088457235E-01 -0.31831392910E-01 -0.33509646949E-01  0.69639087525E-01  0.51100000000E-03 0.  1.
</event>
<event>
 8    1  0.1070112E+005  0.1043930E+01  0.7957747E-01            NaN
         13   -1    0    0    0    0  0.00000000000E+00  0.00000000000E+00  0.74505805969E-08  0.10566000000E+00  0.10566000000E+00 0. -1.
     999900   -1    0    0    0    0 -0.00000000000E+00 -0.00000000000E+00 -0.74505805969E-08  0.93827000000E+00  0.93827000000E+00 0. -1.
     999902    2    1    2    0    0  0.30183996317E-02 -0.14605642728E-01  0.14745406561E-01  0.10229570996E+01  0.10227420814E+01 0.  0.
     999903    2    3    3    0    0 -0.16229292643E-01 -0.43312640697E-01 -0.12176360694E+00  0.13176167988E+00  0.19884404074E-01 0.  0.
         14    1    1    2    0    0 -0.30183996317E-02  0.14605642728E-01 -0.14745406561E-01  0.20972900383E-01  0.00000000000E+00 0.  1.
     999901    1    3    3    0    0  0.19247692275E-01  0.28706997969E-01  0.13650901350E+00  0.89119541974E+00  0.88000000000E+00 0.  1.
        -11    1    4    4    0    0 -0.10184379390E-01 -0.43054026563E-01 -0.10555017816E+00  0.11444855620E+00  0.51100000000E-03 0. -1.
         11    1    4    4    0    0 -0.60449132534E-02 -0.25861413468E-03 -0.16213428788E-01  0.17313123680E-01  0.51100000000E-03 0.  1.
</event>
<event>
 8    1  0.1070112E+005  0.1043930E+01  0.7957747E-01            NaN
         13   -1    0    0    0    0  0.00000000000E+00  0.00000000000E+00  0.74505805969E-08  0.10566000000E+00  0.10566000000E+00 0.  1.
     999900   -1    0    0    0    0 -0.00000000000E+00 -0.00000000000E+00 -0.74505805969E-08  0.93827000000E+00  0.93827000000E+00 0.  1.
     999902    2    1    2    0    0  0.58338858497E-02  0.74834204683E-02 -0.20992563772E-01  0.10208925622E+01  0.10206325980E+01 0.  0.
     999903    2    3    3    0    0 -0.69552996679E-01 -0.94659857931E-01 -0.54738897611E-01  0.13114245886E+00  0.20097003568E-01 0.  0.
         14    1    1    2    0    0 -0.58338858497E-02 -0.74834204683E-02  0.20992563772E-01  0.23037437786E-01  0.00000000000E+00 0.  1.
     999901    1    3    3    0    0  0.75386882529E-01  0.10214327840E+00  0.33746333839E-01  0.88975010336E+00  0.88000000000E+00 0.  1.
        -11    1    4    4    0    0 -0.56088582811E-01 -0.64450334940E-01 -0.33168088256E-01  0.91652375830E-01  0.51100000000E-03 0. -1.
         11    1    4    4    0    0 -0.13464413868E-01 -0.30209522991E-01 -0.21570809355E-01  0.39490083026E-01  0.51100000000E-03 0.  1.
</event>
<event>
 8    1  0.1070112E+005  0.1043930E+01  0.7957747E-01            NaN
         13   -1    0    0    0    0  0.00000000000E+00  0.00000000000E+00  0.74505805969E-08  0.10566000000E+00  0.10566000000E+00 0. -1.
     999900   -1    0    0    0    0 -0.00000000000E+00 -0.00000000000E+00 -0.74505805969E-08  0.93827000000E+00  0.93827000000E+00 0. -1.
     999902    2    1    2    0    0  0.54812592281E-02  0.22102884694E-01  0.53479251457E-02  0.10205380779E+01  0.10202699577E+01 0.  0.
     999903    2    3    3    0    0  0.97509067077E-01 -0.12326595673E-01 -0.83512631212E-01  0.13062195548E+00  0.20682663211E-01 0.  0.
         14    1    1    2    0    0 -0.54812592281E-02 -0.22102884694E-01 -0.53479251457E-02  0.23391922065E-01  0.00000000000E+00 0.  1.
     999901    1    3    3    0    0 -0.92027807849E-01  0.34429480367E-01  0.88860556357E-01  0.88991612246E+00  0.88000000000E+00 0. -1.
        -11    1    4    4    0    0  0.36008988766E-01  0.22562627751E-02 -0.21131690278E-01  0.41815636414E-01  0.51100000000E-03 0.  1.
         11    1    4    4    0    0  0.61500078311E-01 -0.14582858448E-01 -0.62380940933E-01  0.88806319063E-01  0.51100000000E-03 0. -1.
</event>
<event>
 8    1  0.1070112E+005  0.1043930E+01  0.7957747E-01            NaN
         13   -1    0    0    0    0  0.00000000000E+00  0.00000000000E+00  0.74505805969E-08  0.10566000000E+00  0.10566000000E+00 0.  1.
     999900   -1    0    0    0    0 -0.00000000000E+00 -0.00000000000E+00 -0.74505805969E-08  0.93827000000E+00  0.93827000000E+00 0.  1.
     999902    2    1    2    0    0  0.18740458598E-02 -0.22925589514E-01  0.50595346817E-02  0.10203780660E+01  0.10201062219E+01 0.  0.
     999903    2    3    3    0    0  0.88738076366E-01 -0.27199595978E-01 -0.90166775672E-01  0.13097844994E+00  0.20274187881E-01 0.  0.
         14    1    1    2    0    0 -0.18740458598E-02  0.22925589514E-01 -0.50595346817E-02  0.23551933968E-01  0.00000000000E+00 0. -1.
     999901    1    3    3    0    0 -0.86864030506E-01  0.42740064641E-02  0.95226310353E-01  0.88939961610E+00  0.88000000000E+00 0. -1.
        -11    1    4    4    0    0  0.22240070464E-01 -0.36167667407E-02 -0.34014393616E-01  0.40803698729E-01  0.51100000000E-03 0.  1.
         11    1    4    4    0    0  0.66498005902E-01 -0.23582829237E-01 -0.56152382055E-01  0.90174751207E-01  0.51100000000E-03 0. -1.
</event>
<event>
 8    1  0.1070112E+005  0.1043930E+01  0.7957747E-01            NaN
         13   -1    0    0    0    0  0.00000000000E+00  0.00000000000E+00  0.74505805969E-08  0.10566000000E+00  0.10566000000E+00 0. -1.
     999900   -1    0    0    0    0 -0.00000000000E+00 -0.00000000000E+00 -0.74505805969E-08  0.93827000000E+00  0.93827000000E+00 0.  1.
     999902    2    1    2    0    0  0.69938265556E-02  0.13384057918E-01 -0.18520713582E-01  0.10200330661E+01  0.10197531037E+01 0.  0.
     999903    2    3    3    0    0  0.12472783340E-01  0.10941547304E+00  0.67632792674E-01  0.13060938853E+00  0.18902424764E-01 0.  0.
         14    1    1    2    0    0 -0.69938265556E-02 -0.13384057918E-01  0.18520713582E-01  0.23896933858E-01  0.00000000000E+00 0. -1.
     999901    1    3    3    0    0 -0.54789567844E-02 -0.96031415123E-01 -0.86153506256E-01  0.88942367761E+00  0.88000000000E+00 0.  1.
        -11    1    4    4    0    0  0.77419967325E-03  0.51897028539E-01  0.41032269506E-01  0.66165015062E-01  0.51100000000E-03 0.  1.
         11    1    4    4    0    0  0.11698583667E-01  0.57518444502E-01  0.26600523167E-01  0.64444373467E-01  0.51100000000E-03 0. -1.
</event>
<event>
 8    1  0.1070112E+005  0.1043930E+01  0.7957747E-01            NaN
         13   -1    0    0    0    0  0.00000000000E+00  0.00000000000E+00  0.74505805969E-08  0.10566000000E+00  0.10566000000E+00 0. -1.
     999900   -1    0    0    0    0 -0.00000000000E+00 -0.00000000000E+00 -0.74505805969E-08  0.93827000000E+00  0.93827000000E+00 0. -1.
     999902    2    1    2    0    0 -0.45599819736E-02 -0.51766057741E-02 -0.22058770187E-01  0.10208176651E+01  0.10205559883E+01 0.  0.
     999903    2    3    3    0    0 -0.72586982795E-01 -0.10126741013E+00  0.35771437490E-01  0.13109554642E+00  0.19557303637E-01 0.  0.
         14    1    1    2    0    0  0.45599819736E-02  0.51766057741E-02  0.22058770187E-01  0.23112334912E-01  0.00000000000E+00 0. -1.
     999901    1    3    3    0    0  0.68027000821E-01  0.96090804358E-01 -0.57830207677E-01  0.88972211867E+00  0.88000000000E+00 0.  1.
        -11    1    4    4    0    0 -0.38821246222E-01 -0.46716230926E-01  0.83157651347E-02  0.61309937701E-01  0.51100000000E-03 0. -1.
         11    1    4    4    0    0 -0.33765736572E-01 -0.54551179206E-01  0.27455672355E-01  0.69785608721E-01  0.51100000000E-03 0.  1.
</event>
<event>
 8    1  0.1070112E+005  0.1043930E+01  0.7957747E-01            NaN
         13   -1    0    0    0    0  0.00000000000E+00  0.00000000000E+00  0.74505805969E-08  0.10566000000E+00  0.10566000000E+00 0. -1.
     999900   -1    0    0    0    0 -0.00000000000E+00 -0.00000000000E+00 -0.74505805969E-08  0.93827000000E+00  0.93827000000E+00 0. -1.
     999902    2    1    2    0    0  0.19332500737E-01  0.13147712112E-01 -0.37842700299E-02  0.10202460684E+01  0.10199711326E+01 0.  0.
     999903    2    3    3    0    0  0.36137913546E-01 -0.10131130586E+00  0.68665959431E-01  0.12972244461E+00  0.23301698670E-01 0.  0.
         14    1    1    2    0    0 -0.19332500737E-01 -0.13147712112E-01  0.37842700299E-02  0.23683931645E-01  0.00000000000E+00 0.  1.
     999901    1    3    3    0    0 -0.16805412809E-01  0.11445901797E+00 -0.72450229461E-01  0.89052362374E+00  0.88000000000E+00 0. -1.
        -11    1    4    4    0    0  0.91020108043E-02 -0.49316941683E-01  0.41639686962E-01  0.65185366371E-01  0.51100000000E-03 0. -1.
         11    1    4    4    0    0  0.27035902742E-01 -0.51994364178E-01  0.27026272469E-01  0.64537078241E-01  0.51100000000E-03 0.  1.
</event>
<event>
 8    1  0.1070112E+005  0.1043930E+01  0.7957747E-01            NaN
         13   -1    0    0    0    0  0.00000000000E+00  0.00000000000E+00  0.74505805969E-08  0.10566000000E+00  0.10566000000E+00 0.  1.
     999900   -1    0    0    0    0 -0.00000000000E+00 -0.00000000000E+00 -0.74505805969E-08  0.93827000000E+00  0.93827000000E+00 0. -1.
     999902    2    1    2    0    0 -0.26294006627E-02  0.13118648915E-01  0.89819814456E-02  0.10278151408E+01  0.10276888026E+01 0.  0.
     999903    2    3    3    0    0 -0.11152564798E+00 -0.61163372426E-01 -0.45122897281E-01  0.13635367258E+00  0.19424723492E-01 0.  0.
         14    1    1    2    0    0  0.26294006627E-02 -0.13118648915E-01 -0.89819814456E-02  0.16114859226E-01  0.00000000000E+00 0.  1.
     999901    1    3    3    0    0  0.10889624732E+00  0.74282021341E-01  0.54104878727E-01  0.89146146819E+00  0.88000000000E+00 0.  1.
        -11    1    4    4    0    0 -0.53361010291E-01 -0.19936842293E-01 -0.25459604948E-01  0.62396536002E-01  0.51100000000E-03 0. -1.
         11    1    4    4    0    0 -0.58164637689E-01 -0.41226530133E-01 -0.19663292333E-01  0.73957136577E-01  0.51100000000E-03 0.  1.
</event>
<event>
 8    1  0.1070112E+005  0.1043930E+01  0.7957747E-01            NaN
         13   -1    0    0    0    0  0.00000000000E+00  0.00000000000E+00  0.74505805969E-08  0.10566000000E+00  0.10566000000E+00 0. -1.
     999900   -1    0    0    0    0 -0.00000000000E+00 -0.00000000000E+00 -0.74505805969E-08  0.93827000000E+00  0.93827000000E+00 0.  1.
     999902    2    1    2    0    0  0.90706820043E-02  0.14263842668E-01  0.16010735627E-01  0.10206474285E+01  0.10203818379E+01 0.  0.
     999903    2    3    3    0    0 -0.48125636592E-01  0.10291497344E+00 -0.62017427738E-01  0.13091778636E+00  0.19640182942E-01 0.  0.
         14    1    1    2    0    0 -0.90706820043E-02 -0.14263842668E-01 -0.16010735627E-01  0.23282571486E-01  0.00000000000E+00 0.  1.
     999901    1    3    3    0    0  0.57196318596E-01 -0.88651130777E-01  0.78028163365E-01  0.88972964215E+00  0.88000000000E+00 0. -1.
        -11    1    4    4    0    0 -0.24460900018E-01  0.70740107060E-01 -0.46167392944E-01  0.87944230446E-01  0.51100000000E-03 0.  1.
         11    1    4    4    0    0 -0.23664736574E-01  0.32174866384E-01 -0.15850034794E-01  0.42973555915E-01  0.51100000000E-03 0. -1.
</event>
<event>
 8    1  0.1070112E+005  0.1043930E+01  0.7957747E-01            NaN
         13   -1    0    0    0    0  0.00000000000E+00  0.00000000000E+00  0.74505805969E-08  0.10566000000E+00  0.10566000000E+00 0. -1.
     999900   -1    0    0    0    0 -0.00000000000E+00 -0.00000000000E+00 -0.74505805969E-08  0.93827000000E+00  0.93827000000E+00 0.  1.
     999902    2    1    2    0    0 -0.25312758716E-01 -0.13951761206E-01 -0.52684446066E-02  0.10145506892E+01  0.10141252176E+01 0.  0.
     999903    2    3    3    0    0  0.84414148403E-01  0.80557943767E-03 -0.88281008500E-01  0.12373709534E+00  0.19772073526E-01 0.  0.
         14    1    1    2    0    0  0.25312758716E-01  0.13951761206E-01  0.52684446066E-02  0.29379310800E-01  0.00000000000E+00 0. -1.
     999901    1    3    3    0    0 -0.10972690712E+00 -0.14757340643E-01  0.83012563894E-01  0.89081359386E+00  0.88000000000E+00 0. -1.
        -11    1    4    4    0    0  0.55620916130E-01 -0.45294286372E-02 -0.46101777728E-01  0.72386718848E-01  0.51100000000E-03 0. -1.
         11    1    4    4    0    0  0.28793232272E-01  0.53350080748E-02 -0.42179230772E-01  0.51350376487E-01  0.51100000000E-03 0.  1.
</event>
<event>
 8    1  0.1070112E+005  0.1043930E+01  0.7957747E-01            NaN
         13   -1    0    0    0    0  0.00000000000E+00  0.00000000000E+00  0.74505805969E-08  0.10566000000E+00  0.10566000000E+00 0. -1.
     999900   -1    0    0    0    0 -0.00000000000E+00 -0.00000000000E+00 -0.74505805969E-08  0.93827000000E+00  0.93827000000E+00 0. -1.
     999902    2    1    2    0    0 -0.12525157220E-01  0.72525268411E-02  0.19399184018E-01  0.10197265488E+01  0.10194392710E+01 0.  0.
     999903    2    3    3    0    0 -0.88162015548E-01  0.19097890687E-01  0.95972092194E-01  0.13308983783E+00  0.19104764861E-01 0.  0.
         14    1    1    2    0    0  0.12525157220E-01 -0.72525268411E-02 -0.19399184018E-01  0.24203451191E-01  0.00000000000E+00 0.  1.
     999901    1    3    3    0    0  0.75636858328E-01 -0.11845363846E-01 -0.76572908176E-01  0.88663671098E+00  0.88000000000E+00 0. -1.
        -11    1    4    4    0    0 -0.66117751261E-01  0.61625280523E-02  0.64910254439E-01  0.92860842319E-01  0.51100000000E-03 0.  1.
         11    1    4    4    0    0 -0.22044264287E-01  0.12935362635E-01  0.31061837755E-01  0.40228995515E-01  0.51100000000E-03 0. -1.
</event>
<event>
 8    1  0.1070112E+005  0.1043930E+01  0.7957747E-01            NaN
         13   -1    0    0    0    0  0.00000000000E+00  0.00000000000E+00  0.74505805969E-08  0.10566000000E+00  0.10566000000E+00 0.  1.
     999900   -1    0    0    0    0 -0.00000000000E+00 -0.00000000000E+00 -0.74505805969E-08  0.93827000000E+00  0.93827000000E+00 0.  1.
     999902    2    1    2    0    0  0.27806239689E-02  0.27591998258E-01  0.35871923404E-02  0.10159672000E+01  0.10155823124E+01 0.  0.
     999903    2    3    3    0    0 -0.54289825733E-01 -0.68188499194E-01 -0.86343600008E-01  0.12438518615E+00  0.20479274194E-01 0.  0.
         14    1    1    2    0    0 -0.27806239689E-02 -0.27591998258E-01 -0.35871923404E-02  0.27962800046E-01  0.00000000000E+00 0.  1.
     999901    1    3    3    0    0  0.57070449702E-01  0.95780497452E-01  0.89930792348E-01  0.89158201380E+00  0.88000000000E+00 0. -1.
        -11    1    4    4    0    0 -0.51388877673E-01 -0.52195186758E-01 -0.69546601471E-01  0.10100566898E+00  0.51100000000E-03 0.  1.
         11    1    4    4    0    0 -0.29009480595E-02 -0.15993312436E-01 -0.16796998537E-01  0.23379517171E-01  0.51100000000E-03 0. -1.
</event>
<event>
 8    1  0.1070112E+005  0.1043930E+01  0.7957747E-01            NaN
         13   -1    0    0    0    0  0.00000000000E+00  0.00000000000E+00  0.74505805969E-08  0.10566000000E+00  0.10566000000E+00 0.  1.
     999900   -1    0    0    0    0 -0.00000000000E+00 -0.00000000000E+00 -0.74505805969E-08  0.93827000000E+00  0.93827000000E+00 0. -1.
     999902    2    1    2    0    0  0.89682706103E-02 -0.18325097954E-01  0.12776428753E-01  0.10198576876E+01  0.10195735514E+01 0.  0.
     999903    2    3    3    0    0  0.73058436943E-01  0.62679339241E-01  0.86288179109E-01  0.13077206421E+00  0.19734440665E-01 0.  0.
         14    1    1    2    0    0 -0.89682706103E-02  0.18325097954E-01 -0.12776428753E-01  0.24072312404E-01  0.00000000000E+00 0.  1.
     999901    1    3    3    0    0 -0.64090166332E-01 -0.81004437196E-01 -0.73511750356E-01  0.88908562338E+00  0.88000000000E+00 0. -1.
        -11    1    4    4    0    0  0.67637995063E-01  0.51516013484E-01  0.80433691015E-01  0.11704117990E+00  0.51100000000E-03 0. -1.
         11    1    4    4    0    0  0.54204418795E-02  0.11163325757E-01  0.58544880942E-02  0.13730884312E-01  0.51100000000E-03 0.  1.
</event>
<event>
 8    1  0.1070112E+005  0.1043930E+01  0.7957747E-01            NaN
         13   -1    0    0    0    0  0.00000000000E+00  0.00000000000E+00  0.74505805969E-08  0.10566000000E+00  0.10566000000E+00 0.  1.
     999900   -1    0    0    0    0 -0.00000000000E+00 -0.00000000000E+00 -0.74505805969E-08  0.93827000000E+00  0.93827000000E+00 0. -1.
     999902    2    1    2    0    0 -0.50035769059E-02 -0.21533801493E-01  0.27574549435E-02  0.10216512221E+01  0.10214082806E+01 0.  0.
     999903    2    3    3    0    0 -0.72478928328E-01  0.39011855302E-02  0.10896555788E+00  0.13233686665E+00  0.19264972657E-01 0.  0.
         14    1    1    2    0    0  0.50035769059E-02  0.21533801493E-01 -0.27574549435E-02  0.22278777937E-01  0.00000000000E+00 0. -1.
     999901    1    3    3    0    0  0.67475351423E-01 -0.25434987023E-01 -0.10620810293E+00  0.88931435541E+00  0.88000000000E+00 0. -1.
        -11    1    4    4    0    0 -0.19619544860E-01 -0.21474730285E-02  0.44961642325E-01  0.49105484241E-01  0.51100000000E-03 0.  1.
         11    1    4    4    0    0 -0.52859383469E-01  0.60486585586E-02  0.64003915551E-01  0.83231382410E-01  0.51100000000E-03 0. -1.
</event>
<event>
 8    1  0.1070112E+005  0.1043930E+01  0.7957747E-01            NaN
         13   -1    0    0    0    0  0.00000000000E+00  0.00000000000E+00  0.74505805969E-08  0.10566000000E+00  0.10566000000E+00 0.  1.
     999900   -1    0    0    0    0 -0.00000000000E+00 -0.00000000000E+00 -0.74505805969E-08  0.93827000000E+00  0.93827000000E+00 0. -1.
     999902    2    1    2    0    0  0.22052501592E-01  0.47725265553E-02  0.11010408100E-01  0.10188238469E+01  0.10185144634E+01 0.  0.
     999903    2    3    3    0    0 -0.28802786667E-01 -0.10473056953E+00 -0.63878721860E-01  0.12742855291E+00  0.18959226638E-01 0.  0.
         14    1    1    2    0    0 -0.22052501592E-01 -0.47725265553E-02 -0.11010408100E-01  0.25106153085E-01  0.00000000000E+00 0.  1.
     999901    1    3    3    0    0  0.50855288259E-01  0.10950309609E+00  0.74889129961E-01  0.89139529401E+00  0.88000000000E+00 0.  1.
        -11    1    4    4    0    0 -0.12230692664E-01 -0.62927255853E-01 -0.46590402468E-01  0.79248697751E-01  0.51100000000E-03 0. -1.
         11    1    4    4    0    0 -0.16572094003E-01 -0.41803313680E-01 -0.17288319392E-01  0.48179855154E-01  0.51100000000E-03 0.  1.
</event>
<event>
 8    1  0.1070112E+005  0.1043930E+01  0.7957747E-01            NaN
         13   -1    0    0    0    0  0.00000000000E+00  0.00000000000E+00  0.74505805969E-08  0.10566000000E+00  0.10566000000E+00 0.  1.
     999900   -1    0    0    0    0 -0.00000000000E+00 -0.00000000000E+00 -0.74505805969E-08  0.93827000000E+00  0.93827000000E+00 0.  1.
     999902    2    1    2    0    0  0.85741343875E-02  0.16067297070E-01 -0.44675171698E-02  0.10251781328E+01  0.10250066201E+01 0.  0.
     999903    2    3    3    0    0 -0.30325500050E-01  0.17174740296E-01 -0.12934660661E+00  0.13551010760E+00  0.20441060704E-01 0.  0.
         14    1    1    2    0    0 -0.85741343875E-02 -0.16067297070E-01  0.44675171698E-02  0.18751867248E-01  0.00000000000E+00 0. -1.
     999901    1    3    3    0    0  0.38899634437E-01 -0.11074432255E-02  0.12487908944E+00  0.88966802515E+00  0.88000000000E+00 0. -1.
        -11    1    4    4    0    0 -0.14993020665E-01  0.81233843366E-02 -0.29420904851E-01  0.34009275279E-01  0.51100000000E-03 0.  1.
         11    1    4    4    0    0 -0.15332479385E-01  0.90513559592E-02 -0.99925701764E-01  0.10150083233E+00  0.51100000000E-03 0. -1.
</event>
<event>
 8    1  0.1070112E+005  0.1043930E+01  0.7957747E-01            NaN
         13   -1    0    0    0    0  0.00000000000E+00  0.00000000000E+00  0.74505805969E-08  0.10566000000E+00  0.10566000000E+00 0.  1.
     999900   -1    0    0    0    0 -0.00000000000E+00 -0.00000000000E+00 -0.74505805969E-08  0.93827000000E+00  0.93827000000E+00 0.  1.
     999902    2    1    2    0    0  0.51242170754E-02 -0.16450183966E-01  0.12610969626E-01  0.10225781217E+01  0.10223551791E+01 0.  0.
     999903    2    3    3    0    0 -0.30793471019E-01 -0.12517627855E-01  0.12845059526E+00  0.13425140015E+00  0.20468369604E-01 0.  0.
         14    1    1    2    0    0 -0.51242170754E-02  0.16450183966E-01 -0.12610969626E-01  0.21351878326E-01  0.00000000000E+00 0. -1.
     999901    1    3    3    0    0  0.35917688095E-01 -0.39325561104E-02 -0.11583962563E+00  0.88832672153E+00  0.88000000000E+00 0.  1.
        -11    1    4    4    0    0 -0.10737437717E-01  0.70985091427E-03  0.73373493868E-01  0.74160145499E-01  0.51100000000E-03 0. -1.
         11    1    4    4    0    0 -0.20056033302E-01 -0.13227478770E-01  0.55077101390E-01  0.60091254646E-01  0.51100000000E-03 0.  1.
</event>
<event>
 8    1  0.1070112E+005  0.1043930E+01  0.7957747E-01            NaN
         13   -1    0    0    0    0  0.00000000000E+00  0.00000000000E+00  0.74505805969E-08  0.10566000000E+00  0.10566000000E+00 0.  1.
     999900   -1    0    0    0    0 -0.00000000000E+00 -0.00000000000E+00 -0.74505805969E-08  0.93827000000E+00  0.93827000000E+00 0. -1.
     999902    2    1    2    0    0  0.97520422992E-03 -0.18583646799E-01  0.14833274296E-01  0.10201323325E+01  0.10198547185E+01 0.  0.
     999903    2    3    3    0    0  0.55714465421E-02  0.11767999311E+00  0.48474829148E-01  0.12899785376E+00  0.20273515190E-01 0.  0.
         14    1    1    2    0    0 -0.97520422992E-03  0.18583646799E-01 -0.14833274296E-01  0.23797667490E-01  0.00000000000E+00 0.  1.
     999901    1    3    3    0    0 -0.45962423121E-02 -0.13626363991E+00 -0.33641554853E-01  0.89113447875E+00  0.88000000000E+00 0. -1.
        -11    1    4    4    0    0  0.39677011436E-02  0.15787262748E-01  0.32706452104E-03  0.16289518398E-01  0.51100000000E-03 0. -1.
         11    1    4    4    0    0  0.16037453985E-02  0.10189273036E+00  0.48147764627E-01  0.11270833536E+00  0.51100000000E-03 0.  1.
</event>
<event>
 8    1  0.1070112E+005  0.1043930E+01  0.7957747E-01            NaN
         13   -1    0    0    0    0  0.00000000000E+00  0.00000000000E+00  0.74505805969E-08  0.10566000000E+00  0.10566000000E+00 0.  1.
     999900   -1    0    0    0    0 -0.00000000000E+00 -0.00000000000E+00 -0.74505805969E-08  0.93827000000E+00  0.93827000000E+00 0.  1.
     999902    2    1    2    0    0 -0.11672790088E-02 -0.15216279231E-01 -0.11236893619E-01  0.10249783385E+01  0.10248031172E+01 0.  0.
     999903    2    3    3    0    0  0.33948168338E-01 -0.57247011244E-01  0.11483554489E+00  0.13430784008E+00  0.20535216252E-01 0.  0.
         14    1    1    2    0    0  0.11672790088E-02  0.15216279231E-01  0.11236893619E-01  0.18951661461E-01  0.00000000000E+00 0.  1.
     999901    1    3    3    0    0 -0.35115447347E-01  0.42030732013E-01 -0.12607243851E+00  0.89067049846E+00  0.88000000000E+00 0.  1.
        -11    1    4    4    0    0  0.91160293403E-02 -0.29348132495E-02  0.11695219413E-01  0.15124628850E-01  0.51100000000E-03 0.  1.
         11    1    4    4    0    0  0.24832138998E-01 -0.54312197995E-01  0.10314032548E+00  0.11918321123E+00  0.51100000000E-03 0. -1.
</event>
<event>
 8    1  0.1070112E+005  0.1043930E+01  0.7957747E-01            NaN
         13   -1    0    0    0    0  0.00000000000E+00  0.00000000000E+00  0.74505805969E-08  0.10566000000E+00  0.10566000000E+00 0. -1.
     999900   -1    0    0    0    0 -0.00000000000E+00 -0.00000000000E+00 -0.74505805969E-08  0.93827000000E+00  0.93827000000E+00 0. -1.
     999902    2    1    2    0    0 -0.19753392506E-01  0.28784695718E-01  0.16007730219E-03  0.10090189581E+01  0.10084148337E+01 0.  0.
     999903    2    3    3    0    0 -0.33936385942E-01  0.84296020932E-02 -0.11442799509E+00  0.12124313420E+00  0.19580476187E-01 0.  0.
         14    1    1    2    0    0  0.19753392506E-01 -0.28784695718E-01 -0.16007730219E-03  0.34911041918E-01  0.00000000000E+00 0.  1.
     999901    1    3    3    0    0  0.14182993436E-01  0.20355093625E-01  0.11458807239E+00  0.88777582388E+00  0.88000000000E+00 0.  1.
        -11    1    4    4    0    0 -0.10297657982E-01  0.12220606825E-01 -0.40907572523E-01  0.43921243172E-01  0.51100000000E-03 0. -1.
         11    1    4    4    0    0 -0.23638727960E-01 -0.37910047315E-02 -0.73520422566E-01  0.77321891025E-01  0.51100000000E-03 0.  1.
</event>
<event>
 8    1  0.1070112E+005  0.1043930E+01  0.7957747E-01            NaN
         13   -1    0    0    0    0  0.00000000000E+00  0.00000000000E+00  0.74505805969E-08  0.10566000000E+00  0.10566000000E+00 0.  1.
     999900   -1    0    0    0    0 -0.00000000000E+00 -0.00000000000E+00 -0.74505805969E-08  0.93827000000E+00  0.93827000000E+00 0. -1.
     999902    2    1    2    0    0  0.13523834024E-01  0.13495913972E-01 -0.13925603318E-01  0.10202877453E+01  0.10200137876E+01 0.  0.
     999903    2    3    3    0    0 -0.12036727628E+00 -0.40269679897E-01  0.17415575085E-03  0.12842656117E+00  0.19581189067E-01 0.  0.
         14    1    1    2    0    0 -0.13523834024E-01 -0.13495913972E-01  0.13925603318E-01  0.23642254724E-01  0.00000000000E+00 0.  1.
     999901    1    3    3    0    0  0.13389111031E+00  0.53765593869E-01 -0.14099759069E-01  0.89186118410E+00  0.88000000000E+00 0.  1.
        -11    1    4    4    0    0 -0.97523843528E-01 -0.28945848641E-01  0.71718822990E-02  0.10198264179E+00  0.51100000000E-03 0.  1.
         11    1    4    4    0    0 -0.22843432757E-01 -0.11323831255E-01 -0.69977265481E-02  0.26443919381E-01  0.51100000000E-03 0. -1.
</event>
<event>
 8    1  0.1070112E+005  0.1043930E+01  0.7957747E-01            NaN
         13   -1    0    0    0    0  0.00000000000E+00  0.00000000000E+00  0.74505805969E-08  0.10566000000E+00  0.10566000000E+00 0.  1.
     999900   -1    0    0    0    0 -0.00000000000E+00 -0.00000000000E+00 -0.74505805969E-08  0.93827000000E+00  0.93827000000E+00 0.  1.
     999902    2    1    2    0    0 -0.15638378227E-01 -0.16000391538E-01 -0.10556590403E-01  0.10191911034E+01  0.10188908147E+01 0.  0.
     999903    2    3    3    0    0 -0.46589831062E-01 -0.15612509467E-01 -0.12068375145E+00  0.13178694832E+00  0.19719763531E-01 0.  0.
         14    1    1    2    0    0  0.15638378227E-01  0.16000391538E-01  0.10556590403E-01  0.24738896578E-01  0.00000000000E+00 0.  1.
     999901    1    3    3    0    0  0.30951452835E-01 -0.38788207128E-03  0.11012716105E+00  0.88740415510E+00  0.88000000000E+00 0. -1.
        -11    1    4    4    0    0 -0.33386712338E-01 -0.15740724401E-01 -0.10488069662E+00  0.11118752003E+00  0.51100000000E-03 0.  1.
         11    1    4    4    0    0 -0.13203118724E-01  0.12821493406E-03 -0.15803054833E-01  0.20599428297E-01  0.51100000000E-03 0. -1.
</event>
<event>
 8    1  0.1070112E+005  0.1043930E+01  0.7957747E-01            NaN
         13   -1    0    0    0    0  0.00000000000E+00  0.00000000000E+00  0.74505805969E-08  0.10566000000E+00  0.10566000000E+00 0. -1.
     999900   -1    0    0    0    0 -0.00000000000E+00 -0.00000000000E+00 -0.74505805969E-08  0.93827000000E+00  0.93827000000E+00 0. -1.
     999902    2    1    2    0    0  0.17805458560E-01  0.14229283023E-01  0.21816099342E-01  0.10123792624E+01  0.10118875046E+01 0.  0.
     999903    2    3    3    0    0  0.30924590474E-01 -0.70795980037E-01  0.96333967013E-01  0.12504938039E+00  0.19715812192E-01 0.  0.
         14    1    1    2    0    0 -0.17805458560E-01 -0.14229283023E-01 -0.21816099342E-01  0.31550737556E-01  0.00000000000E+00 0.  1.
     999901    1    3    3    0    0 -0.13119131914E-01  0.85025263060E-01 -0.74517867671E-01  0.88732988205E+00  0.88000000000E+00 0. -1.
        -11    1    4    4    0    0 -0.23652256678E-02 -0.11259155660E-01  0.14192877551E-01  0.18277356834E-01  0.51100000000E-03 0. -1.
         11    1    4    4    0    0  0.33289816142E-01 -0.59536824377E-01  0.82141089462E-01  0.10677202356E+00  0.51100000000E-03 0.  1.
</event>
<event>
 8    1  0.1070112E+005  0.1043930E+01  0.7957747E-01            NaN
         13   -1    0    0    0    0  0.00000000000E+00  0.00000000000E+00  0.74505805969E-08  0.10566000000E+00  0.10566000000E+00 0.  1.
     999900   -1    0    0    0    0 -0.00000000000E+00 -0.00000000000E+00 -0.74505805969E-08  0.93827000000E+00  0.93827000000E+00 0. -1.
     999902    2    1    2    0    0 -0.36441753215E-02 -0.68083906209E-02  0.22183821198E-01  0.10204405104E+01  0.10201701227E+01 0.  0.
     999903    2    3    3    0    0 -0.81813801275E-01  0.94740043944E-01 -0.27505863112E-01  0.12977130153E+00  0.20367724200E-01 0.  0.
         14    1    1    2    0    0  0.36441753215E-02  0.68083906209E-02 -0.22183821198E-01  0.23489489556E-01  0.00000000000E+00 0. -1.
     999901    1    3    3    0    0  0.78169625954E-01 -0.10154843457E+00  0.49689684310E-01  0.89066920892E+00  0.88000000000E+00 0. -1.
        -11    1    4    4    0    0 -0.50268936843E-01  0.46746404766E-01 -0.21937782886E-01  0.72067467063E-01  0.51100000000E-03 0. -1.
         11    1    4    4    0    0 -0.31544864432E-01  0.47993639178E-01 -0.55680802261E-02  0.57703834465E-01  0.51100000000E-03 0.  1.
</event>
<event>
 8    1  0.1070112E+005  0.1043930E+01  0.7957747E-01            NaN
         13   -1    0    0    0    0  0.00000000000E+00  0.00000000000E+00  0.74505805969E-08  0.10566000000E+00  0.10566000000E+00 0.  1.
     999900   -1    0    0    0    0 -0.00000000000E+00 -0.00000000000E+00 -0.74505805969E-08  0.93827000000E+00  0.93827000000E+00 0.  1.
     999902    2    1    2    0    0 -0.14797060650E-01  0.28442013617E-01 -0.94493695025E-02  0.10105055819E+01  0.10099526421E+01 0.  0.
     999903    2    3    3    0    0 -0.11519244070E+00  0.40916904206E-01 -0.13019811861E-01  0.12470221584E+00  0.20919744034E-01 0.  0.
         14    1    1    2    0    0  0.14797060650E-01 -0.28442013617E-01  0.94493695025E-02  0.33424418117E-01  0.00000000000E+00 0.  1.
     999901    1    3    3    0    0  0.10039538005E+00 -0.12474890590E-01  0.35704423580E-02  0.88580336604E+00  0.88000000000E+00 0.  1.
        -11    1    4    4    0    0 -0.66798882854E-01  0.30986249038E-01 -0.15437857967E-01  0.75238467286E-01  0.51100000000E-03 0. -1.
         11    1    4    4    0    0 -0.48393557848E-01  0.99306551679E-02  0.24180461061E-02  0.49463748556E-01  0.51100000000E-03 0.  1.
</event>
<event>
 8    1  0.1070112E+005  0.1043930E+01  0.7957747E-01            NaN
         13   -1    0    0    0    0  0.00000000000E+00  0.00000000000E+00  0.74505805969E-08  0.10566000000E+00  0.10566000000E+00 0.  1.
     999900   -1    0    0    0    0 -0.00000000000E+00 -0.00000000000E+00 -0.74505805969E-08  0.93827000000E+00  0.93827000000E+00 0.  1.
     999902    2    1    2    0    0 -0.21874444864E-01 -0.11419256242E-01  0.94542429596E-04  0.10192541071E+01  0.10189553647E+01 0.  0.
     999903    2    3    3    0    0 -0.12609766785E+00 -0.12621497468E-01  0.33110423106E-01  0.13248808726E+00  0.19921574073E-01 0.  0.
         14    1    1    2    0    0  0.21874444864E-01  0.11419256242E-01 -0.94542429596E-04  0.24675892882E-01  0.00000000000E+00 0. -1.
     999901    1    3    3    0    0  0.10422322298E+00  0.12022412253E-02 -0.33015880677E-01  0.88676601986E+00  0.88000000000E+00 0.  1.
        -11    1    4    4    0    0 -0.76604683869E-01 -0.15931705991E-01  0.14941778565E-01  0.79659366769E-01  0.51100000000E-03 0. -1.
         11    1    4    4    0    0 -0.49492983978E-01  0.33102085229E-02  0.18168644541E-01  0.52828720494E-01  0.51100000000E-03 0.  1.
</event>
<event>
 8    1  0.1070112E+005  0.1043930E+01  0.7957747E-01            NaN
         13   -1    0    0    0    0  0.00000000000E+00  0.00000000000E+00  0.74505805969E-08  0.10566000000E+00  0.10566000000E+00 0.  1.
     999900   -1    0    0    0    0 -0.00000000000E+00 -0.00000000000E+00 -0.74505805969E-08  0.93827000000E+00  0.93827000000E+00 0.  1.
     999902    2    1    2    0    0 -0.10783240571E-01 -0.17076455071E-01 -0.11231950292E-01  0.10208206880E+01  0.10205590805E+01 0.  0.
     999903    2    3    3    0    0 -0.11230655412E-01 -0.10087615379E+00  0.78502967841E-01  0.13229666173E+00  0.32211251435E-01 0.  0.
         14    1    1    2    0    0  0.10783240571E-01  0.17076455071E-01  0.11231950292E-01  0.23109312027E-01  0.00000000000E+00 0.  1.
     999901    1    3    3    0    0  0.44741484108E-03  0.83799698722E-01 -0.89734918133E-01  0.88852402625E+00  0.88000000000E+00 0.  1.
        -11    1    4    4    0    0  0.56931565016E-02 -0.40452031015E-02  0.90784391006E-03  0.70612322330E-02  0.51100000000E-03 0.  1.
         11    1    4    4    0    0 -0.16923811913E-01 -0.96830950691E-01  0.77595123931E-01  0.12523542949E+00  0.51100000000E-03 0. -1.
</event>
<event>
 8    1  0.1070112E+005  0.1043930E+01  0.7957747E-01            NaN
         13   -1    0    0    0    0  0.00000000000E+00  0.00000000000E+00  0.74505805969E-08  0.10566000000E+00  0.10566000000E+00 0. -1.
     999900   -1    0    0    0    0 -0.00000000000E+00 -0.00000000000E+00 -0.74505805969E-08  0.93827000000E+00  0.93827000000E+00 0.  1.
     999902    2    1    2    0    0 -0.10639480287E-01 -0.11908772967E-01 -0.16380362702E-01  0.10210535121E+01  0.10207972085E+01 0.  0.
     999903    2    3    3    0    0 -0.81639911573E-01  0.62297257384E-01  0.77221115422E-01  0.13015013192E+00  0.20734819345E-01 0.  0.
         14    1    1    2    0    0  0.10639480287E-01  0.11908772967E-01  0.16380362702E-01  0.22876487856E-01  0.00000000000E+00 0. -1.
     999901    1    3    3    0    0  0.71000431286E-01 -0.74206030351E-01 -0.93601478124E-01  0.89090338022E+00  0.88000000000E+00 0.  1.
        -11    1    4    4    0    0 -0.56114041437E-01  0.43120180593E-01  0.40701210883E-01  0.81639361273E-01  0.51100000000E-03 0. -1.
         11    1    4    4    0    0 -0.25525870136E-01  0.19177076791E-01  0.36519904540E-01  0.48510770650E-01  0.51100000000E-03 0.  1.
</event>
<event>
 8    1  0.1070112E+005  0.1043930E+01  0.7957747E-01            NaN
         13   -1    0    0    0    0  0.00000000000E+00  0.00000000000E+00  0.74505805969E-08  0.10566000000E+00  0.10566000000E+00 0. -1.
     999900   -1    0    0    0    0 -0.00000000000E+00 -0.00000000000E+00 -0.74505805969E-08  0.93827000000E+00  0.93827000000E+00 0.  1.
     999902    2    1    2    0    0 -0.22116589898E-01  0.17622563214E-02  0.15285990554E-01  0.10169872718E+01  0.10166303165E+01 0.  0.
     999903    2    3    3    0    0 -0.46208869269E-02 -0.12529584018E+00  0.79469120656E-02  0.12765959226E+00  0.22658727254E-01 0.  0.
         14    1    1    2    0    0  0.22116589898E-01 -0.17622563214E-02 -0.15285990554E-01  0.26942728208E-01  0.00000000000E+00 0.  1.
     999901    1    3    3    0    0 -0.17495702971E-01  0.12705809651E+00  0.73390784889E-02  0.88932767953E+00  0.88000000000E+00 0.  1.
        -11    1    4    4    0    0 -0.44263840078E-02 -0.39320746768E-01  0.12675297122E-01  0.41552837207E-01  0.51100000000E-03 0. -1.
         11    1    4    4    0    0 -0.19450291910E-03 -0.85975093417E-01 -0.47283850568E-02  0.86106755052E-01  0.51100000000E-03 0.  1.
</event>
<event>
 8    1  0.1070112E+005  0.1043930E+01  0.7957747E-01            NaN
         13   -1    0    0    0    0  0.00000000000E+00  0.00000000000E+00  0.74505805969E-08  0.10566000000E+00  0.10566000000E+00 0.  1.
     999900   -1    0    0    0    0 -0.00000000000E+00 -0.00000000000E+00 -0.74505805969E-08  0.93827000000E+00  0.93827000000E+00 0.  1.
     999902    2    1    2    0    0 -0.13453152507E-01 -0.16629763319E-01 -0.11328852456E-01  0.10197250576E+01  0.10194377439E+01 0.  0.
     999903    2    3    3    0    0  0.94140043879E-01 -0.45968888191E-01 -0.75071362907E-01  0.13039936481E+00  0.19819138993E-01 0.  0.
         14    1    1    2    0    0  0.13453152507E-01  0.16629763319E-01  0.11328852456E-01  0.24204942437E-01  0.00000000000E+00 0. -1.
     999901    1    3    3    0    0 -0.10759319639E+00  0.29339124872E-01  0.63742510451E-01  0.88932569276E+00  0.88000000000E+00 0. -1.
        -11    1    4    4    0    0  0.47510562031E-01 -0.33140755135E-01 -0.45983148328E-01  0.73961302088E-01  0.51100000000E-03 0.  1.
         11    1    4    4    0    0  0.46629481848E-01 -0.12828133056E-01 -0.29088214579E-01  0.56438062720E-01  0.51100000000E-03 0. -1.
</event>
<event>
 8    1  0.1070112E+005  0.1043930E+01  0.7957747E-01            NaN
         13   -1    0    0    0    0  0.00000000000E+00  0.00000000000E+00  0.74505805969E-08  0.10566000000E+00  0.10566000000E+00 0.  1.
     999900   -1    0    0    0    0 -0.00000000000E+00 -0.00000000000E+00 -0.74505805969E-08  0.93827000000E+00  0.93827000000E+00 0.  1.
     999902    2    1    2    0    0  0.17069372387E-01 -0.11657880550E-01  0.12982601793E-01  0.10195206247E+01  0.10192283780E+01 0.  0.
     999903    2    3    3    0    0  0.26545605687E-01  0.11289635670E+00  0.54790180464E-01  0.12971647174E+00  0.19342766828E-01 0.  0.
         14    1    1    2    0    0 -0.17069372387E-01  0.11657880550E-01 -0.12982601793E-01  0.24409375287E-01  0.00000000000E+00 0. -1.
     999901    1    3    3    0    0 -0.94762332999E-02 -0.12455423725E+00 -0.41807578671E-01  0.88980415297E+00  0.88000000000E+00 0.  1.
        -11    1    4    4    0    0  0.26808952041E-01  0.80526620739E-01  0.43930151191E-01  0.95568697082E-01  0.51100000000E-03 0.  1.
         11    1    4    4    0    0 -0.26334635443E-03  0.32369735958E-01  0.10860029273E-01  0.34147774658E-01  0.51100000000E-03 0. -1.
</event>
<event>
 8    1  0.1070112E+005  0.1043930E+01  0.7957747E-01            NaN
         13   -1    0    0    0    0  0.00000000000E+00  0.00000000000E+00  0.74505805969E-08  0.10566000000E+00  0.10566000000E+00 0.  1.
     999900   -1    0    0    0    0 -0.00000000000E+00 -0.00000000000E+00 -0.74505805969E-08  0.93827000000E+00  0.93827000000E+00 0. -1.
     999902    2    1    2    0    0  0.18979044262E-01  0.80833005462E-02 -0.11527632408E-01  0.10202988727E+01  0.10200251759E+01 0.  0.
     999903    2    3    3    0    0  0.71143560980E-01 -0.63472168635E-02  0.10754399195E+00  0.13063184039E+00  0.19931735734E-01 0.  0.
         14    1    1    2    0    0 -0.18979044262E-01 -0.80833005462E-02  0.11527632408E-01  0.23631127306E-01  0.00000000000E+00 0.  1.
     999901    1    3    3    0    0 -0.52164516718E-01  0.14430517410E-01 -0.11907162436E+00  0.88966703230E+00  0.88000000000E+00 0. -1.
        -11    1    4    4    0    0  0.38852242742E-01 -0.13274019706E-01  0.62303208422E-01  0.74616668821E-01  0.51100000000E-03 0. -1.
         11    1    4    4    0    0  0.32291318237E-01  0.69268028423E-02  0.45240783526E-01  0.56015171571E-01  0.51100000000E-03 0.  1.
</event>
<event>
 8    1  0.1070112E+005  0.1043930E+01  0.7957747E-01            NaN
         13   -1    0    0    0    0  0.00000000000E+00  0.00000000000E+00  0.74505805969E-08  0.10566000000E+00  0.10566000000E+00 0. -1.
     999900   -1    0    0    0    0 -0.00000000000E+00 -0.00000000000E+00 -0.74505805969E-08  0.93827000000E+00  0.93827000000E+00 0.  1.
     999902    2    1    2    0    0  0.20972940210E-01  0.12434789560E-01 -0.55287826136E-02  0.10189288870E+01  0.10186221189E+01 0.  0.
     999903    2    3    3    0    0 -0.10787052746E+00 -0.58589209827E-01  0.14462388354E-01  0.12649138526E+00  0.26873102998E-01 0.  0.
         14    1    1    2    0    0 -0.20972940210E-01 -0.12434789560E-01  0.55287826136E-02  0.25001112968E-01  0.00000000000E+00 0. -1.
     999901    1    3    3    0    0  0.12884346767E+00  0.71023999387E-01 -0.19991170968E-01  0.89243750177E+00  0.88000000000E+00 0. -1.
        -11    1    4    4    0    0 -0.16069764526E-01 -0.11847015478E-01  0.12293566673E-01  0.23451695252E-01  0.51100000000E-03 0.  1.
         11    1    4    4    0    0 -0.91800762938E-01 -0.46742194349E-01  0.21688216810E-02  0.10303969001E+00  0.51100000000E-03 0. -1.
</event>
<event>
 8    1  0.1070112E+005  0.1043930E+01  0.7957747E-01            NaN
         13   -1    0    0    0    0  0.00000000000E+00  0.00000000000E+00  0.74505805969E-08  0.10566000000E+00  0.10566000000E+00 0. -1.
     999900   -1    0    0    0    0 -0.00000000000E+00 -0.00000000000E+00 -0.74505805969E-08  0.93827000000E+00  0.93827000000E+00 0. -1.
     999902    2    1    2    0    0 -0.13553931120E-01  0.22845906356E-01  0.36638897185E-02  0.10171145460E+01  0.10167610000E+01 0.  0.
     999903    2    3    3    0    0 -0.51182371243E-01  0.45170999772E-01  0.10816130355E+00  0.12985245461E+00  0.22421820526E-01 0.  0.
         14    1    1    2    0    0  0.13553931120E-01 -0.22845906356E-01 -0.36638897185E-02  0.26815454012E-01  0.00000000000E+00 0.  1.
     999901    1    3    3    0    0  0.37628440123E-01 -0.22325093416E-01 -0.10449741383E+00  0.88726209138E+00  0.88000000000E+00 0. -1.
        -11    1    4    4    0    0 -0.38329794894E-01  0.32248083462E-01  0.58878669303E-01  0.77305050828E-01  0.51100000000E-03 0. -1.
         11    1    4    4    0    0 -0.12852576349E-01  0.12922916310E-01  0.49282634246E-01  0.52547403780E-01  0.51100000000E-03 0.  1.
</event>
<event>
 8    1  0.1070112E+005  0.1043930E+01  0.7957747E-01            NaN
         13   -1    0    0    0    0  0.00000000000E+00  0.00000000000E+00  0.74505805969E-08  0.10566000000E+00  0.10566000000E+00 0.  1.
     999900   -1    0    0    0    0 -0.00000000000E+00 -0.00000000000E+00 -0.74505805969E-08  0.93827000000E+00  0.93827000000E+00 0. -1.
     999902    2    1    2    0    0 -0.97150489460E-02 -0.14322285486E-01 -0.15099231726E-01  0.10209627007E+01  0.10207043350E+01 0.  0.
     999903    2    3    3    0    0 -0.29135116192E-01  0.57190434991E-02  0.12461437604E+00  0.12950396019E+00  0.18999224572E-01 0.  0.
         14    1    1    2    0    0  0.97150489460E-02  0.14322285486E-01  0.15099231726E-01  0.22967299281E-01  0.00000000000E+00 0. -1.
     999901    1    3    3    0    0  0.19420067246E-01 -0.20041328985E-01 -0.13971360776E+00  0.89145874053E+00  0.88000000000E+00 0. -1.
        -11    1    4    4    0    0 -0.90698605901E-03 -0.49551402525E-02  0.17311672109E-01  0.18036938510E-01  0.51100000000E-03 0. -1.
         11    1    4    4    0    0 -0.28228130133E-01  0.10674183752E-01  0.10730270393E+00  0.11146702167E+00  0.51100000000E-03 0.  1.
</event>
<event>
 8    1  0.1070112E+005  0.1043930E+01  0.7957747E-01            NaN
         13   -1    0    0    0    0  0.00000000000E+00  0.00000000000E+00  0.74505805969E-08  0.10566000000E+00  0.10566000000E+00 0.  1.
     999900   -1    0    0    0    0 -0.00000000000E+00 -0.00000000000E+00 -0.74505805969E-08  0.93827000000E+00  0.93827000000E+00 0.  1.
     999902    2    1    2    0    0  0.98322021227E-02  0.14399107323E-01 -0.13916990966E-01  0.10216210527E+01  0.10213774455E+01 0.  0.
     999903    2    3    3    0    0  0.73657294649E-01  0.65733223945E-01 -0.89266628054E-01  0.13461124345E+00  0.20134601916E-01 0.  0.
         14    1    1    2    0    0 -0.98322021227E-02 -0.14399107323E-01  0.13916990966E-01  0.22308947260E-01  0.00000000000E+00 0.  1.
     999901    1    3    3    0    0 -0.63825092526E-01 -0.51334116622E-01  0.75349637087E-01  0.88700980929E+00  0.88000000000E+00 0. -1.
        -11    1    4    4    0    0  0.33932386498E-01  0.34325334171E-01 -0.56410501564E-01  0.74243122423E-01  0.51100000000E-03 0. -1.
         11    1    4    4    0    0  0.39724908151E-01  0.31407889774E-01 -0.32856126490E-01  0.60368121029E-01  0.51100000000E-03 0.  1.
</event>
<event>
 8    1  0.1070112E+005  0.1043930E+01  0.7957747E-01            NaN
         13   -1    0    0    0    0  0.00000000000E+00  0.00000000000E+00  0.74505805969E-08  0.10566000000E+00  0.10566000000E+00 0.  1.
     999900   -1    0    0    0    0 -0.00000000000E+00 -0.00000000000E+00 -0.74505805969E-08  0.93827000000E+00  0.93827000000E+00 0.  1.
     999902    2    1    2    0    0 -0.20261957708E-01 -0.32145020857E-03  0.13212039578E-01  0.10197389221E+01  0.10194519415E+01 0.  0.
     999903    2    3    3    0    0 -0.79279369733E-01 -0.33518140283E-01 -0.95205345553E-01  0.13050363009E+00  0.23631662036E-01 0.  0.
         14    1    1    2    0    0  0.20261957708E-01  0.32145020857E-03 -0.13212039578E-01  0.24191077905E-01  0.00000000000E+00 0.  1.
     999901    1    3    3    0    0  0.59017412025E-01  0.33196690075E-01  0.10841738513E+00  0.88923529201E+00  0.88000000000E+00 0. -1.
        -11    1    4    4    0    0 -0.50341717896E-01 -0.20937995342E-01 -0.42744565085E-01  0.69282372758E-01  0.51100000000E-03 0. -1.
         11    1    4    4    0    0 -0.28937651837E-01 -0.12580144942E-01 -0.52460780468E-01  0.61221257329E-01  0.51100000000E-03 0.  1.
</event>
<event>
 8    1  0.1070112E+005  0.1043930E+01  0.7957747E-01            NaN
         13   -1    0    0    0    0  0.00000000000E+00  0.00000000000E+00  0.74505805969E-08  0.10566000000E+00  0.10566000000E+00 0. -1.
     999900   -1    0    0    0    0 -0.00000000000E+00 -0.00000000000E+00 -0.74505805969E-08  0.93827000000E+00  0.93827000000E+00 0.  1.
     999902    2    1    2    0    0 -0.59483200080E-02 -0.19696971011E-01  0.11026755472E-01  0.10205859962E+01  0.10203189860E+01 0.  0.
     999903    2    3    3    0    0  0.85318548386E-01  0.76212068872E-01  0.57151161170E-01  0.12948799596E+00  0.20331053464E-01 0.  0.
         14    1    1    2    0    0  0.59483200080E-02  0.19696971011E-01 -0.11026755472E-01  0.23344003816E-01  0.00000000000E+00 0.  1.
     999901    1    3    3    0    0 -0.91266868394E-01 -0.95909039883E-01 -0.46124405698E-01  0.89109800022E+00  0.88000000000E+00 0. -1.
        -11    1    4    4    0    0  0.59841214319E-01  0.62680710853E-01  0.36641258349E-01  0.94088710155E-01  0.51100000000E-03 0.  1.
         11    1    4    4    0    0  0.25477334067E-01  0.13531358020E-01  0.20509902821E-01  0.35399285808E-01  0.51100000000E-03 0. -1.
</event>
<event>
 8    1  0.1070112E+005  0.1043930E+01  0.7957747E-01            NaN
         13   -1    0    0    0    0  0.00000000000E+00  0.00000000000E+00  0.74505805969E-08  0.10566000000E+00  0.10566000000E+00 0.  1.
     999900   -1    0    0    0    0 -0.00000000000E+00 -0.00000000000E+00 -0.74505805969E-08  0.93827000000E+00  0.93827000000E+00 0. -1.
     999902    2    1    2    0    0  0.16227099965E-01 -0.13829218520E-01  0.11245345444E-01  0.10198255636E+01  0.10195406595E+01 0.  0.
     999903    2    3    3    0    0  0.31012208539E-01  0.12207145353E+00 -0.18869840794E-01  0.12876186415E+00  0.18982885023E-01 0.  0.
         14    1    1    2    0    0 -0.16227099965E-01  0.13829218520E-01 -0.11245345444E-01  0.24104436361E-01  0.00000000000E+00 0. -1.
     999901    1    3    3    0    0 -0.14785108573E-01 -0.13590067205E+00  0.30115186237E-01  0.89106369949E+00  0.88000000000E+00 0.  1.
        -11    1    4    4    0    0  0.69484612667E-03  0.17460601219E-01 -0.82437242413E-02  0.19328101728E-01  0.51100000000E-03 0. -1.
         11    1    4    4    0    0  0.30317362412E-01  0.10461085231E+00 -0.10626116553E-01  0.10943376242E+00  0.51100000000E-03 0.  1.
</event>
<event>
 8    1  0.1070112E+005  0.1043930E+01  0.7957747E-01            NaN
         13   -1    0    0    0    0  0.00000000000E+00  0.00000000000E+00  0.74505805969E-08  0.10566000000E+00  0.10566000000E+00 0.  1.
     999900   -1    0    0    0    0 -0.00000000000E+00 -0.00000000000E+00 -0.74505805969E-08  0.93827000000E+00  0.93827000000E+00 0.  1.
     999902    2    1    2    0    0 -0.19080921432E-01  0.33908344226E-03  0.13693226483E-01  0.10204416839E+01  0.10201713235E+01 0.  0.
     999903    2    3    3    0    0  0.18305943896E-01 -0.94804051010E-01  0.86926459921E-01  0.13150237205E+00  0.20340814870E-01 0.  0.
         14    1    1    2    0    0  0.19080921432E-01 -0.33908344226E-03 -0.13693226483E-01  0.23488316070E-01  0.00000000000E+00 0. -1.
     999901    1    3    3    0    0 -0.37386865328E-01  0.95143134452E-01 -0.73233233438E-01  0.88893931188E+00  0.88000000000E+00 0. -1.
        -11    1    4    4    0    0 -0.18294564273E-03 -0.48768104179E-01  0.38049409618E-01  0.61857741210E-01  0.51100000000E-03 0.  1.
         11    1    4    4    0    0  0.18488889538E-01 -0.46035946831E-01  0.48877050303E-01  0.69644630836E-01  0.51100000000E-03 0. -1.
</event>
<event>
 8    1  0.1070112E+005  0.1043930E+01  0.7957747E-01            NaN
         13   -1    0    0    0    0  0.00000000000E+00  0.00000000000E+00  0.74505805969E-08  0.10566000000E+00  0.10566000000E+00 0.  1.
     999900   -1    0    0    0    0 -0.00000000000E+00 -0.00000000000E+00 -0.74505805969E-08  0.93827000000E+00  0.93827000000E+00 0. -1.
     999902    2    1    2    0    0  0.81317750275E-03 -0.23568391709E-01  0.69414153574E-02  0.10193472094E+01  0.10190507445E+01 0.  0.
     999903    2    3    3    0    0 -0.40886504858E-01  0.83144746293E-01  0.86522508365E-01  0.12835915805E+00  0.20128931543E-01 0.  0.
         14    1    1    2    0    0 -0.81317750275E-03  0.23568391709E-01 -0.69414153574E-02  0.24582790577E-01  0.00000000000E+00 0. -1.
     999901    1    3    3    0    0  0.41699682361E-01 -0.10671313800E+00 -0.79581093008E-01  0.89098805138E+00  0.88000000000E+00 0. -1.
        -11    1    4    4    0    0 -0.21115358552E-01  0.63164191181E-01  0.58118234290E-01  0.88394364596E-01  0.51100000000E-03 0. -1.
         11    1    4    4    0    0 -0.19771146306E-01  0.19980555112E-01  0.28404274075E-01  0.39964793451E-01  0.51100000000E-03 0.  1.
</event>
<event>
 8    1  0.1070112E+005  0.1043930E+01  0.7957747E-01            NaN
         13   -1    0    0    0    0  0.00000000000E+00  0.00000000000E+00  0.74505805969E-08  0.10566000000E+00  0.10566000000E+00 0.  1.
     999900   -1    0    0    0    0 -0.00000000000E+00 -0.00000000000E+00 -0.74505805969E-08  0.93827000000E+00  0.93827000000E+00 0. -1.
     999902    2    1    2    0    0 -0.16574289640E-01  0.71400689362E-02  0.15099035930E-01  0.10203998375E+01  0.10201285016E+01 0.  0.
     999903    2    3    3    0    0 -0.84785210987E-01 -0.59967071355E-01  0.80711578010E-01  0.13278443444E+00  0.18241862702E-01 0.  0.
         14    1    1    2    0    0  0.16574289640E-01 -0.71400689362E-02 -0.15099035930E-01  0.23530162505E-01  0.00000000000E+00 0. -1.
     999901    1    3    3    0    0  0.68210921347E-01  0.67107140291E-01 -0.65612542079E-01  0.88761540306E+00  0.88000000000E+00 0. -1.
        -11    1    4    4    0    0 -0.10632722835E-01 -0.15801730775E-01  0.12692288005E-01  0.22893334972E-01  0.51100000000E-03 0.  1.
         11    1    4    4    0    0 -0.74152488152E-01 -0.44165340581E-01  0.68019290005E-01  0.10989109946E+00  0.51100000000E-03 0. -1.
</event>
<event>
 7    1  0.1070112E+005  0.1043930E+01  0.7957747E-01            NaN
         13   -1    0    0    0    0  0.00000000000E+00  0.00000000000E+00  0.74505805969E-08  0.10566000000E+00  0.10566000000E+00 0. -1.
     999900   -1    0    0    0    0 -0.00000000000E+00 -0.00000000000E+00 -0.74505805969E-08  0.93827000000E+00  0.93827000000E+00 0.  1.
     999903    2    1    2    0    0 -0.81592008823E-01  0.20270991145E-02 -0.33541821890E-01  0.90123564658E-01  0.18325884877E-01 0.  0.
         14    1    1    2    0    0 -0.16533428493E-01 -0.35223525451E-01 -0.50502215368E-01  0.63753625465E-01  0.00000000000E+00 0.  1.
     999901    1    1    2    0    0  0.98125437315E-01  0.33196426336E-01  0.84044037258E-01  0.89005280988E+00  0.88000000000E+00 0.  1.
        -11    1    3    3    0    0 -0.53559604070E-01  0.91242461803E-02 -0.17678420066E-01  0.57137297044E-01  0.51100000000E-03 0.  1.
         11    1    3    3    0    0 -0.28032404753E-01 -0.70971470658E-02 -0.15863401824E-01  0.32986267614E-01  0.51100000000E-03 0. -1.
</event>
<event>
 8    1  0.1371011E+005  0.1043930E+01  0.7957747E-01            NaN
         13   -1    0    0    0    0  0.00000000000E+00  0.00000000000E+00  0.74505805969E-08  0.10566000000E+00  0.10566000000E+00 0. -1.
     999900   -1    0    0    0    0 -0.00000000000E+00 -0.00000000000E+00 -0.74505805969E-08  0.93827000000E+00  0.93827000000E+00 0.  1.
     999902    2    1    2    0    0  0.24134142843E-02  0.22802261776E-01 -0.24467614005E-02  0.10208702005E+01  0.10206097256E+01 0.  0.
     999903    2    3    3    0    0 -0.75668387561E-01 -0.19044193763E-01  0.10228378453E+00  0.13024324109E+00  0.20321000945E-01 0.  0.
         14    1    1    2    0    0 -0.24134142843E-02 -0.22802261776E-01  0.24467614005E-02  0.23059799477E-01  0.00000000000E+00 0. -1.
     999901    1    3    3    0    0  0.78081801845E-01  0.41846455539E-01 -0.10473054593E+00  0.89062695943E+00  0.88000000000E+00 0.  1.
        -11    1    4    4    0    0 -0.17316791242E-01 -0.13517086018E-01  0.29787891430E-01  0.37015705723E-01  0.51100000000E-03 0. -1.
         11    1    4    4    0    0 -0.58351596319E-01 -0.55271077452E-02  0.72495893099E-01  0.93227535365E-01  0.51100000000E-03 0.  1.
</event>
<event>
 8    1  0.1070112E+005  0.1043930E+01  0.7957747E-01            NaN
         13   -1    0    0    0    0  0.00000000000E+00  0.00000000000E+00  0.74505805969E-08  0.10566000000E+00  0.10566000000E+00 0.  1.
     999900   -1    0    0    0    0 -0.00000000000E+00 -0.00000000000E+00 -0.74505805969E-08  0.93827000000E+00  0.93827000000E+00 0.  1.
     999902    2    1    2    0    0  0.24760848931E-01 -0.14876831425E-03  0.10117488854E-01  0.10171814420E+01  0.10168296813E+01 0.  0.
     999903    2    3    3    0    0  0.90811086545E-01  0.43738045134E-01  0.79996092388E-01  0.13085661135E+00  0.23757270562E-01 0.  0.
         14    1    1    2    0    0 -0.24760848931E-01  0.14876831425E-03 -0.10117488854E-01  0.26748557952E-01  0.00000000000E+00 0. -1.
     999901    1    3    3    0    0 -0.66050237615E-01 -0.43886813448E-01 -0.69878603533E-01  0.88632483070E+00  0.88000000000E+00 0.  1.
        -11    1    4    4    0    0  0.28469688075E-01  0.12801962960E-01  0.39454628670E-01  0.50312446166E-01  0.51100000000E-03 0.  1.
         11    1    4    4    0    0  0.62341398471E-01  0.30936082174E-01  0.40541463718E-01  0.80544165182E-01  0.51100000000E-03 0. -1.
</event>
<event>
 8    1  0.1070112E+005  0.1043930E+01  0.7957747E-01            NaN
         13   -1    0    0    0    0  0.00000000000E+00  0.00000000000E+00  0.74505805969E-08  0.10566000000E+00  0.10566000000E+00 0. -1.
     999900   -1    0    0    0    0 -0.00000000000E+00 -0.00000000000E+00 -0.74505805969E-08  0.93827000000E+00  0.93827000000E+00 0. -1.
     999902    2    1    2    0    0  0.14564158416E-01 -0.93872445762E-02  0.15153012734E-01  0.10209115538E+01  0.10206520229E+01 0.  0.
     999903    2    3    3    0    0  0.60079476000E-01  0.39357129860E-01 -0.10338041177E+00  0.13046344699E+00  0.34273522669E-01 0.  0.
         14    1    1    2    0    0 -0.14564158416E-01  0.93872445762E-02 -0.15153012734E-01  0.23018446212E-01  0.00000000000E+00 0.  1.
     999901    1    3    3    0    0 -0.45515317584E-01 -0.48744374436E-01  0.11853342450E+00  0.89044810680E+00  0.88000000000E+00 0.  1.
        -11    1    4    4    0    0  0.33375904061E-01  0.38417426985E-01 -0.80720776231E-01  0.95425125121E-01  0.51100000000E-03 0.  1.
         11    1    4    4    0    0  0.26703571939E-01  0.93970287492E-03 -0.22659635538E-01  0.35038321870E-01  0.51100000000E-03 0. -1.
</event>
<event>
 8    1  0.1070112E+005  0.1043930E+01  0.7957747E-01            NaN
         13   -1    0    0    0    0  0.00000000000E+00  0.00000000000E+00  0.74505805969E-08  0.10566000000E+00  0.10566000000E+00 0. -1.
     999900   -1    0    0    0    0 -0.00000000000E+00 -0.00000000000E+00 -0.74505805969E-08  0.93827000000E+00  0.93827000000E+00 0. -1.
     999902    2    1    2    0    0 -0.13359776988E-01  0.14202897285E-01 -0.13958281853E-01  0.10199500174E+01  0.10196680825E+01 0.  0.
     999903    2    3    3    0    0  0.11222427400E+00  0.32434886601E-01  0.49751558855E-01  0.12856755006E+00  0.20201182559E-01 0.  0.
         14    1    1    2    0    0  0.13359776988E-01 -0.14202897285E-01  0.13958281853E-01  0.23979982585E-01  0.00000000000E+00 0.  1.
     999901    1    3    3    0    0 -0.12558405099E+00 -0.18231989316E-01 -0.63709840708E-01  0.89138246735E+00  0.88000000000E+00 0.  1.
        -11    1    4    4    0    0  0.65778325259E-01  0.13694576684E-01  0.37725840825E-01  0.77057314328E-01  0.51100000000E-03 0. -1.
         11    1    4    4    0    0  0.46445948744E-01  0.18740309917E-01  0.12025718029E-01  0.51510235737E-01  0.51100000000E-03 0.  1.
</event>
<event>
 8    1  0.1070112E+005  0.1043930E+01  0.7957747E-01            NaN
         13   -1    0    0    0    0  0.00000000000E+00  0.00000000000E+00  0.74505805969E-08  0.10566000000E+00  0.10566000000E+00 0.  1.
     999900   -1    0    0    0    0 -0.00000000000E+00 -0.00000000000E+00 -0.74505805969E-08  0.93827000000E+00  0.93827000000E+00 0.  1.
     999902    2    1    2    0    0 -0.12208451212E-01 -0.93016762386E-02 -0.18601980481E-01  0.10198135919E+01  0.10195284013E+01 0.  0.
     999903    2    3    3    0    0 -0.62085930019E-01  0.11035464708E-01  0.11044050769E+00  0.12877300587E+00  0.20222193613E-01 0.  0.
         14    1    1    2    0    0  0.12208451212E-01  0.93016762386E-02  0.18601980481E-01  0.24116408101E-01  0.00000000000E+00 0.  1.
     999901    1    3    3    0    0  0.49877478806E-01 -0.20337140947E-01 -0.12904248817E+00  0.89104058603E+00  0.88000000000E+00 0.  1.
        -11    1    4    4    0    0 -0.31790859654E-01 -0.44562753828E-02  0.50331262033E-01  0.59699365211E-01  0.51100000000E-03 0. -1.
         11    1    4    4    0    0 -0.30295070365E-01  0.15491740091E-01  0.60109245659E-01  0.69073640661E-01  0.51100000000E-03 0.  1.
</event>
<event>
 8    1  0.1070112E+005  0.1043930E+01  0.7957747E-01            NaN
         13   -1    0    0    0    0  0.00000000000E+00  0.00000000000E+00  0.74505805969E-08  0.10566000000E+00  0.10566000000E+00 0. -1.
     999900   -1    0    0    0    0 -0.00000000000E+00 -0.00000000000E+00 -0.74505805969E-08  0.93827000000E+00  0.93827000000E+00 0. -1.
     999902    2    1    2    0    0  0.16680445648E-01 -0.55478794321E-02 -0.12325814862E-01  0.10224604414E+01  0.10222350084E+01 0.  0.
     999903    2    3    3    0    0  0.73713385839E-01 -0.84259594241E-01 -0.72713689054E-01  0.13505129923E+00  0.20450681492E-01 0.  0.
         14    1    1    2    0    0 -0.16680445648E-01  0.55478794321E-02  0.12325814862E-01  0.21469558571E-01  0.00000000000E+00 0. -1.
     999901    1    3    3    0    0 -0.57032940191E-01  0.78711714809E-01  0.60387874191E-01  0.88740914220E+00  0.88000000000E+00 0.  1.
        -11    1    4    4    0    0  0.26574848181E-01 -0.35219209405E-01 -0.17605801754E-01  0.47506216892E-01  0.51100000000E-03 0. -1.
         11    1    4    4    0    0  0.47138537658E-01 -0.49040384836E-01 -0.55107887299E-01  0.87545082335E-01  0.51100000000E-03 0.  1.
</event>
<event>
 8    1  0.1070112E+005  0.1043930E+01  0.7957747E-01            NaN
         13   -1    0    0    0    0  0.00000000000E+00  0.00000000000E+00  0.74505805969E-08  0.10566000000E+00  0.10566000000E+00 0. -1.
     999900   -1    0    0    0    0 -0.00000000000E+00 -0.00000000000E+00 -0.74505805969E-08  0.93827000000E+00  0.93827000000E+00 0. -1.
     999902    2    1    2    0    0  0.16586042943E-01 -0.20088257481E-01  0.38878388816E-02  0.10175908618E+01  0.10172499260E+01 0.  0.
     999903    2    3    3    0    0  0.70269947549E-01  0.79401257769E-02 -0.10692564300E+00  0.12857613773E+00  0.98903456338E-02 0.  0.
         14    1    1    2    0    0 -0.16586042943E-01  0.20088257481E-01 -0.38878388816E-02  0.26339138184E-01  0.00000000000E+00 0.  1.
     999901    1    3    3    0    0 -0.53683904607E-01 -0.28028383258E-01  0.11081348188E+00  0.88901472409E+00  0.88000000000E+00 0.  1.
        -11    1    4    4    0    0  0.47936959014E-01  0.87228337567E-02 -0.78822292249E-01  0.92667441665E-01  0.51100000000E-03 0. -1.
         11    1    4    4    0    0  0.22332988535E-01 -0.78270797983E-03 -0.28103350746E-01  0.35908696062E-01  0.51100000000E-03 0.  1.
</event>
<event>
 8    1  0.1070112E+005  0.1043930E+01  0.7957747E-01            NaN
         13   -1    0    0    0    0  0.00000000000E+00  0.00000000000E+00  0.74505805969E-08  0.10566000000E+00  0.10566000000E+00 0. -1.
     999900   -1    0    0    0    0 -0.00000000000E+00 -0.00000000000E+00 -0.74505805969E-08  0.93827000000E+00  0.93827000000E+00 0. -1.
     999902    2    1    2    0    0 -0.43713077489E-02 -0.21531370856E-01 -0.94987328946E-02  0.10199939563E+01  0.10197130658E+01 0.  0.
     999903    2    3    3    0    0  0.82690601473E-02  0.21071109030E-01  0.12480681031E+00  0.12869561727E+00  0.21758975456E-01 0.  0.
         14    1    1    2    0    0  0.43713077489E-02  0.21531370856E-01  0.94987328946E-02  0.23936043720E-01  0.00000000000E+00 0. -1.
     999901    1    3    3    0    0 -0.12640367896E-01 -0.42602479886E-01 -0.13430554320E+00  0.89129833901E+00  0.88000000000E+00 0. -1.
        -11    1    4    4    0    0  0.65187279946E-03  0.13421166611E-01  0.25736816465E-01  0.29037863111E-01  0.51100000000E-03 0.  1.
         11    1    4    4    0    0  0.76171873479E-02  0.76499424191E-02  0.99069993843E-01  0.99657754155E-01  0.51100000000E-03 0. -1.
</event>
<event>
 8    1  0.1070112E+005  0.1043930E+01  0.7957747E-01            NaN
         13   -1    0    0    0    0  0.00000000000E+00  0.00000000000E+00  0.74505805969E-08  0.10566000000E+00  0.10566000000E+00 0. -1.
     999900   -1    0    0    0    0 -0.00000000000E+00 -0.00000000000E+00 -0.74505805969E-08  0.93827000000E+00  0.93827000000E+00 0. -1.
     999902    2    1    2    0    0 -0.10045830052E-01  0.14034332888E-01  0.15214282630E-01  0.10209222709E+01  0.10206629844E+01 0.  0.
     999903    2    3    3    0    0  0.62331027544E-01 -0.17199288364E-01 -0.10939482404E+00  0.12865472245E+00  0.20095710125E-01 0.  0.
         14    1    1    2    0    0  0.10045830052E-01 -0.14034332888E-01 -0.15214282630E-01  0.23007729070E-01  0.00000000000E+00 0.  1.
     999901    1    3    3    0    0 -0.72376857595E-01  0.31233621251E-01  0.12460910667E+00  0.89226754848E+00  0.88000000000E+00 0.  1.
        -11    1    4    4    0    0  0.21711757009E-01 -0.96374930986E-02 -0.23914042857E-01  0.33710891896E-01  0.51100000000E-03 0. -1.
         11    1    4    4    0    0  0.40619270535E-01 -0.75617952650E-02 -0.85480781186E-01  0.94943830550E-01  0.51100000000E-03 0.  1.
</event>
<event>
 8    1  0.1070112E+005  0.1043930E+01  0.7957747E-01            NaN
         13   -1    0    0    0    0  0.00000000000E+00  0.00000000000E+00  0.74505805969E-08  0.10566000000E+00  0.10566000000E+00 0.  1.
     999900   -1    0    0    0    0 -0.00000000000E+00 -0.00000000000E+00 -0.74505805969E-08  0.93827000000E+00  0.93827000000E+00 0.  1.
     999902    2    1    2    0    0  0.97689921591E-02 -0.12526781306E-02  0.22037122495E-01  0.10197921215E+01  0.10195064168E+01 0.  0.
     999903    2    3    3    0    0  0.10605079907E+00 -0.43899748459E-01 -0.58234716587E-01  0.12988621238E+00  0.17469575031E-01 0.  0.
         14    1    1    2    0    0 -0.97689921591E-02  0.12526781306E-02 -0.22037122495E-01  0.24137878493E-01  0.00000000000E+00 0. -1.
     999901    1    3    3    0    0 -0.96281806913E-01  0.42647070328E-01  0.80271839082E-01  0.88990590913E+00  0.88000000000E+00 0. -1.
        -11    1    4    4    0    0  0.75756723729E-01 -0.22985761196E-01 -0.37033263104E-01  0.87402231694E-01  0.51100000000E-03 0.  1.
         11    1    4    4    0    0  0.30294075343E-01 -0.20913987263E-01 -0.21201453483E-01  0.42483980686E-01  0.51100000000E-03 0. -1.
</event>
<event>
 8    1  0.1070112E+005  0.1043930E+01  0.7957747E-01            NaN
         13   -1    0    0    0    0  0.00000000000E+00  0.00000000000E+00  0.74505805969E-08  0.10566000000E+00  0.10566000000E+00 0.  1.
     999900   -1    0    0    0    0 -0.00000000000E+00 -0.00000000000E+00 -0.74505805969E-08  0.93827000000E+00  0.93827000000E+00 0. -1.
     999902    2    1    2    0    0 -0.92666917651E-02 -0.62488245756E-02 -0.20914445988E-01  0.10202164293E+01  0.10199407969E+01 0.  0.
     999903    2    3    3    0    0  0.69152010651E-01 -0.10830582804E+00 -0.15057103082E-01  0.13083494010E+00  0.19465668074E-01 0.  0.
         14    1    1    2    0    0  0.92666917651E-02  0.62488245756E-02  0.20914445988E-01  0.23713570710E-01  0.00000000000E+00 0.  1.
     999901    1    3    3    0    0 -0.78418702416E-01  0.10205700346E+00 -0.58573429064E-02  0.88938148919E+00  0.88000000000E+00 0. -1.
        -11    1    4    4    0    0  0.44850376627E-01 -0.80170105646E-01 -0.17722306504E-01  0.93558235296E-01  0.51100000000E-03 0.  1.
         11    1    4    4    0    0  0.24301634024E-01 -0.28135722394E-01  0.26652034219E-02  0.37276704806E-01  0.51100000000E-03 0. -1.
</event>
<event>
 8    1  0.1070112E+005  0.1043930E+01  0.7957747E-01            NaN
         13   -1    0    0    0    0  0.00000000000E+00  0.00000000000E+00  0.74505805969E-08  0.10566000000E+00  0.10566000000E+00 0. -1.
     999900   -1    0    0    0    0 -0.00000000000E+00 -0.00000000000E+00 -0.74505805969E-08  0.93827000000E+00  0.93827000000E+00 0.  1.
     999902    2    1    2    0    0 -0.11828793291E-01  0.20625629295E-01 -0.28289727564E-02  0.10199854803E+01  0.10197043886E+01 0.  0.
     999903    2    3    3    0    0 -0.10389766932E+00 -0.75417451810E-01  0.43302904319E-02  0.12995615139E+00  0.19680755571E-01 0.  0.
         14    1    1    2    0    0  0.11828793291E-01 -0.20625629295E-01  0.28289727564E-02  0.23944519653E-01  0.00000000000E+00 0.  1.
     999901    1    3    3    0    0  0.92068876031E-01  0.96043081105E-01 -0.71592631883E-02  0.89002932896E+00  0.88000000000E+00 0. -1.
        -11    1    4    4    0    0 -0.18846701649E-01 -0.93568941620E-02  0.71398455988E-02  0.22225844137E-01  0.51100000000E-03 0. -1.
         11    1    4    4    0    0 -0.85050967673E-01 -0.66060557648E-01 -0.28095551669E-02  0.10773030725E+00  0.51100000000E-03 0.  1.
</event>
<event>
 8    1  0.1070112E+005  0.1043930E+01  0.7957747E-01            NaN
         13   -1    0    0    0    0  0.00000000000E+00  0.00000000000E+00  0.74505805969E-08  0.10566000000E+00  0.10566000000E+00 0.  1.
     999900   -1    0    0    0    0 -0.00000000000E+00 -0.00000000000E+00 -0.74505805969E-08  0.93827000000E+00  0.93827000000E+00 0.  1.
     999902    2    1    2    0    0 -0.19009926997E-01 -0.13609428455E-01 -0.27799742075E-02  0.10203859535E+01  0.10201142936E+01 0.  0.
     999903    2    3    3    0    0 -0.73542166846E-01 -0.90520494650E-01 -0.61643192640E-01  0.13339443398E+00  0.19793472688E-01 0.  0.
         14    1    1    2    0    0  0.19009926997E-01  0.13609428455E-01  0.27799742075E-02  0.23544046464E-01  0.00000000000E+00 0.  1.
     999901    1    3    3    0    0  0.54532239850E-01  0.76911066195E-01  0.58863218432E-01  0.88699151956E+00  0.88000000000E+00 0. -1.
        -11    1    4    4    0    0 -0.58467260679E-01 -0.62020699779E-01 -0.37543492800E-01  0.93138406390E-01  0.51100000000E-03 0.  1.
         11    1    4    4    0    0 -0.15074906167E-01 -0.28499794871E-01 -0.24099699840E-01  0.40256027586E-01  0.51100000000E-03 0. -1.
</event>
<event>
 8    1  0.1070112E+005  0.1043930E+01  0.7957747E-01            NaN
         13   -1    0    0    0    0  0.00000000000E+00  0.00000000000E+00  0.74505805969E-08  0.10566000000E+00  0.10566000000E+00 0.  1.
     999900   -1    0    0    0    0 -0.00000000000E+00 -0.00000000000E+00 -0.74505805969E-08  0.93827000000E+00  0.93827000000E+00 0.  1.
     999902    2    1    2    0    0  0.13853224980E-01  0.18697904333E-01  0.29840151625E-02  0.10204688019E+01  0.10201990727E+01 0.  0.
     999903    2    3    3    0    0 -0.12609125328E+00  0.17950264106E-01 -0.98832725483E-02  0.12931753359E+00  0.20102966981E-01 0.  0.
         14    1    1    2    0    0 -0.13853224980E-01 -0.18697904333E-01 -0.29840151625E-02  0.23461198079E-01  0.00000000000E+00 0. -1.
     999901    1    3    3    0    0  0.13994447826E+00  0.74764022665E-03  0.12867287711E-01  0.89115126833E+00  0.88000000000E+00 0. -1.
        -11    1    4    4    0    0 -0.31240253006E-01  0.12906361045E-02 -0.10574964570E-01  0.33010758036E-01  0.51100000000E-03 0. -1.
         11    1    4    4    0    0 -0.94851000274E-01  0.16659628002E-01  0.69169202201E-03  0.96306775551E-01  0.51100000000E-03 0.  1.
</event>
<event>
 8    1  0.1070112E+005  0.1043930E+01  0.7957747E-01            NaN
         13   -1    0    0    0    0  0.00000000000E+00  0.00000000000E+00  0.74505805969E-08  0.10566000000E+00  0.10566000000E+00 0. -1.
     999900   -1    0    0    0    0 -0.00000000000E+00 -0.00000000000E+00 -0.74505805969E-08  0.93827000000E+00  0.93827000000E+00 0.  1.
     999902    2    1    2    0    0  0.10786842891E-01 -0.65407360946E-02 -0.18571801623E-01  0.10214789639E+01  0.10212322089E+01 0.  0.
     999903    2    3    3    0    0 -0.72099327379E-01 -0.99592245905E-01 -0.44692885900E-01  0.13231586760E+00  0.19826908909E-01 0.  0.
         14    1    1    2    0    0 -0.10786842891E-01  0.65407360946E-02  0.18571801623E-01  0.22451036140E-01  0.00000000000E+00 0. -1.
     999901    1    3    3    0    0  0.82886170270E-01  0.93051509810E-01  0.26121084276E-01  0.88916309626E+00  0.88000000000E+00 0. -1.
        -11    1    4    4    0    0 -0.24100786659E-01 -0.22779401256E-01 -0.54872628455E-02  0.33617260652E-01  0.51100000000E-03 0. -1.
         11    1    4    4    0    0 -0.47998540719E-01 -0.76812844649E-01 -0.39205623054E-01  0.98698606952E-01  0.51100000000E-03 0.  1.
</event>
<event>
 8    1  0.1070112E+005  0.1043930E+01  0.7957747E-01            NaN
         13   -1    0    0    0    0  0.00000000000E+00  0.00000000000E+00  0.74505805969E-08  0.10566000000E+00  0.10566000000E+00 0. -1.
     999900   -1    0    0    0    0 -0.00000000000E+00 -0.00000000000E+00 -0.74505805969E-08  0.93827000000E+00  0.93827000000E+00 0.  1.
     999902    2    1    2    0    0 -0.13519509281E-02  0.13347815322E-01 -0.19242802470E-01  0.10204720079E+01  0.10202023532E+01 0.  0.
     999903    2    3    3    0    0  0.20794435567E-01 -0.12268103298E+00 -0.30350829856E-01  0.12967590428E+00  0.20288491195E-01 0.  0.
         14    1    1    2    0    0  0.13519509281E-02 -0.13347815322E-01  0.19242802470E-01  0.23457992073E-01  0.00000000000E+00 0. -1.
     999901    1    3    3    0    0 -0.22146386495E-01  0.13602884830E+00  0.11108027386E-01  0.89079610365E+00  0.88000000000E+00 0. -1.
        -11    1    4    4    0    0  0.58507330749E-02 -0.52514488733E-01 -0.31002628943E-02  0.52932743698E-01  0.51100000000E-03 0. -1.
         11    1    4    4    0    0  0.14943702492E-01 -0.70166544243E-01 -0.27250566962E-01  0.76743160581E-01  0.51100000000E-03 0.  1.
</event>
<event>
 8    1  0.1070112E+005  0.1043930E+01  0.7957747E-01            NaN
         13   -1    0    0    0    0  0.00000000000E+00  0.00000000000E+00  0.74505805969E-08  0.10566000000E+00  0.10566000000E+00 0. -1.
     999900   -1    0    0    0    0 -0.00000000000E+00 -0.00000000000E+00 -0.74505805969E-08  0.93827000000E+00  0.93827000000E+00 0.  1.
     999902    2    1    2    0    0  0.66871575441E-02 -0.18524314915E-01  0.14064712923E-01  0.10197290812E+01  0.10194418643E+01 0.  0.
     999903    2    3    3    0    0 -0.87638120004E-01  0.90394384986E-01  0.85726675746E-02  0.12799442130E+00  0.21389164101E-01 0.  0.
         14    1    1    2    0    0 -0.66871575441E-02  0.18524314915E-01 -0.14064712923E-01  0.24200918757E-01  0.00000000000E+00 0.  1.
     999901    1    3    3    0    0  0.94325277548E-01 -0.10891869990E+00  0.54920453489E-02  0.89173465994E+00  0.88000000000E+00 0. -1.
        -11    1    4    4    0    0 -0.52778760974E-01  0.39979248293E-01  0.80140665581E-02  0.66696508812E-01  0.51100000000E-03 0. -1.
         11    1    4    4    0    0 -0.34859359031E-01  0.50415136693E-01  0.55860101646E-03  0.61297912492E-01  0.51100000000E-03 0.  1.
</event>
<event>
 8    1  0.1070112E+005  0.1043930E+01  0.7957747E-01            NaN
         13   -1    0    0    0    0  0.00000000000E+00  0.00000000000E+00  0.74505805969E-08  0.10566000000E+00  0.10566000000E+00 0. -1.
     999900   -1    0    0    0    0 -0.00000000000E+00 -0.00000000000E+00 -0.74505805969E-08  0.93827000000E+00  0.93827000000E+00 0.  1.
     999902    2    1    2    0    0  0.22975006249E-01  0.50817657702E-02  0.16288429467E-02  0.10203433855E+01  0.10200707308E+01 0.  0.
     999903    2    3    3    0    0  0.12585632434E+00 -0.29605549898E-01  0.25402678768E-01  0.13335242117E+00  0.20524843069E-01 0.  0.
         14    1    1    2    0    0 -0.22975006249E-01 -0.50817657702E-02 -0.16288429467E-02  0.23586614527E-01  0.00000000000E+00 0.  1.
     999901    1    3    3    0    0 -0.10288131809E+00  0.34687315668E-01 -0.23773835821E-01  0.88699096430E+00  0.88000000000E+00 0.  1.
        -11    1    4    4    0    0  0.51506603441E-01 -0.22534634470E-01  0.11143972919E-01  0.57316570049E-01  0.51100000000E-03 0.  1.
         11    1    4    4    0    0  0.74349720898E-01 -0.70709154284E-02  0.14258705848E-01  0.76035851124E-01  0.51100000000E-03 0. -1.
</event>
<event>
 8    1  0.1070112E+005  0.1043930E+01  0.7957747E-01            NaN
         13   -1    0    0    0    0  0.00000000000E+00  0.00000000000E+00  0.74505805969E-08  0.10566000000E+00  0.10566000000E+00 0. -1.
     999900   -1    0    0    0    0 -0.00000000000E+00 -0.00000000000E+00 -0.74505805969E-08  0.93827000000E+00  0.93827000000E+00 0. -1.
     999902    2    1    2    0    0 -0.15562461315E-01  0.98922893993E-03  0.13246983358E-01  0.10234690288E+01  0.10232644827E+01 0.  0.
     999903    2    3    3    0    0 -0.46352279853E-01 -0.93232265239E-01  0.83799958484E-01  0.13509780838E+00  0.19702681516E-01 0.  0.
         14    1    1    2    0    0  0.15562461315E-01 -0.98922893993E-03 -0.13246983358E-01  0.20460971241E-01  0.00000000000E+00 0. -1.
     999901    1    3    3    0    0  0.30789818539E-01  0.94221494179E-01 -0.70552975127E-01  0.88837122037E+00  0.88000000000E+00 0. -1.
        -11    1    4    4    0    0 -0.19115105474E-01 -0.34482683838E-01  0.20085211377E-01  0.44250644956E-01  0.51100000000E-03 0. -1.
         11    1    4    4    0    0 -0.27237174379E-01 -0.58749581401E-01  0.63714747107E-01  0.90847163428E-01  0.51100000000E-03 0.  1.
</event>
<event>
 8    1  0.1070112E+005  0.1043930E+01  0.7957747E-01            NaN
         13   -1    0    0    0    0  0.00000000000E+00  0.00000000000E+00  0.74505805969E-08  0.10566000000E+00  0.10566000000E+00 0.  1.
     999900   -1    0    0    0    0 -0.00000000000E+00 -0.00000000000E+00 -0.74505805969E-08  0.93827000000E+00  0.93827000000E+00 0.  1.
     999902    2    1    2    0    0 -0.21967012379E-01  0.21398401769E-02 -0.90236531822E-02  0.10200856114E+01  0.10198068934E+01 0.  0.
     999903    2    3    3    0    0 -0.32019370576E-01  0.57533574098E-01 -0.11293663505E+00  0.13218504074E+00  0.19566533123E-01 0.  0.
         14    1    1    2    0    0  0.21967012379E-01 -0.21398401769E-02  0.90236531822E-02  0.23844388555E-01  0.00000000000E+00 0.  1.
     999901    1    3    3    0    0  0.10052358197E-01 -0.55393733922E-01  0.10391298186E+00  0.88790057071E+00  0.88000000000E+00 0. -1.
        -11    1    4    4    0    0 -0.31968372291E-01  0.41613453932E-01 -0.81316911924E-01  0.96779944518E-01  0.51100000000E-03 0. -1.
         11    1    4    4    0    0 -0.50998285092E-04  0.15920120166E-01 -0.31619723123E-01  0.35405096219E-01  0.51100000000E-03 0.  1.
</event>
<event>
 8    1  0.1070112E+005  0.1043930E+01  0.7957747E-01            NaN
         13   -1    0    0    0    0  0.00000000000E+00  0.00000000000E+00  0.74505805969E-08  0.10566000000E+00  0.10566000000E+00 0. -1.
     999900   -1    0    0    0    0 -0.00000000000E+00 -0.00000000000E+00 -0.74505805969E-08  0.93827000000E+00  0.93827000000E+00 0.  1.
     999902    2    1    2    0    0 -0.46714089806E-02 -0.11106959461E-02 -0.23948205313E-01  0.10195051715E+01  0.10192125502E+01 0.  0.
     999903    2    3    3    0    0  0.74806714353E-01  0.31307799737E-01  0.95953429273E-01  0.12723607933E+00  0.20142900897E-01 0.  0.
         14    1    1    2    0    0  0.46714089806E-02  0.11106959461E-02  0.23948205313E-01  0.24424828455E-01  0.00000000000E+00 0. -1.
     999901    1    3    3    0    0 -0.79478123333E-01 -0.32418495683E-01 -0.11990163459E+00  0.89226909222E+00  0.88000000000E+00 0.  1.
        -11    1    4    4    0    0  0.75129627371E-01  0.32730045378E-01  0.93444372116E-01  0.12428929391E+00  0.51100000000E-03 0.  1.
         11    1    4    4    0    0 -0.32291301812E-03 -0.14222456406E-02  0.25090571567E-02  0.29467854172E-02  0.51100000000E-03 0. -1.
</event>
<event>
 8    1  0.1070112E+005  0.1043930E+01  0.7957747E-01            NaN
         13   -1    0    0    0    0  0.00000000000E+00  0.00000000000E+00  0.74505805969E-08  0.10566000000E+00  0.10566000000E+00 0.  1.
     999900   -1    0    0    0    0 -0.00000000000E+00 -0.00000000000E+00 -0.74505805969E-08  0.93827000000E+00  0.93827000000E+00 0. -1.
     999902    2    1    2    0    0  0.19130459795E-01 -0.13272058091E-01 -0.11266655483E-02  0.10206192430E+01  0.10203530015E+01 0.  0.
     999903    2    3    3    0    0 -0.11057652124E+00  0.47509405174E-01  0.38803280660E-01  0.12814364789E+00  0.20755463766E-01 0.  0.
         14    1    1    2    0    0 -0.19130459795E-01  0.13272058091E-01  0.11266655483E-02  0.23310757027E-01  0.00000000000E+00 0. -1.
     999901    1    3    3    0    0  0.12970698104E+00 -0.60781463265E-01 -0.39929946208E-01  0.89247559508E+00  0.88000000000E+00 0. -1.
        -11    1    4    4    0    0 -0.19738682966E-01  0.16418209532E-01  0.12686351179E-01  0.28642238682E-01  0.51100000000E-03 0.  1.
         11    1    4    4    0    0 -0.90837838274E-01  0.31091195642E-01  0.26116929481E-01  0.99501409212E-01  0.51100000000E-03 0. -1.
</event>
<event>
 8    1  0.1070112E+005  0.1043930E+01  0.7957747E-01            NaN
         13   -1    0    0    0    0  0.00000000000E+00  0.00000000000E+00  0.74505805969E-08  0.10566000000E+00  0.10566000000E+00 0.  1.
     999900   -1    0    0    0    0 -0.00000000000E+00 -0.00000000000E+00 -0.74505805969E-08  0.93827000000E+00  0.93827000000E+00 0. -1.
     999902    2    1    2    0    0  0.19104009047E-01  0.10814845199E-01 -0.32715248135E-02  0.10217347998E+01  0.10214936976E+01 0.  0.
     999903    2    3    3    0    0 -0.76069554279E-01  0.22235190311E-01 -0.10288732392E+00  0.13094204112E+00  0.16704368710E-01 0.  0.
         14    1    1    2    0    0 -0.19104009047E-01 -0.10814845199E-01  0.32715248135E-02  0.22195200223E-01  0.00000000000E+00 0. -1.
     999901    1    3    3    0    0  0.95173563326E-01 -0.11420345113E-01  0.99615799105E-01  0.89079275865E+00  0.88000000000E+00 0.  1.
        -11    1    4    4    0    0 -0.32378861350E-02  0.51046966176E-02 -0.60574242787E-02  0.85729425563E-02  0.51100000000E-03 0.  1.
         11    1    4    4    0    0 -0.72831668144E-01  0.17130493694E-01 -0.96829899640E-01  0.12236909857E+00  0.51100000000E-03 0. -1.
</event>
<event>
 8    1  0.1070112E+005  0.1043930E+01  0.7957747E-01            NaN
         13   -1    0    0    0    0  0.00000000000E+00  0.00000000000E+00  0.74505805969E-08  0.10566000000E+00  0.10566000000E+00 0. -1.
     999900   -1    0    0    0    0 -0.00000000000E+00 -0.00000000000E+00 -0.74505805969E-08  0.93827000000E+00  0.93827000000E+00 0.  1.
     999902    2    1    2    0    0  0.17392940089E-01  0.15954676707E-01  0.14705012352E-02  0.10202819885E+01  0.10200078959E+01 0.  0.
     999903    2    3    3    0    0 -0.75185862263E-01  0.10497060180E+00  0.87097278912E-02  0.13092993450E+00  0.19875795885E-01 0.  0.
         14    1    1    2    0    0 -0.17392940089E-01 -0.15954676707E-01 -0.14705012352E-02  0.23648011495E-01  0.00000000000E+00 0.  1.
     999901    1    3    3    0    0  0.92578802352E-01 -0.89015925090E-01 -0.72392266560E-02  0.88935205401E+00  0.88000000000E+00 0.  1.
        -11    1    4    4    0    0 -0.31951427805E-01  0.39298622237E-01  0.12639264061E-01  0.52204286850E-01  0.51100000000E-03 0. -1.
         11    1    4    4    0    0 -0.43234434458E-01  0.65671979559E-01 -0.39295361698E-02  0.78725647648E-01  0.51100000000E-03 0.  1.
</event>
<event>
 8    1  0.1070112E+005  0.1043930E+01  0.7957747E-01            NaN
         13   -1    0    0    0    0  0.00000000000E+00  0.00000000000E+00  0.74505805969E-08  0.10566000000E+00  0.10566000000E+00 0.  1.
     999900   -1    0    0    0    0 -0.00000000000E+00 -0.00000000000E+00 -0.74505805969E-08  0.93827000000E+00  0.93827000000E+00 0.  1.
     999902    2    1    2    0    0 -0.16524829227E-01  0.10245425880E-01  0.14473172386E-01  0.10196913645E+01  0.10194032408E+01 0.  0.
     999903    2    3    3    0    0 -0.93245495383E-01  0.93086557568E-01 -0.52484104856E-02  0.13225818135E+00  0.10239683159E-01 0.  0.
         14    1    1    2    0    0  0.16524829227E-01 -0.10245425880E-01 -0.14473172386E-01  0.24238635510E-01  0.00000000000E+00 0.  1.
     999901    1    3    3    0    0  0.76720666155E-01 -0.82841131688E-01  0.19721582872E-01  0.88743318314E+00  0.88000000000E+00 0.  1.
        -11    1    4    4    0    0 -0.50368722135E-01  0.46818888808E-01  0.17268143178E-02  0.68791420450E-01  0.51100000000E-03 0. -1.
         11    1    4    4    0    0 -0.42876773247E-01  0.46267668760E-01 -0.69752248034E-02  0.63466760896E-01  0.51100000000E-03 0.  1.
</event>
<event>
 8    1  0.1070112E+005  0.1043930E+01  0.7957747E-01            NaN
         13   -1    0    0    0    0  0.00000000000E+00  0.00000000000E+00  0.74505805969E-08  0.10566000000E+00  0.10566000000E+00 0. -1.
     999900   -1    0    0    0    0 -0.00000000000E+00 -0.00000000000E+00 -0.74505805969E-08  0.93827000000E+00  0.93827000000E+00 0. -1.
     999902    2    1    2    0    0 -0.20051203442E-01  0.23797887042E-02 -0.97071030402E-02  0.10215259378E+01  0.10212802258E+01 0.  0.
     999903    2    3    3    0    0  0.21042949734E-01 -0.10485475974E+00  0.71736706442E-01  0.13033512102E+00  0.20093838532E-01 0.  0.
         14    1    1    2    0    0  0.20051203442E-01 -0.23797887042E-02  0.97071030402E-02  0.22404062203E-01  0.00000000000E+00 0. -1.
     999901    1    3    3    0    0 -0.41094153176E-01  0.10723454844E+00 -0.81443809483E-01  0.89119081678E+00  0.88000000000E+00 0. -1.
        -11    1    4    4    0    0  0.20106760550E-01 -0.57186164129E-01  0.46407799775E-01  0.76344509878E-01  0.51100000000E-03 0.  1.
         11    1    4    4    0    0  0.93618918385E-03 -0.47668595608E-01  0.25328906668E-01  0.53990611141E-01  0.51100000000E-03 0. -1.
</event>
<event>
 8    1  0.1070112E+005  0.1043930E+01  0.7957747E-01            NaN
         13   -1    0    0    0    0  0.00000000000E+00  0.00000000000E+00  0.74505805969E-08  0.10566000000E+00  0.10566000000E+00 0.  1.
     999900   -1    0    0    0    0 -0.00000000000E+00 -0.00000000000E+00 -0.74505805969E-08  0.93827000000E+00  0.93827000000E+00 0.  1.
     999902    2    1    2    0    0  0.22715064984E-01 -0.22352067983E-02 -0.75056833193E-02  0.10199028152E+01  0.10196197560E+01 0.  0.
     999903    2    3    3    0    0 -0.95512758693E-01  0.54157303373E-01  0.61640826346E-01  0.12752443510E+00  0.20178936871E-01 0.  0.
         14    1    1    2    0    0 -0.22715064984E-01  0.22352067983E-02  0.75056833193E-02  0.24027184786E-01  0.00000000000E+00 0.  1.
     999901    1    3    3    0    0  0.11822782368E+00 -0.56392510171E-01 -0.69146509665E-01  0.89237838011E+00  0.88000000000E+00 0. -1.
        -11    1    4    4    0    0 -0.70358901269E-01  0.37597984760E-01  0.54363262806E-01  0.96538121536E-01  0.51100000000E-03 0. -1.
         11    1    4    4    0    0 -0.25153857424E-01  0.16559318613E-01  0.72775635403E-02  0.30986313565E-01  0.51100000000E-03 0.  1.
</event>
<event>
 8    1  0.1070112E+005  0.1043930E+01  0.7957747E-01            NaN
         13   -1    0    0    0    0  0.00000000000E+00  0.00000000000E+00  0.74505805969E-08  0.10566000000E+00  0.10566000000E+00 0. -1.
     999900   -1    0    0    0    0 -0.00000000000E+00 -0.00000000000E+00 -0.74505805969E-08  0.93827000000E+00  0.93827000000E+00 0.  1.
     999902    2    1    2    0    0 -0.23883105914E-04  0.19964491446E-01 -0.75686457532E-02  0.10225789839E+01  0.10223560595E+01 0.  0.
     999903    2    3    3    0    0 -0.96001442686E-01 -0.86014074203E-01  0.11192301046E-01  0.13084184695E+00  0.19483925496E-01 0.  0.
         14    1    1    2    0    0  0.23883105914E-04 -0.19964491446E-01  0.75686457532E-02  0.21351016080E-01  0.00000000000E+00 0. -1.
     999901    1    3    3    0    0  0.95977559580E-01  0.10597856565E+00 -0.18760946799E-01  0.89173713697E+00  0.88000000000E+00 0.  1.
        -11    1    4    4    0    0 -0.83207777983E-01 -0.66089903244E-01  0.13172646003E-01  0.10707562445E+00  0.51100000000E-03 0.  1.
         11    1    4    4    0    0 -0.12793664703E-01 -0.19924170959E-01 -0.19803449569E-02  0.23766222504E-01  0.51100000000E-03 0. -1.
</event>
<event>
 8    1  0.1070112E+005  0.1043930E+01  0.7957747E-01            NaN
         13   -1    0    0    0    0  0.00000000000E+00  0.00000000000E+00  0.74505805969E-08  0.10566000000E+00  0.10566000000E+00 0.  1.
     999900   -1    0    0    0    0 -0.00000000000E+00 -0.00000000000E+00 -0.74505805969E-08  0.93827000000E+00  0.93827000000E+00 0.  1.
     999902    2    1    2    0    0  0.20888852130E-01  0.98711912862E-02 -0.57958333949E-02  0.10201103391E+01  0.10198322057E+01 0.  0.
     999903    2    3    3    0    0  0.66089798615E-01 -0.10105590445E+00 -0.46672376415E-01  0.13105531386E+00  0.20421245452E-01 0.  0.
         14    1    1    2    0    0 -0.20888852130E-01 -0.98711912862E-02  0.57958333949E-02  0.23819660901E-01  0.00000000000E+00 0. -1.
     999901    1    3    3    0    0 -0.45200946485E-01  0.11092709574E+00  0.40876543020E-01  0.88905502524E+00  0.88000000000E+00 0. -1.
        -11    1    4    4    0    0  0.26815864681E-01 -0.24341148201E-01 -0.11968893765E-01  0.38145742008E-01  0.51100000000E-03 0. -1.
         11    1    4    4    0    0  0.39273933933E-01 -0.76714756249E-01 -0.34703482649E-01  0.92909571853E-01  0.51100000000E-03 0.  1.
</event>
<event>
 8    1  0.1070112E+005  0.1043930E+01  0.7957747E-01            NaN
         13   -1    0    0    0    0  0.00000000000E+00  0.00000000000E+00  0.74505805969E-08  0.10566000000E+00  0.10566000000E+00 0.  1.
     999900   -1    0    0    0    0 -0.00000000000E+00 -0.00000000000E+00 -0.74505805969E-08  0.93827000000E+00  0.93827000000E+00 0.  1.
     999902    2    1    2    0    0 -0.44228420694E-03 -0.21968666584E-01  0.48348209777E-02  0.10214312574E+01  0.10211834410E+01 0.  0.
     999903    2    3    3    0    0  0.13065202425E-01 -0.11709831456E+00 -0.61303808625E-01  0.13373400015E+00  0.15617652133E-01 0.  0.
         14    1    1    2    0    0  0.44228420694E-03  0.21968666584E-01 -0.48348209777E-02  0.22498742647E-01  0.00000000000E+00 0.  1.
     999901    1    3    3    0    0 -0.13507486632E-01  0.95129647972E-01  0.66138629603E-01  0.88769725720E+00  0.88000000000E+00 0. -1.
        -11    1    4    4    0    0 -0.35756569292E-02 -0.24012795916E-01 -0.11832506994E-01  0.27012386657E-01  0.51100000000E-03 0. -1.
         11    1    4    4    0    0  0.16640859354E-01 -0.93085518640E-01 -0.49471301631E-01  0.10672161349E+00  0.51100000000E-03 0.  1.
</event>
<event>
 8    1  0.1070112E+005  0.1043930E+01  0.7957747E-01            NaN
         13   -1    0    0    0    0  0.00000000000E+00  0.00000000000E+00  0.74505805969E-08  0.10566000000E+00  0.10566000000E+00 0. -1.
     999900   -1    0    0    0    0 -0.00000000000E+00 -0.00000000000E+00 -0.74505805969E-08  0.93827000000E+00  0.93827000000E+00 0. -1.
     999902    2    1    2    0    0 -0.56255913440E-02 -0.23213192464E-01  0.45303485690E-02  0.10196190222E+01  0.10193291553E+01 0.  0.
     999903    2    3    3    0    0 -0.87998486870E-01  0.42850025614E-01  0.82926641441E-01  0.12984623019E+00  0.20083755830E-01 0.  0.
         14    1    1    2    0    0  0.56255913440E-02  0.23213192464E-01 -0.45303485690E-02  0.24310977777E-01  0.00000000000E+00 0. -1.
     999901    1    3    3    0    0  0.82372895526E-01 -0.66063218078E-01 -0.78396292872E-01  0.88977279203E+00  0.88000000000E+00 0. -1.
        -11    1    4    4    0    0 -0.23355581811E-01  0.48882767081E-02  0.28675062349E-01  0.37308159598E-01  0.51100000000E-03 0.  1.
         11    1    4    4    0    0 -0.64642905060E-01  0.37961748906E-01  0.54251579092E-01  0.92538070595E-01  0.51100000000E-03 0. -1.
</event>
<event>
 8    1  0.1070112E+005  0.1043930E+01  0.7957747E-01            NaN
         13   -1    0    0    0    0  0.00000000000E+00  0.00000000000E+00  0.74505805969E-08  0.10566000000E+00  0.10566000000E+00 0.  1.
     999900   -1    0    0    0    0 -0.00000000000E+00 -0.00000000000E+00 -0.74505805969E-08  0.93827000000E+00  0.93827000000E+00 0.  1.
     999902    2    1    2    0    0  0.63176547727E-02  0.23754026487E-01 -0.58387384850E-02  0.10186662433E+01  0.10183529142E+01 0.  0.
     999903    2    3    3    0    0 -0.37643739942E-01 -0.10204509324E+00 -0.62028363670E-01  0.12686172618E+00  0.20399202440E-01 0.  0.
         14    1    1    2    0    0 -0.63176547727E-02 -0.23754026487E-01  0.58387384850E-02  0.25263756714E-01  0.00000000000E+00 0. -1.
     999901    1    3    3    0    0  0.43961394714E-01  0.12579911972E+00  0.56189625185E-01  0.89180451710E+00  0.88000000000E+00 0. -1.
        -11    1    4    4    0    0 -0.22174672769E-01 -0.63072440995E-01 -0.49197670229E-01  0.83009160955E-01  0.51100000000E-03 0. -1.
         11    1    4    4    0    0 -0.15469067173E-01 -0.38972652241E-01 -0.12830693441E-01  0.43852565228E-01  0.51100000000E-03 0.  1.
</event>
<event>
 8    1  0.1070112E+005  0.1043930E+01  0.7957747E-01            NaN
         13   -1    0    0    0    0  0.00000000000E+00  0.00000000000E+00  0.74505805969E-08  0.10566000000E+00  0.10566000000E+00 0.  1.
     999900   -1    0    0    0    0 -0.00000000000E+00 -0.00000000000E+00 -0.74505805969E-08  0.93827000000E+00  0.93827000000E+00 0. -1.
     999902    2    1    2    0    0  0.96376913277E-02  0.20322752481E-01 -0.50329384322E-02  0.10208815764E+01  0.10206213613E+01 0.  0.
     999903    2    3    3    0    0  0.11232439941E+00  0.28605502794E-01 -0.61736509536E-01  0.13305926366E+00  0.21408539011E-01 0.  0.
         14    1    1    2    0    0 -0.96376913277E-02 -0.20322752481E-01  0.50329384322E-02  0.23048423629E-01  0.00000000000E+00 0.  1.
     999901    1    3    3    0    0 -0.10268670809E+00 -0.82827503126E-02  0.56703571104E-01  0.88782231271E+00  0.88000000000E+00 0.  1.
        -11    1    4    4    0    0  0.38390977707E-01 -0.30824088504E-03 -0.22533956073E-01  0.44519686421E-01  0.51100000000E-03 0.  1.
         11    1    4    4    0    0  0.73933421705E-01  0.28913743679E-01 -0.39202553464E-01  0.88539577239E-01  0.51100000000E-03 0. -1.
</event>
<event>
 8    1  0.1070112E+005  0.1043930E+01  0.7957747E-01            NaN
         13   -1    0    0    0    0  0.00000000000E+00  0.00000000000E+00  0.74505805969E-08  0.10566000000E+00  0.10566000000E+00 0.  1.
     999900   -1    0    0    0    0 -0.00000000000E+00 -0.00000000000E+00 -0.74505805969E-08  0.93827000000E+00  0.93827000000E+00 0. -1.
     999902    2    1    2    0    0  0.66967789433E-02 -0.17952992385E-01 -0.12462994320E-01  0.10210721127E+01  0.10208162304E+01 0.  0.
     999903    2    3    3    0    0 -0.61201226811E-01 -0.73981231428E-01 -0.90010015510E-01  0.13328675394E+00  0.21088933523E-01 0.  0.
         14    1    1    2    0    0 -0.66967789433E-02  0.17952992385E-01  0.12462994320E-01  0.22857887287E-01  0.00000000000E+00 0. -1.
     999901    1    3    3    0    0  0.67898005754E-01  0.56028239043E-01  0.77547021190E-01  0.88778535877E+00  0.88000000000E+00 0.  1.
        -11    1    4    4    0    0 -0.35662922368E-01 -0.28421180321E-01 -0.48450802138E-01  0.66538326335E-01  0.51100000000E-03 0.  1.
         11    1    4    4    0    0 -0.25538304443E-01 -0.45560051107E-01 -0.41559213372E-01  0.66748427605E-01  0.51100000000E-03 0. -1.
</event>
<event>
 8    1  0.1070112E+005  0.1043930E+01  0.7957747E-01            NaN
         13   -1    0    0    0    0  0.00000000000E+00  0.00000000000E+00  0.74505805969E-08  0.10566000000E+00  0.10566000000E+00 0. -1.
     999900   -1    0    0    0    0 -0.00000000000E+00 -0.00000000000E+00 -0.74505805969E-08  0.93827000000E+00  0.93827000000E+00 0.  1.
     999902    2    1    2    0    0 -0.79140783613E-02 -0.20609557080E-01 -0.78720218609E-02  0.10204916723E+01  0.10202224747E+01 0.  0.
     999903    2    3    3    0    0 -0.56366838184E-01  0.27038097373E-01 -0.11369416924E+00  0.13155056297E+00  0.21700399580E-01 0.  0.
         14    1    1    2    0    0  0.79140783613E-02  0.20609557080E-01  0.78720218609E-02  0.23438327745E-01  0.00000000000E+00 0.  1.
     999901    1    3    3    0    0  0.48452759822E-01 -0.47647654452E-01  0.10582214737E+00  0.88894110929E+00  0.88000000000E+00 0. -1.
        -11    1    4    4    0    0 -0.80435001051E-02 -0.54716285386E-04 -0.30870004712E-01  0.31904846023E-01  0.51100000000E-03 0.  1.
         11    1    4    4    0    0 -0.48323338078E-01  0.27092813658E-01 -0.82824164524E-01  0.99645716943E-01  0.51100000000E-03 0. -1.
</event>
<event>
 8    1  0.1070112E+005  0.1043930E+01  0.7957747E-01            NaN
         13   -1    0    0    0    0  0.00000000000E+00  0.00000000000E+00  0.74505805969E-08  0.10566000000E+00  0.10566000000E+00 0.  1.
     999900   -1    0    0    0    0 -0.00000000000E+00 -0.00000000000E+00 -0.74505805969E-08  0.93827000000E+00  0.93827000000E+00 0.  1.
     999902    2    1    2    0    0  0.13181938074E-01 -0.19988857388E-01 -0.85638296616E-02  0.10185005468E+01  0.10181830419E+01 0.  0.
     999903    2    3    3    0    0 -0.96299581276E-01 -0.18575136648E-01  0.78916101506E-01  0.12741079822E+00  0.19675247667E-01 0.  0.
         14    1    1    2    0    0 -0.13181938074E-01  0.19988857388E-01  0.85638296616E-02  0.25429453190E-01  0.00000000000E+00 0.  1.
     999901    1    3    3    0    0  0.10948151935E+00 -0.14137207399E-02 -0.87479931167E-01  0.89108974859E+00  0.88000000000E+00 0.  1.
        -11    1    4    4    0    0 -0.56664769473E-01 -0.93285560674E-02  0.33758268886E-01  0.66616813920E-01  0.51100000000E-03 0. -1.
         11    1    4    4    0    0 -0.39634811804E-01 -0.92465805803E-02  0.45157832620E-01  0.60793984300E-01  0.51100000000E-03 0.  1.
</event>
<event>
 8    1  0.1070112E+005  0.1043930E+01  0.7957747E-01            NaN
         13   -1    0    0    0    0  0.00000000000E+00  0.00000000000E+00  0.74505805969E-08  0.10566000000E+00  0.10566000000E+00 0.  1.
     999900   -1    0    0    0    0 -0.00000000000E+00 -0.00000000000E+00 -0.74505805969E-08  0.93827000000E+00  0.93827000000E+00 0.  1.
     999902    2    1    2    0    0  0.10152871654E-01 -0.11670251029E-01  0.21716649715E-01  0.10172675088E+01  0.10169180380E+01 0.  0.
     999903    2    3    3    0    0 -0.65620097061E-02 -0.12652915666E+00 -0.12871535972E-01  0.12897234499E+00  0.20383863184E-01 0.  0.
         14    1    1    2    0    0 -0.10152871654E-01  0.11670251029E-01 -0.21716649715E-01  0.26662491195E-01  0.00000000000E+00 0. -1.
     999901    1    3    3    0    0  0.16714881360E-01  0.11485890563E+00  0.34588185687E-01  0.88829516381E+00  0.88000000000E+00 0.  1.
        -11    1    4    4    0    0 -0.56020879332E-03 -0.71552234861E-01  0.24007080115E-02  0.71596512956E-01  0.51100000000E-03 0.  1.
         11    1    4    4    0    0 -0.60018009128E-02 -0.54976921799E-01 -0.15272243983E-01  0.57375832037E-01  0.51100000000E-03 0. -1.
</event>
<event>
 8    1  0.1070112E+005  0.1043930E+01  0.7957747E-01            NaN
         13   -1    0    0    0    0  0.00000000000E+00  0.00000000000E+00  0.74505805969E-08  0.10566000000E+00  0.10566000000E+00 0. -1.
     999900   -1    0    0    0    0 -0.00000000000E+00 -0.00000000000E+00 -0.74505805969E-08  0.93827000000E+00  0.93827000000E+00 0. -1.
     999902    2    1    2    0    0  0.11593482038E-01 -0.15564056551E-01 -0.13545134971E-01  0.10202631590E+01  0.10199886246E+01 0.  0.
     999903    2    3    3    0    0 -0.26535606534E-01 -0.12052429042E+00 -0.44729312643E-01  0.13265799281E+00  0.19162167178E-01 0.  0.
         14    1    1    2    0    0 -0.11593482038E-01  0.15564056551E-01  0.13545134971E-01  0.23666841012E-01  0.00000000000E+00 0. -1.
     999901    1    3    3    0    0  0.38129088572E-01  0.10496023387E+00  0.31184177672E-01  0.88760516618E+00  0.88000000000E+00 0. -1.
        -11    1    4    4    0    0 -0.23724034752E-01 -0.10718273628E+00 -0.45849146831E-01  0.11896795437E+00  0.51100000000E-03 0. -1.
         11    1    4    4    0    0 -0.28115717811E-02 -0.13341554146E-01  0.11198341875E-02  0.13690038442E-01  0.51100000000E-03 0.  1.
</event>
<event>
 8    1  0.1070112E+005  0.1043930E+01  0.7957747E-01            NaN
         13   -1    0    0    0    0  0.00000000000E+00  0.00000000000E+00  0.74505805969E-08  0.10566000000E+00  0.10566000000E+00 0.  1.
     999900   -1    0    0    0    0 -0.00000000000E+00 -0.00000000000E+00 -0.74505805969E-08  0.93827000000E+00  0.93827000000E+00 0. -1.
     999902    2    1    2    0    0  0.20130836595E-01  0.62929151866E-02 -0.10769427173E-01  0.10202481098E+01  0.10199732220E+01 0.  0.
     999903    2    3    3    0    0 -0.94735758096E-01  0.42605732586E-01 -0.75097717028E-01  0.12971395311E+00  0.19897995337E-01 0.  0.
         14    1    1    2    0    0 -0.20130836595E-01 -0.62929151866E-02  0.10769427173E-01  0.23681890237E-01  0.00000000000E+00 0.  1.
     999901    1    3    3    0    0  0.11486659469E+00 -0.36312817400E-01  0.64328289855E-01  0.89053415665E+00  0.88000000000E+00 0.  1.
        -11    1    4    4    0    0 -0.69595195669E-01  0.31752222860E-01 -0.43898201583E-01  0.88198685591E-01  0.51100000000E-03 0.  1.
         11    1    4    4    0    0 -0.25140562427E-01  0.10853509727E-01 -0.31199515444E-01  0.41515267523E-01  0.51100000000E-03 0. -1.
</event>
<event>
 8    1  0.1070112E+005  0.1043930E+01  0.7957747E-01            NaN
         13   -1    0    0    0    0  0.00000000000E+00  0.00000000000E+00  0.74505805969E-08  0.10566000000E+00  0.10566000000E+00 0.  1.
     999900   -1    0    0    0    0 -0.00000000000E+00 -0.00000000000E+00 -0.74505805969E-08  0.93827000000E+00  0.93827000000E+00 0. -1.
     999902    2    1    2    0    0 -0.21134300859E-01  0.63919389598E-02 -0.94789811542E-02  0.10199015452E+01  0.10196184557E+01 0.  0.
     999903    2    3    3    0    0 -0.72110876732E-01 -0.10385256257E+00 -0.29604285146E-01  0.13133107007E+00  0.19649503089E-01 0.  0.
         14    1    1    2    0    0  0.21134300859E-01 -0.63919389598E-02  0.94789811542E-02  0.24028454803E-01  0.00000000000E+00 0.  1.
     999901    1    3    3    0    0  0.50976575872E-01  0.11024450153E+00  0.20125303991E-01  0.88857047513E+00  0.88000000000E+00 0. -1.
        -11    1    4    4    0    0 -0.40062820824E-01 -0.71185053363E-01 -0.24502960350E-01  0.85281871588E-01  0.51100000000E-03 0. -1.
         11    1    4    4    0    0 -0.32048055908E-01 -0.32667509207E-01 -0.51013247960E-02  0.46049198483E-01  0.51100000000E-03 0.  1.
</event>
<event>
 8    1  0.1070112E+005  0.1043930E+01  0.7957747E-01            NaN
         13   -1    0    0    0    0  0.00000000000E+00  0.00000000000E+00  0.74505805969E-08  0.10566000000E+00  0.10566000000E+00 0.  1.
     999900   -1    0    0    0    0 -0.00000000000E+00 -0.00000000000E+00 -0.74505805969E-08  0.93827000000E+00  0.93827000000E+00 0. -1.
     999902    2    1    2    0    0  0.12317577286E-01 -0.41302085186E-02  0.19992787104E-01  0.10200869115E+01  0.10198082242E+01 0.  0.
     999903    2    3    3    0    0 -0.83371019046E-01  0.95888416461E-01  0.11847076992E-01  0.12922980433E+00  0.20363542586E-01 0.  0.
         14    1    1    2    0    0 -0.12317577286E-01  0.41302085186E-02 -0.19992787104E-01  0.23843088491E-01  0.00000000000E+00 0. -1.
     999901    1    3    3    0    0  0.95688596332E-01 -0.10001862498E+00  0.81457101127E-02  0.89085710717E+00  0.88000000000E+00 0. -1.
        -11    1    4    4    0    0 -0.83206311939E-01  0.89233293246E-01  0.11274532644E-01  0.12252855658E+00  0.51100000000E-03 0. -1.
         11    1    4    4    0    0 -0.16470710726E-03  0.66551232149E-02  0.57254434785E-03  0.67012477545E-02  0.51100000000E-03 0.  1.
</event>
<event>
 8    1  0.1070112E+005  0.1043930E+01  0.7957747E-01            NaN
         13   -1    0    0    0    0  0.00000000000E+00  0.00000000000E+00  0.74505805969E-08  0.10566000000E+00  0.10566000000E+00 0. -1.
     999900   -1    0    0    0    0 -0.00000000000E+00 -0.00000000000E+00 -0.74505805969E-08  0.93827000000E+00  0.93827000000E+00 0. -1.
     999902    2    1    2    0    0  0.44233682181E-02  0.11055768244E-01 -0.21357614190E-01  0.10194771089E+01  0.10191838067E+01 0.  0.
     999903    2    3    3    0    0  0.79987928793E-01  0.27817605977E-01 -0.99892065732E-01  0.13259570643E+00  0.20767970835E-01 0.  0.
         14    1    1    2    0    0 -0.44233682181E-02 -0.11055768244E-01  0.21357614190E-01  0.24452891072E-01  0.00000000000E+00 0. -1.
     999901    1    3    3    0    0 -0.75564560574E-01 -0.16761837733E-01  0.78534451541E-01  0.88688140250E+00  0.88000000000E+00 0.  1.
        -11    1    4    4    0    0  0.14710330371E-01  0.27826964908E-02 -0.75598950209E-02  0.16779462242E-01  0.51100000000E-03 0.  1.
         11    1    4    4    0    0  0.65277598421E-01  0.25034909486E-01 -0.92332170711E-01  0.11581624419E+00  0.51100000000E-03 0. -1.
</event>
<event>
 8    1  0.1070112E+005  0.1043930E+01  0.7957747E-01            NaN
         13   -1    0    0    0    0  0.00000000000E+00  0.00000000000E+00  0.74505805969E-08  0.10566000000E+00  0.10566000000E+00 0.  1.
     999900   -1    0    0    0    0 -0.00000000000E+00 -0.00000000000E+00 -0.74505805969E-08  0.93827000000E+00  0.93827000000E+00 0.  1.
     999902    2    1    2    0    0  0.18315924773E-01 -0.13745145762E-01 -0.53342570235E-02  0.10204171008E+01  0.10201461675E+01 0.  0.
     999903    2    3    3    0    0 -0.33733798513E-02  0.55381762800E-02  0.12820600477E+00  0.12986936260E+00  0.19677921514E-01 0.  0.
         14    1    1    2    0    0 -0.18315924773E-01  0.13745145762E-01  0.53342570235E-02  0.23512899232E-01  0.00000000000E+00 0. -1.
     999901    1    3    3    0    0  0.21689304624E-01 -0.19283322042E-01 -0.13354026179E+00  0.89054773817E+00  0.88000000000E+00 0.  1.
        -11    1    4    4    0    0 -0.81746457142E-02  0.87585325865E-02  0.48807779238E-01  0.50259299247E-01  0.51100000000E-03 0. -1.
         11    1    4    4    0    0  0.48012658629E-02 -0.32203563066E-02  0.79398225527E-01  0.79610063350E-01  0.51100000000E-03 0.  1.
</event>
<event>
 8    1  0.1070112E+005  0.1043930E+01  0.7957747E-01            NaN
         13   -1    0    0    0    0  0.00000000000E+00  0.00000000000E+00  0.74505805969E-08  0.10566000000E+00  0.10566000000E+00 0. -1.
     999900   -1    0    0    0    0 -0.00000000000E+00 -0.00000000000E+00 -0.74505805969E-08  0.93827000000E+00  0.93827000000E+00 0. -1.
     999902    2    1    2    0    0 -0.65300093552E-02 -0.50737537424E-02  0.21006913606E-01  0.10213540301E+01  0.10211044904E+01 0.  0.
     999903    2    3    3    0    0 -0.86451230697E-01 -0.82043770341E-01  0.56577350866E-01  0.13367332109E+00  0.21507315038E-01 0.  0.
         14    1    1    2    0    0  0.65300093552E-02  0.50737537424E-02 -0.21006913606E-01  0.22575969934E-01  0.00000000000E+00 0.  1.
     999901    1    3    3    0    0  0.79921221342E-01  0.76970016599E-01 -0.35570437260E-01  0.88768070897E+00  0.88000000000E+00 0.  1.
        -11    1    4    4    0    0 -0.34320339250E-01 -0.43734633266E-01  0.18440390433E-01  0.58573995539E-01  0.51100000000E-03 0.  1.
         11    1    4    4    0    0 -0.52130891447E-01 -0.38309137076E-01  0.38136960432E-01  0.75099325554E-01  0.51100000000E-03 0. -1.
</event>
<event>
 8    1  0.1070112E+005  0.1043930E+01  0.7957747E-01            NaN
         13   -1    0    0    0    0  0.00000000000E+00  0.00000000000E+00  0.74505805969E-08  0.10566000000E+00  0.10566000000E+00 0. -1.
     999900   -1    0    0    0    0 -0.00000000000E+00 -0.00000000000E+00 -0.74505805969E-08  0.93827000000E+00  0.93827000000E+00 0.  1.
     999902    2    1    2    0    0 -0.25362895157E-01  0.24788139487E-02 -0.17274218622E-03  0.10184456752E+01  0.10181267812E+01 0.  0.
     999903    2    3    3    0    0 -0.80636596637E-01  0.50891963165E-01  0.87625802131E-01  0.13102942595E+00  0.19954363788E-01 0.  0.
         14    1    1    2    0    0  0.25362895157E-01 -0.24788139487E-02  0.17274218622E-03  0.25484324774E-01  0.00000000000E+00 0.  1.
     999901    1    3    3    0    0  0.55273701481E-01 -0.48413149216E-01 -0.87798544317E-01  0.88741624927E+00  0.88000000000E+00 0.  1.
        -11    1    4    4    0    0 -0.41511574594E-01  0.33533692165E-01  0.38116198694E-01  0.65580675960E-01  0.51100000000E-03 0. -1.
         11    1    4    4    0    0 -0.39125022043E-01  0.17358270999E-01  0.49509603437E-01  0.65448749992E-01  0.51100000000E-03 0.  1.
</event>
<event>
 8    1  0.1070112E+005  0.1043930E+01  0.7957747E-01            NaN
         13   -1    0    0    0    0  0.00000000000E+00  0.00000000000E+00  0.74505805969E-08  0.10566000000E+00  0.10566000000E+00 0. -1.
     999900   -1    0    0    0    0 -0.00000000000E+00 -0.00000000000E+00 -0.74505805969E-08  0.93827000000E+00  0.93827000000E+00 0.  1.
     999902    2    1    2    0    0 -0.16062090564E-01  0.22215228615E-01 -0.11302987781E-01  0.10142776027E+01  0.10138440662E+01 0.  0.
     999903    2    3    3    0    0  0.11370062054E+00 -0.92695713366E-02  0.42860987758E-01  0.12255825775E+00  0.13027133538E-01 0.  0.
         14    1    1    2    0    0  0.16062090564E-01 -0.22215228615E-01  0.11302987781E-01  0.29652397348E-01  0.00000000000E+00 0. -1.
     999901    1    3    3    0    0 -0.12976271110E+00  0.31484799952E-01 -0.54163975539E-01  0.89171934490E+00  0.88000000000E+00 0.  1.
        -11    1    4    4    0    0  0.93528578545E-01 -0.67684231753E-02  0.29816293160E-01  0.98400604752E-01  0.51100000000E-03 0. -1.
         11    1    4    4    0    0  0.20172041994E-01 -0.25011481613E-02  0.13044694598E-01  0.24157653000E-01  0.51100000000E-03 0.  1.
</event>
<event>
 8    1  0.1070112E+005  0.1043930E+01  0.7957747E-01            NaN
         13   -1    0    0    0    0  0.00000000000E+00  0.00000000000E+00  0.74505805969E-08  0.10566000000E+00  0.10566000000E+00 0.  1.
     999900   -1    0    0    0    0 -0.00000000000E+00 -0.00000000000E+00 -0.74505805969E-08  0.93827000000E+00  0.93827000000E+00 0. -1.
     999902    2    1    2    0    0 -0.15884293238E-01 -0.13164018750E-01 -0.79271295006E-02  0.10218292864E+01  0.10215902549E+01 0.  0.
     999903    2    3    3    0    0 -0.12112472984E+00  0.34778137269E-01 -0.40334467127E-01  0.13367151020E+00  0.18986426459E-01 0.  0.
         14    1    1    2    0    0  0.15884293238E-01  0.13164018750E-01  0.79271295006E-02  0.22100713640E-01  0.00000000000E+00 0.  1.
     999901    1    3    3    0    0  0.10524043660E+00 -0.47942156019E-01  0.32407337626E-01  0.88815777616E+00  0.88000000000E+00 0.  1.
        -11    1    4    4    0    0 -0.35720974549E-01  0.17803059574E-01 -0.75161846512E-02  0.40616389619E-01  0.51100000000E-03 0.  1.
         11    1    4    4    0    0 -0.85403755292E-01  0.16975077695E-01 -0.32818282475E-01  0.93055120581E-01  0.51100000000E-03 0. -1.
</event>
<event>
 8    1  0.1070112E+005  0.1043930E+01  0.7957747E-01            NaN
         13   -1    0    0    0    0  0.00000000000E+00  0.00000000000E+00  0.74505805969E-08  0.10566000000E+00  0.10566000000E+00 0. -1.
     999900   -1    0    0    0    0 -0.00000000000E+00 -0.00000000000E+00 -0.74505805969E-08  0.93827000000E+00  0.93827000000E+00 0.  1.
     999902    2    1    2    0    0  0.24205102118E-02  0.10941821005E-01  0.20499157587E-01  0.10205676847E+01  0.10203002505E+01 0.  0.
     999903    2    3    3    0    0 -0.61102084722E-01  0.61334127161E-01  0.99426877159E-01  0.13332245953E+00  0.19845261441E-01 0.  0.
         14    1    1    2    0    0 -0.24205102118E-02 -0.10941821005E-01 -0.20499157587E-01  0.23362315347E-01  0.00000000000E+00 0.  1.
     999901    1    3    3    0    0  0.63522594933E-01 -0.50392306156E-01 -0.78927719572E-01  0.88724522512E+00  0.88000000000E+00 0.  1.
        -11    1    4    4    0    0 -0.21622790345E-01  0.13538170734E-01  0.19197299204E-01  0.31931560357E-01  0.51100000000E-03 0.  1.
         11    1    4    4    0    0 -0.39479294377E-01  0.47795956427E-01  0.80229577955E-01  0.10139089917E+00  0.51100000000E-03 0. -1.
</event>
<event>
 8    1  0.1070112E+005  0.1043930E+01  0.7957747E-01            NaN
         13   -1    0    0    0    0  0.00000000000E+00  0.00000000000E+00  0.74505805969E-08  0.10566000000E+00  0.10566000000E+00 0.  1.
     999900   -1    0    0    0    0 -0.00000000000E+00 -0.00000000000E+00 -0.74505805969E-08  0.93827000000E+00  0.93827000000E+00 0.  1.
     999902    2    1    2    0    0 -0.11301076495E-02 -0.23723717917E-01  0.34702673875E-02  0.10199271941E+01  0.10196447159E+01 0.  0.
     999903    2    3    3    0    0  0.12439668326E+00 -0.11613492654E-01  0.31488296246E-01  0.13049555382E+00  0.20692238859E-01 0.  0.
         14    1    1    2    0    0  0.11301076495E-02  0.23723717917E-01 -0.34702673875E-02  0.24002805895E-01  0.00000000000E+00 0.  1.
     999901    1    3    3    0    0 -0.12552679091E+00 -0.12110225263E-01 -0.28018028859E-01  0.88943164028E+00  0.88000000000E+00 0.  1.
        -11    1    4    4    0    0  0.72297718149E-01  0.30681981226E-02  0.14925759687E-01  0.73887842792E-01  0.51100000000E-03 0. -1.
         11    1    4    4    0    0  0.52098965113E-01 -0.14681690777E-01  0.16562536559E-01  0.56607711031E-01  0.51100000000E-03 0.  1.
</event>
<event>
 8    1  0.1070112E+005  0.1043930E+01  0.7957747E-01            NaN
         13   -1    0    0    0    0  0.00000000000E+00  0.00000000000E+00  0.74505805969E-08  0.10566000000E+00  0.10566000000E+00 0. -1.
     999900   -1    0    0    0    0 -0.00000000000E+00 -0.00000000000E+00 -0.74505805969E-08  0.93827000000E+00  0.93827000000E+00 0.  1.
     999902    2    1    2    0    0 -0.23383766095E-01 -0.40905723004E-02  0.30761790508E-02  0.10199926615E+01  0.10197117403E+01 0.  0.
     999903    2    3    3    0    0  0.12548052119E+00  0.14230197652E-01 -0.13575066161E-01  0.12714693537E+00  0.58481645208E-02 0.  0.
         14    1    1    2    0    0  0.23383766095E-01  0.40905723004E-02 -0.30761790508E-02  0.23937338534E-01  0.00000000000E+00 0. -1.
     999901    1    3    3    0    0 -0.14886428729E+00 -0.18320769953E-01  0.16651245212E-01  0.89284572610E+00  0.88000000000E+00 0. -1.
        -11    1    4    4    0    0  0.49332928133E-01  0.75825469417E-02 -0.73783878751E-02  0.50457254632E-01  0.51100000000E-03 0.  1.
         11    1    4    4    0    0  0.76147593060E-01  0.66476507107E-02 -0.61966782857E-02  0.76689680737E-01  0.51100000000E-03 0. -1.
</event>
<event>
 8    1  0.1070112E+005  0.1043930E+01  0.7957747E-01            NaN
         13   -1    0    0    0    0  0.00000000000E+00  0.00000000000E+00  0.74505805969E-08  0.10566000000E+00  0.10566000000E+00 0. -1.
     999900   -1    0    0    0    0 -0.00000000000E+00 -0.00000000000E+00 -0.74505805969E-08  0.93827000000E+00  0.93827000000E+00 0. -1.
     999902    2    1    2    0    0 -0.12835733674E-01  0.19700786027E-01  0.14600521025E-02  0.10203713757E+01  0.10200993753E+01 0.  0.
     999903    2    3    3    0    0  0.97818276331E-01  0.57136732685E-01 -0.61826008868E-01  0.13039896847E+00  0.18665856503E-01 0.  0.
         14    1    1    2    0    0  0.12835733674E-01 -0.19700786027E-01 -0.14600521025E-02  0.23558624349E-01  0.00000000000E+00 0. -1.
     999901    1    3    3    0    0 -0.11065401001E+00 -0.37435946658E-01  0.63286060971E-01  0.88997240718E+00  0.88000000000E+00 0.  1.
        -11    1    4    4    0    0  0.62213763330E-01  0.32336394949E-01 -0.47540106801E-01  0.84714329730E-01  0.51100000000E-03 0. -1.
         11    1    4    4    0    0  0.35604513001E-01  0.24800337736E-01 -0.14285902068E-01  0.45684638740E-01  0.51100000000E-03 0.  1.
</event>
<event>
 8    1  0.1070112E+005  0.1043930E+01  0.7957747E-01            NaN
         13   -1    0    0    0    0  0.00000000000E+00  0.00000000000E+00  0.74505805969E-08  0.10566000000E+00  0.10566000000E+00 0. -1.
     999900   -1    0    0    0    0 -0.00000000000E+00 -0.00000000000E+00 -0.74505805969E-08  0.93827000000E+00  0.93827000000E+00 0. -1.
     999902    2    1    2    0    0 -0.18965244217E-01 -0.44285024775E-02 -0.14144966085E-01  0.10198598486E+01  0.10195757640E+01 0.  0.
     999903    2    3    3    0    0 -0.66560852831E-02 -0.11642794854E+00 -0.57868955990E-01  0.13159908813E+00  0.19228449143E-01 0.  0.
         14    1    1    2    0    0  0.18965244217E-01  0.44285024775E-02  0.14144966085E-01  0.24070151390E-01  0.00000000000E+00 0.  1.
     999901    1    3    3    0    0 -0.12309158934E-01  0.11199944607E+00  0.43723989906E-01  0.88826076048E+00  0.88000000000E+00 0. -1.
        -11    1    4    4    0    0  0.61883567655E-02 -0.30796934944E-01 -0.18707525068E-01  0.36564731321E-01  0.51100000000E-03 0. -1.
         11    1    4    4    0    0 -0.12844442049E-01 -0.85631013599E-01 -0.39161430922E-01  0.95034356810E-01  0.51100000000E-03 0.  1.
</event>
<event>
 8    1  0.1070112E+005  0.1043930E+01  0.7957747E-01            NaN
         13   -1    0    0    0    0  0.00000000000E+00  0.00000000000E+00  0.74505805969E-08  0.10566000000E+00  0.10566000000E+00 0.  1.
     999900   -1    0    0    0    0 -0.00000000000E+00 -0.00000000000E+00 -0.74505805969E-08  0.93827000000E+00  0.93827000000E+00 0. -1.
     999902    2    1    2    0    0 -0.16027868784E-01 -0.16364882235E-01 -0.72053288043E-02  0.10199171136E+01  0.10196343953E+01 0.  0.
     999903    2    3    3    0    0 -0.76618772932E-01 -0.10720473785E+00 -0.60434822557E-02  0.13316772011E+00  0.18270900880E-01 0.  0.
         14    1    1    2    0    0  0.16027868784E-01  0.16364882235E-01  0.72053288043E-02  0.24012886363E-01  0.00000000000E+00 0.  1.
     999901    1    3    3    0    0  0.60590904148E-01  0.90839855612E-01 -0.11618465486E-02  0.88674939353E+00  0.88000000000E+00 0. -1.
        -11    1    4    4    0    0 -0.51891453873E-01 -0.70402140748E-01 -0.12532076419E-01  0.88354391330E-01  0.51100000000E-03 0. -1.
         11    1    4    4    0    0 -0.24727319059E-01 -0.36802597099E-01  0.64885941632E-02  0.44813328780E-01  0.51100000000E-03 0.  1.
</event>
<event>
 8    1  0.1148721E+005  0.1043930E+01  0.7957747E-01            NaN
         13   -1    0    0    0    0  0.00000000000E+00  0.00000000000E+00  0.74505805969E-08  0.10566000000E+00  0.10566000000E+00 0. -1.
     999900   -1    0    0    0    0 -0.00000000000E+00 -0.00000000000E+00 -0.74505805969E-08  0.93827000000E+00  0.93827000000E+00 0. -1.
     999902    2    1    2    0    0  0.48877762970E-02  0.22069664445E-01  0.91798564967E-02  0.10195326598E+01  0.10192407047E+01 0.  0.
     999903    2    3    3    0    0 -0.46524656802E-01 -0.11524460575E+00  0.19476780831E-01  0.12734183166E+00  0.19766999164E-01 0.  0.
         14    1    1    2    0    0 -0.48877762970E-02 -0.22069664445E-01 -0.91798564967E-02  0.24397340247E-01  0.00000000000E+00 0.  1.
     999901    1    3    3    0    0  0.51412433099E-01  0.13731427019E+00 -0.10296924334E-01  0.89219082809E+00  0.88000000000E+00 0. -1.
        -11    1    4    4    0    0 -0.14584931174E-01 -0.61192062123E-01  0.12847934042E-01  0.64206847099E-01  0.51100000000E-03 0. -1.
         11    1    4    4    0    0 -0.31939725628E-01 -0.54052543623E-01  0.66288467886E-02  0.63134984565E-01  0.51100000000E-03 0.  1.
</event>
<event>
 8    1  0.1070112E+005  0.1043930E+01  0.7957747E-01            NaN
         13   -1    0    0    0    0  0.00000000000E+00  0.00000000000E+00  0.74505805969E-08  0.10566000000E+00  0.10566000000E+00 0. -1.
     999900   -1    0    0    0    0 -0.00000000000E+00 -0.00000000000E+00 -0.74505805969E-08  0.93827000000E+00  0.93827000000E+00 0.  1.
     999902    2    1    2    0    0  0.19371458764E-01 -0.16366624633E-02 -0.13891543263E-01  0.10200363386E+01  0.10197564538E+01 0.  0.
     999903    2    3    3    0    0 -0.37954826340E-01  0.56005426476E-01  0.10670088462E+00  0.12809943110E+00  0.21147312665E-01 0.  0.
         14    1    1    2    0    0 -0.19371458764E-01  0.16366624633E-02  0.13891543263E-01  0.23893661354E-01  0.00000000000E+00 0. -1.
     999901    1    3    3    0    0  0.57326285105E-01 -0.57642088939E-01 -0.12059242788E+00  0.89193690755E+00  0.88000000000E+00 0.  1.
        -11    1    4    4    0    0 -0.78377539895E-02  0.29628295203E-01  0.50987281739E-01  0.59491430344E-01  0.51100000000E-03 0.  1.
         11    1    4    4    0    0 -0.30117072351E-01  0.26377131273E-01  0.55713602878E-01  0.68608000757E-01  0.51100000000E-03 0. -1.
</event>
<event>
 8    1  0.1070112E+005  0.1043930E+01  0.7957747E-01            NaN
         13   -1    0    0    0    0  0.00000000000E+00  0.00000000000E+00  0.74505805969E-08  0.10566000000E+00  0.10566000000E+00 0.  1.
     999900   -1    0    0    0    0 -0.00000000000E+00 -0.00000000000E+00 -0.74505805969E-08  0.93827000000E+00  0.93827000000E+00 0. -1.
     999902    2    1    2    0    0  0.12584623890E-01 -0.62384199391E-02 -0.19395428074E-01  0.10199826980E+01  0.10197015402E+01 0.  0.
     999903    2    3    3    0    0  0.27605723069E-01  0.79312871134E-01 -0.10001341768E+00  0.13203905281E+00  0.19468443104E-01 0.  0.
         14    1    1    2    0    0 -0.12584623890E-01  0.62384199391E-02  0.19395428074E-01  0.23947301977E-01  0.00000000000E+00 0.  1.
     999901    1    3    3    0    0 -0.15021099179E-01 -0.85551291073E-01  0.80617989609E-01  0.88794364521E+00  0.88000000000E+00 0.  1.
        -11    1    4    4    0    0  0.29138976435E-01  0.60473968004E-01 -0.81346888065E-01  0.10546922808E+00  0.51100000000E-03 0. -1.
         11    1    4    4    0    0 -0.15332533661E-02  0.18838903130E-01 -0.18666529618E-01  0.26569824726E-01  0.51100000000E-03 0.  1.
</event>
<event>
 8    1  0.1070112E+005  0.1043930E+01  0.7957747E-01            NaN
         13   -1    0    0    0    0  0.00000000000E+00  0.00000000000E+00  0.74505805969E-08  0.10566000000E+00  0.10566000000E+00 0.  1.
     999900   -1    0    0    0    0 -0.00000000000E+00 -0.00000000000E+00 -0.74505805969E-08  0.93827000000E+00  0.93827000000E+00 0.  1.
     999902    2    1    2    0    0 -0.20809989915E-01  0.84139359353E-03  0.11880208259E-01  0.10199528656E+01  0.10196709985E+01 0.  0.
     999903    2    3    3    0    0  0.10741917160E+00 -0.34031309179E-01 -0.55972946982E-01  0.12739313435E+00  0.19975771700E-01 0.  0.
         14    1    1    2    0    0  0.20809989915E-01 -0.84139359353E-03 -0.11880208259E-01  0.23977134351E-01  0.00000000000E+00 0. -1.
     999901    1    3    3    0    0 -0.12822916151E+00  0.34872702772E-01  0.67853155240E-01  0.89255973130E+00  0.88000000000E+00 0.  1.
        -11    1    4    4    0    0  0.97862958577E-01 -0.28782910671E-01 -0.56220328506E-01  0.11647575313E+00  0.51100000000E-03 0.  1.
         11    1    4    4    0    0  0.95562130186E-02 -0.52483985080E-02  0.24738152445E-03  0.10917381223E-01  0.51100000000E-03 0. -1.
</event>
<event>
 8    1  0.1070112E+005  0.1043930E+01  0.7957747E-01            NaN
         13   -1    0    0    0    0  0.00000000000E+00  0.00000000000E+00  0.74505805969E-08  0.10566000000E+00  0.10566000000E+00 0. -1.
     999900   -1    0    0    0    0 -0.00000000000E+00 -0.00000000000E+00 -0.74505805969E-08  0.93827000000E+00  0.93827000000E+00 0. -1.
     999902    2    1    2    0    0  0.18179146658E-01 -0.17139352473E-02 -0.15460786730E-01  0.10200039708E+01  0.10197233181E+01 0.  0.
     999903    2    3    3    0    0 -0.66989046730E-01 -0.61872193633E-01 -0.91149437890E-01  0.13062137082E+00  0.20928969424E-01 0.  0.
         14    1    1    2    0    0 -0.18179146658E-01  0.17139352473E-02  0.15460786730E-01  0.23926029206E-01  0.00000000000E+00 0.  1.
     999901    1    3    3    0    0  0.85168193388E-01  0.60158258386E-01  0.75688651160E-01  0.88938259997E+00  0.88000000000E+00 0.  1.
        -11    1    4    4    0    0 -0.42768732201E-01 -0.25696252744E-01 -0.52047289583E-01  0.72101618103E-01  0.51100000000E-03 0.  1.
         11    1    4    4    0    0 -0.24220314529E-01 -0.36175940890E-01 -0.39102148307E-01  0.58519752720E-01  0.51100000000E-03 0. -1.
</event>
<event>
 8    1  0.1070112E+005  0.1043930E+01  0.7957747E-01            NaN
         13   -1    0    0    0    0  0.00000000000E+00  0.00000000000E+00  0.74505805969E-08  0.10566000000E+00  0.10566000000E+00 0. -1.
     999900   -1    0    0    0    0 -0.00000000000E+00 -0.00000000000E+00 -0.74505805969E-08  0.93827000000E+00  0.93827000000E+00 0. -1.
     999902    2    1    2    0    0  0.67344267544E-03 -0.21571373401E-01  0.91801995991E-02  0.10204767755E+01  0.10202072317E+01 0.  0.
     999903    2    3    3    0    0  0.51054393371E-01  0.11482862490E+00  0.18081017391E-01  0.12850008056E+00  0.19828851082E-01 0.  0.
         14    1    1    2    0    0 -0.67344267544E-03  0.21571373401E-01 -0.91801995991E-02  0.23453224514E-01  0.00000000000E+00 0.  1.
     999901    1    3    3    0    0 -0.50380950696E-01 -0.13639999830E+00 -0.89008177914E-02  0.89197669492E+00  0.88000000000E+00 0. -1.
        -11    1    4    4    0    0  0.45269092131E-01  0.80531554904E-01  0.11496065665E-01  0.93096953142E-01  0.51100000000E-03 0. -1.
         11    1    4    4    0    0  0.57853012406E-02  0.34297069997E-01  0.65849517252E-02  0.35403127419E-01  0.51100000000E-03 0.  1.
</event>
<event>
 8    1  0.1070112E+005  0.1043930E+01  0.7957747E-01            NaN
         13   -1    0    0    0    0  0.00000000000E+00  0.00000000000E+00  0.74505805969E-08  0.10566000000E+00  0.10566000000E+00 0. -1.
     999900   -1    0    0    0    0 -0.00000000000E+00 -0.00000000000E+00 -0.74505805969E-08  0.93827000000E+00  0.93827000000E+00 0.  1.
     999902    2    1    2    0    0 -0.19526860981E-01  0.19998694277E-02  0.12485216369E-01  0.10206667585E+01  0.10204016138E+01 0.  0.
     999903    2    3    3    0    0  0.27470728725E-01 -0.11239904539E+00 -0.54972612151E-01  0.12946170702E+00  0.18712540059E-01 0.  0.
         14    1    1    2    0    0  0.19526860981E-01 -0.19998694277E-02 -0.12485216369E-01  0.23263241504E-01  0.00000000000E+00 0.  1.
     999901    1    3    3    0    0 -0.46997589706E-01  0.11439891482E+00  0.67457828519E-01  0.89120505148E+00  0.88000000000E+00 0. -1.
        -11    1    4    4    0    0  0.29663195095E-01 -0.10180864576E+00 -0.52624953777E-01  0.11838307470E+00  0.51100000000E-03 0. -1.
         11    1    4    4    0    0 -0.21924663698E-02 -0.10590399634E-01 -0.23476583735E-02  0.11078632317E-01  0.51100000000E-03 0.  1.
</event>
<event>
 8    1  0.1070112E+005  0.1043930E+01  0.7957747E-01            NaN
         13   -1    0    0    0    0  0.00000000000E+00  0.00000000000E+00  0.74505805969E-08  0.10566000000E+00  0.10566000000E+00 0. -1.
     999900   -1    0    0    0    0 -0.00000000000E+00 -0.00000000000E+00 -0.74505805969E-08  0.93827000000E+00  0.93827000000E+00 0. -1.
     999902    2    1    2    0    0 -0.21595083126E-01 -0.18870025480E-02  0.91369507780E-02  0.10204057091E+01  0.10201345102E+01 0.  0.
     999903    2    3    3    0    0 -0.72141509765E-01  0.94855884987E-01  0.54456295249E-01  0.13250483031E+00  0.19748559836E-01 0.  0.
         14    1    1    2    0    0  0.21595083126E-01  0.18870025480E-02 -0.91369507780E-02  0.23524290921E-01  0.00000000000E+00 0.  1.
     999901    1    3    3    0    0  0.50546426639E-01 -0.96742887535E-01 -0.45319344471E-01  0.88790087877E+00  0.88000000000E+00 0. -1.
        -11    1    4    4    0    0 -0.60429763023E-01  0.79149023795E-01  0.36920847436E-01  0.10620609363E+00  0.51100000000E-03 0. -1.
         11    1    4    4    0    0 -0.11711746741E-01  0.15706861192E-01  0.17535447813E-01  0.26298736685E-01  0.51100000000E-03 0.  1.
</event>
<event>
 8    1  0.1070112E+005  0.1043930E+01  0.7957747E-01            NaN
         13   -1    0    0    0    0  0.00000000000E+00  0.00000000000E+00  0.74505805969E-08  0.10566000000E+00  0.10566000000E+00 0. -1.
     999900   -1    0    0    0    0 -0.00000000000E+00 -0.00000000000E+00 -0.74505805969E-08  0.93827000000E+00  0.93827000000E+00 0.  1.
     999902    2    1    2    0    0  0.16600788458E-01 -0.11837576552E-01  0.12492739880E-01  0.10200180167E+01  0.10197376974E+01 0.  0.
     999903    2    3    3    0    0 -0.52059179401E-01  0.11514828042E+00 -0.59595903500E-02  0.12806505406E+00  0.19896148160E-01 0.  0.
         14    1    1    2    0    0 -0.16600788458E-01  0.11837576552E-01 -0.12492739880E-01  0.23911983309E-01  0.00000000000E+00 0.  1.
     999901    1    3    3    0    0  0.68659967860E-01 -0.12698585697E+00  0.18452330230E-01  0.89195296263E+00  0.88000000000E+00 0. -1.
        -11    1    4    4    0    0 -0.18298506877E-01  0.61581086572E-01  0.18091574336E-02  0.64269742094E-01  0.51100000000E-03 0. -1.
         11    1    4    4    0    0 -0.33760672525E-01  0.53567193844E-01 -0.77687477836E-02  0.63795311965E-01  0.51100000000E-03 0.  1.
</event>
<event>
 8    1  0.1070112E+005  0.1043930E+01  0.7957747E-01            NaN
         13   -1    0    0    0    0  0.00000000000E+00  0.00000000000E+00  0.74505805969E-08  0.10566000000E+00  0.10566000000E+00 0. -1.
     999900   -1    0    0    0    0 -0.00000000000E+00 -0.00000000000E+00 -0.74505805969E-08  0.93827000000E+00  0.93827000000E+00 0.  1.
     999902    2    1    2    0    0 -0.15063338473E-01 -0.88649449172E-03 -0.17644275679E-01  0.10207134003E+01  0.10204493300E+01 0.  0.
     999903    2    3    3    0    0  0.21753987463E-01 -0.28654283944E-01 -0.12632818125E+00  0.13282897258E+00  0.19759114859E-01 0.  0.
         14    1    1    2    0    0  0.15063338473E-01  0.88649449172E-03  0.17644275679E-01  0.23216599722E-01  0.00000000000E+00 0. -1.
     999901    1    3    3    0    0 -0.36817325936E-01  0.27767789452E-01  0.10868390557E+00  0.88788442770E+00  0.88000000000E+00 0. -1.
        -11    1    4    4    0    0  0.85547158278E-02 -0.97337473105E-02 -0.80299867455E-01  0.81340388700E-01  0.51100000000E-03 0. -1.
         11    1    4    4    0    0  0.13199271636E-01 -0.18920536633E-01 -0.46028313794E-01  0.51488583879E-01  0.51100000000E-03 0.  1.
</event>
<event>
 8    1  0.1070112E+005  0.1043930E+01  0.7957747E-01            NaN
         13   -1    0    0    0    0  0.00000000000E+00  0.00000000000E+00  0.74505805969E-08  0.10566000000E+00  0.10566000000E+00 0.  1.
     999900   -1    0    0    0    0 -0.00000000000E+00 -0.00000000000E+00 -0.74505805969E-08  0.93827000000E+00  0.93827000000E+00 0. -1.
     999902    2    1    2    0    0  0.10630528505E-01 -0.14397771675E-01 -0.14782725174E-01  0.10207172249E+01  0.10204532425E+01 0.  0.
     999903    2    3    3    0    0  0.11330528951E+00 -0.66850005597E-01  0.13668622784E-02  0.13304940831E+00  0.19830906642E-01 0.  0.
         14    1    1    2    0    0 -0.10630528505E-01  0.14397771675E-01  0.14782725174E-01  0.23212775127E-01  0.00000000000E+00 0.  1.
     999901    1    3    3    0    0 -0.10267476101E+00  0.52452233922E-01 -0.16149587453E-01  0.88766781657E+00  0.88000000000E+00 0.  1.
        -11    1    4    4    0    0  0.69802430662E-01 -0.47994253878E-01  0.83474850661E-02  0.85122085029E-01  0.51100000000E-03 0.  1.
         11    1    4    4    0    0  0.43502858851E-01 -0.18855751719E-01 -0.69806227877E-02  0.47927323279E-01  0.51100000000E-03 0. -1.
</event>
<event>
 8    1  0.1070112E+005  0.1043930E+01  0.7957747E-01            NaN
         13   -1    0    0    0    0  0.00000000000E+00  0.00000000000E+00  0.74505805969E-08  0.10566000000E+00  0.10566000000E+00 0.  1.
     999900   -1    0    0    0    0 -0.00000000000E+00 -0.00000000000E+00 -0.74505805969E-08  0.93827000000E+00  0.93827000000E+00 0.  1.
     999902    2    1    2    0    0  0.31433936527E-02  0.23130077601E-01  0.13687814045E-02  0.10205472077E+01  0.10202792991E+01 0.  0.
     999903    2    3    3    0    0  0.43793757120E-01 -0.10162580988E+00 -0.61562300441E-01  0.12859608539E+00  0.22390577193E-01 0.  0.
         14    1    1    2    0    0 -0.31433936527E-02 -0.23130077601E-01 -0.13687814045E-02  0.23382792306E-01  0.00000000000E+00 0. -1.
     999901    1    3    3    0    0 -0.40650363467E-01  0.12475588748E+00  0.62931081846E-01  0.89195112230E+00  0.88000000000E+00 0. -1.
        -11    1    4    4    0    0  0.21838146913E-01 -0.41062564296E-01 -0.37788601731E-01  0.59927275834E-01  0.51100000000E-03 0. -1.
         11    1    4    4    0    0  0.21955610207E-01 -0.60563245582E-01 -0.23773698710E-01  0.68668809559E-01  0.51100000000E-03 0.  1.
</event>
<event>
 8    1  0.1070112E+005  0.1043930E+01  0.7957747E-01            NaN
         13   -1    0    0    0    0  0.00000000000E+00  0.00000000000E+00  0.74505805969E-08  0.10566000000E+00  0.10566000000E+00 0.  1.
     999900   -1    0    0    0    0 -0.00000000000E+00 -0.00000000000E+00 -0.74505805969E-08  0.93827000000E+00  0.93827000000E+00 0.  1.
     999902    2    1    2    0    0 -0.83406535733E-02 -0.17412319237E-01 -0.14408850848E-01  0.10198391232E+01  0.10195545433E+01 0.  0.
     999903    2    3    3    0    0  0.11533875364E+00  0.49622270213E-01 -0.19974739556E-01  0.12864822833E+00  0.19646339041E-01 0.  0.
         14    1    1    2    0    0  0.83406535733E-02  0.17412319237E-01  0.14408850848E-01  0.24090876820E-01  0.00000000000E+00 0.  1.
     999901    1    3    3    0    0 -0.12367940722E+00 -0.67034589450E-01  0.55658887079E-02  0.89119089485E+00  0.88000000000E+00 0.  1.
        -11    1    4    4    0    0  0.20302729078E-01  0.17169437978E-01 -0.59046546119E-02  0.27241814836E-01  0.51100000000E-03 0. -1.
         11    1    4    4    0    0  0.95036024567E-01  0.32452832235E-01 -0.14070084944E-01  0.10140641349E+00  0.51100000000E-03 0.  1.
</event>
<event>
 8    1  0.1070112E+005  0.1043930E+01  0.7957747E-01            NaN
         13   -1    0    0    0    0  0.00000000000E+00  0.00000000000E+00  0.74505805969E-08  0.10566000000E+00  0.10566000000E+00 0.  1.
     999900   -1    0    0    0    0 -0.00000000000E+00 -0.00000000000E+00 -0.74505805969E-08  0.93827000000E+00  0.93827000000E+00 0.  1.
     999902    2    1    2    0    0  0.14931273832E-01 -0.12986669052E-01  0.12884617847E-01  0.10203162352E+01  0.10200429451E+01 0.  0.
     999903    2    3    3    0    0  0.86305545151E-01 -0.70279556041E-01  0.71383347669E-01  0.13363767850E+00  0.19379981158E-01 0.  0.
         14    1    1    2    0    0 -0.14931273832E-01  0.12986669052E-01 -0.12884617847E-01  0.23613764807E-01  0.00000000000E+00 0. -1.
     999901    1    3    3    0    0 -0.71374271319E-01  0.57292886990E-01 -0.58498729821E-01  0.88667855669E+00  0.88000000000E+00 0.  1.
        -11    1    4    4    0    0  0.71349951940E-01 -0.57632566728E-01  0.49352850898E-01  0.10415514103E+00  0.51100000000E-03 0.  1.
         11    1    4    4    0    0  0.14955593210E-01 -0.12646989313E-01  0.22030496771E-01  0.29482537474E-01  0.51100000000E-03 0. -1.
</event>
<event>
 8    1  0.1070112E+005  0.1043930E+01  0.7957747E-01            NaN
         13   -1    0    0    0    0  0.00000000000E+00  0.00000000000E+00  0.74505805969E-08  0.10566000000E+00  0.10566000000E+00 0. -1.
     999900   -1    0    0    0    0 -0.00000000000E+00 -0.00000000000E+00 -0.74505805969E-08  0.93827000000E+00  0.93827000000E+00 0.  1.
     999902    2    1    2    0    0 -0.12361775691E-01  0.12344440500E-01 -0.16188784427E-01  0.10201124550E+01  0.10198343715E+01 0.  0.
     999903    2    3    3    0    0 -0.11560188467E+00 -0.57426951629E-01  0.91301430311E-02  0.13097376200E+00  0.20226623795E-01 0.  0.
         14    1    1    2    0    0  0.12361775691E-01 -0.12344440500E-01  0.16188784427E-01  0.23817545019E-01  0.00000000000E+00 0. -1.
     999901    1    3    3    0    0  0.10324010898E+00  0.69771392129E-01 -0.25318927458E-01  0.88913869298E+00  0.88000000000E+00 0. -1.
        -11    1    4    4    0    0 -0.12603865914E-01 -0.10514930023E-01 -0.43659620255E-02  0.16992467001E-01  0.51100000000E-03 0.  1.
         11    1    4    4    0    0 -0.10299801875E+00 -0.46912021605E-01  0.13496105057E-01  0.11398129500E+00  0.51100000000E-03 0. -1.
</event>
<event>
 8    1  0.1070112E+005  0.1043930E+01  0.7957747E-01            NaN
         13   -1    0    0    0    0  0.00000000000E+00  0.00000000000E+00  0.74505805969E-08  0.10566000000E+00  0.10566000000E+00 0.  1.
     999900   -1    0    0    0    0 -0.00000000000E+00 -0.00000000000E+00 -0.74505805969E-08  0.93827000000E+00  0.93827000000E+00 0.  1.
     999902    2    1    2    0    0 -0.24394460665E-01  0.56930581041E-03  0.46512151437E-02  0.10190895567E+01  0.10187867672E+01 0.  0.
     999903    2    3    3    0    0  0.88247741461E-01  0.31054296090E-01  0.85538418133E-01  0.12770841493E+00  0.15510805503E-01 0.  0.
         14    1    1    2    0    0  0.24394460665E-01 -0.56930581041E-03 -0.46512151437E-02  0.24840443284E-01  0.00000000000E+00 0.  1.
     999901    1    3    3    0    0 -0.11264220213E+00 -0.30484990280E-01 -0.80887202989E-01  0.89138114179E+00  0.88000000000E+00 0.  1.
        -11    1    4    4    0    0  0.39914323244E-01  0.75185932329E-02  0.30728106625E-01  0.50932898032E-01  0.51100000000E-03 0. -1.
         11    1    4    4    0    0  0.48333418217E-01  0.23535702857E-01  0.54810311509E-01  0.76775516893E-01  0.51100000000E-03 0.  1.
</event>
<event>
 8    1  0.1070112E+005  0.1043930E+01  0.7957747E-01            NaN
         13   -1    0    0    0    0  0.00000000000E+00  0.00000000000E+00  0.74505805969E-08  0.10566000000E+00  0.10566000000E+00 0.  1.
     999900   -1    0    0    0    0 -0.00000000000E+00 -0.00000000000E+00 -0.74505805969E-08  0.93827000000E+00  0.93827000000E+00 0.  1.
     999902    2    1    2    0    0  0.33655280103E-02  0.13075333171E-01 -0.18695024627E-01  0.10208693178E+01  0.10206088227E+01 0.  0.
     999903    2    3    3    0    0 -0.10698327231E-01  0.68168557415E-01 -0.11305685486E+00  0.13399998676E+00  0.20315944411E-01 0.  0.
         14    1    1    2    0    0 -0.33655280103E-02 -0.13075333171E-01  0.18695024627E-01  0.23060682170E-01  0.00000000000E+00 0.  1.
     999901    1    3    3    0    0  0.14063855241E-01 -0.55093224245E-01  0.94361830229E-01  0.88686933107E+00  0.88000000000E+00 0. -1.
        -11    1    4    4    0    0 -0.76443638743E-03  0.16151401383E-03 -0.10505082994E-01  0.10546484698E-01  0.51100000000E-03 0.  1.
         11    1    4    4    0    0 -0.99338908435E-02  0.68007043402E-01 -0.10255177186E+00  0.12345350207E+00  0.51100000000E-03 0. -1.
</event>
<event>
 8    1  0.1070112E+005  0.1043930E+01  0.7957747E-01            NaN
         13   -1    0    0    0    0  0.00000000000E+00  0.00000000000E+00  0.74505805969E-08  0.10566000000E+00  0.10566000000E+00 0. -1.
     999900   -1    0    0    0    0 -0.00000000000E+00 -0.00000000000E+00 -0.74505805969E-08  0.93827000000E+00  0.93827000000E+00 0. -1.
     999902    2    1    2    0    0  0.10053179265E-01 -0.19217578594E-01 -0.10974390265E-01  0.10196232318E+01  0.10193334664E+01 0.  0.
     999903    2    3    3    0    0 -0.10845364225E+00 -0.13217701011E-01  0.64370741468E-01  0.12846850101E+00  0.20583081802E-01 0.  0.
         14    1    1    2    0    0 -0.10053179265E-01  0.19217578594E-01  0.10974390265E-01  0.24306768235E-01  0.00000000000E+00 0.  1.
     999901    1    3    3    0    0  0.11850682152E+00 -0.59998775832E-02 -0.75345131733E-01  0.89115473076E+00  0.88000000000E+00 0. -1.
        -11    1    4    4    0    0 -0.24933906897E-01 -0.60740240105E-02  0.25095205436E-01  0.35897408509E-01  0.51100000000E-03 0.  1.
         11    1    4    4    0    0 -0.83519735353E-01 -0.71436770000E-02  0.39275536032E-01  0.92571092497E-01  0.51100000000E-03 0. -1.
</event>
<event>
 8    1  0.1070112E+005  0.1043930E+01  0.7957747E-01            NaN
         13   -1    0    0    0    0  0.00000000000E+00  0.00000000000E+00  0.74505805969E-08  0.10566000000E+00  0.10566000000E+00 0. -1.
     999900   -1    0    0    0    0 -0.00000000000E+00 -0.00000000000E+00 -0.74505805969E-08  0.93827000000E+00  0.93827000000E+00 0.  1.
     999902    2    1    2    0    0 -0.20103804830E-01 -0.11870843688E-01  0.65227293269E-02  0.10196890038E+01  0.10194008233E+01 0.  0.
     999903    2    3    3    0    0 -0.72068350867E-01  0.39251564049E-01  0.10089866939E+00  0.13164585582E+00  0.20385224925E-01 0.  0.
         14    1    1    2    0    0  0.20103804830E-01  0.11870843688E-01 -0.65227293269E-02  0.24240996192E-01  0.00000000000E+00 0. -1.
     999901    1    3    3    0    0  0.51964546036E-01 -0.51122407737E-01 -0.94375940058E-01  0.88804314798E+00  0.88000000000E+00 0.  1.
        -11    1    4    4    0    0 -0.34579375110E-01  0.26480094168E-01  0.40878952341E-01  0.59735068726E-01  0.51100000000E-03 0.  1.
         11    1    4    4    0    0 -0.37488975756E-01  0.12771469881E-01  0.60019717044E-01  0.71910787099E-01  0.51100000000E-03 0. -1.
</event>
<event>
 8    1  0.1070112E+005  0.1043930E+01  0.7957747E-01            NaN
         13   -1    0    0    0    0  0.00000000000E+00  0.00000000000E+00  0.74505805969E-08  0.10566000000E+00  0.10566000000E+00 0. -1.
     999900   -1    0    0    0    0 -0.00000000000E+00 -0.00000000000E+00 -0.74505805969E-08  0.93827000000E+00  0.93827000000E+00 0.  1.
     999902    2    1    2    0    0  0.16536043042E-01  0.15985555688E-01  0.43156216433E-02  0.10205290748E+01  0.10202607457E+01 0.  0.
     999903    2    3    3    0    0 -0.61901915318E-01  0.10559558564E+00 -0.42939792379E-01  0.13125097154E+00  0.20017915354E-01 0.  0.
         14    1    1    2    0    0 -0.16536043042E-01 -0.15985555688E-01 -0.43156216433E-02  0.23400925202E-01  0.00000000000E+00 0. -1.
     999901    1    3    3    0    0  0.78437958360E-01 -0.89610029948E-01  0.47255414022E-01  0.88927810326E+00  0.88000000000E+00 0. -1.
        -11    1    4    4    0    0 -0.24937494958E-01  0.28543827005E-01 -0.19529697434E-01  0.42641516363E-01  0.51100000000E-03 0.  1.
         11    1    4    4    0    0 -0.36964420360E-01  0.77051758630E-01 -0.23410094945E-01  0.88609455178E-01  0.51100000000E-03 0. -1.
</event>
<event>
 8    1  0.1070112E+005  0.1043930E+01  0.7957747E-01            NaN
         13   -1    0    0    0    0  0.00000000000E+00  0.00000000000E+00  0.74505805969E-08  0.10566000000E+00  0.10566000000E+00 0. -1.
     999900   -1    0    0    0    0 -0.00000000000E+00 -0.00000000000E+00 -0.74505805969E-08  0.93827000000E+00  0.93827000000E+00 0. -1.
     999902    2    1    2    0    0 -0.91880728534E-02  0.20975056472E-01  0.50806242246E-02  0.10204739471E+01  0.10202043375E+01 0.  0.
     999903    2    3    3    0    0 -0.80195360609E-01  0.59192542804E-01  0.85819627728E-01  0.13310626799E+00  0.20425892609E-01 0.  0.
         14    1    1    2    0    0  0.91880728534E-02 -0.20975056472E-01 -0.50806242246E-02  0.23456052935E-01  0.00000000000E+00 0.  1.
     999901    1    3    3    0    0  0.71007287756E-01 -0.38217486332E-01 -0.80739003503E-01  0.88736767907E+00  0.88000000000E+00 0. -1.
        -11    1    4    4    0    0 -0.60661088600E-01  0.49632090993E-01  0.76216247503E-01  0.10932652757E+00  0.51100000000E-03 0. -1.
         11    1    4    4    0    0 -0.19534272009E-01  0.95604518111E-02  0.96033802247E-02  0.23779740421E-01  0.51100000000E-03 0.  1.
</event>
<event>
 8    1  0.1070112E+005  0.1043930E+01  0.7957747E-01            NaN
         13   -1    0    0    0    0  0.00000000000E+00  0.00000000000E+00  0.74505805969E-08  0.10566000000E+00  0.10566000000E+00 0.  1.
     999900   -1    0    0    0    0 -0.00000000000E+00 -0.00000000000E+00 -0.74505805969E-08  0.93827000000E+00  0.93827000000E+00 0.  1.
     999902    2    1    2    0    0  0.13956694493E-01 -0.78374054639E-02  0.17516998187E-01  0.10202011258E+01  0.10199251333E+01 0.  0.
     999903    2    3    3    0    0 -0.85065503679E-01  0.87030475133E-01  0.38989418947E-01  0.12932157425E+00  0.19835605856E-01 0.  0.
         14    1    1    2    0    0 -0.13956694493E-01  0.78374054639E-02 -0.17516998187E-01  0.23728874205E-01  0.00000000000E+00 0. -1.
     999901    1    3    3    0    0  0.99022198171E-01 -0.94867880597E-01 -0.21472420760E-01  0.89087955154E+00  0.88000000000E+00 0. -1.
        -11    1    4    4    0    0 -0.18656026299E-01  0.89006044297E-02  0.47570776517E-02  0.21216950424E-01  0.51100000000E-03 0.  1.
         11    1    4    4    0    0 -0.66409477379E-01  0.78129870704E-01  0.34232341295E-01  0.10810462383E+00  0.51100000000E-03 0. -1.
</event>
<event>
 8    1  0.1070112E+005  0.1043930E+01  0.7957747E-01            NaN
         13   -1    0    0    0    0  0.00000000000E+00  0.00000000000E+00  0.74505805969E-08  0.10566000000E+00  0.10566000000E+00 0. -1.
     999900   -1    0    0    0    0 -0.00000000000E+00 -0.00000000000E+00 -0.74505805969E-08  0.93827000000E+00  0.93827000000E+00 0. -1.
     999902    2    1    2    0    0 -0.31524858613E-02  0.42508545972E-02  0.23437021618E-01  0.10199028921E+01  0.10196198347E+01 0.  0.
     999903    2    3    3    0    0  0.17968745186E-03 -0.11955632134E+00 -0.43152547452E-01  0.12873877090E+00  0.20439728995E-01 0.  0.
         14    1    1    2    0    0  0.31524858613E-02 -0.42508545972E-02 -0.23437021618E-01  0.24027107904E-01  0.00000000000E+00 0.  1.
     999901    1    3    3    0    0 -0.33321733132E-02  0.12380717594E+00  0.66589569070E-01  0.89116412119E+00  0.88000000000E+00 0.  1.
        -11    1    4    4    0    0 -0.37733688362E-02 -0.83588799340E-02  0.53443120996E-03  0.92008653856E-02  0.51100000000E-03 0. -1.
         11    1    4    4    0    0  0.39530562880E-02 -0.11119744141E+00 -0.43686978662E-01  0.11953790552E+00  0.51100000000E-03 0.  1.
</event>
<event>
 8    1  0.1070112E+005  0.1043930E+01  0.7957747E-01            NaN
         13   -1    0    0    0    0  0.00000000000E+00  0.00000000000E+00  0.74505805969E-08  0.10566000000E+00  0.10566000000E+00 0. -1.
     999900   -1    0    0    0    0 -0.00000000000E+00 -0.00000000000E+00 -0.74505805969E-08  0.93827000000E+00  0.93827000000E+00 0. -1.
     999902    2    1    2    0    0 -0.16370722685E-01 -0.70565159621E-02  0.15509436006E-01  0.10203008319E+01  0.10200271810E+01 0.  0.
     999903    2    3    3    0    0  0.77483249992E-01  0.42090892123E-01 -0.90252906583E-01  0.12765884937E+00  0.19388074854E-01 0.  0.
         14    1    1    2    0    0  0.16370722685E-01  0.70565159621E-02 -0.15509436006E-01  0.23629168076E-01  0.00000000000E+00 0.  1.
     999901    1    3    3    0    0 -0.93853972677E-01 -0.49147408085E-01  0.10576234259E+00  0.89264198255E+00  0.88000000000E+00 0.  1.
        -11    1    4    4    0    0  0.32184878694E-01  0.75221638412E-02 -0.37716806320E-01  0.50152447252E-01  0.51100000000E-03 0.  1.
         11    1    4    4    0    0  0.45298371298E-01  0.34568728282E-01 -0.52536100263E-01  0.77506402117E-01  0.51100000000E-03 0. -1.
</event>
<event>
 8    1  0.1070112E+005  0.1043930E+01  0.7957747E-01            NaN
         13   -1    0    0    0    0  0.00000000000E+00  0.00000000000E+00  0.74505805969E-08  0.10566000000E+00  0.10566000000E+00 0.  1.
     999900   -1    0    0    0    0 -0.00000000000E+00 -0.00000000000E+00 -0.74505805969E-08  0.93827000000E+00  0.93827000000E+00 0. -1.
     999902    2    1    2    0    0  0.56198773705E-02 -0.11117089068E-02  0.27301696719E-01  0.10160337357E+01  0.10156507030E+01 0.  0.
     999903    2    3    3    0    0 -0.10376468690E+00  0.60101446924E-01  0.36804368755E-01  0.12710047942E+00  0.20510391011E-01 0.  0.
         14    1    1    2    0    0 -0.56198773705E-02  0.11117089068E-02 -0.27301696719E-01  0.27896264304E-01  0.00000000000E+00 0. -1.
     999901    1    3    3    0    0  0.10938456427E+00 -0.61213155831E-01 -0.95026720360E-02  0.88893325628E+00  0.88000000000E+00 0.  1.
        -11    1    4    4    0    0 -0.73648803807E-01  0.48547508639E-01  0.18931470991E-01  0.90220112016E-01  0.51100000000E-03 0.  1.
         11    1    4    4    0    0 -0.30115883088E-01  0.11553938285E-01  0.17872897764E-01  0.36880367400E-01  0.51100000000E-03 0. -1.
</event>
<event>
 7    1  0.1070112E+005  0.1043930E+01  0.7957747E-01            NaN
         13   -1    0    0    0    0  0.00000000000E+00  0.00000000000E+00  0.74505805969E-08  0.10566000000E+00  0.10566000000E+00 0.  1.
     999900   -1    0    0    0    0 -0.00000000000E+00 -0.00000000000E+00 -0.74505805969E-08  0.93827000000E+00  0.93827000000E+00 0. -1.
     999903    2    1    2    0    0 -0.42457885425E-01 -0.55952434832E-02 -0.99486727548E-01  0.11020353863E+00  0.20328113157E-01 0.  0.
         14    1    1    2    0    0  0.43135028436E-01  0.17949271824E-01 -0.69202503913E-02  0.47230254104E-01  0.00000000000E+00 0.  1.
     999901    1    1    2    0    0 -0.67714301187E-03 -0.12354028341E-01  0.10640697794E+00  0.88649620726E+00  0.88000000000E+00 0.  1.
        -11    1    3    3    0    0 -0.17343924372E-01 -0.10023253711E-01 -0.59411701650E-01  0.62699989964E-01  0.51100000000E-03 0. -1.
         11    1    3    3    0    0 -0.25113961052E-01  0.44280102282E-02 -0.40075025898E-01  0.47503548668E-01  0.51100000000E-03 0.  1.
</event>
<event>
 8    1  0.1070112E+005  0.1043930E+01  0.7957747E-01            NaN
         13   -1    0    0    0    0  0.00000000000E+00  0.00000000000E+00  0.74505805969E-08  0.10566000000E+00  0.10566000000E+00 0. -1.
     999900   -1    0    0    0    0 -0.00000000000E+00 -0.00000000000E+00 -0.74505805969E-08  0.93827000000E+00  0.93827000000E+00 0. -1.
     999902    2    1    2    0    0 -0.41412932811E-02 -0.84671965371E-02  0.21155375858E-01  0.10207698261E+01  0.10205070525E+01 0.  0.
     999903    2    3    3    0    0  0.67538737065E-01  0.82430193418E-01 -0.68916011152E-01  0.12863014141E+00  0.20978057443E-01 0.  0.
         14    1    1    2    0    0  0.41412932811E-02  0.84671965371E-02 -0.21155375858E-01  0.23160173897E-01  0.00000000000E+00 0.  1.
     999901    1    3    3    0    0 -0.71680030346E-01 -0.90897389955E-01  0.90071387010E-01  0.89213968470E+00  0.88000000000E+00 0.  1.
        -11    1    4    4    0    0  0.24389091980E-01  0.45150287455E-01 -0.37143798285E-01  0.63350604866E-01  0.51100000000E-03 0. -1.
         11    1    4    4    0    0  0.43149645085E-01  0.37279905964E-01 -0.31772212867E-01  0.65279536542E-01  0.51100000000E-03 0.  1.
</event>
<event>
 8    1  0.1070112E+005  0.1043930E+01  0.7957747E-01            NaN
         13   -1    0    0    0    0  0.00000000000E+00  0.00000000000E+00  0.74505805969E-08  0.10566000000E+00  0.10566000000E+00 0. -1.
     999900   -1    0    0    0    0 -0.00000000000E+00 -0.00000000000E+00 -0.74505805969E-08  0.93827000000E+00  0.93827000000E+00 0. -1.
     999902    2    1    2    0    0 -0.18312028319E-01  0.87094059082E-02  0.11503088321E-01  0.10206168026E+01  0.10203505048E+01 0.  0.
     999903    2    3    3    0    0  0.65147664115E-01  0.36062981967E-01 -0.10318019127E+00  0.12883992859E+00  0.20219261148E-01 0.  0.
         14    1    1    2    0    0  0.18312028319E-01 -0.87094059082E-02 -0.11503088321E-01  0.23313197407E-01  0.00000000000E+00 0. -1.
     999901    1    3    3    0    0 -0.83459692434E-01 -0.27353576058E-01  0.11468327959E+00  0.89177687400E+00  0.88000000000E+00 0.  1.
        -11    1    4    4    0    0  0.45369683116E-01  0.25864954809E-01 -0.55440636525E-01  0.76166458055E-01  0.51100000000E-03 0.  1.
         11    1    4    4    0    0  0.19777980998E-01  0.10198027158E-01 -0.47739554744E-01  0.52673470537E-01  0.51100000000E-03 0. -1.
</event>
<event>
 8    1  0.1070112E+005  0.1043930E+01  0.7957747E-01            NaN
         13   -1    0    0    0    0  0.00000000000E+00  0.00000000000E+00  0.74505805969E-08  0.10566000000E+00  0.10566000000E+00 0.  1.
     999900   -1    0    0    0    0 -0.00000000000E+00 -0.00000000000E+00 -0.74505805969E-08  0.93827000000E+00  0.93827000000E+00 0. -1.
     999902    2    1    2    0    0 -0.19839656132E-01  0.83818016259E-02  0.90227787492E-02  0.10205788311E+01  0.10203116550E+01 0.  0.
     999903    2    3    3    0    0 -0.11117715749E+00  0.54200888571E-01  0.47393386957E-01  0.13383522018E+00  0.19173845859E-01 0.  0.
         14    1    1    2    0    0  0.19839656132E-01 -0.83818016259E-02 -0.90227787492E-02  0.23351168927E-01  0.00000000000E+00 0. -1.
     999901    1    3    3    0    0  0.91337501355E-01 -0.45819086945E-01 -0.38370608208E-01  0.88674361089E+00  0.88000000000E+00 0.  1.
        -11    1    4    4    0    0 -0.86557095852E-01  0.50618174047E-01  0.38475149875E-01  0.10740078522E+00  0.51100000000E-03 0. -1.
         11    1    4    4    0    0 -0.24620061635E-01  0.35827145234E-02  0.89182370821E-02  0.26434434965E-01  0.51100000000E-03 0.  1.
</event>
<event>
 8    1  0.1070112E+005  0.1043930E+01  0.7957747E-01            NaN
         13   -1    0    0    0    0  0.00000000000E+00  0.00000000000E+00  0.74505805969E-08  0.10566000000E+00  0.10566000000E+00 0.  1.
     999900   -1    0    0    0    0 -0.00000000000E+00 -0.00000000000E+00 -0.74505805969E-08  0.93827000000E+00  0.93827000000E+00 0. -1.
     999902    2    1    2    0    0  0.16591277901E-01  0.11784560189E-01  0.10922826046E-01  0.10208333663E+01  0.10205720490E+01 0.  0.
     999903    2    3    3    0    0  0.37800662546E-01  0.98693062105E-01 -0.76491075076E-01  0.13198910779E+00  0.20025718790E-01 0.  0.
         14    1    1    2    0    0 -0.16591277901E-01 -0.11784560189E-01 -0.10922826046E-01  0.23096633739E-01  0.00000000000E+00 0.  1.
     999901    1    3    3    0    0 -0.21209384645E-01 -0.86908501916E-01  0.87413901122E-01  0.88884425847E+00  0.88000000000E+00 0. -1.
        -11    1    4    4    0    0  0.28068696594E-01  0.45355774374E-01 -0.38487738490E-01  0.65776630596E-01  0.51100000000E-03 0.  1.
         11    1    4    4    0    0  0.97319659525E-02  0.53337287731E-01 -0.38003336586E-01  0.66212477197E-01  0.51100000000E-03 0. -1.
</event>
<event>
 8    1  0.1070112E+005  0.1043930E+01  0.7957747E-01            NaN
         13   -1    0    0    0    0  0.00000000000E+00  0.00000000000E+00  0.74505805969E-08  0.10566000000E+00  0.10566000000E+00 0. -1.
     999900   -1    0    0    0    0 -0.00000000000E+00 -0.00000000000E+00 -0.74505805969E-08  0.93827000000E+00  0.93827000000E+00 0.  1.
     999902    2    1    2    0    0  0.94758197127E-02  0.24203065060E-01  0.61013640816E-02  0.10172315701E+01  0.10168811440E+01 0.  0.
     999903    2    3    3    0    0 -0.56995411745E-01  0.48373812305E-01  0.10300391255E+00  0.12909151718E+00  0.21594238375E-01 0.  0.
         14    1    1    2    0    0 -0.94758197127E-02 -0.24203065060E-01 -0.61013640816E-02  0.26698429939E-01  0.00000000000E+00 0.  1.
     999901    1    3    3    0    0  0.66471231458E-01 -0.24170747244E-01 -0.96902548465E-01  0.88814005288E+00  0.88000000000E+00 0.  1.
        -11    1    4    4    0    0 -0.66390516424E-02  0.29781804794E-02  0.22199804937E-02  0.76246967199E-02  0.51100000000E-03 0.  1.
         11    1    4    4    0    0 -0.50356360103E-01  0.45395631825E-01  0.10078393205E+00  0.12146682046E+00  0.51100000000E-03 0. -1.
</event>
<event>
 8    1  0.1070112E+005  0.1043930E+01  0.7957747E-01            NaN
         13   -1    0    0    0    0  0.00000000000E+00  0.00000000000E+00  0.74505805969E-08  0.10566000000E+00  0.10566000000E+00 0.  1.
     999900   -1    0    0    0    0 -0.00000000000E+00 -0.00000000000E+00 -0.74505805969E-08  0.93827000000E+00  0.93827000000E+00 0.  1.
     999902    2    1    2    0    0 -0.58620891691E-02 -0.13078938682E-01 -0.16525203311E-01  0.10220552412E+01  0.10218211248E+01 0.  0.
     999903    2    3    3    0    0  0.24456845550E-01  0.22954678683E-01 -0.12794188823E+00  0.13378088212E+00  0.20078423503E-01 0.  0.
         14    1    1    2    0    0  0.58620891691E-02  0.13078938682E-01  0.16525203311E-01  0.21874758763E-01  0.00000000000E+00 0.  1.
     999901    1    3    3    0    0 -0.30318934719E-01 -0.36033617364E-01  0.11141668492E+00  0.88827435911E+00  0.88000000000E+00 0. -1.
        -11    1    4    4    0    0  0.11843393554E-01  0.30804819377E-02 -0.72794810182E-01  0.73818025240E-01  0.51100000000E-03 0. -1.
         11    1    4    4    0    0  0.12613451996E-01  0.19874196745E-01 -0.55147078046E-01  0.59962856882E-01  0.51100000000E-03 0.  1.
</event>
<event>
 8    1  0.1070112E+005  0.1043930E+01  0.7957747E-01            NaN
         13   -1    0    0    0    0  0.00000000000E+00  0.00000000000E+00  0.74505805969E-08  0.10566000000E+00  0.10566000000E+00 0.  1.
     999900   -1    0    0    0    0 -0.00000000000E+00 -0.00000000000E+00 -0.74505805969E-08  0.93827000000E+00  0.93827000000E+00 0.  1.
     999902    2    1    2    0    0  0.19969584536E-01 -0.12290917533E-01 -0.10126411476E-01  0.10183879725E+01  0.10180676143E+01 0.  0.
     999903    2    3    3    0    0 -0.39130070016E-01 -0.48282147233E-01 -0.11204169374E+00  0.12980772144E+00  0.20841671924E-01 0.  0.
         14    1    1    2    0    0 -0.19969584536E-01  0.12290917533E-01  0.10126411476E-01  0.25542027517E-01  0.00000000000E+00 0. -1.
     999901    1    3    3    0    0  0.59099654552E-01  0.35991229700E-01  0.10191528226E+00  0.88858025104E+00  0.88000000000E+00 0. -1.
        -11    1    4    4    0    0 -0.40735166766E-02 -0.18543044814E-01 -0.25295441603E-01  0.31631606598E-01  0.51100000000E-03 0. -1.
         11    1    4    4    0    0 -0.35056553340E-01 -0.29739102418E-01 -0.86746252137E-01  0.98176114842E-01  0.51100000000E-03 0.  1.
</event>
<event>
 8    1  0.1070112E+005  0.1043930E+01  0.7957747E-01            NaN
         13   -1    0    0    0    0  0.00000000000E+00  0.00000000000E+00  0.74505805969E-08  0.10566000000E+00  0.10566000000E+00 0. -1.
     999900   -1    0    0    0    0 -0.00000000000E+00 -0.00000000000E+00 -0.74505805969E-08  0.93827000000E+00  0.93827000000E+00 0.  1.
     999902    2    1    2    0    0 -0.22043618242E-01  0.32462233741E-02 -0.37137558832E-02  0.10213412627E+01  0.10210914375E+01 0.  0.
     999903    2    3    3    0    0  0.51808939232E-01 -0.56264185963E-01  0.10260533789E+00  0.12988209997E+00  0.22173852220E-01 0.  0.
         14    1    1    2    0    0  0.22043618242E-01 -0.32462233741E-02  0.37137558832E-02  0.22588737329E-01  0.00000000000E+00 0.  1.
     999901    1    3    3    0    0 -0.73852557473E-01  0.59510409337E-01 -0.10631909377E+00  0.89145916270E+00  0.88000000000E+00 0.  1.
        -11    1    4    4    0    0  0.22709852112E-01 -0.14080973679E-01  0.48378630679E-01  0.55269921567E-01  0.51100000000E-03 0.  1.
         11    1    4    4    0    0  0.29099087120E-01 -0.42183212284E-01  0.54226707211E-01  0.74612178401E-01  0.51100000000E-03 0. -1.
</event>
<event>
 8    1  0.1070112E+005  0.1043930E+01  0.7957747E-01            NaN
         13   -1    0    0    0    0  0.00000000000E+00  0.00000000000E+00  0.74505805969E-08  0.10566000000E+00  0.10566000000E+00 0. -1.
     999900   -1    0    0    0    0 -0.00000000000E+00 -0.00000000000E+00 -0.74505805969E-08  0.93827000000E+00  0.93827000000E+00 0. -1.
     999902    2    1    2    0    0 -0.38547342989E-03 -0.55782282756E-02 -0.23321566227E-01  0.10199474924E+01  0.10196654974E+01 0.  0.
     999903    2    3    3    0    0  0.10422394552E+00  0.54364883358E-01 -0.54707060778E-01  0.13117229221E+00  0.19878037676E-01 0.  0.
         14    1    1    2    0    0  0.38547342989E-03  0.55782282756E-02  0.23321566227E-01  0.23982507620E-01  0.00000000000E+00 0. -1.
     999901    1    3    3    0    0 -0.10460941895E+00 -0.59943111633E-01  0.31385494551E-01  0.88877520017E+00  0.88000000000E+00 0.  1.
        -11    1    4    4    0    0  0.74499042700E-01  0.29124903038E-01 -0.40561075213E-01  0.89687397574E-01  0.51100000000E-03 0. -1.
         11    1    4    4    0    0  0.29724902825E-01  0.25239980320E-01 -0.14145985565E-01  0.41484894637E-01  0.51100000000E-03 0.  1.
</event>
<event>
 8    1  0.1070112E+005  0.1043930E+01  0.7957747E-01            NaN
         13   -1    0    0    0    0  0.00000000000E+00  0.00000000000E+00  0.74505805969E-08  0.10566000000E+00  0.10566000000E+00 0. -1.
     999900   -1    0    0    0    0 -0.00000000000E+00 -0.00000000000E+00 -0.74505805969E-08  0.93827000000E+00  0.93827000000E+00 0.  1.
     999902    2    1    2    0    0  0.19721587296E-02 -0.78901401268E-02 -0.22709676093E-01  0.10198079539E+01  0.10195226283E+01 0.  0.
     999903    2    3    3    0    0  0.23115309057E-01  0.48725913176E-01 -0.11931801814E+00  0.13246045596E+00  0.20011267106E-01 0.  0.
         14    1    1    2    0    0 -0.19721587296E-02  0.78901401268E-02  0.22709676093E-01  0.24122046131E-01  0.00000000000E+00 0. -1.
     999901    1    3    3    0    0 -0.21143150327E-01 -0.56616053302E-01  0.96608342050E-01  0.88734749791E+00  0.88000000000E+00 0. -1.
        -11    1    4    4    0    0  0.19137331299E-01  0.30721291098E-01 -0.96831442886E-01  0.10337613181E+00  0.51100000000E-03 0. -1.
         11    1    4    4    0    0  0.39779777578E-02  0.18004622078E-01 -0.22486575257E-01  0.29084324146E-01  0.51100000000E-03 0.  1.
</event>
<event>
 8    1  0.1070112E+005  0.1043930E+01  0.7957747E-01            NaN
         13   -1    0    0    0    0  0.00000000000E+00  0.00000000000E+00  0.74505805969E-08  0.10566000000E+00  0.10566000000E+00 0.  1.
     999900   -1    0    0    0    0 -0.00000000000E+00 -0.00000000000E+00 -0.74505805969E-08  0.93827000000E+00  0.93827000000E+00 0. -1.
     999902    2    1    2    0    0  0.20771430255E-01  0.67511408356E-02  0.11690119170E-01  0.10191572508E+01  0.10188561296E+01 0.  0.
     999903    2    3    3    0    0 -0.10325703587E+00 -0.71132549865E-01  0.41760278641E-02  0.12702195205E+00  0.19881699757E-01 0.  0.
         14    1    1    2    0    0 -0.20771430255E-01 -0.67511408356E-02 -0.11690119170E-01  0.24772749215E-01  0.00000000000E+00 0. -1.
     999901    1    3    3    0    0  0.12402846613E+00  0.77883690700E-01  0.75140913064E-02  0.89213529874E+00  0.88000000000E+00 0.  1.
        -11    1    4    4    0    0 -0.77613229550E-01 -0.55221687642E-01 -0.52547282047E-02  0.95399798095E-01  0.51100000000E-03 0.  1.
         11    1    4    4    0    0 -0.25643806324E-01 -0.15910862223E-01  0.94307560688E-02  0.31622153951E-01  0.51100000000E-03 0. -1.
</event>
<event>
 8    1  0.1070112E+005  0.1043930E+01  0.7957747E-01            NaN
         13   -1    0    0    0    0  0.00000000000E+00  0.00000000000E+00  0.74505805969E-08  0.10566000000E+00  0.10566000000E+00 0.  1.
     999900   -1    0    0    0    0 -0.00000000000E+00 -0.00000000000E+00 -0.74505805969E-08  0.93827000000E+00  0.93827000000E+00 0.  1.
     999902    2    1    2    0    0 -0.14339789473E-01 -0.33325272163E-02  0.17740518127E-01  0.10208765559E+01  0.10206162262E+01 0.  0.
     999903    2    3    3    0    0  0.86545597832E-02  0.28035055655E-01  0.12826130452E+00  0.13311109728E+00  0.20167702694E-01 0.  0.
         14    1    1    2    0    0  0.14339789473E-01  0.33325272163E-02 -0.17740518127E-01  0.23053444063E-01  0.00000000000E+00 0. -1.
     999901    1    3    3    0    0 -0.22994349256E-01 -0.31367582871E-01 -0.11052078639E+00  0.88776545865E+00  0.88000000000E+00 0.  1.
        -11    1    4    4    0    0  0.35864106269E-02  0.29911283317E-01  0.11098074455E+00  0.11499797386E+00  0.51100000000E-03 0.  1.
         11    1    4    4    0    0  0.50681491564E-02 -0.18762276623E-02  0.17280559970E-01  0.18113123419E-01  0.51100000000E-03 0. -1.
</event>
<event>
 8    1  0.1070112E+005  0.1043930E+01  0.7957747E-01            NaN
         13   -1    0    0    0    0  0.00000000000E+00  0.00000000000E+00  0.74505805969E-08  0.10566000000E+00  0.10566000000E+00 0. -1.
     999900   -1    0    0    0    0 -0.00000000000E+00 -0.00000000000E+00 -0.74505805969E-08  0.93827000000E+00  0.93827000000E+00 0.  1.
     999902    2    1    2    0    0  0.77001475760E-02 -0.19820065520E-01  0.14523891511E-01  0.10181798409E+01  0.10178541731E+01 0.  0.
     999903    2    3    3    0    0  0.12147761835E+00 -0.10758218474E-01 -0.38105982377E-01  0.12924939729E+00  0.19513835642E-01 0.  0.
         14    1    1    2    0    0 -0.77001475760E-02  0.19820065520E-01 -0.14523891511E-01  0.25750159117E-01  0.00000000000E+00 0. -1.
     999901    1    3    3    0    0 -0.11377747077E+00 -0.90618470464E-02  0.52629873888E-01  0.88893044360E+00  0.88000000000E+00 0.  1.
        -11    1    4    4    0    0  0.49830894996E-01 -0.39006281903E-02 -0.56838409617E-02  0.50308052690E-01  0.51100000000E-03 0. -1.
         11    1    4    4    0    0  0.71646723353E-01 -0.68575902837E-02 -0.32422141416E-01  0.78941344597E-01  0.51100000000E-03 0.  1.
</event>
<event>
 8    1  0.1070112E+005  0.1043930E+01  0.7957747E-01            NaN
         13   -1    0    0    0    0  0.00000000000E+00  0.00000000000E+00  0.74505805969E-08  0.10566000000E+00  0.10566000000E+00 0.  1.
     999900   -1    0    0    0    0 -0.00000000000E+00 -0.00000000000E+00 -0.74505805969E-08  0.93827000000E+00  0.93827000000E+00 0.  1.
     999902    2    1    2    0    0 -0.24056664628E-01 -0.87188083176E-02  0.56535949880E-02  0.10177249648E+01  0.10173875369E+01 0.  0.
     999903    2    3    3    0    0  0.75531975221E-01 -0.82113081516E-01 -0.57106462331E-01  0.12685828496E+00  0.19602014842E-01 0.  0.
         14    1    1    2    0    0  0.24056664628E-01  0.87188083176E-02 -0.56535949880E-02  0.26205035161E-01  0.00000000000E+00 0. -1.
     999901    1    3    3    0    0 -0.99588639849E-01  0.73394273199E-01  0.62760057319E-01  0.89086667988E+00  0.88000000000E+00 0. -1.
        -11    1    4    4    0    0  0.26491646489E-01 -0.31503878019E-01 -0.10886623967E-01  0.42580293168E-01  0.51100000000E-03 0. -1.
         11    1    4    4    0    0  0.49040328732E-01 -0.50609203497E-01 -0.46219838364E-01  0.84277991790E-01  0.51100000000E-03 0.  1.
</event>
<event>
 8    1  0.1070112E+005  0.1043930E+01  0.7957747E-01            NaN
         13   -1    0    0    0    0  0.00000000000E+00  0.00000000000E+00  0.74505805969E-08  0.10566000000E+00  0.10566000000E+00 0.  1.
     999900   -1    0    0    0    0 -0.00000000000E+00 -0.00000000000E+00 -0.74505805969E-08  0.93827000000E+00  0.93827000000E+00 0. -1.
     999902    2    1    2    0    0 -0.10390053953E-01 -0.21393534981E-01  0.94451053902E-02  0.10183400298E+01  0.10180184525E+01 0.  0.
     999903    2    3    3    0    0 -0.11105305030E-02  0.35733341208E-01 -0.12018602086E+00  0.12696254609E+00  0.19917418163E-01 0.  0.
         14    1    1    2    0    0  0.10390053953E-01  0.21393534981E-01 -0.94451053902E-02  0.25589970222E-01  0.00000000000E+00 0. -1.
     999901    1    3    3    0    0 -0.92795234501E-02 -0.57126876189E-01  0.12963112625E+00  0.89137748369E+00  0.88000000000E+00 0.  1.
        -11    1    4    4    0    0 -0.16742526702E-02  0.33051047037E-01 -0.78613676412E-01  0.85296811618E-01  0.51100000000E-03 0.  1.
         11    1    4    4    0    0  0.56372216716E-03  0.26822941707E-02 -0.41572344450E-01  0.41665734468E-01  0.51100000000E-03 0. -1.
</event>
<event>
 8    1  0.1070112E+005  0.1043930E+01  0.7957747E-01            NaN
         13   -1    0    0    0    0  0.00000000000E+00  0.00000000000E+00  0.74505805969E-08  0.10566000000E+00  0.10566000000E+00 0. -1.
     999900   -1    0    0    0    0 -0.00000000000E+00 -0.00000000000E+00 -0.74505805969E-08  0.93827000000E+00  0.93827000000E+00 0. -1.
     999902    2    1    2    0    0 -0.44607266651E-02  0.60211748589E-02  0.22915145240E-01  0.10198207381E+01  0.10195357185E+01 0.  0.
     999903    2    3    3    0    0  0.29960065367E-01 -0.13877372955E-01  0.12717605212E+00  0.13277447106E+00  0.19108242599E-01 0.  0.
         14    1    1    2    0    0  0.44607266651E-02 -0.60211748589E-02 -0.22915145240E-01  0.24109261922E-01  0.00000000000E+00 0.  1.
     999901    1    3    3    0    0 -0.34420792032E-01  0.19898547814E-01 -0.10426090688E+00  0.88704626702E+00  0.88000000000E+00 0. -1.
        -11    1    4    4    0    0  0.98763968018E-02  0.37244944016E-02  0.50071456570E-01  0.51174475634E-01  0.51100000000E-03 0. -1.
         11    1    4    4    0    0  0.20083668565E-01 -0.17601867357E-01  0.77104595550E-01  0.81599995425E-01  0.51100000000E-03 0.  1.
</event>
<event>
 8    1  0.1070112E+005  0.1043930E+01  0.7957747E-01            NaN
         13   -1    0    0    0    0  0.00000000000E+00  0.00000000000E+00  0.74505805969E-08  0.10566000000E+00  0.10566000000E+00 0.  1.
     999900   -1    0    0    0    0 -0.00000000000E+00 -0.00000000000E+00 -0.74505805969E-08  0.93827000000E+00  0.93827000000E+00 0.  1.
     999902    2    1    2    0    0  0.51014456705E-02 -0.15500514989E-01  0.19189260977E-01  0.10187403503E+01  0.10184288797E+01 0.  0.
     999903    2    3    3    0    0 -0.22885253767E-01  0.28263724121E-01  0.12420368523E+00  0.13097540777E+00  0.20135269426E-01 0.  0.
         14    1    1    2    0    0 -0.51014456705E-02  0.15500514989E-01 -0.19189260977E-01  0.25189649654E-01  0.00000000000E+00 0. -1.
     999901    1    3    3    0    0  0.27986699437E-01 -0.43764239110E-01 -0.10501442425E+00  0.88776494258E+00  0.88000000000E+00 0.  1.
        -11    1    4    4    0    0 -0.54542276298E-02  0.17826677894E-01  0.82521499202E-01  0.84602588585E-01  0.51100000000E-03 0.  1.
         11    1    4    4    0    0 -0.17431026137E-01  0.10437046227E-01  0.41682186025E-01  0.46372819183E-01  0.51100000000E-03 0. -1.
</event>
<event>
 8    1  0.1070112E+005  0.1043930E+01  0.7957747E-01            NaN
         13   -1    0    0    0    0  0.00000000000E+00  0.00000000000E+00  0.74505805969E-08  0.10566000000E+00  0.10566000000E+00 0.  1.
     999900   -1    0    0    0    0 -0.00000000000E+00 -0.00000000000E+00 -0.74505805969E-08  0.93827000000E+00  0.93827000000E+00 0.  1.
     999902    2    1    2    0    0  0.10364697986E-01  0.24565114195E-01 -0.75803404587E-02  0.10162111732E+01  0.10158330646E+01 0.  0.
     999903    2    3    3    0    0 -0.70808939373E-01  0.68360408168E-01  0.78361601587E-01  0.12722680627E+00  0.18949098406E-01 0.  0.
         14    1    1    2    0    0 -0.10364697986E-01 -0.24565114195E-01  0.75803404587E-02  0.27718826838E-01  0.00000000000E+00 0.  1.
     999901    1    3    3    0    0  0.81173637359E-01 -0.43795293973E-01 -0.85941942045E-01  0.88898436689E+00  0.88000000000E+00 0. -1.
        -11    1    4    4    0    0 -0.99345877829E-02  0.26744717594E-02  0.11663729285E-01  0.15561251089E-01  0.51100000000E-03 0.  1.
         11    1    4    4    0    0 -0.60874351590E-01  0.65685936409E-01  0.66697872302E-01  0.11166555518E+00  0.51100000000E-03 0. -1.
</event>
<event>
 8    1  0.1070112E+005  0.1043930E+01  0.7957747E-01            NaN
         13   -1    0    0    0    0  0.00000000000E+00  0.00000000000E+00  0.74505805969E-08  0.10566000000E+00  0.10566000000E+00 0.  1.
     999900   -1    0    0    0    0 -0.00000000000E+00 -0.00000000000E+00 -0.74505805969E-08  0.93827000000E+00  0.93827000000E+00 0.  1.
     999902    2    1    2    0    0  0.17999723489E-01 -0.35052763344E-02  0.14653934652E-01  0.10204562954E+01  0.10201862751E+01 0.  0.
     999903    2    3    3    0    0 -0.87836412767E-01  0.90658844371E-01  0.17021339751E-01  0.12912371212E+00  0.21188335358E-01 0.  0.
         14    1    1    2    0    0 -0.17999723489E-01  0.35052763344E-02 -0.14653934652E-01  0.23473704621E-01  0.00000000000E+00 0.  1.
     999901    1    3    3    0    0  0.10583613626E+00 -0.94164120705E-01 -0.23674050991E-02  0.89133258326E+00  0.88000000000E+00 0.  1.
        -11    1    4    4    0    0 -0.27039202104E-01  0.37990995989E-01 -0.11898137708E-02  0.46648804963E-01  0.51100000000E-03 0. -1.
         11    1    4    4    0    0 -0.60797210663E-01  0.52667848382E-01  0.18211153522E-01  0.82474907160E-01  0.51100000000E-03 0.  1.
</event>
<event>
 8    1  0.1070112E+005  0.1043930E+01  0.7957747E-01            NaN
         13   -1    0    0    0    0  0.00000000000E+00  0.00000000000E+00  0.74505805969E-08  0.10566000000E+00  0.10566000000E+00 0. -1.
     999900   -1    0    0    0    0 -0.00000000000E+00 -0.00000000000E+00 -0.74505805969E-08  0.93827000000E+00  0.93827000000E+00 0. -1.
     999902    2    1    2    0    0 -0.82091658390E-02  0.20076252498E-01  0.95374666660E-02  0.10202359166E+01  0.10199607423E+01 0.  0.
     999903    2    3    3    0    0 -0.21308107736E-01  0.96860765836E-01 -0.85531394576E-01  0.13169467830E+00  0.13850105446E-01 0.  0.
         14    1    1    2    0    0  0.82091658390E-02 -0.20076252498E-01 -0.95374666660E-02  0.23694083408E-01  0.00000000000E+00 0.  1.
     999901    1    3    3    0    0  0.13098941897E-01 -0.76784513338E-01  0.95068861242E-01  0.88854123829E+00  0.88000000000E+00 0.  1.
        -11    1    4    4    0    0 -0.20748438494E-01  0.80515658088E-01 -0.65617512983E-01  0.10592066856E+00  0.51100000000E-03 0.  1.
         11    1    4    4    0    0 -0.55966924149E-03  0.16345107748E-01 -0.19913881593E-01  0.25774009740E-01  0.51100000000E-03 0. -1.
</event>
<event>
 8    1  0.1070112E+005  0.1043930E+01  0.7957747E-01            NaN
         13   -1    0    0    0    0  0.00000000000E+00  0.00000000000E+00  0.74505805969E-08  0.10566000000E+00  0.10566000000E+00 0. -1.
     999900   -1    0    0    0    0 -0.00000000000E+00 -0.00000000000E+00 -0.74505805969E-08  0.93827000000E+00  0.93827000000E+00 0.  1.
     999902    2    1    2    0    0 -0.21426045800E-01  0.32441679766E-03  0.10748819760E-01  0.10199567272E+01  0.10196749519E+01 0.  0.
     999903    2    3    3    0    0  0.45875529747E-01  0.86094575302E-01 -0.81159088254E-01  0.12847869281E+00  0.20078266191E-01 0.  0.
         14    1    1    2    0    0  0.21426045800E-01 -0.32441679766E-03 -0.10748819760E-01  0.23973272850E-01  0.00000000000E+00 0.  1.
     999901    1    3    3    0    0 -0.67301575547E-01 -0.85770158504E-01  0.91907908014E-01  0.89147803434E+00  0.88000000000E+00 0. -1.
        -11    1    4    4    0    0  0.22689666416E-01  0.27175142494E-01 -0.21155722642E-01  0.41244818500E-01  0.51100000000E-03 0.  1.
         11    1    4    4    0    0  0.23185863331E-01  0.58919432808E-01 -0.60003365611E-01  0.87233874307E-01  0.51100000000E-03 0. -1.
</event>
<event>
 8    1  0.1070112E+005  0.1043930E+01  0.7957747E-01            NaN
         13   -1    0    0    0    0  0.00000000000E+00  0.00000000000E+00  0.74505805969E-08  0.10566000000E+00  0.10566000000E+00 0. -1.
     999900   -1    0    0    0    0 -0.00000000000E+00 -0.00000000000E+00 -0.74505805969E-08  0.93827000000E+00  0.93827000000E+00 0.  1.
     999902    2    1    2    0    0 -0.15194532569E-01  0.12897051808E-01 -0.11188378242E-01  0.10210742005E+01  0.10208183655E+01 0.  0.
     999903    2    3    3    0    0 -0.13128636626E+00  0.82534398098E-02  0.75923997501E-02  0.13323885839E+00  0.19766628888E-01 0.  0.
         14    1    1    2    0    0  0.15194532569E-01 -0.12897051808E-01  0.11188378242E-01  0.22855799549E-01  0.00000000000E+00 0. -1.
     999901    1    3    3    0    0  0.11609183369E+00  0.46436119985E-02 -0.18780777992E-01  0.88783534206E+00  0.88000000000E+00 0. -1.
        -11    1    4    4    0    0 -0.24985882587E-03 -0.28644802667E-03  0.16728900092E-02  0.17900178457E-02  0.51100000000E-03 0. -1.
         11    1    4    4    0    0 -0.13103650744E+00  0.85398878365E-02  0.59195097409E-02  0.13144884055E+00  0.51100000000E-03 0.  1.
</event>
<event>
 8    1  0.1070112E+005  0.1043930E+01  0.7957747E-01            NaN
         13   -1    0    0    0    0  0.00000000000E+00  0.00000000000E+00  0.74505805969E-08  0.10566000000E+00  0.10566000000E+00 0. -1.
     999900   -1    0    0    0    0 -0.00000000000E+00 -0.00000000000E+00 -0.74505805969E-08  0.93827000000E+00  0.93827000000E+00 0. -1.
     999902    2    1    2    0    0  0.23737397607E-01  0.68624027646E-03 -0.30573142197E-02  0.10199866890E+01  0.10197056260E+01 0.  0.
     999903    2    3    3    0    0  0.87654287116E-01 -0.37936823460E-01 -0.90595083245E-01  0.13249586043E+00  0.15006908337E-01 0.  0.
         14    1    1    2    0    0 -0.23737397607E-01 -0.68624027646E-03  0.30573142197E-02  0.23943310989E-01  0.00000000000E+00 0. -1.
     999901    1    3    3    0    0 -0.63916889509E-01  0.38623063736E-01  0.87537769026E-01  0.88749082859E+00  0.88000000000E+00 0.  1.
        -11    1    4    4    0    0  0.90756474081E-02 -0.66184752910E-02 -0.16938081236E-01  0.20330551099E-01  0.51100000000E-03 0. -1.
         11    1    4    4    0    0  0.78578639708E-01 -0.31318348169E-01 -0.73657002009E-01  0.11216530933E+00  0.51100000000E-03 0.  1.
</event>
<event>
 8    1  0.1070112E+005  0.1043930E+01  0.7957747E-01            NaN
         13   -1    0    0    0    0  0.00000000000E+00  0.00000000000E+00  0.74505805969E-08  0.10566000000E+00  0.10566000000E+00 0.  1.
     999900   -1    0    0    0    0 -0.00000000000E+00 -0.00000000000E+00 -0.74505805969E-08  0.93827000000E+00  0.93827000000E+00 0.  1.
     999902    2    1    2    0    0 -0.22273474394E-01  0.69973076761E-02  0.34824323021E-02  0.10203249728E+01  0.10200518873E+01 0.  0.
     999903    2    3    3    0    0 -0.17154196677E-01  0.12320675367E+00 -0.37718770382E-01  0.13171460739E+00  0.21257035213E-01 0.  0.
         14    1    1    2    0    0  0.22273474394E-01 -0.69973076761E-02 -0.34824323021E-02  0.23605027240E-01  0.00000000000E+00 0.  1.
     999901    1    3    3    0    0 -0.51192777169E-02 -0.11620944600E+00  0.41201202684E-01  0.88861036537E+00  0.88000000000E+00 0.  1.
        -11    1    4    4    0    0 -0.13079211116E-02  0.30793094198E-01 -0.18661149781E-01  0.36033663984E-01  0.51100000000E-03 0. -1.
         11    1    4    4    0    0 -0.15846275565E-01  0.92413659475E-01 -0.19057620601E-01  0.95680943404E-01  0.51100000000E-03 0.  1.
</event>
<event>
 8    1  0.1070112E+005  0.1043930E+01  0.7957747E-01            NaN
         13   -1    0    0    0    0  0.00000000000E+00  0.00000000000E+00  0.74505805969E-08  0.10566000000E+00  0.10566000000E+00 0.  1.
     999900   -1    0    0    0    0 -0.00000000000E+00 -0.00000000000E+00 -0.74505805969E-08  0.93827000000E+00  0.93827000000E+00 0. -1.
     999902    2    1    2    0    0 -0.11219295534E-01  0.29227153517E-03  0.20857337636E-01  0.10202448454E+01  0.10199698809E+01 0.  0.
     999903    2    3    3    0    0 -0.37953950393E-01 -0.63208744203E-01  0.10913082336E+00  0.13314883648E+00  0.19576219124E-01 0.  0.
         14    1    1    2    0    0  0.11219295534E-01 -0.29227153517E-03 -0.20857337636E-01  0.23685154595E-01  0.00000000000E+00 0. -1.
     999901    1    3    3    0    0  0.26734654859E-01  0.63501015739E-01 -0.88273485721E-01  0.88709600893E+00  0.88000000000E+00 0. -1.
        -11    1    4    4    0    0 -0.19228628329E-01 -0.18967990273E-01  0.28341758198E-01  0.39154069790E-01  0.51100000000E-03 0.  1.
         11    1    4    4    0    0 -0.18725322064E-01 -0.44240753931E-01  0.80789065159E-01  0.93994766690E-01  0.51100000000E-03 0. -1.
</event>
<event>
 8    1  0.1070112E+005  0.1043930E+01  0.7957747E-01            NaN
         13   -1    0    0    0    0  0.00000000000E+00  0.00000000000E+00  0.74505805969E-08  0.10566000000E+00  0.10566000000E+00 0. -1.
     999900   -1    0    0    0    0 -0.00000000000E+00 -0.00000000000E+00 -0.74505805969E-08  0.93827000000E+00  0.93827000000E+00 0.  1.
     999902    2    1    2    0    0 -0.36789056362E-01  0.36625230274E-02 -0.32009859536E-02  0.10068207686E+01  0.10061366533E+01 0.  0.
     999903    2    3    3    0    0 -0.13873840903E-01 -0.53516525233E-01  0.10276194806E+00  0.11832614621E+00  0.19610124261E-01 0.  0.
         14    1    1    2    0    0  0.36789056362E-01 -0.36625230274E-02  0.32009859536E-02  0.37109231386E-01  0.00000000000E+00 0. -1.
     999901    1    3    3    0    0 -0.22915215460E-01  0.57179048260E-01 -0.10596293401E+00  0.88849462241E+00  0.88000000000E+00 0.  1.
        -11    1    4    4    0    0 -0.15129310929E-01 -0.30921384332E-01  0.47998651249E-01  0.59069109532E-01  0.51100000000E-03 0. -1.
         11    1    4    4    0    0  0.12554700259E-02 -0.22595140900E-01  0.54763296809E-01  0.59257036676E-01  0.51100000000E-03 0.  1.
</event>
<event>
 8    1  0.1070112E+005  0.1043930E+01  0.7957747E-01            NaN
         13   -1    0    0    0    0  0.00000000000E+00  0.00000000000E+00  0.74505805969E-08  0.10566000000E+00  0.10566000000E+00 0.  1.
     999900   -1    0    0    0    0 -0.00000000000E+00 -0.00000000000E+00 -0.74505805969E-08  0.93827000000E+00  0.93827000000E+00 0.  1.
     999902    2    1    2    0    0 -0.17325312004E-01  0.12364400550E-01  0.83633147498E-02  0.10210610282E+01  0.10208048949E+01 0.  0.
     999903    2    3    3    0    0 -0.68519752933E-02 -0.64724522369E-01  0.11238299832E+00  0.13152604442E+00  0.20807419057E-01 0.  0.
         14    1    1    2    0    0  0.17325312004E-01 -0.12364400550E-01 -0.83633147498E-02  0.22868971787E-01  0.00000000000E+00 0.  1.
     999901    1    3    3    0    0 -0.10473336711E-01  0.77088922919E-01 -0.10401968357E+00  0.88953498379E+00  0.88000000000E+00 0.  1.
        -11    1    4    4    0    0  0.56189571099E-02 -0.39439332711E-01  0.71713553604E-01  0.82037360606E-01  0.51100000000E-03 0.  1.
         11    1    4    4    0    0 -0.12470932403E-01 -0.25285189658E-01  0.40669444718E-01  0.49488683815E-01  0.51100000000E-03 0. -1.
</event>
<event>
 8    1  0.1070112E+005  0.1043930E+01  0.7957747E-01            NaN
         13   -1    0    0    0    0  0.00000000000E+00  0.00000000000E+00  0.74505805969E-08  0.10566000000E+00  0.10566000000E+00 0. -1.
     999900   -1    0    0    0    0 -0.00000000000E+00 -0.00000000000E+00 -0.74505805969E-08  0.93827000000E+00  0.93827000000E+00 0. -1.
     999902    2    1    2    0    0  0.68989124074E-02  0.14440363500E-01 -0.17110830452E-01  0.10205013934E+01  0.10202324217E+01 0.  0.
     999903    2    3    3    0    0 -0.10628580014E+00 -0.64810604473E-02  0.69742767101E-01  0.12876598835E+00  0.19440955127E-01 0.  0.
         14    1    1    2    0    0 -0.68989124074E-02 -0.14440363500E-01  0.17110830452E-01  0.23428606642E-01  0.00000000000E+00 0. -1.
     999901    1    3    3    0    0  0.11318471255E+00  0.20921423948E-01 -0.86853597553E-01  0.89173540501E+00  0.88000000000E+00 0. -1.
        -11    1    4    4    0    0 -0.54147629001E-01  0.63923349010E-02  0.36051424716E-01  0.65366612402E-01  0.51100000000E-03 0. -1.
         11    1    4    4    0    0 -0.52138171144E-01 -0.12873395348E-01  0.33691342385E-01  0.63399375949E-01  0.51100000000E-03 0.  1.
</event>
<event>
 8    1  0.1070112E+005  0.1043930E+01  0.7957747E-01            NaN
         13   -1    0    0    0    0  0.00000000000E+00  0.00000000000E+00  0.74505805969E-08  0.10566000000E+00  0.10566000000E+00 0.  1.
     999900   -1    0    0    0    0 -0.00000000000E+00 -0.00000000000E+00 -0.74505805969E-08  0.93827000000E+00  0.93827000000E+00 0. -1.
     999902    2    1    2    0    0  0.83424824118E-02  0.21941684132E-01 -0.23549262275E-02  0.10203380481E+01  0.10200652686E+01 0.  0.
     999903    2    3    3    0    0  0.31594784124E-01  0.52105253887E-02  0.12516254474E+00  0.13068569659E+00  0.19690320658E-01 0.  0.
         14    1    1    2    0    0 -0.83424824118E-02 -0.21941684132E-01  0.23549262275E-02  0.23591951866E-01  0.00000000000E+00 0.  1.
     999901    1    3    3    0    0 -0.23252301713E-01  0.16731158743E-01 -0.12751747097E+00  0.88965235155E+00  0.88000000000E+00 0. -1.
        -11    1    4    4    0    0  0.27234310616E-01 -0.29592669637E-02  0.79451998289E-01  0.84043715344E-01  0.51100000000E-03 0. -1.
         11    1    4    4    0    0  0.43604735081E-02  0.81697923524E-02  0.45710546454E-01  0.46641981245E-01  0.51100000000E-03 0.  1.
</event>
<event>
 8    1  0.1070112E+005  0.1043930E+01  0.7957747E-01            NaN
         13   -1    0    0    0    0  0.00000000000E+00  0.00000000000E+00  0.74505805969E-08  0.10566000000E+00  0.10566000000E+00 0.  1.
     999900   -1    0    0    0    0 -0.00000000000E+00 -0.00000000000E+00 -0.74505805969E-08  0.93827000000E+00  0.93827000000E+00 0.  1.
     999902    2    1    2    0    0 -0.74884009127E-02 -0.55551939121E-02  0.11613488124E-03  0.10346053115E+01  0.10345632899E+01 0.  0.
     999903    2    3    3    0    0  0.10337707582E+00  0.94639617253E-01  0.11033693534E-01  0.14194112652E+00  0.19546458693E-01 0.  0.
         14    1    1    2    0    0  0.74884009127E-02  0.55551939121E-02 -0.11613488124E-03  0.93246884635E-02  0.00000000000E+00 0.  1.
     999901    1    3    3    0    0 -0.11086547673E+00 -0.10019481116E+00 -0.10917558653E-01  0.89266418501E+00  0.88000000000E+00 0. -1.
        -11    1    4    4    0    0  0.35764929979E-01  0.37967017818E-01  0.12761043800E-01  0.53700372608E-01  0.51100000000E-03 0.  1.
         11    1    4    4    0    0  0.67612145841E-01  0.56672599435E-01 -0.17273502657E-02  0.88240753917E-01  0.51100000000E-03 0. -1.
</event>
<event>
 8    1  0.1070112E+005  0.1043930E+01  0.7957747E-01            NaN
         13   -1    0    0    0    0  0.00000000000E+00  0.00000000000E+00  0.74505805969E-08  0.10566000000E+00  0.10566000000E+00 0. -1.
     999900   -1    0    0    0    0 -0.00000000000E+00 -0.00000000000E+00 -0.74505805969E-08  0.93827000000E+00  0.93827000000E+00 0. -1.
     999902    2    1    2    0    0 -0.60756592153E-02  0.18350763424E-01  0.13090381992E-01  0.10205842883E+01  0.10203172386E+01 0.  0.
     999903    2    3    3    0    0  0.45314981621E-01  0.30399006365E-02 -0.11921184521E+00  0.12908033443E+00  0.19687055186E-01 0.  0.
         14    1    1    2    0    0  0.60756592153E-02 -0.18350763424E-01 -0.13090381992E-01  0.23345711680E-01  0.00000000000E+00 0.  1.
     999901    1    3    3    0    0 -0.51390640836E-01  0.15310862788E-01  0.13230222720E+00  0.89150395389E+00  0.88000000000E+00 0.  1.
        -11    1    4    4    0    0  0.24333734748E-01 -0.26650678736E-02 -0.85704312448E-01  0.89133178597E-01  0.51100000000E-03 0. -1.
         11    1    4    4    0    0  0.20981246873E-01  0.57049685101E-02 -0.33507532763E-01  0.39947155830E-01  0.51100000000E-03 0.  1.
</event>
<event>
 8    1  0.1070112E+005  0.1043930E+01  0.7957747E-01            NaN
         13   -1    0    0    0    0  0.00000000000E+00  0.00000000000E+00  0.74505805969E-08  0.10566000000E+00  0.10566000000E+00 0. -1.
     999900   -1    0    0    0    0 -0.00000000000E+00 -0.00000000000E+00 -0.74505805969E-08  0.93827000000E+00  0.93827000000E+00 0.  1.
     999902    2    1    2    0    0 -0.18138611861E-01 -0.40184800814E-02 -0.13578651624E-01  0.10209183247E+01  0.10206589481E+01 0.  0.
     999903    2    3    3    0    0  0.15186661269E-01  0.12079205411E+00  0.40512083314E-01  0.12984366398E+00  0.19919667796E-01 0.  0.
         14    1    1    2    0    0  0.18138611861E-01  0.40184800814E-02  0.13578651624E-01  0.23011675349E-01  0.00000000000E+00 0.  1.
     999901    1    3    3    0    0 -0.33325273130E-01 -0.12481053420E+00 -0.54090734938E-01  0.89107466067E+00  0.88000000000E+00 0.  1.
        -11    1    4    4    0    0  0.79291430328E-02  0.67813663303E-01  0.33029622844E-01  0.75847091876E-01  0.51100000000E-03 0.  1.
         11    1    4    4    0    0  0.72575182358E-02  0.52978390810E-01  0.74824604693E-02  0.53996572109E-01  0.51100000000E-03 0. -1.
</event>
<event>
 8    1  0.1070112E+005  0.1043930E+01  0.7957747E-01            NaN
         13   -1    0    0    0    0  0.00000000000E+00  0.00000000000E+00  0.74505805969E-08  0.10566000000E+00  0.10566000000E+00 0. -1.
     999900   -1    0    0    0    0 -0.00000000000E+00 -0.00000000000E+00 -0.74505805969E-08  0.93827000000E+00  0.93827000000E+00 0.  1.
     999902    2    1    2    0    0  0.23686335667E-01  0.64177296253E-04  0.87662984893E-03  0.10202273610E+01  0.10199519856E+01 0.  0.
     999903    2    3    3    0    0  0.41613244561E-01  0.12227136593E+00 -0.83089945600E-03  0.13159983122E+00  0.25216584481E-01 0.  0.
         14    1    1    2    0    0 -0.23686335667E-01 -0.64177296253E-04 -0.87662984893E-03  0.23702639008E-01  0.00000000000E+00 0. -1.
     999901    1    3    3    0    0 -0.17926908894E-01 -0.12220718864E+00  0.17075293049E-02  0.88862752977E+00  0.88000000000E+00 0. -1.
        -11    1    4    4    0    0  0.98796587935E-02  0.29209258789E-01  0.10605634191E-01  0.32611793181E-01  0.51100000000E-03 0.  1.
         11    1    4    4    0    0  0.31733585767E-01  0.93062107143E-01 -0.11436533647E-01  0.98988038037E-01  0.51100000000E-03 0. -1.
</event>
<event>
 8    1  0.1070112E+005  0.1043930E+01  0.7957747E-01            NaN
         13   -1    0    0    0    0  0.00000000000E+00  0.00000000000E+00  0.74505805969E-08  0.10566000000E+00  0.10566000000E+00 0.  1.
     999900   -1    0    0    0    0 -0.00000000000E+00 -0.00000000000E+00 -0.74505805969E-08  0.93827000000E+00  0.93827000000E+00 0. -1.
     999902    2    1    2    0    0 -0.81339141535E-02  0.11748981920E-01 -0.18235326423E-01  0.10207626466E+01  0.10204997082E+01 0.  0.
     999903    2    3    3    0    0  0.23679909473E-01  0.40923579374E-01 -0.12350470930E+00  0.13343806137E+00  0.17799593875E-01 0.  0.
         14    1    1    2    0    0  0.81339141535E-02 -0.11748981920E-01  0.18235326423E-01  0.23167353439E-01  0.00000000000E+00 0.  1.
     999901    1    3    3    0    0 -0.31813823627E-01 -0.29174597454E-01  0.10526938288E+00  0.88732458519E+00  0.88000000000E+00 0.  1.
        -11    1    4    4    0    0  0.22723007662E-01  0.24196535216E-01 -0.90992217821E-01  0.96858929473E-01  0.51100000000E-03 0. -1.
         11    1    4    4    0    0  0.95690181105E-03  0.16727044158E-01 -0.32512491477E-01  0.36579131898E-01  0.51100000000E-03 0.  1.
</event>
<event>
 8    1  0.1070112E+005  0.1043930E+01  0.7957747E-01            NaN
         13   -1    0    0    0    0  0.00000000000E+00  0.00000000000E+00  0.74505805969E-08  0.10566000000E+00  0.10566000000E+00 0. -1.
     999900   -1    0    0    0    0 -0.00000000000E+00 -0.00000000000E+00 -0.74505805969E-08  0.93827000000E+00  0.93827000000E+00 0.  1.
     999902    2    1    2    0    0  0.37556034547E-02  0.21636655298E-01  0.20002207390E-02  0.10218789163E+01  0.10216409689E+01 0.  0.
     999903    2    3    3    0    0  0.67506212811E-01  0.11496726251E+00  0.38372942806E-02  0.13464832773E+00  0.18463128544E-01 0.  0.
         14    1    1    2    0    0 -0.37556034547E-02 -0.21636655298E-01 -0.20002207390E-02  0.22051083710E-01  0.00000000000E+00 0.  1.
     999901    1    3    3    0    0 -0.63750609357E-01 -0.93330607213E-01 -0.18370735416E-02  0.88723058856E+00  0.88000000000E+00 0.  1.
        -11    1    4    4    0    0  0.15635134653E-01  0.17914579642E-01  0.61957658578E-02  0.24577189321E-01  0.51100000000E-03 0. -1.
         11    1    4    4    0    0  0.51871078158E-01  0.97052682869E-01 -0.23584715772E-02  0.11007113841E+00  0.51100000000E-03 0.  1.
</event>
<event>
 8    1  0.1070112E+005  0.1043930E+01  0.7957747E-01            NaN
         13   -1    0    0    0    0  0.00000000000E+00  0.00000000000E+00  0.74505805969E-08  0.10566000000E+00  0.10566000000E+00 0.  1.
     999900   -1    0    0    0    0 -0.00000000000E+00 -0.00000000000E+00 -0.74505805969E-08  0.93827000000E+00  0.93827000000E+00 0.  1.
     999902    2    1    2    0    0 -0.20405352455E-01  0.17157444138E-01  0.37313131021E-02  0.10170101375E+01  0.10166537960E+01 0.  0.
     999903    2    3    3    0    0 -0.73233280649E-01 -0.37804829622E-01 -0.96005584190E-01  0.12810120506E+00  0.20013195773E-01 0.  0.
         14    1    1    2    0    0  0.20405352455E-01 -0.17157444138E-01 -0.37313131021E-02  0.26919862474E-01  0.00000000000E+00 0.  1.
     999901    1    3    3    0    0  0.52827928193E-01  0.54962273760E-01  0.99736897292E-01  0.88890893246E+00  0.88000000000E+00 0. -1.
        -11    1    4    4    0    0 -0.13722289165E-01 -0.12085917948E-01 -0.11564187855E-01  0.21641677253E-01  0.51100000000E-03 0. -1.
         11    1    4    4    0    0 -0.59510991484E-01 -0.25718911674E-01 -0.84441396335E-01  0.10645952781E+00  0.51100000000E-03 0.  1.
</event>
<event>
 8    1  0.1070112E+005  0.1043930E+01  0.7957747E-01            NaN
         13   -1    0    0    0    0  0.00000000000E+00  0.00000000000E+00  0.74505805969E-08  0.10566000000E+00  0.10566000000E+00 0.  1.
     999900   -1    0    0    0    0 -0.00000000000E+00 -0.00000000000E+00 -0.74505805969E-08  0.93827000000E+00  0.93827000000E+00 0.  1.
     999902    2    1    2    0    0 -0.95381320830E-02 -0.16201783639E-01 -0.13907694932E-01  0.10205441552E+01  0.10202761759E+01 0.  0.
     999903    2    3    3    0    0 -0.48877262174E-01 -0.19249563058E-01 -0.12089490427E+00  0.13318677567E+00  0.19068479217E-01 0.  0.
         14    1    1    2    0    0  0.95381320830E-02  0.16201783639E-01  0.13907694932E-01  0.23385844758E-01  0.00000000000E+00 0.  1.
     999901    1    3    3    0    0  0.39339130091E-01  0.30477794190E-02  0.10698720934E+00  0.88735737957E+00  0.88000000000E+00 0. -1.
        -11    1    4    4    0    0 -0.13083765643E-01 -0.10613069483E-01 -0.22397664761E-01  0.28031030573E-01  0.51100000000E-03 0. -1.
         11    1    4    4    0    0 -0.35793496532E-01 -0.86364935753E-02 -0.98497239510E-01  0.10515574510E+00  0.51100000000E-03 0.  1.
</event>
<event>
 8    1  0.1070112E+005  0.1043930E+01  0.7957747E-01            NaN
         13   -1    0    0    0    0  0.00000000000E+00  0.00000000000E+00  0.74505805969E-08  0.10566000000E+00  0.10566000000E+00 0.  1.
     999900   -1    0    0    0    0 -0.00000000000E+00 -0.00000000000E+00 -0.74505805969E-08  0.93827000000E+00  0.93827000000E+00 0. -1.
     999902    2    1    2    0    0 -0.13368116362E-01  0.12219750365E-02 -0.18760165663E-01  0.10208617627E+01  0.10206010949E+01 0.  0.
     999903    2    3    3    0    0 -0.12501565961E+00 -0.39713581773E-01 -0.63871320593E-02  0.13277731528E+00  0.19568757558E-01 0.  0.
         14    1    1    2    0    0  0.13368116362E-01 -0.12219750365E-02  0.18760165663E-01  0.23068237336E-01  0.00000000000E+00 0.  1.
     999901    1    3    3    0    0  0.11164754325E+00  0.40935556809E-01 -0.12373033604E-01  0.88808444738E+00  0.88000000000E+00 0. -1.
        -11    1    4    4    0    0 -0.22762625226E-01 -0.11154786802E-01  0.55081112990E-02  0.25945457924E-01  0.51100000000E-03 0.  1.
         11    1    4    4    0    0 -0.10225303438E+00 -0.28558794970E-01 -0.11895243358E-01  0.10683185736E+00  0.51100000000E-03 0. -1.
</event>
<event>
 8    1  0.1070112E+005  0.1043930E+01  0.7957747E-01            NaN
         13   -1    0    0    0    0  0.00000000000E+00  0.00000000000E+00  0.74505805969E-08  0.10566000000E+00  0.10566000000E+00 0. -1.
     999900   -1    0    0    0    0 -0.00000000000E+00 -0.00000000000E+00 -0.74505805969E-08  0.93827000000E+00  0.93827000000E+00 0.  1.
     999902    2    1    2    0    0 -0.10553482545E-01 -0.19527602126E-01  0.66857553593E-02  0.10207480552E+01  0.10204847817E+01 0.  0.
     999903    2    3    3    0    0 -0.89071067989E-01  0.39408143990E-01 -0.84474075183E-01  0.13060843242E+00  0.20881481634E-01 0.  0.
         14    1    1    2    0    0  0.10553482545E-01  0.19527602126E-01 -0.66857553593E-02  0.23181944770E-01  0.00000000000E+00 0. -1.
     999901    1    3    3    0    0  0.78517585444E-01 -0.58935746116E-01  0.91159830542E-01  0.89013962281E+00  0.88000000000E+00 0. -1.
        -11    1    4    4    0    0 -0.73440738623E-01  0.24106243051E-01 -0.60563174668E-01  0.98197822229E-01  0.51100000000E-03 0.  1.
         11    1    4    4    0    0 -0.15630329366E-01  0.15301900939E-01 -0.23910900515E-01  0.32410610190E-01  0.51100000000E-03 0. -1.
</event>
<event>
 8    1  0.1070112E+005  0.1043930E+01  0.7957747E-01            NaN
         13   -1    0    0    0    0  0.00000000000E+00  0.00000000000E+00  0.74505805969E-08  0.10566000000E+00  0.10566000000E+00 0. -1.
     999900   -1    0    0    0    0 -0.00000000000E+00 -0.00000000000E+00 -0.74505805969E-08  0.93827000000E+00  0.93827000000E+00 0.  1.
     999902    2    1    2    0    0 -0.12841307104E-01 -0.89372971085E-02 -0.16556342517E-01  0.10211509103E+01  0.10208968091E+01 0.  0.
     999903    2    3    3    0    0  0.79348965706E-01  0.86450236788E-01 -0.53346174021E-01  0.13044819916E+00  0.20025398410E-01 0.  0.
         14    1    1    2    0    0  0.12841307104E-01  0.89372971085E-02  0.16556342517E-01  0.22779089650E-01  0.00000000000E+00 0. -1.
     999901    1    3    3    0    0 -0.92190272810E-01 -0.95387533896E-01  0.36789831504E-01  0.89070271119E+00  0.88000000000E+00 0. -1.
        -11    1    4    4    0    0  0.47595192161E-01  0.39048392680E-01 -0.33143182709E-01  0.69920032672E-01  0.51100000000E-03 0.  1.
         11    1    4    4    0    0  0.31753773544E-01  0.47401844108E-01 -0.20202991311E-01  0.60528166485E-01  0.51100000000E-03 0. -1.
</event>
<event>
 8    1  0.1070112E+005  0.1043930E+01  0.7957747E-01            NaN
         13   -1    0    0    0    0  0.00000000000E+00  0.00000000000E+00  0.74505805969E-08  0.10566000000E+00  0.10566000000E+00 0. -1.
     999900   -1    0    0    0    0 -0.00000000000E+00 -0.00000000000E+00 -0.74505805969E-08  0.93827000000E+00  0.93827000000E+00 0.  1.
     999902    2    1    2    0    0  0.62515228281E-02 -0.21580300413E-01  0.69043755894E-02  0.10204255046E+01  0.10201547672E+01 0.  0.
     999903    2    3    3    0    0  0.95416464189E-01 -0.49482729578E-01  0.75655310197E-01  0.13281318866E+00  0.19046652133E-01 0.  0.
         14    1    1    2    0    0 -0.62515228281E-02  0.21580300413E-01 -0.69043755894E-02  0.23504495439E-01  0.00000000000E+00 0.  1.
     999901    1    3    3    0    0 -0.89164941361E-01  0.27902429165E-01 -0.68750934607E-01  0.88761231590E+00  0.88000000000E+00 0. -1.
        -11    1    4    4    0    0  0.32930413678E-01 -0.27517472994E-01  0.29110788376E-01  0.51858678983E-01  0.51100000000E-03 0.  1.
         11    1    4    4    0    0  0.62486050512E-01 -0.21965256584E-01  0.46544521820E-01  0.80954509682E-01  0.51100000000E-03 0. -1.
</event>
<event>
 7    1  0.1070112E+005  0.1043930E+01  0.7957747E-01            NaN
         13   -1    0    0    0    0  0.00000000000E+00  0.00000000000E+00  0.74505805969E-08  0.10566000000E+00  0.10566000000E+00 0.  1.
     999900   -1    0    0    0    0 -0.00000000000E+00 -0.00000000000E+00 -0.74505805969E-08  0.93827000000E+00  0.93827000000E+00 0. -1.
     999903    2    1    2    0    0 -0.45923741810E-01 -0.32356915951E-01 -0.55974679612E-01  0.81672722169E-01  0.19527127723E-01 0.  0.
         14    1    1    2    0    0 -0.23308133984E-01 -0.56279213647E-01  0.43780056410E-01  0.75015414002E-01  0.00000000000E+00 0.  1.
     999901    1    1    2    0    0  0.69231875794E-01  0.88636129598E-01  0.12194623202E-01  0.88724186383E+00  0.88000000000E+00 0. -1.
        -11    1    3    3    0    0 -0.60970738589E-02 -0.11639137390E-01 -0.58814625487E-02  0.14404740593E-01  0.51100000000E-03 0.  1.
         11    1    3    3    0    0 -0.39826667951E-01 -0.20717778560E-01 -0.50093217063E-01  0.67267981576E-01  0.51100000000E-03 0. -1.
</event>
<event>
 8    1  0.1070112E+005  0.1043930E+01  0.7957747E-01            NaN
         13   -1    0    0    0    0  0.00000000000E+00  0.00000000000E+00  0.74505805969E-08  0.10566000000E+00  0.10566000000E+00 0. -1.
     999900   -1    0    0    0    0 -0.00000000000E+00 -0.00000000000E+00 -0.74505805969E-08  0.93827000000E+00  0.93827000000E+00 0.  1.
     999902    2    1    2    0    0 -0.16220131796E-01  0.59093250690E-02  0.17179290709E-01  0.10195755173E+01  0.10192845994E+01 0.  0.
     999903    2    3    3    0    0  0.11379194166E+00 -0.51014311381E-01 -0.17274065313E-01  0.12753825722E+00  0.20409501952E-01 0.  0.
         14    1    1    2    0    0  0.16220131796E-01 -0.59093250690E-02 -0.17179290709E-01  0.24354482699E-01  0.00000000000E+00 0.  1.
     999901    1    3    3    0    0 -0.13001207346E+00  0.56923636450E-01  0.34453356022E-01  0.89203726008E+00  0.88000000000E+00 0. -1.
        -11    1    4    4    0    0  0.71149528406E-01 -0.21081004288E-01 -0.11951243103E-01  0.75164868568E-01  0.51100000000E-03 0. -1.
         11    1    4    4    0    0  0.42642413255E-01 -0.29933307092E-01 -0.53228222103E-02  0.52373388652E-01  0.51100000000E-03 0.  1.
</event>
<event>
 8    1  0.1070112E+005  0.1043930E+01  0.7957747E-01            NaN
         13   -1    0    0    0    0  0.00000000000E+00  0.00000000000E+00  0.74505805969E-08  0.10566000000E+00  0.10566000000E+00 0. -1.
     999900   -1    0    0    0    0 -0.00000000000E+00 -0.00000000000E+00 -0.74505805969E-08  0.93827000000E+00  0.93827000000E+00 0.  1.
     999902    2    1    2    0    0 -0.18612342787E-01 -0.45370310304E-02  0.12455538826E-01  0.10210795207E+01  0.10208238062E+01 0.  0.
     999903    2    3    3    0    0 -0.98318786020E-01 -0.14502096137E-01  0.87867006040E-01  0.13420900652E+00  0.20360555113E-01 0.  0.
         14    1    1    2    0    0  0.18612342787E-01  0.45370310304E-02 -0.12455538826E-01  0.22850479252E-01  0.00000000000E+00 0. -1.
     999901    1    3    3    0    0  0.79706443233E-01  0.99650651070E-02 -0.75411467214E-01  0.88687051423E+00  0.88000000000E+00 0.  1.
        -11    1    4    4    0    0 -0.27670581939E-01  0.36762425432E-02  0.30947017343E-01  0.41679189861E-01  0.51100000000E-03 0. -1.
         11    1    4    4    0    0 -0.70648204081E-01 -0.18178338681E-01  0.56919988697E-01  0.92529816661E-01  0.51100000000E-03 0.  1.
</event>
<event>
 8    1  0.1070112E+005  0.1043930E+01  0.7957747E-01            NaN
         13   -1    0    0    0    0  0.00000000000E+00  0.00000000000E+00  0.74505805969E-08  0.10566000000E+00  0.10566000000E+00 0. -1.
     999900   -1    0    0    0    0 -0.00000000000E+00 -0.00000000000E+00 -0.74505805969E-08  0.93827000000E+00  0.93827000000E+00 0. -1.
     999902    2    1    2    0    0  0.21395072277E-01 -0.26747959529E-02 -0.93092120221E-02  0.10204445773E+01  0.10201742843E+01 0.  0.
     999903    2    3    3    0    0  0.29440146688E-01  0.10290665786E+00  0.71864139213E-01  0.13038768048E+00  0.19493338559E-01 0.  0.
         14    1    1    2    0    0 -0.21395072277E-01  0.26747959529E-02  0.93092120221E-02  0.23485422704E-01  0.00000000000E+00 0. -1.
     999901    1    3    3    0    0 -0.80450744119E-02 -0.10558145381E+00 -0.81173351236E-01  0.89005689681E+00  0.88000000000E+00 0. -1.
        -11    1    4    4    0    0  0.24591373469E-01  0.54261316879E-01  0.34396293886E-01  0.68792385572E-01  0.51100000000E-03 0.  1.
         11    1    4    4    0    0  0.48487732197E-02  0.48645340981E-01  0.37467845328E-01  0.61595294913E-01  0.51100000000E-03 0. -1.
</event>
<event>
 8    1  0.1070112E+005  0.1043930E+01  0.7957747E-01            NaN
         13   -1    0    0    0    0  0.00000000000E+00  0.00000000000E+00  0.74505805969E-08  0.10566000000E+00  0.10566000000E+00 0.  1.
     999900   -1    0    0    0    0 -0.00000000000E+00 -0.00000000000E+00 -0.74505805969E-08  0.93827000000E+00  0.93827000000E+00 0. -1.
     999902    2    1    2    0    0  0.10020538787E-01 -0.20593416443E-01 -0.75565306107E-02  0.10198135916E+01  0.10195284010E+01 0.  0.
     999903    2    3    3    0    0 -0.57975453350E-01  0.28170572539E-01  0.10897474654E+00  0.12819656614E+00  0.20102980853E-01 0.  0.
         14    1    1    2    0    0 -0.10020538787E-01  0.20593416443E-01  0.75565306107E-02  0.24116408382E-01  0.00000000000E+00 0. -1.
     999901    1    3    3    0    0  0.67995992137E-01 -0.48763988982E-01 -0.11653127715E+00  0.89161702548E+00  0.88000000000E+00 0. -1.
        -11    1    4    4    0    0 -0.47998354979E-01  0.28956139247E-01  0.10047820175E+00  0.11505837748E+00  0.51100000000E-03 0.  1.
         11    1    4    4    0    0 -0.99770983701E-02 -0.78556670737E-03  0.84965447899E-02  0.13138188662E-01  0.51100000000E-03 0. -1.
</event>
<event>
 8    1  0.1095508E+005  0.1043930E+01  0.7957747E-01            NaN
         13   -1    0    0    0    0  0.00000000000E+00  0.00000000000E+00  0.74505805969E-08  0.10566000000E+00  0.10566000000E+00 0. -1.
     999900   -1    0    0    0    0 -0.00000000000E+00 -0.00000000000E+00 -0.74505805969E-08  0.93827000000E+00  0.93827000000E+00 0. -1.
     999902    2    1    2    0    0  0.23631146409E-01  0.41449936204E-02  0.81285568218E-02  0.10185984882E+01  0.10182834550E+01 0.  0.
     999903    2    3    3    0    0  0.12262564115E-01  0.92604899307E-01  0.86485803322E-01  0.13062649674E+00  0.29282240714E-01 0.  0.
         14    1    1    2    0    0 -0.23631146409E-01 -0.41449936204E-02 -0.81285568218E-02  0.25331511773E-01  0.00000000000E+00 0. -1.
     999901    1    3    3    0    0  0.11368582294E-01 -0.88459905686E-01 -0.78357246500E-01  0.88797199148E+00  0.88000000000E+00 0. -1.
        -11    1    4    4    0    0  0.15161807763E-01  0.33935762131E-01  0.46655844766E-01  0.59653544219E-01  0.51100000000E-03 0. -1.
         11    1    4    4    0    0 -0.28992436478E-02  0.58669137175E-01  0.39829958556E-01  0.70972952526E-01  0.51100000000E-03 0.  1.
</event>
<event>
 8    1  0.1070112E+005  0.1043930E+01  0.7957747E-01            NaN
         13   -1    0    0    0    0  0.00000000000E+00  0.00000000000E+00  0.74505805969E-08  0.10566000000E+00  0.10566000000E+00 0.  1.
     999900   -1    0    0    0    0 -0.00000000000E+00 -0.00000000000E+00 -0.74505805969E-08  0.93827000000E+00  0.93827000000E+00 0.  1.
     999902    2    1    2    0    0  0.22982511704E-01  0.63888159721E-02  0.47344852736E-02  0.10196107039E+01  0.10193206361E+01 0.  0.
     999903    2    3    3    0    0 -0.89199965030E-01  0.29693714697E-01  0.85256871487E-01  0.12853726072E+00  0.20365235193E-01 0.  0.
         14    1    1    2    0    0 -0.22982511704E-01 -0.63888159721E-02 -0.47344852736E-02  0.24319296136E-01  0.00000000000E+00 0.  1.
     999901    1    3    3    0    0  0.11218247673E+00 -0.23304898725E-01 -0.80522386214E-01  0.89107344314E+00  0.88000000000E+00 0.  1.
        -11    1    4    4    0    0 -0.24772355103E-01  0.15169284166E-01  0.17498092534E-01  0.33914910036E-01  0.51100000000E-03 0. -1.
         11    1    4    4    0    0 -0.64427609927E-01  0.14524430531E-01  0.67758778954E-01  0.94622350687E-01  0.51100000000E-03 0.  1.
</event>
<event>
 8    1  0.1194893E+005  0.1043930E+01  0.7957747E-01            NaN
         13   -1    0    0    0    0  0.00000000000E+00  0.00000000000E+00  0.74505805969E-08  0.10566000000E+00  0.10566000000E+00 0. -1.
     999900   -1    0    0    0    0 -0.00000000000E+00 -0.00000000000E+00 -0.74505805969E-08  0.93827000000E+00  0.93827000000E+00 0. -1.
     999902    2    1    2    0    0  0.50176652442E-03  0.22939561521E-01 -0.24460409119E-02  0.10208549406E+01  0.10205941168E+01 0.  0.
     999903    2    3    3    0    0 -0.18026776081E-01 -0.10421897468E+00  0.69740974553E-01  0.12859737380E+00  0.22066301869E-01 0.  0.
         14    1    1    2    0    0 -0.50176652442E-03 -0.22939561521E-01  0.24460409119E-02  0.23075059449E-01  0.00000000000E+00 0.  1.
     999901    1    3    3    0    0  0.18528542606E-01  0.12715853620E+00 -0.72187015465E-01  0.89225756675E+00  0.88000000000E+00 0.  1.
        -11    1    4    4    0    0  0.26239392657E-02 -0.48372864001E-01  0.29285654833E-01  0.56610332351E-01  0.51100000000E-03 0.  1.
         11    1    4    4    0    0 -0.20650715347E-01 -0.55846110678E-01  0.40455319720E-01  0.71987041451E-01  0.51100000000E-03 0. -1.
</event>
<event>
 8    1  0.1070112E+005  0.1043930E+01  0.7957747E-01            NaN
         13   -1    0    0    0    0  0.00000000000E+00  0.00000000000E+00  0.74505805969E-08  0.10566000000E+00  0.10566000000E+00 0.  1.
     999900   -1    0    0    0    0 -0.00000000000E+00 -0.00000000000E+00 -0.74505805969E-08  0.93827000000E+00  0.93827000000E+00 0.  1.
     999902    2    1    2    0    0 -0.21958190250E-01  0.10148965622E-01  0.40141163832E-02  0.10194090548E+01  0.10191140978E+01 0.  0.
     999903    2    3    3    0    0  0.10614752083E+00 -0.58212574272E-01 -0.31490712783E-01  0.12680333769E+00  0.20770687908E-01 0.  0.
         14    1    1    2    0    0  0.21958190250E-01 -0.10148965622E-01 -0.40141163832E-02  0.24520945181E-01  0.00000000000E+00 0.  1.
     999901    1    3    3    0    0 -0.12810571108E+00  0.68361539894E-01  0.35504829167E-01  0.89260571712E+00  0.88000000000E+00 0. -1.
        -11    1    4    4    0    0  0.76766289968E-01 -0.36454800217E-01 -0.13487677241E-01  0.86047628048E-01  0.51100000000E-03 0.  1.
         11    1    4    4    0    0  0.29381230867E-01 -0.21757774055E-01 -0.18003035542E-01  0.40755709647E-01  0.51100000000E-03 0. -1.
</event>
<event>
 8    1  0.1070112E+005  0.1043930E+01  0.7957747E-01            NaN
         13   -1    0    0    0    0  0.00000000000E+00  0.00000000000E+00  0.74505805969E-08  0.10566000000E+00  0.10566000000E+00 0. -1.
     999900   -1    0    0    0    0 -0.00000000000E+00 -0.00000000000E+00 -0.74505805969E-08  0.93827000000E+00  0.93827000000E+00 0.  1.
     999902    2    1    2    0    0 -0.20125891598E-01  0.75562107846E-02  0.11771510724E-01  0.10194204855E+01  0.10191258068E+01 0.  0.
     999903    2    3    3    0    0  0.10665843985E+00  0.57053677261E-01 -0.35339515315E-01  0.12771217300E+00  0.20745431049E-01 0.  0.
         14    1    1    2    0    0  0.20125891598E-01 -0.75562107846E-02 -0.11771510724E-01  0.24509514454E-01  0.00000000000E+00 0.  1.
     999901    1    3    3    0    0 -0.12678433145E+00 -0.49497466476E-01  0.47111026040E-01  0.89170831255E+00  0.88000000000E+00 0. -1.
        -11    1    4    4    0    0  0.83358441182E-01  0.43579489519E-01 -0.36171019531E-01  0.10077899284E+00  0.51100000000E-03 0.  1.
         11    1    4    4    0    0  0.23299998668E-01  0.13474187742E-01  0.83150421596E-03  0.26933180160E-01  0.51100000000E-03 0. -1.
</event>
<event>
 8    1  0.1070112E+005  0.1043930E+01  0.7957747E-01            NaN
         13   -1    0    0    0    0  0.00000000000E+00  0.00000000000E+00  0.74505805969E-08  0.10566000000E+00  0.10566000000E+00 0.  1.
     999900   -1    0    0    0    0 -0.00000000000E+00 -0.00000000000E+00 -0.74505805969E-08  0.93827000000E+00  0.93827000000E+00 0. -1.
     999902    2    1    2    0    0  0.99711567724E-02 -0.84913019704E-03 -0.23618923733E-01  0.10182785176E+01  0.10179553728E+01 0.  0.
     999903    2    3    3    0    0  0.98951907363E-01  0.70057535788E-01 -0.44234163052E-01  0.13071425666E+00  0.20736861434E-01 0.  0.
         14    1    1    2    0    0 -0.99711567724E-02  0.84913019704E-03  0.23618923733E-01  0.25651482370E-01  0.00000000000E+00 0.  1.
     999901    1    3    3    0    0 -0.88980750591E-01 -0.70906665985E-01  0.20615239319E-01  0.88756426097E+00  0.88000000000E+00 0.  1.
        -11    1    4    4    0    0  0.61329045044E-01  0.30869753940E-01 -0.23737272822E-01  0.72649244431E-01  0.51100000000E-03 0. -1.
         11    1    4    4    0    0  0.37622862319E-01  0.39187781847E-01 -0.20496890230E-01  0.58065012230E-01  0.51100000000E-03 0.  1.
</event>
<event>
 8    1  0.1070112E+005  0.1043930E+01  0.7957747E-01            NaN
         13   -1    0    0    0    0  0.00000000000E+00  0.00000000000E+00  0.74505805969E-08  0.10566000000E+00  0.10566000000E+00 0.  1.
     999900   -1    0    0    0    0 -0.00000000000E+00 -0.00000000000E+00 -0.74505805969E-08  0.93827000000E+00  0.93827000000E+00 0.  1.
     999902    2    1    2    0    0  0.76835196865E-02  0.16899510306E-01 -0.15976492529E-01  0.10194375882E+01  0.10191433255E+01 0.  0.
     999903    2    3    3    0    0 -0.89032725042E-01  0.65420832769E-01 -0.68110404484E-01  0.13127865223E+00  0.19706492428E-01 0.  0.
         14    1    1    2    0    0 -0.76835196865E-02 -0.16899510306E-01  0.15976492529E-01  0.24492411823E-01  0.00000000000E+00 0.  1.
     999901    1    3    3    0    0  0.96716244728E-01 -0.48521322463E-01  0.52133911955E-01  0.88815893595E+00  0.88000000000E+00 0. -1.
        -11    1    4    4    0    0 -0.13693062908E-01  0.16918199692E-01 -0.71939618516E-02  0.22929013514E-01  0.51100000000E-03 0. -1.
         11    1    4    4    0    0 -0.75339662133E-01  0.48502633077E-01 -0.60916442633E-01  0.10834963872E+00  0.51100000000E-03 0.  1.
</event>
<event>
 8    1  0.1070112E+005  0.1043930E+01  0.7957747E-01            NaN
         13   -1    0    0    0    0  0.00000000000E+00  0.00000000000E+00  0.74505805969E-08  0.10566000000E+00  0.10566000000E+00 0.  1.
     999900   -1    0    0    0    0 -0.00000000000E+00 -0.00000000000E+00 -0.74505805969E-08  0.93827000000E+00  0.93827000000E+00 0.  1.
     999902    2    1    2    0    0 -0.11940586399E-01  0.11167683336E-01  0.15737601406E-01  0.10212371189E+01  0.10209849588E+01 0.  0.
     999903    2    3    3    0    0  0.37804136281E-01  0.36085312466E-01 -0.11680628393E+00  0.12957389368E+00  0.20356410787E-01 0.  0.
         14    1    1    2    0    0  0.11940586399E-01 -0.11167683336E-01 -0.15737601406E-01  0.22692881101E-01  0.00000000000E+00 0. -1.
     999901    1    3    3    0    0 -0.49744722680E-01 -0.24917629129E-01  0.13254388534E+00  0.89166322522E+00  0.88000000000E+00 0. -1.
        -11    1    4    4    0    0  0.25752068708E-01  0.31995085249E-01 -0.10247427472E+00  0.11039969485E+00  0.51100000000E-03 0. -1.
         11    1    4    4    0    0  0.12052067572E-01  0.40902272165E-02 -0.14332009214E-01  0.19174198824E-01  0.51100000000E-03 0.  1.
</event>
<event>
 8    1  0.1070112E+005  0.1043930E+01  0.7957747E-01            NaN
         13   -1    0    0    0    0  0.00000000000E+00  0.00000000000E+00  0.74505805969E-08  0.10566000000E+00  0.10566000000E+00 0.  1.
     999900   -1    0    0    0    0 -0.00000000000E+00 -0.00000000000E+00 -0.74505805969E-08  0.93827000000E+00  0.93827000000E+00 0.  1.
     999902    2    1    2    0    0 -0.80961759002E-02 -0.10571310746E-01  0.18796670750E-01  0.10208949071E+01  0.10206349963E+01 0.  0.
     999903    2    3    3    0    0 -0.17443227949E-01  0.19566605312E-01 -0.12434438399E+00  0.12877102390E+00  0.20816640521E-01 0.  0.
         14    1    1    2    0    0  0.80961759002E-02  0.10571310746E-01 -0.18796670750E-01  0.23035092932E-01  0.00000000000E+00 0. -1.
     999901    1    3    3    0    0  0.93470520486E-02 -0.30137916058E-01  0.14314105474E+00  0.89212388317E+00  0.88000000000E+00 0. -1.
        -11    1    4    4    0    0 -0.65272576308E-02 -0.13342456893E-02 -0.57516585084E-01  0.57903402184E-01  0.51100000000E-03 0. -1.
         11    1    4    4    0    0 -0.10915970318E-01  0.20900851001E-01 -0.66827798903E-01  0.70867621717E-01  0.51100000000E-03 0.  1.
</event>
<event>
 8    1  0.1070112E+005  0.1043930E+01  0.7957747E-01            NaN
         13   -1    0    0    0    0  0.00000000000E+00  0.00000000000E+00  0.74505805969E-08  0.10566000000E+00  0.10566000000E+00 0. -1.
     999900   -1    0    0    0    0 -0.00000000000E+00 -0.00000000000E+00 -0.74505805969E-08  0.93827000000E+00  0.93827000000E+00 0.  1.
     999902    2    1    2    0    0  0.47380018695E-02 -0.20977423026E-01 -0.90734244899E-02  0.10205884497E+01  0.10203214962E+01 0.  0.
     999903    2    3    3    0    0  0.11831222361E+00  0.50697268025E-01  0.28766889935E-03  0.13035028199E+00  0.20569832729E-01 0.  0.
         14    1    1    2    0    0 -0.47380018695E-02  0.20977423026E-01  0.90734244899E-02  0.23341550302E-01  0.00000000000E+00 0. -1.
     999901    1    3    3    0    0 -0.11357422175E+00 -0.71674691051E-01 -0.93610933893E-02  0.89023816771E+00  0.88000000000E+00 0. -1.
        -11    1    4    4    0    0  0.72561865733E-01  0.40928264687E-01 -0.37285581496E-02  0.83393707651E-01  0.51100000000E-03 0. -1.
         11    1    4    4    0    0  0.45750357882E-01  0.97690033381E-02  0.40162270490E-02  0.46956574335E-01  0.51100000000E-03 0.  1.
</event>
<event>
 8    1  0.1070112E+005  0.1043930E+01  0.7957747E-01            NaN
         13   -1    0    0    0    0  0.00000000000E+00  0.00000000000E+00  0.74505805969E-08  0.10566000000E+00  0.10566000000E+00 0.  1.
     999900   -1    0    0    0    0 -0.00000000000E+00 -0.00000000000E+00 -0.74505805969E-08  0.93827000000E+00  0.93827000000E+00 0. -1.
     999902    2    1    2    0    0  0.15139779946E-01 -0.17577113090E-01  0.37004528822E-02  0.10204382739E+01  0.10201678341E+01 0.  0.
     999903    2    3    3    0    0 -0.39195390509E-01 -0.11503685633E-02 -0.12200265714E+00  0.12969508955E+00  0.19964115751E-01 0.  0.
         14    1    1    2    0    0 -0.15139779946E-01  0.17577113090E-01 -0.37004528822E-02  0.23491726053E-01  0.00000000000E+00 0.  1.
     999901    1    3    3    0    0  0.54335170455E-01 -0.16426744527E-01  0.12570311003E+00  0.89074318440E+00  0.88000000000E+00 0.  1.
        -11    1    4    4    0    0 -0.31427816779E-01 -0.13859338137E-02 -0.65570997824E-01  0.72728573179E-01  0.51100000000E-03 0. -1.
         11    1    4    4    0    0 -0.77675737305E-02  0.23556525036E-03 -0.56431659319E-01  0.56966516368E-01  0.51100000000E-03 0.  1.
</event>
<event>
 8    1  0.1070112E+005  0.1043930E+01  0.7957747E-01            NaN
         13   -1    0    0    0    0  0.00000000000E+00  0.00000000000E+00  0.74505805969E-08  0.10566000000E+00  0.10566000000E+00 0. -1.
     999900   -1    0    0    0    0 -0.00000000000E+00 -0.00000000000E+00 -0.74505805969E-08  0.93827000000E+00  0.93827000000E+00 0. -1.
     999902    2    1    2    0    0  0.13473087093E-01  0.17167565485E-01  0.69198772002E-02  0.10210360252E+01  0.10207793252E+01 0.  0.
     999903    2    3    3    0    0 -0.10116019349E+00  0.30402477452E-01  0.74642166930E-01  0.13092240302E+00  0.20286131864E-01 0.  0.
         14    1    1    2    0    0 -0.13473087093E-01 -0.17167565485E-01 -0.69198772002E-02  0.22893974774E-01  0.00000000000E+00 0.  1.
     999901    1    3    3    0    0  0.11463328058E+00 -0.13234911967E-01 -0.67722289730E-01  0.89011362221E+00  0.88000000000E+00 0. -1.
        -11    1    4    4    0    0 -0.40890274436E-02  0.48071911599E-02  0.98221438597E-03  0.64074252538E-02  0.51100000000E-03 0. -1.
         11    1    4    4    0    0 -0.97071166047E-01  0.25595286292E-01  0.73659952544E-01  0.12451497777E+00  0.51100000000E-03 0.  1.
</event>
<event>
 8    1  0.1070112E+005  0.1043930E+01  0.7957747E-01            NaN
         13   -1    0    0    0    0  0.00000000000E+00  0.00000000000E+00  0.74505805969E-08  0.10566000000E+00  0.10566000000E+00 0.  1.
     999900   -1    0    0    0    0 -0.00000000000E+00 -0.00000000000E+00 -0.74505805969E-08  0.93827000000E+00  0.93827000000E+00 0.  1.
     999902    2    1    2    0    0 -0.20944227198E-01 -0.10772813457E-01  0.18982528637E-02  0.10203012563E+01  0.10200276154E+01 0.  0.
     999903    2    3    3    0    0 -0.12727508802E+00  0.14791956748E-01  0.29277999122E-01  0.13310936056E+00  0.21051143023E-01 0.  0.
         14    1    1    2    0    0  0.20944227198E-01  0.10772813457E-01 -0.18982528637E-02  0.23628743654E-01  0.00000000000E+00 0. -1.
     999901    1    3    3    0    0  0.10633086082E+00 -0.25564770205E-01 -0.27379746259E-01  0.88719189578E+00  0.88000000000E+00 0. -1.
        -11    1    4    4    0    0 -0.93023014851E-01  0.24653409804E-02  0.16391017513E-01  0.94489606699E-01  0.51100000000E-03 0. -1.
         11    1    4    4    0    0 -0.34252073167E-01  0.12326615767E-01  0.12886981610E-01  0.38619753864E-01  0.51100000000E-03 0.  1.
</event>
<event>
 8    1  0.1070112E+005  0.1043930E+01  0.7957747E-01            NaN
         13   -1    0    0    0    0  0.00000000000E+00  0.00000000000E+00  0.74505805969E-08  0.10566000000E+00  0.10566000000E+00 0.  1.
     999900   -1    0    0    0    0 -0.00000000000E+00 -0.00000000000E+00 -0.74505805969E-08  0.93827000000E+00  0.93827000000E+00 0. -1.
     999902    2    1    2    0    0  0.14041024998E-01 -0.14128727439E-01 -0.13147599510E-01  0.10200630627E+01  0.10197838110E+01 0.  0.
     999903    2    3    3    0    0  0.40060457197E-01  0.11904868044E+00  0.21932025632E-01  0.12897170213E+00  0.19371568269E-01 0.  0.
         14    1    1    2    0    0 -0.14041024998E-01  0.14128727439E-01  0.13147599510E-01  0.23866937276E-01  0.00000000000E+00 0.  1.
     999901    1    3    3    0    0 -0.26019432199E-01 -0.13317740788E+00 -0.35079625142E-01  0.89109136059E+00  0.88000000000E+00 0. -1.
        -11    1    4    4    0    0  0.15121707988E-01  0.43043584995E-01  0.17463571367E-01  0.48853389929E-01  0.51100000000E-03 0.  1.
         11    1    4    4    0    0  0.24938749209E-01  0.76005095445E-01  0.44684542649E-02  0.80118312203E-01  0.51100000000E-03 0. -1.
</event>
<event>
 8    1  0.1070112E+005  0.1043930E+01  0.7957747E-01            NaN
         13   -1    0    0    0    0  0.00000000000E+00  0.00000000000E+00  0.74505805969E-08  0.10566000000E+00  0.10566000000E+00 0. -1.
     999900   -1    0    0    0    0 -0.00000000000E+00 -0.00000000000E+00 -0.74505805969E-08  0.93827000000E+00  0.93827000000E+00 0. -1.
     999902    2    1    2    0    0 -0.12034862761E-01  0.19344686959E-01  0.72123399857E-02  0.10200328729E+01  0.10197529059E+01 0.  0.
     999903    2    3    3    0    0  0.11727414929E+00  0.11462260957E-01  0.50216474656E-01  0.12950925793E+00  0.19140116060E-01 0.  0.
         14    1    1    2    0    0  0.12034862761E-01 -0.19344686959E-01 -0.72123399857E-02  0.23897127093E-01  0.00000000000E+00 0.  1.
     999901    1    3    3    0    0 -0.12930901206E+00  0.78824260022E-02 -0.43004134671E-01  0.89052361498E+00  0.88000000000E+00 0. -1.
        -11    1    4    4    0    0  0.92080723718E-01  0.18009166952E-02  0.42552976433E-01  0.10145501420E+00  0.51100000000E-03 0. -1.
         11    1    4    4    0    0  0.25193425577E-01  0.96613442621E-02  0.76634982231E-02  0.28054243731E-01  0.51100000000E-03 0.  1.
</event>
<event>
 8    1  0.1070112E+005  0.1043930E+01  0.7957747E-01            NaN
         13   -1    0    0    0    0  0.00000000000E+00  0.00000000000E+00  0.74505805969E-08  0.10566000000E+00  0.10566000000E+00 0. -1.
     999900   -1    0    0    0    0 -0.00000000000E+00 -0.00000000000E+00 -0.74505805969E-08  0.93827000000E+00  0.93827000000E+00 0. -1.
     999902    2    1    2    0    0 -0.49856430950E-02 -0.22671679548E-01 -0.67018586386E-02  0.10197685307E+01  0.10194822605E+01 0.  0.
     999903    2    3    3    0    0 -0.76764780164E-01  0.49569508919E-01  0.88595715197E-01  0.12878443351E+00  0.19653546110E-01 0.  0.
         14    1    1    2    0    0  0.49856430950E-02  0.22671679548E-01  0.67018586386E-02  0.24161469322E-01  0.00000000000E+00 0. -1.
     999901    1    3    3    0    0  0.71779137069E-01 -0.72241188467E-01 -0.95297573836E-01  0.89098409717E+00  0.88000000000E+00 0. -1.
        -11    1    4    4    0    0 -0.40685471971E-01  0.37598644250E-01  0.50455429701E-01  0.74933151450E-01  0.51100000000E-03 0. -1.
         11    1    4    4    0    0 -0.36079308193E-01  0.11970864669E-01  0.38140285496E-01  0.53851282058E-01  0.51100000000E-03 0.  1.
</event>
<event>
 8    1  0.1070112E+005  0.1043930E+01  0.7957747E-01            NaN
         13   -1    0    0    0    0  0.00000000000E+00  0.00000000000E+00  0.74505805969E-08  0.10566000000E+00  0.10566000000E+00 0.  1.
     999900   -1    0    0    0    0 -0.00000000000E+00 -0.00000000000E+00 -0.74505805969E-08  0.93827000000E+00  0.93827000000E+00 0.  1.
     999902    2    1    2    0    0 -0.18850174275E-02 -0.11507655977E-02  0.22633940424E-01  0.10211885662E+01  0.10209353138E+01 0.  0.
     999903    2    3    3    0    0 -0.11634323466E+00 -0.16271257946E-01 -0.53100764822E-01  0.13042200960E+00  0.19741004983E-01 0.  0.
         14    1    1    2    0    0  0.18850174275E-02  0.11507655977E-02 -0.22633940424E-01  0.22741433800E-01  0.00000000000E+00 0. -1.
     999901    1    3    3    0    0  0.11445821723E+00  0.15120492348E-01  0.75734705246E-01  0.89076655660E+00  0.88000000000E+00 0.  1.
        -11    1    4    4    0    0 -0.58414544396E-01 -0.18300586180E-02 -0.34591368069E-01  0.67914887745E-01  0.51100000000E-03 0. -1.
         11    1    4    4    0    0 -0.57928690260E-01 -0.14441199328E-01 -0.18509396753E-01  0.62507121854E-01  0.51100000000E-03 0.  1.
</event>
<event>
 8    1  0.1070112E+005  0.1043930E+01  0.7957747E-01            NaN
         13   -1    0    0    0    0  0.00000000000E+00  0.00000000000E+00  0.74505805969E-08  0.10566000000E+00  0.10566000000E+00 0.  1.
     999900   -1    0    0    0    0 -0.00000000000E+00 -0.00000000000E+00 -0.74505805969E-08  0.93827000000E+00  0.93827000000E+00 0. -1.
     999902    2    1    2    0    0  0.19665870182E-02 -0.17626429567E-01 -0.19315121860E-01  0.10177072538E+01  0.10173693637E+01 0.  0.
     999903    2    3    3    0    0 -0.60043065062E-01 -0.65752487639E-01 -0.94960711275E-01  0.13098093213E+00  0.14488222893E-01 0.  0.
         14    1    1    2    0    0 -0.19665870182E-02  0.17626429567E-01  0.19315121860E-01  0.26222746162E-01  0.00000000000E+00 0.  1.
     999901    1    3    3    0    0  0.62009652080E-01  0.48126058072E-01  0.75645589414E-01  0.88672632171E+00  0.88000000000E+00 0.  1.
        -11    1    4    4    0    0 -0.13800113676E-02 -0.59462414606E-02 -0.95233433284E-02  0.11323312591E-01  0.51100000000E-03 0. -1.
         11    1    4    4    0    0 -0.58663053694E-01 -0.59806246178E-01 -0.85437367946E-01  0.11965761954E+00  0.51100000000E-03 0.  1.
</event>
<event>
 8    1  0.1070112E+005  0.1043930E+01  0.7957747E-01            NaN
         13   -1    0    0    0    0  0.00000000000E+00  0.00000000000E+00  0.74505805969E-08  0.10566000000E+00  0.10566000000E+00 0.  1.
     999900   -1    0    0    0    0 -0.00000000000E+00 -0.00000000000E+00 -0.74505805969E-08  0.93827000000E+00  0.93827000000E+00 0.  1.
     999902    2    1    2    0    0  0.16602735072E-01  0.16122808250E-01 -0.68630876796E-02  0.10197908672E+01  0.10195051325E+01 0.  0.
     999903    2    3    3    0    0 -0.60761722398E-01  0.54605692396E-01 -0.10029851768E+00  0.13063600377E+00  0.18226472005E-01 0.  0.
         14    1    1    2    0    0 -0.16602735072E-01 -0.16122808250E-01  0.68630876796E-02  0.24139132756E-01  0.00000000000E+00 0. -1.
     999901    1    3    3    0    0  0.77364457470E-01 -0.38482884146E-01  0.93435430004E-01  0.88915486347E+00  0.88000000000E+00 0. -1.
        -11    1    4    4    0    0 -0.39999295865E-01  0.36745164202E-01 -0.79308929794E-01  0.96126573994E-01  0.51100000000E-03 0. -1.
         11    1    4    4    0    0 -0.20762426533E-01  0.17860528194E-01 -0.20989587890E-01  0.34509429780E-01  0.51100000000E-03 0.  1.
</event>
<event>
 8    1  0.1070112E+005  0.1043930E+01  0.7957747E-01            NaN
         13   -1    0    0    0    0  0.00000000000E+00  0.00000000000E+00  0.74505805969E-08  0.10566000000E+00  0.10566000000E+00 0. -1.
     999900   -1    0    0    0    0 -0.00000000000E+00 -0.00000000000E+00 -0.74505805969E-08  0.93827000000E+00  0.93827000000E+00 0.  1.
     999902    2    1    2    0    0 -0.12339841985E-01 -0.15480891693E-02  0.19559216770E-01  0.10207517507E+01  0.10204885621E+01 0.  0.
     999903    2    3    3    0    0 -0.28283903779E-01  0.12281232597E+00 -0.28452605096E-01  0.13056926322E+00  0.18866243325E-01 0.  0.
         14    1    1    2    0    0  0.12339841985E-01  0.15480891693E-02 -0.19559216770E-01  0.23178249307E-01  0.00000000000E+00 0.  1.
     999901    1    3    3    0    0  0.15944061794E-01 -0.12436041514E+00  0.48011821866E-01  0.89018248747E+00  0.88000000000E+00 0.  1.
        -11    1    4    4    0    0 -0.77271404944E-02  0.11885981215E-01  0.13730110480E-03  0.14186797463E-01  0.51100000000E-03 0. -1.
         11    1    4    4    0    0 -0.20556763284E-01  0.11092634476E+00 -0.28589906201E-01  0.11638246576E+00  0.51100000000E-03 0.  1.
</event>
<event>
 8    1  0.1070112E+005  0.1043930E+01  0.7957747E-01            NaN
         13   -1    0    0    0    0  0.00000000000E+00  0.00000000000E+00  0.74505805969E-08  0.10566000000E+00  0.10566000000E+00 0.  1.
     999900   -1    0    0    0    0 -0.00000000000E+00 -0.00000000000E+00 -0.74505805969E-08  0.93827000000E+00  0.93827000000E+00 0. -1.
     999902    2    1    2    0    0  0.13457669621E-01 -0.33494223158E-02 -0.18921572692E-01  0.10204703876E+01  0.10202006952E+01 0.  0.
     999903    2    3    3    0    0 -0.39000361019E-01  0.32661561131E-01 -0.12054376546E+00  0.13233993210E+00  0.19880958265E-01 0.  0.
         14    1    1    2    0    0 -0.13457669621E-01  0.33494223158E-02  0.18921572692E-01  0.23459612414E-01  0.00000000000E+00 0.  1.
     999901    1    3    3    0    0  0.52458030641E-01 -0.36010983446E-01  0.10162219276E+00  0.88813045549E+00  0.88000000000E+00 0.  1.
        -11    1    4    4    0    0 -0.35092872729E-01  0.18083076115E-01 -0.85056538833E-01  0.93773041315E-01  0.51100000000E-03 0.  1.
         11    1    4    4    0    0 -0.39074882903E-02  0.14578485015E-01 -0.35487226623E-01  0.38566890780E-01  0.51100000000E-03 0. -1.
</event>
<event>
 8    1  0.1070112E+005  0.1043930E+01  0.7957747E-01            NaN
         13   -1    0    0    0    0  0.00000000000E+00  0.00000000000E+00  0.74505805969E-08  0.10566000000E+00  0.10566000000E+00 0.  1.
     999900   -1    0    0    0    0 -0.00000000000E+00 -0.00000000000E+00 -0.74505805969E-08  0.93827000000E+00  0.93827000000E+00 0.  1.
     999902    2    1    2    0    0 -0.14042016725E-01  0.12530141786E-01  0.13931428714E-01  0.10205148896E+01  0.10202462314E+01 0.  0.
     999903    2    3    3    0    0  0.12651553394E+00  0.73146770944E-03 -0.10313822123E-01  0.12895251609E+00  0.22708172631E-01 0.  0.
         14    1    1    2    0    0  0.14042016725E-01 -0.12530141786E-01 -0.13931428714E-01  0.23415110354E-01  0.00000000000E+00 0. -1.
     999901    1    3    3    0    0 -0.14055755067E+00  0.11798674076E-01  0.24245250838E-01  0.89156237356E+00  0.88000000000E+00 0. -1.
        -11    1    4    4    0    0  0.80601351326E-01 -0.94731424056E-02 -0.19749485214E-02  0.81181770154E-01  0.51100000000E-03 0.  1.
         11    1    4    4    0    0  0.45914182617E-01  0.10204610115E-01 -0.83388736020E-02  0.47770745932E-01  0.51100000000E-03 0. -1.
</event>
<event>
 8    1  0.1070112E+005  0.1043930E+01  0.7957747E-01            NaN
         13   -1    0    0    0    0  0.00000000000E+00  0.00000000000E+00  0.74505805969E-08  0.10566000000E+00  0.10566000000E+00 0. -1.
     999900   -1    0    0    0    0 -0.00000000000E+00 -0.00000000000E+00 -0.74505805969E-08  0.93827000000E+00  0.93827000000E+00 0. -1.
     999902    2    1    2    0    0  0.73901293019E-02  0.13309627325E-01 -0.18064605688E-01  0.10203060679E+01  0.10200325397E+01 0.  0.
     999903    2    3    3    0    0  0.21776360912E-01  0.12775258178E+00  0.15292380378E-01  0.13215245390E+00  0.20868208596E-01 0.  0.
         14    1    1    2    0    0 -0.73901293019E-02 -0.13309627325E-01  0.18064605688E-01  0.23623932131E-01  0.00000000000E+00 0. -1.
     999901    1    3    3    0    0 -0.14386231610E-01 -0.11444295445E+00 -0.33356986067E-01  0.88815361397E+00  0.88000000000E+00 0. -1.
        -11    1    4    4    0    0  0.62348055639E-02  0.22873071239E-01 -0.49172189798E-02  0.24217562879E-01  0.51100000000E-03 0.  1.
         11    1    4    4    0    0  0.15541555348E-01  0.10487951054E+00  0.20209599358E-01  0.10793489102E+00  0.51100000000E-03 0. -1.
</event>
<event>
 8    1  0.1070112E+005  0.1043930E+01  0.7957747E-01            NaN
         13   -1    0    0    0    0  0.00000000000E+00  0.00000000000E+00  0.74505805969E-08  0.10566000000E+00  0.10566000000E+00 0.  1.
     999900   -1    0    0    0    0 -0.00000000000E+00 -0.00000000000E+00 -0.74505805969E-08  0.93827000000E+00  0.93827000000E+00 0.  1.
     999902    2    1    2    0    0  0.16183023490E-01  0.54936145096E-02  0.16629038584E-01  0.10200847704E+01  0.10198060325E+01 0.  0.
     999903    2    3    3    0    0 -0.10121322680E+00  0.74688631728E-01 -0.19890971914E-01  0.12884768571E+00  0.19584850274E-01 0.  0.
         14    1    1    2    0    0 -0.16183023490E-01 -0.54936145096E-02 -0.16629038584E-01  0.23845229583E-01  0.00000000000E+00 0. -1.
     999901    1    3    3    0    0  0.11739625029E+00 -0.69195017219E-01  0.36520010498E-01  0.89123708471E+00  0.88000000000E+00 0.  1.
        -11    1    4    4    0    0 -0.21198166848E-01  0.67248502644E-02 -0.51478793517E-02  0.22833039036E-01  0.51100000000E-03 0.  1.
         11    1    4    4    0    0 -0.80015059952E-01  0.67963781464E-01 -0.14743092562E-01  0.10601464667E+00  0.51100000000E-03 0. -1.
</event>
<event>
 8    1  0.1070112E+005  0.1043930E+01  0.7957747E-01            NaN
         13   -1    0    0    0    0  0.00000000000E+00  0.00000000000E+00  0.74505805969E-08  0.10566000000E+00  0.10566000000E+00 0.  1.
     999900   -1    0    0    0    0 -0.00000000000E+00 -0.00000000000E+00 -0.74505805969E-08  0.93827000000E+00  0.93827000000E+00 0. -1.
     999902    2    1    2    0    0 -0.12354673752E-01  0.11459200582E-01  0.15822421247E-01  0.10208150642E+01  0.10205533279E+01 0.  0.
     999903    2    3    3    0    0  0.38672754105E-01  0.12404894143E+00  0.12224388130E-01  0.13216823113E+00  0.20863457864E-01 0.  0.
         14    1    1    2    0    0  0.12354673752E-01 -0.11459200582E-01 -0.15822421247E-01  0.23114935769E-01  0.00000000000E+00 0.  1.
     999901    1    3    3    0    0 -0.51027427857E-01 -0.11258974085E+00  0.35980331174E-02  0.88864683310E+00  0.88000000000E+00 0.  1.
        -11    1    4    4    0    0  0.63865428237E-03  0.30566602924E-01  0.50179042039E-02  0.30986538645E-01  0.51100000000E-03 0.  1.
         11    1    4    4    0    0  0.38034099823E-01  0.93482338509E-01  0.72064839262E-02  0.10118169248E+00  0.51100000000E-03 0. -1.
</event>
<event>
 8    1  0.1070112E+005  0.1043930E+01  0.7957747E-01            NaN
         13   -1    0    0    0    0  0.00000000000E+00  0.00000000000E+00  0.74505805969E-08  0.10566000000E+00  0.10566000000E+00 0.  1.
     999900   -1    0    0    0    0 -0.00000000000E+00 -0.00000000000E+00 -0.74505805969E-08  0.93827000000E+00  0.93827000000E+00 0. -1.
     999902    2    1    2    0    0 -0.89305181970E-02  0.23736824012E-01  0.83354484311E-02  0.10172341076E+01  0.10168837490E+01 0.  0.
     999903    2    3    3    0    0 -0.10077990460E+00  0.57083694445E-02 -0.74880908741E-01  0.12836612133E+00  0.26106243629E-01 0.  0.
         14    1    1    2    0    0  0.89305181970E-02 -0.23736824012E-01 -0.83354484311E-02  0.26695892380E-01  0.00000000000E+00 0. -1.
     999901    1    3    3    0    0  0.91849386408E-01  0.18028454567E-01  0.83216357172E-01  0.88886798629E+00  0.88000000000E+00 0.  1.
        -11    1    4    4    0    0 -0.37931473048E-01 -0.68530436686E-02 -0.39337674155E-01  0.55076987790E-01  0.51100000000E-03 0. -1.
         11    1    4    4    0    0 -0.62848431557E-01  0.12561413113E-01 -0.35543234587E-01  0.73289133536E-01  0.51100000000E-03 0.  1.
</event>
<event>
 8    1  0.1070112E+005  0.1043930E+01  0.7957747E-01            NaN
         13   -1    0    0    0    0  0.00000000000E+00  0.00000000000E+00  0.74505805969E-08  0.10566000000E+00  0.10566000000E+00 0. -1.
     999900   -1    0    0    0    0 -0.00000000000E+00 -0.00000000000E+00 -0.74505805969E-08  0.93827000000E+00  0.93827000000E+00 0. -1.
     999902    2    1    2    0    0  0.10477574075E-01 -0.17113023079E-01 -0.13890314600E-01  0.10195255751E+01  0.10192334483E+01 0.  0.
     999903    2    3    3    0    0 -0.69638845070E-01  0.48415896595E-02 -0.10887115549E+00  0.13052500937E+00  0.17630650608E-01 0.  0.
         14    1    1    2    0    0 -0.10477574075E-01  0.17113023079E-01  0.13890314600E-01  0.24404424949E-01  0.00000000000E+00 0. -1.
     999901    1    3    3    0    0  0.80116419145E-01 -0.21954612739E-01  0.94980840892E-01  0.88900056568E+00  0.88000000000E+00 0.  1.
        -11    1    4    4    0    0 -0.52831457156E-01  0.85754545399E-02 -0.70953043696E-01  0.88877988369E-01  0.51100000000E-03 0. -1.
         11    1    4    4    0    0 -0.16807387914E-01 -0.37338648804E-02 -0.37918111795E-01  0.41647021005E-01  0.51100000000E-03 0.  1.
</event>
<event>
 8    1  0.1070112E+005  0.1043930E+01  0.7957747E-01            NaN
         13   -1    0    0    0    0  0.00000000000E+00  0.00000000000E+00  0.74505805969E-08  0.10566000000E+00  0.10566000000E+00 0. -1.
     999900   -1    0    0    0    0 -0.00000000000E+00 -0.00000000000E+00 -0.74505805969E-08  0.93827000000E+00  0.93827000000E+00 0.  1.
     999902    2    1    2    0    0  0.23366400219E-01  0.47380862841E-03  0.27336282585E-02  0.10203994693E+01  0.10201281248E+01 0.  0.
     999903    2    3    3    0    0 -0.12426400824E+00  0.21146265127E-01 -0.25532482352E-03  0.12785758127E+00  0.21419328277E-01 0.  0.
         14    1    1    2    0    0 -0.23366400219E-01 -0.47380862841E-03 -0.27336282585E-02  0.23530530748E-01  0.00000000000E+00 0.  1.
     999901    1    3    3    0    0  0.14763040846E+00 -0.20672456499E-01  0.29889530820E-02  0.89254188798E+00  0.88000000000E+00 0.  1.
        -11    1    4    4    0    0 -0.96108386613E-01  0.70553175083E-02 -0.20166358327E-03  0.96368569937E-01  0.51100000000E-03 0. -1.
         11    1    4    4    0    0 -0.28155621631E-01  0.14090947619E-01 -0.53661240259E-04  0.31489011334E-01  0.51100000000E-03 0.  1.
</event>
<event>
 8    1  0.1070112E+005  0.1043930E+01  0.7957747E-01            NaN
         13   -1    0    0    0    0  0.00000000000E+00  0.00000000000E+00  0.74505805969E-08  0.10566000000E+00  0.10566000000E+00 0. -1.
     999900   -1    0    0    0    0 -0.00000000000E+00 -0.00000000000E+00 -0.74505805969E-08  0.93827000000E+00  0.93827000000E+00 0.  1.
     999902    2    1    2    0    0  0.14670954618E-01  0.18698621670E-01  0.41247253788E-02  0.10198076303E+01  0.10195222970E+01 0.  0.
     999903    2    3    3    0    0  0.12720621974E+00 -0.26695635563E-01 -0.23162261811E-02  0.13145729941E+00  0.19534005360E-01 0.  0.
         14    1    1    2    0    0 -0.14670954618E-01 -0.18698621670E-01 -0.41247253788E-02  0.24122369726E-01  0.00000000000E+00 0. -1.
     999901    1    3    3    0    0 -0.11253526513E+00  0.45394257234E-01  0.64409515600E-02  0.88835033086E+00  0.88000000000E+00 0. -1.
        -11    1    4    4    0    0  0.97165887670E-01 -0.23776669353E-01 -0.93265185035E-02  0.10046782968E+00  0.51100000000E-03 0.  1.
         11    1    4    4    0    0  0.30040332073E-01 -0.29189662109E-02  0.70102923224E-02  0.30989469731E-01  0.51100000000E-03 0. -1.
</event>
<event>
 8    1  0.1070112E+005  0.1043930E+01  0.7957747E-01            NaN
         13   -1    0    0    0    0  0.00000000000E+00  0.00000000000E+00  0.74505805969E-08  0.10566000000E+00  0.10566000000E+00 0. -1.
     999900   -1    0    0    0    0 -0.00000000000E+00 -0.00000000000E+00 -0.74505805969E-08  0.93827000000E+00  0.93827000000E+00 0. -1.
     999902    2    1    2    0    0 -0.10932619980E-01 -0.26934350949E-01 -0.24368867648E-02  0.10147594694E+01  0.10143401110E+01 0.  0.
     999903    2    3    3    0    0  0.18042308654E-01  0.11538436252E+00 -0.31017463811E-01  0.12239686813E+00  0.19489336861E-01 0.  0.
         14    1    1    2    0    0  0.10932619980E-01  0.26934350949E-01  0.24368867648E-02  0.29170530639E-01  0.00000000000E+00 0. -1.
     999901    1    3    3    0    0 -0.28974928634E-01 -0.14231871347E+00  0.28580577047E-01  0.89236260123E+00  0.88000000000E+00 0.  1.
        -11    1    4    4    0    0  0.49180623558E-03  0.63643390768E-01 -0.13995977519E-01  0.65168025669E-01  0.51100000000E-03 0.  1.
         11    1    4    4    0    0  0.17550502419E-01  0.51740971749E-01 -0.17021486292E-01  0.57228842460E-01  0.51100000000E-03 0. -1.
</event>
<event>
 8    1  0.1070112E+005  0.1043930E+01  0.7957747E-01            NaN
         13   -1    0    0    0    0  0.00000000000E+00  0.00000000000E+00  0.74505805969E-08  0.10566000000E+00  0.10566000000E+00 0.  1.
     999900   -1    0    0    0    0 -0.00000000000E+00 -0.00000000000E+00 -0.74505805969E-08  0.93827000000E+00  0.93827000000E+00 0.  1.
     999902    2    1    2    0    0  0.90614499404E-02  0.23732891637E-01 -0.35155214115E-02  0.10182839689E+01  0.10179609631E+01 0.  0.
     999903    2    3    3    0    0 -0.54406375007E-01  0.11191567449E+00  0.34590315824E-01  0.13078387153E+00  0.20561110529E-01 0.  0.
         14    1    1    2    0    0 -0.90614499404E-02 -0.23732891637E-01  0.35155214115E-02  0.25646031102E-01  0.00000000000E+00 0. -1.
     999901    1    3    3    0    0  0.63467824947E-01 -0.88182782852E-01 -0.38105837236E-01  0.88750009737E+00  0.88000000000E+00 0. -1.
        -11    1    4    4    0    0 -0.62159126561E-02  0.15969032904E-01 -0.22026789571E-02  0.17284689689E-01  0.51100000000E-03 0. -1.
         11    1    4    4    0    0 -0.48190462351E-01  0.95946641584E-01  0.36792994782E-01  0.11349918184E+00  0.51100000000E-03 0.  1.
</event>
<event>
 8    1  0.1070112E+005  0.1043930E+01  0.7957747E-01            NaN
         13   -1    0    0    0    0  0.00000000000E+00  0.00000000000E+00  0.74505805969E-08  0.10566000000E+00  0.10566000000E+00 0. -1.
     999900   -1    0    0    0    0 -0.00000000000E+00 -0.00000000000E+00 -0.74505805969E-08  0.93827000000E+00  0.93827000000E+00 0.  1.
     999902    2    1    2    0    0  0.12028588132E-01 -0.95831743888E-02  0.17118205479E-01  0.10209178918E+01  0.10206585054E+01 0.  0.
     999903    2    3    3    0    0 -0.87732812362E-01 -0.92908120301E-01  0.22562317796E-01  0.13135337927E+00  0.20388400582E-01 0.  0.
         14    1    1    2    0    0 -0.12028588132E-01  0.95831743888E-02 -0.17118205479E-01  0.23012108175E-01  0.00000000000E+00 0.  1.
     999901    1    3    3    0    0  0.99761400494E-01  0.83324945913E-01 -0.54441123165E-02  0.88956451256E+00  0.88000000000E+00 0.  1.
        -11    1    4    4    0    0 -0.31254899704E-01 -0.26971134337E-01 -0.13234173598E-02  0.41307667538E-01  0.51100000000E-03 0.  1.
         11    1    4    4    0    0 -0.56477912659E-01 -0.65936985965E-01  0.23885735155E-01  0.90045711732E-01  0.51100000000E-03 0. -1.
</event>
<event>
 8    1  0.1070112E+005  0.1043930E+01  0.7957747E-01            NaN
         13   -1    0    0    0    0  0.00000000000E+00  0.00000000000E+00  0.74505805969E-08  0.10566000000E+00  0.10566000000E+00 0. -1.
     999900   -1    0    0    0    0 -0.00000000000E+00 -0.00000000000E+00 -0.74505805969E-08  0.93827000000E+00  0.93827000000E+00 0.  1.
     999902    2    1    2    0    0 -0.38453810248E-02  0.21796384532E-01 -0.54043759675E-02  0.10211467471E+01  0.10208925519E+01 0.  0.
     999903    2    3    3    0    0  0.11489657009E+00  0.48523741039E-01 -0.39239577737E-01  0.13212547432E+00  0.19016341432E-01 0.  0.
         14    1    1    2    0    0  0.38453810248E-02 -0.21796384532E-01  0.54043759675E-02  0.22783252917E-01  0.00000000000E+00 0. -1.
     999901    1    3    3    0    0 -0.11874195111E+00 -0.26727356508E-01  0.33835201769E-01  0.88902127276E+00  0.88000000000E+00 0. -1.
        -11    1    4    4    0    0  0.53868147235E-01  0.21366291231E-01 -0.28087624545E-01  0.64400865375E-01  0.51100000000E-03 0.  1.
         11    1    4    4    0    0  0.61028422855E-01  0.27157449808E-01 -0.11151953192E-01  0.67724608948E-01  0.51100000000E-03 0. -1.
</event>
<event>
 8    1  0.1070112E+005  0.1043930E+01  0.7957747E-01            NaN
         13   -1    0    0    0    0  0.00000000000E+00  0.00000000000E+00  0.74505805969E-08  0.10566000000E+00  0.10566000000E+00 0.  1.
     999900   -1    0    0    0    0 -0.00000000000E+00 -0.00000000000E+00 -0.74505805969E-08  0.93827000000E+00  0.93827000000E+00 0.  1.
     999902    2    1    2    0    0 -0.21244290741E-01 -0.94778371055E-02  0.29440561130E-02  0.10204818284E+01  0.10202124021E+01 0.  0.
     999903    2    3    3    0    0 -0.57189226730E-01 -0.13380774853E-01  0.11627562899E+00  0.13247770861E+00  0.24097066037E-01 0.  0.
         14    1    1    2    0    0  0.21244290741E-01  0.94778371055E-02 -0.29440561130E-02  0.23448171607E-01  0.00000000000E+00 0.  1.
     999901    1    3    3    0    0  0.35944935989E-01  0.39029377475E-02 -0.11333157288E+00  0.88800411979E+00  0.88000000000E+00 0.  1.
        -11    1    4    4    0    0 -0.42435684571E-01  0.29786462807E-03  0.67760276757E-01  0.79953688317E-01  0.51100000000E-03 0. -1.
         11    1    4    4    0    0 -0.14753542158E-01 -0.13678639481E-01  0.48515352232E-01  0.52524020290E-01  0.51100000000E-03 0.  1.
</event>
<event>
 8    1  0.1070112E+005  0.1043930E+01  0.7957747E-01            NaN
         13   -1    0    0    0    0  0.00000000000E+00  0.00000000000E+00  0.74505805969E-08  0.10566000000E+00  0.10566000000E+00 0. -1.
     999900   -1    0    0    0    0 -0.00000000000E+00 -0.00000000000E+00 -0.74505805969E-08  0.93827000000E+00  0.93827000000E+00 0.  1.
     999902    2    1    2    0    0  0.11195750673E-01 -0.20963502618E-01 -0.98864020920E-03  0.10201436450E+01  0.10198662980E+01 0.  0.
     999903    2    3    3    0    0 -0.49432680778E-01  0.63287553828E-01 -0.98576373796E-01  0.12868561852E+00  0.19843954873E-01 0.  0.
         14    1    1    2    0    0 -0.11195750673E-01  0.20963502618E-01  0.98864020920E-03  0.23786355009E-01  0.00000000000E+00 0. -1.
     999901    1    3    3    0    0  0.60628431451E-01 -0.84251056445E-01  0.97587733586E-01  0.89145802647E+00  0.88000000000E+00 0. -1.
        -11    1    4    4    0    0 -0.12713847911E-01  0.24939966614E-01 -0.46729988790E-01  0.54475653615E-01  0.51100000000E-03 0.  1.
         11    1    4    4    0    0 -0.36718832868E-01  0.38347587213E-01 -0.51846385005E-01  0.74209964906E-01  0.51100000000E-03 0. -1.
</event>
<event>
 7    1  0.1070112E+005  0.1043930E+01  0.7957747E-01            NaN
         13   -1    0    0    0    0  0.00000000000E+00  0.00000000000E+00  0.74505805969E-08  0.10566000000E+00  0.10566000000E+00 0.  1.
     999900   -1    0    0    0    0 -0.00000000000E+00 -0.00000000000E+00 -0.74505805969E-08  0.93827000000E+00  0.93827000000E+00 0.  1.
     999903    2    1    2    0    0 -0.46211926647E-01 -0.89886773365E-02  0.39592550297E-01  0.64595479640E-01  0.19714651053E-01 0.  0.
         14    1    1    2    0    0 -0.83110580057E-01 -0.59378912549E-02 -0.33313977922E-01  0.89735434445E-01  0.00000000000E+00 0. -1.
     999901    1    1    2    0    0  0.12932250670E+00  0.14926568591E-01 -0.62785723749E-02  0.88959908592E+00  0.88000000000E+00 0. -1.
        -11    1    3    3    0    0 -0.45877149271E-01 -0.41012491067E-02  0.36589379387E-01  0.58826668054E-01  0.51100000000E-03 0. -1.
         11    1    3    3    0    0 -0.33477737660E-03 -0.48874282298E-02  0.30031709102E-02  0.57688115855E-02  0.51100000000E-03 0.  1.
</event>
<event>
 8    1  0.1070112E+005  0.1043930E+01  0.7957747E-01            NaN
         13   -1    0    0    0    0  0.00000000000E+00  0.00000000000E+00  0.74505805969E-08  0.10566000000E+00  0.10566000000E+00 0. -1.
     999900   -1    0    0    0    0 -0.00000000000E+00 -0.00000000000E+00 -0.74505805969E-08  0.93827000000E+00  0.93827000000E+00 0. -1.
     999902    2    1    2    0    0  0.83288143543E-02 -0.14017965261E-01  0.16349935105E-01  0.10208390304E+01  0.10205778428E+01 0.  0.
     999903    2    3    3    0    0 -0.82436400092E-01 -0.58360076466E-01  0.83230590902E-01  0.13253864816E+00  0.20916582180E-01 0.  0.
         14    1    1    2    0    0 -0.83288143543E-02  0.14017965261E-01 -0.16349935105E-01  0.23090969589E-01  0.00000000000E+00 0.  1.
     999901    1    3    3    0    0  0.90765214446E-01  0.44342111204E-01 -0.66880655797E-01  0.88830038225E+00  0.88000000000E+00 0. -1.
        -11    1    4    4    0    0 -0.49137210027E-01 -0.22067692206E-01  0.44841609438E-01  0.70089082649E-01  0.51100000000E-03 0. -1.
         11    1    4    4    0    0 -0.33299190064E-01 -0.36292384260E-01  0.38388981465E-01  0.62449565516E-01  0.51100000000E-03 0.  1.
</event>
<event>
 8    1  0.1070112E+005  0.1043930E+01  0.7957747E-01            NaN
         13   -1    0    0    0    0  0.00000000000E+00  0.00000000000E+00  0.74505805969E-08  0.10566000000E+00  0.10566000000E+00 0.  1.
     999900   -1    0    0    0    0 -0.00000000000E+00 -0.00000000000E+00 -0.74505805969E-08  0.93827000000E+00  0.93827000000E+00 0. -1.
     999902    2    1    2    0    0  0.19162318726E-01 -0.72982540801E-02 -0.59078624866E-02  0.10225907917E+01  0.10223681164E+01 0.  0.
     999903    2    3    3    0    0 -0.76664998087E-01 -0.10466344010E+00  0.11706316391E-01  0.13187584662E+00  0.20548563313E-01 0.  0.
         14    1    1    2    0    0 -0.19162318726E-01  0.72982540801E-02  0.59078624866E-02  0.21339208297E-01  0.00000000000E+00 0.  1.
     999901    1    3    3    0    0  0.95827316813E-01  0.97365186015E-01 -0.17614178878E-01  0.89071494508E+00  0.88000000000E+00 0. -1.
        -11    1    4    4    0    0 -0.33064903554E-01 -0.59061560975E-01  0.12204715269E-01  0.68780607933E-01  0.51100000000E-03 0. -1.
         11    1    4    4    0    0 -0.43600094534E-01 -0.45601879120E-01 -0.49839887813E-03  0.63095238688E-01  0.51100000000E-03 0.  1.
</event>
<event>
 8    1  0.1070112E+005  0.1043930E+01  0.7957747E-01            NaN
         13   -1    0    0    0    0  0.00000000000E+00  0.00000000000E+00  0.74505805969E-08  0.10566000000E+00  0.10566000000E+00 0.  1.
     999900   -1    0    0    0    0 -0.00000000000E+00 -0.00000000000E+00 -0.74505805969E-08  0.93827000000E+00  0.93827000000E+00 0. -1.
     999902    2    1    2    0    0 -0.66288786787E-03  0.14001242404E-01 -0.19172274603E-01  0.10201802564E+01  0.10199037725E+01 0.  0.
     999903    2    3    3    0    0  0.11341725329E+00  0.17852827339E-01  0.56561887278E-01  0.12958226817E+00  0.20251428187E-01 0.  0.
         14    1    1    2    0    0  0.66288786787E-03 -0.14001242404E-01  0.19172274603E-01  0.23749743633E-01  0.00000000000E+00 0.  1.
     999901    1    3    3    0    0 -0.11408014115E+00 -0.38515849348E-02 -0.75734161882E-01  0.89059798820E+00  0.88000000000E+00 0. -1.
        -11    1    4    4    0    0  0.11094675832E-01 -0.40850290651E-02  0.41376066835E-02  0.12536355305E-01  0.51100000000E-03 0. -1.
         11    1    4    4    0    0  0.10232257745E+00  0.21937856404E-01  0.52424280595E-01  0.11704591286E+00  0.51100000000E-03 0.  1.
</event>
<event>
 8    1  0.1070112E+005  0.1043930E+01  0.7957747E-01            NaN
         13   -1    0    0    0    0  0.00000000000E+00  0.00000000000E+00  0.74505805969E-08  0.10566000000E+00  0.10566000000E+00 0. -1.
     999900   -1    0    0    0    0 -0.00000000000E+00 -0.00000000000E+00 -0.74505805969E-08  0.93827000000E+00  0.93827000000E+00 0. -1.
     999902    2    1    2    0    0 -0.23725028376E-02 -0.19113182100E-01  0.13705501285E-01  0.10202914031E+01  0.10200175312E+01 0.  0.
     999903    2    3    3    0    0  0.63926987642E-01  0.27821704387E-01  0.10975291945E+00  0.13134617835E+00  0.18585162243E-01 0.  0.
         14    1    1    2    0    0  0.23725028376E-02  0.19113182100E-01 -0.13705501285E-01  0.23638596938E-01  0.00000000000E+00 0.  1.
     999901    1    3    3    0    0 -0.66299490480E-01 -0.46934886487E-01 -0.96047418161E-01  0.88894522471E+00  0.88000000000E+00 0.  1.
        -11    1    4    4    0    0  0.57500227989E-01  0.23769280059E-01  0.84283105925E-01  0.10476238809E+00  0.51100000000E-03 0.  1.
         11    1    4    4    0    0  0.64267596527E-02  0.40524243287E-02  0.25469813521E-01  0.26583790256E-01  0.51100000000E-03 0. -1.
</event>
<event>
 8    1  0.1070112E+005  0.1043930E+01  0.7957747E-01            NaN
         13   -1    0    0    0    0  0.00000000000E+00  0.00000000000E+00  0.74505805969E-08  0.10566000000E+00  0.10566000000E+00 0.  1.
     999900   -1    0    0    0    0 -0.00000000000E+00 -0.00000000000E+00 -0.74505805969E-08  0.93827000000E+00  0.93827000000E+00 0.  1.
     999902    2    1    2    0    0  0.74270255249E-02 -0.12985474565E-01  0.18368974388E-01  0.10202402875E+01  0.10199652160E+01 0.  0.
     999903    2    3    3    0    0 -0.11570922213E+00 -0.43877829629E-02  0.57291409520E-01  0.13077336190E+00  0.20285212667E-01 0.  0.
         14    1    1    2    0    0 -0.74270255249E-02  0.12985474565E-01 -0.18368974388E-01  0.23689712491E-01  0.00000000000E+00 0. -1.
     999901    1    3    3    0    0  0.12313624766E+00 -0.85976916021E-02 -0.38922435132E-01  0.88946692560E+00  0.88000000000E+00 0.  1.
        -11    1    4    4    0    0 -0.24576598700E-01  0.73004671125E-02  0.13773855480E-01  0.29108181660E-01  0.51100000000E-03 0.  1.
         11    1    4    4    0    0 -0.91132623433E-01 -0.11688250075E-01  0.43517554040E-01  0.10166518024E+00  0.51100000000E-03 0. -1.
</event>
<event>
 8    1  0.1070112E+005  0.1043930E+01  0.7957747E-01            NaN
         13   -1    0    0    0    0  0.00000000000E+00  0.00000000000E+00  0.74505805969E-08  0.10566000000E+00  0.10566000000E+00 0.  1.
     999900   -1    0    0    0    0 -0.00000000000E+00 -0.00000000000E+00 -0.74505805969E-08  0.93827000000E+00  0.93827000000E+00 0.  1.
     999902    2    1    2    0    0  0.19294114699E-01  0.10427730594E-01 -0.11003526802E-01  0.10193927216E+01  0.10190973667E+01 0.  0.
     999903    2    3    3    0    0 -0.27568332004E-02 -0.71738021797E-01 -0.10661817555E+00  0.13013481966E+00  0.20339420615E-01 0.  0.
         14    1    1    2    0    0 -0.19294114699E-01 -0.10427730594E-01  0.11003526802E-01  0.24537278362E-01  0.00000000000E+00 0.  1.
     999901    1    3    3    0    0  0.22050947899E-01  0.82165752391E-01  0.95614648746E-01  0.88925790197E+00  0.88000000000E+00 0.  1.
        -11    1    4    4    0    0 -0.44772692339E-03 -0.24023880515E-02 -0.15037694385E-01  0.15243533093E-01  0.51100000000E-03 0.  1.
         11    1    4    4    0    0 -0.23091062770E-02 -0.69335633745E-01 -0.91580481163E-01  0.11489128657E+00  0.51100000000E-03 0. -1.
</event>
<event>
 8    1  0.1070112E+005  0.1043930E+01  0.7957747E-01            NaN
         13   -1    0    0    0    0  0.00000000000E+00  0.00000000000E+00  0.74505805969E-08  0.10566000000E+00  0.10566000000E+00 0. -1.
     999900   -1    0    0    0    0 -0.00000000000E+00 -0.00000000000E+00 -0.74505805969E-08  0.93827000000E+00  0.93827000000E+00 0. -1.
     999902    2    1    2    0    0  0.51867101902E-02 -0.10790346796E-01  0.21068145205E-01  0.10196977841E+01  0.10194098148E+01 0.  0.
     999903    2    3    3    0    0  0.54677443999E-01  0.74613533625E-01  0.91003023880E-01  0.13142190194E+00  0.20817388660E-01 0.  0.
         14    1    1    2    0    0 -0.51867101902E-02  0.10790346796E-01 -0.21068145205E-01  0.24232215931E-01  0.00000000000E+00 0. -1.
     999901    1    3    3    0    0 -0.49490733809E-01 -0.85403880422E-01 -0.69934878676E-01  0.88827588213E+00  0.88000000000E+00 0.  1.
        -11    1    4    4    0    0  0.31776930176E-01  0.52200892620E-01  0.47572113612E-01  0.77447231043E-01  0.51100000000E-03 0.  1.
         11    1    4    4    0    0  0.22900513823E-01  0.22412641006E-01  0.43430910269E-01  0.53974670893E-01  0.51100000000E-03 0. -1.
</event>
<event>
 8    1  0.1070112E+005  0.1043930E+01  0.7957747E-01            NaN
         13   -1    0    0    0    0  0.00000000000E+00  0.00000000000E+00  0.74505805969E-08  0.10566000000E+00  0.10566000000E+00 0.  1.
     999900   -1    0    0    0    0 -0.00000000000E+00 -0.00000000000E+00 -0.74505805969E-08  0.93827000000E+00  0.93827000000E+00 0.  1.
     999902    2    1    2    0    0  0.23836676796E-01  0.62299372738E-02 -0.74381517661E-02  0.10181943170E+01  0.10178690199E+01 0.  0.
     999903    2    3    3    0    0 -0.26397715556E-01 -0.57161215128E-01 -0.10937181626E+00  0.12862565502E+00  0.24862040049E-01 0.  0.
         14    1    1    2    0    0 -0.23836676796E-01 -0.62299372738E-02  0.74381517661E-02  0.25735683026E-01  0.00000000000E+00 0.  1.
     999901    1    3    3    0    0  0.50234392352E-01  0.63391152401E-01  0.10193366449E+00  0.88956866196E+00  0.88000000000E+00 0. -1.
        -11    1    4    4    0    0 -0.73486069609E-02 -0.17396717208E-01 -0.57609057642E-01  0.60627654064E-01  0.51100000000E-03 0.  1.
         11    1    4    4    0    0 -0.19049108595E-01 -0.39764497919E-01 -0.51762758618E-01  0.67998000954E-01  0.51100000000E-03 0. -1.
</event>
<event>
 8    1  0.1070112E+005  0.1043930E+01  0.7957747E-01            NaN
         13   -1    0    0    0    0  0.00000000000E+00  0.00000000000E+00  0.74505805969E-08  0.10566000000E+00  0.10566000000E+00 0.  1.
     999900   -1    0    0    0    0 -0.00000000000E+00 -0.00000000000E+00 -0.74505805969E-08  0.93827000000E+00  0.93827000000E+00 0.  1.
     999902    2    1    2    0    0 -0.98798214601E-02  0.19469537488E-01  0.44690457845E-02  0.10216444412E+01  0.10214013501E+01 0.  0.
     999903    2    3    3    0    0  0.59211994466E-01 -0.94157387331E-01 -0.62806742263E-01  0.12911388778E+00  0.18815824923E-01 0.  0.
         14    1    1    2    0    0  0.98798214601E-02 -0.19469537488E-01 -0.44690457845E-02  0.22285558828E-01  0.00000000000E+00 0.  1.
     999901    1    3    3    0    0 -0.69091815926E-01  0.11362692482E+00  0.67275788048E-01  0.89253055339E+00  0.88000000000E+00 0. -1.
        -11    1    4    4    0    0  0.55644937679E-01 -0.77643385357E-01 -0.49418705118E-01  0.10755149425E+00  0.51100000000E-03 0.  1.
         11    1    4    4    0    0  0.35670567871E-02 -0.16514001974E-01 -0.13388037146E-01  0.21562393534E-01  0.51100000000E-03 0. -1.
</event>
<event>
 8    1  0.1070112E+005  0.1043930E+01  0.7957747E-01            NaN
         13   -1    0    0    0    0  0.00000000000E+00  0.00000000000E+00  0.74505805969E-08  0.10566000000E+00  0.10566000000E+00 0.  1.
     999900   -1    0    0    0    0 -0.00000000000E+00 -0.00000000000E+00 -0.74505805969E-08  0.93827000000E+00  0.93827000000E+00 0.  1.
     999902    2    1    2    0    0  0.22275071172E-01 -0.77762838644E-02  0.23542348973E-04  0.10203365700E+01  0.10200637559E+01 0.  0.
     999903    2    3    3    0    0  0.10770426851E+00 -0.20458990032E-01 -0.72912857469E-01  0.13310564331E+00  0.19546042304E-01 0.  0.
         14    1    1    2    0    0 -0.22275071172E-01  0.77762838644E-02 -0.23542348973E-04  0.23593430033E-01  0.00000000000E+00 0. -1.
     999901    1    3    3    0    0 -0.85429197334E-01  0.12682706168E-01  0.72936399818E-01  0.88723092665E+00  0.88000000000E+00 0. -1.
        -11    1    4    4    0    0  0.35678911319E-01 -0.67118420109E-02 -0.13524888566E-01  0.38745545135E-01  0.51100000000E-03 0.  1.
         11    1    4    4    0    0  0.72025357188E-01 -0.13747148022E-01 -0.59387968903E-01  0.94360098178E-01  0.51100000000E-03 0. -1.
</event>
<event>
 8    1  0.1070112E+005  0.1043930E+01  0.7957747E-01            NaN
         13   -1    0    0    0    0  0.00000000000E+00  0.00000000000E+00  0.74505805969E-08  0.10566000000E+00  0.10566000000E+00 0. -1.
     999900   -1    0    0    0    0 -0.00000000000E+00 -0.00000000000E+00 -0.74505805969E-08  0.93827000000E+00  0.93827000000E+00 0.  1.
     999902    2    1    2    0    0 -0.12677165867E-03  0.19604403134E-01  0.12552803611E-01  0.10206507910E+01  0.10203852780E+01 0.  0.
     999903    2    3    3    0    0  0.10638977141E-01  0.10208601227E-01  0.13034292857E+00  0.13268756204E+00  0.19982660457E-01 0.  0.
         14    1    1    2    0    0  0.12677165867E-03 -0.19604403134E-01 -0.12552803611E-01  0.23279209003E-01  0.00000000000E+00 0.  1.
     999901    1    3    3    0    0 -0.10765748800E-01  0.93958019071E-02 -0.11779012496E+00  0.88796322896E+00  0.88000000000E+00 0.  1.
        -11    1    4    4    0    0  0.70808040345E-02  0.12046303226E-01  0.42279805806E-01  0.44531947040E-01  0.51100000000E-03 0. -1.
         11    1    4    4    0    0  0.35581731070E-02 -0.18377019992E-02  0.88063122762E-01  0.88155615001E-01  0.51100000000E-03 0.  1.
</event>
<event>
 8    1  0.1070112E+005  0.1043930E+01  0.7957747E-01            NaN
         13   -1    0    0    0    0  0.00000000000E+00  0.00000000000E+00  0.74505805969E-08  0.10566000000E+00  0.10566000000E+00 0.  1.
     999900   -1    0    0    0    0 -0.00000000000E+00 -0.00000000000E+00 -0.74505805969E-08  0.93827000000E+00  0.93827000000E+00 0.  1.
     999902    2    1    2    0    0  0.20690435795E-01 -0.27719086719E-02  0.12670917842E-01  0.10195101357E+01  0.10192176348E+01 0.  0.
     999903    2    3    3    0    0  0.63282188251E-01  0.25750330587E-01  0.11177391176E+00  0.13246505295E+00  0.19643523852E-01 0.  0.
         14    1    1    2    0    0 -0.20690435795E-01  0.27719086719E-02 -0.12670917842E-01  0.24419864251E-01  0.00000000000E+00 0. -1.
     999901    1    3    3    0    0 -0.42591752456E-01 -0.28522239258E-01 -0.99102993916E-01  0.88704508280E+00  0.88000000000E+00 0.  1.
        -11    1    4    4    0    0  0.30956897919E-01  0.10318470565E-01  0.35643256604E-01  0.48327044457E-01  0.51100000000E-03 0.  1.
         11    1    4    4    0    0  0.32325290331E-01  0.15431860022E-01  0.76130655153E-01  0.84138008496E-01  0.51100000000E-03 0. -1.
</event>
<event>
 8    1  0.1070112E+005  0.1043930E+01  0.7957747E-01            NaN
         13   -1    0    0    0    0  0.00000000000E+00  0.00000000000E+00  0.74505805969E-08  0.10566000000E+00  0.10566000000E+00 0.  1.
     999900   -1    0    0    0    0 -0.00000000000E+00 -0.00000000000E+00 -0.74505805969E-08  0.93827000000E+00  0.93827000000E+00 0. -1.
     999902    2    1    2    0    0  0.17812473620E-01 -0.10567970313E-01 -0.94770894458E-02  0.10211532259E+01  0.10208991769E+01 0.  0.
     999903    2    3    3    0    0  0.29614123820E-01 -0.10959600794E+00 -0.67501515709E-01  0.13362144326E+00  0.20247325508E-01 0.  0.
         14    1    1    2    0    0 -0.17812473620E-01  0.10567970313E-01  0.94770894458E-02  0.22776774077E-01  0.00000000000E+00 0.  1.
     999901    1    3    3    0    0 -0.11801650200E-01  0.99028037631E-01  0.58024426263E-01  0.88753178266E+00  0.88000000000E+00 0.  1.
        -11    1    4    4    0    0  0.19378078724E-01 -0.36259108310E-01 -0.27419451431E-01  0.49419837193E-01  0.51100000000E-03 0. -1.
         11    1    4    4    0    0  0.10236045096E-01 -0.73336899635E-01 -0.40082064278E-01  0.84201606072E-01  0.51100000000E-03 0.  1.
</event>
<event>
 8    1  0.1070112E+005  0.1043930E+01  0.7957747E-01            NaN
         13   -1    0    0    0    0  0.00000000000E+00  0.00000000000E+00  0.74505805969E-08  0.10566000000E+00  0.10566000000E+00 0. -1.
     999900   -1    0    0    0    0 -0.00000000000E+00 -0.00000000000E+00 -0.74505805969E-08  0.93827000000E+00  0.93827000000E+00 0. -1.
     999902    2    1    2    0    0  0.21034198438E-01 -0.59237878950E-02  0.98450344747E-02  0.10199622410E+01  0.10196805969E+01 0.  0.
     999903    2    3    3    0    0  0.12120332925E+00 -0.36851851540E-01 -0.34052499634E-01  0.13265316668E+00  0.19722675195E-01 0.  0.
         14    1    1    2    0    0 -0.21034198438E-01  0.59237878950E-02 -0.98450344747E-02  0.23967758985E-01  0.00000000000E+00 0.  1.
     999901    1    3    3    0    0 -0.10016913081E+00  0.30928063645E-01  0.43897534108E-01  0.88730907433E+00  0.88000000000E+00 0.  1.
        -11    1    4    4    0    0  0.10530041346E+00 -0.25854935450E-01 -0.24881548717E-01  0.11124750491E+00  0.51100000000E-03 0.  1.
         11    1    4    4    0    0  0.15902915791E-01 -0.10996916091E-01 -0.91709509169E-02  0.21405661771E-01  0.51100000000E-03 0. -1.
</event>
<event>
 8    1  0.1070112E+005  0.1043930E+01  0.7957747E-01            NaN
         13   -1    0    0    0    0  0.00000000000E+00  0.00000000000E+00  0.74505805969E-08  0.10566000000E+00  0.10566000000E+00 0. -1.
     999900   -1    0    0    0    0 -0.00000000000E+00 -0.00000000000E+00 -0.74505805969E-08  0.93827000000E+00  0.93827000000E+00 0.  1.
     999902    2    1    2    0    0 -0.16753584065E-01  0.13854145073E-01 -0.11225773143E-01  0.10194629222E+01  0.10191692753E+01 0.  0.
     999903    2    3    3    0    0  0.73535278420E-01  0.10385640328E+00  0.18451730049E-01  0.12978138400E+00  0.17582707899E-01 0.  0.
         14    1    1    2    0    0  0.16753584065E-01 -0.13854145073E-01  0.11225773143E-01  0.24467077827E-01  0.00000000000E+00 0.  1.
     999901    1    3    3    0    0 -0.90288862486E-01 -0.90002258204E-01 -0.29677503191E-01  0.88968153817E+00  0.88000000000E+00 0.  1.
        -11    1    4    4    0    0  0.38660410231E-01  0.69162411728E-01  0.12783493112E-01  0.80260484252E-01  0.51100000000E-03 0. -1.
         11    1    4    4    0    0  0.34874868189E-01  0.34693991550E-01  0.56682369369E-02  0.49520899748E-01  0.51100000000E-03 0.  1.
</event>
<event>
 8    1  0.1070112E+005  0.1043930E+01  0.7957747E-01            NaN
         13   -1    0    0    0    0  0.00000000000E+00  0.00000000000E+00  0.74505805969E-08  0.10566000000E+00  0.10566000000E+00 0. -1.
     999900   -1    0    0    0    0 -0.00000000000E+00 -0.00000000000E+00 -0.74505805969E-08  0.93827000000E+00  0.93827000000E+00 0. -1.
     999902    2    1    2    0    0 -0.95038887662E-02  0.17685869664E-01  0.11792167151E-01  0.10206454752E+01  0.10203798396E+01 0.  0.
     999903    2    3    3    0    0 -0.11995020682E+00  0.45425914519E-01  0.28363573125E-01  0.13315321569E+00  0.21765126748E-01 0.  0.
         14    1    1    2    0    0  0.95038887662E-02 -0.17685869664E-01 -0.11792167151E-01  0.23284524766E-01  0.00000000000E+00 0.  1.
     999901    1    3    3    0    0  0.11044631805E+00 -0.27740044855E-01 -0.16571405974E-01  0.88749225955E+00  0.88000000000E+00 0. -1.
        -11    1    4    4    0    0 -0.66593820442E-01  0.14445507157E-01  0.19021622451E-01  0.70749507700E-01  0.51100000000E-03 0. -1.
         11    1    4    4    0    0 -0.53356386374E-01  0.30980407362E-01  0.93419506747E-02  0.62403707988E-01  0.51100000000E-03 0.  1.
</event>
<event>
 8    1  0.1070112E+005  0.1043930E+01  0.7957747E-01            NaN
         13   -1    0    0    0    0  0.00000000000E+00  0.00000000000E+00  0.74505805969E-08  0.10566000000E+00  0.10566000000E+00 0.  1.
     999900   -1    0    0    0    0 -0.00000000000E+00 -0.00000000000E+00 -0.74505805969E-08  0.93827000000E+00  0.93827000000E+00 0. -1.
     999902    2    1    2    0    0 -0.16584744256E-01 -0.13663621705E-01 -0.97369757191E-02  0.10203385398E+01  0.10200657718E+01 0.  0.
     999903    2    3    3    0    0  0.33313030862E-01  0.93585356846E-01  0.78296691277E-01  0.12807061033E+00  0.20093091459E-01 0.  0.
         14    1    1    2    0    0  0.16584744256E-01  0.13663621705E-01  0.97369757191E-02  0.23591460241E-01  0.00000000000E+00 0.  1.
     999901    1    3    3    0    0 -0.49897775118E-01 -0.10724897855E+00 -0.88033666996E-01  0.89226792943E+00  0.88000000000E+00 0. -1.
        -11    1    4    4    0    0  0.29428167211E-01  0.82010620907E-01  0.58994175101E-01  0.10522515281E+00  0.51100000000E-03 0.  1.
         11    1    4    4    0    0  0.38848636511E-02  0.11574735940E-01  0.19302516175E-01  0.22845457521E-01  0.51100000000E-03 0. -1.
</event>
<event>
 8    1  0.1070112E+005  0.1043930E+01  0.7957747E-01            NaN
         13   -1    0    0    0    0  0.00000000000E+00  0.00000000000E+00  0.74505805969E-08  0.10566000000E+00  0.10566000000E+00 0. -1.
     999900   -1    0    0    0    0 -0.00000000000E+00 -0.00000000000E+00 -0.74505805969E-08  0.93827000000E+00  0.93827000000E+00 0. -1.
     999902    2    1    2    0    0  0.17042010669E-02 -0.14065818958E-01  0.20003501398E-01  0.10194169090E+01  0.10191221431E+01 0.  0.
     999903    2    3    3    0    0  0.97697105161E-01  0.65735792311E-01 -0.46787794679E-01  0.12810102105E+00  0.18837598485E-01 0.  0.
         14    1    1    2    0    0 -0.17042010669E-02  0.14065818958E-01 -0.20003501398E-01  0.24513091042E-01  0.00000000000E+00 0.  1.
     999901    1    3    3    0    0 -0.95992904094E-01 -0.79801611270E-01  0.66791296077E-01  0.89131588790E+00  0.88000000000E+00 0. -1.
        -11    1    4    4    0    0  0.50852757943E-01  0.45411195748E-01 -0.27351043876E-01  0.73461012869E-01  0.51100000000E-03 0.  1.
         11    1    4    4    0    0  0.46844347218E-01  0.20324596564E-01 -0.19436750803E-01  0.54640008186E-01  0.51100000000E-03 0. -1.
</event>
<event>
 8    1  0.1070112E+005  0.1043930E+01  0.7957747E-01            NaN
         13   -1    0    0    0    0  0.00000000000E+00  0.00000000000E+00  0.74505805969E-08  0.10566000000E+00  0.10566000000E+00 0.  1.
     999900   -1    0    0    0    0 -0.00000000000E+00 -0.00000000000E+00 -0.74505805969E-08  0.93827000000E+00  0.93827000000E+00 0. -1.
     999902    2    1    2    0    0  0.18564932122E-01 -0.14239045900E-01 -0.24911276557E-02  0.10204010211E+01  0.10201297128E+01 0.  0.
     999903    2    3    3    0    0 -0.46423667379E-01  0.70133269448E-01  0.94974239008E-01  0.12863776584E+00  0.21301087980E-01 0.  0.
         14    1    1    2    0    0 -0.18564932122E-01  0.14239045900E-01  0.24911276557E-02  0.23528978938E-01  0.00000000000E+00 0. -1.
     999901    1    3    3    0    0  0.64988599501E-01 -0.84372315349E-01 -0.97465366664E-01  0.89176325522E+00  0.88000000000E+00 0.  1.
        -11    1    4    4    0    0 -0.15936676725E-01  0.16915939206E-01  0.40043503621E-01  0.46301943453E-01  0.51100000000E-03 0.  1.
         11    1    4    4    0    0 -0.30486990654E-01  0.53217330243E-01  0.54930735387E-01  0.82335822389E-01  0.51100000000E-03 0. -1.
</event>
<event>
 8    1  0.1070112E+005  0.1043930E+01  0.7957747E-01            NaN
         13   -1    0    0    0    0  0.00000000000E+00  0.00000000000E+00  0.74505805969E-08  0.10566000000E+00  0.10566000000E+00 0. -1.
     999900   -1    0    0    0    0 -0.00000000000E+00 -0.00000000000E+00 -0.74505805969E-08  0.93827000000E+00  0.93827000000E+00 0. -1.
     999902    2    1    2    0    0 -0.94147980900E-02 -0.13817684335E-01  0.16205505454E-01  0.10206451287E+01  0.10203794851E+01 0.  0.
     999903    2    3    3    0    0  0.69835405472E-02  0.12392843606E+00  0.31620756924E-01  0.12964539293E+00  0.20025696905E-01 0.  0.
         14    1    1    2    0    0  0.94147980900E-02  0.13817684335E-01 -0.16205505454E-01  0.23284871279E-01  0.00000000000E+00 0.  1.
     999901    1    3    3    0    0 -0.16398338637E-01 -0.13774612040E+00 -0.15415251470E-01  0.89099973579E+00  0.88000000000E+00 0.  1.
        -11    1    4    4    0    0 -0.60721864810E-02  0.59918467777E-01  0.11775929535E-01  0.61367971018E-01  0.51100000000E-03 0. -1.
         11    1    4    4    0    0  0.13055727028E-01  0.64009968287E-01  0.19844827389E-01  0.68277421916E-01  0.51100000000E-03 0.  1.
</event>
<event>
 8    1  0.1070112E+005  0.1043930E+01  0.7957747E-01            NaN
         13   -1    0    0    0    0  0.00000000000E+00  0.00000000000E+00  0.74505805969E-08  0.10566000000E+00  0.10566000000E+00 0.  1.
     999900   -1    0    0    0    0 -0.00000000000E+00 -0.00000000000E+00 -0.74505805969E-08  0.93827000000E+00  0.93827000000E+00 0. -1.
     999902    2    1    2    0    0  0.87952035517E-04  0.77399768427E-02 -0.22913102208E-01  0.10197447725E+01  0.10194579323E+01 0.  0.
     999903    2    3    3    0    0  0.55028607362E-01 -0.10820717022E+00  0.37197302393E-01  0.12841123376E+00  0.19205893218E-01 0.  0.
         14    1    1    2    0    0 -0.87952035517E-04 -0.77399768427E-02  0.22913102208E-01  0.24185227513E-01  0.00000000000E+00 0.  1.
     999901    1    3    3    0    0 -0.54940655326E-01  0.11594714707E+00 -0.60110404601E-01  0.89133353873E+00  0.88000000000E+00 0. -1.
        -11    1    4    4    0    0  0.36419785242E-01 -0.74570392535E-01  0.34488574688E-01  0.89871392027E-01  0.51100000000E-03 0.  1.
         11    1    4    4    0    0  0.18608822120E-01 -0.33636777688E-01  0.27087277054E-02  0.38539841731E-01  0.51100000000E-03 0. -1.
</event>
<event>
 8    1  0.1070112E+005  0.1043930E+01  0.7957747E-01            NaN
         13   -1    0    0    0    0  0.00000000000E+00  0.00000000000E+00  0.74505805969E-08  0.10566000000E+00  0.10566000000E+00 0. -1.
     999900   -1    0    0    0    0 -0.00000000000E+00 -0.00000000000E+00 -0.74505805969E-08  0.93827000000E+00  0.93827000000E+00 0. -1.
     999902    2    1    2    0    0  0.92185851282E-02  0.13894152999E-01  0.13266478522E-01  0.10226220378E+01  0.10224000210E+01 0.  0.
     999903    2    3    3    0    0  0.11891904196E+00 -0.21530575444E-01 -0.51120724911E-01  0.13277103144E+00  0.20236453594E-01 0.  0.
         14    1    1    2    0    0 -0.92185851282E-02 -0.13894152999E-01 -0.13266478522E-01  0.21307962167E-01  0.00000000000E+00 0.  1.
     999901    1    3    3    0    0 -0.10970045683E+00  0.35424728444E-01  0.64387203433E-01  0.88985100639E+00  0.88000000000E+00 0.  1.
        -11    1    4    4    0    0  0.70858103023E-01 -0.13442393897E-01 -0.41099453969E-01  0.83012016932E-01  0.51100000000E-03 0.  1.
         11    1    4    4    0    0  0.48060938938E-01 -0.80881815479E-02 -0.10021270942E-01  0.49759014507E-01  0.51100000000E-03 0. -1.
</event>
<event>
 8    1  0.1070112E+005  0.1043930E+01  0.7957747E-01            NaN
         13   -1    0    0    0    0  0.00000000000E+00  0.00000000000E+00  0.74505805969E-08  0.10566000000E+00  0.10566000000E+00 0.  1.
     999900   -1    0    0    0    0 -0.00000000000E+00 -0.00000000000E+00 -0.74505805969E-08  0.93827000000E+00  0.93827000000E+00 0.  1.
     999902    2    1    2    0    0  0.15553088134E-01  0.43423337860E-02 -0.12308296750E-01  0.10236260944E+01  0.10234247078E+01 0.  0.
     999903    2    3    3    0    0  0.36475948347E-02  0.10101407657E+00 -0.87322209701E-01  0.13507994831E+00  0.20106603720E-01 0.  0.
         14    1    1    2    0    0 -0.15553088134E-01 -0.43423337860E-02  0.12308296750E-01  0.20303905587E-01  0.00000000000E+00 0.  1.
     999901    1    3    3    0    0  0.11905493299E-01 -0.96671742788E-01  0.75013912951E-01  0.88854614611E+00  0.88000000000E+00 0. -1.
        -11    1    4    4    0    0  0.11011691807E-01  0.37897809848E-01 -0.31517689647E-01  0.50508684694E-01  0.51100000000E-03 0. -1.
         11    1    4    4    0    0 -0.73640969728E-02  0.63116266726E-01 -0.55804520054E-01  0.84571263613E-01  0.51100000000E-03 0.  1.
</event>
<event>
 8    1  0.1070112E+005  0.1043930E+01  0.7957747E-01            NaN
         13   -1    0    0    0    0  0.00000000000E+00  0.00000000000E+00  0.74505805969E-08  0.10566000000E+00  0.10566000000E+00 0.  1.
     999900   -1    0    0    0    0 -0.00000000000E+00 -0.00000000000E+00 -0.74505805969E-08  0.93827000000E+00  0.93827000000E+00 0. -1.
     999902    2    1    2    0    0 -0.58698721395E-02 -0.13667803181E-01 -0.19361727229E-01  0.10195140068E+01  0.10192215997E+01 0.  0.
     999903    2    3    3    0    0 -0.10627858503E+00  0.46180850227E-01  0.52894275665E-01  0.12884869317E+00  0.19400329151E-01 0.  0.
         14    1    1    2    0    0  0.58698721395E-02  0.13667803181E-01  0.19361727229E-01  0.24415993202E-01  0.00000000000E+00 0.  1.
     999901    1    3    3    0    0  0.10040871289E+00 -0.59848653408E-01 -0.72256002894E-01  0.89066531362E+00  0.88000000000E+00 0. -1.
        -11    1    4    4    0    0 -0.60741893094E-01  0.15888293990E-01  0.29069815718E-01  0.69190539595E-01  0.51100000000E-03 0.  1.
         11    1    4    4    0    0 -0.45536691935E-01  0.30292556237E-01  0.23824459947E-01  0.59658153579E-01  0.51100000000E-03 0. -1.
</event>
<event>
 8    1  0.1070112E+005  0.1043930E+01  0.7957747E-01            NaN
         13   -1    0    0    0    0  0.00000000000E+00  0.00000000000E+00  0.74505805969E-08  0.10566000000E+00  0.10566000000E+00 0.  1.
     999900   -1    0    0    0    0 -0.00000000000E+00 -0.00000000000E+00 -0.74505805969E-08  0.93827000000E+00  0.93827000000E+00 0.  1.
     999902    2    1    2    0    0 -0.54581286531E-02  0.19330614923E-01  0.15581857950E-01  0.10185083923E+01  0.10181910857E+01 0.  0.
     999903    2    3    3    0    0 -0.60562377873E-01  0.10271947651E+00 -0.48970980207E-01  0.13050093205E+00  0.20328401168E-01 0.  0.
         14    1    1    2    0    0  0.54581286531E-02 -0.19330614923E-01 -0.15581857950E-01  0.25421607716E-01  0.00000000000E+00 0. -1.
     999901    1    3    3    0    0  0.55104249220E-01 -0.83388861591E-01  0.64552838157E-01  0.88800746024E+00  0.88000000000E+00 0. -1.
        -11    1    4    4    0    0 -0.23990189952E-01  0.41952302337E-01 -0.30712421130E-01  0.57262892155E-01  0.51100000000E-03 0.  1.
         11    1    4    4    0    0 -0.36572187921E-01  0.60767174177E-01 -0.18258559077E-01  0.73238039893E-01  0.51100000000E-03 0. -1.
</event>
<event>
 7    1  0.1070112E+005  0.1043930E+01  0.7957747E-01            NaN
         13   -1    0    0    0    0  0.00000000000E+00  0.00000000000E+00  0.74505805969E-08  0.10566000000E+00  0.10566000000E+00 0. -1.
     999900   -1    0    0    0    0 -0.00000000000E+00 -0.00000000000E+00 -0.74505805969E-08  0.93827000000E+00  0.93827000000E+00 0.  1.
     999903    2    1    2    0    0  0.43977049497E-01 -0.46005135187E-02  0.44538502151E-01  0.65898848045E-01  0.20095631183E-01 0.  0.
         14    1    1    2    0    0 -0.71969936292E-01  0.26014068617E-01  0.51293366732E-01  0.92127156510E-01  0.00000000000E+00 0. -1.
     999901    1    1    2    0    0  0.27992886795E-01 -0.21413555098E-01 -0.95831868883E-01  0.88590399545E+00  0.88000000000E+00 0.  1.
        -11    1    3    3    0    0  0.43238885181E-02 -0.74779128320E-02  0.60286092705E-02  0.10546110324E-01  0.51100000000E-03 0. -1.
         11    1    3    3    0    0  0.39653160979E-01  0.28773993133E-02  0.38509892881E-01  0.55352737720E-01  0.51100000000E-03 0.  1.
</event>
<event>
 8    1  0.1070112E+005  0.1043930E+01  0.7957747E-01            NaN
         13   -1    0    0    0    0  0.00000000000E+00  0.00000000000E+00  0.74505805969E-08  0.10566000000E+00  0.10566000000E+00 0.  1.
     999900   -1    0    0    0    0 -0.00000000000E+00 -0.00000000000E+00 -0.74505805969E-08  0.93827000000E+00  0.93827000000E+00 0.  1.
     999902    2    1    2    0    0 -0.20761197404E-01  0.10920741726E-01 -0.12708952113E-02  0.10204373396E+01  0.10201668780E+01 0.  0.
     999903    2    3    3    0    0 -0.84308944334E-02  0.46997955829E-01 -0.12093572086E+00  0.13152042997E+00  0.19806238570E-01 0.  0.
         14    1    1    2    0    0  0.20761197404E-01 -0.10920741726E-01  0.12708952113E-02  0.23492660388E-01  0.00000000000E+00 0.  1.
     999901    1    3    3    0    0 -0.12330302970E-01 -0.36077214103E-01  0.11966482565E+00  0.88891690964E+00  0.88000000000E+00 0. -1.
        -11    1    4    4    0    0 -0.13705691026E-01  0.39431137637E-01 -0.10640211816E+00  0.11429931081E+00  0.51100000000E-03 0.  1.
         11    1    4    4    0    0  0.52747965921E-02  0.75668181918E-02 -0.14533602701E-01  0.17221119160E-01  0.51100000000E-03 0. -1.
</event>
<event>
 8    1  0.1070112E+005  0.1043930E+01  0.7957747E-01            NaN
         13   -1    0    0    0    0  0.00000000000E+00  0.00000000000E+00  0.74505805969E-08  0.10566000000E+00  0.10566000000E+00 0. -1.
     999900   -1    0    0    0    0 -0.00000000000E+00 -0.00000000000E+00 -0.74505805969E-08  0.93827000000E+00  0.93827000000E+00 0. -1.
     999902    2    1    2    0    0 -0.48321666679E-02  0.94353902691E-02  0.21688581525E-01  0.10197893498E+01  0.10195035787E+01 0.  0.
     999903    2    3    3    0    0  0.36912875655E-01  0.69014282916E-01  0.10544970772E+00  0.13282361241E+00  0.19923341118E-01 0.  0.
         14    1    1    2    0    0  0.48321666679E-02 -0.94353902691E-02 -0.21688581525E-01  0.24140650215E-01  0.00000000000E+00 0.  1.
     999901    1    3    3    0    0 -0.41745042323E-01 -0.59578892647E-01 -0.83761126194E-01  0.88696573737E+00  0.88000000000E+00 0. -1.
        -11    1    4    4    0    0  0.18472101998E-01  0.39887874706E-01  0.43029273119E-01  0.61514555732E-01  0.51100000000E-03 0.  1.
         11    1    4    4    0    0  0.18440773657E-01  0.29126408210E-01  0.62420434600E-01  0.71309056682E-01  0.51100000000E-03 0. -1.
</event>
<event>
 8    1  0.1070112E+005  0.1043930E+01  0.7957747E-01            NaN
         13   -1    0    0    0    0  0.00000000000E+00  0.00000000000E+00  0.74505805969E-08  0.10566000000E+00  0.10566000000E+00 0. -1.
     999900   -1    0    0    0    0 -0.00000000000E+00 -0.00000000000E+00 -0.74505805969E-08  0.93827000000E+00  0.93827000000E+00 0.  1.
     999902    2    1    2    0    0 -0.15132076067E-01 -0.31289231480E-02  0.17436048152E-01  0.10206322391E+01  0.10203662979E+01 0.  0.
     999903    2    3    3    0    0 -0.43109156881E-01 -0.11458747803E+00  0.46365209907E-01  0.13268932267E+00  0.21634096510E-01 0.  0.
         14    1    1    2    0    0  0.15132076067E-01  0.31289231480E-02 -0.17436048152E-01  0.23297760865E-01  0.00000000000E+00 0.  1.
     999901    1    3    3    0    0  0.27977080814E-01  0.11145855488E+00 -0.28929161755E-01  0.88794291647E+00  0.88000000000E+00 0. -1.
        -11    1    4    4    0    0 -0.17799159009E-01 -0.22451936569E-01  0.82736735578E-02  0.29826402939E-01  0.51100000000E-03 0.  1.
         11    1    4    4    0    0 -0.25309997873E-01 -0.92135541460E-01  0.38091536349E-01  0.10286291973E+00  0.51100000000E-03 0. -1.
</event>
<event>
 8    1  0.1070112E+005  0.1043930E+01  0.7957747E-01            NaN
         13   -1    0    0    0    0  0.00000000000E+00  0.00000000000E+00  0.74505805969E-08  0.10566000000E+00  0.10566000000E+00 0.  1.
     999900   -1    0    0    0    0 -0.00000000000E+00 -0.00000000000E+00 -0.74505805969E-08  0.93827000000E+00  0.93827000000E+00 0. -1.
     999902    2    1    2    0    0  0.15308540038E-02  0.98733259072E-02 -0.21870039593E-01  0.10198857759E+01  0.10196023104E+01 0.  0.
     999903    2    3    3    0    0  0.58900213308E-01  0.12166748504E-01 -0.11682607951E+00  0.13291725752E+00  0.20034959291E-01 0.  0.
         14    1    1    2    0    0 -0.15308540038E-02 -0.98733259072E-02  0.21870039593E-01  0.24044224052E-01  0.00000000000E+00 0.  1.
     999901    1    3    3    0    0 -0.57369359305E-01 -0.22934225972E-02  0.94956039921E-01  0.88696851843E+00  0.88000000000E+00 0.  1.
        -11    1    4    4    0    0  0.19816622198E-01 -0.53680011411E-02 -0.39260283812E-01  0.44307391681E-01  0.51100000000E-03 0. -1.
         11    1    4    4    0    0  0.39083591110E-01  0.17534749646E-01 -0.77565795702E-01  0.88609865834E-01  0.51100000000E-03 0.  1.
</event>
<event>
 8    1  0.1070112E+005  0.1043930E+01  0.7957747E-01            NaN
         13   -1    0    0    0    0  0.00000000000E+00  0.00000000000E+00  0.74505805969E-08  0.10566000000E+00  0.10566000000E+00 0.  1.
     999900   -1    0    0    0    0 -0.00000000000E+00 -0.00000000000E+00 -0.74505805969E-08  0.93827000000E+00  0.93827000000E+00 0. -1.
     999902    2    1    2    0    0 -0.23695183942E-02  0.10136468105E-02  0.18304546512E-01  0.10254449109E+01  0.10252782874E+01 0.  0.
     999903    2    3    3    0    0 -0.24293850396E-01  0.13166058138E+00  0.86234684836E-02  0.13547692205E+00  0.18839648135E-01 0.  0.
         14    1    1    2    0    0  0.23695183942E-02 -0.10136468105E-02 -0.18304546512E-01  0.18485089134E-01  0.00000000000E+00 0. -1.
     999901    1    3    3    0    0  0.21924332002E-01 -0.13064693457E+00  0.96810780287E-02  0.88996798882E+00  0.88000000000E+00 0.  1.
        -11    1    4    4    0    0 -0.87659986969E-02  0.37615746754E-01  0.10882200426E-01  0.40130668374E-01  0.51100000000E-03 0. -1.
         11    1    4    4    0    0 -0.15527851700E-01  0.94044834629E-01 -0.22587319428E-02  0.95346253675E-01  0.51100000000E-03 0.  1.
</event>
<event>
 8    1  0.1070112E+005  0.1043930E+01  0.7957747E-01            NaN
         13   -1    0    0    0    0  0.00000000000E+00  0.00000000000E+00  0.74505805969E-08  0.10566000000E+00  0.10566000000E+00 0. -1.
     999900   -1    0    0    0    0 -0.00000000000E+00 -0.00000000000E+00 -0.74505805969E-08  0.93827000000E+00  0.93827000000E+00 0. -1.
     999902    2    1    2    0    0 -0.20942415095E-02 -0.87817437558E-02 -0.20594980689E-01  0.10214431572E+01  0.10211956058E+01 0.  0.
     999903    2    3    3    0    0 -0.63189210073E-02 -0.41513060543E-02 -0.13256544808E+00  0.13432609926E+00  0.20316023537E-01 0.  0.
         14    1    1    2    0    0  0.20942415095E-02  0.87817437558E-02  0.20594980689E-01  0.22486842830E-01  0.00000000000E+00 0. -1.
     999901    1    3    3    0    0  0.42246794978E-02 -0.46304377015E-02  0.11197046739E+00  0.88711705791E+00  0.88000000000E+00 0.  1.
        -11    1    4    4    0    0 -0.49994246213E-02 -0.10517857738E-01 -0.43904766062E-01  0.45425864680E-01  0.51100000000E-03 0. -1.
         11    1    4    4    0    0 -0.13194963860E-02  0.63665516833E-02 -0.88660682019E-01  0.88900234578E-01  0.51100000000E-03 0.  1.
</event>
<event>
 8    1  0.1070112E+005  0.1043930E+01  0.7957747E-01            NaN
         13   -1    0    0    0    0  0.00000000000E+00  0.00000000000E+00  0.74505805969E-08  0.10566000000E+00  0.10566000000E+00 0. -1.
     999900   -1    0    0    0    0 -0.00000000000E+00 -0.00000000000E+00 -0.74505805969E-08  0.93827000000E+00  0.93827000000E+00 0.  1.
     999902    2    1    2    0    0  0.32163097428E-02 -0.15947139624E-01  0.16776638941E-01  0.10205609708E+01  0.10202933812E+01 0.  0.
     999903    2    3    3    0    0 -0.15232807904E-01 -0.39878912613E-01  0.12475848922E+00  0.13344588263E+00  0.20512358502E-01 0.  0.
         14    1    1    2    0    0 -0.32163097428E-02  0.15947139624E-01 -0.16776638941E-01  0.23369029178E-01  0.00000000000E+00 0.  1.
     999901    1    3    3    0    0  0.18449117647E-01  0.23931772988E-01 -0.10798185028E+00  0.88711508819E+00  0.88000000000E+00 0.  1.
        -11    1    4    4    0    0 -0.11723757373E-01 -0.41570456178E-01  0.11010311013E+00  0.11827301170E+00  0.51100000000E-03 0.  1.
         11    1    4    4    0    0 -0.35090505310E-02  0.16915435651E-02  0.14655379088E-01  0.15172870937E-01  0.51100000000E-03 0. -1.
</event>
<event>
 8    1  0.1070112E+005  0.1043930E+01  0.7957747E-01            NaN
         13   -1    0    0    0    0  0.00000000000E+00  0.00000000000E+00  0.74505805969E-08  0.10566000000E+00  0.10566000000E+00 0. -1.
     999900   -1    0    0    0    0 -0.00000000000E+00 -0.00000000000E+00 -0.74505805969E-08  0.93827000000E+00  0.93827000000E+00 0. -1.
     999902    2    1    2    0    0 -0.13729531911E-01 -0.27952239528E-02 -0.20042102242E-01  0.10194759781E+01  0.10191826484E+01 0.  0.
     999903    2    3    3    0    0 -0.23256915994E-02 -0.34512342923E-02 -0.13048166937E+00  0.13249944185E+00  0.22656482281E-01 0.  0.
         14    1    1    2    0    0  0.13729531911E-01  0.27952239528E-02  0.20042102242E-01  0.24454021872E-01  0.00000000000E+00 0. -1.
     999901    1    3    3    0    0 -0.11403840312E-01  0.65601033947E-03  0.11043956713E+00  0.88697653628E+00  0.88000000000E+00 0.  1.
        -11    1    4    4    0    0 -0.44450024522E-02  0.91002487574E-02 -0.50296168619E-01  0.51308267102E-01  0.51100000000E-03 0. -1.
         11    1    4    4    0    0  0.21193108528E-02 -0.12551483050E-01 -0.80185500749E-01  0.81191174746E-01  0.51100000000E-03 0.  1.
</event>
<event>
 8    1  0.1070112E+005  0.1043930E+01  0.7957747E-01            NaN
         13   -1    0    0    0    0  0.00000000000E+00  0.00000000000E+00  0.74505805969E-08  0.10566000000E+00  0.10566000000E+00 0.  1.
     999900   -1    0    0    0    0 -0.00000000000E+00 -0.00000000000E+00 -0.74505805969E-08  0.93827000000E+00  0.93827000000E+00 0.  1.
     999902    2    1    2    0    0 -0.89283964769E-02 -0.19086104024E-01  0.23154762070E-02  0.10227319562E+01  0.10225122479E+01 0.  0.
     999903    2    3    3    0    0 -0.65331616911E-01 -0.10250593548E+00 -0.55486881780E-01  0.13510517420E+00  0.19973158681E-01 0.  0.
         14    1    1    2    0    0  0.89283964769E-02  0.19086104024E-01 -0.23154762070E-02  0.21198043790E-01  0.00000000000E+00 0.  1.
     999901    1    3    3    0    0  0.56403220434E-01  0.83419831459E-01  0.57802357987E-01  0.88762678201E+00  0.88000000000E+00 0. -1.
        -11    1    4    4    0    0 -0.45183187934E-01 -0.79043821130E-01 -0.32916455438E-01  0.96815289548E-01  0.51100000000E-03 0.  1.
         11    1    4    4    0    0 -0.20148428976E-01 -0.23462114353E-01 -0.22570426343E-01  0.38289884649E-01  0.51100000000E-03 0. -1.
</event>
<event>
 8    1  0.1070112E+005  0.1043930E+01  0.7957747E-01            NaN
         13   -1    0    0    0    0  0.00000000000E+00  0.00000000000E+00  0.74505805969E-08  0.10566000000E+00  0.10566000000E+00 0. -1.
     999900   -1    0    0    0    0 -0.00000000000E+00 -0.00000000000E+00 -0.74505805969E-08  0.93827000000E+00  0.93827000000E+00 0.  1.
     999902    2    1    2    0    0 -0.17827439091E-01  0.74126687235E-02 -0.13426159952E-01  0.10204134736E+01  0.10201424558E+01 0.  0.
     999903    2    3    3    0    0  0.34813344803E-02 -0.77019273492E-01  0.98717906147E-01  0.12903302271E+00  0.30987219562E-01 0.  0.
         14    1    1    2    0    0  0.17827439091E-01 -0.74126687235E-02  0.13426159952E-01  0.23516526385E-01  0.00000000000E+00 0. -1.
     999901    1    3    3    0    0 -0.21308773571E-01  0.84431942216E-01 -0.11214406610E+00  0.89138045091E+00  0.88000000000E+00 0.  1.
        -11    1    4    4    0    0  0.14064769273E-02 -0.10971191992E-01  0.36965067976E-01  0.38587855635E-01  0.51100000000E-03 0. -1.
         11    1    4    4    0    0  0.20748575530E-02 -0.66048081500E-01  0.61752838172E-01  0.90445167074E-01  0.51100000000E-03 0.  1.
</event>
<event>
 8    1  0.1070112E+005  0.1043930E+01  0.7957747E-01            NaN
         13   -1    0    0    0    0  0.00000000000E+00  0.00000000000E+00  0.74505805969E-08  0.10566000000E+00  0.10566000000E+00 0.  1.
     999900   -1    0    0    0    0 -0.00000000000E+00 -0.00000000000E+00 -0.74505805969E-08  0.93827000000E+00  0.93827000000E+00 0.  1.
     999902    2    1    2    0    0  0.23322121344E-01 -0.27045519635E-02 -0.24444799601E-02  0.10203246737E+01  0.10200515813E+01 0.  0.
     999903    2    3    3    0    0  0.73289983537E-01 -0.48624158812E-01 -0.96746331480E-01  0.13268835365E+00  0.22596814674E-01 0.  0.
         14    1    1    2    0    0 -0.23322121344E-01  0.27045519635E-02  0.24444799601E-02  0.23605326255E-01  0.00000000000E+00 0.  1.
     999901    1    3    3    0    0 -0.49967862193E-01  0.45919606849E-01  0.94301851520E-01  0.88763632009E+00  0.88000000000E+00 0. -1.
        -11    1    4    4    0    0  0.58617699389E-01 -0.26755177348E-01 -0.67050026230E-01  0.92993770409E-01  0.51100000000E-03 0.  1.
         11    1    4    4    0    0  0.14672284149E-01 -0.21868981465E-01 -0.29696305251E-01  0.39694583245E-01  0.51100000000E-03 0. -1.
</event>
<event>
 8    1  0.1070112E+005  0.1043930E+01  0.7957747E-01            NaN
         13   -1    0    0    0    0  0.00000000000E+00  0.00000000000E+00  0.74505805969E-08  0.10566000000E+00  0.10566000000E+00 0. -1.
     999900   -1    0    0    0    0 -0.00000000000E+00 -0.00000000000E+00 -0.74505805969E-08  0.93827000000E+00  0.93827000000E+00 0.  1.
     999902    2    1    2    0    0  0.32400291067E-02  0.17329771151E-01 -0.20252192730E-01  0.10170791142E+01  0.10167246208E+01 0.  0.
     999903    2    3    3    0    0 -0.10787231656E+00 -0.50660510656E-01 -0.40476198477E-01  0.12726023254E+00  0.18812764923E-01 0.  0.
         14    1    1    2    0    0 -0.32400291067E-02 -0.17329771151E-01  0.20252192730E-01  0.26850885780E-01  0.00000000000E+00 0.  1.
     999901    1    3    3    0    0  0.11111234567E+00  0.67990281807E-01  0.20224005747E-01  0.88981888168E+00  0.88000000000E+00 0. -1.
        -11    1    4    4    0    0 -0.41306189379E-01 -0.19583416121E-01 -0.60013276020E-02  0.46108443066E-01  0.51100000000E-03 0. -1.
         11    1    4    4    0    0 -0.66566127181E-01 -0.31077094535E-01 -0.34474870875E-01  0.81151789478E-01  0.51100000000E-03 0.  1.
</event>
<event>
 8    1  0.1070112E+005  0.1043930E+01  0.7957747E-01            NaN
         13   -1    0    0    0    0  0.00000000000E+00  0.00000000000E+00  0.74505805969E-08  0.10566000000E+00  0.10566000000E+00 0. -1.
     999900   -1    0    0    0    0 -0.00000000000E+00 -0.00000000000E+00 -0.74505805969E-08  0.93827000000E+00  0.93827000000E+00 0. -1.
     999902    2    1    2    0    0 -0.16316636123E-01  0.93966387948E-02  0.65520005487E-02  0.10239936476E+01  0.10237995567E+01 0.  0.
     999903    2    3    3    0    0 -0.51571256733E-01 -0.94059601762E-02  0.12322328805E+00  0.13539440424E+00  0.19989981837E-01 0.  0.
         14    1    1    2    0    0  0.16316636123E-01 -0.93966387948E-02 -0.65520005487E-02  0.19936352380E-01  0.00000000000E+00 0.  1.
     999901    1    3    3    0    0  0.35254620610E-01  0.18802598971E-01 -0.11667128750E+00  0.88859924338E+00  0.88000000000E+00 0. -1.
        -11    1    4    4    0    0 -0.19719084255E-01  0.61256682368E-02  0.46497386860E-01  0.50878622240E-01  0.51100000000E-03 0. -1.
         11    1    4    4    0    0 -0.31852172478E-01 -0.15531628413E-01  0.76725901193E-01  0.84515782004E-01  0.51100000000E-03 0.  1.
</event>
<event>
 8    1  0.1070112E+005  0.1043930E+01  0.7957747E-01            NaN
         13   -1    0    0    0    0  0.00000000000E+00  0.00000000000E+00  0.74505805969E-08  0.10566000000E+00  0.10566000000E+00 0. -1.
     999900   -1    0    0    0    0 -0.00000000000E+00 -0.00000000000E+00 -0.74505805969E-08  0.93827000000E+00  0.93827000000E+00 0. -1.
     999902    2    1    2    0    0  0.13330951883E-02  0.16874033156E-01  0.17244810231E-01  0.10197661092E+01  0.10194797810E+01 0.  0.
     999903    2    3    3    0    0 -0.76864559745E-01  0.67043258128E-01  0.83737661493E-01  0.13238055398E+00  0.10471681609E-01 0.  0.
         14    1    1    2    0    0 -0.13330951883E-02 -0.16874033156E-01 -0.17244810231E-01  0.24163890780E-01  0.00000000000E+00 0.  1.
     999901    1    3    3    0    0  0.78197654933E-01 -0.50169224972E-01 -0.66492851262E-01  0.88738555524E+00  0.88000000000E+00 0. -1.
        -11    1    4    4    0    0 -0.55761799699E-01  0.50051341620E-01  0.67087082344E-01  0.10057560759E+00  0.51100000000E-03 0.  1.
         11    1    4    4    0    0 -0.21102760046E-01  0.16991916508E-01  0.16650579149E-01  0.31804946395E-01  0.51100000000E-03 0. -1.
</event>
<event>
 7    1  0.1070112E+005  0.1043930E+01  0.7957747E-01            NaN
         13   -1    0    0    0    0  0.00000000000E+00  0.00000000000E+00  0.74505805969E-08  0.10566000000E+00  0.10566000000E+00 0. -1.
     999900   -1    0    0    0    0 -0.00000000000E+00 -0.00000000000E+00 -0.74505805969E-08  0.93827000000E+00  0.93827000000E+00 0. -1.
     999903    2    1    2    0    0  0.49106854666E-01 -0.14490613190E-02  0.35131071993E-03  0.52895439192E-01  0.19601558974E-01 0.  0.
         14    1    1    2    0    0  0.64922956204E-02 -0.78680010955E-01 -0.66438991471E-01  0.10318349487E+00  0.00000000000E+00 0.  1.
     999901    1    1    2    0    0 -0.55599150286E-01  0.80129072274E-01  0.66087680751E-01  0.88785106594E+00  0.88000000000E+00 0.  1.
        -11    1    3    3    0    0  0.48677275958E-01  0.22970447662E-02 -0.12905438880E-02  0.48751207512E-01  0.51100000000E-03 0.  1.
         11    1    3    3    0    0  0.42957870847E-03 -0.37461060852E-02  0.16418546079E-02  0.41442316805E-02  0.51100000000E-03 0. -1.
</event>
<event>
 8    1  0.1070112E+005  0.1043930E+01  0.7957747E-01            NaN
         13   -1    0    0    0    0  0.00000000000E+00  0.00000000000E+00  0.74505805969E-08  0.10566000000E+00  0.10566000000E+00 0.  1.
     999900   -1    0    0    0    0 -0.00000000000E+00 -0.00000000000E+00 -0.74505805969E-08  0.93827000000E+00  0.93827000000E+00 0. -1.
     999902    2    1    2    0    0  0.17282974683E-01  0.16140506483E-01 -0.38300184684E-02  0.10199740779E+01  0.10196927152E+01 0.  0.
     999903    2    3    3    0    0  0.32431633817E-01 -0.22705158673E-01 -0.12325262775E+00  0.13092951927E+00  0.19595756339E-01 0.  0.
         14    1    1    2    0    0 -0.17282974683E-01 -0.16140506483E-01  0.38300184684E-02  0.23955922125E-01  0.00000000000E+00 0. -1.
     999901    1    3    3    0    0 -0.15148659134E-01  0.38845665156E-01  0.11942260928E+00  0.88904455860E+00  0.88000000000E+00 0.  1.
        -11    1    4    4    0    0  0.15308689922E-01 -0.65721559117E-02 -0.79721930909E-01  0.81445666609E-01  0.51100000000E-03 0.  1.
         11    1    4    4    0    0  0.17122943895E-01 -0.16133002761E-01 -0.43530696842E-01  0.49483852662E-01  0.51100000000E-03 0. -1.
</event>
<event>
 8    1  0.1070112E+005  0.1043930E+01  0.7957747E-01            NaN
         13   -1    0    0    0    0  0.00000000000E+00  0.00000000000E+00  0.74505805969E-08  0.10566000000E+00  0.10566000000E+00 0. -1.
     999900   -1    0    0    0    0 -0.00000000000E+00 -0.00000000000E+00 -0.74505805969E-08  0.93827000000E+00  0.93827000000E+00 0.  1.
     999902    2    1    2    0    0 -0.19528322611E-01 -0.48005825769E-02 -0.12098598081E-01  0.10204613602E+01  0.10201914579E+01 0.  0.
     999903    2    3    3    0    0  0.76685632359E-01 -0.45907177929E-01 -0.93020115941E-01  0.13057644106E+00  0.20231406149E-01 0.  0.
         14    1    1    2    0    0  0.19528322611E-01  0.48005825769E-02  0.12098598081E-01  0.23468639769E-01  0.00000000000E+00 0. -1.
     999901    1    3    3    0    0 -0.96213954971E-01  0.41106595352E-01  0.80921517861E-01  0.88988491917E+00  0.88000000000E+00 0. -1.
        -11    1    4    4    0    0  0.46894068629E-01 -0.38940880959E-01 -0.64503148176E-01  0.88748876771E-01  0.51100000000E-03 0.  1.
         11    1    4    4    0    0  0.29791563730E-01 -0.69662969704E-02 -0.28516967765E-01  0.41827564290E-01  0.51100000000E-03 0. -1.
</event>
<event>
 8    1  0.1070112E+005  0.1043930E+01  0.7957747E-01            NaN
         13   -1    0    0    0    0  0.00000000000E+00  0.00000000000E+00  0.74505805969E-08  0.10566000000E+00  0.10566000000E+00 0. -1.
     999900   -1    0    0    0    0 -0.00000000000E+00 -0.00000000000E+00 -0.74505805969E-08  0.93827000000E+00  0.93827000000E+00 0. -1.
     999902    2    1    2    0    0 -0.77777893585E-02 -0.13871934256E-01  0.17675316628E-01  0.10201530913E+01  0.10198759672E+01 0.  0.
     999903    2    3    3    0    0 -0.41766467841E-01 -0.12222847293E+00 -0.17478424643E-01  0.13215976070E+00  0.21828183369E-01 0.  0.
         14    1    1    2    0    0  0.77777893585E-02  0.13871934256E-01 -0.17675316628E-01  0.23776908656E-01  0.00000000000E+00 0.  1.
     999901    1    3    3    0    0  0.33988678483E-01  0.10835653868E+00  0.35153741271E-01  0.88799333064E+00  0.88000000000E+00 0. -1.
        -11    1    4    4    0    0 -0.15128475498E-01 -0.45221316225E-01  0.41051125956E-02  0.47863882860E-01  0.51100000000E-03 0.  1.
         11    1    4    4    0    0 -0.26637992344E-01 -0.77007156709E-01 -0.21583537239E-01  0.84295877843E-01  0.51100000000E-03 0. -1.
</event>
<event>
 7    1  0.1070112E+005  0.1043930E+01  0.7957747E-01            NaN
         13   -1    0    0    0    0  0.00000000000E+00  0.00000000000E+00  0.74505805969E-08  0.10566000000E+00  0.10566000000E+00 0.  1.
     999900   -1    0    0    0    0 -0.00000000000E+00 -0.00000000000E+00 -0.74505805969E-08  0.93827000000E+00  0.93827000000E+00 0.  1.
     999903    2    1    2    0    0 -0.82226508235E-01  0.51145179995E-01 -0.56543391575E-01  0.11380037002E+00  0.19399510129E-01 0.  0.
         14    1    1    2    0    0 -0.11482748982E-01 -0.22522610891E-01 -0.31425708323E-01  0.40332327842E-01  0.00000000000E+00 0. -1.
     999901    1    1    2    0    0  0.93709257217E-01 -0.28622569104E-01  0.87969099898E-01  0.88979730214E+00  0.88000000000E+00 0. -1.
        -11    1    3    3    0    0 -0.36049736200E-01  0.30246329843E-01 -0.35356195854E-01  0.58862090137E-01  0.51100000000E-03 0.  1.
         11    1    3    3    0    0 -0.46176772035E-01  0.20898850152E-01 -0.21187195721E-01  0.54938279885E-01  0.51100000000E-03 0. -1.
</event>
<event>
 8    1  0.1070112E+005  0.1043930E+01  0.7957747E-01            NaN
         13   -1    0    0    0    0  0.00000000000E+00  0.00000000000E+00  0.74505805969E-08  0.10566000000E+00  0.10566000000E+00 0. -1.
     999900   -1    0    0    0    0 -0.00000000000E+00 -0.00000000000E+00 -0.74505805969E-08  0.93827000000E+00  0.93827000000E+00 0. -1.
     999902    2    1    2    0    0  0.18768854127E-01  0.10485322547E-01 -0.17198609373E-03  0.10224301988E+01  0.10222041234E+01 0.  0.
     999903    2    3    3    0    0  0.13216500455E+00  0.14567733651E-01 -0.13453813914E-01  0.13504541189E+00  0.19402341949E-01 0.  0.
         14    1    1    2    0    0 -0.18768854127E-01 -0.10485322547E-01  0.17198609373E-03  0.21499801241E-01  0.00000000000E+00 0. -1.
     999901    1    3    3    0    0 -0.11339615042E+00 -0.40824111035E-02  0.13281827821E-01  0.88738478687E+00  0.88000000000E+00 0.  1.
        -11    1    4    4    0    0  0.97290649156E-01  0.18396032341E-01 -0.61568557325E-02  0.99207118759E-01  0.51100000000E-03 0. -1.
         11    1    4    4    0    0  0.34874355395E-01 -0.38282986901E-02 -0.72969581819E-02  0.35838293134E-01  0.51100000000E-03 0.  1.
</event>
<event>
 8    1  0.1070112E+005  0.1043930E+01  0.7957747E-01            NaN
         13   -1    0    0    0    0  0.00000000000E+00  0.00000000000E+00  0.74505805969E-08  0.10566000000E+00  0.10566000000E+00 0. -1.
     999900   -1    0    0    0    0 -0.00000000000E+00 -0.00000000000E+00 -0.74505805969E-08  0.93827000000E+00  0.93827000000E+00 0. -1.
     999902    2    1    2    0    0 -0.17334580238E-02  0.19883565843E-01 -0.12834910611E-01  0.10202003561E+01  0.10199243456E+01 0.  0.
     999903    2    3    3    0    0 -0.74974810769E-01 -0.67053452808E-02 -0.10635521889E+00  0.13182131879E+00  0.19981080990E-01 0.  0.
         14    1    1    2    0    0  0.17334580238E-02 -0.19883565843E-01  0.12834910611E-01  0.23729643860E-01  0.00000000000E+00 0. -1.
     999901    1    3    3    0    0  0.73241352745E-01  0.26588911124E-01  0.93520308275E-01  0.88837903735E+00  0.88000000000E+00 0.  1.
        -11    1    4    4    0    0 -0.67729931743E-01 -0.90046754555E-02 -0.10274619242E+00  0.12339152731E+00  0.51100000000E-03 0.  1.
         11    1    4    4    0    0 -0.72448790257E-02  0.22993301747E-02 -0.36090264681E-02  0.84297914800E-02  0.51100000000E-03 0. -1.
</event>
<event>
 8    1  0.1070112E+005  0.1043930E+01  0.7957747E-01            NaN
         13   -1    0    0    0    0  0.00000000000E+00  0.00000000000E+00  0.74505805969E-08  0.10566000000E+00  0.10566000000E+00 0.  1.
     999900   -1    0    0    0    0 -0.00000000000E+00 -0.00000000000E+00 -0.74505805969E-08  0.93827000000E+00  0.93827000000E+00 0. -1.
     999902    2    1    2    0    0  0.12826581828E-01 -0.19007723490E-01 -0.53651571524E-02  0.10203800602E+01  0.10201082627E+01 0.  0.
     999903    2    3    3    0    0 -0.50576278203E-01 -0.62034704023E-01 -0.10246910703E+00  0.13172916091E+00  0.21127932206E-01 0.  0.
         14    1    1    2    0    0 -0.12826581828E-01  0.19007723490E-01  0.53651571524E-02  0.23549939807E-01  0.00000000000E+00 0.  1.
     999901    1    3    3    0    0  0.63402860031E-01  0.43026980533E-01  0.97103949874E-01  0.88865089928E+00  0.88000000000E+00 0.  1.
        -11    1    4    4    0    0 -0.14492419539E-01 -0.24703088388E-01 -0.22694884659E-01  0.36545748189E-01  0.51100000000E-03 0.  1.
         11    1    4    4    0    0 -0.36083858664E-01 -0.37331615635E-01 -0.79774222367E-01  0.95183412721E-01  0.51100000000E-03 0. -1.
</event>
<event>
 8    1  0.1070112E+005  0.1043930E+01  0.7957747E-01            NaN
         13   -1    0    0    0    0  0.00000000000E+00  0.00000000000E+00  0.74505805969E-08  0.10566000000E+00  0.10566000000E+00 0. -1.
     999900   -1    0    0    0    0 -0.00000000000E+00 -0.00000000000E+00 -0.74505805969E-08  0.93827000000E+00  0.93827000000E+00 0. -1.
     999902    2    1    2    0    0 -0.19496806378E-02  0.10820442917E-01 -0.18425668996E-01  0.10224733340E+01  0.10222481744E+01 0.  0.
     999903    2    3    3    0    0 -0.17158042585E-01  0.34960893026E-01 -0.12800055137E+00  0.13521874229E+00  0.19578167630E-01 0.  0.
         14    1    1    2    0    0  0.19496806378E-02 -0.10820442917E-01  0.18425668996E-01  0.21456666038E-01  0.00000000000E+00 0. -1.
     999901    1    3    3    0    0  0.15208361948E-01 -0.24140450109E-01  0.10957488237E+00  0.88725459168E+00  0.88000000000E+00 0.  1.
        -11    1    4    4    0    0 -0.69613812559E-02  0.10294682142E-02 -0.34833637169E-01  0.35541019024E-01  0.51100000000E-03 0. -1.
         11    1    4    4    0    0 -0.10196661330E-01  0.33931424812E-01 -0.93166914200E-01  0.99677723261E-01  0.51100000000E-03 0.  1.
</event>
<event>
 8    1  0.1070112E+005  0.1043930E+01  0.7957747E-01            NaN
         13   -1    0    0    0    0  0.00000000000E+00  0.00000000000E+00  0.74505805969E-08  0.10566000000E+00  0.10566000000E+00 0.  1.
     999900   -1    0    0    0    0 -0.00000000000E+00 -0.00000000000E+00 -0.74505805969E-08  0.93827000000E+00  0.93827000000E+00 0. -1.
     999902    2    1    2    0    0 -0.60901765632E-02 -0.22952614841E-02 -0.23238507619E-01  0.10197973103E+01  0.10195117299E+01 0.  0.
     999903    2    3    3    0    0  0.85275500834E-01 -0.56642354514E-01  0.74463440574E-01  0.12803110540E+00  0.19154440722E-01 0.  0.
         14    1    1    2    0    0  0.60901765632E-02  0.22952614841E-02  0.23238507619E-01  0.24132689701E-01  0.00000000000E+00 0.  1.
     999901    1    3    3    0    0 -0.91365677397E-01  0.54347093030E-01 -0.97701948193E-01  0.89176620490E+00  0.88000000000E+00 0. -1.
        -11    1    4    4    0    0  0.51267006082E-01 -0.29168477958E-01  0.32115026587E-01  0.67162058282E-01  0.51100000000E-03 0.  1.
         11    1    4    4    0    0  0.34008494752E-01 -0.27473876556E-01  0.42348413987E-01  0.60869047114E-01  0.51100000000E-03 0. -1.
</event>
<event>
 8    1  0.1070112E+005  0.1043930E+01  0.7957747E-01            NaN
         13   -1    0    0    0    0  0.00000000000E+00  0.00000000000E+00  0.74505805969E-08  0.10566000000E+00  0.10566000000E+00 0.  1.
     999900   -1    0    0    0    0 -0.00000000000E+00 -0.00000000000E+00 -0.74505805969E-08  0.93827000000E+00  0.93827000000E+00 0. -1.
     999902    2    1    2    0    0 -0.10065058280E-01  0.20584375156E-01 -0.34959010624E-02  0.10207514922E+01  0.10204882977E+01 0.  0.
     999903    2    3    3    0    0 -0.51773521705E-01 -0.10068165305E+00 -0.59984101630E-01  0.12966453669E+00  0.19937572962E-01 0.  0.
         14    1    1    2    0    0  0.10065058280E-01 -0.20584375156E-01  0.34959010624E-02  0.23178507781E-01  0.00000000000E+00 0.  1.
     999901    1    3    3    0    0  0.41708463425E-01  0.12126602820E+00  0.56488200568E-01  0.89108695553E+00  0.88000000000E+00 0.  1.
        -11    1    4    4    0    0 -0.66650150332E-02 -0.24691640068E-01 -0.20913389703E-01  0.33041345380E-01  0.51100000000E-03 0. -1.
         11    1    4    4    0    0 -0.45108506672E-01 -0.75990012978E-01 -0.39070711927E-01  0.96623191306E-01  0.51100000000E-03 0.  1.
</event>
<event>
 8    1  0.1070112E+005  0.1043930E+01  0.7957747E-01            NaN
         13   -1    0    0    0    0  0.00000000000E+00  0.00000000000E+00  0.74505805969E-08  0.10566000000E+00  0.10566000000E+00 0. -1.
     999900   -1    0    0    0    0 -0.00000000000E+00 -0.00000000000E+00 -0.74505805969E-08  0.93827000000E+00  0.93827000000E+00 0. -1.
     999902    2    1    2    0    0  0.15508164019E-01  0.81858125264E-02 -0.16333991795E-01  0.10199652349E+01  0.10196836620E+01 0.  0.
     999903    2    3    3    0    0  0.39204298149E-01  0.57634619854E-01  0.10743016697E+00  0.12961459706E+00  0.19999414893E-01 0.  0.
         14    1    1    2    0    0 -0.15508164019E-01 -0.81858125264E-02  0.16333991795E-01  0.23964765092E-01  0.00000000000E+00 0.  1.
     999901    1    3    3    0    0 -0.23696134130E-01 -0.49448807327E-01 -0.12376415877E+00  0.89035063785E+00  0.88000000000E+00 0. -1.
        -11    1    4    4    0    0  0.37225920729E-01  0.57277827920E-01  0.94996123493E-01  0.11700873192E+00  0.51100000000E-03 0. -1.
         11    1    4    4    0    0  0.19783774193E-02  0.35679193376E-03  0.12434043482E-01  0.12605865143E-01  0.51100000000E-03 0.  1.
</event>
<event>
 8    1  0.1070112E+005  0.1043930E+01  0.7957747E-01            NaN
         13   -1    0    0    0    0  0.00000000000E+00  0.00000000000E+00  0.74505805969E-08  0.10566000000E+00  0.10566000000E+00 0. -1.
     999900   -1    0    0    0    0 -0.00000000000E+00 -0.00000000000E+00 -0.74505805969E-08  0.93827000000E+00  0.93827000000E+00 0.  1.
     999902    2    1    2    0    0  0.16205836401E-01  0.65350436214E-02 -0.15702830324E-01  0.10204371328E+01  0.10201666664E+01 0.  0.
     999903    2    3    3    0    0 -0.11745881015E+00  0.10983181401E-01 -0.50083023934E-01  0.12966891302E+00  0.19710793038E-01 0.  0.
         14    1    1    2    0    0 -0.16205836401E-01 -0.65350436214E-02  0.15702830324E-01  0.23492867189E-01  0.00000000000E+00 0.  1.
     999901    1    3    3    0    0  0.13366464655E+00 -0.44481377799E-02  0.34380193610E-01  0.89076821979E+00  0.88000000000E+00 0.  1.
        -11    1    4    4    0    0 -0.77764909468E-01  0.19019970785E-02 -0.41049390875E-01  0.87956309322E-01  0.51100000000E-03 0.  1.
         11    1    4    4    0    0 -0.39693900687E-01  0.90811843228E-02 -0.90336330594E-02  0.41712603703E-01  0.51100000000E-03 0. -1.
</event>
<event>
 8    1  0.1070112E+005  0.1043930E+01  0.7957747E-01            NaN
         13   -1    0    0    0    0  0.00000000000E+00  0.00000000000E+00  0.74505805969E-08  0.10566000000E+00  0.10566000000E+00 0.  1.
     999900   -1    0    0    0    0 -0.00000000000E+00 -0.00000000000E+00 -0.74505805969E-08  0.93827000000E+00  0.93827000000E+00 0.  1.
     999902    2    1    2    0    0 -0.29026982217E-03  0.23079578439E-01 -0.14023184232E-01  0.10169225771E+01  0.10165638823E+01 0.  0.
     999903    2    3    3    0    0  0.58895555144E-01  0.46734018919E-01 -0.10441535342E+00  0.12999910873E+00  0.18559291516E-01 0.  0.
         14    1    1    2    0    0  0.29026982217E-03 -0.23079578439E-01  0.14023184232E-01  0.27007422934E-01  0.00000000000E+00 0.  1.
     999901    1    3    3    0    0 -0.59185824966E-01 -0.23654440480E-01  0.90392169186E-01  0.88692346833E+00  0.88000000000E+00 0. -1.
        -11    1    4    4    0    0  0.25194200424E-01  0.16134936957E-01 -0.27598870374E-01  0.40706789269E-01  0.51100000000E-03 0. -1.
         11    1    4    4    0    0  0.33701354720E-01  0.30599081962E-01 -0.76816483044E-01  0.89292319464E-01  0.51100000000E-03 0.  1.
</event>
<event>
 8    1  0.1070112E+005  0.1043930E+01  0.7957747E-01            NaN
         13   -1    0    0    0    0  0.00000000000E+00  0.00000000000E+00  0.74505805969E-08  0.10566000000E+00  0.10566000000E+00 0.  1.
     999900   -1    0    0    0    0 -0.00000000000E+00 -0.00000000000E+00 -0.74505805969E-08  0.93827000000E+00  0.93827000000E+00 0. -1.
     999902    2    1    2    0    0 -0.27222314606E-02 -0.48933136968E-02  0.23086210450E-01  0.10201744075E+01  0.10198977858E+01 0.  0.
     999903    2    3    3    0    0  0.78619862158E-01 -0.14734376678E-01 -0.98233647455E-01  0.12808030334E+00  0.18882002810E-01 0.  0.
         14    1    1    2    0    0  0.27222314606E-02  0.48933136968E-02 -0.23086210450E-01  0.23755592520E-01  0.00000000000E+00 0. -1.
     999901    1    3    3    0    0 -0.81342093618E-01  0.98410629811E-02  0.12131985790E+00  0.89209410414E+00  0.88000000000E+00 0.  1.
        -11    1    4    4    0    0  0.93439547017E-02 -0.82438872381E-02 -0.12407536890E-01  0.17592022594E-01  0.51100000000E-03 0.  1.
         11    1    4    4    0    0  0.69275907456E-01 -0.64904894397E-02 -0.85826110565E-01  0.11048828075E+00  0.51100000000E-03 0. -1.
</event>
<event>
 8    1  0.1070112E+005  0.1043930E+01  0.7957747E-01            NaN
         13   -1    0    0    0    0  0.00000000000E+00  0.00000000000E+00  0.74505805969E-08  0.10566000000E+00  0.10566000000E+00 0.  1.
     999900   -1    0    0    0    0 -0.00000000000E+00 -0.00000000000E+00 -0.74505805969E-08  0.93827000000E+00  0.93827000000E+00 0.  1.
     999902    2    1    2    0    0 -0.20108882651E-01  0.47889034768E-02  0.52812994836E-02  0.10225947502E+01  0.10223721584E+01 0.  0.
     999903    2    3    3    0    0  0.70848047033E-01 -0.10689340764E-02  0.10938766345E+00  0.13178297869E+00  0.19506516083E-01 0.  0.
         14    1    1    2    0    0  0.20108882651E-01 -0.47889034768E-02 -0.52812994836E-02  0.21335249757E-01  0.00000000000E+00 0. -1.
     999901    1    3    3    0    0 -0.90956929684E-01  0.58578375532E-02 -0.10410636396E+00  0.89081177155E+00  0.88000000000E+00 0.  1.
        -11    1    4    4    0    0  0.62595594836E-01  0.55182652377E-02  0.95714677185E-01  0.11449987028E+00  0.51100000000E-03 0.  1.
         11    1    4    4    0    0  0.82524521967E-02 -0.65871993141E-02  0.13672986262E-01  0.17283108412E-01  0.51100000000E-03 0. -1.
</event>
<event>
 8    1  0.1070112E+005  0.1043930E+01  0.7957747E-01            NaN
         13   -1    0    0    0    0  0.00000000000E+00  0.00000000000E+00  0.74505805969E-08  0.10566000000E+00  0.10566000000E+00 0. -1.
     999900   -1    0    0    0    0 -0.00000000000E+00 -0.00000000000E+00 -0.74505805969E-08  0.93827000000E+00  0.93827000000E+00 0. -1.
     999902    2    1    2    0    0  0.12296799787E-02 -0.23729451976E-01 -0.37273439759E-02  0.10198781373E+01  0.10195944895E+01 0.  0.
     999903    2    3    3    0    0  0.19549216672E-01 -0.12731734621E+00 -0.28233381400E-01  0.13327416537E+00  0.19313228887E-01 0.  0.
         14    1    1    2    0    0 -0.12296799787E-02  0.23729451976E-01  0.37273439759E-02  0.24051862652E-01  0.00000000000E+00 0.  1.
     999901    1    3    3    0    0 -0.18319536693E-01  0.10358789424E+00  0.24506037424E-01  0.88660397198E+00  0.88000000000E+00 0.  1.
        -11    1    4    4    0    0  0.18787208254E-01 -0.80223200510E-01 -0.11041726967E-01  0.83131834753E-01  0.51100000000E-03 0.  1.
         11    1    4    4    0    0  0.76200841852E-03 -0.47094145705E-01 -0.17191654433E-01  0.50142330617E-01  0.51100000000E-03 0. -1.
</event>
<event>
 8    1  0.1070112E+005  0.1043930E+01  0.7957747E-01            NaN
         13   -1    0    0    0    0  0.00000000000E+00  0.00000000000E+00  0.74505805969E-08  0.10566000000E+00  0.10566000000E+00 0. -1.
     999900   -1    0    0    0    0 -0.00000000000E+00 -0.00000000000E+00 -0.74505805969E-08  0.93827000000E+00  0.93827000000E+00 0. -1.
     999902    2    1    2    0    0 -0.75959572556E-02 -0.38577527794E-02 -0.22279158782E-01  0.10200775004E+01  0.10197985904E+01 0.  0.
     999903    2    3    3    0    0  0.88496657952E-01 -0.49986036943E-01 -0.81275541878E-01  0.13168446655E+00  0.20120205404E-01 0.  0.
         14    1    1    2    0    0  0.75959572556E-02  0.38577527794E-02  0.22279158782E-01  0.23852499642E-01  0.00000000000E+00 0. -1.
     999901    1    3    3    0    0 -0.96092615207E-01  0.46128284164E-01  0.58996383096E-01  0.88839303381E+00  0.88000000000E+00 0. -1.
        -11    1    4    4    0    0  0.22655959372E-02 -0.52767273268E-02 -0.86788254454E-02  0.10419208624E-01  0.51100000000E-03 0. -1.
         11    1    4    4    0    0  0.86231062014E-01 -0.44709309616E-01 -0.72596716433E-01  0.12126525793E+00  0.51100000000E-03 0.  1.
</event>
<event>
 8    1  0.1070112E+005  0.1043930E+01  0.7957747E-01            NaN
         13   -1    0    0    0    0  0.00000000000E+00  0.00000000000E+00  0.74505805969E-08  0.10566000000E+00  0.10566000000E+00 0. -1.
     999900   -1    0    0    0    0 -0.00000000000E+00 -0.00000000000E+00 -0.74505805969E-08  0.93827000000E+00  0.93827000000E+00 0.  1.
     999902    2    1    2    0    0 -0.22181648445E-01  0.88480587087E-02 -0.18992365895E-02  0.10199733564E+01  0.10196919766E+01 0.  0.
     999903    2    3    3    0    0 -0.74681463561E-01 -0.82142802870E-01  0.66590482489E-01  0.13108280689E+00  0.20582731608E-01 0.  0.
         14    1    1    2    0    0  0.22181648445E-01 -0.88480587087E-02  0.18992365895E-02  0.23956643552E-01  0.00000000000E+00 0.  1.
     999901    1    3    3    0    0  0.52499815116E-01  0.90990861579E-01 -0.68489719079E-01  0.88889054956E+00  0.88000000000E+00 0.  1.
        -11    1    4    4    0    0 -0.85034373629E-02 -0.21477091950E-01  0.12507786871E-01  0.26273176036E-01  0.51100000000E-03 0. -1.
         11    1    4    4    0    0 -0.66178026198E-01 -0.60665710920E-01  0.54082695618E-01  0.10480963085E+00  0.51100000000E-03 0.  1.
</event>
<event>
 8    1  0.1070112E+005  0.1043930E+01  0.7957747E-01            NaN
         13   -1    0    0    0    0  0.00000000000E+00  0.00000000000E+00  0.74505805969E-08  0.10566000000E+00  0.10566000000E+00 0.  1.
     999900   -1    0    0    0    0 -0.00000000000E+00 -0.00000000000E+00 -0.74505805969E-08  0.93827000000E+00  0.93827000000E+00 0.  1.
     999902    2    1    2    0    0 -0.17493551382E-01 -0.10820427819E-01  0.10476262101E-01  0.10208462814E+01  0.10205852596E+01 0.  0.
     999903    2    3    3    0    0  0.12143664198E+00  0.33252273005E-01  0.18417138372E-01  0.12882214543E+00  0.20084384253E-01 0.  0.
         14    1    1    2    0    0  0.17493551382E-01  0.10820427819E-01 -0.10476262101E-01  0.23083718629E-01  0.00000000000E+00 0. -1.
     999901    1    3    3    0    0 -0.13893019337E+00 -0.44072700824E-01 -0.79408762708E-02  0.89202413594E+00  0.88000000000E+00 0. -1.
        -11    1    4    4    0    0  0.65188406823E-01  0.27561951722E-01  0.68005650711E-02  0.71103434328E-01  0.51100000000E-03 0. -1.
         11    1    4    4    0    0  0.56248235160E-01  0.56903212833E-02  0.11616573301E-01  0.57718711101E-01  0.51100000000E-03 0.  1.
</event>
<event>
 8    1  0.1070112E+005  0.1043930E+01  0.7957747E-01            NaN
         13   -1    0    0    0    0  0.00000000000E+00  0.00000000000E+00  0.74505805969E-08  0.10566000000E+00  0.10566000000E+00 0. -1.
     999900   -1    0    0    0    0 -0.00000000000E+00 -0.00000000000E+00 -0.74505805969E-08  0.93827000000E+00  0.93827000000E+00 0. -1.
     999902    2    1    2    0    0 -0.12999156202E-01 -0.18996112444E-01 -0.67274264703E-02  0.10199489947E+01  0.10196670354E+01 0.  0.
     999903    2    3    3    0    0 -0.57520165135E-01  0.11088945996E+00  0.24027149175E-01  0.12877099557E+00  0.19990589647E-01 0.  0.
         14    1    1    2    0    0  0.12999156202E-01  0.18996112444E-01  0.67274264703E-02  0.23981005335E-01  0.00000000000E+00 0.  1.
     999901    1    3    3    0    0  0.44521008933E-01 -0.12988557240E+00 -0.30754575645E-01  0.89117799910E+00  0.88000000000E+00 0. -1.
        -11    1    4    4    0    0 -0.33504167394E-01  0.44338454359E-01  0.13983088909E-01  0.57308076779E-01  0.51100000000E-03 0. -1.
         11    1    4    4    0    0 -0.24015997741E-01  0.66551005600E-01  0.10044060266E-01  0.71462918787E-01  0.51100000000E-03 0.  1.
</event>
<event>
 8    1  0.1070112E+005  0.1043930E+01  0.7957747E-01            NaN
         13   -1    0    0    0    0  0.00000000000E+00  0.00000000000E+00  0.74505805969E-08  0.10566000000E+00  0.10566000000E+00 0.  1.
     999900   -1    0    0    0    0 -0.00000000000E+00 -0.00000000000E+00 -0.74505805969E-08  0.93827000000E+00  0.93827000000E+00 0. -1.
     999902    2    1    2    0    0  0.10283189084E-01 -0.10672364398E-01 -0.18831108497E-01  0.10199664029E+01  0.10196848577E+01 0.  0.
     999903    2    3    3    0    0  0.10688313352E+00  0.54974556144E-01 -0.53242581450E-01  0.13158291761E+00  0.57520145413E-02 0.  0.
         14    1    1    2    0    0 -0.10283189084E-01  0.10672364398E-01  0.18831108497E-01  0.23963597117E-01  0.00000000000E+00 0.  1.
     999901    1    3    3    0    0 -0.96599944439E-01 -0.65646920541E-01  0.34411472953E-01  0.88838348528E+00  0.88000000000E+00 0.  1.
        -11    1    4    4    0    0  0.93063884464E-01  0.48205209223E-01 -0.48383997455E-01  0.11543786692E+00  0.51100000000E-03 0. -1.
         11    1    4    4    0    0  0.13819249059E-01  0.67693469210E-02 -0.48585839956E-02  0.16145050688E-01  0.51100000000E-03 0.  1.
</event>
<event>
 8    1  0.1070112E+005  0.1043930E+01  0.7957747E-01            NaN
         13   -1    0    0    0    0  0.00000000000E+00  0.00000000000E+00  0.74505805969E-08  0.10566000000E+00  0.10566000000E+00 0.  1.
     999900   -1    0    0    0    0 -0.00000000000E+00 -0.00000000000E+00 -0.74505805969E-08  0.93827000000E+00  0.93827000000E+00 0. -1.
     999902    2    1    2    0    0  0.16965877283E-01  0.14701544892E-01 -0.71173067290E-02  0.10203793637E+01  0.10201075499E+01 0.  0.
     999903    2    3    3    0    0  0.16835702194E-01 -0.11818285883E+00  0.41805928685E-01  0.12905912684E+00  0.25649435864E-01 0.  0.
         14    1    1    2    0    0 -0.16965877283E-01 -0.14701544892E-01  0.71173067290E-02  0.23550636282E-01  0.00000000000E+00 0. -1.
     999901    1    3    3    0    0  0.13017508904E-03  0.13288440372E+00 -0.48923235414E-01  0.89132023687E+00  0.88000000000E+00 0.  1.
        -11    1    4    4    0    0  0.21665225259E-01 -0.71006003749E-01  0.20168503996E-01  0.76930255611E-01  0.51100000000E-03 0.  1.
         11    1    4    4    0    0 -0.48295230643E-02 -0.47176855076E-01  0.21637424689E-01  0.52128871233E-01  0.51100000000E-03 0. -1.
</event>
<event>
 8    1  0.1070112E+005  0.1043930E+01  0.7957747E-01            NaN
         13   -1    0    0    0    0  0.00000000000E+00  0.00000000000E+00  0.74505805969E-08  0.10566000000E+00  0.10566000000E+00 0. -1.
     999900   -1    0    0    0    0 -0.00000000000E+00 -0.00000000000E+00 -0.74505805969E-08  0.93827000000E+00  0.93827000000E+00 0.  1.
     999902    2    1    2    0    0  0.27377426662E-02  0.12189678904E-01  0.20157084655E-01  0.10202152036E+01  0.10199395424E+01 0.  0.
     999903    2    3    3    0    0  0.47318771225E-01  0.12127815700E+00 -0.79394488687E-02  0.13191504073E+00  0.19775885481E-01 0.  0.
         14    1    1    2    0    0 -0.27377426662E-02 -0.12189678904E-01 -0.20157084655E-01  0.23714796404E-01  0.00000000000E+00 0.  1.
     999901    1    3    3    0    0 -0.44581028559E-01 -0.10908847809E+00  0.28096533524E-01  0.88830016287E+00  0.88000000000E+00 0. -1.
        -11    1    4    4    0    0  0.31318255165E-01  0.54662452877E-01 -0.52556106752E-03  0.63002811021E-01  0.51100000000E-03 0.  1.
         11    1    4    4    0    0  0.16000516060E-01  0.66615704120E-01 -0.74138878012E-02  0.68912229705E-01  0.51100000000E-03 0. -1.
</event>
<event>
 8    1  0.1070112E+005  0.1043930E+01  0.7957747E-01            NaN
         13   -1    0    0    0    0  0.00000000000E+00  0.00000000000E+00  0.74505805969E-08  0.10566000000E+00  0.10566000000E+00 0. -1.
     999900   -1    0    0    0    0 -0.00000000000E+00 -0.00000000000E+00 -0.74505805969E-08  0.93827000000E+00  0.93827000000E+00 0.  1.
     999902    2    1    2    0    0  0.20684915187E-01 -0.11822352610E-01 -0.29449942469E-02  0.10199236107E+01  0.10196410471E+01 0.  0.
     999903    2    3    3    0    0  0.83058060396E-01  0.86930019903E-01 -0.48488212142E-01  0.13103856466E+00  0.19092641380E-01 0.  0.
         14    1    1    2    0    0 -0.20684915187E-01  0.11822352610E-01  0.29449942469E-02  0.24006389330E-01  0.00000000000E+00 0.  1.
     999901    1    3    3    0    0 -0.62373145209E-01 -0.98752372513E-01  0.45543217895E-01  0.88888504601E+00  0.88000000000E+00 0. -1.
        -11    1    4    4    0    0  0.39112252414E-01  0.54459526002E-01 -0.24973326056E-01  0.71550935679E-01  0.51100000000E-03 0. -1.
         11    1    4    4    0    0  0.43945807983E-01  0.32470493901E-01 -0.23514886086E-01  0.59487628983E-01  0.51100000000E-03 0.  1.
</event>
<event>
 8    1  0.1070112E+005  0.1043930E+01  0.7957747E-01            NaN
         13   -1    0    0    0    0  0.00000000000E+00  0.00000000000E+00  0.74505805969E-08  0.10566000000E+00  0.10566000000E+00 0. -1.
     999900   -1    0    0    0    0 -0.00000000000E+00 -0.00000000000E+00 -0.74505805969E-08  0.93827000000E+00  0.93827000000E+00 0.  1.
     999902    2    1    2    0    0  0.16112453669E-01 -0.13922166040E-01  0.55366429209E-02  0.10219279027E+01  0.10216910228E+01 0.  0.
     999903    2    3    3    0    0 -0.42406078490E-01 -0.88141537684E-01  0.87014844876E-01  0.13312441986E+00  0.24152055296E-01 0.  0.
         14    1    1    2    0    0 -0.16112453669E-01  0.13922166040E-01 -0.55366429209E-02  0.22002097293E-01  0.00000000000E+00 0. -1.
     999901    1    3    3    0    0  0.58518532158E-01  0.74219371644E-01 -0.81478201955E-01  0.88880348285E+00  0.88000000000E+00 0.  1.
        -11    1    4    4    0    0  0.92548269904E-03 -0.79429468290E-02  0.14795255905E-01  0.16825802829E-01  0.51100000000E-03 0.  1.
         11    1    4    4    0    0 -0.43331561189E-01 -0.80198590855E-01  0.72219588971E-01  0.11629861703E+00  0.51100000000E-03 0. -1.
</event>
<event>
 8    1  0.1070112E+005  0.1043930E+01  0.7957747E-01            NaN
         13   -1    0    0    0    0  0.00000000000E+00  0.00000000000E+00  0.74505805969E-08  0.10566000000E+00  0.10566000000E+00 0.  1.
     999900   -1    0    0    0    0 -0.00000000000E+00 -0.00000000000E+00 -0.74505805969E-08  0.93827000000E+00  0.93827000000E+00 0. -1.
     999902    2    1    2    0    0 -0.24684641400E-01  0.54921832404E-02 -0.19253207592E-02  0.10185685636E+01  0.10182527762E+01 0.  0.
     999903    2    3    3    0    0 -0.81803287120E-01  0.21143815459E-01  0.97805995128E-01  0.13095724737E+00  0.21093819939E-01 0.  0.
         14    1    1    2    0    0  0.24684641400E-01 -0.54921832404E-02  0.19253207592E-02  0.25361436430E-01  0.00000000000E+00 0. -1.
     999901    1    3    3    0    0  0.57118645720E-01 -0.15651632218E-01 -0.99731315887E-01  0.88761131620E+00  0.88000000000E+00 0. -1.
        -11    1    4    4    0    0 -0.37146990702E-01 -0.11502964864E-02  0.41308962174E-01  0.55568998345E-01  0.51100000000E-03 0.  1.
         11    1    4    4    0    0 -0.44656296418E-01  0.22294111945E-01  0.56497032954E-01  0.75388249024E-01  0.51100000000E-03 0. -1.
</event>
<event>
 8    1  0.1070112E+005  0.1043930E+01  0.7957747E-01            NaN
         13   -1    0    0    0    0  0.00000000000E+00  0.00000000000E+00  0.74505805969E-08  0.10566000000E+00  0.10566000000E+00 0.  1.
     999900   -1    0    0    0    0 -0.00000000000E+00 -0.00000000000E+00 -0.74505805969E-08  0.93827000000E+00  0.93827000000E+00 0.  1.
     999902    2    1    2    0    0 -0.60321472655E-02  0.23902458648E-01 -0.79697995409E-02  0.10180218539E+01  0.10176921258E+01 0.  0.
     999903    2    3    3    0    0 -0.86860939609E-01 -0.63788583140E-01  0.64324535689E-01  0.12703954016E+00  0.19687374199E-01 0.  0.
         14    1    1    2    0    0  0.60321472655E-02 -0.23902458648E-01  0.79697995409E-02  0.25908146109E-01  0.00000000000E+00 0. -1.
     999901    1    3    3    0    0  0.80828792343E-01  0.87691041789E-01 -0.72294335230E-01  0.89098231373E+00  0.88000000000E+00 0.  1.
        -11    1    4    4    0    0 -0.42277074919E-01 -0.22990426239E-01  0.20120897401E-01  0.52163420091E-01  0.51100000000E-03 0. -1.
         11    1    4    4    0    0 -0.44583864690E-01 -0.40798156901E-01  0.44203638288E-01  0.74876120066E-01  0.51100000000E-03 0.  1.
</event>
<event>
 8    1  0.1070112E+005  0.1043930E+01  0.7957747E-01            NaN
         13   -1    0    0    0    0  0.00000000000E+00  0.00000000000E+00  0.74505805969E-08  0.10566000000E+00  0.10566000000E+00 0. -1.
     999900   -1    0    0    0    0 -0.00000000000E+00 -0.00000000000E+00 -0.74505805969E-08  0.93827000000E+00  0.93827000000E+00 0. -1.
     999902    2    1    2    0    0  0.64036876881E-02  0.15046340590E-01 -0.14601068032E-01  0.10220076195E+01  0.10217724715E+01 0.  0.
     999903    2    3    3    0    0 -0.52305717951E-01  0.11844855241E-01  0.11694167057E+00  0.13028987493E+00  0.20589037528E-01 0.  0.
         14    1    1    2    0    0 -0.64036876881E-02 -0.15046340590E-01  0.14601068032E-01  0.21922380547E-01  0.00000000000E+00 0. -1.
     999901    1    3    3    0    0  0.58709405639E-01  0.32014853490E-02 -0.13154273861E+00  0.89171774452E+00  0.88000000000E+00 0. -1.
        -11    1    4    4    0    0 -0.44096545099E-01  0.45691199855E-02  0.10546919315E+00  0.11440888939E+00  0.51100000000E-03 0.  1.
         11    1    4    4    0    0 -0.82091728516E-02  0.72757352556E-02  0.11472477428E-01  0.15880985541E-01  0.51100000000E-03 0. -1.
</event>
<event>
 8    1  0.1070112E+005  0.1043930E+01  0.7957747E-01            NaN
         13   -1    0    0    0    0  0.00000000000E+00  0.00000000000E+00  0.74505805969E-08  0.10566000000E+00  0.10566000000E+00 0. -1.
     999900   -1    0    0    0    0 -0.00000000000E+00 -0.00000000000E+00 -0.74505805969E-08  0.93827000000E+00  0.93827000000E+00 0.  1.
     999902    2    1    2    0    0  0.17466000486E-01 -0.36724214454E-02 -0.13568695711E-01  0.10215099787E+01  0.10212639126E+01 0.  0.
     999903    2    3    3    0    0  0.82747012142E-01 -0.14596102674E-01 -0.10302169366E+00  0.13450221315E+00  0.20426985720E-01 0.  0.
         14    1    1    2    0    0 -0.17466000486E-01  0.36724214454E-02  0.13568695711E-01  0.22420021310E-01  0.00000000000E+00 0. -1.
     999901    1    3    3    0    0 -0.65281011656E-01  0.10923681229E-01  0.89452997945E-01  0.88700776554E+00  0.88000000000E+00 0. -1.
        -11    1    4    4    0    0  0.69013585979E-01 -0.54726629603E-02 -0.75678640430E-01  0.10256872246E+00  0.51100000000E-03 0. -1.
         11    1    4    4    0    0  0.13733426163E-01 -0.91234397137E-02 -0.27343053226E-01  0.31933490681E-01  0.51100000000E-03 0.  1.
</event>
<event>
 8    1  0.1070112E+005  0.1043930E+01  0.7957747E-01            NaN
         13   -1    0    0    0    0  0.00000000000E+00  0.00000000000E+00  0.74505805969E-08  0.10566000000E+00  0.10566000000E+00 0.  1.
     999900   -1    0    0    0    0 -0.00000000000E+00 -0.00000000000E+00 -0.74505805969E-08  0.93827000000E+00  0.93827000000E+00 0.  1.
     999902    2    1    2    0    0 -0.10590103684E-02 -0.22883554983E-01 -0.62997510316E-02  0.10201715183E+01  0.10198948285E+01 0.  0.
     999903    2    3    3    0    0 -0.16112853453E-01  0.67261102057E-01 -0.10780130961E+00  0.12963502615E+00  0.20010940900E-01 0.  0.
         14    1    1    2    0    0  0.10590103684E-02  0.22883554983E-01  0.62997510316E-02  0.23758481742E-01  0.00000000000E+00 0.  1.
     999901    1    3    3    0    0  0.15053843085E-01 -0.90144657040E-01  0.10150155857E+00  0.89053649211E+00  0.88000000000E+00 0.  1.
        -11    1    4    4    0    0 -0.16616617539E-01  0.41560325753E-01 -0.55050452341E-01  0.70951998415E-01  0.51100000000E-03 0. -1.
         11    1    4    4    0    0  0.50376408645E-03  0.25700776303E-01 -0.52750857265E-01  0.58683027734E-01  0.51100000000E-03 0.  1.
</event>
<event>
 8    1  0.1070112E+005  0.1043930E+01  0.7957747E-01            NaN
         13   -1    0    0    0    0  0.00000000000E+00  0.00000000000E+00  0.74505805969E-08  0.10566000000E+00  0.10566000000E+00 0.  1.
     999900   -1    0    0    0    0 -0.00000000000E+00 -0.00000000000E+00 -0.74505805969E-08  0.93827000000E+00  0.93827000000E+00 0. -1.
     999902    2    1    2    0    0 -0.55084667481E-02 -0.19820091984E-01  0.12079288711E-01  0.10200744248E+01  0.10197954421E+01 0.  0.
     999903    2    3    3    0    0 -0.88603179632E-01 -0.95127023289E-02  0.95710200507E-01  0.13215263602E+00  0.19048931183E-01 0.  0.
         14    1    1    2    0    0  0.55084667481E-02  0.19820091984E-01 -0.12079288711E-01  0.23855575197E-01  0.00000000000E+00 0. -1.
     999901    1    3    3    0    0  0.83094712884E-01 -0.10307389655E-01 -0.83630911795E-01  0.88792178878E+00  0.88000000000E+00 0. -1.
        -11    1    4    4    0    0 -0.16564173965E-01  0.22700382129E-02  0.27836039575E-01  0.32475085110E-01  0.51100000000E-03 0. -1.
         11    1    4    4    0    0 -0.72039005667E-01 -0.11782740542E-01  0.67874160931E-01  0.99677550909E-01  0.51100000000E-03 0.  1.
</event>
<event>
 8    1  0.1070112E+005  0.1043930E+01  0.7957747E-01            NaN
         13   -1    0    0    0    0  0.00000000000E+00  0.00000000000E+00  0.74505805969E-08  0.10566000000E+00  0.10566000000E+00 0. -1.
     999900   -1    0    0    0    0 -0.00000000000E+00 -0.00000000000E+00 -0.74505805969E-08  0.93827000000E+00  0.93827000000E+00 0.  1.
     999902    2    1    2    0    0  0.16173493793E-01  0.51280280700E-02  0.16414849117E-01  0.10203222503E+01  0.10200491011E+01 0.  0.
     999903    2    3    3    0    0  0.53961638467E-01  0.78347337540E-02 -0.11590727910E+00  0.12962341472E+00  0.19861792831E-01 0.  0.
         14    1    1    2    0    0 -0.16173493793E-01 -0.51280280700E-02 -0.16414849117E-01  0.23607749678E-01  0.00000000000E+00 0.  1.
     999901    1    3    3    0    0 -0.37788144674E-01 -0.27067056840E-02  0.13232212822E+00  0.89069883561E+00  0.88000000000E+00 0. -1.
        -11    1    4    4    0    0  0.48103353176E-01  0.34835859945E-02 -0.83760358915E-01  0.96654678131E-01  0.51100000000E-03 0.  1.
         11    1    4    4    0    0  0.58582852911E-02  0.43511477595E-02 -0.32146920188E-01  0.32968736584E-01  0.51100000000E-03 0. -1.
</event>
<event>
 8    1  0.1070112E+005  0.1043930E+01  0.7957747E-01            NaN
         13   -1    0    0    0    0  0.00000000000E+00  0.00000000000E+00  0.74505805969E-08  0.10566000000E+00  0.10566000000E+00 0.  1.
     999900   -1    0    0    0    0 -0.00000000000E+00 -0.00000000000E+00 -0.74505805969E-08  0.93827000000E+00  0.93827000000E+00 0. -1.
     999902    2    1    2    0    0 -0.14465840521E-01 -0.23309297816E-03 -0.18318978655E-01  0.10205869099E+01  0.10203199209E+01 0.  0.
     999903    2    3    3    0    0 -0.87749696590E-01 -0.79121808310E-02  0.94165487829E-01  0.13037219026E+00  0.19161342263E-01 0.  0.
         14    1    1    2    0    0  0.14465840521E-01  0.23309297816E-03  0.18318978655E-01  0.23343090054E-01  0.00000000000E+00 0.  1.
     999901    1    3    3    0    0  0.73283856069E-01  0.76790878528E-02 -0.11248446648E+00  0.89021471969E+00  0.88000000000E+00 0. -1.
        -11    1    4    4    0    0 -0.58957618152E-02 -0.97967992452E-03  0.15552283739E-01  0.16668966094E-01  0.51100000000E-03 0.  1.
         11    1    4    4    0    0 -0.81853934774E-01 -0.69325009065E-02  0.78613204090E-01  0.11370322416E+00  0.51100000000E-03 0. -1.
</event>
<event>
 8    1  0.1070112E+005  0.1043930E+01  0.7957747E-01            NaN
         13   -1    0    0    0    0  0.00000000000E+00  0.00000000000E+00  0.74505805969E-08  0.10566000000E+00  0.10566000000E+00 0.  1.
     999900   -1    0    0    0    0 -0.00000000000E+00 -0.00000000000E+00 -0.74505805969E-08  0.93827000000E+00  0.93827000000E+00 0. -1.
     999902    2    1    2    0    0 -0.66385805727E-02 -0.12831293516E-01 -0.19302980919E-01  0.10198194646E+01  0.10195344145E+01 0.  0.
     999903    2    3    3    0    0 -0.11695507174E+00 -0.89767439225E-02 -0.57452270621E-01  0.13210331960E+00  0.19785169024E-01 0.  0.
         14    1    1    2    0    0  0.66385805727E-02  0.12831293516E-01  0.19302980919E-01  0.24110535409E-01  0.00000000000E+00 0.  1.
     999901    1    3    3    0    0  0.11031649116E+00 -0.38545495937E-02  0.38149289702E-01  0.88771614499E+00  0.88000000000E+00 0.  1.
        -11    1    4    4    0    0 -0.89379699353E-01 -0.11536775593E-01 -0.35909372497E-01  0.97013256835E-01  0.51100000000E-03 0. -1.
         11    1    4    4    0    0 -0.27575372383E-01  0.25600316703E-02 -0.21542898125E-01  0.35090062764E-01  0.51100000000E-03 0.  1.
</event>
<event>
 8    1  0.1070112E+005  0.1043930E+01  0.7957747E-01            NaN
         13   -1    0    0    0    0  0.00000000000E+00  0.00000000000E+00  0.74505805969E-08  0.10566000000E+00  0.10566000000E+00 0. -1.
     999900   -1    0    0    0    0 -0.00000000000E+00 -0.00000000000E+00 -0.74505805969E-08  0.93827000000E+00  0.93827000000E+00 0.  1.
     999902    2    1    2    0    0  0.97834154648E-02 -0.21078085169E-01  0.38818022076E-02  0.10203700917E+01  0.10200980613E+01 0.  0.
     999903    2    3    3    0    0 -0.12074524584E+00 -0.30117391013E-01  0.31693713663E-01  0.13026170338E+00  0.21843723310E-01 0.  0.
         14    1    1    2    0    0 -0.97834154648E-02  0.21078085169E-01 -0.38818022076E-02  0.23559908339E-01  0.00000000000E+00 0.  1.
     999901    1    3    3    0    0  0.13052866130E+00  0.90393058434E-02 -0.27811911456E-01  0.89010838828E+00  0.88000000000E+00 0. -1.
        -11    1    4    4    0    0 -0.76646778500E-01 -0.99422338398E-02  0.13480872006E-01  0.78457451521E-01  0.51100000000E-03 0.  1.
         11    1    4    4    0    0 -0.44098467336E-01 -0.20175157173E-01  0.18212841657E-01  0.51804251858E-01  0.51100000000E-03 0. -1.
</event>
<event>
 7    1  0.1070112E+005  0.1043930E+01  0.7957747E-01            NaN
         13   -1    0    0    0    0  0.00000000000E+00  0.00000000000E+00  0.74505805969E-08  0.10566000000E+00  0.10566000000E+00 0.  1.
     999900   -1    0    0    0    0 -0.00000000000E+00 -0.00000000000E+00 -0.74505805969E-08  0.93827000000E+00  0.93827000000E+00 0.  1.
     999903    2    1    2    0    0 -0.72189503869E-01  0.88040626093E-01 -0.50099723497E-02  0.11563758821E+00  0.19608051220E-01 0.  0.
         14    1    1    2    0    0 -0.78470954637E-02 -0.42358256557E-01 -0.54205567072E-02  0.43418673872E-01  0.00000000000E+00 0. -1.
     999901    1    1    2    0    0  0.80036599333E-01 -0.45682369536E-01  0.10430529057E-01  0.88487373792E+00  0.88000000000E+00 0.  1.
        -11    1    3    3    0    0 -0.22234734214E-01  0.35214252487E-01 -0.97508872554E-02  0.42775786458E-01  0.51100000000E-03 0.  1.
         11    1    3    3    0    0 -0.49954769655E-01  0.52826373605E-01  0.47409149057E-02  0.72861801753E-01  0.51100000000E-03 0. -1.
</event>
<event>
 8    1  0.1070112E+005  0.1043930E+01  0.7957747E-01            NaN
         13   -1    0    0    0    0  0.00000000000E+00  0.00000000000E+00  0.74505805969E-08  0.10566000000E+00  0.10566000000E+00 0. -1.
     999900   -1    0    0    0    0 -0.00000000000E+00 -0.00000000000E+00 -0.74505805969E-08  0.93827000000E+00  0.93827000000E+00 0.  1.
     999902    2    1    2    0    0  0.21654719095E-01  0.92972074692E-02  0.51481510602E-02  0.10198080518E+01  0.10195227286E+01 0.  0.
     999903    2    3    3    0    0  0.57645203546E-01  0.24990432234E-01 -0.11325996244E+00  0.13100994558E+00  0.19705216390E-01 0.  0.
         14    1    1    2    0    0 -0.21654719095E-01 -0.92972074692E-02 -0.51481510602E-02  0.24121948204E-01  0.00000000000E+00 0. -1.
     999901    1    3    3    0    0 -0.35990484451E-01 -0.15693224765E-01  0.11840811350E+00  0.88879810622E+00  0.88000000000E+00 0. -1.
        -11    1    4    4    0    0  0.74027440192E-03  0.34223899954E-02 -0.15150918633E-01  0.15558670120E-01  0.51100000000E-03 0.  1.
         11    1    4    4    0    0  0.56904929144E-01  0.21568042239E-01 -0.98109043809E-01  0.11545127546E+00  0.51100000000E-03 0. -1.
</event>
<event>
 8    1  0.1070112E+005  0.1043930E+01  0.7957747E-01            NaN
         13   -1    0    0    0    0  0.00000000000E+00  0.00000000000E+00  0.74505805969E-08  0.10566000000E+00  0.10566000000E+00 0.  1.
     999900   -1    0    0    0    0 -0.00000000000E+00 -0.00000000000E+00 -0.74505805969E-08  0.93827000000E+00  0.93827000000E+00 0.  1.
     999902    2    1    2    0    0 -0.19726976631E-01  0.12543785888E-01  0.55267070134E-02  0.10199082461E+01  0.10196253164E+01 0.  0.
     999903    2    3    3    0    0  0.85383923933E-01  0.82754321118E-01  0.48320207376E-01  0.12984695360E+00  0.19664607540E-01 0.  0.
         14    1    1    2    0    0  0.19726976631E-01 -0.12543785888E-01 -0.55267070134E-02  0.24021753929E-01  0.00000000000E+00 0. -1.
     999901    1    3    3    0    0 -0.10511090056E+00 -0.70210535230E-01 -0.42793500363E-01  0.89006129247E+00  0.88000000000E+00 0.  1.
        -11    1    4    4    0    0  0.45151934544E-01  0.45822088829E-01  0.36505491808E-01  0.73968054394E-01  0.51100000000E-03 0. -1.
         11    1    4    4    0    0  0.40231989389E-01  0.36932232289E-01  0.11814715568E-01  0.55878899210E-01  0.51100000000E-03 0.  1.
</event>
<event>
 8    1  0.1070112E+005  0.1043930E+01  0.7957747E-01            NaN
         13   -1    0    0    0    0  0.00000000000E+00  0.00000000000E+00  0.74505805969E-08  0.10566000000E+00  0.10566000000E+00 0. -1.
     999900   -1    0    0    0    0 -0.00000000000E+00 -0.00000000000E+00 -0.74505805969E-08  0.93827000000E+00  0.93827000000E+00 0. -1.
     999902    2    1    2    0    0  0.77857784941E-02  0.21695457067E-01 -0.62946987415E-03  0.10208712178E+01  0.10206107661E+01 0.  0.
     999903    2    3    3    0    0  0.11929799526E+00  0.27700711983E-01 -0.46725798295E-01  0.13261680094E+00  0.20114038576E-01 0.  0.
         14    1    1    2    0    0 -0.77857784941E-02 -0.21695457067E-01  0.62946987415E-03  0.23058782197E-01  0.00000000000E+00 0.  1.
     999901    1    3    3    0    0 -0.11151221677E+00 -0.60052549164E-02  0.46096328421E-01  0.88825441686E+00  0.88000000000E+00 0.  1.
        -11    1    4    4    0    0  0.98264997598E-01  0.15556967391E-01 -0.41324752595E-01  0.10773126420E+00  0.51100000000E-03 0. -1.
         11    1    4    4    0    0  0.21032997667E-01  0.12143744592E-01 -0.54010457001E-02  0.24885536748E-01  0.51100000000E-03 0.  1.
</event>
<event>
 8    1  0.1070112E+005  0.1043930E+01  0.7957747E-01            NaN
         13   -1    0    0    0    0  0.00000000000E+00  0.00000000000E+00  0.74505805969E-08  0.10566000000E+00  0.10566000000E+00 0.  1.
     999900   -1    0    0    0    0 -0.00000000000E+00 -0.00000000000E+00 -0.74505805969E-08  0.93827000000E+00  0.93827000000E+00 0.  1.
     999902    2    1    2    0    0  0.20274267057E-01  0.94619928012E-02 -0.77333267169E-02  0.10202576627E+01  0.10199829992E+01 0.  0.
     999903    2    3    3    0    0  0.94534144720E-01  0.55756172801E-01 -0.73233648584E-01  0.13349502662E+00  0.20305160036E-01 0.  0.
         14    1    1    2    0    0 -0.20274267057E-01 -0.94619928012E-02  0.77333267169E-02  0.23672337328E-01  0.00000000000E+00 0. -1.
     999901    1    3    3    0    0 -0.74259877662E-01 -0.46294179999E-01  0.65500321867E-01  0.88676263605E+00  0.88000000000E+00 0. -1.
        -11    1    4    4    0    0  0.51559848419E-01  0.19711420786E-01 -0.41384265368E-01  0.68991859081E-01  0.51100000000E-03 0. -1.
         11    1    4    4    0    0  0.42974296301E-01  0.36044752015E-01 -0.31849383217E-01  0.64503167539E-01  0.51100000000E-03 0.  1.
</event>
<event>
 8    1  0.1070112E+005  0.1043930E+01  0.7957747E-01            NaN
         13   -1    0    0    0    0  0.00000000000E+00  0.00000000000E+00  0.74505805969E-08  0.10566000000E+00  0.10566000000E+00 0. -1.
     999900   -1    0    0    0    0 -0.00000000000E+00 -0.00000000000E+00 -0.74505805969E-08  0.93827000000E+00  0.93827000000E+00 0. -1.
     999902    2    1    2    0    0  0.19551892564E-01 -0.58663237431E-02  0.11910594137E-01  0.10202962845E+01  0.10200225270E+01 0.  0.
     999903    2    3    3    0    0 -0.89125481772E-01  0.88263862793E-01 -0.16479827082E-01  0.12817674106E+00  0.20587162809E-01 0.  0.
         14    1    1    2    0    0 -0.19551892564E-01  0.58663237431E-02 -0.11910594137E-01  0.23633715531E-01  0.00000000000E+00 0.  1.
     999901    1    3    3    0    0  0.10867737434E+00 -0.94130186536E-01  0.28390421219E-01  0.89211954341E+00  0.88000000000E+00 0. -1.
        -11    1    4    4    0    0 -0.64382114845E-01  0.50534881829E-01 -0.13529384166E-01  0.82958642408E-01  0.51100000000E-03 0. -1.
         11    1    4    4    0    0 -0.24743366927E-01  0.37728980964E-01 -0.29504429160E-02  0.45218098654E-01  0.51100000000E-03 0.  1.
</event>
<event>
 8    1  0.1070112E+005  0.1043930E+01  0.7957747E-01            NaN
         13   -1    0    0    0    0  0.00000000000E+00  0.00000000000E+00  0.74505805969E-08  0.10566000000E+00  0.10566000000E+00 0. -1.
     999900   -1    0    0    0    0 -0.00000000000E+00 -0.00000000000E+00 -0.74505805969E-08  0.93827000000E+00  0.93827000000E+00 0.  1.
     999902    2    1    2    0    0  0.12755500591E-01 -0.19850641242E-01 -0.42304413052E-02  0.10199581960E+01  0.10196764557E+01 0.  0.
     999903    2    3    3    0    0 -0.89107431441E-01  0.38695251560E-01 -0.81221158204E-01  0.12881777555E+00  0.23657682182E-01 0.  0.
         14    1    1    2    0    0 -0.12755500591E-01  0.19850641242E-01  0.42304413052E-02  0.23971803993E-01  0.00000000000E+00 0.  1.
     999901    1    3    3    0    0  0.10186293203E+00 -0.58545892801E-01  0.76990716898E-01  0.89114042046E+00  0.88000000000E+00 0. -1.
        -11    1    4    4    0    0 -0.35754089569E-01  0.27399320641E-01 -0.42494643230E-01  0.61928454823E-01  0.51100000000E-03 0. -1.
         11    1    4    4    0    0 -0.53353341872E-01  0.11295930919E-01 -0.38726514974E-01  0.66889320726E-01  0.51100000000E-03 0.  1.
</event>
<event>
 8    1  0.1070112E+005  0.1043930E+01  0.7957747E-01            NaN
         13   -1    0    0    0    0  0.00000000000E+00  0.00000000000E+00  0.74505805969E-08  0.10566000000E+00  0.10566000000E+00 0. -1.
     999900   -1    0    0    0    0 -0.00000000000E+00 -0.00000000000E+00 -0.74505805969E-08  0.93827000000E+00  0.93827000000E+00 0. -1.
     999902    2    1    2    0    0 -0.54679214197E-02 -0.23987618128E-01 -0.41023331250E-02  0.10189874034E+01  0.10186820874E+01 0.  0.
     999903    2    3    3    0    0 -0.10198301960E+00 -0.62332411319E-01  0.50226372454E-01  0.13121654581E+00  0.20229375103E-01 0.  0.
         14    1    1    2    0    0  0.54679214197E-02  0.23987618128E-01  0.41023331250E-02  0.24942596601E-01  0.00000000000E+00 0.  1.
     999901    1    3    3    0    0  0.96515098176E-01  0.38344793190E-01 -0.54328705579E-01  0.88777085759E+00  0.88000000000E+00 0. -1.
        -11    1    4    4    0    0 -0.56098956011E-01 -0.23889696331E-01  0.20116019435E-01  0.64208455949E-01  0.51100000000E-03 0. -1.
         11    1    4    4    0    0 -0.45884063584E-01 -0.38442714987E-01  0.30110353019E-01  0.67008089858E-01  0.51100000000E-03 0.  1.
</event>
<event>
 8    1  0.1070112E+005  0.1043930E+01  0.7957747E-01            NaN
         13   -1    0    0    0    0  0.00000000000E+00  0.00000000000E+00  0.74505805969E-08  0.10566000000E+00  0.10566000000E+00 0. -1.
     999900   -1    0    0    0    0 -0.00000000000E+00 -0.00000000000E+00 -0.74505805969E-08  0.93827000000E+00  0.93827000000E+00 0. -1.
     999902    2    1    2    0    0  0.25308123400E-02 -0.44144548918E-02  0.23078258712E-01  0.10202974282E+01  0.10200236976E+01 0.  0.
     999903    2    3    3    0    0  0.78344566179E-01  0.37519752213E-01 -0.92150430461E-01  0.12856660909E+00  0.22182612192E-01 0.  0.
         14    1    1    2    0    0 -0.25308123400E-02  0.44144548918E-02 -0.23078258712E-01  0.23632571766E-01  0.00000000000E+00 0.  1.
     999901    1    3    3    0    0 -0.75813753839E-01 -0.41934207105E-01  0.11522868917E+00  0.89173081914E+00  0.88000000000E+00 0.  1.
        -11    1    4    4    0    0  0.24506240161E-01  0.21784656186E-01 -0.26100888369E-01  0.41912343606E-01  0.51100000000E-03 0.  1.
         11    1    4    4    0    0  0.53838326018E-01  0.15735096027E-01 -0.66049542093E-01  0.86654265487E-01  0.51100000000E-03 0. -1.
</event>
<event>
 8    1  0.1070112E+005  0.1043930E+01  0.7957747E-01            NaN
         13   -1    0    0    0    0  0.00000000000E+00  0.00000000000E+00  0.74505805969E-08  0.10566000000E+00  0.10566000000E+00 0. -1.
     999900   -1    0    0    0    0 -0.00000000000E+00 -0.00000000000E+00 -0.74505805969E-08  0.93827000000E+00  0.93827000000E+00 0. -1.
     999902    2    1    2    0    0  0.83246249396E-02  0.27045362066E-02  0.21130936239E-01  0.10210579567E+01  0.10208017538E+01 0.  0.
     999903    2    3    3    0    0  0.11879574325E+00 -0.30277120524E-01  0.48367931115E-01  0.13312017088E+00  0.18772066857E-01 0.  0.
         14    1    1    2    0    0 -0.83246249396E-02 -0.27045362066E-02 -0.21130936239E-01  0.22872043259E-01  0.00000000000E+00 0.  1.
     999901    1    3    3    0    0 -0.11047111831E+00  0.32981656731E-01 -0.27236994876E-01  0.88793778586E+00  0.88000000000E+00 0.  1.
        -11    1    4    4    0    0  0.44050495410E-01 -0.11610741151E-01  0.83940935825E-02  0.46324695185E-01  0.51100000000E-03 0.  1.
         11    1    4    4    0    0  0.74745247842E-01 -0.18666379373E-01  0.39973837533E-01  0.86795475700E-01  0.51100000000E-03 0. -1.
</event>
<event>
 8    1  0.1070112E+005  0.1043930E+01  0.7957747E-01            NaN
         13   -1    0    0    0    0  0.00000000000E+00  0.00000000000E+00  0.74505805969E-08  0.10566000000E+00  0.10566000000E+00 0. -1.
     999900   -1    0    0    0    0 -0.00000000000E+00 -0.00000000000E+00 -0.74505805969E-08  0.93827000000E+00  0.93827000000E+00 0. -1.
     999902    2    1    2    0    0 -0.45907557713E-02 -0.51378148773E-02 -0.21373195179E-01  0.10214736946E+01  0.10212268226E+01 0.  0.
     999903    2    3    3    0    0  0.88174449862E-01 -0.95142121233E-01  0.90757539879E-02  0.13151116896E+00  0.19648445443E-01 0.  0.
         14    1    1    2    0    0  0.45907557713E-02  0.51378148773E-02  0.21373195179E-01  0.22456305405E-01  0.00000000000E+00 0. -1.
     999901    1    3    3    0    0 -0.92765205633E-01  0.90004306356E-01 -0.30448949167E-01  0.88996252564E+00  0.88000000000E+00 0.  1.
        -11    1    4    4    0    0  0.77108488678E-01 -0.86514214304E-01  0.13769858578E-01  0.11670603424E+00  0.51100000000E-03 0.  1.
         11    1    4    4    0    0  0.11065961184E-01 -0.86279069291E-02 -0.46941045897E-02  0.14805134710E-01  0.51100000000E-03 0. -1.
</event>
<event>
 8    1  0.1070112E+005  0.1043930E+01  0.7957747E-01            NaN
         13   -1    0    0    0    0  0.00000000000E+00  0.00000000000E+00  0.74505805969E-08  0.10566000000E+00  0.10566000000E+00 0.  1.
     999900   -1    0    0    0    0 -0.00000000000E+00 -0.00000000000E+00 -0.74505805969E-08  0.93827000000E+00  0.93827000000E+00 0.  1.
     999902    2    1    2    0    0  0.14876734339E-01  0.13648002114E-01 -0.12285240036E-01  0.10202971350E+01  0.10200233974E+01 0.  0.
     999903    2    3    3    0    0  0.10145695737E+00 -0.61685011897E-01  0.48879160062E-01  0.13073978334E+00  0.24600076568E-01 0.  0.
         14    1    1    2    0    0 -0.14876734339E-01 -0.13648002114E-01  0.12285240036E-01  0.23632865019E-01  0.00000000000E+00 0.  1.
     999901    1    3    3    0    0 -0.86580223034E-01  0.75333014011E-01 -0.61164400098E-01  0.88955735164E+00  0.88000000000E+00 0.  1.
        -11    1    4    4    0    0  0.42853054600E-01 -0.12247555147E-01  0.18932196770E-01  0.48425985701E-01  0.51100000000E-03 0.  1.
         11    1    4    4    0    0  0.58603902773E-01 -0.49437456751E-01  0.29946963292E-01  0.82313797638E-01  0.51100000000E-03 0. -1.
</event>
<event>
 8    1  0.1070112E+005  0.1043930E+01  0.7957747E-01            NaN
         13   -1    0    0    0    0  0.00000000000E+00  0.00000000000E+00  0.74505805969E-08  0.10566000000E+00  0.10566000000E+00 0.  1.
     999900   -1    0    0    0    0 -0.00000000000E+00 -0.00000000000E+00 -0.74505805969E-08  0.93827000000E+00  0.93827000000E+00 0.  1.
     999902    2    1    2    0    0  0.13228884502E-01 -0.61358076327E-02 -0.18223167096E-01  0.10205904340E+01  0.10203235265E+01 0.  0.
     999903    2    3    3    0    0  0.94007449541E-01 -0.48000683003E-01  0.74874087600E-01  0.13101472439E+00  0.20427013360E-01 0.  0.
         14    1    1    2    0    0 -0.13228884502E-01  0.61358076327E-02  0.18223167096E-01  0.23339565966E-01  0.00000000000E+00 0.  1.
     999901    1    3    3    0    0 -0.80778565039E-01  0.41864875370E-01 -0.93097254695E-01  0.88957570965E+00  0.88000000000E+00 0.  1.
        -11    1    4    4    0    0  0.60308787949E-01 -0.39815773503E-01  0.56718636647E-01  0.91867897481E-01  0.51100000000E-03 0.  1.
         11    1    4    4    0    0  0.33698661592E-01 -0.81849094994E-02  0.18155450953E-01  0.39146826908E-01  0.51100000000E-03 0. -1.
</event>
<event>
 8    1  0.1070112E+005  0.1043930E+01  0.7957747E-01            NaN
         13   -1    0    0    0    0  0.00000000000E+00  0.00000000000E+00  0.74505805969E-08  0.10566000000E+00  0.10566000000E+00 0. -1.
     999900   -1    0    0    0    0 -0.00000000000E+00 -0.00000000000E+00 -0.74505805969E-08  0.93827000000E+00  0.93827000000E+00 0. -1.
     999902    2    1    2    0    0 -0.10529795008E-01  0.21753254877E-01  0.24677985879E-02  0.10196365706E+01  0.10193471271E+01 0.  0.
     999903    2    3    3    0    0  0.12541000734E+00  0.23828112412E-01 -0.92995886362E-03  0.12918978410E+00  0.19841537483E-01 0.  0.
         14    1    1    2    0    0  0.10529795008E-01 -0.21753254877E-01 -0.24677985879E-02  0.24293429369E-01  0.00000000000E+00 0. -1.
     999901    1    3    3    0    0 -0.13593980235E+00 -0.20748575356E-02  0.33977574515E-02  0.89044678654E+00  0.88000000000E+00 0. -1.
        -11    1    4    4    0    0  0.61231632119E-01  0.19538925170E-01 -0.66173363865E-02  0.64615266235E-01  0.51100000000E-03 0.  1.
         11    1    4    4    0    0  0.64178375218E-01  0.42891872426E-02  0.56873775228E-02  0.64574517861E-01  0.51100000000E-03 0. -1.
</event>
<event>
 8    1  0.1070112E+005  0.1043930E+01  0.7957747E-01            NaN
         13   -1    0    0    0    0  0.00000000000E+00  0.00000000000E+00  0.74505805969E-08  0.10566000000E+00  0.10566000000E+00 0.  1.
     999900   -1    0    0    0    0 -0.00000000000E+00 -0.00000000000E+00 -0.74505805969E-08  0.93827000000E+00  0.93827000000E+00 0. -1.
     999902    2    1    2    0    0  0.10300934344E-01 -0.40906653623E-02  0.19922429139E-01  0.10211320621E+01  0.10208775354E+01 0.  0.
     999903    2    3    3    0    0 -0.11044909099E+00  0.54895057881E-01  0.31420800064E-01  0.13085564617E+00  0.30388556655E-01 0.  0.
         14    1    1    2    0    0 -0.10300934344E-01  0.40906653623E-02 -0.19922429139E-01  0.22797937939E-01  0.00000000000E+00 0. -1.
     999901    1    3    3    0    0  0.12075002534E+00 -0.58985723244E-01 -0.11498370925E-01  0.89027641590E+00  0.88000000000E+00 0.  1.
        -11    1    4    4    0    0 -0.59651223166E-01  0.46016871037E-01  0.15888178133E-01  0.76996858187E-01  0.51100000000E-03 0. -1.
         11    1    4    4    0    0 -0.50797867828E-01  0.88781868446E-02  0.15532621931E-01  0.53858787979E-01  0.51100000000E-03 0.  1.
</event>
<event>
 8    1  0.1070112E+005  0.1043930E+01  0.7957747E-01            NaN
         13   -1    0    0    0    0  0.00000000000E+00  0.00000000000E+00  0.74505805969E-08  0.10566000000E+00  0.10566000000E+00 0.  1.
     999900   -1    0    0    0    0 -0.00000000000E+00 -0.00000000000E+00 -0.74505805969E-08  0.93827000000E+00  0.93827000000E+00 0. -1.
     999902    2    1    2    0    0 -0.35087786059E-02 -0.34621358842E-02 -0.22914688217E-01  0.10204911253E+01  0.10202219150E+01 0.  0.
     999903    2    3    3    0    0  0.12193890738E+00 -0.23021304587E-01 -0.34649123759E-01  0.13130195532E+00  0.25309367708E-01 0.  0.
         14    1    1    2    0    0  0.35087786059E-02  0.34621358842E-02  0.22914688217E-01  0.23438874723E-01  0.00000000000E+00 0.  1.
     999901    1    3    3    0    0 -0.12544768599E+00  0.19559168703E-01  0.11734435542E-01  0.88918916996E+00  0.88000000000E+00 0. -1.
        -11    1    4    4    0    0  0.62284488363E-01  0.90875590711E-03 -0.14760323911E-01  0.64018056913E-01  0.51100000000E-03 0. -1.
         11    1    4    4    0    0  0.59654419020E-01 -0.23930060494E-01 -0.19888799848E-01  0.67283898402E-01  0.51100000000E-03 0.  1.
</event>
<event>
 8    1  0.1070112E+005  0.1043930E+01  0.7957747E-01            NaN
         13   -1    0    0    0    0  0.00000000000E+00  0.00000000000E+00  0.74505805969E-08  0.10566000000E+00  0.10566000000E+00 0. -1.
     999900   -1    0    0    0    0 -0.00000000000E+00 -0.00000000000E+00 -0.74505805969E-08  0.93827000000E+00  0.93827000000E+00 0.  1.
     999902    2    1    2    0    0  0.41273273957E-02 -0.23468064618E-01 -0.10384743106E-02  0.10200791443E+01  0.10198002733E+01 0.  0.
     999903    2    3    3    0    0 -0.12251845558E+00 -0.20024669918E-01  0.34580058628E-01  0.13029282659E+00  0.19201063562E-01 0.  0.
         14    1    1    2    0    0 -0.41273273957E-02  0.23468064618E-01  0.10384743106E-02  0.23850855692E-01  0.00000000000E+00 0. -1.
     999901    1    3    3    0    0  0.12664578298E+00 -0.34433947005E-02 -0.35618532938E-01  0.88978631772E+00  0.88000000000E+00 0.  1.
        -11    1    4    4    0    0 -0.22150417091E-01  0.94364626456E-03  0.12317750470E-01  0.25367686990E-01  0.51100000000E-03 0.  1.
         11    1    4    4    0    0 -0.10036803849E+00 -0.20968316182E-01  0.22262308158E-01  0.10492513960E+00  0.51100000000E-03 0. -1.
</event>
<event>
 8    1  0.1070112E+005  0.1043930E+01  0.7957747E-01            NaN
         13   -1    0    0    0    0  0.00000000000E+00  0.00000000000E+00  0.74505805969E-08  0.10566000000E+00  0.10566000000E+00 0.  1.
     999900   -1    0    0    0    0 -0.00000000000E+00 -0.00000000000E+00 -0.74505805969E-08  0.93827000000E+00  0.93827000000E+00 0. -1.
     999902    2    1    2    0    0 -0.23246134358E-01  0.36900253246E-02 -0.62981866536E-02  0.10195647336E+01  0.10192735550E+01 0.  0.
     999903    2    3    3    0    0  0.63148180054E-01 -0.44953166412E-01 -0.10122354446E+00  0.12892397485E+00  0.19149556781E-01 0.  0.
         14    1    1    2    0    0  0.23246134358E-01 -0.36900253246E-02  0.62981866536E-02  0.24365266356E-01  0.00000000000E+00 0. -1.
     999901    1    3    3    0    0 -0.86394314412E-01  0.48643191736E-01  0.94925357803E-01  0.89064075879E+00  0.88000000000E+00 0.  1.
        -11    1    4    4    0    0  0.27505712783E-01 -0.30818447424E-01 -0.48075285130E-01  0.63386395217E-01  0.51100000000E-03 0.  1.
         11    1    4    4    0    0  0.35642467271E-01 -0.14134718988E-01 -0.53148259327E-01  0.65537579636E-01  0.51100000000E-03 0. -1.
</event>
<event>
 8    1  0.1070112E+005  0.1043930E+01  0.7957747E-01            NaN
         13   -1    0    0    0    0  0.00000000000E+00  0.00000000000E+00  0.74505805969E-08  0.10566000000E+00  0.10566000000E+00 0.  1.
     999900   -1    0    0    0    0 -0.00000000000E+00 -0.00000000000E+00 -0.74505805969E-08  0.93827000000E+00  0.93827000000E+00 0. -1.
     999902    2    1    2    0    0 -0.19124124905E-01 -0.11323549137E-01  0.46134461337E-02  0.10212311277E+01  0.10209788330E+01 0.  0.
     999903    2    3    3    0    0 -0.85554314023E-01  0.39643595871E-01  0.91592196605E-01  0.13298796115E+00  0.20137328259E-01 0.  0.
         14    1    1    2    0    0  0.19124124905E-01  0.11323549137E-01 -0.46134461337E-02  0.22698872300E-01  0.00000000000E+00 0. -1.
     999901    1    3    3    0    0  0.66430189118E-01 -0.50967145008E-01 -0.86978750471E-01  0.88824316655E+00  0.88000000000E+00 0. -1.
        -11    1    4    4    0    0 -0.18459356302E-01  0.16516936345E-01  0.30892919018E-01  0.39600386207E-01  0.51100000000E-03 0. -1.
         11    1    4    4    0    0 -0.67094957721E-01  0.23126659526E-01  0.60699277587E-01  0.93387574939E-01  0.51100000000E-03 0.  1.
</event>
<event>
 8    1  0.1070112E+005  0.1043930E+01  0.7957747E-01            NaN
         13   -1    0    0    0    0  0.00000000000E+00  0.00000000000E+00  0.74505805969E-08  0.10566000000E+00  0.10566000000E+00 0. -1.
     999900   -1    0    0    0    0 -0.00000000000E+00 -0.00000000000E+00 -0.74505805969E-08  0.93827000000E+00  0.93827000000E+00 0.  1.
     999902    2    1    2    0    0 -0.11790323437E-01 -0.17053918853E-01  0.60564101593E-02  0.10223307412E+01  0.10221025470E+01 0.  0.
     999903    2    3    3    0    0 -0.64463069708E-02  0.39080809638E-01  0.12490032566E+00  0.13255349805E+00  0.20036814565E-01 0.  0.
         14    1    1    2    0    0  0.11790323437E-01  0.17053918853E-01 -0.60564101593E-02  0.21599258760E-01  0.00000000000E+00 0.  1.
     999901    1    3    3    0    0 -0.53440164661E-02 -0.56134728491E-01 -0.11884391550E+00  0.88977724319E+00  0.88000000000E+00 0.  1.
        -11    1    4    4    0    0 -0.89992470748E-02  0.54052674247E-02  0.33621736926E-01  0.35226207272E-01  0.51100000000E-03 0.  1.
         11    1    4    4    0    0  0.25529401040E-02  0.33675542214E-01  0.91278588737E-01  0.97327290773E-01  0.51100000000E-03 0. -1.
</event>
<event>
 8    1  0.1070112E+005  0.1043930E+01  0.7957747E-01            NaN
         13   -1    0    0    0    0  0.00000000000E+00  0.00000000000E+00  0.74505805969E-08  0.10566000000E+00  0.10566000000E+00 0. -1.
     999900   -1    0    0    0    0 -0.00000000000E+00 -0.00000000000E+00 -0.74505805969E-08  0.93827000000E+00  0.93827000000E+00 0. -1.
     999902    2    1    2    0    0 -0.29122767122E-02 -0.11379211828E-01  0.20418293460E-01  0.10203742252E+01  0.10201022914E+01 0.  0.
     999903    2    3    3    0    0  0.98249777699E-01 -0.47639165405E-02  0.86531544774E-01  0.13209021356E+00  0.16864239016E-01 0.  0.
         14    1    1    2    0    0  0.29122767122E-02  0.11379211828E-01 -0.20418293460E-01  0.23555774776E-01  0.00000000000E+00 0.  1.
     999901    1    3    3    0    0 -0.10116205441E+00 -0.66152952874E-02 -0.66113251314E-01  0.88828401167E+00  0.88000000000E+00 0. -1.
        -11    1    4    4    0    0  0.89430784720E-01 -0.91404413066E-02  0.76781382163E-01  0.11822459427E+00  0.51100000000E-03 0. -1.
         11    1    4    4    0    0  0.88189929797E-02  0.43765247661E-02  0.97501626113E-02  0.13865619285E-01  0.51100000000E-03 0.  1.
</event>
<event>
 8    1  0.1070112E+005  0.1043930E+01  0.7957747E-01            NaN
         13   -1    0    0    0    0  0.00000000000E+00  0.00000000000E+00  0.74505805969E-08  0.10566000000E+00  0.10566000000E+00 0.  1.
     999900   -1    0    0    0    0 -0.00000000000E+00 -0.00000000000E+00 -0.74505805969E-08  0.93827000000E+00  0.93827000000E+00 0. -1.
     999902    2    1    2    0    0 -0.21709168322E-01 -0.11056732748E-01 -0.52632045145E-02  0.10190053004E+01  0.10187004278E+01 0.  0.
     999903    2    3    3    0    0  0.11952516017E+00 -0.21430042950E-01 -0.31995366852E-01  0.12728261391E+00  0.20776179801E-01 0.  0.
         14    1    1    2    0    0  0.21709168322E-01  0.11056732748E-01  0.52632045145E-02  0.24924699598E-01  0.00000000000E+00 0.  1.
     999901    1    3    3    0    0 -0.14123432850E+00  0.10373310202E-01  0.26732162337E-01  0.89172268650E+00  0.88000000000E+00 0.  1.
        -11    1    4    4    0    0  0.27281492519E-01 -0.12302301015E-01 -0.13140628086E-01  0.32688892178E-01  0.51100000000E-03 0.  1.
         11    1    4    4    0    0  0.92243667655E-01 -0.91277419351E-02 -0.18854738765E-01  0.94593721727E-01  0.51100000000E-03 0. -1.
</event>
<event>
 8    1  0.1070112E+005  0.1043930E+01  0.7957747E-01            NaN
         13   -1    0    0    0    0  0.00000000000E+00  0.00000000000E+00  0.74505805969E-08  0.10566000000E+00  0.10566000000E+00 0.  1.
     999900   -1    0    0    0    0 -0.00000000000E+00 -0.00000000000E+00 -0.74505805969E-08  0.93827000000E+00  0.93827000000E+00 0.  1.
     999902    2    1    2    0    0  0.94556626675E-02 -0.66701670855E-02  0.20774839823E-01  0.10201498685E+01  0.10198726683E+01 0.  0.
     999903    2    3    3    0    0 -0.12756321567E+00  0.74167317691E-02  0.45707603446E-02  0.12928782196E+00  0.19158996730E-01 0.  0.
         14    1    1    2    0    0 -0.94556626675E-02  0.66701670855E-02 -0.20774839823E-01  0.23780131520E-01  0.00000000000E+00 0. -1.
     999901    1    3    3    0    0  0.13701887833E+00 -0.14086898855E-01  0.16204079479E-01  0.89086204652E+00  0.88000000000E+00 0. -1.
        -11    1    4    4    0    0 -0.74960670731E-01  0.13637592529E-01  0.10632540411E-02  0.76200247483E-01  0.51100000000E-03 0.  1.
         11    1    4    4    0    0 -0.52602544935E-01 -0.62208607604E-02  0.35075063034E-02  0.53087574476E-01  0.51100000000E-03 0. -1.
</event>
<event>
 8    1  0.1070112E+005  0.1043930E+01  0.7957747E-01            NaN
         13   -1    0    0    0    0  0.00000000000E+00  0.00000000000E+00  0.74505805969E-08  0.10566000000E+00  0.10566000000E+00 0. -1.
     999900   -1    0    0    0    0 -0.00000000000E+00 -0.00000000000E+00 -0.74505805969E-08  0.93827000000E+00  0.93827000000E+00 0.  1.
     999902    2    1    2    0    0  0.19316346604E-01 -0.11058456625E-01 -0.85336513393E-02  0.10200923425E+01  0.10198137837E+01 0.  0.
     999903    2    3    3    0    0 -0.12482659003E+00 -0.21619184458E-01  0.34798018966E-02  0.12822181480E+00  0.19484815988E-01 0.  0.
         14    1    1    2    0    0 -0.19316346604E-01  0.11058456625E-01  0.85336513393E-02  0.23837657482E-01  0.00000000000E+00 0.  1.
     999901    1    3    3    0    0  0.14414293663E+00  0.10560727834E-01 -0.12013453236E-01  0.89187052772E+00  0.88000000000E+00 0.  1.
        -11    1    4    4    0    0 -0.73841586373E-01 -0.31244181216E-02  0.70878849788E-03  0.73912822764E-01  0.51100000000E-03 0. -1.
         11    1    4    4    0    0 -0.50985003657E-01 -0.18494766337E-01  0.27710133987E-02  0.54308992036E-01  0.51100000000E-03 0.  1.
</event>
<event>
 8    1  0.1070112E+005  0.1043930E+01  0.7957747E-01            NaN
         13   -1    0    0    0    0  0.00000000000E+00  0.00000000000E+00  0.74505805969E-08  0.10566000000E+00  0.10566000000E+00 0. -1.
     999900   -1    0    0    0    0 -0.00000000000E+00 -0.00000000000E+00 -0.74505805969E-08  0.93827000000E+00  0.93827000000E+00 0.  1.
     999902    2    1    2    0    0  0.20139072943E-01  0.77059070657E-02  0.11533233258E-01  0.10194763963E+01  0.10191830768E+01 0.  0.
     999903    2    3    3    0    0 -0.25448996235E-01 -0.98632310838E-01 -0.74390287626E-01  0.12775393947E+00  0.20277327403E-01 0.  0.
         14    1    1    2    0    0 -0.20139072943E-01 -0.77059070657E-02 -0.11533233258E-01  0.24453603662E-01  0.00000000000E+00 0.  1.
     999901    1    3    3    0    0  0.45588069178E-01  0.10633821790E+00  0.85923520884E-01  0.89172245687E+00  0.88000000000E+00 0.  1.
        -11    1    4    4    0    0  0.32465188868E-02 -0.12291437908E-01 -0.11480051672E-01  0.17136861968E-01  0.51100000000E-03 0. -1.
         11    1    4    4    0    0 -0.28695515122E-01 -0.86340872930E-01 -0.62910235955E-01  0.11061707750E+00  0.51100000000E-03 0.  1.
</event>
<event>
 8    1  0.1070112E+005  0.1043930E+01  0.7957747E-01            NaN
         13   -1    0    0    0    0  0.00000000000E+00  0.00000000000E+00  0.74505805969E-08  0.10566000000E+00  0.10566000000E+00 0.  1.
     999900   -1    0    0    0    0 -0.00000000000E+00 -0.00000000000E+00 -0.74505805969E-08  0.93827000000E+00  0.93827000000E+00 0. -1.
     999902    2    1    2    0    0  0.14112015639E-01  0.13407454561E-01 -0.13964475195E-01  0.10199734687E+01  0.10196920915E+01 0.  0.
     999903    2    3    3    0    0  0.11701492415E+00  0.58540026944E-01  0.74961874087E-02  0.13256909770E+00  0.19973622932E-01 0.  0.
         14    1    1    2    0    0 -0.14112015639E-01 -0.13407454561E-01  0.13964475195E-01  0.23956531274E-01  0.00000000000E+00 0.  1.
     999901    1    3    3    0    0 -0.10290290851E+00 -0.45132572382E-01 -0.21460662604E-01  0.88740437102E+00  0.88000000000E+00 0. -1.
        -11    1    4    4    0    0  0.27473946002E-01  0.70482970231E-02 -0.39615491683E-02  0.28643519208E-01  0.51100000000E-03 0.  1.
         11    1    4    4    0    0  0.89540978144E-01  0.51491729921E-01  0.11457736577E-01  0.10392557850E+00  0.51100000000E-03 0. -1.
</event>
<event>
 8    1  0.1070112E+005  0.1043930E+01  0.7957747E-01            NaN
         13   -1    0    0    0    0  0.00000000000E+00  0.00000000000E+00  0.74505805969E-08  0.10566000000E+00  0.10566000000E+00 0. -1.
     999900   -1    0    0    0    0 -0.00000000000E+00 -0.00000000000E+00 -0.74505805969E-08  0.93827000000E+00  0.93827000000E+00 0.  1.
     999902    2    1    2    0    0  0.13924101060E-01 -0.12794497019E-01 -0.15013423326E-01  0.10197849669E+01  0.10194990908E+01 0.  0.
     999903    2    3    3    0    0 -0.66309189323E-01 -0.90362694925E-01  0.61445142813E-01  0.12944788546E+00  0.20467639166E-01 0.  0.
         14    1    1    2    0    0 -0.13924101060E-01  0.12794497019E-01  0.15013423326E-01  0.24145033118E-01  0.00000000000E+00 0.  1.
     999901    1    3    3    0    0  0.80233290383E-01  0.77568197907E-01 -0.76458566139E-01  0.89033708142E+00  0.88000000000E+00 0.  1.
        -11    1    4    4    0    0 -0.48595475296E-01 -0.70281436819E-01  0.55869150841E-01  0.10209125191E+00  0.51100000000E-03 0. -1.
         11    1    4    4    0    0 -0.17713714027E-01 -0.20081258106E-01  0.55759919723E-02  0.27356633551E-01  0.51100000000E-03 0.  1.
</event>
<event>
 8    1  0.1070112E+005  0.1043930E+01  0.7957747E-01            NaN
         13   -1    0    0    0    0  0.00000000000E+00  0.00000000000E+00  0.74505805969E-08  0.10566000000E+00  0.10566000000E+00 0. -1.
     999900   -1    0    0    0    0 -0.00000000000E+00 -0.00000000000E+00 -0.74505805969E-08  0.93827000000E+00  0.93827000000E+00 0. -1.
     999902    2    1    2    0    0 -0.14517251987E-01  0.18686068621E-01  0.19862923057E-02  0.10201841557E+01  0.10199077637E+01 0.  0.
     999903    2    3    3    0    0 -0.32208972365E-02 -0.93497975402E-01 -0.86011649175E-01  0.12863690226E+00  0.19929958487E-01 0.  0.
         14    1    1    2    0    0  0.14517251987E-01 -0.18686068621E-01 -0.19862923057E-02  0.23745844329E-01  0.00000000000E+00 0.  1.
     999901    1    3    3    0    0 -0.11296354751E-01  0.11218404402E+00  0.87997941481E-01  0.89154725341E+00  0.88000000000E+00 0.  1.
        -11    1    4    4    0    0  0.15096265666E-02 -0.18939737596E-01 -0.28935405800E-01  0.34619524295E-01  0.51100000000E-03 0.  1.
         11    1    4    4    0    0 -0.47305238031E-02 -0.74558237806E-01 -0.57076243375E-01  0.94017377963E-01  0.51100000000E-03 0. -1.
</event>
<event>
 8    1  0.1070112E+005  0.1043930E+01  0.7957747E-01            NaN
         13   -1    0    0    0    0  0.00000000000E+00  0.00000000000E+00  0.74505805969E-08  0.10566000000E+00  0.10566000000E+00 0. -1.
     999900   -1    0    0    0    0 -0.00000000000E+00 -0.00000000000E+00 -0.74505805969E-08  0.93827000000E+00  0.93827000000E+00 0. -1.
     999902    2    1    2    0    0 -0.16164713277E-01 -0.11483338119E-01 -0.13282731131E-01  0.10200637905E+01  0.10197845560E+01 0.  0.
     999903    2    3    3    0    0  0.16751778267E-01  0.12472870691E+00  0.16148498974E-01  0.12849022992E+00  0.20275422630E-01 0.  0.
         14    1    1    2    0    0  0.16164713277E-01  0.11483338119E-01  0.13282731131E-01  0.23866209502E-01  0.00000000000E+00 0. -1.
     999901    1    3    3    0    0 -0.32916491543E-01 -0.13621204503E+00 -0.29431230105E-01  0.89157356058E+00  0.88000000000E+00 0.  1.
        -11    1    4    4    0    0  0.10438184268E-01  0.20995634733E-01  0.48768448619E-02  0.23954479862E-01  0.51100000000E-03 0.  1.
         11    1    4    4    0    0  0.63135939989E-02  0.10373307217E+00  0.11271654112E-01  0.10453575005E+00  0.51100000000E-03 0. -1.
</event>
<event>
 8    1  0.1070112E+005  0.1043930E+01  0.7957747E-01            NaN
         13   -1    0    0    0    0  0.00000000000E+00  0.00000000000E+00  0.74505805969E-08  0.10566000000E+00  0.10566000000E+00 0.  1.
     999900   -1    0    0    0    0 -0.00000000000E+00 -0.00000000000E+00 -0.74505805969E-08  0.93827000000E+00  0.93827000000E+00 0. -1.
     999902    2    1    2    0    0 -0.67856360974E-03 -0.22747511962E-01 -0.11546001364E-01  0.10184109895E+01  0.10180912158E+01 0.  0.
     999903    2    3    3    0    0 -0.82063904659E-01 -0.16358646982E-01  0.95078455061E-01  0.12822383725E+00  0.19983744485E-01 0.  0.
         14    1    1    2    0    0  0.67856360974E-03  0.22747511962E-01  0.11546001364E-01  0.25519010493E-01  0.00000000000E+00 0.  1.
     999901    1    3    3    0    0  0.81385341049E-01 -0.63888649798E-02 -0.10662445643E+00  0.89018715226E+00  0.88000000000E+00 0. -1.
        -11    1    4    4    0    0 -0.36357428966E-01 -0.14494021418E-01  0.33562424742E-01  0.51561970225E-01  0.51100000000E-03 0.  1.
         11    1    4    4    0    0 -0.45706475693E-01 -0.18646255641E-02  0.61516030319E-01  0.76661867027E-01  0.51100000000E-03 0. -1.
</event>
<event>
 8    1  0.1070112E+005  0.1043930E+01  0.7957747E-01            NaN
         13   -1    0    0    0    0  0.00000000000E+00  0.00000000000E+00  0.74505805969E-08  0.10566000000E+00  0.10566000000E+00 0. -1.
     999900   -1    0    0    0    0 -0.00000000000E+00 -0.00000000000E+00 -0.74505805969E-08  0.93827000000E+00  0.93827000000E+00 0.  1.
     999902    2    1    2    0    0  0.20055150050E-02 -0.21185767424E-01  0.94551212208E-02  0.10206435630E+01  0.10203778832E+01 0.  0.
     999903    2    3    3    0    0  0.10423410197E+00  0.66527358605E-01 -0.30907836988E-01  0.12947946762E+00  0.22781586672E-01 0.  0.
         14    1    1    2    0    0 -0.20055150050E-02  0.21185767424E-01 -0.94551212208E-02  0.23286437020E-01  0.00000000000E+00 0.  1.
     999901    1    3    3    0    0 -0.10222858696E+00 -0.87713126029E-01  0.40362958209E-01  0.89116409536E+00  0.88000000000E+00 0.  1.
        -11    1    4    4    0    0  0.42031122660E-02  0.64144633844E-02  0.25083283991E-02  0.80848206899E-02  0.51100000000E-03 0.  1.
         11    1    4    4    0    0  0.10003098970E+00  0.60112895220E-01 -0.33416165387E-01  0.12139464693E+00  0.51100000000E-03 0. -1.
</event>
<event>
 8    1  0.1393483E+005  0.1043930E+01  0.7957747E-01            NaN
         13   -1    0    0    0    0  0.00000000000E+00  0.00000000000E+00  0.74505805969E-08  0.10566000000E+00  0.10566000000E+00 0. -1.
     999900   -1    0    0    0    0 -0.00000000000E+00 -0.00000000000E+00 -0.74505805969E-08  0.93827000000E+00  0.93827000000E+00 0.  1.
     999902    2    1    2    0    0  0.85108029396E-02 -0.17622938779E-01 -0.12852880549E-01  0.10205163656E+01  0.10202477416E+01 0.  0.
     999903    2    3    3    0    0 -0.61374559476E-01 -0.11386909694E+00 -0.20531280676E-01  0.13248131861E+00  0.19918797766E-01 0.  0.
         14    1    1    2    0    0 -0.85108029396E-02  0.17622938779E-01  0.12852880549E-01  0.23413634410E-01  0.00000000000E+00 0. -1.
     999901    1    3    3    0    0  0.69885362416E-01  0.96246158163E-01  0.76784001270E-02  0.88803504698E+00  0.88000000000E+00 0.  1.
        -11    1    4    4    0    0 -0.16785646684E-01 -0.51474051474E-01 -0.10210352473E-01  0.55098532906E-01  0.51100000000E-03 0.  1.
         11    1    4    4    0    0 -0.44588912793E-01 -0.62395045468E-01 -0.10320928203E-01  0.77382785702E-01  0.51100000000E-03 0. -1.
</event>
<event>
 8    1  0.1070112E+005  0.1043930E+01  0.7957747E-01            NaN
         13   -1    0    0    0    0  0.00000000000E+00  0.00000000000E+00  0.74505805969E-08  0.10566000000E+00  0.10566000000E+00 0.  1.
     999900   -1    0    0    0    0 -0.00000000000E+00 -0.00000000000E+00 -0.74505805969E-08  0.93827000000E+00  0.93827000000E+00 0. -1.
     999902    2    1    2    0    0 -0.10727032512E-01 -0.10820243398E-01  0.18061269197E-01  0.10203004351E+01  0.10200267749E+01 0.  0.
     999903    2    3    3    0    0  0.25590656940E-01 -0.12005450396E+00  0.45458909854E-01  0.13238054625E+00  0.19751731474E-01 0.  0.
         14    1    1    2    0    0  0.10727032512E-01  0.10820243398E-01 -0.18061269197E-01  0.23629564928E-01  0.00000000000E+00 0. -1.
     999901    1    3    3    0    0 -0.36317689452E-01  0.10923426057E+00 -0.27397640658E-01  0.88791988882E+00  0.88000000000E+00 0.  1.
        -11    1    4    4    0    0  0.70494504396E-02 -0.39680064735E-01  0.24880032329E-01  0.47365382069E-01  0.51100000000E-03 0.  1.
         11    1    4    4    0    0  0.18541206500E-01 -0.80374439229E-01  0.20578877525E-01  0.85015164183E-01  0.51100000000E-03 0. -1.
</event>
<event>
 8    1  0.1070112E+005  0.1043930E+01  0.7957747E-01            NaN
         13   -1    0    0    0    0  0.00000000000E+00  0.00000000000E+00  0.74505805969E-08  0.10566000000E+00  0.10566000000E+00 0.  1.
     999900   -1    0    0    0    0 -0.00000000000E+00 -0.00000000000E+00 -0.74505805969E-08  0.93827000000E+00  0.93827000000E+00 0. -1.
     999902    2    1    2    0    0  0.18910052375E-01  0.46603924793E-02 -0.10774899272E-01  0.10216722420E+01  0.10214297637E+01 0.  0.
     999903    2    3    3    0    0  0.61168019804E-01  0.10335711552E+00 -0.55937672165E-01  0.13399749577E+00  0.20052075473E-01 0.  0.
         14    1    1    2    0    0 -0.18910052375E-01 -0.46603924793E-02  0.10774899272E-01  0.22257758045E-01  0.00000000000E+00 0. -1.
     999901    1    3    3    0    0 -0.42257967429E-01 -0.98696723043E-01  0.45162772894E-01  0.88767474618E+00  0.88000000000E+00 0.  1.
        -11    1    4    4    0    0  0.36402010862E-01  0.43258580065E-01 -0.22005499542E-01  0.60670538774E-01  0.51100000000E-03 0.  1.
         11    1    4    4    0    0  0.24766008942E-01  0.60098535457E-01 -0.33932172623E-01  0.73326957000E-01  0.51100000000E-03 0. -1.
</event>
<event>
 8    1  0.1070112E+005  0.1043930E+01  0.7957747E-01            NaN
         13   -1    0    0    0    0  0.00000000000E+00  0.00000000000E+00  0.74505805969E-08  0.10566000000E+00  0.10566000000E+00 0. -1.
     999900   -1    0    0    0    0 -0.00000000000E+00 -0.00000000000E+00 -0.74505805969E-08  0.93827000000E+00  0.93827000000E+00 0. -1.
     999902    2    1    2    0    0 -0.15820015976E-02  0.19626578722E-01 -0.12279432198E-01  0.10207246175E+01  0.10204608052E+01 0.  0.
     999903    2    3    3    0    0 -0.10112771087E+00 -0.56539677535E-01 -0.56844959449E-01  0.13072645288E+00  0.20844832102E-01 0.  0.
         14    1    1    2    0    0  0.15820015976E-02 -0.19626578722E-01  0.12279432198E-01  0.23205382490E-01  0.00000000000E+00 0. -1.
     999901    1    3    3    0    0  0.99545709275E-01  0.76166256257E-01  0.44565527250E-01  0.88999816463E+00  0.88000000000E+00 0.  1.
        -11    1    4    4    0    0 -0.81256875772E-01 -0.53795160338E-01 -0.49961774501E-01  0.10951273519E+00  0.51100000000E-03 0. -1.
         11    1    4    4    0    0 -0.19870835101E-01 -0.27445171972E-02 -0.68831849482E-02  0.21213717691E-01  0.51100000000E-03 0.  1.
</event>
<event>
 8    1  0.1070112E+005  0.1043930E+01  0.7957747E-01            NaN
         13   -1    0    0    0    0  0.00000000000E+00  0.00000000000E+00  0.74505805969E-08  0.10566000000E+00  0.10566000000E+00 0.  1.
     999900   -1    0    0    0    0 -0.00000000000E+00 -0.00000000000E+00 -0.74505805969E-08  0.93827000000E+00  0.93827000000E+00 0.  1.
     999902    2    1    2    0    0  0.17612145154E-01 -0.33612274790E-02  0.17038204735E-01  0.10191956933E+01  0.10188955174E+01 0.  0.
     999903    2    3    3    0    0 -0.42950639214E-01  0.25878486372E-01  0.11957322450E+00  0.13069344683E+00  0.16388031007E-01 0.  0.
         14    1    1    2    0    0 -0.17612145154E-01  0.33612274790E-02 -0.17038204735E-01  0.24734306695E-01  0.00000000000E+00 0. -1.
     999901    1    3    3    0    0  0.60562784368E-01 -0.29239713851E-01 -0.10253501977E+00  0.88850224648E+00  0.88000000000E+00 0.  1.
        -11    1    4    4    0    0 -0.41508498005E-02 -0.19489559624E-02  0.66939956924E-02  0.81301096388E-02  0.51100000000E-03 0. -1.
         11    1    4    4    0    0 -0.38799789414E-01  0.27827442334E-01  0.11287922881E+00  0.12256333719E+00  0.51100000000E-03 0.  1.
</event>
<event>
 8    1  0.1070112E+005  0.1043930E+01  0.7957747E-01            NaN
         13   -1    0    0    0    0  0.00000000000E+00  0.00000000000E+00  0.74505805969E-08  0.10566000000E+00  0.10566000000E+00 0. -1.
     999900   -1    0    0    0    0 -0.00000000000E+00 -0.00000000000E+00 -0.74505805969E-08  0.93827000000E+00  0.93827000000E+00 0. -1.
     999902    2    1    2    0    0  0.22865280037E-01 -0.45757870002E-02  0.28315455778E-02  0.10204400765E+01  0.10201696786E+01 0.  0.
     999903    2    3    3    0    0 -0.66042962172E-02 -0.11882332353E+00  0.51735988451E-01  0.13121985623E+00  0.19479199747E-01 0.  0.
         14    1    1    2    0    0 -0.22865280037E-01  0.45757870002E-02 -0.28315455778E-02  0.23489923546E-01  0.00000000000E+00 0. -1.
     999901    1    3    3    0    0  0.29469576255E-01  0.11424753653E+00 -0.48904442873E-01  0.88922022023E+00  0.88000000000E+00 0. -1.
        -11    1    4    4    0    0  0.46812067079E-02 -0.29674633823E-01  0.19163384644E-01  0.35636975472E-01  0.51100000000E-03 0. -1.
         11    1    4    4    0    0 -0.11285502925E-01 -0.89148689711E-01  0.32572603807E-01  0.95582880754E-01  0.51100000000E-03 0.  1.
</event>
<event>
 8    1  0.1070112E+005  0.1043930E+01  0.7957747E-01            NaN
         13   -1    0    0    0    0  0.00000000000E+00  0.00000000000E+00  0.74505805969E-08  0.10566000000E+00  0.10566000000E+00 0. -1.
     999900   -1    0    0    0    0 -0.00000000000E+00 -0.00000000000E+00 -0.74505805969E-08  0.93827000000E+00  0.93827000000E+00 0.  1.
     999902    2    1    2    0    0 -0.18170119795E-01  0.33308284147E-03 -0.16426973275E-01  0.10194328645E+01  0.10191384869E+01 0.  0.
     999903    2    3    3    0    0 -0.69029404709E-01 -0.79980225863E-02 -0.11138921951E+00  0.13282477610E+00  0.20145367789E-01 0.  0.
         14    1    1    2    0    0  0.18170119795E-01 -0.33308284147E-03  0.16426973275E-01  0.24497135517E-01  0.00000000000E+00 0.  1.
     999901    1    3    3    0    0  0.50859284914E-01  0.83311054278E-02  0.94962246232E-01  0.88660808838E+00  0.88000000000E+00 0. -1.
        -11    1    4    4    0    0 -0.29746418602E-01  0.63398731579E-02 -0.43273626291E-01  0.52895285846E-01  0.51100000000E-03 0. -1.
         11    1    4    4    0    0 -0.39282986107E-01 -0.14337895744E-01 -0.68115593217E-01  0.79929490253E-01  0.51100000000E-03 0.  1.
</event>
<event>
 8    1  0.1070112E+005  0.1043930E+01  0.7957747E-01            NaN
         13   -1    0    0    0    0  0.00000000000E+00  0.00000000000E+00  0.74505805969E-08  0.10566000000E+00  0.10566000000E+00 0.  1.
     999900   -1    0    0    0    0 -0.00000000000E+00 -0.00000000000E+00 -0.74505805969E-08  0.93827000000E+00  0.93827000000E+00 0.  1.
     999902    2    1    2    0    0  0.17865962100E-01  0.14225303687E-01  0.33440910734E-02  0.10208489512E+01  0.10205879905E+01 0.  0.
     999903    2    3    3    0    0  0.60421363620E-01  0.14008303090E-01  0.11529787659E+00  0.13273597454E+00  0.21869267354E-01 0.  0.
         14    1    1    2    0    0 -0.17865962100E-01 -0.14225303687E-01 -0.33440910734E-02  0.23081048760E-01  0.00000000000E+00 0. -1.
     999901    1    3    3    0    0 -0.42555401520E-01  0.21700059717E-03 -0.11195378552E+00  0.88811297670E+00  0.88000000000E+00 0.  1.
        -11    1    4    4    0    0  0.27214058067E-01  0.16996752781E-01  0.49901619438E-01  0.59328975258E-01  0.51100000000E-03 0. -1.
         11    1    4    4    0    0  0.33207305553E-01 -0.29884496911E-02  0.65396257150E-01  0.73406999284E-01  0.51100000000E-03 0.  1.
</event>
<event>
 8    1  0.1070112E+005  0.1043930E+01  0.7957747E-01            NaN
         13   -1    0    0    0    0  0.00000000000E+00  0.00000000000E+00  0.74505805969E-08  0.10566000000E+00  0.10566000000E+00 0. -1.
     999900   -1    0    0    0    0 -0.00000000000E+00 -0.00000000000E+00 -0.74505805969E-08  0.93827000000E+00  0.93827000000E+00 0.  1.
     999902    2    1    2    0    0  0.81755500411E-02  0.18580763977E-01  0.13958108670E-01  0.10192943915E+01  0.10189966356E+01 0.  0.
     999903    2    3    3    0    0  0.38556159513E-01 -0.10405924920E+00  0.62383440975E-01  0.12895256553E+00  0.20546670495E-01 0.  0.
         14    1    1    2    0    0 -0.81755500411E-02 -0.18580763977E-01 -0.13958108670E-01  0.24635608499E-01  0.00000000000E+00 0.  1.
     999901    1    3    3    0    0 -0.30380609472E-01  0.12264001318E+00 -0.48425332305E-01  0.89034182597E+00  0.88000000000E+00 0. -1.
        -11    1    4    4    0    0  0.18968165095E-01 -0.38271802660E-01  0.34310233486E-01  0.54790285715E-01  0.51100000000E-03 0.  1.
         11    1    4    4    0    0  0.19587994418E-01 -0.65787446541E-01  0.28073207489E-01  0.74162279815E-01  0.51100000000E-03 0. -1.
</event>
<event>
 8    1  0.1070112E+005  0.1043930E+01  0.7957747E-01            NaN
         13   -1    0    0    0    0  0.00000000000E+00  0.00000000000E+00  0.74505805969E-08  0.10566000000E+00  0.10566000000E+00 0. -1.
     999900   -1    0    0    0    0 -0.00000000000E+00 -0.00000000000E+00 -0.74505805969E-08  0.93827000000E+00  0.93827000000E+00 0. -1.
     999902    2    1    2    0    0  0.17961346062E-01 -0.16769766335E-02 -0.15440800214E-01  0.10201846738E+01  0.10199082940E+01 0.  0.
     999903    2    3    3    0    0 -0.48519865030E-01  0.36827283567E-02  0.11646484542E+00  0.12785761653E+00  0.20390441259E-01 0.  0.
         14    1    1    2    0    0 -0.17961346062E-01  0.16769766335E-02  0.15440800214E-01  0.23745326156E-01  0.00000000000E+00 0. -1.
     999901    1    3    3    0    0  0.66481211092E-01 -0.53597049902E-02 -0.13190564564E+00  0.89232705732E+00  0.88000000000E+00 0. -1.
        -11    1    4    4    0    0 -0.34206533162E-01  0.68809408233E-02  0.99417226792E-01  0.10536356278E+00  0.51100000000E-03 0. -1.
         11    1    4    4    0    0 -0.14313331868E-01 -0.31982124666E-02  0.17047618630E-01  0.22494053750E-01  0.51100000000E-03 0.  1.
</event>
<event>
 8    1  0.1070112E+005  0.1043930E+01  0.7957747E-01            NaN
         13   -1    0    0    0    0  0.00000000000E+00  0.00000000000E+00  0.74505805969E-08  0.10566000000E+00  0.10566000000E+00 0.  1.
     999900   -1    0    0    0    0 -0.00000000000E+00 -0.00000000000E+00 -0.74505805969E-08  0.93827000000E+00  0.93827000000E+00 0.  1.
     999902    2    1    2    0    0  0.19245189960E-01  0.14085161845E-01 -0.15487477197E-02  0.10200308841E+01  0.10197508700E+01 0.  0.
     999903    2    3    3    0    0 -0.22040925215E-01 -0.93408699922E-01  0.83481302009E-01  0.12846508004E+00  0.17976690465E-01 0.  0.
         14    1    1    2    0    0 -0.19245189960E-01 -0.14085161845E-01  0.15487477197E-02  0.23899115889E-01  0.00000000000E+00 0. -1.
     999901    1    3    3    0    0  0.41286115175E-01  0.10749386177E+00 -0.85030049729E-01  0.89156580407E+00  0.88000000000E+00 0.  1.
        -11    1    4    4    0    0 -0.12668061640E-01 -0.25328635587E-01  0.31017468501E-01  0.42004333582E-01  0.51100000000E-03 0. -1.
         11    1    4    4    0    0 -0.93728635748E-02 -0.68080064335E-01  0.52463833508E-01  0.86460746462E-01  0.51100000000E-03 0.  1.
</event>
<event>
 8    1  0.1070112E+005  0.1043930E+01  0.7957747E-01            NaN
         13   -1    0    0    0    0  0.00000000000E+00  0.00000000000E+00  0.74505805969E-08  0.10566000000E+00  0.10566000000E+00 0. -1.
     999900   -1    0    0    0    0 -0.00000000000E+00 -0.00000000000E+00 -0.74505805969E-08  0.93827000000E+00  0.93827000000E+00 0.  1.
     999902    2    1    2    0    0 -0.10573700390E-02  0.15442568589E-01  0.17089789661E-01  0.10208724228E+01  0.10206119986E+01 0.  0.
     999903    2    3    3    0    0  0.36589617971E-01  0.25019729561E-01  0.12413176640E+00  0.13353539409E+00  0.21406051359E-01 0.  0.
         14    1    1    2    0    0  0.10573700390E-02 -0.15442568589E-01 -0.17089789661E-01  0.23057577208E-01  0.00000000000E+00 0.  1.
     999901    1    3    3    0    0 -0.37646988010E-01 -0.95771609721E-02 -0.10704197674E+00  0.88733702870E+00  0.88000000000E+00 0.  1.
        -11    1    4    4    0    0  0.24152473983E-01  0.15831287102E-01  0.49444564208E-01  0.57262533139E-01  0.51100000000E-03 0. -1.
         11    1    4    4    0    0  0.12437143988E-01  0.91884424584E-02  0.74687202194E-01  0.76272860953E-01  0.51100000000E-03 0.  1.
</event>
<event>
 8    1  0.1070112E+005  0.1043930E+01  0.7957747E-01            NaN
         13   -1    0    0    0    0  0.00000000000E+00  0.00000000000E+00  0.74505805969E-08  0.10566000000E+00  0.10566000000E+00 0. -1.
     999900   -1    0    0    0    0 -0.00000000000E+00 -0.00000000000E+00 -0.74505805969E-08  0.93827000000E+00  0.93827000000E+00 0.  1.
     999902    2    1    2    0    0 -0.13358267064E-01  0.14483825652E-01 -0.87799493712E-02  0.10223589079E+01  0.10221313147E+01 0.  0.
     999903    2    3    3    0    0  0.68034230375E-01  0.86987984186E-01  0.69737336918E-01  0.13216423485E+00  0.20211949849E-01 0.  0.
         14    1    1    2    0    0  0.13358267064E-01 -0.14483825652E-01  0.87799493712E-02  0.21571092124E-01  0.00000000000E+00 0.  1.
     999901    1    3    3    0    0 -0.81392497439E-01 -0.72504158534E-01 -0.78517286290E-01  0.89019467303E+00  0.88000000000E+00 0.  1.
        -11    1    4    4    0    0  0.18635618471E-01  0.24024397580E-01  0.90542496041E-02  0.31728512600E-01  0.51100000000E-03 0.  1.
         11    1    4    4    0    0  0.49398611904E-01  0.62963586605E-01  0.60683087314E-01  0.10043572225E+00  0.51100000000E-03 0. -1.
</event>
<event>
 8    1  0.1070112E+005  0.1043930E+01  0.7957747E-01            NaN
         13   -1    0    0    0    0  0.00000000000E+00  0.00000000000E+00  0.74505805969E-08  0.10566000000E+00  0.10566000000E+00 0. -1.
     999900   -1    0    0    0    0 -0.00000000000E+00 -0.00000000000E+00 -0.74505805969E-08  0.93827000000E+00  0.93827000000E+00 0. -1.
     999902    2    1    2    0    0  0.15984220102E-01  0.12474707516E-01  0.11528099378E-01  0.10206059631E+01  0.10203394148E+01 0.  0.
     999903    2    3    3    0    0 -0.76415346179E-02  0.71743546937E-01 -0.10667797964E+00  0.13041292300E+00  0.20538002978E-01 0.  0.
         14    1    1    2    0    0 -0.15984220102E-01 -0.12474707516E-01 -0.11528099378E-01  0.23324036854E-01  0.00000000000E+00 0.  1.
     999901    1    3    3    0    0  0.23625754720E-01 -0.59268839421E-01  0.11820607902E+00  0.89019304015E+00  0.88000000000E+00 0.  1.
        -11    1    4    4    0    0 -0.61494349619E-02  0.46048184614E-01 -0.50518281601E-01  0.68633874679E-01  0.51100000000E-03 0. -1.
         11    1    4    4    0    0 -0.14920996561E-02  0.25695362324E-01 -0.56159698038E-01  0.61779048318E-01  0.51100000000E-03 0.  1.
</event>
<event>
 8    1  0.1070112E+005  0.1043930E+01  0.7957747E-01            NaN
         13   -1    0    0    0    0  0.00000000000E+00  0.00000000000E+00  0.74505805969E-08  0.10566000000E+00  0.10566000000E+00 0.  1.
     999900   -1    0    0    0    0 -0.00000000000E+00 -0.00000000000E+00 -0.74505805969E-08  0.93827000000E+00  0.93827000000E+00 0. -1.
     999902    2    1    2    0    0 -0.10463211329E-01  0.16362389563E-01  0.14372862076E-01  0.10197683414E+01  0.10194820667E+01 0.  0.
     999903    2    3    3    0    0  0.91424297886E-01  0.88898609548E-01 -0.15955575896E-01  0.13040768230E+00  0.22140871211E-01 0.  0.
         14    1    1    2    0    0  0.10463211329E-01 -0.16362389563E-01 -0.14372862076E-01  0.24161658631E-01  0.00000000000E+00 0.  1.
     999901    1    3    3    0    0 -0.10188750922E+00 -0.72536219985E-01  0.30328437972E-01  0.88936065907E+00  0.88000000000E+00 0. -1.
        -11    1    4    4    0    0  0.70780296686E-01  0.73348681774E-01 -0.20992536012E-01  0.10407126023E+00  0.51100000000E-03 0. -1.
         11    1    4    4    0    0  0.20644001200E-01  0.15549927774E-01  0.50369601162E-02  0.26336422072E-01  0.51100000000E-03 0.  1.
</event>
<event>
 8    1  0.1070112E+005  0.1043930E+01  0.7957747E-01            NaN
         13   -1    0    0    0    0  0.00000000000E+00  0.00000000000E+00  0.74505805969E-08  0.10566000000E+00  0.10566000000E+00 0. -1.
     999900   -1    0    0    0    0 -0.00000000000E+00 -0.00000000000E+00 -0.74505805969E-08  0.93827000000E+00  0.93827000000E+00 0.  1.
     999902    2    1    2    0    0 -0.16643041140E-01  0.13797942541E-01 -0.89207623860E-02  0.10205429515E+01  0.10202749442E+01 0.  0.
     999903    2    3    3    0    0 -0.98486166463E-01 -0.27120720369E-01  0.80401512335E-01  0.13130108174E+00  0.18452978708E-01 0.  0.
         14    1    1    2    0    0  0.16643041140E-01 -0.13797942541E-01  0.89207623860E-02  0.23387048517E-01  0.00000000000E+00 0. -1.
     999901    1    3    3    0    0  0.81843125323E-01  0.40918662910E-01 -0.89322274722E-01  0.88924186974E+00  0.88000000000E+00 0.  1.
        -11    1    4    4    0    0 -0.20920029948E-01 -0.72917318370E-02  0.86395268725E-02  0.23784859718E-01  0.51100000000E-03 0. -1.
         11    1    4    4    0    0 -0.77566136515E-01 -0.19828988532E-01  0.71761985463E-01  0.10751622203E+00  0.51100000000E-03 0.  1.
</event>
<event>
 8    1  0.1070112E+005  0.1043930E+01  0.7957747E-01            NaN
         13   -1    0    0    0    0  0.00000000000E+00  0.00000000000E+00  0.74505805969E-08  0.10566000000E+00  0.10566000000E+00 0.  1.
     999900   -1    0    0    0    0 -0.00000000000E+00 -0.00000000000E+00 -0.74505805969E-08  0.93827000000E+00  0.93827000000E+00 0. -1.
     999902    2    1    2    0    0  0.19839880180E-01 -0.43330674323E-02 -0.11201730321E-01  0.10207378660E+01  0.10204743583E+01 0.  0.
     999903    2    3    3    0    0 -0.10361566875E+00 -0.50807582285E-01 -0.56503060875E-01  0.12975337472E+00  0.18047856782E-01 0.  0.
         14    1    1    2    0    0 -0.19839880180E-01  0.43330674323E-02  0.11201730321E-01  0.23192134035E-01  0.00000000000E+00 0.  1.
     999901    1    3    3    0    0  0.12345554893E+00  0.46474514853E-01  0.45301330554E-01  0.89098449125E+00  0.88000000000E+00 0.  1.
        -11    1    4    4    0    0 -0.60157698588E-01 -0.27614818901E-01 -0.42022089724E-01  0.78406913395E-01  0.51100000000E-03 0. -1.
         11    1    4    4    0    0 -0.43457970162E-01 -0.23192763384E-01 -0.14480971151E-01  0.51346461324E-01  0.51100000000E-03 0.  1.
</event>
<event>
 8    1  0.1070112E+005  0.1043930E+01  0.7957747E-01            NaN
         13   -1    0    0    0    0  0.00000000000E+00  0.00000000000E+00  0.74505805969E-08  0.10566000000E+00  0.10566000000E+00 0. -1.
     999900   -1    0    0    0    0 -0.00000000000E+00 -0.00000000000E+00 -0.74505805969E-08  0.93827000000E+00  0.93827000000E+00 0.  1.
     999902    2    1    2    0    0 -0.19843762021E-01  0.10116218515E-01 -0.68219726199E-02  0.10206351062E+01  0.10203692311E+01 0.  0.
     999903    2    3    3    0    0 -0.90620891734E-01 -0.81700842730E-01 -0.46165776463E-01  0.13216017139E+00  0.21162662037E-01 0.  0.
         14    1    1    2    0    0  0.19843762021E-01 -0.10116218515E-01  0.68219726199E-02  0.23294893831E-01  0.00000000000E+00 0. -1.
     999901    1    3    3    0    0  0.70777129713E-01  0.91817061244E-01  0.39343803843E-01  0.88847493478E+00  0.88000000000E+00 0. -1.
        -11    1    4    4    0    0 -0.42427733017E-01 -0.50801814367E-01 -0.29996200930E-01  0.72670283219E-01  0.51100000000E-03 0.  1.
         11    1    4    4    0    0 -0.48193158717E-01 -0.30899028363E-01 -0.16169575533E-01  0.59489888173E-01  0.51100000000E-03 0. -1.
</event>
<event>
 8    1  0.1070112E+005  0.1043930E+01  0.7957747E-01            NaN
         13   -1    0    0    0    0  0.00000000000E+00  0.00000000000E+00  0.74505805969E-08  0.10566000000E+00  0.10566000000E+00 0.  1.
     999900   -1    0    0    0    0 -0.00000000000E+00 -0.00000000000E+00 -0.74505805969E-08  0.93827000000E+00  0.93827000000E+00 0.  1.
     999902    2    1    2    0    0 -0.33137835175E-03 -0.20826838891E-01 -0.26304220545E-01  0.10103773690E+01  0.10098201071E+01 0.  0.
     999903    2    3    3    0    0 -0.11708917779E+00  0.10083433833E-01 -0.26598603798E-01  0.12212745181E+00  0.19901697646E-01 0.  0.
         14    1    1    2    0    0  0.33137835175E-03  0.20826838891E-01  0.26304220545E-01  0.33552631019E-01  0.00000000000E+00 0. -1.
     999901    1    3    3    0    0  0.11675779944E+00 -0.30910272724E-01  0.29438325354E-03  0.88824991717E+00  0.88000000000E+00 0.  1.
        -11    1    4    4    0    0 -0.42253472078E-01  0.13156340366E-01 -0.11370779120E-01  0.45694648847E-01  0.51100000000E-03 0. -1.
         11    1    4    4    0    0 -0.74835705711E-01 -0.30729065328E-02 -0.15227824679E-01  0.76432802966E-01  0.51100000000E-03 0.  1.
</event>
<event>
 8    1  0.1070112E+005  0.1043930E+01  0.7957747E-01            NaN
         13   -1    0    0    0    0  0.00000000000E+00  0.00000000000E+00  0.74505805969E-08  0.10566000000E+00  0.10566000000E+00 0.  1.
     999900   -1    0    0    0    0 -0.00000000000E+00 -0.00000000000E+00 -0.74505805969E-08  0.93827000000E+00  0.93827000000E+00 0.  1.
     999902    2    1    2    0    0 -0.16054501843E-01 -0.15671566912E-01  0.78211620469E-02  0.10201704627E+01  0.10198937480E+01 0.  0.
     999903    2    3    3    0    0 -0.11335579705E+00  0.45104797740E-01  0.45951591925E-01  0.13190516545E+00  0.20085924601E-01 0.  0.
         14    1    1    2    0    0  0.16054501843E-01  0.15671566912E-01 -0.78211620469E-02  0.23759537341E-01  0.00000000000E+00 0. -1.
     999901    1    3    3    0    0  0.97301295206E-01 -0.60776364652E-01 -0.38130429878E-01  0.88826529721E+00  0.88000000000E+00 0.  1.
        -11    1    4    4    0    0 -0.35928318477E-01  0.55562728144E-02  0.91499320587E-02  0.37492647463E-01  0.51100000000E-03 0.  1.
         11    1    4    4    0    0 -0.77427478573E-01  0.39548524925E-01  0.36801659866E-01  0.94412517983E-01  0.51100000000E-03 0. -1.
</event>
<event>
 8    1  0.1070112E+005  0.1043930E+01  0.7957747E-01            NaN
         13   -1    0    0    0    0  0.00000000000E+00  0.00000000000E+00  0.74505805969E-08  0.10566000000E+00  0.10566000000E+00 0.  1.
     999900   -1    0    0    0    0 -0.00000000000E+00 -0.00000000000E+00 -0.74505805969E-08  0.93827000000E+00  0.93827000000E+00 0. -1.
     999902    2    1    2    0    0 -0.17270646186E-01  0.41967302207E-02  0.16223331937E-01  0.10198658303E+01  0.10195818886E+01 0.  0.
     999903    2    3    3    0    0  0.21743915712E-01 -0.12253692697E+00 -0.27045902115E-01  0.12887998163E+00  0.19760377079E-01 0.  0.
         14    1    1    2    0    0  0.17270646186E-01 -0.41967302207E-02 -0.16223331937E-01  0.24064169700E-01  0.00000000000E+00 0. -1.
     999901    1    3    3    0    0 -0.39014561897E-01  0.12673365719E+00  0.43269234052E-01  0.89098584867E+00  0.88000000000E+00 0.  1.
        -11    1    4    4    0    0  0.25485739555E-01 -0.10298084411E+00 -0.23143605049E-01  0.10858390649E+00  0.51100000000E-03 0.  1.
         11    1    4    4    0    0 -0.37418238431E-02 -0.19556082867E-01 -0.39022970666E-02  0.20296075142E-01  0.51100000000E-03 0. -1.
</event>
<event>
 8    1  0.1070112E+005  0.1043930E+01  0.7957747E-01            NaN
         13   -1    0    0    0    0  0.00000000000E+00  0.00000000000E+00  0.74505805969E-08  0.10566000000E+00  0.10566000000E+00 0. -1.
     999900   -1    0    0    0    0 -0.00000000000E+00 -0.00000000000E+00 -0.74505805969E-08  0.93827000000E+00  0.93827000000E+00 0. -1.
     999902    2    1    2    0    0  0.86841827023E-02 -0.30279576616E-02  0.16807188182E-01  0.10247710561E+01  0.10245919443E+01 0.  0.
     999903    2    3    3    0    0  0.12667091109E+00  0.43956027496E-01  0.50065163118E-02  0.13557612877E+00  0.19446578499E-01 0.  0.
         14    1    1    2    0    0 -0.86841827023E-02  0.30279576616E-02 -0.16807188182E-01  0.19158943901E-01  0.00000000000E+00 0.  1.
     999901    1    3    3    0    0 -0.11798672839E+00 -0.46983985157E-01  0.11800671870E-01  0.88919492733E+00  0.88000000000E+00 0.  1.
        -11    1    4    4    0    0  0.10527809123E+00  0.42783467234E-01  0.33083129206E-03  0.11364097911E+00  0.51100000000E-03 0.  1.
         11    1    4    4    0    0  0.21392819862E-01  0.11725602618E-02  0.46756850197E-02  0.21935149660E-01  0.51100000000E-03 0. -1.
</event>
<event>
 8    1  0.1070112E+005  0.1043930E+01  0.7957747E-01            NaN
         13   -1    0    0    0    0  0.00000000000E+00  0.00000000000E+00  0.74505805969E-08  0.10566000000E+00  0.10566000000E+00 0. -1.
     999900   -1    0    0    0    0 -0.00000000000E+00 -0.00000000000E+00 -0.74505805969E-08  0.93827000000E+00  0.93827000000E+00 0.  1.
     999902    2    1    2    0    0  0.17417026003E-01  0.12284406277E-01  0.87607784621E-02  0.10208863312E+01  0.10206262247E+01 0.  0.
     999903    2    3    3    0    0  0.49506442273E-01 -0.52145594702E-01  0.10921161576E+00  0.13225180206E+00  0.19832076507E-01 0.  0.
         14    1    1    2    0    0 -0.17417026003E-01 -0.12284406277E-01 -0.87607784621E-02  0.23043668797E-01  0.00000000000E+00 0.  1.
     999901    1    3    3    0    0 -0.32089416270E-01  0.64430000979E-01 -0.10045083730E+00  0.88863452914E+00  0.88000000000E+00 0.  1.
        -11    1    4    4    0    0  0.79345797868E-02 -0.12804158483E-01  0.38054719539E-01  0.40930756541E-01  0.51100000000E-03 0.  1.
         11    1    4    4    0    0  0.41571862487E-01 -0.39341436219E-01  0.71156896223E-01  0.91321045524E-01  0.51100000000E-03 0. -1.
</event>
<event>
 8    1  0.1070112E+005  0.1043930E+01  0.7957747E-01            NaN
         13   -1    0    0    0    0  0.00000000000E+00  0.00000000000E+00  0.74505805969E-08  0.10566000000E+00  0.10566000000E+00 0.  1.
     999900   -1    0    0    0    0 -0.00000000000E+00 -0.00000000000E+00 -0.74505805969E-08  0.93827000000E+00  0.93827000000E+00 0. -1.
     999902    2    1    2    0    0 -0.75501428986E-03  0.23862151643E-01 -0.91520929759E-03  0.10200383710E+01  0.10197585344E+01 0.  0.
     999903    2    3    3    0    0  0.52883035383E-01 -0.11107597995E+00  0.26781116244E-01  0.12770859667E+00  0.21395530435E-01 0.  0.
         14    1    1    2    0    0  0.75501428986E-03 -0.23862151643E-01  0.91520929759E-03  0.23891628987E-01  0.00000000000E+00 0. -1.
     999901    1    3    3    0    0 -0.53638049673E-01  0.13493813159E+00 -0.27696325542E-01  0.89232977434E+00  0.88000000000E+00 0. -1.
        -11    1    4    4    0    0  0.43235397742E-01 -0.88378666975E-01  0.29930197618E-01  0.10284048933E+00  0.51100000000E-03 0. -1.
         11    1    4    4    0    0  0.96476376405E-02 -0.22697312977E-01 -0.31490813741E-02  0.24868107345E-01  0.51100000000E-03 0.  1.
</event>
<event>
 8    1  0.1070112E+005  0.1043930E+01  0.7957747E-01            NaN
         13   -1    0    0    0    0  0.00000000000E+00  0.00000000000E+00  0.74505805969E-08  0.10566000000E+00  0.10566000000E+00 0.  1.
     999900   -1    0    0    0    0 -0.00000000000E+00 -0.00000000000E+00 -0.74505805969E-08  0.93827000000E+00  0.93827000000E+00 0. -1.
     999902    2    1    2    0    0  0.19822223258E-01  0.42962027512E-02 -0.67609361177E-02  0.10225503800E+01  0.10223268516E+01 0.  0.
     999903    2    3    3    0    0 -0.90293616843E-01 -0.80373895128E-01 -0.45911876033E-01  0.13079518951E+00  0.19661662647E-01 0.  0.
         14    1    1    2    0    0 -0.19822223258E-01 -0.42962027512E-02  0.67609361177E-02  0.21379619972E-01  0.00000000000E+00 0.  1.
     999901    1    3    3    0    0  0.11011584010E+00  0.84670097879E-01  0.39150939915E-01  0.89175519052E+00  0.88000000000E+00 0.  1.
        -11    1    4    4    0    0 -0.28207412670E-01 -0.32441775859E-01 -0.82205921370E-02  0.43771751239E-01  0.51100000000E-03 0. -1.
         11    1    4    4    0    0 -0.62086204173E-01 -0.47932119269E-01 -0.37691283896E-01  0.87023438273E-01  0.51100000000E-03 0.  1.
</event>
<event>
 8    1  0.1070112E+005  0.1043930E+01  0.7957747E-01            NaN
         13   -1    0    0    0    0  0.00000000000E+00  0.00000000000E+00  0.74505805969E-08  0.10566000000E+00  0.10566000000E+00 0.  1.
     999900   -1    0    0    0    0 -0.00000000000E+00 -0.00000000000E+00 -0.74505805969E-08  0.93827000000E+00  0.93827000000E+00 0. -1.
     999902    2    1    2    0    0 -0.57534961175E-02 -0.13798450945E-01 -0.16556280741E-01  0.10216228173E+01  0.10213792491E+01 0.  0.
     999903    2    3    3    0    0 -0.39525177349E-01 -0.12018085575E+00 -0.39374749084E-01  0.13427935227E+00  0.21792105198E-01 0.  0.
         14    1    1    2    0    0  0.57534961175E-02  0.13798450945E-01  0.16556280741E-01  0.22307182656E-01  0.00000000000E+00 0.  1.
     999901    1    3    3    0    0  0.33771681232E-01  0.10638240480E+00  0.22818468342E-01  0.88734346507E+00  0.88000000000E+00 0.  1.
        -11    1    4    4    0    0 -0.12119536583E-01 -0.53181811040E-01 -0.70521387361E-02  0.55001654286E-01  0.51100000000E-03 0.  1.
         11    1    4    4    0    0 -0.27405640766E-01 -0.66999044708E-01 -0.32322610348E-01  0.79277697988E-01  0.51100000000E-03 0. -1.
</event>
<event>
 8    1  0.1070112E+005  0.1043930E+01  0.7957747E-01            NaN
         13   -1    0    0    0    0  0.00000000000E+00  0.00000000000E+00  0.74505805969E-08  0.10566000000E+00  0.10566000000E+00 0.  1.
     999900   -1    0    0    0    0 -0.00000000000E+00 -0.00000000000E+00 -0.74505805969E-08  0.93827000000E+00  0.93827000000E+00 0. -1.
     999902    2    1    2    0    0  0.43240764185E-02 -0.22878549625E-02  0.23527012671E-01  0.10198997640E+01  0.10196166321E+01 0.  0.
     999903    2    3    3    0    0 -0.49829433093E-01 -0.11703351405E+00  0.23590564800E-01  0.13079955991E+00  0.19292338112E-01 0.  0.
         14    1    1    2    0    0 -0.43240764185E-02  0.22878549625E-02 -0.23527012671E-01  0.24030236004E-01  0.00000000000E+00 0. -1.
     999901    1    3    3    0    0  0.54153509511E-01  0.11474565909E+00 -0.63552129219E-04  0.88910020409E+00  0.88000000000E+00 0.  1.
        -11    1    4    4    0    0 -0.26928518597E-01 -0.56776805737E-01  0.22007270125E-02  0.62879687531E-01  0.51100000000E-03 0.  1.
         11    1    4    4    0    0 -0.22900914496E-01 -0.60256708317E-01  0.21389837788E-01  0.67919872376E-01  0.51100000000E-03 0. -1.
</event>
<event>
 8    1  0.1070112E+005  0.1043930E+01  0.7957747E-01            NaN
         13   -1    0    0    0    0  0.00000000000E+00  0.00000000000E+00  0.74505805969E-08  0.10566000000E+00  0.10566000000E+00 0.  1.
     999900   -1    0    0    0    0 -0.00000000000E+00 -0.00000000000E+00 -0.74505805969E-08  0.93827000000E+00  0.93827000000E+00 0.  1.
     999902    2    1    2    0    0 -0.14510859392E-01  0.19127610818E-01  0.18708987121E-02  0.10198482476E+01  0.10195638859E+01 0.  0.
     999903    2    3    3    0    0 -0.33760314006E-02  0.12624144565E+00  0.35156333538E-01  0.13265870858E+00  0.20348586843E-01 0.  0.
         14    1    1    2    0    0  0.14510859392E-01 -0.19127610818E-01 -0.18708987121E-02  0.24081752384E-01  0.00000000000E+00 0. -1.
     999901    1    3    3    0    0 -0.11134827991E-01 -0.10711383483E+00 -0.33285434826E-01  0.88718953904E+00  0.88000000000E+00 0.  1.
        -11    1    4    4    0    0 -0.42726255023E-02  0.81877572587E-01  0.12848331622E-01  0.82991161987E-01  0.51100000000E-03 0. -1.
         11    1    4    4    0    0  0.89659410171E-03  0.44363873061E-01  0.22308001916E-01  0.49667546592E-01  0.51100000000E-03 0.  1.
</event>
<event>
 8    1  0.1070112E+005  0.1043930E+01  0.7957747E-01            NaN
         13   -1    0    0    0    0  0.00000000000E+00  0.00000000000E+00  0.74505805969E-08  0.10566000000E+00  0.10566000000E+00 0. -1.
     999900   -1    0    0    0    0 -0.00000000000E+00 -0.00000000000E+00 -0.74505805969E-08  0.93827000000E+00  0.93827000000E+00 0.  1.
     999902    2    1    2    0    0 -0.50031963173E-02 -0.22360512303E-01 -0.77735924378E-02  0.10197338593E+01  0.10194467571E+01 0.  0.
     999903    2    3    3    0    0 -0.75029037532E-01  0.63131991480E-01  0.80236002134E-01  0.12846606827E+00  0.21229927891E-01 0.  0.
         14    1    1    2    0    0  0.50031963173E-02  0.22360512303E-01  0.77735924378E-02  0.24196140668E-01  0.00000000000E+00 0.  1.
     999901    1    3    3    0    0  0.70025841214E-01 -0.85492503783E-01 -0.88009594572E-01  0.89126779106E+00  0.88000000000E+00 0.  1.
        -11    1    4    4    0    0 -0.13774839621E-01  0.23201171512E-01  0.25477977990E-01  0.37113731281E-01  0.51100000000E-03 0. -1.
         11    1    4    4    0    0 -0.61254197911E-01  0.39930819967E-01  0.54758024143E-01  0.91352336993E-01  0.51100000000E-03 0.  1.
</event>
<event>
 8    1  0.1070112E+005  0.1043930E+01  0.7957747E-01            NaN
         13   -1    0    0    0    0  0.00000000000E+00  0.00000000000E+00  0.74505805969E-08  0.10566000000E+00  0.10566000000E+00 0.  1.
     999900   -1    0    0    0    0 -0.00000000000E+00 -0.00000000000E+00 -0.74505805969E-08  0.93827000000E+00  0.93827000000E+00 0. -1.
     999902    2    1    2    0    0  0.12049148230E-01  0.19800156560E-01 -0.58509068287E-02  0.10200247436E+01  0.10197445838E+01 0.  0.
     999903    2    3    3    0    0  0.15975750769E-01  0.12562982987E+00 -0.35865591517E-01  0.13316724701E+00  0.20226128045E-01 0.  0.
         14    1    1    2    0    0 -0.12049148230E-01 -0.19800156560E-01  0.58509068287E-02  0.23905256401E-01  0.00000000000E+00 0.  1.
     999901    1    3    3    0    0 -0.39266025386E-02 -0.10582967331E+00  0.30014684688E-01  0.88685749659E+00  0.88000000000E+00 0.  1.
        -11    1    4    4    0    0  0.11916225660E-01  0.32948299301E-01 -0.14775211184E-01  0.38028342685E-01  0.51100000000E-03 0.  1.
         11    1    4    4    0    0  0.40595251081E-02  0.92681530568E-01 -0.21090380333E-01  0.95138904324E-01  0.51100000000E-03 0. -1.
</event>
<event>
 8    1  0.1070112E+005  0.1043930E+01  0.7957747E-01            NaN
         13   -1    0    0    0    0  0.00000000000E+00  0.00000000000E+00  0.74505805969E-08  0.10566000000E+00  0.10566000000E+00 0. -1.
     999900   -1    0    0    0    0 -0.00000000000E+00 -0.00000000000E+00 -0.74505805969E-08  0.93827000000E+00  0.93827000000E+00 0.  1.
     999902    2    1    2    0    0 -0.15762531191E-01  0.16585317939E-01  0.13008908903E-01  0.10176096301E+01  0.10172691863E+01 0.  0.
     999903    2    3    3    0    0  0.10178671588E+00  0.82872650386E-02 -0.71308864537E-01  0.12575977161E+00  0.17359484527E-01 0.  0.
         14    1    1    2    0    0  0.15762531191E-01 -0.16585317939E-01 -0.13008908903E-01  0.26320369898E-01  0.00000000000E+00 0.  1.
     999901    1    3    3    0    0 -0.11754924707E+00  0.82980529007E-02  0.84317773441E-01  0.89184985849E+00  0.88000000000E+00 0.  1.
        -11    1    4    4    0    0  0.97068079248E-01  0.87746679614E-02 -0.62622263152E-01  0.11584910777E+00  0.51100000000E-03 0.  1.
         11    1    4    4    0    0  0.47186366322E-02 -0.48740292280E-03 -0.86866013850E-02  0.99106638475E-02  0.51100000000E-03 0. -1.
</event>
<event>
 8    1  0.1070112E+005  0.1043930E+01  0.7957747E-01            NaN
         13   -1    0    0    0    0  0.00000000000E+00  0.00000000000E+00  0.74505805969E-08  0.10566000000E+00  0.10566000000E+00 0.  1.
     999900   -1    0    0    0    0 -0.00000000000E+00 -0.00000000000E+00 -0.74505805969E-08  0.93827000000E+00  0.93827000000E+00 0.  1.
     999902    2    1    2    0    0 -0.97830436030E-02 -0.13571559847E-01  0.14021574892E-01  0.10221011260E+01  0.10218680012E+01 0.  0.
     999903    2    3    3    0    0 -0.16500409740E-02 -0.16983892549E-01 -0.12801191348E+00  0.13066896278E+00  0.19903582600E-01 0.  0.
         14    1    1    2    0    0  0.97830436030E-02  0.13571559847E-01 -0.14021574892E-01  0.21828874027E-01  0.00000000000E+00 0. -1.
     999901    1    3    3    0    0 -0.81330026290E-02  0.34123327016E-02  0.14203348838E+00  0.89143216319E+00  0.88000000000E+00 0. -1.
        -11    1    4    4    0    0 -0.10715114361E-01 -0.77434964394E-02 -0.61440713243E-01  0.62849007770E-01  0.51100000000E-03 0. -1.
         11    1    4    4    0    0  0.90650733872E-02 -0.92403961097E-02 -0.66571200241E-01  0.67819955015E-01  0.51100000000E-03 0.  1.
</event>
<event>
 8    1  0.1070112E+005  0.1043930E+01  0.7957747E-01            NaN
         13   -1    0    0    0    0  0.00000000000E+00  0.00000000000E+00  0.74505805969E-08  0.10566000000E+00  0.10566000000E+00 0.  1.
     999900   -1    0    0    0    0 -0.00000000000E+00 -0.00000000000E+00 -0.74505805969E-08  0.93827000000E+00  0.93827000000E+00 0.  1.
     999902    2    1    2    0    0  0.12149332087E-01 -0.16816377336E-01 -0.11137291543E-01  0.10203835336E+01  0.10201118172E+01 0.  0.
     999903    2    3    3    0    0 -0.31760189771E-01  0.12250987015E+00  0.52358465441E-02  0.12819076912E+00  0.19699778131E-01 0.  0.
         14    1    1    2    0    0 -0.12149332087E-01  0.16816377336E-01  0.11137291543E-01  0.23546466397E-01  0.00000000000E+00 0.  1.
     999901    1    3    3    0    0  0.43909521858E-01 -0.13932624749E+00 -0.16373138087E-01  0.89219276449E+00  0.88000000000E+00 0. -1.
        -11    1    4    4    0    0 -0.20315578313E-01  0.46124082397E-01 -0.31261402422E-02  0.50499381907E-01  0.51100000000E-03 0.  1.
         11    1    4    4    0    0 -0.11444611458E-01  0.76385787757E-01  0.83619867863E-02  0.77691387211E-01  0.51100000000E-03 0. -1.
</event>
<event>
 8    1  0.1070112E+005  0.1043930E+01  0.7957747E-01            NaN
         13   -1    0    0    0    0  0.00000000000E+00  0.00000000000E+00  0.74505805969E-08  0.10566000000E+00  0.10566000000E+00 0. -1.
     999900   -1    0    0    0    0 -0.00000000000E+00 -0.00000000000E+00 -0.74505805969E-08  0.93827000000E+00  0.93827000000E+00 0.  1.
     999902    2    1    2    0    0  0.15937362698E-01 -0.15611302859E-01  0.74870749642E-02  0.10203977116E+01  0.10201263261E+01 0.  0.
     999903    2    3    3    0    0  0.33454735981E-01  0.42338635878E-01  0.11812396046E+00  0.13140638755E+00  0.20064625774E-01 0.  0.
         14    1    1    2    0    0 -0.15937362698E-01  0.15611302859E-01 -0.74870749642E-02  0.23532288419E-01  0.00000000000E+00 0.  1.
     999901    1    3    3    0    0 -0.17517373283E-01 -0.57949938737E-01 -0.11063688549E+00  0.88899132403E+00  0.88000000000E+00 0.  1.
        -11    1    4    4    0    0  0.13546533232E-01  0.21415533860E-01  0.33630452724E-01  0.42111781303E-01  0.51100000000E-03 0.  1.
         11    1    4    4    0    0  0.19908202749E-01  0.20923102018E-01  0.84493507735E-01  0.89294606249E-01  0.51100000000E-03 0. -1.
</event>
<event>
 8    1  0.1070112E+005  0.1043930E+01  0.7957747E-01            NaN
         13   -1    0    0    0    0  0.00000000000E+00  0.00000000000E+00  0.74505805969E-08  0.10566000000E+00  0.10566000000E+00 0.  1.
     999900   -1    0    0    0    0 -0.00000000000E+00 -0.00000000000E+00 -0.74505805969E-08  0.93827000000E+00  0.93827000000E+00 0. -1.
     999902    2    1    2    0    0  0.63370471440E-04 -0.14263521553E-02  0.25514870997E-01  0.10183752130E+01  0.10180545306E+01 0.  0.
     999903    2    3    3    0    0 -0.11971171225E+00  0.33504409111E-01  0.31033206648E-01  0.12955763861E+00  0.19201102292E-01 0.  0.
         14    1    1    2    0    0 -0.63370471440E-04  0.14263521553E-02 -0.25514870997E-01  0.25554786994E-01  0.00000000000E+00 0. -1.
     999901    1    3    3    0    0  0.11977508272E+00 -0.34930761267E-01 -0.55183356508E-02  0.88881757439E+00  0.88000000000E+00 0. -1.
        -11    1    4    4    0    0 -0.75041578381E-01  0.11555112022E-01  0.21059543005E-01  0.78794191235E-01  0.51100000000E-03 0. -1.
         11    1    4    4    0    0 -0.44670133865E-01  0.21949297089E-01  0.99736636430E-02  0.50763447378E-01  0.51100000000E-03 0.  1.
</event>
<event>
 8    1  0.1070112E+005  0.1043930E+01  0.7957747E-01            NaN
         13   -1    0    0    0    0  0.00000000000E+00  0.00000000000E+00  0.74505805969E-08  0.10566000000E+00  0.10566000000E+00 0. -1.
     999900   -1    0    0    0    0 -0.00000000000E+00 -0.00000000000E+00 -0.74505805969E-08  0.93827000000E+00  0.93827000000E+00 0.  1.
     999902    2    1    2    0    0 -0.16987696679E-01  0.82060150195E-02 -0.14163448961E-01  0.10203392432E+01  0.10200664916E+01 0.  0.
     999903    2    3    3    0    0  0.12159268624E+00  0.25833548466E-01  0.24255009613E-01  0.12849215403E+00  0.21674283883E-01 0.  0.
         14    1    1    2    0    0  0.16987696679E-01 -0.82060150195E-02  0.14163448961E-01  0.23590756821E-01  0.00000000000E+00 0.  1.
     999901    1    3    3    0    0 -0.13858038292E+00 -0.17627533447E-01 -0.38418458573E-01  0.89184708915E+00  0.88000000000E+00 0.  1.
        -11    1    4    4    0    0  0.39731981065E-01  0.45605050685E-02 -0.16581139985E-02  0.40030475751E-01  0.51100000000E-03 0. -1.
         11    1    4    4    0    0  0.81860705177E-01  0.21273043398E-01  0.25913123611E-01  0.88461678278E-01  0.51100000000E-03 0.  1.
</event>
<event>
 8    1  0.1070112E+005  0.1043930E+01  0.7957747E-01            NaN
         13   -1    0    0    0    0  0.00000000000E+00  0.00000000000E+00  0.74505805969E-08  0.10566000000E+00  0.10566000000E+00 0.  1.
     999900   -1    0    0    0    0 -0.00000000000E+00 -0.00000000000E+00 -0.74505805969E-08  0.93827000000E+00  0.93827000000E+00 0.  1.
     999902    2    1    2    0    0 -0.23361324889E-01 -0.10309146576E-02  0.57175534135E-03  0.10205389506E+01  0.10202708506E+01 0.  0.
     999903    2    3    3    0    0 -0.57507002146E-02 -0.12901632572E+00 -0.75410200129E-02  0.13106932403E+00  0.21071731429E-01 0.  0.
         14    1    1    2    0    0  0.23361324889E-01  0.10309146576E-02 -0.57175534135E-03  0.23391049352E-01  0.00000000000E+00 0. -1.
     999901    1    3    3    0    0 -0.17610624674E-01  0.12798541106E+00  0.81127753543E-02  0.88946962661E+00  0.88000000000E+00 0. -1.
        -11    1    4    4    0    0 -0.12683462975E-02 -0.76791640365E-01  0.56642972368E-02  0.77012402355E-01  0.51100000000E-03 0.  1.
         11    1    4    4    0    0 -0.44823539171E-02 -0.52224685352E-01 -0.13205317250E-01  0.54056921679E-01  0.51100000000E-03 0. -1.
</event>
<event>
 8    1  0.1070112E+005  0.1043930E+01  0.7957747E-01            NaN
         13   -1    0    0    0    0  0.00000000000E+00  0.00000000000E+00  0.74505805969E-08  0.10566000000E+00  0.10566000000E+00 0. -1.
     999900   -1    0    0    0    0 -0.00000000000E+00 -0.00000000000E+00 -0.74505805969E-08  0.93827000000E+00  0.93827000000E+00 0. -1.
     999902    2    1    2    0    0  0.19956929271E-01 -0.18395403974E-01 -0.86983665520E-02  0.10154285703E+01  0.10150284971E+01 0.  0.
     999903    2    3    3    0    0  0.10259821856E+00 -0.75740506799E-01  0.94348676489E-02  0.12951274040E+00  0.20530815287E-01 0.  0.
         14    1    1    2    0    0 -0.19956929271E-01  0.18395403974E-01  0.86983665520E-02  0.28501429683E-01  0.00000000000E+00 0. -1.
     999901    1    3    3    0    0 -0.82641289290E-01  0.57345102824E-01 -0.18133234201E-01  0.88591582992E+00  0.88000000000E+00 0.  1.
        -11    1    4    4    0    0  0.98883976572E-01 -0.76725841787E-01  0.10147609734E-01  0.12557121774E+00  0.51100000000E-03 0.  1.
         11    1    4    4    0    0  0.37142419901E-02  0.98533498804E-03 -0.71274208524E-03  0.39415226601E-02  0.51100000000E-03 0. -1.
</event>
<event>
 8    1  0.1070112E+005  0.1043930E+01  0.7957747E-01            NaN
         13   -1    0    0    0    0  0.00000000000E+00  0.00000000000E+00  0.74505805969E-08  0.10566000000E+00  0.10566000000E+00 0.  1.
     999900   -1    0    0    0    0 -0.00000000000E+00 -0.00000000000E+00 -0.74505805969E-08  0.93827000000E+00  0.93827000000E+00 0.  1.
     999902    2    1    2    0    0  0.90299062911E-02  0.22720092210E-01  0.53244857765E-03  0.10194754442E+01  0.10191821015E+01 0.  0.
     999903    2    3    3    0    0 -0.23032913206E-01 -0.11690978813E+00  0.39466603350E-01  0.12704035061E+00  0.19576114300E-01 0.  0.
         14    1    1    2    0    0 -0.90299062911E-02 -0.22720092210E-01 -0.53244857765E-03  0.24454555796E-01  0.00000000000E+00 0. -1.
     999901    1    3    3    0    0  0.32062819498E-01  0.13962988034E+00 -0.38934154773E-01  0.89243509360E+00  0.88000000000E+00 0. -1.
        -11    1    4    4    0    0 -0.17178541881E-01 -0.62083631205E-01  0.12343838927E-01  0.65590479836E-01  0.51100000000E-03 0. -1.
         11    1    4    4    0    0 -0.58543713253E-02 -0.54826156924E-01  0.27122764423E-01  0.61449870770E-01  0.51100000000E-03 0.  1.
</event>
<event>
 8    1  0.1070112E+005  0.1043930E+01  0.7957747E-01            NaN
         13   -1    0    0    0    0  0.00000000000E+00  0.00000000000E+00  0.74505805969E-08  0.10566000000E+00  0.10566000000E+00 0.  1.
     999900   -1    0    0    0    0 -0.00000000000E+00 -0.00000000000E+00 -0.74505805969E-08  0.93827000000E+00  0.93827000000E+00 0.  1.
     999902    2    1    2    0    0 -0.13383609842E-01  0.93495876942E-02 -0.33769786728E-02  0.10272584738E+01  0.10271231825E+01 0.  0.
     999903    2    3    3    0    0  0.74667335652E-01 -0.10474368037E+00 -0.35735906411E-01  0.13494835780E+00  0.19686408412E-01 0.  0.
         14    1    1    2    0    0  0.13383609842E-01 -0.93495876942E-02  0.33769786728E-02  0.16671526247E-01  0.00000000000E+00 0.  1.
     999901    1    3    3    0    0 -0.88050945495E-01  0.11409326806E+00  0.32358927738E-01  0.89231011595E+00  0.88000000000E+00 0. -1.
        -11    1    4    4    0    0  0.31494304653E-01 -0.60329161674E-01 -0.15676272161E-01  0.69839140915E-01  0.51100000000E-03 0. -1.
         11    1    4    4    0    0  0.43173031000E-01 -0.44414518696E-01 -0.20059634250E-01  0.65109216889E-01  0.51100000000E-03 0.  1.
</event>
<event>
 8    1  0.1175360E+005  0.1043930E+01  0.7957747E-01            NaN
         13   -1    0    0    0    0  0.00000000000E+00  0.00000000000E+00  0.74505805969E-08  0.10566000000E+00  0.10566000000E+00 0.  1.
     999900   -1    0    0    0    0 -0.00000000000E+00 -0.00000000000E+00 -0.74505805969E-08  0.93827000000E+00  0.93827000000E+00 0. -1.
     999902    2    1    2    0    0 -0.22230982509E-01 -0.12244052318E-03  0.79051615292E-02  0.10203350185E+01  0.10200621681E+01 0.  0.
     999903    2    3    3    0    0 -0.12205845008E+00 -0.49664240233E-01 -0.55313205310E-03  0.13326599300E+00  0.19867484552E-01 0.  0.
         14    1    1    2    0    0  0.22230982509E-01  0.12244052318E-03 -0.79051615292E-02  0.23594981539E-01  0.00000000000E+00 0. -1.
     999901    1    3    3    0    0  0.99827467568E-01  0.49541799710E-01  0.84582935823E-02  0.88706902546E+00  0.88000000000E+00 0.  1.
        -11    1    4    4    0    0 -0.43042173564E-01 -0.27812969136E-01 -0.16408701257E-02  0.51275174627E-01  0.51100000000E-03 0. -1.
         11    1    4    4    0    0 -0.79016276514E-01 -0.21851271097E-01  0.10877380726E-02  0.81990818375E-01  0.51100000000E-03 0.  1.
</event>
<event>
 8    1  0.1070112E+005  0.1043930E+01  0.7957747E-01            NaN
         13   -1    0    0    0    0  0.00000000000E+00  0.00000000000E+00  0.74505805969E-08  0.10566000000E+00  0.10566000000E+00 0. -1.
     999900   -1    0    0    0    0 -0.00000000000E+00 -0.00000000000E+00 -0.74505805969E-08  0.93827000000E+00  0.93827000000E+00 0.  1.
     999902    2    1    2    0    0 -0.87916619654E-02  0.19377868320E-01  0.10099579044E-01  0.10203758794E+01  0.10201039842E+01 0.  0.
     999903    2    3    3    0    0 -0.10951827649E+00  0.39595995134E-01  0.61121971136E-01  0.13293128505E+00  0.19306358421E-01 0.  0.
         14    1    1    2    0    0  0.87916619654E-02 -0.19377868320E-01 -0.10099579044E-01  0.23554120607E-01  0.00000000000E+00 0. -1.
     999901    1    3    3    0    0  0.10072661452E+00 -0.20218126814E-01 -0.51022392092E-01  0.88744459434E+00  0.88000000000E+00 0.  1.
        -11    1    4    4    0    0 -0.73760693666E-01  0.35967383899E-01  0.40971585150E-01  0.91723631335E-01  0.51100000000E-03 0. -1.
         11    1    4    4    0    0 -0.35757582821E-01  0.36286112346E-02  0.20150385985E-01  0.41207653719E-01  0.51100000000E-03 0.  1.
</event>
<event>
 8    1  0.1070112E+005  0.1043930E+01  0.7957747E-01            NaN
         13   -1    0    0    0    0  0.00000000000E+00  0.00000000000E+00  0.74505805969E-08  0.10566000000E+00  0.10566000000E+00 0.  1.
     999900   -1    0    0    0    0 -0.00000000000E+00 -0.00000000000E+00 -0.74505805969E-08  0.93827000000E+00  0.93827000000E+00 0.  1.
     999902    2    1    2    0    0 -0.19276414538E-02  0.17175438188E-01 -0.16158698356E-01  0.10202695898E+01  0.10199952063E+01 0.  0.
     999903    2    3    3    0    0 -0.95569729182E-01 -0.84327938153E-01  0.72749951342E-02  0.12919107811E+00  0.19815014980E-01 0.  0.
         14    1    1    2    0    0  0.19276414538E-02 -0.17175438188E-01  0.16158698356E-01  0.23660410206E-01  0.00000000000E+00 0.  1.
     999901    1    3    3    0    0  0.93642087729E-01  0.10150337634E+00 -0.23433693491E-01  0.89107851169E+00  0.88000000000E+00 0.  1.
        -11    1    4    4    0    0 -0.19340658507E-01 -0.21861147060E-01  0.92255268784E-02  0.30616046274E-01  0.51100000000E-03 0. -1.
         11    1    4    4    0    0 -0.76229070675E-01 -0.62466791093E-01 -0.19505317441E-02  0.98575031831E-01  0.51100000000E-03 0.  1.
</event>
<event>
 8    1  0.1070112E+005  0.1043930E+01  0.7957747E-01            NaN
         13   -1    0    0    0    0  0.00000000000E+00  0.00000000000E+00  0.74505805969E-08  0.10566000000E+00  0.10566000000E+00 0. -1.
     999900   -1    0    0    0    0 -0.00000000000E+00 -0.00000000000E+00 -0.74505805969E-08  0.93827000000E+00  0.93827000000E+00 0.  1.
     999902    2    1    2    0    0  0.38836694624E-03 -0.36303285830E-02  0.22284913825E-01  0.10213479828E+01  0.10210983080E+01 0.  0.
     999903    2    3    3    0    0  0.81431235025E-01 -0.58489927478E-01  0.86062043069E-01  0.13362897084E+00  0.19947654935E-01 0.  0.
         14    1    1    2    0    0 -0.38836694624E-03  0.36303285830E-02 -0.22284913825E-01  0.22582017153E-01  0.00000000000E+00 0.  1.
     999901    1    3    3    0    0 -0.81042868079E-01  0.54859598895E-01 -0.63777129244E-01  0.88771901200E+00  0.88000000000E+00 0.  1.
        -11    1    4    4    0    0  0.25252839392E-01 -0.15598185434E-01  0.14474336512E-01  0.33026910613E-01  0.51100000000E-03 0. -1.
         11    1    4    4    0    0  0.56178395633E-01 -0.42891742043E-01  0.71587706557E-01  0.10060206023E+00  0.51100000000E-03 0.  1.
</event>
<event>
 8    1  0.1070112E+005  0.1043930E+01  0.7957747E-01            NaN
         13   -1    0    0    0    0  0.00000000000E+00  0.00000000000E+00  0.74505805969E-08  0.10566000000E+00  0.10566000000E+00 0.  1.
     999900   -1    0    0    0    0 -0.00000000000E+00 -0.00000000000E+00 -0.74505805969E-08  0.93827000000E+00  0.93827000000E+00 0. -1.
     999902    2    1    2    0    0 -0.17100632222E-01  0.67297480366E-02  0.14858074728E-01  0.10202977442E+01  0.10200240209E+01 0.  0.
     999903    2    3    3    0    0  0.20943030312E-01  0.12495026005E+00 -0.24524449843E-01  0.13070548197E+00  0.20767676148E-01 0.  0.
         14    1    1    2    0    0  0.17100632222E-01 -0.67297480366E-02 -0.14858074728E-01  0.23632255831E-01  0.00000000000E+00 0. -1.
     999901    1    3    3    0    0 -0.38043662534E-01 -0.11822051201E+00  0.39382524570E-01  0.88959226220E+00  0.88000000000E+00 0.  1.
        -11    1    4    4    0    0  0.88056826847E-02  0.60415337703E-01 -0.22295675854E-01  0.64999318151E-01  0.51100000000E-03 0.  1.
         11    1    4    4    0    0  0.12137347627E-01  0.64534922346E-01 -0.22287739888E-02  0.65706163822E-01  0.51100000000E-03 0. -1.
</event>
<event>
 8    1  0.1070112E+005  0.1043930E+01  0.7957747E-01            NaN
         13   -1    0    0    0    0  0.00000000000E+00  0.00000000000E+00  0.74505805969E-08  0.10566000000E+00  0.10566000000E+00 0. -1.
     999900   -1    0    0    0    0 -0.00000000000E+00 -0.00000000000E+00 -0.74505805969E-08  0.93827000000E+00  0.93827000000E+00 0. -1.
     999902    2    1    2    0    0  0.57503245900E-02  0.17653883419E-01 -0.14178412677E-01  0.10205686383E+01  0.10203012263E+01 0.  0.
     999903    2    3    3    0    0 -0.37896847977E-01  0.91861342596E-01  0.83121280829E-01  0.13102996407E+00  0.19622099950E-01 0.  0.
         14    1    1    2    0    0 -0.57503245900E-02 -0.17653883419E-01  0.14178412677E-01  0.23361361661E-01  0.00000000000E+00 0. -1.
     999901    1    3    3    0    0  0.43647172567E-01 -0.74207459177E-01 -0.97299693506E-01  0.88953867427E+00  0.88000000000E+00 0. -1.
        -11    1    4    4    0    0 -0.14213807813E-03  0.15424768343E-01  0.18251776532E-01  0.23902555287E-01  0.51100000000E-03 0.  1.
         11    1    4    4    0    0 -0.37754709899E-01  0.76436574252E-01  0.64869504297E-01  0.10712740878E+00  0.51100000000E-03 0. -1.
</event>
<event>
 8    1  0.1070112E+005  0.1043930E+01  0.7957747E-01            NaN
         13   -1    0    0    0    0  0.00000000000E+00  0.00000000000E+00  0.74505805969E-08  0.10566000000E+00  0.10566000000E+00 0. -1.
     999900   -1    0    0    0    0 -0.00000000000E+00 -0.00000000000E+00 -0.74505805969E-08  0.93827000000E+00  0.93827000000E+00 0.  1.
     999902    2    1    2    0    0 -0.76238206657E-02 -0.69131273760E-02  0.20429533185E-01  0.10210546902E+01  0.10207984133E+01 0.  0.
     999903    2    3    3    0    0  0.11316764796E+00 -0.11527791058E-01  0.63704000380E-01  0.13173778746E+00  0.18890168546E-01 0.  0.
         14    1    1    2    0    0  0.76238206657E-02  0.69131273760E-02 -0.20429533185E-01  0.22875309786E-01  0.00000000000E+00 0.  1.
     999901    1    3    3    0    0 -0.12079146863E+00  0.46146636821E-02 -0.43274467195E-01  0.88931690275E+00  0.88000000000E+00 0.  1.
        -11    1    4    4    0    0  0.48125092993E-01  0.27501212427E-02  0.32913962288E-01  0.58371035428E-01  0.51100000000E-03 0.  1.
         11    1    4    4    0    0  0.65042554971E-01 -0.14277912301E-01  0.30790038092E-01  0.73366752031E-01  0.51100000000E-03 0. -1.
</event>
<event>
 8    1  0.1070112E+005  0.1043930E+01  0.7957747E-01            NaN
         13   -1    0    0    0    0  0.00000000000E+00  0.00000000000E+00  0.74505805969E-08  0.10566000000E+00  0.10566000000E+00 0.  1.
     999900   -1    0    0    0    0 -0.00000000000E+00 -0.00000000000E+00 -0.74505805969E-08  0.93827000000E+00  0.93827000000E+00 0.  1.
     999902    2    1    2    0    0 -0.25632373312E-01 -0.19911072259E-03 -0.37863186046E-02  0.10180187203E+01  0.10176889114E+01 0.  0.
     999903    2    3    3    0    0  0.55911286298E-01 -0.50609832975E-01  0.99805791607E-01  0.12677131659E+00  0.20550998562E-01 0.  0.
         14    1    1    2    0    0  0.25632373312E-01  0.19911072259E-03  0.37863186046E-02  0.25911279691E-01  0.00000000000E+00 0.  1.
     999901    1    3    3    0    0 -0.81543659610E-01  0.50410722253E-01 -0.10359211021E+00  0.89124740372E+00  0.88000000000E+00 0.  1.
        -11    1    4    4    0    0  0.40539748908E-01 -0.26465961098E-01  0.72708234766E-01  0.87353688314E-01  0.51100000000E-03 0.  1.
         11    1    4    4    0    0  0.15371537390E-01 -0.24143871878E-01  0.27097556841E-01  0.39417628274E-01  0.51100000000E-03 0. -1.
</event>
<event>
 8    1  0.1070112E+005  0.1043930E+01  0.7957747E-01            NaN
         13   -1    0    0    0    0  0.00000000000E+00  0.00000000000E+00  0.74505805969E-08  0.10566000000E+00  0.10566000000E+00 0.  1.
     999900   -1    0    0    0    0 -0.00000000000E+00 -0.00000000000E+00 -0.74505805969E-08  0.93827000000E+00  0.93827000000E+00 0. -1.
     999902    2    1    2    0    0 -0.28035460132E-02  0.19064769277E-01 -0.14219346861E-01  0.10199818242E+01  0.10197006456E+01 0.  0.
     999903    2    3    3    0    0  0.11694055053E+00  0.32347713613E-01 -0.45753910389E-01  0.13121328632E+00  0.20050916610E-01 0.  0.
         14    1    1    2    0    0  0.28035460132E-02 -0.19064769277E-01  0.14219346861E-01  0.23948175775E-01  0.00000000000E+00 0.  1.
     999901    1    3    3    0    0 -0.11974409655E+00 -0.13282944336E-01  0.31534563528E-01  0.88876853790E+00  0.88000000000E+00 0.  1.
        -11    1    4    4    0    0  0.86474336175E-01  0.14799853664E-01 -0.30480107468E-01  0.92877039992E-01  0.51100000000E-03 0.  1.
         11    1    4    4    0    0  0.30466214357E-01  0.17547859949E-01 -0.15273802920E-01  0.38336246330E-01  0.51100000000E-03 0. -1.
</event>
<event>
 8    1  0.1070112E+005  0.1043930E+01  0.7957747E-01            NaN
         13   -1    0    0    0    0  0.00000000000E+00  0.00000000000E+00  0.74505805969E-08  0.10566000000E+00  0.10566000000E+00 0. -1.
     999900   -1    0    0    0    0 -0.00000000000E+00 -0.00000000000E+00 -0.74505805969E-08  0.93827000000E+00  0.93827000000E+00 0. -1.
     999902    2    1    2    0    0  0.22553217577E-01  0.33515604995E-02  0.23623021406E-02  0.10210070627E+01  0.10207497054E+01 0.  0.
     999903    2    3    3    0    0 -0.97401187182E-01 -0.78749677850E-01 -0.23087174450E-01  0.12871935779E+00  0.18632026729E-01 0.  0.
         14    1    1    2    0    0 -0.22553217577E-01 -0.33515604995E-02 -0.23623021406E-02  0.22922937252E-01  0.00000000000E+00 0. -1.
     999901    1    3    3    0    0  0.11995440476E+00  0.82101238349E-01  0.25449476591E-01  0.89228770496E+00  0.88000000000E+00 0.  1.
        -11    1    4    4    0    0 -0.38393127762E-01 -0.29492219201E-01 -0.18108674883E-01  0.51691473956E-01  0.51100000000E-03 0. -1.
         11    1    4    4    0    0 -0.59008059420E-01 -0.49257458649E-01 -0.49784995669E-02  0.77027883834E-01  0.51100000000E-03 0.  1.
</event>
<event>
 8    1  0.1070112E+005  0.1043930E+01  0.7957747E-01            NaN
         13   -1    0    0    0    0  0.00000000000E+00  0.00000000000E+00  0.74505805969E-08  0.10566000000E+00  0.10566000000E+00 0.  1.
     999900   -1    0    0    0    0 -0.00000000000E+00 -0.00000000000E+00 -0.74505805969E-08  0.93827000000E+00  0.93827000000E+00 0.  1.
     999902    2    1    2    0    0  0.54208867256E-02 -0.14605358511E-01  0.17957012245E-01  0.10201569733E+01  0.10198799407E+01 0.  0.
     999903    2    3    3    0    0  0.54140444828E-01  0.11544677879E+00 -0.42598581686E-02  0.12898878317E+00  0.18995086034E-01 0.  0.
         14    1    1    2    0    0 -0.54208867256E-02  0.14605358511E-01 -0.17957012245E-01  0.23773026709E-01  0.00000000000E+00 0. -1.
     999901    1    3    3    0    0 -0.48719558102E-01 -0.13005213730E+00  0.22216870414E-01  0.89116819012E+00  0.88000000000E+00 0. -1.
        -11    1    4    4    0    0  0.48874164496E-01  0.10657546612E+00 -0.90606052577E-02  0.11759834022E+00  0.51100000000E-03 0.  1.
         11    1    4    4    0    0  0.52662803315E-02  0.88713126674E-02  0.48007470891E-02  0.11390442949E-01  0.51100000000E-03 0. -1.
</event>
<event>
 8    1  0.1070112E+005  0.1043930E+01  0.7957747E-01            NaN
         13   -1    0    0    0    0  0.00000000000E+00  0.00000000000E+00  0.74505805969E-08  0.10566000000E+00  0.10566000000E+00 0. -1.
     999900   -1    0    0    0    0 -0.00000000000E+00 -0.00000000000E+00 -0.74505805969E-08  0.93827000000E+00  0.93827000000E+00 0.  1.
     999902    2    1    2    0    0  0.27944640825E-02 -0.23292698145E-01 -0.62459286457E-02  0.10196530471E+01  0.10193640008E+01 0.  0.
     999903    2    3    3    0    0 -0.51322949191E-01  0.10426781725E-01 -0.11775978882E+00  0.13032687594E+00  0.19363982977E-01 0.  0.
         14    1    1    2    0    0 -0.27944640825E-02  0.23292698145E-01  0.62459286457E-02  0.24276952878E-01  0.00000000000E+00 0.  1.
     999901    1    3    3    0    0  0.54117413273E-01 -0.33719479871E-01  0.11151386018E+00  0.88932617118E+00  0.88000000000E+00 0. -1.
        -11    1    4    4    0    0 -0.27470964589E-01 -0.16178798929E-03 -0.78611854503E-01  0.83275235576E-01  0.51100000000E-03 0.  1.
         11    1    4    4    0    0 -0.23851984602E-01  0.10588569715E-01 -0.39147934321E-01  0.47051640361E-01  0.51100000000E-03 0. -1.
</event>
<event>
 8    1  0.1070112E+005  0.1043930E+01  0.7957747E-01            NaN
         13   -1    0    0    0    0  0.00000000000E+00  0.00000000000E+00  0.74505805969E-08  0.10566000000E+00  0.10566000000E+00 0. -1.
     999900   -1    0    0    0    0 -0.00000000000E+00 -0.00000000000E+00 -0.74505805969E-08  0.93827000000E+00  0.93827000000E+00 0. -1.
     999902    2    1    2    0    0  0.15529198739E-01 -0.15749733839E-01  0.78847952136E-02  0.10204485153E+01  0.10201783139E+01 0.  0.
     999903    2    3    3    0    0 -0.64004555820E-01 -0.86272486457E-01  0.73250296964E-01  0.13164497929E+00  0.20622063001E-01 0.  0.
         14    1    1    2    0    0 -0.15529198739E-01  0.15749733839E-01 -0.78847952136E-02  0.23481484728E-01  0.00000000000E+00 0.  1.
     999901    1    3    3    0    0  0.79533754559E-01  0.70522752618E-01 -0.65365501750E-01  0.88880353598E+00  0.88000000000E+00 0. -1.
        -11    1    4    4    0    0 -0.35858365685E-01 -0.55811234741E-01  0.34020875723E-01  0.74554660611E-01  0.51100000000E-03 0.  1.
         11    1    4    4    0    0 -0.28146190134E-01 -0.30461251716E-01  0.39229421241E-01  0.57090318681E-01  0.51100000000E-03 0. -1.
</event>
<event>
 8    1  0.1070112E+005  0.1043930E+01  0.7957747E-01            NaN
         13   -1    0    0    0    0  0.00000000000E+00  0.00000000000E+00  0.74505805969E-08  0.10566000000E+00  0.10566000000E+00 0.  1.
     999900   -1    0    0    0    0 -0.00000000000E+00 -0.00000000000E+00 -0.74505805969E-08  0.93827000000E+00  0.93827000000E+00 0.  1.
     999902    2    1    2    0    0  0.10778178507E-01 -0.96746633566E-02  0.18107136266E-01  0.10207430074E+01  0.10204796179E+01 0.  0.
     999903    2    3    3    0    0 -0.12056889770E+00  0.13866268669E-01  0.43304931039E-01  0.13032672340E+00  0.19509107683E-01 0.  0.
         14    1    1    2    0    0 -0.10778178507E-01  0.96746633566E-02 -0.18107136266E-01  0.23186992620E-01  0.00000000000E+00 0. -1.
     999901    1    3    3    0    0  0.13134707620E+00 -0.23540932026E-01 -0.25197794773E-01  0.89041628398E+00  0.88000000000E+00 0. -1.
        -11    1    4    4    0    0 -0.78518650783E-01  0.24715583026E-02  0.20693126445E-01  0.81238868310E-01  0.51100000000E-03 0.  1.
         11    1    4    4    0    0 -0.42050246913E-01  0.11394710366E-01  0.22611804594E-01  0.49087855095E-01  0.51100000000E-03 0. -1.
</event>
<event>
 8    1  0.1070112E+005  0.1043930E+01  0.7957747E-01            NaN
         13   -1    0    0    0    0  0.00000000000E+00  0.00000000000E+00  0.74505805969E-08  0.10566000000E+00  0.10566000000E+00 0. -1.
     999900   -1    0    0    0    0 -0.00000000000E+00 -0.00000000000E+00 -0.74505805969E-08  0.93827000000E+00  0.93827000000E+00 0. -1.
     999902    2    1    2    0    0 -0.18270952813E-01  0.13889195762E-01  0.34765759306E-02  0.10207174160E+01  0.10204534381E+01 0.  0.
     999903    2    3    3    0    0  0.10313016329E+00 -0.57374690783E-01  0.46729292172E-01  0.12848002048E+00  0.19894803161E-01 0.  0.
         14    1    1    2    0    0  0.18270952813E-01 -0.13889195762E-01 -0.34765759306E-02  0.23212583997E-01  0.00000000000E+00 0. -1.
     999901    1    3    3    0    0 -0.12140111610E+00  0.71263886546E-01 -0.43252716241E-01  0.89223739553E+00  0.88000000000E+00 0. -1.
        -11    1    4    4    0    0  0.21114033476E-01 -0.32769695263E-02  0.98658563612E-02  0.23540118556E-01  0.51100000000E-03 0. -1.
         11    1    4    4    0    0  0.82016129809E-01 -0.54097721257E-01  0.36863435811E-01  0.10493990192E+00  0.51100000000E-03 0.  1.
</event>
<event>
 8    1  0.1070112E+005  0.1043930E+01  0.7957747E-01            NaN
         13   -1    0    0    0    0  0.00000000000E+00  0.00000000000E+00  0.74505805969E-08  0.10566000000E+00  0.10566000000E+00 0. -1.
     999900   -1    0    0    0    0 -0.00000000000E+00 -0.00000000000E+00 -0.74505805969E-08  0.93827000000E+00  0.93827000000E+00 0. -1.
     999902    2    1    2    0    0 -0.12658475557E-01 -0.11451153022E-01 -0.16335871385E-01  0.10203031804E+01  0.10200295846E+01 0.  0.
     999903    2    3    3    0    0 -0.31954657523E-02 -0.20239320261E-01 -0.12958903757E+00  0.13295146883E+00  0.21515885287E-01 0.  0.
         14    1    1    2    0    0  0.12658475557E-01  0.11451153022E-01  0.16335871385E-01  0.23626819567E-01  0.00000000000E+00 0. -1.
     999901    1    3    3    0    0 -0.94630098043E-02  0.87881672390E-02  0.11325316618E+00  0.88735171161E+00  0.88000000000E+00 0.  1.
        -11    1    4    4    0    0  0.21061182626E-02  0.38290331332E-02 -0.31818407453E-01  0.32121167518E-01  0.51100000000E-03 0.  1.
         11    1    4    4    0    0 -0.53015840149E-02 -0.24068353394E-01 -0.97770630115E-01  0.10083030131E+00  0.51100000000E-03 0. -1.
</event>
<event>
 8    1  0.1070112E+005  0.1043930E+01  0.7957747E-01            NaN
         13   -1    0    0    0    0  0.00000000000E+00  0.00000000000E+00  0.74505805969E-08  0.10566000000E+00  0.10566000000E+00 0.  1.
     999900   -1    0    0    0    0 -0.00000000000E+00 -0.00000000000E+00 -0.74505805969E-08  0.93827000000E+00  0.93827000000E+00 0.  1.
     999902    2    1    2    0    0 -0.18272159971E-01  0.14732881750E-01  0.91873999225E-02  0.10187240889E+01  0.10184122110E+01 0.  0.
     999903    2    3    3    0    0  0.10853283190E+00  0.64763856957E-01 -0.60326873194E-02  0.12809832270E+00  0.19976340890E-01 0.  0.
         14    1    1    2    0    0  0.18272159971E-01 -0.14732881750E-01 -0.91873999225E-02  0.25205911053E-01  0.00000000000E+00 0. -1.
     999901    1    3    3    0    0 -0.12680499187E+00 -0.50030975207E-01  0.15220087242E-01  0.89062576624E+00  0.88000000000E+00 0. -1.
        -11    1    4    4    0    0  0.43430378996E-01  0.36690616459E-01 -0.62482988027E-02  0.57198789453E-01  0.51100000000E-03 0. -1.
         11    1    4    4    0    0  0.65102452901E-01  0.28073240498E-01  0.21561148323E-03  0.70899533250E-01  0.51100000000E-03 0.  1.
</event>
<event>
 8    1  0.1070112E+005  0.1043930E+01  0.7957747E-01            NaN
         13   -1    0    0    0    0  0.00000000000E+00  0.00000000000E+00  0.74505805969E-08  0.10566000000E+00  0.10566000000E+00 0.  1.
     999900   -1    0    0    0    0 -0.00000000000E+00 -0.00000000000E+00 -0.74505805969E-08  0.93827000000E+00  0.93827000000E+00 0.  1.
     999902    2    1    2    0    0 -0.10311954855E-01 -0.71071783527E-02  0.20266583399E-01  0.10201060037E+01  0.10198277678E+01 0.  0.
     999903    2    3    3    0    0 -0.12872208614E+00 -0.57601357285E-03  0.22115600509E-01  0.13214934137E+00  0.20115700057E-01 0.  0.
         14    1    1    2    0    0  0.10311954855E-01  0.71071783527E-02 -0.20266583399E-01  0.23823996301E-01  0.00000000000E+00 0. -1.
     999901    1    3    3    0    0  0.11841013128E+00 -0.65311647799E-02 -0.18490171093E-02  0.88795666233E+00  0.88000000000E+00 0. -1.
        -11    1    4    4    0    0 -0.56433683461E-01 -0.10209225320E-01  0.91950450226E-02  0.58084411718E-01  0.51100000000E-03 0.  1.
         11    1    4    4    0    0 -0.72288402675E-01  0.96332117473E-02  0.12920555486E-01  0.74064929656E-01  0.51100000000E-03 0. -1.
</event>
<event>
 8    1  0.1070112E+005  0.1043930E+01  0.7957747E-01            NaN
         13   -1    0    0    0    0  0.00000000000E+00  0.00000000000E+00  0.74505805969E-08  0.10566000000E+00  0.10566000000E+00 0.  1.
     999900   -1    0    0    0    0 -0.00000000000E+00 -0.00000000000E+00 -0.74505805969E-08  0.93827000000E+00  0.93827000000E+00 0. -1.
     999902    2    1    2    0    0  0.76412799359E-03  0.55425215695E-02  0.23688429702E-01  0.10195898041E+01  0.10192992315E+01 0.  0.
     999903    2    3    3    0    0 -0.12728006649E+00  0.13150839382E-01 -0.92339698643E-02  0.12968133312E+00  0.18942599066E-01 0.  0.
         14    1    1    2    0    0 -0.76412799359E-03 -0.55425215695E-02 -0.23688429702E-01  0.24340195946E-01  0.00000000000E+00 0. -1.
     999901    1    3    3    0    0  0.12804419448E+00 -0.76083178122E-02  0.32922399566E-01  0.88990847093E+00  0.88000000000E+00 0.  1.
        -11    1    4    4    0    0 -0.35173651553E-01  0.10115467166E-02  0.54897241907E-02  0.35617512308E-01  0.51100000000E-03 0.  1.
         11    1    4    4    0    0 -0.92106414936E-01  0.12139292665E-01 -0.14723694055E-01  0.94063820816E-01  0.51100000000E-03 0. -1.
</event>
<event>
 8    1  0.1070112E+005  0.1043930E+01  0.7957747E-01            NaN
         13   -1    0    0    0    0  0.00000000000E+00  0.00000000000E+00  0.74505805969E-08  0.10566000000E+00  0.10566000000E+00 0.  1.
     999900   -1    0    0    0    0 -0.00000000000E+00 -0.00000000000E+00 -0.74505805969E-08  0.93827000000E+00  0.93827000000E+00 0.  1.
     999902    2    1    2    0    0 -0.15065909947E-01 -0.18261798918E-01 -0.32564714705E-03  0.10202534084E+01  0.10199786451E+01 0.  0.
     999903    2    3    3    0    0 -0.12089343082E+00 -0.43392161590E-01 -0.28710773706E-01  0.13310251106E+00  0.19846123570E-01 0.  0.
         14    1    1    2    0    0  0.15065909947E-01  0.18261798918E-01  0.32564714705E-03  0.23676591569E-01  0.00000000000E+00 0.  1.
     999901    1    3    3    0    0  0.10582752087E+00  0.25130362672E-01  0.28385126559E-01  0.88715089737E+00  0.88000000000E+00 0. -1.
        -11    1    4    4    0    0 -0.39603759756E-01 -0.22994246366E-01 -0.14900291412E-01  0.48160906946E-01  0.51100000000E-03 0.  1.
         11    1    4    4    0    0 -0.81289671062E-01 -0.20397915224E-01 -0.13810482294E-01  0.84941604111E-01  0.51100000000E-03 0. -1.
</event>
<event>
 8    1  0.1070112E+005  0.1043930E+01  0.7957747E-01            NaN
         13   -1    0    0    0    0  0.00000000000E+00  0.00000000000E+00  0.74505805969E-08  0.10566000000E+00  0.10566000000E+00 0.  1.
     999900   -1    0    0    0    0 -0.00000000000E+00 -0.00000000000E+00 -0.74505805969E-08  0.93827000000E+00  0.93827000000E+00 0.  1.
     999902    2    1    2    0    0  0.15715073984E-01  0.79984194830E-02 -0.15463648001E-01  0.10204765850E+01  0.10202070368E+01 0.  0.
     999903    2    3    3    0    0 -0.50600186934E-01  0.58700342553E-01  0.10090527315E+00  0.12889926104E+00  0.20664854525E-01 0.  0.
         14    1    1    2    0    0 -0.15715073984E-01 -0.79984194830E-02  0.15463648001E-01  0.23453414976E-01  0.00000000000E+00 0.  1.
     999901    1    3    3    0    0  0.66315260918E-01 -0.50701923070E-01 -0.11636892115E+00  0.89157732399E+00  0.88000000000E+00 0. -1.
        -11    1    4    4    0    0 -0.14205654620E-01  0.49039218254E-02  0.22847665442E-01  0.27351892249E-01  0.51100000000E-03 0. -1.
         11    1    4    4    0    0 -0.36394532314E-01  0.53796420728E-01  0.78057607712E-01  0.10154736879E+00  0.51100000000E-03 0.  1.
</event>
<event>
 8    1  0.1070112E+005  0.1043930E+01  0.7957747E-01            NaN
         13   -1    0    0    0    0  0.00000000000E+00  0.00000000000E+00  0.74505805969E-08  0.10566000000E+00  0.10566000000E+00 0. -1.
     999900   -1    0    0    0    0 -0.00000000000E+00 -0.00000000000E+00 -0.74505805969E-08  0.93827000000E+00  0.93827000000E+00 0. -1.
     999902    2    1    2    0    0  0.69373872794E-02  0.12166505893E-01  0.19831991003E-01  0.10196512217E+01  0.10193621314E+01 0.  0.
     999903    2    3    3    0    0  0.62729690067E-01  0.29964941727E-01  0.11151282060E+00  0.13295232136E+00  0.20206406161E-01 0.  0.
         14    1    1    2    0    0 -0.69373872794E-02 -0.12166505893E-01 -0.19831991003E-01  0.24278778286E-01  0.00000000000E+00 0.  1.
     999901    1    3    3    0    0 -0.55792302787E-01 -0.17798435833E-01 -0.91680829594E-01  0.88669890035E+00  0.88000000000E+00 0. -1.
        -11    1    4    4    0    0  0.47900090828E-01  0.20941669523E-01  0.97520418974E-01  0.11065019413E+00  0.51100000000E-03 0. -1.
         11    1    4    4    0    0  0.14829599238E-01  0.90232722041E-02  0.13992401622E-01  0.22302127230E-01  0.51100000000E-03 0.  1.
</event>
<event>
 8    1  0.1070112E+005  0.1043930E+01  0.7957747E-01            NaN
         13   -1    0    0    0    0  0.00000000000E+00  0.00000000000E+00  0.74505805969E-08  0.10566000000E+00  0.10566000000E+00 0.  1.
     999900   -1    0    0    0    0 -0.00000000000E+00 -0.00000000000E+00 -0.74505805969E-08  0.93827000000E+00  0.93827000000E+00 0. -1.
     999902    2    1    2    0    0  0.27070132020E-02  0.10757822232E-01 -0.22480878483E-01  0.10188611237E+01  0.10185526697E+01 0.  0.
     999903    2    3    3    0    0 -0.79004503378E-01  0.10028228852E+00  0.12849623511E-01  0.12985063652E+00  0.19945576867E-01 0.  0.
         14    1    1    2    0    0 -0.27070132020E-02 -0.10757822232E-01  0.22480878483E-01  0.25068876262E-01  0.00000000000E+00 0.  1.
     999901    1    3    3    0    0  0.81711516580E-01 -0.89524466288E-01 -0.35330501994E-01  0.88901048721E+00  0.88000000000E+00 0. -1.
        -11    1    4    4    0    0 -0.23324562910E-01  0.21729706954E-01 -0.38952186011E-02  0.32119297131E-01  0.51100000000E-03 0.  1.
         11    1    4    4    0    0 -0.55679940468E-01  0.78552581566E-01  0.16744842112E-01  0.97731339393E-01  0.51100000000E-03 0. -1.
</event>
<event>
 8    1  0.1070112E+005  0.1043930E+01  0.7957747E-01            NaN
         13   -1    0    0    0    0  0.00000000000E+00  0.00000000000E+00  0.74505805969E-08  0.10566000000E+00  0.10566000000E+00 0. -1.
     999900   -1    0    0    0    0 -0.00000000000E+00 -0.00000000000E+00 -0.74505805969E-08  0.93827000000E+00  0.93827000000E+00 0.  1.
     999902    2    1    2    0    0  0.48881619162E-02 -0.87859456356E-02 -0.21146765438E-01  0.10205147773E+01  0.10202461164E+01 0.  0.
     999903    2    3    3    0    0 -0.98976624667E-01  0.67883437784E-01  0.43665774172E-01  0.12873747684E+00  0.16189649586E-01 0.  0.
         14    1    1    2    0    0 -0.48881619162E-02  0.87859456356E-02  0.21146765438E-01  0.23415222743E-01  0.00000000000E+00 0. -1.
     999901    1    3    3    0    0  0.10386478658E+00 -0.76669383419E-01 -0.64812539610E-01  0.89177730042E+00  0.88000000000E+00 0.  1.
        -11    1    4    4    0    0 -0.15300228988E-01  0.42702984594E-02  0.75323407988E-02  0.17587772313E-01  0.51100000000E-03 0. -1.
         11    1    4    4    0    0 -0.83676395679E-01  0.63613139324E-01  0.36133433373E-01  0.11114970453E+00  0.51100000000E-03 0.  1.
</event>
<event>
 7    1  0.1070112E+005  0.1043930E+01  0.7957747E-01            NaN
         13   -1    0    0    0    0  0.00000000000E+00  0.00000000000E+00  0.74505805969E-08  0.10566000000E+00  0.10566000000E+00 0. -1.
     999900   -1    0    0    0    0 -0.00000000000E+00 -0.00000000000E+00 -0.74505805969E-08  0.93827000000E+00  0.93827000000E+00 0. -1.
     999903    2    1    2    0    0  0.55850674886E-01  0.52107475737E-01 -0.33402333962E-01  0.85423432435E-01  0.18626861836E-01 0.  0.
         14    1    1    2    0    0  0.83160701572E-02 -0.29318248790E-01 -0.63636942081E-01  0.70557615694E-01  0.00000000000E+00 0.  1.
     999901    1    1    2    0    0 -0.64166745043E-01 -0.22789226947E-01  0.97039276044E-01  0.88794895187E+00  0.88000000000E+00 0.  1.
        -11    1    3    3    0    0  0.17071591218E-02  0.94511215450E-02 -0.53341920236E-02  0.10997855076E-01  0.51100000000E-03 0. -1.
         11    1    3    3    0    0  0.54143515764E-01  0.42656354192E-01 -0.28068141939E-01  0.74425577359E-01  0.51100000000E-03 0.  1.
</event>
<event>
 8    1  0.1070112E+005  0.1043930E+01  0.7957747E-01            NaN
         13   -1    0    0    0    0  0.00000000000E+00  0.00000000000E+00  0.74505805969E-08  0.10566000000E+00  0.10566000000E+00 0. -1.
     999900   -1    0    0    0    0 -0.00000000000E+00 -0.00000000000E+00 -0.74505805969E-08  0.93827000000E+00  0.93827000000E+00 0.  1.
     999902    2    1    2    0    0  0.14923532372E-01  0.19957864199E-01  0.56236692745E-03  0.10190032189E+01  0.10186982947E+01 0.  0.
     999903    2    3    3    0    0  0.34190859107E-01  0.69412167268E-01  0.10506122086E+00  0.13123243287E+00  0.14036648380E-01 0.  0.
         14    1    1    2    0    0 -0.14923532372E-01 -0.19957864199E-01 -0.56236692745E-03  0.24926781148E-01  0.00000000000E+00 0. -1.
     999901    1    3    3    0    0 -0.19267326735E-01 -0.49454303069E-01 -0.10449885393E+00  0.88777078598E+00  0.88000000000E+00 0.  1.
        -11    1    4    4    0    0  0.26127683181E-01  0.63159175243E-01  0.89459212728E-01  0.11258307647E+00  0.51100000000E-03 0. -1.
         11    1    4    4    0    0  0.80631759262E-02  0.62529920255E-02  0.15602008128E-01  0.18649356394E-01  0.51100000000E-03 0.  1.
</event>
<event>
 8    1  0.1070112E+005  0.1043930E+01  0.7957747E-01            NaN
         13   -1    0    0    0    0  0.00000000000E+00  0.00000000000E+00  0.74505805969E-08  0.10566000000E+00  0.10566000000E+00 0. -1.
     999900   -1    0    0    0    0 -0.00000000000E+00 -0.00000000000E+00 -0.74505805969E-08  0.93827000000E+00  0.93827000000E+00 0.  1.
     999902    2    1    2    0    0  0.26847314761E-02  0.71457458976E-02 -0.20354883206E-01  0.10221908478E+01  0.10219596561E+01 0.  0.
     999903    2    3    3    0    0 -0.10029652703E+00 -0.77652632463E-01 -0.30890535123E-01  0.13207461690E+00  0.20003864744E-01 0.  0.
         14    1    1    2    0    0 -0.26847314761E-02 -0.71457458976E-02  0.20354883206E-01  0.21739152189E-01  0.00000000000E+00 0. -1.
     999901    1    3    3    0    0  0.10298125851E+00  0.84798378360E-01  0.10535651917E-01  0.89011623091E+00  0.88000000000E+00 0. -1.
        -11    1    4    4    0    0 -0.55107027004E-01 -0.35526492332E-01 -0.74264238801E-02  0.65987339507E-01  0.51100000000E-03 0.  1.
         11    1    4    4    0    0 -0.45189500030E-01 -0.42126140131E-01 -0.23464111243E-01  0.66087277389E-01  0.51100000000E-03 0. -1.
</event>
<event>
 8    1  0.1070112E+005  0.1043930E+01  0.7957747E-01            NaN
         13   -1    0    0    0    0  0.00000000000E+00  0.00000000000E+00  0.74505805969E-08  0.10566000000E+00  0.10566000000E+00 0.  1.
     999900   -1    0    0    0    0 -0.00000000000E+00 -0.00000000000E+00 -0.74505805969E-08  0.93827000000E+00  0.93827000000E+00 0. -1.
     999902    2    1    2    0    0  0.67994929965E-02  0.15019169671E-01  0.18136859265E-01  0.10194197118E+01  0.10191250142E+01 0.  0.
     999903    2    3    3    0    0 -0.70860948254E-01 -0.65709454945E-01 -0.79346529675E-01  0.12697852828E+00  0.22105845725E-01 0.  0.
         14    1    1    2    0    0 -0.67994929965E-02 -0.15019169671E-01 -0.18136859265E-01  0.24510288179E-01  0.00000000000E+00 0. -1.
     999901    1    3    3    0    0  0.77660441251E-01  0.80728624616E-01  0.97483388939E-01  0.89244118354E+00  0.88000000000E+00 0.  1.
        -11    1    4    4    0    0 -0.32590303738E-01 -0.27450439310E-01 -0.21378101114E-01  0.47675348392E-01  0.51100000000E-03 0.  1.
         11    1    4    4    0    0 -0.38270644516E-01 -0.38259015635E-01 -0.57968428561E-01  0.79303179885E-01  0.51100000000E-03 0. -1.
</event>
<event>
 8    1  0.1070112E+005  0.1043930E+01  0.7957747E-01            NaN
         13   -1    0    0    0    0  0.00000000000E+00  0.00000000000E+00  0.74505805969E-08  0.10566000000E+00  0.10566000000E+00 0.  1.
     999900   -1    0    0    0    0 -0.00000000000E+00 -0.00000000000E+00 -0.74505805969E-08  0.93827000000E+00  0.93827000000E+00 0.  1.
     999902    2    1    2    0    0 -0.14248342400E-02 -0.13895776224E-01  0.15429711283E-01  0.10231165731E+01  0.10229048457E+01 0.  0.
     999903    2    3    3    0    0  0.88488672015E-01  0.25653588768E-01  0.95352281689E-01  0.13405177897E+00  0.19734997618E-01 0.  0.
         14    1    1    2    0    0  0.14248342400E-02  0.13895776224E-01 -0.15429711283E-01  0.20813426910E-01  0.00000000000E+00 0. -1.
     999901    1    3    3    0    0 -0.89913506254E-01 -0.39549364992E-01 -0.79922570406E-01  0.88906479412E+00  0.88000000000E+00 0.  1.
        -11    1    4    4    0    0  0.39312158888E-01  0.20614702916E-01  0.39025444838E-01  0.59107176202E-01  0.51100000000E-03 0.  1.
         11    1    4    4    0    0  0.49176513126E-01  0.50388858522E-02  0.56326836851E-01  0.74944602771E-01  0.51100000000E-03 0. -1.
</event>
<event>
 8    1  0.1070112E+005  0.1043930E+01  0.7957747E-01            NaN
         13   -1    0    0    0    0  0.00000000000E+00  0.00000000000E+00  0.74505805969E-08  0.10566000000E+00  0.10566000000E+00 0. -1.
     999900   -1    0    0    0    0 -0.00000000000E+00 -0.00000000000E+00 -0.74505805969E-08  0.93827000000E+00  0.93827000000E+00 0. -1.
     999902    2    1    2    0    0 -0.12951049976E-02  0.72490207680E-02  0.22589593748E-01  0.10201704683E+01  0.10198937538E+01 0.  0.
     999903    2    3    3    0    0  0.12335673456E+00  0.14800186147E-01  0.37463990250E-01  0.13122932919E+00  0.19536038562E-01 0.  0.
         14    1    1    2    0    0  0.12951049976E-02 -0.72490207680E-02 -0.22589593748E-01  0.23759531661E-01  0.00000000000E+00 0.  1.
     999901    1    3    3    0    0 -0.12465183956E+00 -0.75511653793E-02 -0.14874396502E-01  0.88894113915E+00  0.88000000000E+00 0.  1.
        -11    1    4    4    0    0  0.17330919239E-01 -0.26275714727E-02  0.31605988638E-03  0.17539267612E-01  0.51100000000E-03 0. -1.
         11    1    4    4    0    0  0.10602581532E+00  0.17427757620E-01  0.37147930363E-01  0.11369006158E+00  0.51100000000E-03 0.  1.
</event>
<event>
 8    1  0.1070112E+005  0.1043930E+01  0.7957747E-01            NaN
         13   -1    0    0    0    0  0.00000000000E+00  0.00000000000E+00  0.74505805969E-08  0.10566000000E+00  0.10566000000E+00 0. -1.
     999900   -1    0    0    0    0 -0.00000000000E+00 -0.00000000000E+00 -0.74505805969E-08  0.93827000000E+00  0.93827000000E+00 0.  1.
     999902    2    1    2    0    0  0.21078987437E-01  0.97751326275E-02 -0.37651359428E-02  0.10203916658E+01  0.10201201392E+01 0.  0.
     999903    2    3    3    0    0 -0.55061776707E-01  0.10348091099E+00 -0.54576950205E-01  0.13069507180E+00  0.19038385049E-01 0.  0.
         14    1    1    2    0    0 -0.21078987437E-01 -0.97751326275E-02  0.37651359428E-02  0.23538334222E-01  0.00000000000E+00 0.  1.
     999901    1    3    3    0    0  0.76140764144E-01 -0.93705778367E-01  0.50811814262E-01  0.88969659398E+00  0.88000000000E+00 0.  1.
        -11    1    4    4    0    0 -0.29092628359E-01  0.73465142382E-01 -0.37976454947E-01  0.87669723516E-01  0.51100000000E-03 0.  1.
         11    1    4    4    0    0 -0.25969148348E-01  0.30015768613E-01 -0.16600495259E-01  0.43025348287E-01  0.51100000000E-03 0. -1.
</event>
<event>
 8    1  0.1070112E+005  0.1043930E+01  0.7957747E-01            NaN
         13   -1    0    0    0    0  0.00000000000E+00  0.00000000000E+00  0.74505805969E-08  0.10566000000E+00  0.10566000000E+00 0.  1.
     999900   -1    0    0    0    0 -0.00000000000E+00 -0.00000000000E+00 -0.74505805969E-08  0.93827000000E+00  0.93827000000E+00 0. -1.
     999902    2    1    2    0    0 -0.70322061797E-02 -0.15764985305E-01  0.16579148757E-01  0.10199956135E+01  0.10197147624E+01 0.  0.
     999903    2    3    3    0    0 -0.11036971050E+00  0.53087600318E-01  0.43481368229E-01  0.13087073598E+00  0.15386807617E-01 0.  0.
         14    1    1    2    0    0  0.70322061797E-02  0.15764985305E-01 -0.16579148757E-01  0.23934386538E-01  0.00000000000E+00 0. -1.
     999901    1    3    3    0    0  0.10333750432E+00 -0.68852585623E-01 -0.26902219471E-01  0.88912487748E+00  0.88000000000E+00 0.  1.
        -11    1    4    4    0    0 -0.10551814345E+00  0.52254788230E-01  0.38587917821E-01  0.12391097616E+00  0.51100000000E-03 0.  1.
         11    1    4    4    0    0 -0.48515670508E-02  0.83281208726E-03  0.48934504077E-02  0.69597598172E-02  0.51100000000E-03 0. -1.
</event>
<event>
 8    1  0.1070112E+005  0.1043930E+01  0.7957747E-01            NaN
         13   -1    0    0    0    0  0.00000000000E+00  0.00000000000E+00  0.74505805969E-08  0.10566000000E+00  0.10566000000E+00 0.  1.
     999900   -1    0    0    0    0 -0.00000000000E+00 -0.00000000000E+00 -0.74505805969E-08  0.93827000000E+00  0.93827000000E+00 0.  1.
     999902    2    1    2    0    0  0.99561253969E-02  0.19823855155E-01 -0.74181903671E-02  0.10205389929E+01  0.10202708938E+01 0.  0.
     999903    2    3    3    0    0 -0.42184482502E-01 -0.11736945437E+00  0.20291302735E-01  0.12795372346E+00  0.20132039069E-01 0.  0.
         14    1    1    2    0    0 -0.99561253969E-02 -0.19823855155E-01  0.74181903671E-02  0.23391007128E-01  0.00000000000E+00 0.  1.
     999901    1    3    3    0    0  0.52140607899E-01  0.13719330952E+00 -0.27709493102E-01  0.89258526942E+00  0.88000000000E+00 0.  1.
        -11    1    4    4    0    0 -0.28454695484E-03 -0.18595056428E-01  0.68258872832E-02  0.19816935906E-01  0.51100000000E-03 0.  1.
         11    1    4    4    0    0 -0.41899935547E-01 -0.98774397940E-01  0.13465415452E-01  0.10813678755E+00  0.51100000000E-03 0. -1.
</event>
<event>
 8    1  0.1070112E+005  0.1043930E+01  0.7957747E-01            NaN
         13   -1    0    0    0    0  0.00000000000E+00  0.00000000000E+00  0.74505805969E-08  0.10566000000E+00  0.10566000000E+00 0. -1.
     999900   -1    0    0    0    0 -0.00000000000E+00 -0.00000000000E+00 -0.74505805969E-08  0.93827000000E+00  0.93827000000E+00 0.  1.
     999902    2    1    2    0    0  0.18956410988E-01 -0.16703144540E-02  0.13567582167E-01  0.10205587623E+01  0.10202911214E+01 0.  0.
     999903    2    3    3    0    0  0.17429771839E-02  0.12213434272E+00 -0.40250328395E-01  0.13009805962E+00  0.19636204820E-01 0.  0.
         14    1    1    2    0    0 -0.18956410988E-01  0.16703144540E-02 -0.13567582167E-01  0.23371237745E-01  0.00000000000E+00 0.  1.
     999901    1    3    3    0    0  0.17213433804E-01 -0.12380465717E+00  0.53817910562E-01  0.89046070264E+00  0.88000000000E+00 0. -1.
        -11    1    4    4    0    0 -0.83318437600E-02  0.65021683212E-01 -0.18021045854E-01  0.67987190873E-01  0.51100000000E-03 0. -1.
         11    1    4    4    0    0  0.10074820944E-01  0.57112659508E-01 -0.22229282541E-01  0.62110868746E-01  0.51100000000E-03 0.  1.
</event>
<event>
 8    1  0.1070112E+005  0.1043930E+01  0.7957747E-01            NaN
         13   -1    0    0    0    0  0.00000000000E+00  0.00000000000E+00  0.74505805969E-08  0.10566000000E+00  0.10566000000E+00 0.  1.
     999900   -1    0    0    0    0 -0.00000000000E+00 -0.00000000000E+00 -0.74505805969E-08  0.93827000000E+00  0.93827000000E+00 0. -1.
     999902    2    1    2    0    0 -0.10851520574E-01  0.19024910374E-01 -0.65384967165E-02  0.10210727330E+01  0.10208168648E+01 0.  0.
     999903    2    3    3    0    0 -0.40821191823E-01 -0.85322974273E-01 -0.87953799738E-01  0.13067107435E+00  0.19816133428E-01 0.  0.
         14    1    1    2    0    0  0.10851520574E-01 -0.19024910374E-01  0.65384967165E-02  0.22857266959E-01  0.00000000000E+00 0. -1.
     999901    1    3    3    0    0  0.29969671249E-01  0.10434788465E+00  0.81415303021E-01  0.89040165869E+00  0.88000000000E+00 0.  1.
        -11    1    4    4    0    0 -0.30242750448E-01 -0.40815993007E-01 -0.49045361023E-01  0.70613580838E-01  0.51100000000E-03 0. -1.
         11    1    4    4    0    0 -0.10578441375E-01 -0.44506981266E-01 -0.38908438714E-01  0.60057493517E-01  0.51100000000E-03 0.  1.
</event>
<event>
 8    1  0.1070112E+005  0.1043930E+01  0.7957747E-01            NaN
         13   -1    0    0    0    0  0.00000000000E+00  0.00000000000E+00  0.74505805969E-08  0.10566000000E+00  0.10566000000E+00 0. -1.
     999900   -1    0    0    0    0 -0.00000000000E+00 -0.00000000000E+00 -0.74505805969E-08  0.93827000000E+00  0.93827000000E+00 0.  1.
     999902    2    1    2    0    0 -0.13770803531E-01  0.11463379044E-01 -0.17675872436E-01  0.10187609604E+01  0.10184500056E+01 0.  0.
     999903    2    3    3    0    0  0.20236125937E-01  0.12650363118E+00  0.10562966437E-01  0.13017322533E+00  0.20513966908E-01 0.  0.
         14    1    1    2    0    0  0.13770803531E-01 -0.11463379044E-01  0.17675872436E-01  0.25169039620E-01  0.00000000000E+00 0. -1.
     999901    1    3    3    0    0 -0.34006929469E-01 -0.11504025213E+00 -0.28238838873E-01  0.88858773505E+00  0.88000000000E+00 0.  1.
        -11    1    4    4    0    0  0.19143079575E-02  0.74546108569E-01  0.82736180328E-02  0.75029999028E-01  0.51100000000E-03 0. -1.
         11    1    4    4    0    0  0.18321817980E-01  0.51957522609E-01  0.22893484042E-02  0.55143226301E-01  0.51100000000E-03 0.  1.
</event>
<event>
 7    1  0.1070112E+005  0.1043930E+01  0.7957747E-01            NaN
         13   -1    0    0    0    0  0.00000000000E+00  0.00000000000E+00  0.74505805969E-08  0.10566000000E+00  0.10566000000E+00 0. -1.
     999900   -1    0    0    0    0 -0.00000000000E+00 -0.00000000000E+00 -0.74505805969E-08  0.93827000000E+00  0.93827000000E+00 0. -1.
     999903    2    1    2    0    0  0.57559264540E-01  0.83297067693E-01  0.58420145094E-01  0.11827667896E+00  0.18027451601E-01 0.  0.
         14    1    1    2    0    0 -0.21390591403E-01  0.19254254415E-01 -0.25335859865E-01  0.38343050332E-01  0.00000000000E+00 0. -1.
     999901    1    1    2    0    0 -0.36168673137E-01 -0.10255132211E+00 -0.33084285229E-01  0.88731027071E+00  0.88000000000E+00 0. -1.
        -11    1    3    3    0    0  0.22209829976E-01  0.32521865090E-01  0.33017659711E-01  0.51394311263E-01  0.51100000000E-03 0. -1.
         11    1    3    3    0    0  0.35349434565E-01  0.50775202604E-01  0.25402485384E-01  0.66882367693E-01  0.51100000000E-03 0.  1.
</event>
<event>
 8    1  0.1070112E+005  0.1043930E+01  0.7957747E-01            NaN
         13   -1    0    0    0    0  0.00000000000E+00  0.00000000000E+00  0.74505805969E-08  0.10566000000E+00  0.10566000000E+00 0.  1.
     999900   -1    0    0    0    0 -0.00000000000E+00 -0.00000000000E+00 -0.74505805969E-08  0.93827000000E+00  0.93827000000E+00 0. -1.
     999902    2    1    2    0    0  0.30074987645E-02  0.22154018168E-01 -0.79325311401E-02  0.10202072131E+01  0.10199313639E+01 0.  0.
     999903    2    3    3    0    0 -0.96776395804E-01  0.16385273632E-01  0.82631550806E-01  0.12993087564E+00  0.20491736879E-01 0.  0.
         14    1    1    2    0    0 -0.30074987645E-02 -0.22154018168E-01  0.79325311401E-02  0.23722786937E-01  0.00000000000E+00 0.  1.
     999901    1    3    3    0    0  0.99783894568E-01  0.57687445354E-02 -0.90564081946E-01  0.89027633742E+00  0.88000000000E+00 0. -1.
        -11    1    4    4    0    0 -0.17157406615E-01 -0.47144710776E-02  0.16960004937E-01  0.24586698188E-01  0.51100000000E-03 0. -1.
         11    1    4    4    0    0 -0.79618989188E-01  0.21099744710E-01  0.65671545868E-01  0.10534417746E+00  0.51100000000E-03 0.  1.
</event>
<event>
 8    1  0.1070112E+005  0.1043930E+01  0.7957747E-01            NaN
         13   -1    0    0    0    0  0.00000000000E+00  0.00000000000E+00  0.74505805969E-08  0.10566000000E+00  0.10566000000E+00 0.  1.
     999900   -1    0    0    0    0 -0.00000000000E+00 -0.00000000000E+00 -0.74505805969E-08  0.93827000000E+00  0.93827000000E+00 0.  1.
     999902    2    1    2    0    0  0.57204945492E-02 -0.14418777159E-01 -0.13523031806E-01  0.10233509431E+01  0.10231440051E+01 0.  0.
     999903    2    3    3    0    0  0.80800708512E-01 -0.10374897610E+00  0.22270399247E-01  0.13492644286E+00  0.20410040690E-01 0.  0.
         14    1    1    2    0    0 -0.57204945492E-02  0.14418777159E-01  0.13523031806E-01  0.20579056875E-01  0.00000000000E+00 0.  1.
     999901    1    3    3    0    0 -0.75080213963E-01  0.89330198942E-01 -0.35793431052E-01  0.88842450027E+00  0.88000000000E+00 0.  1.
        -11    1    4    4    0    0  0.14640382024E-01 -0.28940824330E-01 -0.72267585434E-03  0.32445268994E-01  0.51100000000E-03 0.  1.
         11    1    4    4    0    0  0.66160326489E-01 -0.74808151771E-01  0.22993075101E-01  0.10248117386E+00  0.51100000000E-03 0. -1.
</event>
<event>
 8    1  0.1070112E+005  0.1043930E+01  0.7957747E-01            NaN
         13   -1    0    0    0    0  0.00000000000E+00  0.00000000000E+00  0.74505805969E-08  0.10566000000E+00  0.10566000000E+00 0. -1.
     999900   -1    0    0    0    0 -0.00000000000E+00 -0.00000000000E+00 -0.74505805969E-08  0.93827000000E+00  0.93827000000E+00 0. -1.
     999902    2    1    2    0    0  0.17489128746E-01 -0.72105184883E-02  0.14791704073E-01  0.10199163432E+01  0.10196336065E+01 0.  0.
     999903    2    3    3    0    0  0.11044648789E+00  0.65949671029E-01  0.23126765301E-01  0.13196197663E+00  0.18202478083E-01 0.  0.
         14    1    1    2    0    0 -0.17489128746E-01  0.72105184883E-02 -0.14791704073E-01  0.24013656751E-01  0.00000000000E+00 0.  1.
     999901    1    3    3    0    0 -0.92957359140E-01 -0.73160189517E-01 -0.83350612285E-02  0.88795436662E+00  0.88000000000E+00 0.  1.
        -11    1    4    4    0    0  0.32064530627E-01  0.26409620620E-01  0.13306792257E-01  0.43622632048E-01  0.51100000000E-03 0.  1.
         11    1    4    4    0    0  0.78381957258E-01  0.39540050408E-01  0.98199730445E-02  0.88339344584E-01  0.51100000000E-03 0. -1.
</event>
<event>
 8    1  0.1070112E+005  0.1043930E+01  0.7957747E-01            NaN
         13   -1    0    0    0    0  0.00000000000E+00  0.00000000000E+00  0.74505805969E-08  0.10566000000E+00  0.10566000000E+00 0. -1.
     999900   -1    0    0    0    0 -0.00000000000E+00 -0.00000000000E+00 -0.74505805969E-08  0.93827000000E+00  0.93827000000E+00 0.  1.
     999902    2    1    2    0    0 -0.18190758885E-01 -0.84387294910E-02  0.12724451724E-01  0.10201807361E+01  0.10199042635E+01 0.  0.
     999903    2    3    3    0    0  0.17237191794E-01  0.81576315004E-01 -0.95452804650E-01  0.12829499974E+00  0.19913640838E-01 0.  0.
         14    1    1    2    0    0  0.18190758885E-01  0.84387294910E-02 -0.12724451724E-01  0.23749263903E-01  0.00000000000E+00 0.  1.
     999901    1    3    3    0    0 -0.35427950679E-01 -0.90015044495E-01  0.10817725637E+00  0.89188573636E+00  0.88000000000E+00 0.  1.
        -11    1    4    4    0    0  0.13885602037E-01  0.44485901381E-01 -0.39570575110E-01  0.61138342316E-01  0.51100000000E-03 0. -1.
         11    1    4    4    0    0  0.33515897570E-02  0.37090413623E-01 -0.55882229540E-01  0.67156657421E-01  0.51100000000E-03 0.  1.
</event>
<event>
 8    1  0.1070112E+005  0.1043930E+01  0.7957747E-01            NaN
         13   -1    0    0    0    0  0.00000000000E+00  0.00000000000E+00  0.74505805969E-08  0.10566000000E+00  0.10566000000E+00 0. -1.
     999900   -1    0    0    0    0 -0.00000000000E+00 -0.00000000000E+00 -0.74505805969E-08  0.93827000000E+00  0.93827000000E+00 0.  1.
     999902    2    1    2    0    0 -0.39895081598E-02  0.39458877199E-02  0.23182648428E-01  0.10200779269E+01  0.10197990270E+01 0.  0.
     999903    2    3    3    0    0  0.10478834458E+00  0.62798948061E-01 -0.38091924637E-01  0.12931933034E+00  0.18659834919E-01 0.  0.
         14    1    1    2    0    0  0.39895081598E-02 -0.39458877199E-02 -0.23182648428E-01  0.23852073146E-01  0.00000000000E+00 0.  1.
     999901    1    3    3    0    0 -0.10877785274E+00 -0.58853060341E-01  0.61274573065E-01  0.89075859651E+00  0.88000000000E+00 0. -1.
        -11    1    4    4    0    0  0.91257476924E-01  0.47294373646E-01 -0.34513866429E-01  0.10842579476E+00  0.51100000000E-03 0. -1.
         11    1    4    4    0    0  0.13530867659E-01  0.15504574415E-01 -0.35780582076E-02  0.20893535577E-01  0.51100000000E-03 0.  1.
</event>
<event>
 8    1  0.1070112E+005  0.1043930E+01  0.7957747E-01            NaN
         13   -1    0    0    0    0  0.00000000000E+00  0.00000000000E+00  0.74505805969E-08  0.10566000000E+00  0.10566000000E+00 0. -1.
     999900   -1    0    0    0    0 -0.00000000000E+00 -0.00000000000E+00 -0.74505805969E-08  0.93827000000E+00  0.93827000000E+00 0.  1.
     999902    2    1    2    0    0  0.20724348578E-01  0.22459752885E-01 -0.25489579231E-02  0.10132634660E+01  0.10127992966E+01 0.  0.
     999903    2    3    3    0    0  0.12381651238E+00 -0.85450419417E-03 -0.17732384039E-01  0.12680868130E+00  0.20850546616E-01 0.  0.
         14    1    1    2    0    0 -0.20724348578E-01 -0.22459752885E-01  0.25489579231E-02  0.30666534042E-01  0.00000000000E+00 0.  1.
     999901    1    3    3    0    0 -0.10309216380E+00  0.23314257079E-01  0.15183426115E-01  0.88645478466E+00  0.88000000000E+00 0. -1.
        -11    1    4    4    0    0  0.44758773749E-01  0.87916856439E-02 -0.22516978183E-02  0.45672451523E-01  0.51100000000E-03 0.  1.
         11    1    4    4    0    0  0.79057738627E-01 -0.96461898381E-02 -0.15480686220E-01  0.81136229775E-01  0.51100000000E-03 0. -1.
</event>
<event>
 8    1  0.1070112E+005  0.1043930E+01  0.7957747E-01            NaN
         13   -1    0    0    0    0  0.00000000000E+00  0.00000000000E+00  0.74505805969E-08  0.10566000000E+00  0.10566000000E+00 0.  1.
     999900   -1    0    0    0    0 -0.00000000000E+00 -0.00000000000E+00 -0.74505805969E-08  0.93827000000E+00  0.93827000000E+00 0. -1.
     999902    2    1    2    0    0 -0.12721124862E-02  0.12244580728E-01 -0.21088366716E-01  0.10195114161E+01  0.10192189462E+01 0.  0.
     999903    2    3    3    0    0 -0.10810491008E+00  0.69218844648E-01 -0.18932231182E-01  0.13121869281E+00  0.19544716053E-01 0.  0.
         14    1    1    2    0    0  0.12721124862E-02 -0.12244580728E-01  0.21088366716E-01  0.24418583868E-01  0.00000000000E+00 0.  1.
     999901    1    3    3    0    0  0.10683279760E+00 -0.56974263921E-01 -0.21561355347E-02  0.88829272333E+00  0.88000000000E+00 0.  1.
        -11    1    4    4    0    0 -0.40375375920E-01  0.31660975685E-01  0.72071220085E-03  0.51316361027E-01  0.51100000000E-03 0.  1.
         11    1    4    4    0    0 -0.67729534165E-01  0.37557868963E-01 -0.19652943382E-01  0.79902331779E-01  0.51100000000E-03 0. -1.
</event>
<event>
 8    1  0.1070112E+005  0.1043930E+01  0.7957747E-01            NaN
         13   -1    0    0    0    0  0.00000000000E+00  0.00000000000E+00  0.74505805969E-08  0.10566000000E+00  0.10566000000E+00 0. -1.
     999900   -1    0    0    0    0 -0.00000000000E+00 -0.00000000000E+00 -0.74505805969E-08  0.93827000000E+00  0.93827000000E+00 0.  1.
     999902    2    1    2    0    0  0.17821773961E-01  0.54038804183E-02  0.66696586273E-02  0.10241486477E+01  0.10239575923E+01 0.  0.
     999903    2    3    3    0    0  0.82267039707E-01  0.10639148920E+00  0.51923594929E-02  0.13603048454E+00  0.19756450368E-01 0.  0.
         14    1    1    2    0    0 -0.17821773961E-01 -0.54038804183E-02 -0.66696586273E-02  0.19781352252E-01  0.00000000000E+00 0. -1.
     999901    1    3    3    0    0 -0.64445265746E-01 -0.10098760878E+00  0.14772991344E-02  0.88811816321E+00  0.88000000000E+00 0.  1.
        -11    1    4    4    0    0  0.76388983464E-01  0.92159062245E-01  0.93638480624E-02  0.12006878162E+00  0.51100000000E-03 0.  1.
         11    1    4    4    0    0  0.58780562438E-02  0.14232426955E-01 -0.41714885695E-02  0.15961702920E-01  0.51100000000E-03 0. -1.
</event>
<event>
 8    1  0.1070112E+005  0.1043930E+01  0.7957747E-01            NaN
         13   -1    0    0    0    0  0.00000000000E+00  0.00000000000E+00  0.74505805969E-08  0.10566000000E+00  0.10566000000E+00 0.  1.
     999900   -1    0    0    0    0 -0.00000000000E+00 -0.00000000000E+00 -0.74505805969E-08  0.93827000000E+00  0.93827000000E+00 0. -1.
     999902    2    1    2    0    0  0.16351339058E-01 -0.18752244205E-01 -0.28222962701E-02  0.10188904651E+01  0.10185827416E+01 0.  0.
     999903    2    3    3    0    0  0.16886542439E-01 -0.63533043028E-01 -0.11160042765E+00  0.13106261678E+00  0.20028759141E-01 0.  0.
         14    1    1    2    0    0 -0.16351339058E-01  0.18752244205E-01  0.28222962701E-02  0.25039534899E-01  0.00000000000E+00 0. -1.
     999901    1    3    3    0    0 -0.53520338190E-03  0.44780798823E-01  0.10877813138E+00  0.88782784832E+00  0.88000000000E+00 0.  1.
        -11    1    4    4    0    0 -0.33280638509E-02 -0.23991360714E-01 -0.42520725205E-01  0.48938068933E-01  0.51100000000E-03 0. -1.
         11    1    4    4    0    0  0.20214606290E-01 -0.39541682314E-01 -0.69079702450E-01  0.82124547848E-01  0.51100000000E-03 0.  1.
</event>
<event>
 8    1  0.1070112E+005  0.1043930E+01  0.7957747E-01            NaN
         13   -1    0    0    0    0  0.00000000000E+00  0.00000000000E+00  0.74505805969E-08  0.10566000000E+00  0.10566000000E+00 0. -1.
     999900   -1    0    0    0    0 -0.00000000000E+00 -0.00000000000E+00 -0.74505805969E-08  0.93827000000E+00  0.93827000000E+00 0. -1.
     999902    2    1    2    0    0  0.56146509925E-02 -0.73112583079E-02 -0.21099673738E-01  0.10209044699E+01  0.10206447774E+01 0.  0.
     999903    2    3    3    0    0  0.11909260390E+00 -0.47212631416E-01  0.22849863222E-01  0.13163458559E+00  0.19836002736E-01 0.  0.
         14    1    1    2    0    0 -0.56146509925E-02  0.73112583079E-02  0.21099673738E-01  0.23025530085E-01  0.00000000000E+00 0. -1.
     999901    1    3    3    0    0 -0.11347795291E+00  0.39901373108E-01 -0.43949536960E-01  0.88926988433E+00  0.88000000000E+00 0. -1.
        -11    1    4    4    0    0  0.91370770832E-01 -0.30078126610E-01  0.23538757147E-01  0.99033558311E-01  0.51100000000E-03 0. -1.
         11    1    4    4    0    0  0.27721833069E-01 -0.17134504807E-01 -0.68889392471E-03  0.32601027277E-01  0.51100000000E-03 0.  1.
</event>
<event>
 8    1  0.1070112E+005  0.1043930E+01  0.7957747E-01            NaN
         13   -1    0    0    0    0  0.00000000000E+00  0.00000000000E+00  0.74505805969E-08  0.10566000000E+00  0.10566000000E+00 0. -1.
     999900   -1    0    0    0    0 -0.00000000000E+00 -0.00000000000E+00 -0.74505805969E-08  0.93827000000E+00  0.93827000000E+00 0. -1.
     999902    2    1    2    0    0  0.42539465231E-02 -0.18526837356E-02  0.23368092122E-01  0.10201057219E+01  0.10198274793E+01 0.  0.
     999903    2    3    3    0    0  0.82403157933E-02  0.92776470942E-01 -0.85766334381E-01  0.12832049489E+00  0.20854470258E-01 0.  0.
         14    1    1    2    0    0 -0.42539465231E-02  0.18526837356E-02 -0.23368092122E-01  0.23824278110E-01  0.00000000000E+00 0.  1.
     999901    1    3    3    0    0 -0.39863692702E-02 -0.94629154678E-01  0.10913442650E+00  0.89178522700E+00  0.88000000000E+00 0.  1.
        -11    1    4    4    0    0  0.10562049308E-01  0.24185552783E-01 -0.29379253054E-01  0.39495562788E-01  0.51100000000E-03 0. -1.
         11    1    4    4    0    0 -0.23217335151E-02  0.68590918159E-01 -0.56387081327E-01  0.88824932097E-01  0.51100000000E-03 0.  1.
</event>
<event>
 8    1  0.1070112E+005  0.1043930E+01  0.7957747E-01            NaN
         13   -1    0    0    0    0  0.00000000000E+00  0.00000000000E+00  0.74505805969E-08  0.10566000000E+00  0.10566000000E+00 0.  1.
     999900   -1    0    0    0    0 -0.00000000000E+00 -0.00000000000E+00 -0.74505805969E-08  0.93827000000E+00  0.93827000000E+00 0.  1.
     999902    2    1    2    0    0  0.15145097174E-01 -0.16768441458E-01  0.71787817118E-02  0.10202215731E+01  0.10199460617E+01 0.  0.
     999903    2    3    3    0    0  0.52769167634E-01 -0.11004846438E+00  0.49826088598E-01  0.13346595509E+00  0.20863185213E-01 0.  0.
         14    1    1    2    0    0 -0.15145097174E-01  0.16768441458E-01 -0.71787817118E-02  0.23708426861E-01  0.00000000000E+00 0.  1.
     999901    1    3    3    0    0 -0.37624070460E-01  0.93280022926E-01 -0.42647306886E-01  0.88675561805E+00  0.88000000000E+00 0.  1.
        -11    1    4    4    0    0  0.96731832359E-02 -0.34573680218E-01  0.70278715950E-02  0.36586362731E-01  0.51100000000E-03 0. -1.
         11    1    4    4    0    0  0.43095984398E-01 -0.75474784166E-01  0.42798217003E-01  0.96879592360E-01  0.51100000000E-03 0.  1.
</event>
<event>
 8    1  0.1070112E+005  0.1043930E+01  0.7957747E-01            NaN
         13   -1    0    0    0    0  0.00000000000E+00  0.00000000000E+00  0.74505805969E-08  0.10566000000E+00  0.10566000000E+00 0. -1.
     999900   -1    0    0    0    0 -0.00000000000E+00 -0.00000000000E+00 -0.74505805969E-08  0.93827000000E+00  0.93827000000E+00 0. -1.
     999902    2    1    2    0    0 -0.12536336132E-01 -0.16352820547E-01  0.83214101334E-02  0.10217079315E+01  0.10214662387E+01 0.  0.
     999903    2    3    3    0    0  0.52674599946E-01  0.60807211635E-01 -0.99442588915E-01  0.12939676587E+00  0.19559244904E-01 0.  0.
         14    1    1    2    0    0  0.12536336132E-01  0.16352820547E-01 -0.83214101334E-02  0.22222068537E-01  0.00000000000E+00 0.  1.
     999901    1    3    3    0    0 -0.65210936078E-01 -0.77160032182E-01  0.10776399905E+00  0.89231116559E+00  0.88000000000E+00 0.  1.
        -11    1    4    4    0    0  0.23413366687E-01  0.41542257614E-01 -0.54740164423E-01  0.72599529126E-01  0.51100000000E-03 0.  1.
         11    1    4    4    0    0  0.29261233259E-01  0.19264954021E-01 -0.44702424492E-01  0.56797236744E-01  0.51100000000E-03 0. -1.
</event>
<event>
 8    1  0.1070112E+005  0.1043930E+01  0.7957747E-01            NaN
         13   -1    0    0    0    0  0.00000000000E+00  0.00000000000E+00  0.74505805969E-08  0.10566000000E+00  0.10566000000E+00 0. -1.
     999900   -1    0    0    0    0 -0.00000000000E+00 -0.00000000000E+00 -0.74505805969E-08  0.93827000000E+00  0.93827000000E+00 0. -1.
     999902    2    1    2    0    0 -0.18420185112E-01 -0.10702317433E-01 -0.10894856608E-01  0.10200021769E+01  0.10197214817E+01 0.  0.
     999903    2    3    3    0    0  0.61491007671E-01 -0.11054419073E+00  0.23325715345E-01  0.13010035875E+00  0.19515435504E-01 0.  0.
         14    1    1    2    0    0  0.18420185112E-01  0.10702317433E-01  0.10894856608E-01  0.23927823104E-01  0.00000000000E+00 0. -1.
     999901    1    3    3    0    0 -0.79911192783E-01  0.99841873292E-01 -0.34220571953E-01  0.88990181815E+00  0.88000000000E+00 0. -1.
        -11    1    4    4    0    0  0.51483043575E-01 -0.76721980900E-01  0.20972971368E-01  0.94746465780E-01  0.51100000000E-03 0. -1.
         11    1    4    4    0    0  0.10007964096E-01 -0.33822209826E-01  0.23527439771E-02  0.35353892969E-01  0.51100000000E-03 0.  1.
</event>
<event>
 8    1  0.1070112E+005  0.1043930E+01  0.7957747E-01            NaN
         13   -1    0    0    0    0  0.00000000000E+00  0.00000000000E+00  0.74505805969E-08  0.10566000000E+00  0.10566000000E+00 0. -1.
     999900   -1    0    0    0    0 -0.00000000000E+00 -0.00000000000E+00 -0.74505805969E-08  0.93827000000E+00  0.93827000000E+00 0.  1.
     999902    2    1    2    0    0  0.55737593894E-02 -0.20186144900E-01 -0.11675957677E-01  0.10199534442E+01  0.10196715908E+01 0.  0.
     999903    2    3    3    0    0 -0.95324842782E-01  0.83306700277E-01 -0.24658806426E-02  0.12811482516E+00  0.19506303993E-01 0.  0.
         14    1    1    2    0    0 -0.55737593894E-02  0.20186144900E-01  0.11675957677E-01  0.23976555785E-01  0.00000000000E+00 0. -1.
     999901    1    3    3    0    0  0.10089860217E+00 -0.10349284518E+00 -0.92100770347E-02  0.89183861906E+00  0.88000000000E+00 0. -1.
        -11    1    4    4    0    0 -0.39495406332E-01  0.34025681877E-01 -0.10605197076E-01  0.53201179259E-01  0.51100000000E-03 0. -1.
         11    1    4    4    0    0 -0.55829436450E-01  0.49281018400E-01  0.81393164336E-02  0.74913645899E-01  0.51100000000E-03 0.  1.
</event>
<event>
 8    1  0.1070112E+005  0.1043930E+01  0.7957747E-01            NaN
         13   -1    0    0    0    0  0.00000000000E+00  0.00000000000E+00  0.74505805969E-08  0.10566000000E+00  0.10566000000E+00 0.  1.
     999900   -1    0    0    0    0 -0.00000000000E+00 -0.00000000000E+00 -0.74505805969E-08  0.93827000000E+00  0.93827000000E+00 0.  1.
     999902    2    1    2    0    0  0.63289139173E-02  0.20871889934E-01 -0.15351890822E-02  0.10220656970E+01  0.10218318067E+01 0.  0.
     999903    2    3    3    0    0  0.90692549088E-01  0.90441370698E-01  0.34456365466E-01  0.13456779412E+00  0.22725978510E-01 0.  0.
         14    1    1    2    0    0 -0.63289139173E-02 -0.20871889934E-01  0.15351890822E-02  0.21864303014E-01  0.00000000000E+00 0.  1.
     999901    1    3    3    0    0 -0.84363635171E-01 -0.69569480765E-01 -0.35991554548E-01  0.88749790287E+00  0.88000000000E+00 0.  1.
        -11    1    4    4    0    0  0.41403393730E-01  0.53533033179E-01  0.25590254677E-01  0.72354328890E-01  0.51100000000E-03 0. -1.
         11    1    4    4    0    0  0.49289155358E-01  0.36908337520E-01  0.88661107891E-02  0.62213465230E-01  0.51100000000E-03 0.  1.
</event>
<event>
 8    1  0.1070112E+005  0.1043930E+01  0.7957747E-01            NaN
         13   -1    0    0    0    0  0.00000000000E+00  0.00000000000E+00  0.74505805969E-08  0.10566000000E+00  0.10566000000E+00 0.  1.
     999900   -1    0    0    0    0 -0.00000000000E+00 -0.00000000000E+00 -0.74505805969E-08  0.93827000000E+00  0.93827000000E+00 0.  1.
     999902    2    1    2    0    0 -0.22724796939E-01  0.46822003357E-02 -0.17826355703E-02  0.10206594782E+01  0.10203941656E+01 0.  0.
     999903    2    3    3    0    0 -0.95314554638E-01 -0.18983166499E-02 -0.90654026495E-01  0.13318514039E+00  0.20776457068E-01 0.  0.
         14    1    1    2    0    0  0.22724796939E-01 -0.46822003357E-02  0.17826355703E-02  0.23270521813E-01  0.00000000000E+00 0.  1.
     999901    1    3    3    0    0  0.72589757699E-01  0.65805169855E-02  0.88871390925E-01  0.88747433780E+00  0.88000000000E+00 0.  1.
        -11    1    4    4    0    0 -0.47300719272E-01  0.92574024845E-02 -0.42210257028E-01  0.64070464832E-01  0.51100000000E-03 0.  1.
         11    1    4    4    0    0 -0.48013835366E-01 -0.11155719134E-01 -0.48443769468E-01  0.69114675556E-01  0.51100000000E-03 0. -1.
</event>
<event>
 8    1  0.1070112E+005  0.1043930E+01  0.7957747E-01            NaN
         13   -1    0    0    0    0  0.00000000000E+00  0.00000000000E+00  0.74505805969E-08  0.10566000000E+00  0.10566000000E+00 0.  1.
     999900   -1    0    0    0    0 -0.00000000000E+00 -0.00000000000E+00 -0.74505805969E-08  0.93827000000E+00  0.93827000000E+00 0. -1.
     999902    2    1    2    0    0 -0.77606211550E-02 -0.13395127627E-01  0.21885382298E-01  0.10171227875E+01  0.10167694617E+01 0.  0.
     999903    2    3    3    0    0  0.14720361552E-01  0.82968362732E-01 -0.89336427446E-01  0.12461978590E+00  0.21181489818E-01 0.  0.
         14    1    1    2    0    0  0.77606211550E-02  0.13395127627E-01 -0.21885382298E-01  0.26807212522E-01  0.00000000000E+00 0. -1.
     999901    1    3    3    0    0 -0.22480982707E-01 -0.96363490359E-01  0.11122180974E+00  0.89250300158E+00  0.88000000000E+00 0.  1.
        -11    1    4    4    0    0 -0.44701749438E-02  0.32510935255E-01 -0.31225135970E-01  0.45301364357E-01  0.51100000000E-03 0.  1.
         11    1    4    4    0    0  0.19190536496E-01  0.50457427476E-01 -0.58111291476E-01  0.79318421546E-01  0.51100000000E-03 0. -1.
</event>
<event>
 8    1  0.1070112E+005  0.1043930E+01  0.7957747E-01            NaN
         13   -1    0    0    0    0  0.00000000000E+00  0.00000000000E+00  0.74505805969E-08  0.10566000000E+00  0.10566000000E+00 0.  1.
     999900   -1    0    0    0    0 -0.00000000000E+00 -0.00000000000E+00 -0.74505805969E-08  0.93827000000E+00  0.93827000000E+00 0. -1.
     999902    2    1    2    0    0  0.22226922655E-01  0.12089331446E-01  0.12282964482E-01  0.10158042246E+01  0.10154147741E+01 0.  0.
     999903    2    3    3    0    0  0.12691380409E+00  0.14588661771E-01 -0.50751091214E-02  0.12942569794E+00  0.20132357885E-01 0.  0.
         14    1    1    2    0    0 -0.22226922655E-01 -0.12089331446E-01 -0.12282964482E-01  0.28125775402E-01  0.00000000000E+00 0. -1.
     999901    1    3    3    0    0 -0.10468688144E+00 -0.24993303243E-02  0.17358073603E-01  0.88637852666E+00  0.88000000000E+00 0. -1.
        -11    1    4    4    0    0  0.25753317923E-01  0.13518533937E-02 -0.90196292611E-02  0.27325367787E-01  0.51100000000E-03 0.  1.
         11    1    4    4    0    0  0.10116048617E+00  0.13236808377E-01  0.39445201397E-02  0.10210033016E+00  0.51100000000E-03 0. -1.
</event>
<event>
 8    1  0.1070112E+005  0.1043930E+01  0.7957747E-01            NaN
         13   -1    0    0    0    0  0.00000000000E+00  0.00000000000E+00  0.74505805969E-08  0.10566000000E+00  0.10566000000E+00 0. -1.
     999900   -1    0    0    0    0 -0.00000000000E+00 -0.00000000000E+00 -0.74505805969E-08  0.93827000000E+00  0.93827000000E+00 0. -1.
     999902    2    1    2    0    0 -0.12356044809E-01 -0.11903503253E-01 -0.14803910140E-01  0.10212689985E+01  0.10210175544E+01 0.  0.
     999903    2    3    3    0    0 -0.87279212728E-02 -0.73392443580E-01 -0.10998717963E+00  0.13399569910E+00  0.19875620953E-01 0.  0.
         14    1    1    2    0    0  0.12356044809E-01  0.11903503253E-01  0.14803910140E-01  0.22661001489E-01  0.00000000000E+00 0. -1.
     999901    1    3    3    0    0 -0.36281235365E-02  0.61488940327E-01  0.95183269493E-01  0.88727329941E+00  0.88000000000E+00 0.  1.
        -11    1    4    4    0    0  0.64668843046E-02 -0.23251206307E-01 -0.34962469459E-01  0.42486169268E-01  0.51100000000E-03 0.  1.
         11    1    4    4    0    0 -0.15194805577E-01 -0.50141237273E-01 -0.75024710174E-01  0.91509529829E-01  0.51100000000E-03 0. -1.
</event>
<event>
 8    1  0.1070112E+005  0.1043930E+01  0.7957747E-01            NaN
         13   -1    0    0    0    0  0.00000000000E+00  0.00000000000E+00  0.74505805969E-08  0.10566000000E+00  0.10566000000E+00 0. -1.
     999900   -1    0    0    0    0 -0.00000000000E+00 -0.00000000000E+00 -0.74505805969E-08  0.93827000000E+00  0.93827000000E+00 0. -1.
     999902    2    1    2    0    0  0.10900042200E-01 -0.21375075046E-01 -0.18424092421E-02  0.10198655194E+01  0.10195815703E+01 0.  0.
     999903    2    3    3    0    0  0.93995397513E-01  0.87702943436E-02  0.88169531610E-01  0.13086848295E+00  0.20991443732E-01 0.  0.
         14    1    1    2    0    0 -0.10900042200E-01  0.21375075046E-01  0.18424092421E-02  0.24064480568E-01  0.00000000000E+00 0. -1.
     999901    1    3    3    0    0 -0.83095355313E-01 -0.30145369390E-01 -0.90011940852E-01  0.88899703648E+00  0.88000000000E+00 0.  1.
        -11    1    4    4    0    0  0.52040095315E-01 -0.51656136610E-02  0.51941930580E-01  0.73709431949E-01  0.51100000000E-03 0.  1.
         11    1    4    4    0    0  0.41955302198E-01  0.13935908005E-01  0.36227601030E-01  0.57159051006E-01  0.51100000000E-03 0. -1.
</event>
<event>
 8    1  0.1070112E+005  0.1043930E+01  0.7957747E-01            NaN
         13   -1    0    0    0    0  0.00000000000E+00  0.00000000000E+00  0.74505805969E-08  0.10566000000E+00  0.10566000000E+00 0. -1.
     999900   -1    0    0    0    0 -0.00000000000E+00 -0.00000000000E+00 -0.74505805969E-08  0.93827000000E+00  0.93827000000E+00 0.  1.
     999902    2    1    2    0    0  0.25582681077E-02 -0.23605219153E-01  0.70783590098E-02  0.10191539173E+01  0.10188527140E+01 0.  0.
     999903    2    3    3    0    0  0.11528060037E+00  0.52259642626E-01  0.13924517088E-01  0.12869972348E+00  0.18682600920E-01 0.  0.
         14    1    1    2    0    0 -0.25582681077E-02  0.23605219153E-01 -0.70783590098E-02  0.24776082686E-01  0.00000000000E+00 0.  1.
     999901    1    3    3    0    0 -0.11272233226E+00 -0.75864861779E-01 -0.68461580779E-02  0.89045419384E+00  0.88000000000E+00 0.  1.
        -11    1    4    4    0    0  0.58184490527E-01  0.30586535910E-01 -0.13322900043E-02  0.65749579729E-01  0.51100000000E-03 0.  1.
         11    1    4    4    0    0  0.57096109844E-01  0.21673106716E-01  0.15256807092E-01  0.62950143747E-01  0.51100000000E-03 0. -1.
</event>
<event>
 8    1  0.1070112E+005  0.1043930E+01  0.7957747E-01            NaN
         13   -1    0    0    0    0  0.00000000000E+00  0.00000000000E+00  0.74505805969E-08  0.10566000000E+00  0.10566000000E+00 0. -1.
     999900   -1    0    0    0    0 -0.00000000000E+00 -0.00000000000E+00 -0.74505805969E-08  0.93827000000E+00  0.93827000000E+00 0. -1.
     999902    2    1    2    0    0 -0.45548786476E-02 -0.13611429434E-01 -0.17509687674E-01  0.10212891720E+01  0.10210381803E+01 0.  0.
     999903    2    3    3    0    0 -0.64732794073E-01  0.92580723281E-01 -0.64428267133E-01  0.13162659106E+00  0.20323211272E-01 0.  0.
         14    1    1    2    0    0  0.45548786476E-02  0.13611429434E-01  0.17509687674E-01  0.22640828014E-01  0.00000000000E+00 0. -1.
     999901    1    3    3    0    0  0.60177915425E-01 -0.10619215271E+00  0.46918579459E-01  0.88966258093E+00  0.88000000000E+00 0. -1.
        -11    1    4    4    0    0 -0.24695791791E-01  0.46470358075E-01 -0.20866468852E-01  0.56613134122E-01  0.51100000000E-03 0.  1.
         11    1    4    4    0    0 -0.40037002282E-01  0.46110365206E-01 -0.43561798281E-01  0.75013456937E-01  0.51100000000E-03 0. -1.
</event>
<event>
 8    1  0.1070112E+005  0.1043930E+01  0.7957747E-01            NaN
         13   -1    0    0    0    0  0.00000000000E+00  0.00000000000E+00  0.74505805969E-08  0.10566000000E+00  0.10566000000E+00 0.  1.
     999900   -1    0    0    0    0 -0.00000000000E+00 -0.00000000000E+00 -0.74505805969E-08  0.93827000000E+00  0.93827000000E+00 0.  1.
     999902    2    1    2    0    0 -0.20194834674E-01  0.12806919430E-02  0.11851880776E-01  0.10204792303E+01  0.10202097436E+01 0.  0.
     999903    2    3    3    0    0  0.10853770460E+00  0.24625742394E-01 -0.59774973091E-01  0.12792813139E+00  0.20141968255E-01 0.  0.
         14    1    1    2    0    0  0.20194834674E-01 -0.12806919430E-02 -0.11851880776E-01  0.23450769652E-01  0.00000000000E+00 0. -1.
     999901    1    3    3    0    0 -0.12873253928E+00 -0.23345050451E-01  0.71626853867E-01  0.89255109895E+00  0.88000000000E+00 0. -1.
        -11    1    4    4    0    0  0.48505039499E-01  0.25774020034E-02 -0.32211995569E-01  0.58285981483E-01  0.51100000000E-03 0.  1.
         11    1    4    4    0    0  0.60032665103E-01  0.22048340390E-01 -0.27562977522E-01  0.69642149911E-01  0.51100000000E-03 0. -1.
</event>
<event>
 8    1  0.1070112E+005  0.1043930E+01  0.7957747E-01            NaN
         13   -1    0    0    0    0  0.00000000000E+00  0.00000000000E+00  0.74505805969E-08  0.10566000000E+00  0.10566000000E+00 0.  1.
     999900   -1    0    0    0    0 -0.00000000000E+00 -0.00000000000E+00 -0.74505805969E-08  0.93827000000E+00  0.93827000000E+00 0. -1.
     999902    2    1    2    0    0 -0.13304093192E-01  0.16784100808E-01  0.54512749479E-02  0.10218297436E+01  0.10215907221E+01 0.  0.
     999903    2    3    3    0    0 -0.10776927510E+00  0.78091872816E-01  0.30484311016E-02  0.13464989306E+00  0.20217406201E-01 0.  0.
         14    1    1    2    0    0  0.13304093192E-01 -0.16784100808E-01 -0.54512749479E-02  0.22100256427E-01  0.00000000000E+00 0. -1.
     999901    1    3    3    0    0  0.94465181905E-01 -0.61307772007E-01  0.24028438463E-02  0.88717985051E+00  0.88000000000E+00 0.  1.
        -11    1    4    4    0    0 -0.78992986320E-01  0.49637139235E-01  0.90577458804E-02  0.93733885872E-01  0.51100000000E-03 0.  1.
         11    1    4    4    0    0 -0.28776288776E-01  0.28454733581E-01 -0.60093147788E-02  0.40916007186E-01  0.51100000000E-03 0. -1.
</event>
<event>
 8    1  0.1070112E+005  0.1043930E+01  0.7957747E-01            NaN
         13   -1    0    0    0    0  0.00000000000E+00  0.00000000000E+00  0.74505805969E-08  0.10566000000E+00  0.10566000000E+00 0.  1.
     999900   -1    0    0    0    0 -0.00000000000E+00 -0.00000000000E+00 -0.74505805969E-08  0.93827000000E+00  0.93827000000E+00 0. -1.
     999902    2    1    2    0    0 -0.92729272441E-02 -0.13306998660E-01  0.18339177257E-01  0.10194475815E+01  0.10191535618E+01 0.  0.
     999903    2    3    3    0    0  0.67591365177E-01 -0.93097304556E-01 -0.55877474554E-01  0.12940110869E+00  0.19663519647E-01 0.  0.
         14    1    1    2    0    0  0.92729272441E-02  0.13306998660E-01 -0.18339177257E-01  0.24482418497E-01  0.00000000000E+00 0. -1.
     999901    1    3    3    0    0 -0.76864292421E-01  0.79790305896E-01  0.74216651811E-01  0.89004647281E+00  0.88000000000E+00 0. -1.
        -11    1    4    4    0    0  0.29850987320E-01 -0.38232565482E-01 -0.34257850358E-01  0.59385789036E-01  0.51100000000E-03 0.  1.
         11    1    4    4    0    0  0.37740377857E-01 -0.54864739075E-01 -0.21619624196E-01  0.70015319652E-01  0.51100000000E-03 0. -1.
</event>
<event>
 8    1  0.1070112E+005  0.1043930E+01  0.7957747E-01            NaN
         13   -1    0    0    0    0  0.00000000000E+00  0.00000000000E+00  0.74505805969E-08  0.10566000000E+00  0.10566000000E+00 0. -1.
     999900   -1    0    0    0    0 -0.00000000000E+00 -0.00000000000E+00 -0.74505805969E-08  0.93827000000E+00  0.93827000000E+00 0.  1.
     999902    2    1    2    0    0  0.10948495437E-01  0.18994017046E-01  0.78318030219E-02  0.10206495495E+01  0.10203840079E+01 0.  0.
     999903    2    3    3    0    0 -0.98283359063E-01  0.25175789740E-01  0.80040267771E-01  0.13093955479E+00  0.21101741283E-01 0.  0.
         14    1    1    2    0    0 -0.10948495437E-01 -0.18994017046E-01 -0.78318030219E-02  0.23280450478E-01  0.00000000000E+00 0. -1.
     999901    1    3    3    0    0  0.10923185450E+00 -0.61817726941E-02 -0.72208464749E-01  0.88970999474E+00  0.88000000000E+00 0. -1.
        -11    1    4    4    0    0 -0.66426121344E-01  0.97062686906E-02  0.61100106485E-01  0.90775136366E-01  0.51100000000E-03 0. -1.
         11    1    4    4    0    0 -0.31857237719E-01  0.15469521050E-01  0.18940161286E-01  0.40164418421E-01  0.51100000000E-03 0.  1.
</event>
<event>
 8    1  0.1070112E+005  0.1043930E+01  0.7957747E-01            NaN
         13   -1    0    0    0    0  0.00000000000E+00  0.00000000000E+00  0.74505805969E-08  0.10566000000E+00  0.10566000000E+00 0. -1.
     999900   -1    0    0    0    0 -0.00000000000E+00 -0.00000000000E+00 -0.74505805969E-08  0.93827000000E+00  0.93827000000E+00 0. -1.
     999902    2    1    2    0    0 -0.14624813441E-01 -0.46698430474E-03  0.18800266635E-01  0.10201066235E+01  0.10198284022E+01 0.  0.
     999903    2    3    3    0    0  0.39641835664E-01 -0.10220509528E+00 -0.64355016015E-01  0.12869745063E+00  0.20102464444E-01 0.  0.
         14    1    1    2    0    0  0.14624813441E-01  0.46698430474E-03 -0.18800266635E-01  0.23823376505E-01  0.00000000000E+00 0.  1.
     999901    1    3    3    0    0 -0.54266649106E-01  0.10173811098E+00  0.83155282650E-01  0.89140917286E+00  0.88000000000E+00 0.  1.
        -11    1    4    4    0    0  0.28813301474E-01 -0.86907976377E-01 -0.59938845193E-01  0.10943550148E+00  0.51100000000E-03 0.  1.
         11    1    4    4    0    0  0.10828534190E-01 -0.15297118904E-01 -0.44161708221E-02  0.19261949154E-01  0.51100000000E-03 0. -1.
</event>
<event>
 8    1  0.1070112E+005  0.1043930E+01  0.7957747E-01            NaN
         13   -1    0    0    0    0  0.00000000000E+00  0.00000000000E+00  0.74505805969E-08  0.10566000000E+00  0.10566000000E+00 0. -1.
     999900   -1    0    0    0    0 -0.00000000000E+00 -0.00000000000E+00 -0.74505805969E-08  0.93827000000E+00  0.93827000000E+00 0. -1.
     999902    2    1    2    0    0 -0.12199955989E-01 -0.17870390104E-01  0.92468981241E-02  0.10203992777E+01  0.10201279287E+01 0.  0.
     999903    2    3    3    0    0 -0.63616265670E-01 -0.67125664235E-01  0.94128778124E-01  0.13345246275E+00  0.19911024268E-01 0.  0.
         14    1    1    2    0    0  0.12199955989E-01  0.17870390104E-01 -0.92468981241E-02  0.23530722333E-01  0.00000000000E+00 0.  1.
     999901    1    3    3    0    0  0.51416309680E-01  0.49255274131E-01 -0.84881880000E-01  0.88694681491E+00  0.88000000000E+00 0. -1.
        -11    1    4    4    0    0 -0.40574405049E-01 -0.36361805434E-01  0.67227004269E-01  0.86534354239E-01  0.51100000000E-03 0. -1.
         11    1    4    4    0    0 -0.23041860621E-01 -0.30763858800E-01  0.26901773855E-01  0.46918108516E-01  0.51100000000E-03 0.  1.
</event>
<event>
 8    1  0.1070112E+005  0.1043930E+01  0.7957747E-01            NaN
         13   -1    0    0    0    0  0.00000000000E+00  0.00000000000E+00  0.74505805969E-08  0.10566000000E+00  0.10566000000E+00 0. -1.
     999900   -1    0    0    0    0 -0.00000000000E+00 -0.00000000000E+00 -0.74505805969E-08  0.93827000000E+00  0.93827000000E+00 0.  1.
     999902    2    1    2    0    0 -0.16685395534E-01  0.16271120708E-02  0.49444051322E-02  0.10264515258E+01  0.10263027028E+01 0.  0.
     999903    2    3    3    0    0 -0.91331899133E-01 -0.49070760693E-01 -0.87682867325E-01  0.13700102893E+00  0.18208276994E-01 0.  0.
         14    1    1    2    0    0  0.16685395534E-01 -0.16271120708E-02 -0.49444051322E-02  0.17478474187E-01  0.00000000000E+00 0. -1.
     999901    1    3    3    0    0  0.74646503600E-01  0.50697872764E-01  0.92627272457E-01  0.88945049688E+00  0.88000000000E+00 0.  1.
        -11    1    4    4    0    0 -0.56403813541E-01 -0.20108623647E-01 -0.49134320417E-01  0.77460890072E-01  0.51100000000E-03 0. -1.
         11    1    4    4    0    0 -0.34928085592E-01 -0.28962137046E-01 -0.38548546908E-01  0.59540138857E-01  0.51100000000E-03 0.  1.
</event>
<event>
 8    1  0.1070112E+005  0.1043930E+01  0.7957747E-01            NaN
         13   -1    0    0    0    0  0.00000000000E+00  0.00000000000E+00  0.74505805969E-08  0.10566000000E+00  0.10566000000E+00 0.  1.
     999900   -1    0    0    0    0 -0.00000000000E+00 -0.00000000000E+00 -0.74505805969E-08  0.93827000000E+00  0.93827000000E+00 0.  1.
     999902    2    1    2    0    0  0.15937329790E-01  0.37302288970E-02 -0.17300424710E-01  0.10201136656E+01  0.10198356108E+01 0.  0.
     999903    2    3    3    0    0  0.21172791515E-01  0.90996535302E-01  0.87531738982E-01  0.12958988669E+00  0.20076774250E-01 0.  0.
         14    1    1    2    0    0 -0.15937329790E-01 -0.37302288970E-02  0.17300424710E-01  0.23816334386E-01  0.00000000000E+00 0.  1.
     999901    1    3    3    0    0 -0.52354617251E-02 -0.87266306405E-01 -0.10483216369E+00  0.89052377893E+00  0.88000000000E+00 0.  1.
        -11    1    4    4    0    0  0.15594180411E-01  0.26206384702E-01  0.29438419578E-01  0.42389087394E-01  0.51100000000E-03 0. -1.
         11    1    4    4    0    0  0.55786111037E-02  0.64790150600E-01  0.58093319404E-01  0.87200799291E-01  0.51100000000E-03 0.  1.
</event>
<event>
 8    1  0.1070112E+005  0.1043930E+01  0.7957747E-01            NaN
         13   -1    0    0    0    0  0.00000000000E+00  0.00000000000E+00  0.74505805969E-08  0.10566000000E+00  0.10566000000E+00 0.  1.
     999900   -1    0    0    0    0 -0.00000000000E+00 -0.00000000000E+00 -0.74505805969E-08  0.93827000000E+00  0.93827000000E+00 0. -1.
     999902    2    1    2    0    0  0.19700390849E-01  0.12538936185E-01 -0.40818710481E-02  0.10202236297E+01  0.10199481667E+01 0.  0.
     999903    2    3    3    0    0  0.23497289641E-01 -0.40695714195E-01 -0.12055022867E+00  0.13094683212E+00  0.20160640713E-01 0.  0.
         14    1    1    2    0    0 -0.19700390849E-01 -0.12538936185E-01  0.40818710481E-02  0.23706370273E-01  0.00000000000E+00 0. -1.
     999901    1    3    3    0    0 -0.37968987927E-02  0.53234650380E-01  0.11646835762E+00  0.88927679761E+00  0.88000000000E+00 0.  1.
        -11    1    4    4    0    0  0.84145117358E-02 -0.20179663204E-01 -0.81041102764E-01  0.83940123141E-01  0.51100000000E-03 0. -1.
         11    1    4    4    0    0  0.15082777905E-01 -0.20516050991E-01 -0.39509125909E-01  0.47006708975E-01  0.51100000000E-03 0.  1.
</event>
<event>
 8    1  0.1070112E+005  0.1043930E+01  0.7957747E-01            NaN
         13   -1    0    0    0    0  0.00000000000E+00  0.00000000000E+00  0.74505805969E-08  0.10566000000E+00  0.10566000000E+00 0. -1.
     999900   -1    0    0    0    0 -0.00000000000E+00 -0.00000000000E+00 -0.74505805969E-08  0.93827000000E+00  0.93827000000E+00 0. -1.
     999902    2    1    2    0    0  0.13389923908E-02  0.19549699091E-01 -0.15156610549E-01  0.10191569001E+01  0.10188557702E+01 0.  0.
     999903    2    3    3    0    0  0.12538767406E+00  0.29023151942E-01  0.18376277053E-02  0.13024372894E+00  0.19890698787E-01 0.  0.
         14    1    1    2    0    0 -0.13389923908E-02 -0.19549699091E-01  0.15156610549E-01  0.24773099897E-01  0.00000000000E+00 0. -1.
     999901    1    3    3    0    0 -0.12404868167E+00 -0.94734528508E-02 -0.16994238255E-01  0.88891317116E+00  0.88000000000E+00 0.  1.
        -11    1    4    4    0    0  0.71568661119E-01  0.26577338082E-01  0.17851414324E-02  0.76366720532E-01  0.51100000000E-03 0.  1.
         11    1    4    4    0    0  0.53819012939E-01  0.24458138603E-02  0.52486272855E-04  0.53877008408E-01  0.51100000000E-03 0. -1.
</event>
<event>
 8    1  0.1070112E+005  0.1043930E+01  0.7957747E-01            NaN
         13   -1    0    0    0    0  0.00000000000E+00  0.00000000000E+00  0.74505805969E-08  0.10566000000E+00  0.10566000000E+00 0. -1.
     999900   -1    0    0    0    0 -0.00000000000E+00 -0.00000000000E+00 -0.74505805969E-08  0.93827000000E+00  0.93827000000E+00 0. -1.
     999902    2    1    2    0    0  0.20436941641E-01  0.11168818571E-01 -0.35686696976E-03  0.10206375453E+01  0.10203717266E+01 0.  0.
     999903    2    3    3    0    0  0.11070771723E+00  0.66217272177E-01 -0.29380463838E-01  0.13383344385E+00  0.20180516542E-01 0.  0.
         14    1    1    2    0    0 -0.20436941641E-01 -0.11168818571E-01  0.35686696976E-03  0.23292454700E-01  0.00000000000E+00 0.  1.
     999901    1    3    3    0    0 -0.90270775594E-01 -0.55048453606E-01  0.29023596868E-01  0.88680410145E+00  0.88000000000E+00 0.  1.
        -11    1    4    4    0    0  0.55408555684E-01  0.44185697529E-01 -0.19353385293E-01  0.73466308961E-01  0.51100000000E-03 0. -1.
         11    1    4    4    0    0  0.55299161551E-01  0.22031574648E-01 -0.10027078545E-01  0.60367134890E-01  0.51100000000E-03 0.  1.
</event>
<event>
 8    1  0.1070112E+005  0.1043930E+01  0.7957747E-01            NaN
         13   -1    0    0    0    0  0.00000000000E+00  0.00000000000E+00  0.74505805969E-08  0.10566000000E+00  0.10566000000E+00 0. -1.
     999900   -1    0    0    0    0 -0.00000000000E+00 -0.00000000000E+00 -0.74505805969E-08  0.93827000000E+00  0.93827000000E+00 0.  1.
     999902    2    1    2    0    0 -0.13204887067E-01  0.18522415206E-01 -0.75983043755E-02  0.10199470240E+01  0.10196650179E+01 0.  0.
     999903    2    3    3    0    0 -0.14922079599E-01  0.10807545431E+00  0.70921426187E-01  0.13192222501E+00  0.21694526409E-01 0.  0.
         14    1    1    2    0    0  0.13204887067E-01 -0.18522415206E-01  0.75983043755E-02  0.23982975980E-01  0.00000000000E+00 0. -1.
     999901    1    3    3    0    0  0.17171925329E-02 -0.89553039104E-01 -0.78519730562E-01  0.88802479901E+00  0.88000000000E+00 0.  1.
        -11    1    4    4    0    0 -0.21410758928E-02  0.28848768593E-01  0.30589950188E-01  0.42105128296E-01  0.51100000000E-03 0. -1.
         11    1    4    4    0    0 -0.12781003707E-01  0.79226685717E-01  0.40331475999E-01  0.89817096718E-01  0.51100000000E-03 0.  1.
</event>
<event>
 8    1  0.1070112E+005  0.1043930E+01  0.7957747E-01            NaN
         13   -1    0    0    0    0  0.00000000000E+00  0.00000000000E+00  0.74505805969E-08  0.10566000000E+00  0.10566000000E+00 0. -1.
     999900   -1    0    0    0    0 -0.00000000000E+00 -0.00000000000E+00 -0.74505805969E-08  0.93827000000E+00  0.93827000000E+00 0.  1.
     999902    2    1    2    0    0  0.11726813044E-01 -0.78989623967E-03  0.19944904045E-01  0.10207795944E+01  0.10205170450E+01 0.  0.
     999903    2    3    3    0    0  0.11004195198E+00 -0.70349681536E-01  0.53413893960E-02  0.13245662788E+00  0.21399040667E-01 0.  0.
         14    1    1    2    0    0 -0.11726813044E-01  0.78989623967E-03 -0.19944904045E-01  0.23150405560E-01  0.00000000000E+00 0. -1.
     999901    1    3    3    0    0 -0.98315138936E-01  0.69559785296E-01  0.14603514649E-01  0.88832296656E+00  0.88000000000E+00 0.  1.
        -11    1    4    4    0    0  0.95895376989E-01 -0.67009296477E-01  0.78188941173E-04  0.11698904383E+00  0.51100000000E-03 0. -1.
         11    1    4    4    0    0  0.14146574990E-01 -0.33403850584E-02  0.52632004548E-02  0.15467584049E-01  0.51100000000E-03 0.  1.
</event>
<event>
 8    1  0.1070112E+005  0.1043930E+01  0.7957747E-01            NaN
         13   -1    0    0    0    0  0.00000000000E+00  0.00000000000E+00  0.74505805969E-08  0.10566000000E+00  0.10566000000E+00 0. -1.
     999900   -1    0    0    0    0 -0.00000000000E+00 -0.00000000000E+00 -0.74505805969E-08  0.93827000000E+00  0.93827000000E+00 0.  1.
     999902    2    1    2    0    0 -0.17643632632E-01  0.13629374549E-01  0.78821580553E-02  0.10202828852E+01  0.10200088136E+01 0.  0.
     999903    2    3    3    0    0  0.16749297068E-01  0.32110291629E-01 -0.12307133469E+00  0.12973629171E+00  0.19322064652E-01 0.  0.
         14    1    1    2    0    0  0.17643632632E-01 -0.13629374549E-01 -0.78821580553E-02  0.23647114806E-01  0.00000000000E+00 0. -1.
     999901    1    3    3    0    0 -0.34392929700E-01 -0.18480917080E-01  0.13095349275E+00  0.89054659349E+00  0.88000000000E+00 0. -1.
        -11    1    4    4    0    0  0.48546593428E-02  0.27724183491E-01 -0.90663351566E-01  0.94933147561E-01  0.51100000000E-03 0. -1.
         11    1    4    4    0    0  0.11894637726E-01  0.43861081374E-02 -0.32407983125E-01  0.34803144146E-01  0.51100000000E-03 0.  1.
</event>
<event>
 8    1  0.1070112E+005  0.1043930E+01  0.7957747E-01            NaN
         13   -1    0    0    0    0  0.00000000000E+00  0.00000000000E+00  0.74505805969E-08  0.10566000000E+00  0.10566000000E+00 0. -1.
     999900   -1    0    0    0    0 -0.00000000000E+00 -0.00000000000E+00 -0.74505805969E-08  0.93827000000E+00  0.93827000000E+00 0.  1.
     999902    2    1    2    0    0  0.34346089825E-02  0.10854794955E-01 -0.20359140989E-01  0.10206036687E+01  0.10203370672E+01 0.  0.
     999903    2    3    3    0    0  0.28614028463E-01  0.45713306274E-01 -0.12072151482E+00  0.13385583242E+00  0.20862184400E-01 0.  0.
         14    1    1    2    0    0 -0.34346089825E-02 -0.10854794955E-01  0.20359140989E-01  0.23326331349E-01  0.00000000000E+00 0. -1.
     999901    1    3    3    0    0 -0.25179419480E-01 -0.34858511320E-01  0.10036237383E+00  0.88674783623E+00  0.88000000000E+00 0. -1.
        -11    1    4    4    0    0  0.14550139047E-01  0.37970730967E-01 -0.73820164497E-01  0.84280251327E-01  0.51100000000E-03 0.  1.
         11    1    4    4    0    0  0.14063889416E-01  0.77425753069E-02 -0.46901350322E-01  0.49575581095E-01  0.51100000000E-03 0. -1.
</event>
<event>
 8    1  0.1070112E+005  0.1043930E+01  0.7957747E-01            NaN
         13   -1    0    0    0    0  0.00000000000E+00  0.00000000000E+00  0.74505805969E-08  0.10566000000E+00  0.10566000000E+00 0.  1.
     999900   -1    0    0    0    0 -0.00000000000E+00 -0.00000000000E+00 -0.74505805969E-08  0.93827000000E+00  0.93827000000E+00 0. -1.
     999902    2    1    2    0    0 -0.71828544084E-02 -0.21458504177E-01  0.77262447771E-02  0.10200185873E+01  0.10197382815E+01 0.  0.
     999903    2    3    3    0    0 -0.50532468854E-01  0.11008760096E+00  0.38406105893E-01  0.12865736943E+00  0.20121616344E-01 0.  0.
         14    1    1    2    0    0  0.71828544084E-02  0.21458504177E-01 -0.77262447771E-02  0.23911412700E-01  0.00000000000E+00 0. -1.
     999901    1    3    3    0    0  0.43349614446E-01 -0.13154610514E+00 -0.30679861116E-01  0.89136121787E+00  0.88000000000E+00 0. -1.
        -11    1    4    4    0    0 -0.21461813012E-01  0.38808874185E-01  0.46268186109E-02  0.44591554186E-01  0.51100000000E-03 0.  1.
         11    1    4    4    0    0 -0.29070655842E-01  0.71278726775E-01  0.33779287282E-01  0.84065815241E-01  0.51100000000E-03 0. -1.
</event>
<event>
 8    1  0.1070112E+005  0.1043930E+01  0.7957747E-01            NaN
         13   -1    0    0    0    0  0.00000000000E+00  0.00000000000E+00  0.74505805969E-08  0.10566000000E+00  0.10566000000E+00 0.  1.
     999900   -1    0    0    0    0 -0.00000000000E+00 -0.00000000000E+00 -0.74505805969E-08  0.93827000000E+00  0.93827000000E+00 0.  1.
     999902    2    1    2    0    0  0.22587815160E-01  0.10421876577E-01  0.24368360481E-01  0.10091069918E+01  0.10085059638E+01 0.  0.
     999903    2    3    3    0    0  0.10292837748E+00  0.12201101656E-01  0.66208274408E-01  0.12445545027E+00  0.19039583218E-01 0.  0.
         14    1    1    2    0    0 -0.22587815160E-01 -0.10421876577E-01 -0.24368360481E-01  0.34823008165E-01  0.00000000000E+00 0. -1.
     999901    1    3    3    0    0 -0.80340562322E-01 -0.17792250789E-02 -0.41839913926E-01  0.88465154157E+00  0.88000000000E+00 0.  1.
        -11    1    4    4    0    0  0.13235192025E-01  0.31274530004E-02  0.16903857195E-01  0.21701446478E-01  0.51100000000E-03 0.  1.
         11    1    4    4    0    0  0.89693185458E-01  0.90736486558E-02  0.49304417213E-01  0.10275400379E+00  0.51100000000E-03 0. -1.
</event>
<event>
 8    1  0.1070112E+005  0.1043930E+01  0.7957747E-01            NaN
         13   -1    0    0    0    0  0.00000000000E+00  0.00000000000E+00  0.74505805969E-08  0.10566000000E+00  0.10566000000E+00 0.  1.
     999900   -1    0    0    0    0 -0.00000000000E+00 -0.00000000000E+00 -0.74505805969E-08  0.93827000000E+00  0.93827000000E+00 0. -1.
     999902    2    1    2    0    0 -0.97310342425E-02 -0.89241509189E-02 -0.19051981875E-01  0.10207500192E+01  0.10204867908E+01 0.  0.
     999903    2    3    3    0    0  0.88270738035E-01 -0.85017022635E-01  0.38946944961E-01  0.13015564013E+00  0.20099970278E-01 0.  0.
         14    1    1    2    0    0  0.97310342425E-02  0.89241509189E-02  0.19051981875E-01  0.23179980811E-01  0.00000000000E+00 0.  1.
     999901    1    3    3    0    0 -0.98001772277E-01  0.76092871716E-01 -0.57998926835E-01  0.89059437906E+00  0.88000000000E+00 0.  1.
        -11    1    4    4    0    0  0.42069164482E-01 -0.29039425491E-01  0.21795247269E-01  0.55573345747E-01  0.51100000000E-03 0. -1.
         11    1    4    4    0    0  0.46201573553E-01 -0.55977597144E-01  0.17151697692E-01  0.74582294384E-01  0.51100000000E-03 0.  1.
</event>
<event>
 8    1  0.1070112E+005  0.1043930E+01  0.7957747E-01            NaN
         13   -1    0    0    0    0  0.00000000000E+00  0.00000000000E+00  0.74505805969E-08  0.10566000000E+00  0.10566000000E+00 0. -1.
     999900   -1    0    0    0    0 -0.00000000000E+00 -0.00000000000E+00 -0.74505805969E-08  0.93827000000E+00  0.93827000000E+00 0.  1.
     999902    2    1    2    0    0 -0.19165311700E-01  0.87880403865E-02 -0.48787095535E-02  0.10222888209E+01  0.10220597305E+01 0.  0.
     999903    2    3    3    0    0 -0.18690626552E-01  0.10927291728E+00  0.71198055707E-01  0.13330900671E+00  0.20303156408E-01 0.  0.
         14    1    1    2    0    0  0.19165311700E-01 -0.87880403865E-02  0.48787095535E-02  0.21641179111E-01  0.00000000000E+00 0. -1.
     999901    1    3    3    0    0 -0.47468514806E-03 -0.10048487690E+00 -0.76076765261E-01  0.88897981418E+00  0.88000000000E+00 0. -1.
        -11    1    4    4    0    0 -0.15433077485E-02  0.67815139772E-01  0.43260570434E-01  0.80455037483E-01  0.51100000000E-03 0.  1.
         11    1    4    4    0    0 -0.17147318803E-01  0.41457777512E-01  0.27937485274E-01  0.52853969225E-01  0.51100000000E-03 0. -1.
</event>
<event>
 8    1  0.1070112E+005  0.1043930E+01  0.7957747E-01            NaN
         13   -1    0    0    0    0  0.00000000000E+00  0.00000000000E+00  0.74505805969E-08  0.10566000000E+00  0.10566000000E+00 0.  1.
     999900   -1    0    0    0    0 -0.00000000000E+00 -0.00000000000E+00 -0.74505805969E-08  0.93827000000E+00  0.93827000000E+00 0.  1.
     999902    2    1    2    0    0 -0.19925690320E-01  0.14127907724E-01  0.78203038545E-02  0.10182826207E+01  0.10179595805E+01 0.  0.
     999903    2    3    3    0    0 -0.27972088413E-01  0.10161807857E+00  0.75144181192E-01  0.13134870042E+00  0.22297118952E-01 0.  0.
         14    1    1    2    0    0  0.19925690320E-01 -0.14127907724E-01 -0.78203038545E-02  0.25647379277E-01  0.00000000000E+00 0.  1.
     999901    1    3    3    0    0  0.80463980927E-02 -0.87490170847E-01 -0.67323877337E-01  0.88693392030E+00  0.88000000000E+00 0.  1.
        -11    1    4    4    0    0  0.14371005173E-02  0.30094129395E-01  0.17036804637E-01  0.34615541527E-01  0.51100000000E-03 0. -1.
         11    1    4    4    0    0 -0.29409188930E-01  0.71523949176E-01  0.58107376554E-01  0.96733158897E-01  0.51100000000E-03 0.  1.
</event>
<event>
 8    1  0.1070112E+005  0.1043930E+01  0.7957747E-01            NaN
         13   -1    0    0    0    0  0.00000000000E+00  0.00000000000E+00  0.74505805969E-08  0.10566000000E+00  0.10566000000E+00 0.  1.
     999900   -1    0    0    0    0 -0.00000000000E+00 -0.00000000000E+00 -0.74505805969E-08  0.93827000000E+00  0.93827000000E+00 0.  1.
     999902    2    1    2    0    0 -0.11180539893E-01 -0.43103703963E-02  0.20589819313E-01  0.10201072289E+01  0.10198290219E+01 0.  0.
     999903    2    3    3    0    0 -0.80723858066E-01  0.10189483294E+00  0.66740876560E-02  0.13088877094E+00  0.13726932372E-01 0.  0.
         14    1    1    2    0    0  0.11180539893E-01  0.43103703963E-02 -0.20589819313E-01  0.23822771136E-01  0.00000000000E+00 0. -1.
     999901    1    3    3    0    0  0.69543318174E-01 -0.10620520334E+00  0.13915731658E-01  0.88921845792E+00  0.88000000000E+00 0. -1.
        -11    1    4    4    0    0 -0.30402942816E-01  0.38141713002E-01 -0.41226844938E-02  0.48952904419E-01  0.51100000000E-03 0.  1.
         11    1    4    4    0    0 -0.50320915250E-01  0.63753119938E-01  0.10796772150E-01  0.81935866525E-01  0.51100000000E-03 0. -1.
</event>
<event>
 8    1  0.1070112E+005  0.1043930E+01  0.7957747E-01            NaN
         13   -1    0    0    0    0  0.00000000000E+00  0.00000000000E+00  0.74505805969E-08  0.10566000000E+00  0.10566000000E+00 0. -1.
     999900   -1    0    0    0    0 -0.00000000000E+00 -0.00000000000E+00 -0.74505805969E-08  0.93827000000E+00  0.93827000000E+00 0.  1.
     999902    2    1    2    0    0 -0.69033655324E-02 -0.14063180388E-01 -0.17937951750E-01  0.10201140471E+01  0.10198360013E+01 0.  0.
     999903    2    3    3    0    0 -0.10524595219E+00  0.68537462884E-01 -0.29870411728E-01  0.13071171172E+00  0.20474760418E-01 0.  0.
         14    1    1    2    0    0  0.69033655324E-02  0.14063180388E-01  0.17937951750E-01  0.23815952874E-01  0.00000000000E+00 0. -1.
     999901    1    3    3    0    0  0.98342586656E-01 -0.82600643272E-01  0.11932459978E-01  0.88940233540E+00  0.88000000000E+00 0. -1.
        -11    1    4    4    0    0 -0.48036650718E-01  0.22384366649E-01 -0.19523235941E-01  0.56480063253E-01  0.51100000000E-03 0. -1.
         11    1    4    4    0    0 -0.57209301470E-01  0.46153096235E-01 -0.10347175788E-01  0.74231648470E-01  0.51100000000E-03 0.  1.
</event>
<event>
 8    1  0.1070112E+005  0.1043930E+01  0.7957747E-01            NaN
         13   -1    0    0    0    0  0.00000000000E+00  0.00000000000E+00  0.74505805969E-08  0.10566000000E+00  0.10566000000E+00 0. -1.
     999900   -1    0    0    0    0 -0.00000000000E+00 -0.00000000000E+00 -0.74505805969E-08  0.93827000000E+00  0.93827000000E+00 0. -1.
     999902    2    1    2    0    0 -0.11512348434E-02  0.21682509842E-01 -0.91761959236E-02  0.10203575766E+01  0.10200852537E+01 0.  0.
     999903    2    3    3    0    0 -0.62667433217E-02  0.11708716488E+00  0.56963357246E-01  0.13271876651E+00  0.24915269716E-01 0.  0.
         14    1    1    2    0    0  0.11512348434E-02 -0.21682509842E-01  0.91761959236E-02  0.23572423430E-01  0.00000000000E+00 0. -1.
     999901    1    3    3    0    0  0.51155084783E-02 -0.95404655034E-01 -0.66139553170E-01  0.88763881006E+00  0.88000000000E+00 0.  1.
        -11    1    4    4    0    0 -0.76005351551E-02  0.61445560000E-01  0.17029513174E-01  0.64215188376E-01  0.51100000000E-03 0. -1.
         11    1    4    4    0    0  0.13337918335E-02  0.55641604876E-01  0.39933844073E-01  0.68503578135E-01  0.51100000000E-03 0.  1.
</event>
<event>
 8    1  0.1070112E+005  0.1043930E+01  0.7957747E-01            NaN
         13   -1    0    0    0    0  0.00000000000E+00  0.00000000000E+00  0.74505805969E-08  0.10566000000E+00  0.10566000000E+00 0. -1.
     999900   -1    0    0    0    0 -0.00000000000E+00 -0.00000000000E+00 -0.74505805969E-08  0.93827000000E+00  0.93827000000E+00 0.  1.
     999902    2    1    2    0    0 -0.22517652382E-01 -0.49146554324E-02 -0.44849180317E-02  0.10204499447E+01  0.10201797766E+01 0.  0.
     999903    2    3    3    0    0 -0.12878287831E+00  0.28652481371E-01 -0.41667850757E-02  0.13342167451E+00  0.19441879991E-01 0.  0.
         14    1    1    2    0    0  0.22517652382E-01  0.49146554324E-02  0.44849180317E-02  0.23480055293E-01  0.00000000000E+00 0.  1.
     999901    1    3    3    0    0  0.10626522593E+00 -0.33567136803E-01 -0.31813295602E-03  0.88702827019E+00  0.88000000000E+00 0.  1.
        -11    1    4    4    0    0 -0.47423918709E-01  0.26964927260E-02 -0.67594599529E-02  0.47981773191E-01  0.51100000000E-03 0. -1.
         11    1    4    4    0    0 -0.81358959600E-01  0.25955988645E-01  0.25926748773E-02  0.85439901321E-01  0.51100000000E-03 0.  1.
</event>
<event>
 8    1  0.1070112E+005  0.1043930E+01  0.7957747E-01            NaN
         13   -1    0    0    0    0  0.00000000000E+00  0.00000000000E+00  0.74505805969E-08  0.10566000000E+00  0.10566000000E+00 0. -1.
     999900   -1    0    0    0    0 -0.00000000000E+00 -0.00000000000E+00 -0.74505805969E-08  0.93827000000E+00  0.93827000000E+00 0.  1.
     999902    2    1    2    0    0 -0.65045050569E-02  0.67730618906E-02 -0.21515612639E-01  0.10204543841E+01  0.10201843194E+01 0.  0.
     999903    2    3    3    0    0 -0.11269303750E+00 -0.62079475664E-01  0.12879444197E-01  0.13073549803E+00  0.19295293767E-01 0.  0.
         14    1    1    2    0    0  0.65045050569E-02 -0.67730618906E-02  0.21515612639E-01  0.23475615873E-01  0.00000000000E+00 0. -1.
     999901    1    3    3    0    0  0.10618853244E+00  0.68852537554E-01 -0.34395056836E-01  0.88971888610E+00  0.88000000000E+00 0. -1.
        -11    1    4    4    0    0 -0.21791397854E-01 -0.18091633476E-01 -0.30851545767E-02  0.28494763063E-01  0.51100000000E-03 0.  1.
         11    1    4    4    0    0 -0.90901639646E-01 -0.43987842188E-01  0.15964598774E-01  0.10224073496E+00  0.51100000000E-03 0. -1.
</event>
<event>
 8    1  0.1070112E+005  0.1043930E+01  0.7957747E-01            NaN
         13   -1    0    0    0    0  0.00000000000E+00  0.00000000000E+00  0.74505805969E-08  0.10566000000E+00  0.10566000000E+00 0.  1.
     999900   -1    0    0    0    0 -0.00000000000E+00 -0.00000000000E+00 -0.74505805969E-08  0.93827000000E+00  0.93827000000E+00 0. -1.
     999902    2    1    2    0    0 -0.18771530935E-01 -0.13929062770E-01  0.57773470158E-02  0.10198516508E+01  0.10195673703E+01 0.  0.
     999903    2    3    3    0    0  0.23688171665E-01 -0.52415387401E-02  0.12668280770E+00  0.13052807082E+00  0.20011004526E-01 0.  0.
         14    1    1    2    0    0  0.18771530935E-01  0.13929062770E-01 -0.57773470158E-02  0.24078349234E-01  0.00000000000E+00 0. -1.
     999901    1    3    3    0    0 -0.42459702600E-01 -0.86875240302E-02 -0.12090546068E+00  0.88932357994E+00  0.88000000000E+00 0.  1.
        -11    1    4    4    0    0  0.25661863817E-01 -0.73082525147E-03  0.11514385446E+00  0.11797217342E+00  0.51100000000E-03 0. -1.
         11    1    4    4    0    0 -0.19736921521E-02 -0.45107134886E-02  0.11538953238E-01  0.12555897407E-01  0.51100000000E-03 0.  1.
</event>
<event>
 8    1  0.1070112E+005  0.1043930E+01  0.7957747E-01            NaN
         13   -1    0    0    0    0  0.00000000000E+00  0.00000000000E+00  0.74505805969E-08  0.10566000000E+00  0.10566000000E+00 0.  1.
     999900   -1    0    0    0    0 -0.00000000000E+00 -0.00000000000E+00 -0.74505805969E-08  0.93827000000E+00  0.93827000000E+00 0.  1.
     999902    2    1    2    0    0 -0.23138658484E-01  0.87292859990E-02 -0.39597464063E-02  0.10188844906E+01  0.10185766184E+01 0.  0.
     999903    2    3    3    0    0 -0.12482368302E+00 -0.19989979059E-01 -0.33144621550E-01  0.13208327422E+00  0.19153962673E-01 0.  0.
         14    1    1    2    0    0  0.23138658484E-01 -0.87292859990E-02  0.39597464063E-02  0.25045509420E-01  0.00000000000E+00 0. -1.
     999901    1    3    3    0    0  0.10168502453E+00  0.28719265058E-01  0.29184875143E-01  0.88680121636E+00  0.88000000000E+00 0. -1.
        -11    1    4    4    0    0 -0.42440881394E-01  0.18512179986E-02 -0.81020000113E-02  0.43249958922E-01  0.51100000000E-03 0.  1.
         11    1    4    4    0    0 -0.82382801624E-01 -0.21841197058E-01 -0.25042621538E-01  0.88833315298E-01  0.51100000000E-03 0. -1.
</event>
<event>
 8    1  0.1070112E+005  0.1043930E+01  0.7957747E-01            NaN
         13   -1    0    0    0    0  0.00000000000E+00  0.00000000000E+00  0.74505805969E-08  0.10566000000E+00  0.10566000000E+00 0.  1.
     999900   -1    0    0    0    0 -0.00000000000E+00 -0.00000000000E+00 -0.74505805969E-08  0.93827000000E+00  0.93827000000E+00 0.  1.
     999902    2    1    2    0    0 -0.16756918393E-01 -0.13128853289E-02 -0.16580419795E-01  0.10203200804E+01  0.10200468804E+01 0.  0.
     999903    2    3    3    0    0  0.11387064603E+00  0.56435274422E-01 -0.50713444694E-02  0.12873112280E+00  0.19862507808E-01 0.  0.
         14    1    1    2    0    0  0.16756918393E-01  0.13128853289E-02  0.16580419795E-01  0.23609919578E-01  0.00000000000E+00 0.  1.
     999901    1    3    3    0    0 -0.13062756442E+00 -0.57748159751E-01 -0.11509075325E-01  0.89158895762E+00  0.88000000000E+00 0. -1.
        -11    1    4    4    0    0  0.57594914076E-01  0.31085443704E-01 -0.12264768541E-01  0.66589523246E-01  0.51100000000E-03 0.  1.
         11    1    4    4    0    0  0.56275731952E-01  0.25349830718E-01  0.71934240720E-02  0.62141599553E-01  0.51100000000E-03 0. -1.
</event>
<event>
 8    1  0.1070112E+005  0.1043930E+01  0.7957747E-01            NaN
         13   -1    0    0    0    0  0.00000000000E+00  0.00000000000E+00  0.74505805969E-08  0.10566000000E+00  0.10566000000E+00 0. -1.
     999900   -1    0    0    0    0 -0.00000000000E+00 -0.00000000000E+00 -0.74505805969E-08  0.93827000000E+00  0.93827000000E+00 0.  1.
     999902    2    1    2    0    0  0.17516760811E-01 -0.14939680998E-01  0.58545683615E-02  0.10201748543E+01  0.10198982431E+01 0.  0.
     999903    2    3    3    0    0  0.12965423285E+00 -0.13673581337E-01  0.15901036012E-01  0.13300105667E+00  0.20958320711E-01 0.  0.
         14    1    1    2    0    0 -0.17516760811E-01  0.14939680998E-01 -0.58545683615E-02  0.23755145723E-01  0.00000000000E+00 0. -1.
     999901    1    3    3    0    0 -0.11213747204E+00 -0.12660996606E-02 -0.10046467651E-01  0.88717379760E+00  0.88000000000E+00 0. -1.
        -11    1    4    4    0    0  0.41931214340E-01  0.14778788498E-02  0.13009200315E-01  0.43930755465E-01  0.51100000000E-03 0.  1.
         11    1    4    4    0    0  0.87723018511E-01 -0.15151460187E-01  0.28918356975E-02  0.89070301208E-01  0.51100000000E-03 0. -1.
</event>
<event>
 8    1  0.1070112E+005  0.1043930E+01  0.7957747E-01            NaN
         13   -1    0    0    0    0  0.00000000000E+00  0.00000000000E+00  0.74505805969E-08  0.10566000000E+00  0.10566000000E+00 0. -1.
     999900   -1    0    0    0    0 -0.00000000000E+00 -0.00000000000E+00 -0.74505805969E-08  0.93827000000E+00  0.93827000000E+00 0. -1.
     999902    2    1    2    0    0  0.89876256038E-02  0.12352312859E-01  0.15014263978E-01  0.10225107290E+01  0.10222863619E+01 0.  0.
     999903    2    3    3    0    0 -0.78582218557E-01 -0.99095777556E-01 -0.23815717526E-01  0.13032413310E+00  0.20543930083E-01 0.  0.
         14    1    1    2    0    0 -0.89876256038E-02 -0.12352312859E-01 -0.15014263978E-01  0.21419270990E-01  0.00000000000E+00 0. -1.
     999901    1    3    3    0    0  0.87569844161E-01  0.11144809042E+00  0.38829981503E-01  0.89218659591E+00  0.88000000000E+00 0. -1.
        -11    1    4    4    0    0 -0.23971371687E-01 -0.36832070569E-01 -0.17354584604E-01  0.47251146131E-01  0.51100000000E-03 0. -1.
         11    1    4    4    0    0 -0.54610846870E-01 -0.62263706988E-01 -0.64611329216E-02  0.83072986966E-01  0.51100000000E-03 0.  1.
</event>
<event>
 7    1  0.1070112E+005  0.1043930E+01  0.7957747E-01            NaN
         13   -1    0    0    0    0  0.00000000000E+00  0.00000000000E+00  0.74505805969E-08  0.10566000000E+00  0.10566000000E+00 0.  1.
     999900   -1    0    0    0    0 -0.00000000000E+00 -0.00000000000E+00 -0.74505805969E-08  0.93827000000E+00  0.93827000000E+00 0.  1.
     999903    2    1    2    0    0  0.38079270421E-01 -0.47323782811E-01  0.82762877855E-01  0.10357988067E+00  0.13766861402E-01 0.  0.
         14    1    1    2    0    0  0.23777707335E-01 -0.40167265758E-01  0.13627004526E-01  0.48625958674E-01  0.00000000000E+00 0.  1.
     999901    1    1    2    0    0 -0.61856977756E-01  0.87491048569E-01 -0.96389882381E-01  0.89172416066E+00  0.88000000000E+00 0.  1.
        -11    1    3    3    0    0  0.10283015766E-01 -0.20043236797E-01  0.22635749063E-01  0.31939161090E-01  0.51100000000E-03 0. -1.
         11    1    3    3    0    0  0.27796254655E-01 -0.27280546015E-01  0.60127128793E-01  0.71640719577E-01  0.51100000000E-03 0.  1.
</event>
<event>
 8    1  0.1070112E+005  0.1043930E+01  0.7957747E-01            NaN
         13   -1    0    0    0    0  0.00000000000E+00  0.00000000000E+00  0.74505805969E-08  0.10566000000E+00  0.10566000000E+00 0. -1.
     999900   -1    0    0    0    0 -0.00000000000E+00 -0.00000000000E+00 -0.74505805969E-08  0.93827000000E+00  0.93827000000E+00 0. -1.
     999902    2    1    2    0    0 -0.23008569119E-01  0.48654261358E-02  0.21871835644E-02  0.10203111432E+01  0.10200377339E+01 0.  0.
     999903    2    3    3    0    0 -0.21259615270E-02 -0.10151675524E+00 -0.78438859936E-01  0.13000006796E+00  0.20909127566E-01 0.  0.
         14    1    1    2    0    0  0.23008569119E-01 -0.48654261358E-02 -0.21871835644E-02  0.23618856796E-01  0.00000000000E+00 0.  1.
     999901    1    3    3    0    0 -0.20882607592E-01  0.10638218137E+00  0.80626043500E-01  0.89031107524E+00  0.88000000000E+00 0.  1.
        -11    1    4    4    0    0 -0.21513720936E-02 -0.78096206820E-01 -0.48392839145E-01  0.91900891851E-01  0.51100000000E-03 0.  1.
         11    1    4    4    0    0  0.25410566599E-04 -0.23420548415E-01 -0.30046020791E-01  0.38099176108E-01  0.51100000000E-03 0. -1.
</event>
<event>
 8    1  0.1070112E+005  0.1043930E+01  0.7957747E-01            NaN
         13   -1    0    0    0    0  0.00000000000E+00  0.00000000000E+00  0.74505805969E-08  0.10566000000E+00  0.10566000000E+00 0.  1.
     999900   -1    0    0    0    0 -0.00000000000E+00 -0.00000000000E+00 -0.74505805969E-08  0.93827000000E+00  0.93827000000E+00 0. -1.
     999902    2    1    2    0    0 -0.75799101418E-02  0.15236375134E-01  0.13430195028E-01  0.10222511554E+01  0.10220212583E+01 0.  0.
     999903    2    3    3    0    0  0.10847642857E+00  0.12938984634E-01 -0.68600414571E-01  0.13084587570E+00  0.21910578018E-01 0.  0.
         14    1    1    2    0    0  0.75799101418E-02 -0.15236375134E-01 -0.13430195028E-01  0.21678844607E-01  0.00000000000E+00 0.  1.
     999901    1    3    3    0    0 -0.11605633871E+00  0.22973904998E-02  0.82030609599E-01  0.89140527970E+00  0.88000000000E+00 0.  1.
        -11    1    4    4    0    0  0.77529220865E-01  0.12627406989E-02 -0.55060918911E-01  0.95101737704E-01  0.51100000000E-03 0.  1.
         11    1    4    4    0    0  0.30947207705E-01  0.11676243935E-01 -0.13539495660E-01  0.35744137993E-01  0.51100000000E-03 0. -1.
</event>
<event>
 7    1  0.1070112E+005  0.1043930E+01  0.7957747E-01            NaN
         13   -1    0    0    0    0  0.00000000000E+00  0.00000000000E+00  0.74505805969E-08  0.10566000000E+00  0.10566000000E+00 0.  1.
     999900   -1    0    0    0    0 -0.00000000000E+00 -0.00000000000E+00 -0.74505805969E-08  0.93827000000E+00  0.93827000000E+00 0. -1.
     999903    2    1    2    0    0  0.77842563540E-01  0.25084195357E-01 -0.76635667560E-01  0.11356246261E+00  0.18295513544E-01 0.  0.
         14    1    1    2    0    0  0.16324198942E-01  0.11025626008E-01  0.39135717887E-01  0.43813791374E-01  0.00000000000E+00 0.  1.
     999901    1    1    2    0    0 -0.94166762482E-01 -0.36109821365E-01  0.37499949673E-01  0.88655374602E+00  0.88000000000E+00 0.  1.
        -11    1    3    3    0    0  0.33539465177E-01  0.19573660963E-01 -0.30712698166E-01  0.49513178826E-01  0.51100000000E-03 0.  1.
         11    1    3    3    0    0  0.44303098363E-01  0.55105343940E-02 -0.45922969394E-01  0.64049283781E-01  0.51100000000E-03 0. -1.
</event>
<event>
 8    1  0.1070112E+005  0.1043930E+01  0.7957747E-01            NaN
         13   -1    0    0    0    0  0.00000000000E+00  0.00000000000E+00  0.74505805969E-08  0.10566000000E+00  0.10566000000E+00 0.  1.
     999900   -1    0    0    0    0 -0.00000000000E+00 -0.00000000000E+00 -0.74505805969E-08  0.93827000000E+00  0.93827000000E+00 0. -1.
     999902    2    1    2    0    0  0.80638096575E-02  0.17072616390E-01 -0.11839088451E-01  0.10216440566E+01  0.10214009571E+01 0.  0.
     999903    2    3    3    0    0  0.11224267835E-01 -0.11924906404E+00 -0.46384003614E-01  0.13047238954E+00  0.22918228073E-01 0.  0.
         14    1    1    2    0    0 -0.80638096575E-02 -0.17072616390E-01  0.11839088451E-01  0.22285943371E-01  0.00000000000E+00 0.  1.
     999901    1    3    3    0    0 -0.31604581777E-02  0.13632168043E+00  0.34544915164E-01  0.89117166709E+00  0.88000000000E+00 0.  1.
        -11    1    4    4    0    0 -0.46237422079E-02 -0.62937243484E-01 -0.28919399492E-01  0.69419510207E-01  0.51100000000E-03 0. -1.
         11    1    4    4    0    0  0.15848010043E-01 -0.56311820560E-01 -0.17464604122E-01  0.61052879336E-01  0.51100000000E-03 0.  1.
</event>
<event>
 8    1  0.1070112E+005  0.1043930E+01  0.7957747E-01            NaN
         13   -1    0    0    0    0  0.00000000000E+00  0.00000000000E+00  0.74505805969E-08  0.10566000000E+00  0.10566000000E+00 0. -1.
     999900   -1    0    0    0    0 -0.00000000000E+00 -0.00000000000E+00 -0.74505805969E-08  0.93827000000E+00  0.93827000000E+00 0. -1.
     999902    2    1    2    0    0 -0.22202350199E-01 -0.10036881007E-02 -0.46222297909E-02  0.10212294107E+01  0.10209770774E+01 0.  0.
     999903    2    3    3    0    0 -0.90120099395E-01 -0.71906199932E-01 -0.64493948326E-01  0.13374723655E+00  0.20897847022E-01 0.  0.
         14    1    1    2    0    0  0.22202350199E-01  0.10036881007E-02  0.46222297909E-02  0.22700589252E-01  0.00000000000E+00 0.  1.
     999901    1    3    3    0    0  0.67917749197E-01  0.70902511831E-01  0.59871718535E-01  0.88748217420E+00  0.88000000000E+00 0.  1.
        -11    1    4    4    0    0 -0.47062429308E-01 -0.50673161555E-01 -0.38269729787E-01  0.79040969714E-01  0.51100000000E-03 0.  1.
         11    1    4    4    0    0 -0.43057670088E-01 -0.21233038377E-01 -0.26224218539E-01  0.54706266836E-01  0.51100000000E-03 0. -1.
</event>
<event>
 8    1  0.1070112E+005  0.1043930E+01  0.7957747E-01            NaN
         13   -1    0    0    0    0  0.00000000000E+00  0.00000000000E+00  0.74505805969E-08  0.10566000000E+00  0.10566000000E+00 0.  1.
     999900   -1    0    0    0    0 -0.00000000000E+00 -0.00000000000E+00 -0.74505805969E-08  0.93827000000E+00  0.93827000000E+00 0. -1.
     999902    2    1    2    0    0  0.13485055111E-01  0.11557763041E-01 -0.16018239162E-01  0.10200132154E+01  0.10197327822E+01 0.  0.
     999903    2    3    3    0    0 -0.11185302859E+00  0.46185246280E-01 -0.43144756041E-01  0.13004437006E+00  0.20146742497E-01 0.  0.
         14    1    1    2    0    0 -0.13485055111E-01 -0.11557763041E-01  0.16018239162E-01  0.23916784561E-01  0.00000000000E+00 0.  1.
     999901    1    3    3    0    0  0.12533808370E+00 -0.34627483239E-01  0.27126516879E-01  0.88996884538E+00  0.88000000000E+00 0. -1.
        -11    1    4    4    0    0 -0.88865238534E-01  0.37100159263E-01 -0.42634723060E-01  0.10531587330E+00  0.51100000000E-03 0. -1.
         11    1    4    4    0    0 -0.22987790054E-01  0.90850870173E-02 -0.51003298088E-03  0.24728496766E-01  0.51100000000E-03 0.  1.
</event>
<event>
 8    1  0.1070112E+005  0.1043930E+01  0.7957747E-01            NaN
         13   -1    0    0    0    0  0.00000000000E+00  0.00000000000E+00  0.74505805969E-08  0.10566000000E+00  0.10566000000E+00 0. -1.
     999900   -1    0    0    0    0 -0.00000000000E+00 -0.00000000000E+00 -0.74505805969E-08  0.93827000000E+00  0.93827000000E+00 0.  1.
     999902    2    1    2    0    0  0.15925140765E-01  0.17435118337E-01  0.30902046627E-02  0.10201152394E+01  0.10198372217E+01 0.  0.
     999903    2    3    3    0    0 -0.44406592947E-01 -0.59584900589E-01  0.10359343723E+00  0.12900755722E+00  0.19724190903E-01 0.  0.
         14    1    1    2    0    0 -0.15925140765E-01 -0.17435118337E-01 -0.30902046627E-02  0.23814760647E-01  0.00000000000E+00 0.  1.
     999901    1    3    3    0    0  0.60331733712E-01  0.77020018926E-01 -0.10050323256E+00  0.89110768214E+00  0.88000000000E+00 0.  1.
        -11    1    4    4    0    0 -0.19509335977E-01 -0.32846266396E-01  0.37780868865E-01  0.53732174529E-01  0.51100000000E-03 0. -1.
         11    1    4    4    0    0 -0.24897256970E-01 -0.26738634192E-01  0.65812568362E-01  0.75275382686E-01  0.51100000000E-03 0.  1.
</event>
<event>
 8    1  0.1070112E+005  0.1043930E+01  0.7957747E-01            NaN
         13   -1    0    0    0    0  0.00000000000E+00  0.00000000000E+00  0.74505805969E-08  0.10566000000E+00  0.10566000000E+00 0. -1.
     999900   -1    0    0    0    0 -0.00000000000E+00 -0.00000000000E+00 -0.74505805969E-08  0.93827000000E+00  0.93827000000E+00 0. -1.
     999902    2    1    2    0    0  0.13295033197E-01 -0.78772480678E-02  0.17198387548E-01  0.10208087224E+01  0.10205468408E+01 0.  0.
     999903    2    3    3    0    0  0.11168119095E+00  0.55589215531E-01  0.40601075629E-01  0.13274593526E+00  0.20253066193E-01 0.  0.
         14    1    1    2    0    0 -0.13295033197E-01  0.78772480678E-02 -0.17198387548E-01  0.23121277627E-01  0.00000000000E+00 0.  1.
     999901    1    3    3    0    0 -0.98386157758E-01 -0.63466463599E-01 -0.23402688081E-01  0.88806278711E+00  0.88000000000E+00 0. -1.
        -11    1    4    4    0    0  0.10843055089E+00  0.49228025626E-01  0.36811246854E-01  0.12464313815E+00  0.51100000000E-03 0.  1.
         11    1    4    4    0    0  0.32506400667E-02  0.63611899048E-02  0.37898287750E-02  0.81027971091E-02  0.51100000000E-03 0. -1.
</event>
<event>
 8    1  0.1070112E+005  0.1043930E+01  0.7957747E-01            NaN
         13   -1    0    0    0    0  0.00000000000E+00  0.00000000000E+00  0.74505805969E-08  0.10566000000E+00  0.10566000000E+00 0.  1.
     999900   -1    0    0    0    0 -0.00000000000E+00 -0.00000000000E+00 -0.74505805969E-08  0.93827000000E+00  0.93827000000E+00 0.  1.
     999902    2    1    2    0    0 -0.47003530837E-02  0.48263837271E-02 -0.23251765517E-01  0.10197219043E+01  0.10194345149E+01 0.  0.
     999903    2    3    3    0    0 -0.10228878491E+00 -0.46131401778E-01 -0.66083697654E-01  0.13182845777E+00  0.20508179719E-01 0.  0.
         14    1    1    2    0    0  0.47003530837E-02 -0.48263837271E-02  0.23251765517E-01  0.24208095725E-01  0.00000000000E+00 0.  1.
     999901    1    3    3    0    0  0.97588431824E-01  0.50957785506E-01  0.42831932137E-01  0.88789344650E+00  0.88000000000E+00 0.  1.
        -11    1    4    4    0    0 -0.45205586011E-01 -0.27311759306E-01 -0.40240699610E-01  0.66400694492E-01  0.51100000000E-03 0.  1.
         11    1    4    4    0    0 -0.57083198897E-01 -0.18819642473E-01 -0.25842998044E-01  0.65427763281E-01  0.51100000000E-03 0. -1.
</event>
<event>
 8    1  0.1070112E+005  0.1043930E+01  0.7957747E-01            NaN
         13   -1    0    0    0    0  0.00000000000E+00  0.00000000000E+00  0.74505805969E-08  0.10566000000E+00  0.10566000000E+00 0. -1.
     999900   -1    0    0    0    0 -0.00000000000E+00 -0.00000000000E+00 -0.74505805969E-08  0.93827000000E+00  0.93827000000E+00 0. -1.
     999902    2    1    2    0    0 -0.52293542570E-02 -0.22860877794E-01 -0.19284685183E-03  0.10204778558E+01  0.10202083371E+01 0.  0.
     999903    2    3    3    0    0  0.73382420152E-01 -0.10848264568E+00 -0.84220815681E-02  0.13279625828E+00  0.20259584233E-01 0.  0.
         14    1    1    2    0    0  0.52293542570E-02  0.22860877794E-01  0.19284685183E-03  0.23452144239E-01  0.00000000000E+00 0.  1.
     999901    1    3    3    0    0 -0.78611774409E-01  0.85621767884E-01  0.82292347162E-02  0.88768159749E+00  0.88000000000E+00 0. -1.
        -11    1    4    4    0    0  0.28803490729E-01 -0.26212129076E-01 -0.18481000996E-02  0.38992222095E-01  0.51100000000E-03 0. -1.
         11    1    4    4    0    0  0.44578929422E-01 -0.82270516602E-01 -0.65739814685E-02  0.93804036181E-01  0.51100000000E-03 0.  1.
</event>
<event>
 8    1  0.1070112E+005  0.1043930E+01  0.7957747E-01            NaN
         13   -1    0    0    0    0  0.00000000000E+00  0.00000000000E+00  0.74505805969E-08  0.10566000000E+00  0.10566000000E+00 0. -1.
     999900   -1    0    0    0    0 -0.00000000000E+00 -0.00000000000E+00 -0.74505805969E-08  0.93827000000E+00  0.93827000000E+00 0. -1.
     999902    2    1    2    0    0  0.90164024901E-02 -0.83415234456E-03  0.19060182173E-01  0.10228282970E+01  0.10226106020E+01 0.  0.
     999903    2    3    3    0    0 -0.59470150125E-01 -0.43361079895E-04  0.11893542690E+00  0.13453437171E+00  0.20424513813E-01 0.  0.
         14    1    1    2    0    0 -0.90164024901E-02  0.83415234456E-03 -0.19060182173E-01  0.21101702976E-01  0.00000000000E+00 0.  1.
     999901    1    3    3    0    0  0.68486552615E-01 -0.79079126466E-03 -0.99875244723E-01  0.88829392531E+00  0.88000000000E+00 0. -1.
        -11    1    4    4    0    0 -0.41775023854E-01 -0.38382309765E-02  0.62577586266E-01  0.75339896860E-01  0.51100000000E-03 0. -1.
         11    1    4    4    0    0 -0.17695126270E-01  0.37948698966E-02  0.56357840631E-01  0.59194474851E-01  0.51100000000E-03 0.  1.
</event>
<event>
 8    1  0.1070112E+005  0.1043930E+01  0.7957747E-01            NaN
         13   -1    0    0    0    0  0.00000000000E+00  0.00000000000E+00  0.74505805969E-08  0.10566000000E+00  0.10566000000E+00 0.  1.
     999900   -1    0    0    0    0 -0.00000000000E+00 -0.00000000000E+00 -0.74505805969E-08  0.93827000000E+00  0.93827000000E+00 0.  1.
     999902    2    1    2    0    0 -0.11775457487E-01  0.20568429820E-01 -0.31143029315E-02  0.10200255948E+01  0.10197454552E+01 0.  0.
     999903    2    3    3    0    0 -0.11303176345E+00  0.43744495900E-02  0.64640989098E-01  0.13148416973E+00  0.17728904660E-01 0.  0.
         14    1    1    2    0    0  0.11775457487E-01 -0.20568429820E-01  0.31143029315E-02  0.23904405180E-01  0.00000000000E+00 0.  1.
     999901    1    3    3    0    0  0.10125630597E+00  0.16193980230E-01 -0.67755292029E-01  0.88854142508E+00  0.88000000000E+00 0. -1.
        -11    1    4    4    0    0 -0.44119102617E-01 -0.69122166892E-02  0.24654032388E-01  0.51013296201E-01  0.51100000000E-03 0. -1.
         11    1    4    4    0    0 -0.68912660837E-01  0.11286666279E-01  0.39986956710E-01  0.80470873534E-01  0.51100000000E-03 0.  1.
</event>
<event>
 8    1  0.1070112E+005  0.1043930E+01  0.7957747E-01            NaN
         13   -1    0    0    0    0  0.00000000000E+00  0.00000000000E+00  0.74505805969E-08  0.10566000000E+00  0.10566000000E+00 0. -1.
     999900   -1    0    0    0    0 -0.00000000000E+00 -0.00000000000E+00 -0.74505805969E-08  0.93827000000E+00  0.93827000000E+00 0. -1.
     999902    2    1    2    0    0  0.41501412625E-02 -0.19855066680E-01  0.11699800696E-01  0.10205134955E+01  0.10202448049E+01 0.  0.
     999903    2    3    3    0    0  0.31597668583E-01  0.99927919799E-01  0.74254076499E-01  0.12977539259E+00  0.18546774105E-01 0.  0.
         14    1    1    2    0    0 -0.41501412625E-02  0.19855066680E-01 -0.11699800696E-01  0.23416504472E-01  0.00000000000E+00 0.  1.
     999901    1    3    3    0    0 -0.27447527321E-01 -0.11978298648E+00 -0.62554275803E-01  0.89073810294E+00  0.88000000000E+00 0.  1.
        -11    1    4    4    0    0  0.21206131802E-01  0.73085800842E-01  0.63254197242E-01  0.98957510581E-01  0.51100000000E-03 0.  1.
         11    1    4    4    0    0  0.10391536782E-01  0.26842118957E-01  0.10999879257E-01  0.30817882008E-01  0.51100000000E-03 0. -1.
</event>
<event>
 8    1  0.1070112E+005  0.1043930E+01  0.7957747E-01            NaN
         13   -1    0    0    0    0  0.00000000000E+00  0.00000000000E+00  0.74505805969E-08  0.10566000000E+00  0.10566000000E+00 0. -1.
     999900   -1    0    0    0    0 -0.00000000000E+00 -0.00000000000E+00 -0.74505805969E-08  0.93827000000E+00  0.93827000000E+00 0.  1.
     999902    2    1    2    0    0  0.64835711473E-02 -0.14045671896E-01 -0.17881229345E-01  0.10202856358E+01  0.10200116287E+01 0.  0.
     999903    2    3    3    0    0 -0.21395622840E-01  0.12180971240E+00  0.27552048447E-01  0.12826651181E+00  0.19945023611E-01 0.  0.
         14    1    1    2    0    0 -0.64835711473E-02  0.14045671896E-01  0.17881229345E-01  0.23644364164E-01  0.00000000000E+00 0. -1.
     999901    1    3    3    0    0  0.27879193988E-01 -0.13585538429E+00 -0.45433277792E-01  0.89201912403E+00  0.88000000000E+00 0.  1.
        -11    1    4    4    0    0 -0.14471851649E-01  0.43338773725E-01  0.17144699824E-01  0.48804565884E-01  0.51100000000E-03 0. -1.
         11    1    4    4    0    0 -0.69237711912E-02  0.78470938673E-01  0.10407348623E-01  0.79461945925E-01  0.51100000000E-03 0.  1.
</event>
<event>
 8    1  0.1070112E+005  0.1043930E+01  0.7957747E-01            NaN
         13   -1    0    0    0    0  0.00000000000E+00  0.00000000000E+00  0.74505805969E-08  0.10566000000E+00  0.10566000000E+00 0.  1.
     999900   -1    0    0    0    0 -0.00000000000E+00 -0.00000000000E+00 -0.74505805969E-08  0.93827000000E+00  0.93827000000E+00 0.  1.
     999902    2    1    2    0    0  0.19325272866E-01  0.91853876476E-02  0.62650299602E-02  0.10216345270E+01  0.10213912172E+01 0.  0.
     999903    2    3    3    0    0 -0.12524053440E-01 -0.81940483310E-01 -0.98103846774E-01  0.13022487569E+00  0.21518800569E-01 0.  0.
         14    1    1    2    0    0 -0.19325272866E-01 -0.91853876476E-02 -0.62650299602E-02  0.22295473038E-01  0.00000000000E+00 0.  1.
     999901    1    3    3    0    0  0.31849326306E-01  0.91125870958E-01  0.10436887673E+00  0.89140965127E+00  0.88000000000E+00 0. -1.
        -11    1    4    4    0    0 -0.91690341459E-02 -0.80771704434E-01 -0.89528851989E-01  0.12092897041E+00  0.51100000000E-03 0. -1.
         11    1    4    4    0    0 -0.33550192944E-02 -0.11687788758E-02 -0.85749947848E-02  0.92959052860E-02  0.51100000000E-03 0.  1.
</event>
<event>
 8    1  0.1070112E+005  0.1043930E+01  0.7957747E-01            NaN
         13   -1    0    0    0    0  0.00000000000E+00  0.00000000000E+00  0.74505805969E-08  0.10566000000E+00  0.10566000000E+00 0.  1.
     999900   -1    0    0    0    0 -0.00000000000E+00 -0.00000000000E+00 -0.74505805969E-08  0.93827000000E+00  0.93827000000E+00 0.  1.
     999902    2    1    2    0    0  0.17608929562E-01  0.10470975806E-01  0.12158354340E-01  0.10201068744E+01  0.10198286590E+01 0.  0.
     999903    2    3    3    0    0 -0.12048645235E+00  0.19041011982E-01 -0.33501665873E-01  0.12812670784E+00  0.20360410346E-01 0.  0.
         14    1    1    2    0    0 -0.17608929562E-01 -0.10470975806E-01 -0.12158354340E-01  0.23823125632E-01  0.00000000000E+00 0. -1.
     999901    1    3    3    0    0  0.13809538191E+00 -0.85700361761E-02  0.45660020213E-01  0.89198016652E+00  0.88000000000E+00 0. -1.
        -11    1    4    4    0    0 -0.72841816385E-01  0.10025358439E-01 -0.98947192745E-02  0.74193022694E-01  0.51100000000E-03 0.  1.
         11    1    4    4    0    0 -0.47644635966E-01  0.90156535430E-02 -0.23606946598E-01  0.53933685150E-01  0.51100000000E-03 0. -1.
</event>
<event>
 8    1  0.1070112E+005  0.1043930E+01  0.7957747E-01            NaN
         13   -1    0    0    0    0  0.00000000000E+00  0.00000000000E+00  0.74505805969E-08  0.10566000000E+00  0.10566000000E+00 0.  1.
     999900   -1    0    0    0    0 -0.00000000000E+00 -0.00000000000E+00 -0.74505805969E-08  0.93827000000E+00  0.93827000000E+00 0.  1.
     999902    2    1    2    0    0  0.75271648808E-03 -0.52167163611E-02 -0.22541135133E-01  0.10207808427E+01  0.10205183219E+01 0.  0.
     999903    2    3    3    0    0 -0.17336781508E-01  0.68104532184E-01  0.10540696265E+00  0.12832694966E+00  0.20454508976E-01 0.  0.
         14    1    1    2    0    0 -0.75271648808E-03  0.52167163611E-02  0.22541135133E-01  0.23149157324E-01  0.00000000000E+00 0.  1.
     999901    1    3    3    0    0  0.18089497996E-01 -0.73321248545E-01 -0.12794809779E+00  0.89245389301E+00  0.88000000000E+00 0.  1.
        -11    1    4    4    0    0 -0.16168302379E-01  0.27361657651E-01  0.54725993175E-01  0.63287200611E-01  0.51100000000E-03 0.  1.
         11    1    4    4    0    0 -0.11684791292E-02  0.40742874534E-01  0.50680969477E-01  0.65039749053E-01  0.51100000000E-03 0. -1.
</event>
<event>
 8    1  0.1070112E+005  0.1043930E+01  0.7957747E-01            NaN
         13   -1    0    0    0    0  0.00000000000E+00  0.00000000000E+00  0.74505805969E-08  0.10566000000E+00  0.10566000000E+00 0. -1.
     999900   -1    0    0    0    0 -0.00000000000E+00 -0.00000000000E+00 -0.74505805969E-08  0.93827000000E+00  0.93827000000E+00 0.  1.
     999902    2    1    2    0    0  0.38437836105E-02  0.10718727020E-01 -0.19735002516E-01  0.10211454415E+01  0.10208912168E+01 0.  0.
     999903    2    3    3    0    0 -0.72163747935E-01 -0.95927642301E-01 -0.47069358546E-01  0.13103434734E+00  0.23340021324E-01 0.  0.
         14    1    1    2    0    0 -0.38437836105E-02 -0.10718727020E-01  0.19735002516E-01  0.22784558492E-01  0.00000000000E+00 0. -1.
     999901    1    3    3    0    0  0.76007531546E-01  0.10664636932E+00  0.27334356031E-01  0.89011109417E+00  0.88000000000E+00 0.  1.
        -11    1    4    4    0    0 -0.11223039261E-01 -0.17854633319E-01  0.62904804688E-03  0.21104534197E-01  0.51100000000E-03 0.  1.
         11    1    4    4    0    0 -0.60940708674E-01 -0.78073008981E-01 -0.47698406593E-01  0.10992981314E+00  0.51100000000E-03 0. -1.
</event>
<event>
 8    1  0.1070112E+005  0.1043930E+01  0.7957747E-01            NaN
         13   -1    0    0    0    0  0.00000000000E+00  0.00000000000E+00  0.74505805969E-08  0.10566000000E+00  0.10566000000E+00 0. -1.
     999900   -1    0    0    0    0 -0.00000000000E+00 -0.00000000000E+00 -0.74505805969E-08  0.93827000000E+00  0.93827000000E+00 0.  1.
     999902    2    1    2    0    0 -0.21181890815E-01 -0.10231912673E-01  0.92708963335E-02  0.10186453395E+01  0.10183314852E+01 0.  0.
     999903    2    3    3    0    0 -0.59714001560E-01 -0.88377807619E-01  0.75091591949E-01  0.13189629476E+00  0.19531680122E-01 0.  0.
         14    1    1    2    0    0  0.21181890815E-01  0.10231912673E-01 -0.92708963335E-02  0.25284660454E-01  0.00000000000E+00 0.  1.
     999901    1    3    3    0    0  0.38532110745E-01  0.78145894946E-01 -0.65820695616E-01  0.88674904478E+00  0.88000000000E+00 0.  1.
        -11    1    4    4    0    0 -0.26522115815E-01 -0.46133704424E-01  0.26473740748E-01  0.59437878339E-01  0.51100000000E-03 0.  1.
         11    1    4    4    0    0 -0.33191885745E-01 -0.42244103195E-01  0.48617851201E-01  0.72458416423E-01  0.51100000000E-03 0. -1.
</event>
<event>
 8    1  0.1070112E+005  0.1043930E+01  0.7957747E-01            NaN
         13   -1    0    0    0    0  0.00000000000E+00  0.00000000000E+00  0.74505805969E-08  0.10566000000E+00  0.10566000000E+00 0.  1.
     999900   -1    0    0    0    0 -0.00000000000E+00 -0.00000000000E+00 -0.74505805969E-08  0.93827000000E+00  0.93827000000E+00 0. -1.
     999902    2    1    2    0    0  0.23397550879E-01 -0.37317851851E-02  0.92452777444E-03  0.10202186871E+01  0.10199431078E+01 0.  0.
     999903    2    3    3    0    0  0.14456959404E-01 -0.64271483413E-01 -0.11044951514E+00  0.13109036865E+00  0.25411849628E-01 0.  0.
         14    1    1    2    0    0 -0.23397550879E-01  0.37317851851E-02 -0.92452777444E-03  0.23711312899E-01  0.00000000000E+00 0.  1.
     999901    1    3    3    0    0  0.89405914755E-02  0.60539698228E-01  0.11137404292E+00  0.88912831845E+00  0.88000000000E+00 0.  1.
        -11    1    4    4    0    0  0.20473936120E-01 -0.48559347003E-01 -0.92664003866E-01  0.10660239667E+00  0.51100000000E-03 0. -1.
         11    1    4    4    0    0 -0.60169767160E-02 -0.15712136410E-01 -0.17785511278E-01  0.24487971982E-01  0.51100000000E-03 0.  1.
</event>
<event>
 8    1  0.1070112E+005  0.1043930E+01  0.7957747E-01            NaN
         13   -1    0    0    0    0  0.00000000000E+00  0.00000000000E+00  0.74505805969E-08  0.10566000000E+00  0.10566000000E+00 0.  1.
     999900   -1    0    0    0    0 -0.00000000000E+00 -0.00000000000E+00 -0.74505805969E-08  0.93827000000E+00  0.93827000000E+00 0. -1.
     999902    2    1    2    0    0 -0.14931309762E-01  0.11135150144E-01  0.16494217727E-01  0.10190503939E+01  0.10187466371E+01 0.  0.
     999903    2    3    3    0    0 -0.10763440994E+00  0.73236609375E-01  0.75131107117E-02  0.13195901402E+00  0.20198202727E-01 0.  0.
         14    1    1    2    0    0  0.14931309762E-01 -0.11135150144E-01 -0.16494217727E-01  0.24879606073E-01  0.00000000000E+00 0. -1.
     999901    1    3    3    0    0  0.92703100176E-01 -0.62101459231E-01  0.89811070148E-02  0.88709137991E+00  0.88000000000E+00 0.  1.
        -11    1    4    4    0    0 -0.71439573374E-01  0.41912798063E-01  0.12748687224E-01  0.83803850939E-01  0.51100000000E-03 0.  1.
         11    1    4    4    0    0 -0.36194836564E-01  0.31323811312E-01 -0.52355765125E-02  0.48155163082E-01  0.51100000000E-03 0. -1.
</event>
<event>
 8    1  0.1070112E+005  0.1043930E+01  0.7957747E-01            NaN
         13   -1    0    0    0    0  0.00000000000E+00  0.00000000000E+00  0.74505805969E-08  0.10566000000E+00  0.10566000000E+00 0. -1.
     999900   -1    0    0    0    0 -0.00000000000E+00 -0.00000000000E+00 -0.74505805969E-08  0.93827000000E+00  0.93827000000E+00 0. -1.
     999902    2    1    2    0    0 -0.18419487460E-01 -0.10172002855E-02  0.12736671388E-01  0.10215127073E+01  0.10212667018E+01 0.  0.
     999903    2    3    3    0    0 -0.39284213415E-02 -0.68381850020E-01  0.11236932311E+00  0.13321396681E+00  0.20678159287E-01 0.  0.
         14    1    1    2    0    0  0.18419487460E-01  0.10172002855E-02 -0.12736671388E-01  0.22417292717E-01  0.00000000000E+00 0.  1.
     999901    1    3    3    0    0 -0.14491066118E-01  0.67364649735E-01 -0.99632651722E-01  0.88829874047E+00  0.88000000000E+00 0. -1.
        -11    1    4    4    0    0 -0.95104844197E-02 -0.32593083330E-01  0.67386695949E-01  0.75458507186E-01  0.51100000000E-03 0.  1.
         11    1    4    4    0    0  0.55820630782E-02 -0.35788766691E-01  0.44982627161E-01  0.57755459628E-01  0.51100000000E-03 0. -1.
</event>
<event>
 8    1  0.1070112E+005  0.1043930E+01  0.7957747E-01            NaN
         13   -1    0    0    0    0  0.00000000000E+00  0.00000000000E+00  0.74505805969E-08  0.10566000000E+00  0.10566000000E+00 0. -1.
     999900   -1    0    0    0    0 -0.00000000000E+00 -0.00000000000E+00 -0.74505805969E-08  0.93827000000E+00  0.93827000000E+00 0. -1.
     999902    2    1    2    0    0 -0.19150654137E-01  0.13930901472E-01  0.10872643198E-02  0.10202234669E+01  0.10199480000E+01 0.  0.
     999903    2    3    3    0    0  0.11548618545E+00 -0.14369626405E-01 -0.49823059977E-01  0.12808005935E+00  0.19458137214E-01 0.  0.
         14    1    1    2    0    0  0.19150654137E-01 -0.13930901472E-01 -0.10872643198E-02  0.23706533138E-01  0.00000000000E+00 0. -1.
     999901    1    3    3    0    0 -0.13463683959E+00  0.28300527877E-01  0.50910324296E-01  0.89214340751E+00  0.88000000000E+00 0.  1.
        -11    1    4    4    0    0  0.56619274293E-01 -0.53656564413E-02 -0.34740738772E-01  0.66646174248E-01  0.51100000000E-03 0.  1.
         11    1    4    4    0    0  0.58866911159E-01 -0.90039699635E-02 -0.15082321205E-01  0.61433885099E-01  0.51100000000E-03 0. -1.
</event>
<event>
 8    1  0.1070112E+005  0.1043930E+01  0.7957747E-01            NaN
         13   -1    0    0    0    0  0.00000000000E+00  0.00000000000E+00  0.74505805969E-08  0.10566000000E+00  0.10566000000E+00 0. -1.
     999900   -1    0    0    0    0 -0.00000000000E+00 -0.00000000000E+00 -0.74505805969E-08  0.93827000000E+00  0.93827000000E+00 0. -1.
     999902    2    1    2    0    0 -0.21607838948E-01 -0.10186955888E-01  0.42486924106E-02  0.10196663613E+01  0.10193776358E+01 0.  0.
     999903    2    3    3    0    0  0.99259160397E-01  0.14878099769E-01 -0.76001494907E-01  0.12743478763E+00  0.19739784557E-01 0.  0.
         14    1    1    2    0    0  0.21607838948E-01  0.10186955888E-01 -0.42486924106E-02  0.24263638669E-01  0.00000000000E+00 0.  1.
     999901    1    3    3    0    0 -0.12086699935E+00 -0.25065055656E-01  0.80250187318E-01  0.89223157370E+00  0.88000000000E+00 0.  1.
        -11    1    4    4    0    0  0.56589673397E-01  0.34795526517E-02 -0.32078771723E-01  0.65144509654E-01  0.51100000000E-03 0.  1.
         11    1    4    4    0    0  0.42669487000E-01  0.11398547117E-01 -0.43922723184E-01  0.62290277974E-01  0.51100000000E-03 0. -1.
</event>
<event>
 8    1  0.1070112E+005  0.1043930E+01  0.7957747E-01            NaN
         13   -1    0    0    0    0  0.00000000000E+00  0.00000000000E+00  0.74505805969E-08  0.10566000000E+00  0.10566000000E+00 0.  1.
     999900   -1    0    0    0    0 -0.00000000000E+00 -0.00000000000E+00 -0.74505805969E-08  0.93827000000E+00  0.93827000000E+00 0.  1.
     999902    2    1    2    0    0  0.13881059351E-01 -0.28297666190E-01  0.19620630561E-01  0.10068030440E+01  0.10061182627E+01 0.  0.
     999903    2    3    3    0    0 -0.98117516076E-01 -0.47725635116E-01 -0.38787086566E-01  0.11757158462E+00  0.20343456391E-01 0.  0.
         14    1    1    2    0    0 -0.13881059351E-01  0.28297666190E-01 -0.19620630561E-01  0.37126956030E-01  0.00000000000E+00 0. -1.
     999901    1    3    3    0    0  0.11199857543E+00  0.19427968927E-01  0.58407717126E-01  0.88923145935E+00  0.88000000000E+00 0. -1.
        -11    1    4    4    0    0 -0.50234273037E-01 -0.25447716621E-01 -0.30707474312E-01  0.64142642356E-01  0.51100000000E-03 0. -1.
         11    1    4    4    0    0 -0.47883243039E-01 -0.22277918496E-01 -0.80796122535E-02  0.53428942266E-01  0.51100000000E-03 0.  1.
</event>
<event>
 8    1  0.1070112E+005  0.1043930E+01  0.7957747E-01            NaN
         13   -1    0    0    0    0  0.00000000000E+00  0.00000000000E+00  0.74505805969E-08  0.10566000000E+00  0.10566000000E+00 0.  1.
     999900   -1    0    0    0    0 -0.00000000000E+00 -0.00000000000E+00 -0.74505805969E-08  0.93827000000E+00  0.93827000000E+00 0. -1.
     999902    2    1    2    0    0  0.43439117537E-02 -0.51551977267E-02  0.22749105742E-01  0.10202030650E+01  0.10199271182E+01 0.  0.
     999903    2    3    3    0    0 -0.88188298557E-02  0.12154641393E+00 -0.37417619902E-01  0.12899793089E+00  0.19725247693E-01 0.  0.
         14    1    1    2    0    0 -0.43439117537E-02  0.51551977267E-02 -0.22749105742E-01  0.23726935010E-01  0.00000000000E+00 0. -1.
     999901    1    3    3    0    0  0.13162741609E-01 -0.12670161166E+00  0.60166725644E-01  0.89120513410E+00  0.88000000000E+00 0. -1.
        -11    1    4    4    0    0 -0.64812298687E-02  0.48749487644E-01 -0.24788378185E-01  0.55074891741E-01  0.51100000000E-03 0.  1.
         11    1    4    4    0    0 -0.23375999870E-02  0.72796926286E-01 -0.12629241717E-01  0.73923039154E-01  0.51100000000E-03 0. -1.
</event>
<event>
 8    1  0.1070112E+005  0.1043930E+01  0.7957747E-01            NaN
         13   -1    0    0    0    0  0.00000000000E+00  0.00000000000E+00  0.74505805969E-08  0.10566000000E+00  0.10566000000E+00 0.  1.
     999900   -1    0    0    0    0 -0.00000000000E+00 -0.00000000000E+00 -0.74505805969E-08  0.93827000000E+00  0.93827000000E+00 0.  1.
     999902    2    1    2    0    0 -0.65153045623E-02  0.49216576848E-02 -0.22271144508E-01  0.10202092120E+01  0.10199334098E+01 0.  0.
     999903    2    3    3    0    0  0.67535374373E-01 -0.10187757926E+00 -0.41300867184E-01  0.13046109568E+00  0.19346004998E-01 0.  0.
         14    1    1    2    0    0  0.65153045623E-02 -0.49216576848E-02  0.22271144508E-01  0.23720788048E-01  0.00000000000E+00 0.  1.
     999901    1    3    3    0    0 -0.74050678936E-01  0.10679923694E+00  0.19029722676E-01  0.88974811627E+00  0.88000000000E+00 0. -1.
        -11    1    4    4    0    0  0.33530115446E-01 -0.50372896869E-01 -0.30633731201E-01  0.67826130577E-01  0.51100000000E-03 0.  1.
         11    1    4    4    0    0  0.34005258927E-01 -0.51504682387E-01 -0.10667135984E-01  0.62634965104E-01  0.51100000000E-03 0. -1.
</event>
<event>
 8    1  0.1070112E+005  0.1043930E+01  0.7957747E-01            NaN
         13   -1    0    0    0    0  0.00000000000E+00  0.00000000000E+00  0.74505805969E-08  0.10566000000E+00  0.10566000000E+00 0.  1.
     999900   -1    0    0    0    0 -0.00000000000E+00 -0.00000000000E+00 -0.74505805969E-08  0.93827000000E+00  0.93827000000E+00 0. -1.
     999902    2    1    2    0    0 -0.18572287645E-01 -0.48080153753E-02  0.11059385650E-01  0.10217859965E+01  0.10215460174E+01 0.  0.
     999903    2    3    3    0    0  0.36740402526E-02 -0.12369729412E-02  0.13136840109E+00  0.13331432523E+00  0.22361212647E-01 0.  0.
         14    1    1    2    0    0  0.18572287645E-01  0.48080153753E-02 -0.11059385650E-01  0.22144003503E-01  0.00000000000E+00 0. -1.
     999901    1    3    3    0    0 -0.22246327897E-01 -0.35710424341E-02 -0.12030901544E+00  0.88847167127E+00  0.88000000000E+00 0. -1.
        -11    1    4    4    0    0  0.12793591792E-01 -0.35197349942E-02  0.76189297986E-01  0.77337796542E-01  0.51100000000E-03 0.  1.
         11    1    4    4    0    0 -0.91195515397E-02  0.22827620530E-02  0.55179103109E-01  0.55976528686E-01  0.51100000000E-03 0. -1.
</event>
<event>
 8    1  0.1070112E+005  0.1043930E+01  0.7957747E-01            NaN
         13   -1    0    0    0    0  0.00000000000E+00  0.00000000000E+00  0.74505805969E-08  0.10566000000E+00  0.10566000000E+00 0.  1.
     999900   -1    0    0    0    0 -0.00000000000E+00 -0.00000000000E+00 -0.74505805969E-08  0.93827000000E+00  0.93827000000E+00 0. -1.
     999902    2    1    2    0    0 -0.23097612434E-01 -0.50471918223E-02 -0.61532548169E-02  0.10194997648E+01  0.10192070124E+01 0.  0.
     999903    2    3    3    0    0  0.24894107497E-01 -0.12134057094E+00  0.33228506217E-01  0.12968052571E+00  0.19226397958E-01 0.  0.
         14    1    1    2    0    0  0.23097612434E-01  0.50471918223E-02  0.61532548169E-02  0.24430235166E-01  0.00000000000E+00 0.  1.
     999901    1    3    3    0    0 -0.47991719931E-01  0.11629337912E+00 -0.39381761034E-01  0.88981923912E+00  0.88000000000E+00 0.  1.
        -11    1    4    4    0    0  0.11015220065E-01 -0.90174109463E-01  0.19584658622E-01  0.92932906254E-01  0.51100000000E-03 0.  1.
         11    1    4    4    0    0  0.13878887433E-01 -0.31166461481E-01  0.13643847595E-01  0.36747619458E-01  0.51100000000E-03 0. -1.
</event>
<event>
 8    1  0.1070112E+005  0.1043930E+01  0.7957747E-01            NaN
         13   -1    0    0    0    0  0.00000000000E+00  0.00000000000E+00  0.74505805969E-08  0.10566000000E+00  0.10566000000E+00 0. -1.
     999900   -1    0    0    0    0 -0.00000000000E+00 -0.00000000000E+00 -0.74505805969E-08  0.93827000000E+00  0.93827000000E+00 0. -1.
     999902    2    1    2    0    0  0.74826297662E-02  0.61605407140E-02  0.21450245454E-01  0.10203916262E+01  0.10201200987E+01 0.  0.
     999903    2    3    3    0    0 -0.29920821322E-01  0.38741955832E-01 -0.11676626469E+00  0.12822327303E+00  0.20264562323E-01 0.  0.
         14    1    1    2    0    0 -0.74826297662E-02 -0.61605407140E-02 -0.21450245454E-01  0.23538373779E-01  0.00000000000E+00 0.  1.
     999901    1    3    3    0    0  0.37403451088E-01 -0.32581415118E-01  0.13821651014E+00  0.89216835319E+00  0.88000000000E+00 0.  1.
        -11    1    4    4    0    0 -0.15746407179E-01  0.56628606178E-02 -0.43023177753E-01  0.46165704526E-01  0.51100000000E-03 0. -1.
         11    1    4    4    0    0 -0.14174414143E-01  0.33079095214E-01 -0.73743086936E-01  0.82057568502E-01  0.51100000000E-03 0.  1.
</event>
<event>
 8    1  0.1070112E+005  0.1043930E+01  0.7957747E-01            NaN
         13   -1    0    0    0    0  0.00000000000E+00  0.00000000000E+00  0.74505805969E-08  0.10566000000E+00  0.10566000000E+00 0.  1.
     999900   -1    0    0    0    0 -0.00000000000E+00 -0.00000000000E+00 -0.74505805969E-08  0.93827000000E+00  0.93827000000E+00 0. -1.
     999902    2    1    2    0    0  0.22314315504E-02 -0.12173620888E-01  0.19905906467E-01  0.10204902593E+01  0.10202210289E+01 0.  0.
     999903    2    3    3    0    0 -0.48391051560E-01  0.80641257327E-01 -0.84177371884E-01  0.12807187857E+00  0.21722566353E-01 0.  0.
         14    1    1    2    0    0 -0.22314315504E-02  0.12173620888E-01 -0.19905906467E-01  0.23439740710E-01  0.00000000000E+00 0. -1.
     999901    1    3    3    0    0  0.50622483110E-01 -0.92814878215E-01  0.10408327835E+00  0.89241838072E+00  0.88000000000E+00 0.  1.
        -11    1    4    4    0    0 -0.34752838230E-01  0.70443734978E-01 -0.61803958618E-01  0.99950337591E-01  0.51100000000E-03 0. -1.
         11    1    4    4    0    0 -0.13638213330E-01  0.10197522349E-01 -0.22373413266E-01  0.28121540980E-01  0.51100000000E-03 0.  1.
</event>
<event>
 8    1  0.1070112E+005  0.1043930E+01  0.7957747E-01            NaN
         13   -1    0    0    0    0  0.00000000000E+00  0.00000000000E+00  0.74505805969E-08  0.10566000000E+00  0.10566000000E+00 0.  1.
     999900   -1    0    0    0    0 -0.00000000000E+00 -0.00000000000E+00 -0.74505805969E-08  0.93827000000E+00  0.93827000000E+00 0.  1.
     999902    2    1    2    0    0 -0.51670422170E-02  0.23405168702E-01  0.10012248845E-02  0.10199403627E+01  0.10196581980E+01 0.  0.
     999903    2    3    3    0    0  0.29522663652E-01  0.65839254041E-01  0.10838536973E+00  0.13172001736E+00  0.19909283224E-01 0.  0.
         14    1    1    2    0    0  0.51670422170E-02 -0.23405168702E-01 -0.10012248845E-02  0.23989637315E-01  0.00000000000E+00 0.  1.
     999901    1    3    3    0    0 -0.34689705869E-01 -0.42434085339E-01 -0.10738414485E+00  0.88822034533E+00  0.88000000000E+00 0.  1.
        -11    1    4    4    0    0  0.16288297787E-01  0.20989855915E-01  0.52562111972E-01  0.58897533328E-01  0.51100000000E-03 0. -1.
         11    1    4    4    0    0  0.13234365865E-01  0.44849398125E-01  0.55823257761E-01  0.72822484028E-01  0.51100000000E-03 0.  1.
</event>
<event>
 8    1  0.1070112E+005  0.1043930E+01  0.7957747E-01            NaN
         13   -1    0    0    0    0  0.00000000000E+00  0.00000000000E+00  0.74505805969E-08  0.10566000000E+00  0.10566000000E+00 0.  1.
     999900   -1    0    0    0    0 -0.00000000000E+00 -0.00000000000E+00 -0.74505805969E-08  0.93827000000E+00  0.93827000000E+00 0.  1.
     999902    2    1    2    0    0 -0.19087898063E-01  0.67800530154E-02 -0.12476278236E-01  0.10201397816E+01  0.10198623434E+01 0.  0.
     999903    2    3    3    0    0 -0.32265640341E-02 -0.11430930477E+00 -0.58530291555E-01  0.13051335069E+00  0.23041523544E-01 0.  0.
         14    1    1    2    0    0  0.19087898063E-01 -0.67800530154E-02  0.12476278236E-01  0.23790218368E-01  0.00000000000E+00 0. -1.
     999901    1    3    3    0    0 -0.15861334029E-01  0.12108935778E+00  0.46054013318E-01  0.88962643094E+00  0.88000000000E+00 0. -1.
        -11    1    4    4    0    0  0.55786387250E-02 -0.95113096030E-01 -0.51122108289E-01  0.10812656160E+00  0.51100000000E-03 0. -1.
         11    1    4    4    0    0 -0.88052027591E-02 -0.19196208738E-01 -0.74081832652E-02  0.22386789092E-01  0.51100000000E-03 0.  1.
</event>
<event>
 8    1  0.1070112E+005  0.1043930E+01  0.7957747E-01            NaN
         13   -1    0    0    0    0  0.00000000000E+00  0.00000000000E+00  0.74505805969E-08  0.10566000000E+00  0.10566000000E+00 0. -1.
     999900   -1    0    0    0    0 -0.00000000000E+00 -0.00000000000E+00 -0.74505805969E-08  0.93827000000E+00  0.93827000000E+00 0.  1.
     999902    2    1    2    0    0  0.59601389611E-02  0.10200279352E-01 -0.20235854522E-01  0.10204979970E+01  0.10202289464E+01 0.  0.
     999903    2    3    3    0    0 -0.12101556144E+00  0.29110465359E-01 -0.35707419088E-01  0.13104884562E+00  0.20164197396E-01 0.  0.
         14    1    1    2    0    0 -0.59601389611E-02 -0.10200279352E-01  0.20235854522E-01  0.23432002978E-01  0.00000000000E+00 0. -1.
     999901    1    3    3    0    0  0.12697570040E+00 -0.18910186007E-01  0.15471564566E-01  0.88944915141E+00  0.88000000000E+00 0. -1.
        -11    1    4    4    0    0 -0.88287069868E-01  0.13970888490E-01 -0.31336497396E-01  0.94720798250E-01  0.51100000000E-03 0.  1.
         11    1    4    4    0    0 -0.32728491567E-01  0.15139576869E-01 -0.43709216923E-02  0.36328047367E-01  0.51100000000E-03 0. -1.
</event>
<event>
 8    1  0.1070112E+005  0.1043930E+01  0.7957747E-01            NaN
         13   -1    0    0    0    0  0.00000000000E+00  0.00000000000E+00  0.74505805969E-08  0.10566000000E+00  0.10566000000E+00 0. -1.
     999900   -1    0    0    0    0 -0.00000000000E+00 -0.00000000000E+00 -0.74505805969E-08  0.93827000000E+00  0.93827000000E+00 0. -1.
     999902    2    1    2    0    0  0.11085856070E-02  0.22006456847E-01 -0.84455944816E-02  0.10203325177E+01  0.10200596088E+01 0.  0.
     999903    2    3    3    0    0 -0.88101737341E-01 -0.80205322705E-01  0.43756235375E-01  0.12840720656E+00  0.19467733562E-01 0.  0.
         14    1    1    2    0    0 -0.11085856070E-02 -0.22006456847E-01  0.84455944816E-02  0.23597482305E-01  0.00000000000E+00 0. -1.
     999901    1    3    3    0    0  0.89210322948E-01  0.10221177955E+00 -0.52201829857E-01  0.89192531113E+00  0.88000000000E+00 0.  1.
        -11    1    4    4    0    0 -0.64911353589E-01 -0.59825719258E-01  0.41219044838E-01  0.97426235111E-01  0.51100000000E-03 0. -1.
         11    1    4    4    0    0 -0.23190383751E-01 -0.20379603447E-01  0.25371905370E-02  0.30980971450E-01  0.51100000000E-03 0.  1.
</event>
<event>
 8    1  0.1070112E+005  0.1043930E+01  0.7957747E-01            NaN
         13   -1    0    0    0    0  0.00000000000E+00  0.00000000000E+00  0.74505805969E-08  0.10566000000E+00  0.10566000000E+00 0. -1.
     999900   -1    0    0    0    0 -0.00000000000E+00 -0.00000000000E+00 -0.74505805969E-08  0.93827000000E+00  0.93827000000E+00 0.  1.
     999902    2    1    2    0    0 -0.16506265037E-01 -0.15530224601E-01 -0.69317299723E-02  0.10202299253E+01  0.10199546102E+01 0.  0.
     999903    2    3    3    0    0  0.66858520358E-01 -0.97992911011E-01  0.50652298650E-01  0.13058634358E+00  0.20358423775E-01 0.  0.
         14    1    1    2    0    0  0.16506265037E-01  0.15530224601E-01  0.69317299723E-02  0.23700074726E-01  0.00000000000E+00 0. -1.
     999901    1    3    3    0    0 -0.83364785395E-01  0.82462686410E-01 -0.57584028623E-01  0.88964358169E+00  0.88000000000E+00 0. -1.
        -11    1    4    4    0    0  0.21967938703E-01 -0.47828558045E-01  0.27580986905E-01  0.59423339313E-01  0.51100000000E-03 0. -1.
         11    1    4    4    0    0  0.44890581655E-01 -0.50164352966E-01  0.23071311745E-01  0.71163004268E-01  0.51100000000E-03 0.  1.
</event>
<event>
 8    1  0.1070112E+005  0.1043930E+01  0.7957747E-01            NaN
         13   -1    0    0    0    0  0.00000000000E+00  0.00000000000E+00  0.74505805969E-08  0.10566000000E+00  0.10566000000E+00 0.  1.
     999900   -1    0    0    0    0 -0.00000000000E+00 -0.00000000000E+00 -0.74505805969E-08  0.93827000000E+00  0.93827000000E+00 0. -1.
     999902    2    1    2    0    0  0.16515704460E-01 -0.16546489132E-01 -0.56893756224E-02  0.10198691648E+01  0.10195853027E+01 0.  0.
     999903    2    3    3    0    0 -0.10506405075E+00 -0.71220934409E-01  0.17086312347E-01  0.12953795461E+00  0.19423268456E-01 0.  0.
         14    1    1    2    0    0 -0.16515704460E-01  0.16546489132E-01  0.56893756224E-02  0.24060835218E-01  0.00000000000E+00 0. -1.
     999901    1    3    3    0    0  0.12157975521E+00  0.54674445277E-01 -0.22775687969E-01  0.89033121017E+00  0.88000000000E+00 0. -1.
        -11    1    4    4    0    0 -0.14556504707E-01 -0.11755542389E-01  0.94640028347E-02  0.20974104910E-01  0.51100000000E-03 0. -1.
         11    1    4    4    0    0 -0.90507546042E-01 -0.59465392020E-01  0.76223095120E-02  0.10856384970E+00  0.51100000000E-03 0.  1.
</event>
<event>
 8    1  0.1070112E+005  0.1043930E+01  0.7957747E-01            NaN
         13   -1    0    0    0    0  0.00000000000E+00  0.00000000000E+00  0.74505805969E-08  0.10566000000E+00  0.10566000000E+00 0. -1.
     999900   -1    0    0    0    0 -0.00000000000E+00 -0.00000000000E+00 -0.74505805969E-08  0.93827000000E+00  0.93827000000E+00 0. -1.
     999902    2    1    2    0    0 -0.20986091910E-02 -0.19307809579E-01  0.13862765654E-01  0.10200684841E+01  0.10197893607E+01 0.  0.
     999903    2    3    3    0    0 -0.40908148949E-01 -0.49958871200E-01  0.11452465448E+00  0.13295040634E+00  0.19762302545E-01 0.  0.
         14    1    1    2    0    0  0.20986091910E-02  0.19307809579E-01 -0.13862765654E-01  0.23861515938E-01  0.00000000000E+00 0. -1.
     999901    1    3    3    0    0  0.38809539758E-01  0.30651061621E-01 -0.10066188882E+00  0.88711807772E+00  0.88000000000E+00 0. -1.
        -11    1    4    4    0    0 -0.14510677676E-01 -0.49546112449E-02  0.26892249843E-01  0.30960655061E-01  0.51100000000E-03 0. -1.
         11    1    4    4    0    0 -0.26397471273E-01 -0.45004259955E-01  0.87632404633E-01  0.10198975128E+00  0.51100000000E-03 0.  1.
</event>
<event>
 8    1  0.1070112E+005  0.1043930E+01  0.7957747E-01            NaN
         13   -1    0    0    0    0  0.00000000000E+00  0.00000000000E+00  0.74505805969E-08  0.10566000000E+00  0.10566000000E+00 0. -1.
     999900   -1    0    0    0    0 -0.00000000000E+00 -0.00000000000E+00 -0.74505805969E-08  0.93827000000E+00  0.93827000000E+00 0. -1.
     999902    2    1    2    0    0 -0.17359794656E-01  0.10667984313E-01  0.11788728132E-01  0.10203897691E+01  0.10201181983E+01 0.  0.
     999903    2    3    3    0    0  0.85133961263E-01 -0.71933009560E-01 -0.59326166760E-01  0.12776150243E+00  0.19525834557E-01 0.  0.
         14    1    1    2    0    0  0.17359794656E-01 -0.10667984313E-01 -0.11788728132E-01  0.23540230899E-01  0.00000000000E+00 0.  1.
     999901    1    3    3    0    0 -0.10249375592E+00  0.82600993872E-01  0.71114894892E-01  0.89262826667E+00  0.88000000000E+00 0.  1.
        -11    1    4    4    0    0  0.50023630479E-01 -0.54387203990E-01 -0.39159426040E-01  0.83630456970E-01  0.51100000000E-03 0.  1.
         11    1    4    4    0    0  0.35110330784E-01 -0.17545805570E-01 -0.20166740720E-01  0.44131045456E-01  0.51100000000E-03 0. -1.
</event>
<event>
 8    1  0.1070112E+005  0.1043930E+01  0.7957747E-01            NaN
         13   -1    0    0    0    0  0.00000000000E+00  0.00000000000E+00  0.74505805969E-08  0.10566000000E+00  0.10566000000E+00 0. -1.
     999900   -1    0    0    0    0 -0.00000000000E+00 -0.00000000000E+00 -0.74505805969E-08  0.93827000000E+00  0.93827000000E+00 0.  1.
     999902    2    1    2    0    0  0.19280110736E-01  0.93654766488E-02 -0.90687611552E-03  0.10224763931E+01  0.10222512985E+01 0.  0.
     999903    2    3    3    0    0 -0.96643793056E-01 -0.59263824948E-01  0.60211555086E-01  0.13012904197E+00  0.21352107983E-01 0.  0.
         14    1    1    2    0    0 -0.19280110736E-01 -0.93654766488E-02  0.90687611552E-03  0.21453606856E-01  0.00000000000E+00 0. -1.
     999901    1    3    3    0    0  0.11592390379E+00  0.68629301597E-01 -0.61118431202E-01  0.89234735117E+00  0.88000000000E+00 0.  1.
        -11    1    4    4    0    0 -0.39063987501E-01 -0.35496957682E-01  0.23103662986E-01  0.57620044156E-01  0.51100000000E-03 0.  1.
         11    1    4    4    0    0 -0.57579805555E-01 -0.23766867266E-01  0.37107892101E-01  0.72508997818E-01  0.51100000000E-03 0. -1.
</event>
<event>
 8    1  0.1070112E+005  0.1043930E+01  0.7957747E-01            NaN
         13   -1    0    0    0    0  0.00000000000E+00  0.00000000000E+00  0.74505805969E-08  0.10566000000E+00  0.10566000000E+00 0.  1.
     999900   -1    0    0    0    0 -0.00000000000E+00 -0.00000000000E+00 -0.74505805969E-08  0.93827000000E+00  0.93827000000E+00 0.  1.
     999902    2    1    2    0    0  0.89644312712E-02 -0.11520847846E-01 -0.18328095434E-01  0.10204990366E+01  0.10202300102E+01 0.  0.
     999903    2    3    3    0    0  0.12518654295E+00 -0.37119745239E-01 -0.44164593569E-02  0.13237944083E+00  0.21336944913E-01 0.  0.
         14    1    1    2    0    0 -0.89644312712E-02  0.11520847846E-01  0.18328095434E-01  0.23430963389E-01  0.00000000000E+00 0.  1.
     999901    1    3    3    0    0 -0.11622211168E+00  0.25598897393E-01 -0.13911636078E-01  0.88811959578E+00  0.88000000000E+00 0. -1.
        -11    1    4    4    0    0  0.10030502225E+00 -0.20500693730E-01 -0.35230794228E-02  0.10244046633E+00  0.51100000000E-03 0.  1.
         11    1    4    4    0    0  0.24881520704E-01 -0.16619051508E-01 -0.89337993401E-03  0.29938974503E-01  0.51100000000E-03 0. -1.
</event>
<event>
 8    1  0.1070112E+005  0.1043930E+01  0.7957747E-01            NaN
         13   -1    0    0    0    0  0.00000000000E+00  0.00000000000E+00  0.74505805969E-08  0.10566000000E+00  0.10566000000E+00 0.  1.
     999900   -1    0    0    0    0 -0.00000000000E+00 -0.00000000000E+00 -0.74505805969E-08  0.93827000000E+00  0.93827000000E+00 0. -1.
     999902    2    1    2    0    0 -0.76114214381E-03 -0.20167468944E-01  0.11705072973E-01  0.10205994433E+01  0.10203327442E+01 0.  0.
     999903    2    3    3    0    0 -0.95680827325E-01 -0.44529712593E-01  0.77876442016E-01  0.13269071175E+00  0.20108921945E-01 0.  0.
         14    1    1    2    0    0  0.76114214381E-03  0.20167468944E-01 -0.11705072973E-01  0.23330556664E-01  0.00000000000E+00 0. -1.
     999901    1    3    3    0    0  0.94919685181E-01  0.24362243649E-01 -0.66171369043E-01  0.88790873159E+00  0.88000000000E+00 0. -1.
        -11    1    4    4    0    0 -0.33558409449E-01 -0.55365606229E-02  0.22459868109E-01  0.40761834413E-01  0.51100000000E-03 0. -1.
         11    1    4    4    0    0 -0.62122417876E-01 -0.38993151970E-01  0.55416573907E-01  0.91928877334E-01  0.51100000000E-03 0.  1.
</event>
<event>
 8    1  0.1070112E+005  0.1043930E+01  0.7957747E-01            NaN
         13   -1    0    0    0    0  0.00000000000E+00  0.00000000000E+00  0.74505805969E-08  0.10566000000E+00  0.10566000000E+00 0.  1.
     999900   -1    0    0    0    0 -0.00000000000E+00 -0.00000000000E+00 -0.74505805969E-08  0.93827000000E+00  0.93827000000E+00 0.  1.
     999902    2    1    2    0    0  0.13348436705E-01 -0.53350782090E-02  0.19087949888E-01  0.10200345265E+01  0.10197545987E+01 0.  0.
     999903    2    3    3    0    0  0.24843392647E-01 -0.63718279114E-01 -0.10750111106E+00  0.12898709652E+00  0.20098978549E-01 0.  0.
         14    1    1    2    0    0 -0.13348436705E-01  0.53350782090E-02 -0.19087949888E-01  0.23895473481E-01  0.00000000000E+00 0. -1.
     999901    1    3    3    0    0 -0.11494955942E-01  0.58383200905E-01  0.12658906094E+00  0.89104743000E+00  0.88000000000E+00 0. -1.
        -11    1    4    4    0    0  0.19661834055E-01 -0.25308401505E-01 -0.56076218969E-01  0.64590296175E-01  0.51100000000E-03 0.  1.
         11    1    4    4    0    0  0.51815585918E-02 -0.38409877609E-01 -0.51424892087E-01  0.64396800344E-01  0.51100000000E-03 0. -1.
</event>
<event>
 8    1  0.1070112E+005  0.1043930E+01  0.7957747E-01            NaN
         13   -1    0    0    0    0  0.00000000000E+00  0.00000000000E+00  0.74505805969E-08  0.10566000000E+00  0.10566000000E+00 0.  1.
     999900   -1    0    0    0    0 -0.00000000000E+00 -0.00000000000E+00 -0.74505805969E-08  0.93827000000E+00  0.93827000000E+00 0. -1.
     999902    2    1    2    0    0 -0.35989324746E-02  0.25983326437E-01 -0.53398160231E-02  0.10171606294E+01  0.10168083137E+01 0.  0.
     999903    2    3    3    0    0  0.52319828593E-01 -0.45759035708E-01 -0.10450641052E+00  0.12693150842E+00  0.18941071127E-01 0.  0.
         14    1    1    2    0    0  0.35989324746E-02 -0.25983326437E-01  0.53398160231E-02  0.26769370610E-01  0.00000000000E+00 0.  1.
     999901    1    3    3    0    0 -0.55918761067E-01  0.71742362145E-01  0.99166594500E-01  0.89022912097E+00  0.88000000000E+00 0.  1.
        -11    1    4    4    0    0  0.21091677119E-01 -0.28434580089E-01 -0.41924992345E-01  0.54875771454E-01  0.51100000000E-03 0.  1.
         11    1    4    4    0    0  0.31228151474E-01 -0.17324455619E-01 -0.62581418178E-01  0.72055736962E-01  0.51100000000E-03 0. -1.
</event>
<event>
 8    1  0.1070112E+005  0.1043930E+01  0.7957747E-01            NaN
         13   -1    0    0    0    0  0.00000000000E+00  0.00000000000E+00  0.74505805969E-08  0.10566000000E+00  0.10566000000E+00 0. -1.
     999900   -1    0    0    0    0 -0.00000000000E+00 -0.00000000000E+00 -0.74505805969E-08  0.93827000000E+00  0.93827000000E+00 0. -1.
     999902    2    1    2    0    0  0.12494415742E-02 -0.17115844797E-01 -0.15790320445E-01  0.10206094625E+01  0.10203429951E+01 0.  0.
     999903    2    3    3    0    0  0.12895826616E+00 -0.84356336670E-02 -0.14445402739E-01  0.13134757832E+00  0.18496549478E-01 0.  0.
         14    1    1    2    0    0 -0.12494415742E-02  0.17115844797E-01  0.15790320445E-01  0.23320537453E-01  0.00000000000E+00 0. -1.
     999901    1    3    3    0    0 -0.12770882459E+00 -0.86802111300E-02 -0.13449177054E-02  0.88926188423E+00  0.88000000000E+00 0. -1.
        -11    1    4    4    0    0  0.88608871980E-01 -0.12624052083E-01 -0.15116451135E-01  0.90772612062E-01  0.51100000000E-03 0. -1.
         11    1    4    4    0    0  0.40349394180E-01  0.41884184165E-02  0.67104839590E-03  0.40574966254E-01  0.51100000000E-03 0.  1.
</event>
<event>
 8    1  0.1070112E+005  0.1043930E+01  0.7957747E-01            NaN
         13   -1    0    0    0    0  0.00000000000E+00  0.00000000000E+00  0.74505805969E-08  0.10566000000E+00  0.10566000000E+00 0. -1.
     999900   -1    0    0    0    0 -0.00000000000E+00 -0.00000000000E+00 -0.74505805969E-08  0.93827000000E+00  0.93827000000E+00 0.  1.
     999902    2    1    2    0    0  0.13133688583E-01  0.47975943212E-02  0.20011121294E-01  0.10195177969E+01  0.10192254816E+01 0.  0.
     999903    2    3    3    0    0 -0.11168858001E-01 -0.61152575795E-01  0.11513138227E+00  0.13160569380E+00  0.14157773183E-01 0.  0.
         14    1    1    2    0    0 -0.13133688583E-01 -0.47975943212E-02 -0.20011121294E-01  0.24412203147E-01  0.00000000000E+00 0.  1.
     999901    1    3    3    0    0  0.24302546584E-01  0.65950170117E-01 -0.95120260972E-01  0.88791210306E+00  0.88000000000E+00 0.  1.
        -11    1    4    4    0    0 -0.25834868899E-02 -0.27492746254E-01  0.37665841751E-01  0.46706554753E-01  0.51100000000E-03 0.  1.
         11    1    4    4    0    0 -0.85853711110E-02 -0.33659829541E-01  0.77465540515E-01  0.84899139042E-01  0.51100000000E-03 0. -1.
</event>
<event>
 8    1  0.1070112E+005  0.1043930E+01  0.7957747E-01            NaN
         13   -1    0    0    0    0  0.00000000000E+00  0.00000000000E+00  0.74505805969E-08  0.10566000000E+00  0.10566000000E+00 0. -1.
     999900   -1    0    0    0    0 -0.00000000000E+00 -0.00000000000E+00 -0.74505805969E-08  0.93827000000E+00  0.93827000000E+00 0.  1.
     999902    2    1    2    0    0  0.89329665086E-02  0.19922848651E-01 -0.88810398459E-02  0.10203590293E+01  0.10200867405E+01 0.  0.
     999903    2    3    3    0    0  0.11056498315E-01 -0.84402203661E-01 -0.96222114747E-01  0.12990033334E+00  0.19220382323E-01 0.  0.
         14    1    1    2    0    0 -0.89329665086E-02 -0.19922848651E-01  0.88810398459E-02  0.23570970658E-01  0.00000000000E+00 0.  1.
     999901    1    3    3    0    0 -0.21235318067E-02  0.10432505231E+00  0.87341074901E-01  0.89045869601E+00  0.88000000000E+00 0. -1.
        -11    1    4    4    0    0  0.10437132737E-01 -0.24142168684E-01 -0.22006149368E-01  0.34297372779E-01  0.51100000000E-03 0. -1.
         11    1    4    4    0    0  0.61936557841E-03 -0.60260034977E-01 -0.74215965379E-01  0.95602960557E-01  0.51100000000E-03 0.  1.
</event>
<event>
 8    1  0.1070112E+005  0.1043930E+01  0.7957747E-01            NaN
         13   -1    0    0    0    0  0.00000000000E+00  0.00000000000E+00  0.74505805969E-08  0.10566000000E+00  0.10566000000E+00 0. -1.
     999900   -1    0    0    0    0 -0.00000000000E+00 -0.00000000000E+00 -0.74505805969E-08  0.93827000000E+00  0.93827000000E+00 0. -1.
     999902    2    1    2    0    0  0.20550007891E-01 -0.89534951519E-02 -0.89437493892E-02  0.10197958219E+01  0.10195102058E+01 0.  0.
     999903    2    3    3    0    0 -0.45139691836E-01  0.13921693824E-03  0.11681369429E+00  0.12838528308E+00  0.28279508108E-01 0.  0.
         14    1    1    2    0    0 -0.20550007891E-01  0.89534951519E-02  0.89437493892E-02  0.24134178107E-01  0.00000000000E+00 0. -1.
     999901    1    3    3    0    0  0.65689699727E-01 -0.90927120901E-02 -0.12575744368E+00  0.89141053881E+00  0.88000000000E+00 0. -1.
        -11    1    4    4    0    0 -0.30266091060E-01  0.11141713206E-01  0.91560960445E-01  0.97076488604E-01  0.51100000000E-03 0.  1.
         11    1    4    4    0    0 -0.14873600776E-01 -0.11002496268E-01  0.25252733842E-01  0.31308794478E-01  0.51100000000E-03 0. -1.
</event>
<event>
 8    1  0.1070112E+005  0.1043930E+01  0.7957747E-01            NaN
         13   -1    0    0    0    0  0.00000000000E+00  0.00000000000E+00  0.74505805969E-08  0.10566000000E+00  0.10566000000E+00 0. -1.
     999900   -1    0    0    0    0 -0.00000000000E+00 -0.00000000000E+00 -0.74505805969E-08  0.93827000000E+00  0.93827000000E+00 0.  1.
     999902    2    1    2    0    0 -0.17606868963E-01 -0.86950050789E-02  0.12751308052E-01  0.10205163116E+01  0.10202476863E+01 0.  0.
     999903    2    3    3    0    0  0.79964936452E-01  0.90483847099E-01  0.41469951438E-01  0.12912332171E+00  0.19270643186E-01 0.  0.
         14    1    1    2    0    0  0.17606868963E-01  0.86950050789E-02 -0.12751308052E-01  0.23413688412E-01  0.00000000000E+00 0.  1.
     999901    1    3    3    0    0 -0.97571805415E-01 -0.99178852178E-01 -0.28718643386E-01  0.89139298988E+00  0.88000000000E+00 0.  1.
        -11    1    4    4    0    0  0.30947624097E-01  0.26534246743E-01  0.21583366835E-01  0.46129432388E-01  0.51100000000E-03 0. -1.
         11    1    4    4    0    0  0.49017312354E-01  0.63949600356E-01  0.19886584603E-01  0.82993889319E-01  0.51100000000E-03 0.  1.
</event>
<event>
 8    1  0.1070112E+005  0.1043930E+01  0.7957747E-01            NaN
         13   -1    0    0    0    0  0.00000000000E+00  0.00000000000E+00  0.74505805969E-08  0.10566000000E+00  0.10566000000E+00 0.  1.
     999900   -1    0    0    0    0 -0.00000000000E+00 -0.00000000000E+00 -0.74505805969E-08  0.93827000000E+00  0.93827000000E+00 0. -1.
     999902    2    1    2    0    0 -0.15660384181E-01  0.11774507154E-01 -0.13906235184E-01  0.10199035556E+01  0.10196205141E+01 0.  0.
     999903    2    3    3    0    0 -0.17816738963E-01  0.97502427988E-01 -0.86286534696E-01  0.13277738985E+00  0.18981821168E-01 0.  0.
         14    1    1    2    0    0  0.15660384181E-01 -0.11774507154E-01  0.13906235184E-01  0.24026444357E-01  0.00000000000E+00 0. -1.
     999901    1    3    3    0    0  0.21563547817E-02 -0.85727920834E-01  0.72380299512E-01  0.88712616579E+00  0.88000000000E+00 0.  1.
        -11    1    4    4    0    0 -0.80550017767E-02  0.28956190096E-01 -0.15749330131E-01  0.33935917831E-01  0.51100000000E-03 0.  1.
         11    1    4    4    0    0 -0.97617371862E-02  0.68546237893E-01 -0.70537204565E-01  0.98841472020E-01  0.51100000000E-03 0. -1.
</event>
<event>
 8    1  0.1070112E+005  0.1043930E+01  0.7957747E-01            NaN
         13   -1    0    0    0    0  0.00000000000E+00  0.00000000000E+00  0.74505805969E-08  0.10566000000E+00  0.10566000000E+00 0.  1.
     999900   -1    0    0    0    0 -0.00000000000E+00 -0.00000000000E+00 -0.74505805969E-08  0.93827000000E+00  0.93827000000E+00 0.  1.
     999902    2    1    2    0    0  0.53390347290E-02 -0.77322587803E-02  0.22547848496E-01  0.10195025853E+01  0.10192099013E+01 0.  0.
     999903    2    3    3    0    0 -0.32135302604E-01  0.10069479826E-01  0.12634030601E+00  0.13243206831E+00  0.21031112558E-01 0.  0.
         14    1    1    2    0    0 -0.53390347290E-02  0.77322587803E-02 -0.22547848496E-01  0.24427414711E-01  0.00000000000E+00 0. -1.
     999901    1    3    3    0    0  0.37474337333E-01 -0.17801738606E-01 -0.10379245752E+00  0.88707051698E+00  0.88000000000E+00 0.  1.
        -11    1    4    4    0    0 -0.37990864483E-02  0.23990150030E-04  0.16601572376E-02  0.41774246160E-02  0.51100000000E-03 0. -1.
         11    1    4    4    0    0 -0.28336216156E-01  0.10045489676E-01  0.12468014878E+00  0.12825464369E+00  0.51100000000E-03 0.  1.
</event>
<event>
 8    1  0.1070112E+005  0.1043930E+01  0.7957747E-01            NaN
         13   -1    0    0    0    0  0.00000000000E+00  0.00000000000E+00  0.74505805969E-08  0.10566000000E+00  0.10566000000E+00 0. -1.
     999900   -1    0    0    0    0 -0.00000000000E+00 -0.00000000000E+00 -0.74505805969E-08  0.93827000000E+00  0.93827000000E+00 0. -1.
     999902    2    1    2    0    0  0.79846878003E-02 -0.16270080093E-01  0.14402403686E-01  0.10207804865E+01  0.10205179575E+01 0.  0.
     999903    2    3    3    0    0 -0.91847947440E-01  0.85335423195E-01 -0.20643879855E-01  0.12863785472E+00  0.20083525382E-01 0.  0.
         14    1    1    2    0    0 -0.79846878003E-02  0.16270080093E-01 -0.14402403686E-01  0.23149513547E-01  0.00000000000E+00 0. -1.
     999901    1    3    3    0    0  0.99832635241E-01 -0.10160550329E+00  0.35046283541E-01  0.89214263173E+00  0.88000000000E+00 0.  1.
        -11    1    4    4    0    0 -0.71916466971E-01  0.54462247707E-01 -0.15237828229E-01  0.91490803784E-01  0.51100000000E-03 0.  1.
         11    1    4    4    0    0 -0.19931480470E-01  0.30873175488E-01 -0.54060516256E-02  0.37147050941E-01  0.51100000000E-03 0. -1.
</event>
<event>
 8    1  0.1070112E+005  0.1043930E+01  0.7957747E-01            NaN
         13   -1    0    0    0    0  0.00000000000E+00  0.00000000000E+00  0.74505805969E-08  0.10566000000E+00  0.10566000000E+00 0.  1.
     999900   -1    0    0    0    0 -0.00000000000E+00 -0.00000000000E+00 -0.74505805969E-08  0.93827000000E+00  0.93827000000E+00 0.  1.
     999902    2    1    2    0    0 -0.20549556518E-01 -0.56118219587E-02  0.97980178872E-02  0.10204826553E+01  0.10202132482E+01 0.  0.
     999903    2    3    3    0    0 -0.12829987707E+00  0.13483072183E-01 -0.25419241447E-01  0.13300589397E+00  0.20044408273E-01 0.  0.
         14    1    1    2    0    0  0.20549556518E-01  0.56118219587E-02 -0.97980178872E-02  0.23447344696E-01  0.00000000000E+00 0.  1.
     999901    1    3    3    0    0  0.10775032055E+00 -0.19094894142E-01  0.35217259334E-01  0.88747676134E+00  0.88000000000E+00 0.  1.
        -11    1    4    4    0    0 -0.43301028430E-01  0.13966827812E-01 -0.10652279022E-01  0.46730969512E-01  0.51100000000E-03 0.  1.
         11    1    4    4    0    0 -0.84998848637E-01 -0.48375562906E-03 -0.14766962425E-01  0.86274924453E-01  0.51100000000E-03 0. -1.
</event>
<event>
 8    1  0.1070112E+005  0.1043930E+01  0.7957747E-01            NaN
         13   -1    0    0    0    0  0.00000000000E+00  0.00000000000E+00  0.74505805969E-08  0.10566000000E+00  0.10566000000E+00 0. -1.
     999900   -1    0    0    0    0 -0.00000000000E+00 -0.00000000000E+00 -0.74505805969E-08  0.93827000000E+00  0.93827000000E+00 0. -1.
     999902    2    1    2    0    0  0.58075807352E-02  0.22126432972E-01 -0.76526112584E-02  0.10198080289E+01  0.10195227052E+01 0.  0.
     999903    2    3    3    0    0  0.98323506679E-01  0.17902658394E-01  0.82957532198E-01  0.13032096609E+00  0.10657622253E-01 0.  0.
         14    1    1    2    0    0 -0.58075807352E-02 -0.22126432972E-01  0.76526112584E-02  0.24121971087E-01  0.00000000000E+00 0.  1.
     999901    1    3    3    0    0 -0.92515925944E-01  0.42237745776E-02 -0.90610143457E-01  0.88948706282E+00  0.88000000000E+00 0. -1.
        -11    1    4    4    0    0  0.41656224888E-01  0.37512694172E-02  0.29954719126E-01  0.51447637586E-01  0.51100000000E-03 0.  1.
         11    1    4    4    0    0  0.56667281790E-01  0.14151388977E-01  0.53002813072E-01  0.78873328509E-01  0.51100000000E-03 0. -1.
</event>
<event>
 8    1  0.1070112E+005  0.1043930E+01  0.7957747E-01            NaN
         13   -1    0    0    0    0  0.00000000000E+00  0.00000000000E+00  0.74505805969E-08  0.10566000000E+00  0.10566000000E+00 0. -1.
     999900   -1    0    0    0    0 -0.00000000000E+00 -0.00000000000E+00 -0.74505805969E-08  0.93827000000E+00  0.93827000000E+00 0. -1.
     999902    2    1    2    0    0 -0.15109628195E-01  0.15125476264E-01  0.93366125646E-02  0.10206007645E+01  0.10203340959E+01 0.  0.
     999903    2    3    3    0    0 -0.42236474294E-01 -0.10697549479E+00 -0.55457141167E-01  0.12939778903E+00  0.20990880204E-01 0.  0.
         14    1    1    2    0    0  0.15109628195E-01 -0.15125476264E-01 -0.93366125646E-02  0.23329235533E-01  0.00000000000E+00 0.  1.
     999901    1    3    3    0    0  0.27126846099E-01  0.12210097106E+00  0.64793753732E-01  0.89120297544E+00  0.88000000000E+00 0.  1.
        -11    1    4    4    0    0 -0.91668294492E-02 -0.30401743086E-01 -0.25644307786E-01  0.40818970928E-01  0.51100000000E-03 0.  1.
         11    1    4    4    0    0 -0.33069644845E-01 -0.76573751705E-01 -0.29812833381E-01  0.88578818097E-01  0.51100000000E-03 0. -1.
</event>
<event>
 8    1  0.1070112E+005  0.1043930E+01  0.7957747E-01            NaN
         13   -1    0    0    0    0  0.00000000000E+00  0.00000000000E+00  0.74505805969E-08  0.10566000000E+00  0.10566000000E+00 0.  1.
     999900   -1    0    0    0    0 -0.00000000000E+00 -0.00000000000E+00 -0.74505805969E-08  0.93827000000E+00  0.93827000000E+00 0. -1.
     999902    2    1    2    0    0  0.16967294776E-01 -0.10609595307E-01  0.17304907315E-02  0.10238440048E+01  0.10236469601E+01 0.  0.
     999903    2    3    3    0    0  0.77651934733E-01  0.98163215645E-01  0.44335070721E-01  0.13405228752E+00  0.18400473332E-01 0.  0.
         14    1    1    2    0    0 -0.16967294776E-01  0.10609595307E-01 -0.17304907315E-02  0.20085995190E-01  0.00000000000E+00 0. -1.
     999901    1    3    3    0    0 -0.60684639957E-01 -0.10877281095E+00 -0.42604579989E-01  0.88979171729E+00  0.88000000000E+00 0. -1.
        -11    1    4    4    0    0  0.30008943438E-01  0.52222731994E-01  0.18611921113E-01  0.63042962746E-01  0.51100000000E-03 0.  1.
         11    1    4    4    0    0  0.47642991295E-01  0.45940483651E-01  0.25723149608E-01  0.71009324770E-01  0.51100000000E-03 0. -1.
</event>
<event>
 8    1  0.1070112E+005  0.1043930E+01  0.7957747E-01            NaN
         13   -1    0    0    0    0  0.00000000000E+00  0.00000000000E+00  0.74505805969E-08  0.10566000000E+00  0.10566000000E+00 0.  1.
     999900   -1    0    0    0    0 -0.00000000000E+00 -0.00000000000E+00 -0.74505805969E-08  0.93827000000E+00  0.93827000000E+00 0. -1.
     999902    2    1    2    0    0  0.23547236934E-02  0.17157582966E-01 -0.15664888152E-01  0.10205779959E+01  0.10203108005E+01 0.  0.
     999903    2    3    3    0    0  0.10923784641E+00 -0.66547728000E-01  0.54168578351E-02  0.12991811631E+00  0.22087720725E-01 0.  0.
         14    1    1    2    0    0 -0.23547236934E-02 -0.17157582966E-01  0.15664888152E-01  0.23352004148E-01  0.00000000000E+00 0.  1.
     999901    1    3    3    0    0 -0.10688312272E+00  0.83705310966E-01 -0.21081745987E-01  0.89065987954E+00  0.88000000000E+00 0.  1.
        -11    1    4    4    0    0  0.40568660440E-01 -0.35213638551E-01 -0.38980383397E-02  0.53863460470E-01  0.51100000000E-03 0.  1.
         11    1    4    4    0    0  0.68669185972E-01 -0.31334089448E-01  0.93148961747E-02  0.76054655843E-01  0.51100000000E-03 0. -1.
</event>
<event>
 8    1  0.1070112E+005  0.1043930E+01  0.7957747E-01            NaN
         13   -1    0    0    0    0  0.00000000000E+00  0.00000000000E+00  0.74505805969E-08  0.10566000000E+00  0.10566000000E+00 0.  1.
     999900   -1    0    0    0    0 -0.00000000000E+00 -0.00000000000E+00 -0.74505805969E-08  0.93827000000E+00  0.93827000000E+00 0. -1.
     999902    2    1    2    0    0  0.52322348232E-02  0.17106843539E-01  0.14862469244E-01  0.10206724557E+01  0.10204074423E+01 0.  0.
     999903    2    3    3    0    0  0.92240873524E-02  0.60124175085E-01  0.11738981171E+00  0.13366722362E+00  0.19661092537E-01 0.  0.
         14    1    1    2    0    0 -0.52322348232E-02 -0.17106843539E-01 -0.14862469244E-01  0.23257544349E-01  0.00000000000E+00 0. -1.
     999901    1    3    3    0    0 -0.39918525292E-02 -0.43017331546E-01 -0.10252734246E+00  0.88700523203E+00  0.88000000000E+00 0. -1.
        -11    1    4    4    0    0 -0.31330355672E-02  0.31482313235E-02  0.16973074585E-01  0.17552027068E-01  0.51100000000E-03 0. -1.
         11    1    4    4    0    0  0.12357122920E-01  0.56975943762E-01  0.10041673712E+00  0.11611519655E+00  0.51100000000E-03 0.  1.
</event>
<event>
 8    1  0.1070112E+005  0.1043930E+01  0.7957747E-01            NaN
         13   -1    0    0    0    0  0.00000000000E+00  0.00000000000E+00  0.74505805969E-08  0.10566000000E+00  0.10566000000E+00 0. -1.
     999900   -1    0    0    0    0 -0.00000000000E+00 -0.00000000000E+00 -0.74505805969E-08  0.93827000000E+00  0.93827000000E+00 0.  1.
     999902    2    1    2    0    0  0.21543918722E-01  0.84671331202E-02 -0.36394465118E-02  0.10204975791E+01  0.10202285188E+01 0.  0.
     999903    2    3    3    0    0 -0.66317499477E-01  0.10568521702E+00  0.30878469805E-01  0.13012548208E+00  0.20292495075E-01 0.  0.
         14    1    1    2    0    0 -0.21543918722E-01 -0.84671331202E-02  0.36394465118E-02  0.23432420875E-01  0.00000000000E+00 0.  1.
     999901    1    3    3    0    0  0.87861418198E-01 -0.97218083899E-01 -0.34517916317E-01  0.89037209704E+00  0.88000000000E+00 0.  1.
        -11    1    4    4    0    0 -0.16874015996E-01  0.35698293439E-01  0.14295396121E-02  0.39514621026E-01  0.51100000000E-03 0. -1.
         11    1    4    4    0    0 -0.49443483480E-01  0.69986923580E-01  0.29448930193E-01  0.90610861057E-01  0.51100000000E-03 0.  1.
</event>
<event>
 8    1  0.1070112E+005  0.1043930E+01  0.7957747E-01            NaN
         13   -1    0    0    0    0  0.00000000000E+00  0.00000000000E+00  0.74505805969E-08  0.10566000000E+00  0.10566000000E+00 0. -1.
     999900   -1    0    0    0    0 -0.00000000000E+00 -0.00000000000E+00 -0.74505805969E-08  0.93827000000E+00  0.93827000000E+00 0. -1.
     999902    2    1    2    0    0 -0.19978565824E-01 -0.89426818446E-02  0.71474513697E-02  0.10209039124E+01  0.10206442071E+01 0.  0.
     999903    2    3    3    0    0 -0.10524285764E+00  0.62955684475E-01  0.47708408116E-01  0.13293737822E+00  0.18888542350E-01 0.  0.
         14    1    1    2    0    0  0.19978565824E-01  0.89426818446E-02 -0.71474513697E-02  0.23026087641E-01  0.00000000000E+00 0. -1.
     999901    1    3    3    0    0  0.85264291812E-01 -0.71898366320E-01 -0.40560956747E-01  0.88796653414E+00  0.88000000000E+00 0. -1.
        -11    1    4    4    0    0 -0.27258755928E-01  0.89235919540E-02  0.60415240365E-02  0.29316060475E-01  0.51100000000E-03 0.  1.
         11    1    4    4    0    0 -0.77984101708E-01  0.54032092521E-01  0.41666884080E-01  0.10362131775E+00  0.51100000000E-03 0. -1.
</event>
<event>
 8    1  0.1070112E+005  0.1043930E+01  0.7957747E-01            NaN
         13   -1    0    0    0    0  0.00000000000E+00  0.00000000000E+00  0.74505805969E-08  0.10566000000E+00  0.10566000000E+00 0.  1.
     999900   -1    0    0    0    0 -0.00000000000E+00 -0.00000000000E+00 -0.74505805969E-08  0.93827000000E+00  0.93827000000E+00 0. -1.
     999902    2    1    2    0    0 -0.19404534179E-02 -0.17935406095E-01  0.14802419796E-01  0.10205942810E+01  0.10203274624E+01 0.  0.
     999903    2    3    3    0    0  0.37971024349E-01 -0.12552674634E+00 -0.71060655296E-02  0.13287315117E+00  0.20149823751E-01 0.  0.
         14    1    1    2    0    0  0.19404534179E-02  0.17935406095E-01 -0.14802419796E-01  0.23335719039E-01  0.00000000000E+00 0.  1.
     999901    1    3    3    0    0 -0.39911477767E-01  0.10759134024E+00  0.21908485326E-01  0.88772112979E+00  0.88000000000E+00 0.  1.
        -11    1    4    4    0    0  0.34743695342E-01 -0.83791312419E-01 -0.73689100143E-02  0.91009177332E-01  0.51100000000E-03 0. -1.
         11    1    4    4    0    0  0.32273290069E-02 -0.41735433920E-01  0.26284448472E-03  0.41863973835E-01  0.51100000000E-03 0.  1.
</event>
<event>
 8    1  0.1070112E+005  0.1043930E+01  0.7957747E-01            NaN
         13   -1    0    0    0    0  0.00000000000E+00  0.00000000000E+00  0.74505805969E-08  0.10566000000E+00  0.10566000000E+00 0.  1.
     999900   -1    0    0    0    0 -0.00000000000E+00 -0.00000000000E+00 -0.74505805969E-08  0.93827000000E+00  0.93827000000E+00 0. -1.
     999902    2    1    2    0    0 -0.17773304271E-02  0.16333901150E-01 -0.16944680528E-01  0.10203275122E+01  0.10200544862E+01 0.  0.
     999903    2    3    3    0    0 -0.11584411622E+00 -0.25863352417E-01  0.47955670991E-01  0.12959528791E+00  0.20159861291E-01 0.  0.
         14    1    1    2    0    0  0.17773304271E-02 -0.16333901150E-01  0.16944680528E-01  0.23602487760E-01  0.00000000000E+00 0.  1.
     999901    1    3    3    0    0  0.11406678579E+00  0.42197253568E-01 -0.64900351519E-01  0.89073222433E+00  0.88000000000E+00 0. -1.
        -11    1    4    4    0    0 -0.22823462153E-01 -0.84113940297E-02  0.18198065095E-01  0.30382440132E-01  0.51100000000E-03 0. -1.
         11    1    4    4    0    0 -0.93020654068E-01 -0.17451958388E-01  0.29757605896E-01  0.99212847780E-01  0.51100000000E-03 0.  1.
</event>
<event>
 8    1  0.1070112E+005  0.1043930E+01  0.7957747E-01            NaN
         13   -1    0    0    0    0  0.00000000000E+00  0.00000000000E+00  0.74505805969E-08  0.10566000000E+00  0.10566000000E+00 0. -1.
     999900   -1    0    0    0    0 -0.00000000000E+00 -0.00000000000E+00 -0.74505805969E-08  0.93827000000E+00  0.93827000000E+00 0. -1.
     999902    2    1    2    0    0  0.28610096702E-02  0.24807856283E-01 -0.25626621052E-03  0.10189563983E+01  0.10186503133E+01 0.  0.
     999903    2    3    3    0    0 -0.11486553661E+00  0.58239764730E-01  0.46841360554E-02  0.13047362425E+00  0.20382929062E-01 0.  0.
         14    1    1    2    0    0 -0.28610096702E-02 -0.24807856283E-01  0.25626621052E-03  0.24973601704E-01  0.00000000000E+00 0.  1.
     999901    1    3    3    0    0  0.11772654628E+00 -0.33431908447E-01 -0.49404022660E-02  0.88848277405E+00  0.88000000000E+00 0.  1.
        -11    1    4    4    0    0 -0.82495157435E-01  0.51604021555E-01  0.21834985526E-02  0.97331674329E-01  0.51100000000E-03 0.  1.
         11    1    4    4    0    0 -0.32370379178E-01  0.66357431753E-02  0.25006375029E-02  0.33141949921E-01  0.51100000000E-03 0. -1.
</event>
<event>
 8    1  0.1070112E+005  0.1043930E+01  0.7957747E-01            NaN
         13   -1    0    0    0    0  0.00000000000E+00  0.00000000000E+00  0.74505805969E-08  0.10566000000E+00  0.10566000000E+00 0.  1.
     999900   -1    0    0    0    0 -0.00000000000E+00 -0.00000000000E+00 -0.74505805969E-08  0.93827000000E+00  0.93827000000E+00 0.  1.
     999902    2    1    2    0    0  0.20493533838E-01 -0.12465412842E-01  0.50772081018E-02  0.10194116500E+01  0.10191167561E+01 0.  0.
     999903    2    3    3    0    0 -0.98051470416E-01 -0.56982778015E-01  0.57651504090E-01  0.12879457712E+00  0.20080321988E-01 0.  0.
         14    1    1    2    0    0 -0.20493533838E-01  0.12465412842E-01 -0.50772081018E-02  0.24518350038E-01  0.00000000000E+00 0. -1.
     999901    1    3    3    0    0  0.11854500425E+00  0.44517365173E-01 -0.52574295988E-01  0.89061707284E+00  0.88000000000E+00 0. -1.
        -11    1    4    4    0    0 -0.41373930955E-01 -0.35546028025E-01  0.26002951405E-01  0.60429602628E-01  0.51100000000E-03 0.  1.
         11    1    4    4    0    0 -0.56677539461E-01 -0.21436749990E-01  0.31648552685E-01  0.68364974494E-01  0.51100000000E-03 0. -1.
</event>
<event>
 8    1  0.1070112E+005  0.1043930E+01  0.7957747E-01            NaN
         13   -1    0    0    0    0  0.00000000000E+00  0.00000000000E+00  0.74505805969E-08  0.10566000000E+00  0.10566000000E+00 0. -1.
     999900   -1    0    0    0    0 -0.00000000000E+00 -0.00000000000E+00 -0.74505805969E-08  0.93827000000E+00  0.93827000000E+00 0.  1.
     999902    2    1    2    0    0  0.19061836708E-01  0.13595838835E-01  0.37213512332E-02  0.10202224293E+01  0.10199469380E+01 0.  0.
     999903    2    3    3    0    0 -0.57919028548E-01 -0.56053183073E-01  0.98819562414E-01  0.12903181580E+00  0.19680710660E-01 0.  0.
         14    1    1    2    0    0 -0.19061836708E-01 -0.13595838835E-01 -0.37213512332E-02  0.23707570675E-01  0.00000000000E+00 0. -1.
     999901    1    3    3    0    0  0.76980865256E-01  0.69649021908E-01 -0.95098211180E-01  0.89119061353E+00  0.88000000000E+00 0.  1.
        -11    1    4    4    0    0 -0.20707920214E-01 -0.14949093627E-01  0.18969839033E-01  0.31818379497E-01  0.51100000000E-03 0. -1.
         11    1    4    4    0    0 -0.37211108334E-01 -0.41104089446E-01  0.79849723381E-01  0.97213436302E-01  0.51100000000E-03 0.  1.
</event>
<event>
 8    1  0.1070112E+005  0.1043930E+01  0.7957747E-01            NaN
         13   -1    0    0    0    0  0.00000000000E+00  0.00000000000E+00  0.74505805969E-08  0.10566000000E+00  0.10566000000E+00 0. -1.
     999900   -1    0    0    0    0 -0.00000000000E+00 -0.00000000000E+00 -0.74505805969E-08  0.93827000000E+00  0.93827000000E+00 0. -1.
     999902    2    1    2    0    0 -0.15687010579E-01 -0.17442786377E-01 -0.97462329011E-03  0.10204505837E+01  0.10201804305E+01 0.  0.
     999903    2    3    3    0    0 -0.53559726805E-01 -0.37475449601E-01 -0.11338036222E+00  0.13226664987E+00  0.19139134622E-01 0.  0.
         14    1    1    2    0    0  0.15687010579E-01  0.17442786377E-01  0.97462329011E-03  0.23479416264E-01  0.00000000000E+00 0.  1.
     999901    1    3    3    0    0  0.37872716226E-01  0.20032663224E-01  0.11240573893E+00  0.88818393386E+00  0.88000000000E+00 0.  1.
        -11    1    4    4    0    0 -0.14323836987E-01 -0.19817638980E-01 -0.49982133110E-01  0.55645178335E-01  0.51100000000E-03 0.  1.
         11    1    4    4    0    0 -0.39235889818E-01 -0.17657810621E-01 -0.63398229106E-01  0.76621471538E-01  0.51100000000E-03 0. -1.
</event>
<event>
 8    1  0.1070112E+005  0.1043930E+01  0.7957747E-01            NaN
         13   -1    0    0    0    0  0.00000000000E+00  0.00000000000E+00  0.74505805969E-08  0.10566000000E+00  0.10566000000E+00 0. -1.
     999900   -1    0    0    0    0 -0.00000000000E+00 -0.00000000000E+00 -0.74505805969E-08  0.93827000000E+00  0.93827000000E+00 0. -1.
     999902    2    1    2    0    0 -0.40229820901E-02  0.18734821558E-01 -0.12595188072E-01  0.10209993069E+01  0.10207417734E+01 0.  0.
     999903    2    3    3    0    0 -0.11073950744E+00 -0.65328174784E-01  0.80044076169E-02  0.13033699856E+00  0.19815492020E-01 0.  0.
         14    1    1    2    0    0  0.40229820901E-02 -0.18734821558E-01  0.12595188072E-01  0.22930693105E-01  0.00000000000E+00 0. -1.
     999901    1    3    3    0    0  0.10671652535E+00  0.84062996342E-01 -0.20599595689E-01  0.89066230833E+00  0.88000000000E+00 0. -1.
        -11    1    4    4    0    0 -0.65731903891E-01 -0.48019050609E-01 -0.28655991057E-03  0.81405501338E-01  0.51100000000E-03 0. -1.
         11    1    4    4    0    0 -0.45007603553E-01 -0.17309124175E-01  0.82909675274E-02  0.48931497227E-01  0.51100000000E-03 0.  1.
</event>
<event>
 8    1  0.1070112E+005  0.1043930E+01  0.7957747E-01            NaN
         13   -1    0    0    0    0  0.00000000000E+00  0.00000000000E+00  0.74505805969E-08  0.10566000000E+00  0.10566000000E+00 0. -1.
     999900   -1    0    0    0    0 -0.00000000000E+00 -0.00000000000E+00 -0.74505805969E-08  0.93827000000E+00  0.93827000000E+00 0. -1.
     999902    2    1    2    0    0  0.10240855340E-01 -0.13650243797E-02  0.21503023046E-01  0.10200737972E+01  0.10197947997E+01 0.  0.
     999903    2    3    3    0    0 -0.71776019425E-01  0.10889841051E-01  0.10844908395E+00  0.13190907886E+00  0.19194157283E-01 0.  0.
         14    1    1    2    0    0 -0.10240855340E-01  0.13650243797E-02 -0.21503023046E-01  0.23856202752E-01  0.00000000000E+00 0.  1.
     999901    1    3    3    0    0  0.82016874765E-01 -0.12254865431E-01 -0.86946060908E-01  0.88816471838E+00  0.88000000000E+00 0. -1.
        -11    1    4    4    0    0 -0.45361447939E-01 -0.16377056390E-02  0.58708838007E-01  0.74211399529E-01  0.51100000000E-03 0.  1.
         11    1    4    4    0    0 -0.26414571486E-01  0.12527546690E-01  0.49740245947E-01  0.57697679336E-01  0.51100000000E-03 0. -1.
</event>
<event>
 7    1  0.1290259E+005  0.1043930E+01  0.7957747E-01            NaN
         13   -1    0    0    0    0  0.00000000000E+00  0.00000000000E+00  0.74505805969E-08  0.10566000000E+00  0.10566000000E+00 0.  1.
     999900   -1    0    0    0    0 -0.00000000000E+00 -0.00000000000E+00 -0.74505805969E-08  0.93827000000E+00  0.93827000000E+00 0. -1.
     999903    2    1    2    0    0  0.35393140882E-01  0.53960167424E-01 -0.82370813977E-01  0.10643891916E+00  0.19491496266E-01 0.  0.
         14    1    1    2    0    0 -0.33927072531E-01  0.29220980994E-01 -0.17222681055E-01  0.47974292319E-01  0.00000000000E+00 0. -1.
     999901    1    1    2    0    0 -0.14660683514E-02 -0.83181148419E-01  0.99593495031E-01  0.88951678852E+00  0.88000000000E+00 0.  1.
        -11    1    3    3    0    0  0.21131474059E-01  0.30129290792E-01 -0.31349129712E-01  0.48346069274E-01  0.51100000000E-03 0.  1.
         11    1    3    3    0    0  0.14261666824E-01  0.23830876632E-01 -0.51021684265E-01  0.58092849886E-01  0.51100000000E-03 0. -1.
</event>
<event>
 8    1  0.1070112E+005  0.1043930E+01  0.7957747E-01            NaN
         13   -1    0    0    0    0  0.00000000000E+00  0.00000000000E+00  0.74505805969E-08  0.10566000000E+00  0.10566000000E+00 0.  1.
     999900   -1    0    0    0    0 -0.00000000000E+00 -0.00000000000E+00 -0.74505805969E-08  0.93827000000E+00  0.93827000000E+00 0. -1.
     999902    2    1    2    0    0  0.24962679363E-01  0.32966601987E-02 -0.66544630792E-02  0.10178860908E+01  0.10175528530E+01 0.  0.
     999903    2    3    3    0    0  0.10697955538E+00  0.70687523717E-01 -0.19701894123E-01  0.13141074881E+00  0.20958745008E-01 0.  0.
         14    1    1    2    0    0 -0.24962679363E-01 -0.32966601987E-02  0.66544630792E-02  0.26043909237E-01  0.00000000000E+00 0. -1.
     999901    1    3    3    0    0 -0.82016876014E-01 -0.67390863518E-01  0.13047431044E-01  0.88647534195E+00  0.88000000000E+00 0.  1.
        -11    1    4    4    0    0  0.48209142106E-01  0.38035667186E-01 -0.18613785407E-01  0.64168274787E-01  0.51100000000E-03 0.  1.
         11    1    4    4    0    0  0.58770413272E-01  0.32651856531E-01 -0.10881087165E-02  0.67242474022E-01  0.51100000000E-03 0. -1.
</event>
<event>
 8    1  0.1070112E+005  0.1043930E+01  0.7957747E-01            NaN
         13   -1    0    0    0    0  0.00000000000E+00  0.00000000000E+00  0.74505805969E-08  0.10566000000E+00  0.10566000000E+00 0.  1.
     999900   -1    0    0    0    0 -0.00000000000E+00 -0.00000000000E+00 -0.74505805969E-08  0.93827000000E+00  0.93827000000E+00 0.  1.
     999902    2    1    2    0    0 -0.95161796167E-02 -0.81596590215E-04  0.21925187724E-01  0.10200285735E+01  0.10197485046E+01 0.  0.
     999903    2    3    3    0    0  0.62583036084E-01 -0.11223553863E+00 -0.52170575085E-02  0.12957166544E+00  0.15752658777E-01 0.  0.
         14    1    1    2    0    0  0.95161796167E-02  0.81596590215E-04 -0.21925187724E-01  0.23901426511E-01  0.00000000000E+00 0. -1.
     999901    1    3    3    0    0 -0.72099215701E-01  0.11215394204E+00  0.27142245233E-01  0.89045690805E+00  0.88000000000E+00 0. -1.
        -11    1    4    4    0    0  0.13595730742E-01 -0.27317591383E-01 -0.78088097334E-02  0.31501322572E-01  0.51100000000E-03 0. -1.
         11    1    4    4    0    0  0.48987305343E-01 -0.84917947246E-01  0.25917522249E-02  0.98070342866E-01  0.51100000000E-03 0.  1.
</event>
<event>
 8    1  0.1070112E+005  0.1043930E+01  0.7957747E-01            NaN
         13   -1    0    0    0    0  0.00000000000E+00  0.00000000000E+00  0.74505805969E-08  0.10566000000E+00  0.10566000000E+00 0. -1.
     999900   -1    0    0    0    0 -0.00000000000E+00 -0.00000000000E+00 -0.74505805969E-08  0.93827000000E+00  0.93827000000E+00 0. -1.
     999902    2    1    2    0    0 -0.17557810745E-01 -0.10751218819E-01  0.13200728888E-01  0.10194734126E+01  0.10191800206E+01 0.  0.
     999903    2    3    3    0    0 -0.10387901949E-01 -0.12276368360E+00  0.41026549580E-01  0.13190793549E+00  0.23188254724E-01 0.  0.
         14    1    1    2    0    0  0.17557810745E-01  0.10751218819E-01 -0.13200728888E-01  0.24456587404E-01  0.00000000000E+00 0. -1.
     999901    1    3    3    0    0 -0.71699087960E-02  0.11201246478E+00 -0.27825820692E-01  0.88756547711E+00  0.88000000000E+00 0.  1.
        -11    1    4    4    0    0 -0.17860691809E-01 -0.88709870526E-01  0.29023663022E-01  0.95031992386E-01  0.51100000000E-03 0.  1.
         11    1    4    4    0    0  0.74727898597E-02 -0.34053813071E-01  0.12002886558E-01  0.36875943102E-01  0.51100000000E-03 0. -1.
</event>
<event>
 8    1  0.1070112E+005  0.1043930E+01  0.7957747E-01            NaN
         13   -1    0    0    0    0  0.00000000000E+00  0.00000000000E+00  0.74505805969E-08  0.10566000000E+00  0.10566000000E+00 0. -1.
     999900   -1    0    0    0    0 -0.00000000000E+00 -0.00000000000E+00 -0.74505805969E-08  0.93827000000E+00  0.93827000000E+00 0.  1.
     999902    2    1    2    0    0 -0.10887907759E-01  0.14768068046E-01  0.15087622228E-01  0.10201754486E+01  0.10198988514E+01 0.  0.
     999903    2    3    3    0    0 -0.47284836186E-01  0.62613594101E-01 -0.10220805962E+00  0.13035962058E+00  0.19769302620E-01 0.  0.
         14    1    1    2    0    0  0.10887907759E-01 -0.14768068046E-01 -0.15087622228E-01  0.23754551431E-01  0.00000000000E+00 0. -1.
     999901    1    3    3    0    0  0.36396928428E-01 -0.47845526055E-01  0.11729568185E+00  0.88981582799E+00  0.88000000000E+00 0. -1.
        -11    1    4    4    0    0 -0.25459621601E-01  0.46544947970E-01 -0.58944528713E-01  0.79305378757E-01  0.51100000000E-03 0.  1.
         11    1    4    4    0    0 -0.21825214585E-01  0.16068646131E-01 -0.43263530910E-01  0.51054241822E-01  0.51100000000E-03 0. -1.
</event>
<event>
 8    1  0.1070112E+005  0.1043930E+01  0.7957747E-01            NaN
         13   -1    0    0    0    0  0.00000000000E+00  0.00000000000E+00  0.74505805969E-08  0.10566000000E+00  0.10566000000E+00 0. -1.
     999900   -1    0    0    0    0 -0.00000000000E+00 -0.00000000000E+00 -0.74505805969E-08  0.93827000000E+00  0.93827000000E+00 0. -1.
     999902    2    1    2    0    0 -0.62353927268E-02  0.22418793499E-01 -0.96139169580E-02  0.10187524341E+01  0.10184412660E+01 0.  0.
     999903    2    3    3    0    0 -0.12943346702E-01  0.12889005165E+00 -0.18423298774E-01  0.13226569949E+00  0.19355146223E-01 0.  0.
         14    1    1    2    0    0  0.62353927268E-02 -0.22418793499E-01  0.96139169580E-02  0.25177565881E-01  0.00000000000E+00 0.  1.
     999901    1    3    3    0    0  0.67079539755E-02 -0.10647125816E+00  0.88093818159E-02  0.88648673463E+00  0.88000000000E+00 0.  1.
        -11    1    4    4    0    0  0.35915286376E-02  0.45698428383E-01 -0.21098756996E-02  0.45890719444E-01  0.51100000000E-03 0.  1.
         11    1    4    4    0    0 -0.16534875340E-01  0.83191623271E-01 -0.16313423074E-01  0.86374980049E-01  0.51100000000E-03 0. -1.
</event>
<event>
 8    1  0.1070112E+005  0.1043930E+01  0.7957747E-01            NaN
         13   -1    0    0    0    0  0.00000000000E+00  0.00000000000E+00  0.74505805969E-08  0.10566000000E+00  0.10566000000E+00 0.  1.
     999900   -1    0    0    0    0 -0.00000000000E+00 -0.00000000000E+00 -0.74505805969E-08  0.93827000000E+00  0.93827000000E+00 0.  1.
     999902    2    1    2    0    0  0.92215014913E-02  0.19490539595E-01 -0.65013931541E-02  0.10214092243E+01  0.10211609169E+01 0.  0.
     999903    2    3    3    0    0 -0.56301944094E-01 -0.10897630387E+00  0.33683550371E-01  0.12876602492E+00  0.20009095279E-01 0.  0.
         14    1    1    2    0    0 -0.92215014913E-02 -0.19490539595E-01  0.65013931541E-02  0.22520775661E-01  0.00000000000E+00 0.  1.
     999901    1    3    3    0    0  0.65523445585E-01  0.12846684346E+00 -0.40184943525E-01  0.89264319942E+00  0.88000000000E+00 0.  1.
        -11    1    4    4    0    0 -0.40603567532E-01 -0.58985606692E-01  0.15243193002E-01  0.73215896819E-01  0.51100000000E-03 0. -1.
         11    1    4    4    0    0 -0.15698376562E-01 -0.49990697175E-01  0.18440357369E-01  0.55550128097E-01  0.51100000000E-03 0.  1.
</event>
<event>
 8    1  0.1070112E+005  0.1043930E+01  0.7957747E-01            NaN
         13   -1    0    0    0    0  0.00000000000E+00  0.00000000000E+00  0.74505805969E-08  0.10566000000E+00  0.10566000000E+00 0. -1.
     999900   -1    0    0    0    0 -0.00000000000E+00 -0.00000000000E+00 -0.74505805969E-08  0.93827000000E+00  0.93827000000E+00 0. -1.
     999902    2    1    2    0    0 -0.21458195737E-01 -0.58611667030E-02 -0.81692067362E-02  0.10202330935E+01  0.10199578529E+01 0.  0.
     999903    2    3    3    0    0 -0.47195605550E-01 -0.11190127089E+00  0.47120034955E-01  0.13177160406E+00  0.19852917455E-01 0.  0.
         14    1    1    2    0    0  0.21458195737E-01  0.58611667030E-02  0.81692067362E-02  0.23696906509E-01  0.00000000000E+00 0.  1.
     999901    1    3    3    0    0  0.25737409813E-01  0.10604010419E+00 -0.55289241691E-01  0.88846148943E+00  0.88000000000E+00 0.  1.
        -11    1    4    4    0    0 -0.16777740635E-01 -0.50836150352E-01  0.30259123059E-01  0.61495385296E-01  0.51100000000E-03 0.  1.
         11    1    4    4    0    0 -0.30417864915E-01 -0.61065120538E-01  0.16860911896E-01  0.70276218760E-01  0.51100000000E-03 0. -1.
</event>
<event>
 8    1  0.1070112E+005  0.1043930E+01  0.7957747E-01            NaN
         13   -1    0    0    0    0  0.00000000000E+00  0.00000000000E+00  0.74505805969E-08  0.10566000000E+00  0.10566000000E+00 0.  1.
     999900   -1    0    0    0    0 -0.00000000000E+00 -0.00000000000E+00 -0.74505805969E-08  0.93827000000E+00  0.93827000000E+00 0.  1.
     999902    2    1    2    0    0 -0.55639426465E-02  0.10527684400E-01 -0.20495974713E-01  0.10202261063E+01  0.10199507015E+01 0.  0.
     999903    2    3    3    0    0  0.97750738515E-02 -0.12699867150E+00  0.49719706411E-02  0.12904857055E+00  0.20114632430E-01 0.  0.
         14    1    1    2    0    0  0.55639426465E-02 -0.10527684400E-01  0.20495974713E-01  0.23703893690E-01  0.00000000000E+00 0.  1.
     999901    1    3    3    0    0 -0.15339016498E-01  0.13752635590E+00 -0.25467945355E-01  0.89117753576E+00  0.88000000000E+00 0.  1.
        -11    1    4    4    0    0  0.10504372426E-01 -0.35620074355E-01  0.62182971626E-02  0.37657135814E-01  0.51100000000E-03 0.  1.
         11    1    4    4    0    0 -0.72929857417E-03 -0.91378597148E-01 -0.12463265215E-02  0.91391434740E-01  0.51100000000E-03 0. -1.
</event>
<event>
 8    1  0.1070112E+005  0.1043930E+01  0.7957747E-01            NaN
         13   -1    0    0    0    0  0.00000000000E+00  0.00000000000E+00  0.74505805969E-08  0.10566000000E+00  0.10566000000E+00 0.  1.
     999900   -1    0    0    0    0 -0.00000000000E+00 -0.00000000000E+00 -0.74505805969E-08  0.93827000000E+00  0.93827000000E+00 0. -1.
     999902    2    1    2    0    0  0.21446725354E-01  0.10411661184E-01  0.58834650656E-03  0.10200823404E+01  0.10198035450E+01 0.  0.
     999903    2    3    3    0    0 -0.12150311964E+00 -0.22518449823E-01  0.23923470492E-01  0.12763425876E+00  0.21167968822E-01 0.  0.
         14    1    1    2    0    0 -0.21446725354E-01 -0.10411661184E-01 -0.58834650656E-03  0.23847659605E-01  0.00000000000E+00 0.  1.
     999901    1    3    3    0    0  0.14294984500E+00  0.32930111008E-01 -0.23335123986E-01  0.89244808163E+00  0.88000000000E+00 0. -1.
        -11    1    4    4    0    0 -0.31009092548E-01  0.24001325553E-02  0.10416878015E-01  0.32803916314E-01  0.51100000000E-03 0.  1.
         11    1    4    4    0    0 -0.90494027095E-01 -0.24918582379E-01  0.13506592477E-01  0.94830342449E-01  0.51100000000E-03 0. -1.
</event>
<event>
 8    1  0.1070112E+005  0.1043930E+01  0.7957747E-01            NaN
         13   -1    0    0    0    0  0.00000000000E+00  0.00000000000E+00  0.74505805969E-08  0.10566000000E+00  0.10566000000E+00 0. -1.
     999900   -1    0    0    0    0 -0.00000000000E+00 -0.00000000000E+00 -0.74505805969E-08  0.93827000000E+00  0.93827000000E+00 0.  1.
     999902    2    1    2    0    0  0.12988966438E-01 -0.17832534523E-01 -0.76654377859E-02  0.10205746693E+01  0.10203073969E+01 0.  0.
     999903    2    3    3    0    0  0.61201495941E-01  0.53046149317E-01  0.99565533074E-01  0.12993067927E+00  0.20227925673E-01 0.  0.
         14    1    1    2    0    0 -0.12988966438E-01  0.17832534523E-01  0.76654377859E-02  0.23355330721E-01  0.00000000000E+00 0. -1.
     999901    1    3    3    0    0 -0.48212529503E-01 -0.70878683840E-01 -0.10723097086E+00  0.89064399001E+00  0.88000000000E+00 0.  1.
        -11    1    4    4    0    0  0.43401327008E-01  0.27336191779E-01  0.70872403460E-01  0.87487720625E-01  0.51100000000E-03 0.  1.
         11    1    4    4    0    0  0.17800168934E-01  0.25709957538E-01  0.28693129614E-01  0.42442958647E-01  0.51100000000E-03 0. -1.
</event>
<event>
 8    1  0.1070112E+005  0.1043930E+01  0.7957747E-01            NaN
         13   -1    0    0    0    0  0.00000000000E+00  0.00000000000E+00  0.74505805969E-08  0.10566000000E+00  0.10566000000E+00 0. -1.
     999900   -1    0    0    0    0 -0.00000000000E+00 -0.00000000000E+00 -0.74505805969E-08  0.93827000000E+00  0.93827000000E+00 0. -1.
     999902    2    1    2    0    0 -0.22352308215E-01  0.32710130278E-02 -0.18763218240E-02  0.10212618331E+01  0.10210102281E+01 0.  0.
     999903    2    3    3    0    0  0.11091343537E+00 -0.52634402181E-01  0.32822753710E-01  0.12879939704E+00  0.20970957969E-01 0.  0.
         14    1    1    2    0    0  0.22352308215E-01 -0.32710130278E-02  0.18763218240E-02  0.22668166939E-01  0.00000000000E+00 0.  1.
     999901    1    3    3    0    0 -0.13326574359E+00  0.55905415209E-01 -0.34699075534E-01  0.89246243602E+00  0.88000000000E+00 0. -1.
        -11    1    4    4    0    0  0.52069395307E-01 -0.34178636309E-01  0.10244028390E-01  0.63123706689E-01  0.51100000000E-03 0.  1.
         11    1    4    4    0    0  0.58844040066E-01 -0.18455765872E-01  0.22578725320E-01  0.65675690352E-01  0.51100000000E-03 0. -1.
</event>
<event>
 8    1  0.1070112E+005  0.1043930E+01  0.7957747E-01            NaN
         13   -1    0    0    0    0  0.00000000000E+00  0.00000000000E+00  0.74505805969E-08  0.10566000000E+00  0.10566000000E+00 0. -1.
     999900   -1    0    0    0    0 -0.00000000000E+00 -0.00000000000E+00 -0.74505805969E-08  0.93827000000E+00  0.93827000000E+00 0.  1.
     999902    2    1    2    0    0  0.12451524339E-01 -0.50465470270E-02  0.19237831269E-01  0.10204650848E+01  0.10201952690E+01 0.  0.
     999903    2    3    3    0    0 -0.58549608884E-01  0.10019170738E+00  0.56377356601E-01  0.13057992619E+00  0.20156285818E-01 0.  0.
         14    1    1    2    0    0 -0.12451524339E-01  0.50465470270E-02 -0.19237831269E-01  0.23464915239E-01  0.00000000000E+00 0.  1.
     999901    1    3    3    0    0  0.71001133223E-01 -0.10523825440E+00 -0.37139525332E-01  0.88988515857E+00  0.88000000000E+00 0. -1.
        -11    1    4    4    0    0 -0.33115541464E-01  0.44987984030E-01  0.36056720248E-01  0.66489893890E-01  0.51100000000E-03 0.  1.
         11    1    4    4    0    0 -0.25434067420E-01  0.55203723347E-01  0.20320636353E-01  0.64090032296E-01  0.51100000000E-03 0. -1.
</event>
<event>
 8    1  0.1070112E+005  0.1043930E+01  0.7957747E-01            NaN
         13   -1    0    0    0    0  0.00000000000E+00  0.00000000000E+00  0.74505805969E-08  0.10566000000E+00  0.10566000000E+00 0. -1.
     999900   -1    0    0    0    0 -0.00000000000E+00 -0.00000000000E+00 -0.74505805969E-08  0.93827000000E+00  0.93827000000E+00 0.  1.
     999902    2    1    2    0    0  0.24574019898E-01  0.97595274267E-03  0.31285780528E-02  0.10191384099E+01  0.10188368248E+01 0.  0.
     999903    2    3    3    0    0  0.34662514615E-01 -0.73404869723E-01  0.10049348789E+00  0.13059228836E+00  0.19121711579E-01 0.  0.
         14    1    1    2    0    0 -0.24574019898E-01 -0.97595274267E-03 -0.31285780528E-02  0.24791590073E-01  0.00000000000E+00 0.  1.
     999901    1    3    3    0    0 -0.10088494717E-01  0.74380822466E-01 -0.97364909837E-01  0.88854612156E+00  0.88000000000E+00 0.  1.
        -11    1    4    4    0    0  0.25811372689E-01 -0.53518422177E-01  0.85640732936E-01  0.10423552528E+00  0.51100000000E-03 0.  1.
         11    1    4    4    0    0  0.88511419259E-02 -0.19886447547E-01  0.14852754954E-01  0.26356763081E-01  0.51100000000E-03 0. -1.
</event>
<event>
 8    1  0.1070112E+005  0.1043930E+01  0.7957747E-01            NaN
         13   -1    0    0    0    0  0.00000000000E+00  0.00000000000E+00  0.74505805969E-08  0.10566000000E+00  0.10566000000E+00 0.  1.
     999900   -1    0    0    0    0 -0.00000000000E+00 -0.00000000000E+00 -0.74505805969E-08  0.93827000000E+00  0.93827000000E+00 0.  1.
     999902    2    1    2    0    0 -0.40708124646E-02 -0.23251986399E-01  0.54236730340E-02  0.10197092937E+01  0.10194216012E+01 0.  0.
     999903    2    3    3    0    0 -0.65860312402E-01 -0.10727978151E+00 -0.35925310539E-01  0.13258565455E+00  0.21018933931E-01 0.  0.
         14    1    1    2    0    0  0.40708124646E-02  0.23251986399E-01 -0.54236730340E-02  0.24220706324E-01  0.00000000000E+00 0.  1.
     999901    1    3    3    0    0  0.61789499937E-01  0.84027795115E-01  0.41348983573E-01  0.88712363913E+00  0.88000000000E+00 0.  1.
        -11    1    4    4    0    0 -0.36834384192E-01 -0.74059960571E-01 -0.16329539445E-01  0.84312303954E-01  0.51100000000E-03 0. -1.
         11    1    4    4    0    0 -0.29025928210E-01 -0.33219820944E-01 -0.19595771094E-01  0.48273350596E-01  0.51100000000E-03 0.  1.
</event>
<event>
 8    1  0.1070112E+005  0.1043930E+01  0.7957747E-01            NaN
         13   -1    0    0    0    0  0.00000000000E+00  0.00000000000E+00  0.74505805969E-08  0.10566000000E+00  0.10566000000E+00 0. -1.
     999900   -1    0    0    0    0 -0.00000000000E+00 -0.00000000000E+00 -0.74505805969E-08  0.93827000000E+00  0.93827000000E+00 0.  1.
     999902    2    1    2    0    0 -0.12181448839E-01 -0.17103199173E-01 -0.10425875809E-01  0.10204863227E+01  0.10202170009E+01 0.  0.
     999903    2    3    3    0    0  0.12691959593E+00  0.53333177099E-02  0.97375501289E-02  0.12904980693E+00  0.20542752410E-01 0.  0.
         14    1    1    2    0    0  0.12181448839E-01  0.17103199173E-01  0.10425875809E-01  0.23443677274E-01  0.00000000000E+00 0. -1.
     999901    1    3    3    0    0 -0.13910104477E+00 -0.22436516882E-01 -0.20163425938E-01  0.89143651579E+00  0.88000000000E+00 0.  1.
        -11    1    4    4    0    0  0.83972972997E-01  0.13053212725E-01  0.83131769953E-02  0.85388620958E-01  0.51100000000E-03 0. -1.
         11    1    4    4    0    0  0.42946622937E-01 -0.77198950147E-02  0.14243731336E-02  0.43661185972E-01  0.51100000000E-03 0.  1.
</event>
<event>
 8    1  0.1070112E+005  0.1043930E+01  0.7957747E-01            NaN
         13   -1    0    0    0    0  0.00000000000E+00  0.00000000000E+00  0.74505805969E-08  0.10566000000E+00  0.10566000000E+00 0.  1.
     999900   -1    0    0    0    0 -0.00000000000E+00 -0.00000000000E+00 -0.74505805969E-08  0.93827000000E+00  0.93827000000E+00 0. -1.
     999902    2    1    2    0    0 -0.84728778050E-03 -0.21895627589E-01  0.81697739537E-02  0.10205445000E+01  0.10202765286E+01 0.  0.
     999903    2    3    3    0    0 -0.11183455323E+00 -0.51816069199E-01 -0.42340129145E-01  0.13163243672E+00  0.18507823707E-01 0.  0.
         14    1    1    2    0    0  0.84728778050E-03  0.21895627589E-01 -0.81697739537E-02  0.23385500006E-01  0.00000000000E+00 0.  1.
     999901    1    3    3    0    0  0.11098726545E+00  0.29920441611E-01  0.50509903099E-01  0.88891206327E+00  0.88000000000E+00 0.  1.
        -11    1    4    4    0    0 -0.66157862840E-01 -0.26660616219E-01 -0.15547920628E-01  0.73004453491E-01  0.51100000000E-03 0. -1.
         11    1    4    4    0    0 -0.45676690389E-01 -0.25155452981E-01 -0.26792208518E-01  0.58627983231E-01  0.51100000000E-03 0.  1.
</event>
<event>
 8    1  0.1070112E+005  0.1043930E+01  0.7957747E-01            NaN
         13   -1    0    0    0    0  0.00000000000E+00  0.00000000000E+00  0.74505805969E-08  0.10566000000E+00  0.10566000000E+00 0.  1.
     999900   -1    0    0    0    0 -0.00000000000E+00 -0.00000000000E+00 -0.74505805969E-08  0.93827000000E+00  0.93827000000E+00 0. -1.
     999902    2    1    2    0    0 -0.11326744618E-01  0.19312933470E-02 -0.20630986364E-01  0.10203151183E+01  0.10200418021E+01 0.  0.
     999903    2    3    3    0    0 -0.28757329473E-01  0.76877195060E-01 -0.10284196200E+00  0.13314018745E+00  0.20316329613E-01 0.  0.
         14    1    1    2    0    0  0.11326744618E-01 -0.19312933470E-02  0.20630986364E-01  0.23614881664E-01  0.00000000000E+00 0.  1.
     999901    1    3    3    0    0  0.17430584855E-01 -0.74945901713E-01  0.82210975634E-01  0.88717493088E+00  0.88000000000E+00 0.  1.
        -11    1    4    4    0    0 -0.52528620945E-02  0.41964831360E-01 -0.47313680670E-01  0.63462470254E-01  0.51100000000E-03 0.  1.
         11    1    4    4    0    0 -0.23504467378E-01  0.34912363699E-01 -0.55528281328E-01  0.69677717199E-01  0.51100000000E-03 0. -1.
</event>
<event>
 8    1  0.1070112E+005  0.1043930E+01  0.7957747E-01            NaN
         13   -1    0    0    0    0  0.00000000000E+00  0.00000000000E+00  0.74505805969E-08  0.10566000000E+00  0.10566000000E+00 0. -1.
     999900   -1    0    0    0    0 -0.00000000000E+00 -0.00000000000E+00 -0.74505805969E-08  0.93827000000E+00  0.93827000000E+00 0.  1.
     999902    2    1    2    0    0  0.17906650493E-01 -0.84568497268E-02 -0.12271284889E-01  0.10206329858E+01  0.10203670618E+01 0.  0.
     999903    2    3    3    0    0 -0.10344527925E-01 -0.20658925259E-01 -0.12881116705E+00  0.13241647846E+00  0.20199172233E-01 0.  0.
         14    1    1    2    0    0 -0.17906650493E-01  0.84568497268E-02  0.12271284889E-01  0.23297014230E-01  0.00000000000E+00 0. -1.
     999901    1    3    3    0    0  0.28251178418E-01  0.12202075532E-01  0.11653988216E+00  0.88821650731E+00  0.88000000000E+00 0. -1.
        -11    1    4    4    0    0 -0.59759906143E-02 -0.16178024544E-01 -0.12175391248E+00  0.12297039183E+00  0.51100000000E-03 0. -1.
         11    1    4    4    0    0 -0.43685373109E-02 -0.44809007148E-02 -0.70572545719E-02  0.94460866259E-02  0.51100000000E-03 0.  1.
</event>
<event>
 8    1  0.1070112E+005  0.1043930E+01  0.7957747E-01            NaN
         13   -1    0    0    0    0  0.00000000000E+00  0.00000000000E+00  0.74505805969E-08  0.10566000000E+00  0.10566000000E+00 0. -1.
     999900   -1    0    0    0    0 -0.00000000000E+00 -0.00000000000E+00 -0.74505805969E-08  0.93827000000E+00  0.93827000000E+00 0. -1.
     999902    2    1    2    0    0  0.23602611659E-01  0.33226626187E-02 -0.64802608344E-02  0.10192294505E+01  0.10189301034E+01 0.  0.
     999903    2    3    3    0    0 -0.42102284114E-01 -0.59065702686E-01 -0.10487045987E+00  0.12912267450E+00  0.20334506515E-01 0.  0.
         14    1    1    2    0    0 -0.23602611659E-01 -0.33226626187E-02  0.64802608344E-02  0.24700549478E-01  0.00000000000E+00 0. -1.
     999901    1    3    3    0    0  0.65704895773E-01  0.62388365304E-01  0.98390199037E-01  0.89010677602E+00  0.88000000000E+00 0.  1.
        -11    1    4    4    0    0 -0.12887703578E-01 -0.99952905286E-02 -0.12634761480E-01  0.20637273437E-01  0.51100000000E-03 0. -1.
         11    1    4    4    0    0 -0.29214580536E-01 -0.49070412157E-01 -0.92235698391E-01  0.10848540106E+00  0.51100000000E-03 0.  1.
</event>
<event>
 8    1  0.1070112E+005  0.1043930E+01  0.7957747E-01            NaN
         13   -1    0    0    0    0  0.00000000000E+00  0.00000000000E+00  0.74505805969E-08  0.10566000000E+00  0.10566000000E+00 0. -1.
     999900   -1    0    0    0    0 -0.00000000000E+00 -0.00000000000E+00 -0.74505805969E-08  0.93827000000E+00  0.93827000000E+00 0. -1.
     999902    2    1    2    0    0  0.46082713846E-02  0.23015990562E-01  0.14626579016E-02  0.10204116804E+01  0.10201406208E+01 0.  0.
     999903    2    3    3    0    0 -0.66535722991E-01  0.11302677382E+00  0.48927903456E-02  0.13295735776E+00  0.21252424587E-01 0.  0.
         14    1    1    2    0    0 -0.46082713846E-02 -0.23015990562E-01 -0.14626579016E-02  0.23518319558E-01  0.00000000000E+00 0. -1.
     999901    1    3    3    0    0  0.71143994376E-01 -0.90010783259E-01 -0.34301324440E-02  0.88745432268E+00  0.88000000000E+00 0. -1.
        -11    1    4    4    0    0 -0.31248066236E-01  0.46931327033E-01 -0.79334627594E-02  0.56940249849E-01  0.51100000000E-03 0. -1.
         11    1    4    4    0    0 -0.35287656756E-01  0.66095446788E-01  0.12826253105E-01  0.76017107910E-01  0.51100000000E-03 0.  1.
</event>
<event>
 8    1  0.1070112E+005  0.1043930E+01  0.7957747E-01            NaN
         13   -1    0    0    0    0  0.00000000000E+00  0.00000000000E+00  0.74505805969E-08  0.10566000000E+00  0.10566000000E+00 0.  1.
     999900   -1    0    0    0    0 -0.00000000000E+00 -0.00000000000E+00 -0.74505805969E-08  0.93827000000E+00  0.93827000000E+00 0. -1.
     999902    2    1    2    0    0 -0.14762624704E-01 -0.15223011531E-01  0.66240016161E-02  0.10217139570E+01  0.10214723968E+01 0.  0.
     999903    2    3    3    0    0 -0.62796194353E-01 -0.24562008466E-01 -0.11216943046E+00  0.13238481650E+00  0.19927474118E-01 0.  0.
         14    1    1    2    0    0  0.14762624704E-01  0.15223011531E-01 -0.66240016161E-02  0.22216042979E-01  0.00000000000E+00 0. -1.
     999901    1    3    3    0    0  0.48033569649E-01  0.93389969350E-02  0.11879343208E+00  0.88932914052E+00  0.88000000000E+00 0.  1.
        -11    1    4    4    0    0 -0.25245614898E-01 -0.78759835372E-02 -0.26880195403E-01  0.37711778189E-01  0.51100000000E-03 0.  1.
         11    1    4    4    0    0 -0.37550579455E-01 -0.16686024929E-01 -0.85289235057E-01  0.94673038310E-01  0.51100000000E-03 0. -1.
</event>
<event>
 8    1  0.1070112E+005  0.1043930E+01  0.7957747E-01            NaN
         13   -1    0    0    0    0  0.00000000000E+00  0.00000000000E+00  0.74505805969E-08  0.10566000000E+00  0.10566000000E+00 0. -1.
     999900   -1    0    0    0    0 -0.00000000000E+00 -0.00000000000E+00 -0.74505805969E-08  0.93827000000E+00  0.93827000000E+00 0.  1.
     999902    2    1    2    0    0 -0.70835482399E-02  0.15626615451E-02  0.22677403915E-01  0.10201206906E+01  0.10198428017E+01 0.  0.
     999903    2    3    3    0    0 -0.48443801735E-01  0.11766851176E+00  0.66826328660E-02  0.13138728189E+00  0.32019988663E-01 0.  0.
         14    1    1    2    0    0  0.70835482399E-02 -0.15626615451E-02 -0.22677403915E-01  0.23809309421E-01  0.00000000000E+00 0.  1.
     999901    1    3    3    0    0  0.41360253495E-01 -0.11610585021E+00  0.15994771049E-01  0.88873340869E+00  0.88000000000E+00 0. -1.
        -11    1    4    4    0    0 -0.43913431437E-01  0.90412481171E-01  0.16898777011E-01  0.10192465844E+00  0.51100000000E-03 0. -1.
         11    1    4    4    0    0 -0.45303702978E-02  0.27256030587E-01 -0.10216144145E-01  0.29462623451E-01  0.51100000000E-03 0.  1.
</event>
<event>
 8    1  0.1070112E+005  0.1043930E+01  0.7957747E-01            NaN
         13   -1    0    0    0    0  0.00000000000E+00  0.00000000000E+00  0.74505805969E-08  0.10566000000E+00  0.10566000000E+00 0. -1.
     999900   -1    0    0    0    0 -0.00000000000E+00 -0.00000000000E+00 -0.74505805969E-08  0.93827000000E+00  0.93827000000E+00 0. -1.
     999902    2    1    2    0    0 -0.32800567219E-02 -0.13386011535E-01  0.19557768034E-01  0.10200040650E+01  0.10197234145E+01 0.  0.
     999903    2    3    3    0    0 -0.89254226223E-01  0.88204518553E-01 -0.21530484665E-01  0.12904927479E+00  0.21066550780E-01 0.  0.
         14    1    1    2    0    0  0.32800567219E-02  0.13386011535E-01 -0.19557768034E-01  0.23925935037E-01  0.00000000000E+00 0.  1.
     999901    1    3    3    0    0  0.85974169501E-01 -0.10159053009E+00  0.41088252699E-01  0.89095479017E+00  0.88000000000E+00 0.  1.
        -11    1    4    4    0    0 -0.39475182114E-01  0.31905971637E-01 -0.17853598903E-01  0.53807928262E-01  0.51100000000E-03 0.  1.
         11    1    4    4    0    0 -0.49779044109E-01  0.56298546916E-01 -0.36768857614E-02  0.75241346526E-01  0.51100000000E-03 0. -1.
</event>
<event>
 8    1  0.1070112E+005  0.1043930E+01  0.7957747E-01            NaN
         13   -1    0    0    0    0  0.00000000000E+00  0.00000000000E+00  0.74505805969E-08  0.10566000000E+00  0.10566000000E+00 0. -1.
     999900   -1    0    0    0    0 -0.00000000000E+00 -0.00000000000E+00 -0.74505805969E-08  0.93827000000E+00  0.93827000000E+00 0. -1.
     999902    2    1    2    0    0 -0.98450316702E-02 -0.21347947544E-01  0.15504704735E-02  0.10203702149E+01  0.10200981875E+01 0.  0.
     999903    2    3    3    0    0  0.12517702882E+00  0.25420266409E-02 -0.25350142061E-01  0.12934533839E+00  0.20293753199E-01 0.  0.
         14    1    1    2    0    0  0.98450316702E-02  0.21347947544E-01 -0.15504704735E-02  0.23559785051E-01  0.00000000000E+00 0.  1.
     999901    1    3    3    0    0 -0.13502206049E+00 -0.23889974185E-01  0.26900612535E-01  0.89102487655E+00  0.88000000000E+00 0.  1.
        -11    1    4    4    0    0  0.10278259894E+00 -0.47788202150E-02 -0.24460386402E-01  0.10576233447E+00  0.51100000000E-03 0.  1.
         11    1    4    4    0    0  0.22394429873E-01  0.73208468559E-02 -0.88975565991E-03  0.23583003926E-01  0.51100000000E-03 0. -1.
</event>
<event>
 8    1  0.1070112E+005  0.1043930E+01  0.7957747E-01            NaN
         13   -1    0    0    0    0  0.00000000000E+00  0.00000000000E+00  0.74505805969E-08  0.10566000000E+00  0.10566000000E+00 0.  1.
     999900   -1    0    0    0    0 -0.00000000000E+00 -0.00000000000E+00 -0.74505805969E-08  0.93827000000E+00  0.93827000000E+00 0. -1.
     999902    2    1    2    0    0  0.11375476501E-01  0.19578902362E-01 -0.66941190070E-02  0.10203175856E+01  0.10200443272E+01 0.  0.
     999903    2    3    3    0    0  0.68867981655E-01 -0.42562015012E-01 -0.10140800377E+00  0.13119577073E+00  0.19350013182E-01 0.  0.
         14    1    1    2    0    0 -0.11375476501E-01 -0.19578902362E-01  0.66941190070E-02  0.23612414374E-01  0.00000000000E+00 0.  1.
     999901    1    3    3    0    0 -0.57492505154E-01  0.62140917374E-01  0.94713884758E-01  0.88912181490E+00  0.88000000000E+00 0.  1.
        -11    1    4    4    0    0  0.60811869206E-02  0.47774329273E-03 -0.14039982822E-01  0.15316373972E-01  0.51100000000E-03 0.  1.
         11    1    4    4    0    0  0.62786794734E-01 -0.43039758305E-01 -0.87368020943E-01  0.11587939676E+00  0.51100000000E-03 0. -1.
</event>
<event>
 8    1  0.1122352E+005  0.1043930E+01  0.7957747E-01            NaN
         13   -1    0    0    0    0  0.00000000000E+00  0.00000000000E+00  0.74505805969E-08  0.10566000000E+00  0.10566000000E+00 0. -1.
     999900   -1    0    0    0    0 -0.00000000000E+00 -0.00000000000E+00 -0.74505805969E-08  0.93827000000E+00  0.93827000000E+00 0. -1.
     999902    2    1    2    0    0 -0.74604512843E-02  0.68530715683E-02 -0.21120930273E-01  0.10205052990E+01  0.10202364180E+01 0.  0.
     999903    2    3    3    0    0 -0.24591636738E-01 -0.74663611540E-01  0.99587385089E-01  0.12836800877E+00  0.19526774492E-01 0.  0.
         14    1    1    2    0    0  0.74604512843E-02 -0.68530715683E-02  0.21120930273E-01  0.23424701042E-01  0.00000000000E+00 0. -1.
     999901    1    3    3    0    0  0.17131185454E-01  0.81516683108E-01 -0.12070831536E+00  0.89213729018E+00  0.88000000000E+00 0. -1.
        -11    1    4    4    0    0 -0.12968877964E-01 -0.38626801513E-01  0.66950420955E-01  0.78376281985E-01  0.51100000000E-03 0. -1.
         11    1    4    4    0    0 -0.11622758774E-01 -0.36036810027E-01  0.32636964134E-01  0.49991726789E-01  0.51100000000E-03 0.  1.
</event>
<event>
 8    1  0.1070112E+005  0.1043930E+01  0.7957747E-01            NaN
         13   -1    0    0    0    0  0.00000000000E+00  0.00000000000E+00  0.74505805969E-08  0.10566000000E+00  0.10566000000E+00 0. -1.
     999900   -1    0    0    0    0 -0.00000000000E+00 -0.00000000000E+00 -0.74505805969E-08  0.93827000000E+00  0.93827000000E+00 0. -1.
     999902    2    1    2    0    0 -0.14175240428E-01 -0.19737086477E-02  0.18802985386E-01  0.10202998238E+01  0.10200261493E+01 0.  0.
     999903    2    3    3    0    0 -0.10661181830E+00 -0.40917499252E-02  0.77346888100E-01  0.13352116171E+00  0.21506680501E-01 0.  0.
         14    1    1    2    0    0  0.14175240428E-01  0.19737086477E-02 -0.18802985386E-01  0.23630176183E-01  0.00000000000E+00 0.  1.
     999901    1    3    3    0    0  0.92436577873E-01  0.21180412775E-02 -0.58543902715E-01  0.88677866211E+00  0.88000000000E+00 0. -1.
        -11    1    4    4    0    0 -0.72047440562E-01  0.98774653526E-03  0.63133546990E-01  0.95801436374E-01  0.51100000000E-03 0.  1.
         11    1    4    4    0    0 -0.34564377738E-01 -0.50794964605E-02  0.14213341110E-01  0.37719725334E-01  0.51100000000E-03 0. -1.
</event>
<event>
 8    1  0.1070112E+005  0.1043930E+01  0.7957747E-01            NaN
         13   -1    0    0    0    0  0.00000000000E+00  0.00000000000E+00  0.74505805969E-08  0.10566000000E+00  0.10566000000E+00 0.  1.
     999900   -1    0    0    0    0 -0.00000000000E+00 -0.00000000000E+00 -0.74505805969E-08  0.93827000000E+00  0.93827000000E+00 0. -1.
     999902    2    1    2    0    0  0.52712536691E-02 -0.24847793028E-01 -0.11190687092E-01  0.10161733718E+01  0.10157942169E+01 0.  0.
     999903    2    3    3    0    0 -0.52514017469E-02 -0.10711070621E+00 -0.71035091208E-01  0.13025053885E+00  0.20467977013E-01 0.  0.
         14    1    1    2    0    0 -0.52712536691E-02  0.24847793028E-01  0.11190687092E-01  0.27756628239E-01  0.00000000000E+00 0. -1.
     999901    1    3    3    0    0  0.10522655416E-01  0.82262913186E-01  0.59844404115E-01  0.88592283291E+00  0.88000000000E+00 0.  1.
        -11    1    4    4    0    0  0.10399919363E-02 -0.85500838497E-01 -0.48083248365E-01  0.98100636395E-01  0.51100000000E-03 0.  1.
         11    1    4    4    0    0 -0.62913936832E-02 -0.21609867717E-01 -0.22951842843E-01  0.32149902459E-01  0.51100000000E-03 0. -1.
</event>
<event>
 8    1  0.1368602E+005  0.1043930E+01  0.7957747E-01            NaN
         13   -1    0    0    0    0  0.00000000000E+00  0.00000000000E+00  0.74505805969E-08  0.10566000000E+00  0.10566000000E+00 0.  1.
     999900   -1    0    0    0    0 -0.00000000000E+00 -0.00000000000E+00 -0.74505805969E-08  0.93827000000E+00  0.93827000000E+00 0. -1.
     999902    2    1    2    0    0 -0.12817369941E-02 -0.46325531051E-02  0.24239170093E-01  0.10192188534E+01  0.10189192463E+01 0.  0.
     999903    2    3    3    0    0  0.81177757077E-01  0.82335094580E-01  0.57217326980E-01  0.13048351671E+00  0.19576250462E-01 0.  0.
         14    1    1    2    0    0  0.12817369941E-02  0.46325531051E-02 -0.24239170093E-01  0.24711146570E-01  0.00000000000E+00 0. -1.
     999901    1    3    3    0    0 -0.82459494071E-01 -0.86967647685E-01 -0.32978156886E-01  0.88873533672E+00  0.88000000000E+00 0.  1.
        -11    1    4    4    0    0  0.51967065658E-01  0.40998512125E-01  0.38093016333E-01  0.76372723691E-01  0.51100000000E-03 0. -1.
         11    1    4    4    0    0  0.29210691419E-01  0.41336582455E-01  0.19124310647E-01  0.54110793017E-01  0.51100000000E-03 0.  1.
</event>
<event>
 8    1  0.1070112E+005  0.1043930E+01  0.7957747E-01            NaN
         13   -1    0    0    0    0  0.00000000000E+00  0.00000000000E+00  0.74505805969E-08  0.10566000000E+00  0.10566000000E+00 0. -1.
     999900   -1    0    0    0    0 -0.00000000000E+00 -0.00000000000E+00 -0.74505805969E-08  0.93827000000E+00  0.93827000000E+00 0. -1.
     999902    2    1    2    0    0 -0.25085236159E-01  0.26128838016E-01  0.80063695112E-02  0.10068343506E+01  0.10061507454E+01 0.  0.
     999903    2    3    3    0    0 -0.27191325263E-01  0.38953712632E-01 -0.10766529266E+00  0.11916952287E+00  0.18782972101E-01 0.  0.
         14    1    1    2    0    0  0.25085236159E-01 -0.26128838016E-01 -0.80063695112E-02  0.37095649367E-01  0.00000000000E+00 0.  1.
     999901    1    3    3    0    0  0.21060891037E-02 -0.12824874615E-01  0.11567166217E+00  0.88766482776E+00  0.88000000000E+00 0.  1.
        -11    1    4    4    0    0 -0.24847825633E-01  0.20591727654E-01 -0.62135971638E-01  0.70018381721E-01  0.51100000000E-03 0. -1.
         11    1    4    4    0    0 -0.23434996300E-02  0.18361984978E-01 -0.45529321017E-01  0.49151141148E-01  0.51100000000E-03 0.  1.
</event>
<event>
 8    1  0.1070112E+005  0.1043930E+01  0.7957747E-01            NaN
         13   -1    0    0    0    0  0.00000000000E+00  0.00000000000E+00  0.74505805969E-08  0.10566000000E+00  0.10566000000E+00 0. -1.
     999900   -1    0    0    0    0 -0.00000000000E+00 -0.00000000000E+00 -0.74505805969E-08  0.93827000000E+00  0.93827000000E+00 0. -1.
     999902    2    1    2    0    0 -0.26650409986E-02  0.20588763570E-01  0.12023285088E-01  0.10199391890E+01  0.10196569964E+01 0.  0.
     999903    2    3    3    0    0  0.36823491060E-01 -0.12048030787E+00  0.10202144870E-01  0.12782756837E+00  0.19087414641E-01 0.  0.
         14    1    1    2    0    0  0.26650409986E-02 -0.20588763570E-01 -0.12023285088E-01  0.23990811015E-01  0.00000000000E+00 0.  1.
     999901    1    3    3    0    0 -0.39488532058E-01  0.14106907144E+00  0.18211402181E-02  0.89211162061E+00  0.88000000000E+00 0.  1.
        -11    1    4    4    0    0  0.12414528954E-01 -0.62467915429E-01 -0.19649386279E-02  0.63721920028E-01  0.51100000000E-03 0.  1.
         11    1    4    4    0    0  0.24408962106E-01 -0.58012392441E-01  0.12167083498E-01  0.64105648344E-01  0.51100000000E-03 0. -1.
</event>
<event>
 8    1  0.1070112E+005  0.1043930E+01  0.7957747E-01            NaN
         13   -1    0    0    0    0  0.00000000000E+00  0.00000000000E+00  0.74505805969E-08  0.10566000000E+00  0.10566000000E+00 0. -1.
     999900   -1    0    0    0    0 -0.00000000000E+00 -0.00000000000E+00 -0.74505805969E-08  0.93827000000E+00  0.93827000000E+00 0. -1.
     999902    2    1    2    0    0  0.19745593739E-01  0.10995985366E-01 -0.95405408634E-02  0.10193979376E+01  0.10191027098E+01 0.  0.
     999903    2    3    3    0    0  0.72934316592E-01 -0.17193516195E-01  0.10434645044E+00  0.13001953948E+00  0.20046630421E-01 0.  0.
         14    1    1    2    0    0 -0.19745593739E-01 -0.10995985366E-01  0.95405408634E-02  0.24532062413E-01  0.00000000000E+00 0. -1.
     999901    1    3    3    0    0 -0.53188722853E-01  0.28189501561E-01 -0.11388699130E+00  0.88937839811E+00  0.88000000000E+00 0. -1.
        -11    1    4    4    0    0  0.47276144821E-01 -0.16135437809E-01  0.54414824927E-01  0.73868941479E-01  0.51100000000E-03 0. -1.
         11    1    4    4    0    0  0.25658171771E-01 -0.10580783861E-02  0.49931625510E-01  0.56150597999E-01  0.51100000000E-03 0.  1.
</event>
<event>
 8    1  0.1070112E+005  0.1043930E+01  0.7957747E-01            NaN
         13   -1    0    0    0    0  0.00000000000E+00  0.00000000000E+00  0.74505805969E-08  0.10566000000E+00  0.10566000000E+00 0. -1.
     999900   -1    0    0    0    0 -0.00000000000E+00 -0.00000000000E+00 -0.74505805969E-08  0.93827000000E+00  0.93827000000E+00 0. -1.
     999902    2    1    2    0    0 -0.19544401688E-01  0.10366857399E-01 -0.94630898248E-02  0.10198674682E+01  0.10195835656E+01 0.  0.
     999903    2    3    3    0    0  0.11979607178E-01 -0.97531541822E-01  0.79811211935E-01  0.12823653069E+00  0.20466206660E-01 0.  0.
         14    1    1    2    0    0  0.19544401688E-01 -0.10366857399E-01  0.94630898248E-02  0.24062531843E-01  0.00000000000E+00 0. -1.
     999901    1    3    3    0    0 -0.31524008866E-01  0.10789839922E+00 -0.89274301760E-01  0.89163093746E+00  0.88000000000E+00 0. -1.
        -11    1    4    4    0    0 -0.54235493248E-02 -0.17481591635E-01  0.12022986298E-01  0.21905119354E-01  0.51100000000E-03 0.  1.
         11    1    4    4    0    0  0.17403156503E-01 -0.80049950187E-01  0.67788225637E-01  0.10633141134E+00  0.51100000000E-03 0. -1.
</event>
<event>
 8    1  0.1070112E+005  0.1043930E+01  0.7957747E-01            NaN
         13   -1    0    0    0    0  0.00000000000E+00  0.00000000000E+00  0.74505805969E-08  0.10566000000E+00  0.10566000000E+00 0.  1.
     999900   -1    0    0    0    0 -0.00000000000E+00 -0.00000000000E+00 -0.74505805969E-08  0.93827000000E+00  0.93827000000E+00 0. -1.
     999902    2    1    2    0    0  0.90900853333E-02  0.22652228410E-01 -0.16857537920E-02  0.10194638015E+01  0.10191701760E+01 0.  0.
     999903    2    3    3    0    0 -0.84308793943E-02  0.10985697385E+00  0.69979077017E-01  0.13208141503E+00  0.20218668246E-01 0.  0.
         14    1    1    2    0    0 -0.90900853333E-02 -0.22652228410E-01  0.16857537920E-02  0.24466198502E-01  0.00000000000E+00 0.  1.
     999901    1    3    3    0    0  0.17520964728E-01 -0.87204745444E-01 -0.71664830809E-01  0.88738238646E+00  0.88000000000E+00 0. -1.
        -11    1    4    4    0    0  0.32749061623E-02  0.19863375742E-01  0.58960572636E-02  0.20983405789E-01  0.51100000000E-03 0.  1.
         11    1    4    4    0    0 -0.11705785557E-01  0.89993598111E-01  0.64083019753E-01  0.11109800924E+00  0.51100000000E-03 0. -1.
</event>
<event>
 8    1  0.1070112E+005  0.1043930E+01  0.7957747E-01            NaN
         13   -1    0    0    0    0  0.00000000000E+00  0.00000000000E+00  0.74505805969E-08  0.10566000000E+00  0.10566000000E+00 0.  1.
     999900   -1    0    0    0    0 -0.00000000000E+00 -0.00000000000E+00 -0.74505805969E-08  0.93827000000E+00  0.93827000000E+00 0. -1.
     999902    2    1    2    0    0  0.35723749115E-02 -0.13540868149E-01 -0.19069659766E-01  0.10202705643E+01  0.10199962037E+01 0.  0.
     999903    2    3    3    0    0  0.30606858872E-01 -0.11140308791E+00 -0.63434684614E-01  0.13332291491E+00  0.20090112521E-01 0.  0.
         14    1    1    2    0    0 -0.35723749115E-02  0.13540868149E-01  0.19069659766E-01  0.23659435673E-01  0.00000000000E+00 0.  1.
     999901    1    3    3    0    0 -0.27034483960E-01  0.97862219763E-01  0.44365024848E-01  0.88694764942E+00  0.88000000000E+00 0. -1.
        -11    1    4    4    0    0  0.29736465237E-01 -0.86971623858E-01 -0.43096488575E-01  0.10151792536E+00  0.51100000000E-03 0.  1.
         11    1    4    4    0    0  0.87039363498E-03 -0.24431464055E-01 -0.20338196039E-01  0.31804989547E-01  0.51100000000E-03 0. -1.
</event>
<event>
 8    1  0.1070112E+005  0.1043930E+01  0.7957747E-01            NaN
         13   -1    0    0    0    0  0.00000000000E+00  0.00000000000E+00  0.74505805969E-08  0.10566000000E+00  0.10566000000E+00 0. -1.
     999900   -1    0    0    0    0 -0.00000000000E+00 -0.00000000000E+00 -0.74505805969E-08  0.93827000000E+00  0.93827000000E+00 0.  1.
     999902    2    1    2    0    0 -0.59683782588E-02 -0.17442666003E-02 -0.23356736143E-01  0.10197597470E+01  0.10194732662E+01 0.  0.
     999903    2    3    3    0    0  0.57245095699E-01  0.75518790330E-02  0.11158720580E+00  0.12718357153E+00  0.19746506309E-01 0.  0.
         14    1    1    2    0    0  0.59683782588E-02  0.17442666003E-02  0.23356736143E-01  0.24170252963E-01  0.00000000000E+00 0. -1.
     999901    1    3    3    0    0 -0.63213473958E-01 -0.92961456333E-02 -0.13494394194E+00  0.89257617551E+00  0.88000000000E+00 0.  1.
        -11    1    4    4    0    0  0.43103611106E-01 -0.30870474620E-02  0.82439415646E-01  0.93080446525E-01  0.51100000000E-03 0. -1.
         11    1    4    4    0    0  0.14141484593E-01  0.10638926495E-01  0.29147790152E-01  0.34103125007E-01  0.51100000000E-03 0.  1.
</event>
<event>
 8    1  0.1070112E+005  0.1043930E+01  0.7957747E-01            NaN
         13   -1    0    0    0    0  0.00000000000E+00  0.00000000000E+00  0.74505805969E-08  0.10566000000E+00  0.10566000000E+00 0.  1.
     999900   -1    0    0    0    0 -0.00000000000E+00 -0.00000000000E+00 -0.74505805969E-08  0.93827000000E+00  0.93827000000E+00 0. -1.
     999902    2    1    2    0    0 -0.63185772239E-02 -0.77629781537E-02  0.20986791903E-01  0.10206784692E+01  0.10204135945E+01 0.  0.
     999903    2    3    3    0    0 -0.10772679357E-01  0.11912120338E+00 -0.44499933824E-01  0.12915844940E+00  0.19893446806E-01 0.  0.
         14    1    1    2    0    0  0.63185772239E-02  0.77629781537E-02 -0.20986791903E-01  0.23251530752E-01  0.00000000000E+00 0. -1.
     999901    1    3    3    0    0  0.44541021329E-02 -0.12688418153E+00  0.65486725726E-01  0.89152001985E+00  0.88000000000E+00 0.  1.
        -11    1    4    4    0    0 -0.61453626888E-02  0.61613406467E-01 -0.33572394224E-01  0.70436809368E-01  0.51100000000E-03 0.  1.
         11    1    4    4    0    0 -0.46273166680E-02  0.57507796910E-01 -0.10927539600E-01  0.58721640029E-01  0.51100000000E-03 0. -1.
</event>
<event>
 8    1  0.1070112E+005  0.1043930E+01  0.7957747E-01            NaN
         13   -1    0    0    0    0  0.00000000000E+00  0.00000000000E+00  0.74505805969E-08  0.10566000000E+00  0.10566000000E+00 0.  1.
     999900   -1    0    0    0    0 -0.00000000000E+00 -0.00000000000E+00 -0.74505805969E-08  0.93827000000E+00  0.93827000000E+00 0. -1.
     999902    2    1    2    0    0 -0.16139472487E-01 -0.62287934068E-02 -0.16015358488E-01  0.10203551798E+01  0.10200828010E+01 0.  0.
     999903    2    3    3    0    0  0.54111525647E-01  0.99030419931E-01 -0.61677733752E-01  0.13013062542E+00  0.19868456175E-01 0.  0.
         14    1    1    2    0    0  0.16139472487E-01  0.62287934068E-02  0.16015358488E-01  0.23574820190E-01  0.00000000000E+00 0. -1.
     999901    1    3    3    0    0 -0.70250998135E-01 -0.10525921334E+00  0.45662375264E-01  0.89022455439E+00  0.88000000000E+00 0.  1.
        -11    1    4    4    0    0  0.23054612673E-01  0.27602574127E-01 -0.12810486431E-01  0.38180976252E-01  0.51100000000E-03 0.  1.
         11    1    4    4    0    0  0.31056912974E-01  0.71427845804E-01 -0.48867247321E-01  0.91949649164E-01  0.51100000000E-03 0. -1.
</event>
<event>
 8    1  0.1070112E+005  0.1043930E+01  0.7957747E-01            NaN
         13   -1    0    0    0    0  0.00000000000E+00  0.00000000000E+00  0.74505805969E-08  0.10566000000E+00  0.10566000000E+00 0.  1.
     999900   -1    0    0    0    0 -0.00000000000E+00 -0.00000000000E+00 -0.74505805969E-08  0.93827000000E+00  0.93827000000E+00 0.  1.
     999902    2    1    2    0    0  0.16926126113E-01 -0.66906973718E-02  0.12917884285E-01  0.10216111535E+01  0.10213673276E+01 0.  0.
     999903    2    3    3    0    0  0.12565517702E+00 -0.11967784669E-01 -0.38394411646E-01  0.13342040487E+00  0.19860065703E-01 0.  0.
         14    1    1    2    0    0 -0.16926126113E-01  0.66906973718E-02 -0.12917884285E-01  0.22318846541E-01  0.00000000000E+00 0.  1.
     999901    1    3    3    0    0 -0.10872905090E+00  0.52770872976E-02  0.51312295931E-01  0.88819074859E+00  0.88000000000E+00 0. -1.
        -11    1    4    4    0    0  0.72124306135E-01 -0.12470499144E-01 -0.30538756674E-01  0.79311447248E-01  0.51100000000E-03 0. -1.
         11    1    4    4    0    0  0.53530870882E-01  0.50271447465E-03 -0.78556549723E-02  0.54108957625E-01  0.51100000000E-03 0.  1.
</event>
<event>
 8    1  0.1070112E+005  0.1043930E+01  0.7957747E-01            NaN
         13   -1    0    0    0    0  0.00000000000E+00  0.00000000000E+00  0.74505805969E-08  0.10566000000E+00  0.10566000000E+00 0. -1.
     999900   -1    0    0    0    0 -0.00000000000E+00 -0.00000000000E+00 -0.74505805969E-08  0.93827000000E+00  0.93827000000E+00 0.  1.
     999902    2    1    2    0    0  0.16096405159E-01 -0.11838680785E-01  0.86896323807E-02  0.10221410502E+01  0.10219087866E+01 0.  0.
     999903    2    3    3    0    0  0.32507216608E-01 -0.74536772171E-01  0.10524755976E+00  0.13449033133E+00  0.19953717658E-01 0.  0.
         14    1    1    2    0    0 -0.16096405159E-01  0.11838680785E-01 -0.86896323807E-02  0.21788949784E-01  0.00000000000E+00 0. -1.
     999901    1    3    3    0    0 -0.16410811448E-01  0.62698091387E-01 -0.96557927382E-01  0.88765071888E+00  0.88000000000E+00 0.  1.
        -11    1    4    4    0    0  0.32045582673E-01 -0.65035168475E-01  0.82518762924E-01  0.10984580039E+00  0.51100000000E-03 0.  1.
         11    1    4    4    0    0  0.46163393480E-03 -0.95016036968E-02  0.22728796838E-01  0.24644530944E-01  0.51100000000E-03 0. -1.
</event>
<event>
 8    1  0.1070112E+005  0.1043930E+01  0.7957747E-01            NaN
         13   -1    0    0    0    0  0.00000000000E+00  0.00000000000E+00  0.74505805969E-08  0.10566000000E+00  0.10566000000E+00 0.  1.
     999900   -1    0    0    0    0 -0.00000000000E+00 -0.00000000000E+00 -0.74505805969E-08  0.93827000000E+00  0.93827000000E+00 0. -1.
     999902    2    1    2    0    0 -0.80481798159E-02  0.40178770885E-02 -0.21778343569E-01  0.10203670464E+01  0.10200949449E+01 0.  0.
     999903    2    3    3    0    0 -0.86625528025E-01 -0.72599565672E-01  0.60470038533E-01  0.12974399001E+00  0.20054883233E-01 0.  0.
         14    1    1    2    0    0  0.80481798159E-02 -0.40178770885E-02  0.21778343569E-01  0.23562953619E-01  0.00000000000E+00 0.  1.
     999901    1    3    3    0    0  0.78577348209E-01  0.76617442760E-01 -0.82248382102E-01  0.89062305637E+00  0.88000000000E+00 0. -1.
        -11    1    4    4    0    0 -0.80990553873E-01 -0.64496558408E-01  0.48824009040E-01  0.11446973767E+00  0.51100000000E-03 0. -1.
         11    1    4    4    0    0 -0.56349741513E-02 -0.81030072640E-02  0.11646029494E-01  0.15274252335E-01  0.51100000000E-03 0.  1.
</event>
<event>
 8    1  0.1070112E+005  0.1043930E+01  0.7957747E-01            NaN
         13   -1    0    0    0    0  0.00000000000E+00  0.00000000000E+00  0.74505805969E-08  0.10566000000E+00  0.10566000000E+00 0.  1.
     999900   -1    0    0    0    0 -0.00000000000E+00 -0.00000000000E+00 -0.74505805969E-08  0.93827000000E+00  0.93827000000E+00 0. -1.
     999902    2    1    2    0    0  0.20015848877E-01 -0.11816680775E-01 -0.19259154423E-04  0.10206863230E+01  0.10204216292E+01 0.  0.
     999903    2    3    3    0    0  0.14224951748E-01  0.10434176304E+00  0.72069052447E-01  0.13011176505E+00  0.25408075814E-01 0.  0.
         14    1    1    2    0    0 -0.20015848877E-01  0.11816680775E-01  0.19259154423E-04  0.23243677026E-01  0.00000000000E+00 0. -1.
     999901    1    3    3    0    0  0.57908971290E-02 -0.11615844381E+00 -0.72088311601E-01  0.89057455793E+00  0.88000000000E+00 0. -1.
        -11    1    4    4    0    0  0.88931889459E-02  0.39933772365E-01  0.42645172476E-01  0.59098788832E-01  0.51100000000E-03 0. -1.
         11    1    4    4    0    0  0.53317628018E-02  0.64407990674E-01  0.29423879971E-01  0.71012976214E-01  0.51100000000E-03 0.  1.
</event>
<event>
 8    1  0.1070112E+005  0.1043930E+01  0.7957747E-01            NaN
         13   -1    0    0    0    0  0.00000000000E+00  0.00000000000E+00  0.74505805969E-08  0.10566000000E+00  0.10566000000E+00 0. -1.
     999900   -1    0    0    0    0 -0.00000000000E+00 -0.00000000000E+00 -0.74505805969E-08  0.93827000000E+00  0.93827000000E+00 0. -1.
     999902    2    1    2    0    0  0.72031469076E-02  0.45221588484E-02  0.22610240126E-01  0.10197730506E+01  0.10194868888E+01 0.  0.
     999903    2    3    3    0    0 -0.11758585141E+00 -0.28979740608E-01 -0.39252057486E-01  0.12818928267E+00  0.15017002259E-01 0.  0.
         14    1    1    2    0    0 -0.72031469076E-02 -0.45221588484E-02 -0.22610240126E-01  0.24156949406E-01  0.00000000000E+00 0.  1.
     999901    1    3    3    0    0  0.12478899831E+00  0.33501899457E-01  0.61862297612E-01  0.89158376793E+00  0.88000000000E+00 0. -1.
        -11    1    4    4    0    0 -0.99489097861E-01 -0.26761435791E-01 -0.28020761334E-01  0.10676928035E+00  0.51100000000E-03 0.  1.
         11    1    4    4    0    0 -0.18096753546E-01 -0.22183048171E-02 -0.11231296152E-01  0.21420002320E-01  0.51100000000E-03 0. -1.
</event>
<event>
 8    1  0.1070112E+005  0.1043930E+01  0.7957747E-01            NaN
         13   -1    0    0    0    0  0.00000000000E+00  0.00000000000E+00  0.74505805969E-08  0.10566000000E+00  0.10566000000E+00 0.  1.
     999900   -1    0    0    0    0 -0.00000000000E+00 -0.00000000000E+00 -0.74505805969E-08  0.93827000000E+00  0.93827000000E+00 0. -1.
     999902    2    1    2    0    0  0.18019786202E-02 -0.34282133793E-02 -0.23448085410E-01  0.10201642161E+01  0.10198873543E+01 0.  0.
     999903    2    3    3    0    0  0.11250340569E+00 -0.48068490079E-01 -0.44831791367E-01  0.13184849345E+00  0.20162829152E-01 0.  0.
         14    1    1    2    0    0 -0.18019786202E-02  0.34282133793E-02  0.23448085410E-01  0.23765783878E-01  0.00000000000E+00 0.  1.
     999901    1    3    3    0    0 -0.11070142707E+00  0.44640276700E-01  0.21383705956E-01  0.88831572267E+00  0.88000000000E+00 0.  1.
        -11    1    4    4    0    0  0.51668568628E-01 -0.27415954580E-01 -0.12052934368E-01  0.59722775367E-01  0.51100000000E-03 0. -1.
         11    1    4    4    0    0  0.60834837058E-01 -0.20652535499E-01 -0.32778856999E-01  0.72125718087E-01  0.51100000000E-03 0.  1.
</event>
<event>
 8    1  0.1070112E+005  0.1043930E+01  0.7957747E-01            NaN
         13   -1    0    0    0    0  0.00000000000E+00  0.00000000000E+00  0.74505805969E-08  0.10566000000E+00  0.10566000000E+00 0.  1.
     999900   -1    0    0    0    0 -0.00000000000E+00 -0.00000000000E+00 -0.74505805969E-08  0.93827000000E+00  0.93827000000E+00 0. -1.
     999902    2    1    2    0    0 -0.88133663709E-02 -0.43040581543E-02  0.20298402766E-01  0.10213861428E+01  0.10211373204E+01 0.  0.
     999903    2    3    3    0    0  0.81037458577E-01  0.81715122734E-01 -0.55452062882E-01  0.12941607419E+00  0.20716129076E-01 0.  0.
         14    1    1    2    0    0  0.88133663709E-02  0.43040581543E-02 -0.20298402766E-01  0.22543857218E-01  0.00000000000E+00 0. -1.
     999901    1    3    3    0    0 -0.89850824948E-01 -0.86019180888E-01  0.75750465649E-01  0.89197006860E+00  0.88000000000E+00 0.  1.
        -11    1    4    4    0    0  0.58958066188E-01  0.55417518580E-01 -0.48626173647E-01  0.94402970391E-01  0.51100000000E-03 0.  1.
         11    1    4    4    0    0  0.22079392389E-01  0.26297604154E-01 -0.68258892356E-02  0.35013103796E-01  0.51100000000E-03 0. -1.
</event>
<event>
 8    1  0.1070112E+005  0.1043930E+01  0.7957747E-01            NaN
         13   -1    0    0    0    0  0.00000000000E+00  0.00000000000E+00  0.74505805969E-08  0.10566000000E+00  0.10566000000E+00 0.  1.
     999900   -1    0    0    0    0 -0.00000000000E+00 -0.00000000000E+00 -0.74505805969E-08  0.93827000000E+00  0.93827000000E+00 0.  1.
     999902    2    1    2    0    0 -0.58411355211E-02  0.13811094048E-01 -0.17578523520E-01  0.10208243801E+01  0.10205628571E+01 0.  0.
     999903    2    3    3    0    0  0.11619317079E+00  0.51214065921E-01  0.23491463576E-01  0.13066815892E+00  0.19964603858E-01 0.  0.
         14    1    1    2    0    0  0.58411355211E-02 -0.13811094048E-01  0.17578523520E-01  0.23105619925E-01  0.00000000000E+00 0.  1.
     999901    1    3    3    0    0 -0.12203430631E+00 -0.37402971874E-01 -0.41069987096E-01  0.89015622116E+00  0.88000000000E+00 0. -1.
        -11    1    4    4    0    0  0.80651937353E-01  0.25293081049E-01  0.14351130908E-01  0.85736171055E-01  0.51100000000E-03 0.  1.
         11    1    4    4    0    0  0.35541233440E-01  0.25920984872E-01  0.91403326682E-02  0.44931987865E-01  0.51100000000E-03 0. -1.
</event>
<event>
 8    1  0.1070112E+005  0.1043930E+01  0.7957747E-01            NaN
         13   -1    0    0    0    0  0.00000000000E+00  0.00000000000E+00  0.74505805969E-08  0.10566000000E+00  0.10566000000E+00 0.  1.
     999900   -1    0    0    0    0 -0.00000000000E+00 -0.00000000000E+00 -0.74505805969E-08  0.93827000000E+00  0.93827000000E+00 0. -1.
     999902    2    1    2    0    0  0.17662797870E-01  0.12150619763E-01 -0.97287654110E-02  0.10203872545E+01  0.10201156250E+01 0.  0.
     999903    2    3    3    0    0  0.18223819728E-01  0.41647564085E-01  0.12033968706E+00  0.13033771273E+00  0.20967877340E-01 0.  0.
         14    1    1    2    0    0 -0.17662797870E-01 -0.12150619763E-01  0.97287654110E-02  0.23542745499E-01  0.00000000000E+00 0.  1.
     999901    1    3    3    0    0 -0.56102185776E-03 -0.29496944322E-01 -0.13006845247E+00  0.89004954177E+00  0.88000000000E+00 0. -1.
        -11    1    4    4    0    0  0.52458230229E-02  0.25123641675E-01  0.41965022589E-01  0.49193904827E-01  0.51100000000E-03 0. -1.
         11    1    4    4    0    0  0.12977996705E-01  0.16523922410E-01  0.78374664468E-01  0.81143807908E-01  0.51100000000E-03 0.  1.
</event>
<event>
 8    1  0.1070112E+005  0.1043930E+01  0.7957747E-01            NaN
         13   -1    0    0    0    0  0.00000000000E+00  0.00000000000E+00  0.74505805969E-08  0.10566000000E+00  0.10566000000E+00 0.  1.
     999900   -1    0    0    0    0 -0.00000000000E+00 -0.00000000000E+00 -0.74505805969E-08  0.93827000000E+00  0.93827000000E+00 0.  1.
     999902    2    1    2    0    0  0.20202437381E-01 -0.12081201438E-01  0.25906738542E-02  0.10202486678E+01  0.10199737931E+01 0.  0.
     999903    2    3    3    0    0  0.52530930885E-01 -0.77948026761E-01 -0.90722998455E-01  0.13227850409E+00  0.20773700228E-01 0.  0.
         14    1    1    2    0    0 -0.20202437381E-01  0.12081201438E-01 -0.25906738542E-02  0.23681332213E-01  0.00000000000E+00 0. -1.
     999901    1    3    3    0    0 -0.32328493503E-01  0.65866825323E-01  0.93313672309E-01  0.88797016369E+00  0.88000000000E+00 0. -1.
        -11    1    4    4    0    0  0.94309438300E-03 -0.12830934049E-01 -0.16030462472E-01  0.20561107549E-01  0.51100000000E-03 0.  1.
         11    1    4    4    0    0  0.51587836502E-01 -0.65117092712E-01 -0.74692535983E-01  0.11171739654E+00  0.51100000000E-03 0. -1.
</event>
<event>
 8    1  0.1070112E+005  0.1043930E+01  0.7957747E-01            NaN
         13   -1    0    0    0    0  0.00000000000E+00  0.00000000000E+00  0.74505805969E-08  0.10566000000E+00  0.10566000000E+00 0.  1.
     999900   -1    0    0    0    0 -0.00000000000E+00 -0.00000000000E+00 -0.74505805969E-08  0.93827000000E+00  0.93827000000E+00 0. -1.
     999902    2    1    2    0    0  0.17043438524E-01  0.34390920469E-02  0.15672774025E-01  0.10205218391E+01  0.10202533421E+01 0.  0.
     999903    2    3    3    0    0  0.11518743329E+00 -0.36134932084E-01 -0.49122662611E-01  0.13181671607E+00  0.19716301635E-01 0.  0.
         14    1    1    2    0    0 -0.17043438524E-01 -0.34390920469E-02 -0.15672774025E-01  0.23408160895E-01  0.00000000000E+00 0.  1.
     999901    1    3    3    0    0 -0.98143994764E-01  0.39574024131E-01  0.64795436636E-01  0.88870512303E+00  0.88000000000E+00 0.  1.
        -11    1    4    4    0    0  0.62974420053E-01 -0.27027251149E-01 -0.35062007647E-01  0.76979577726E-01  0.51100000000E-03 0. -1.
         11    1    4    4    0    0  0.52213013235E-01 -0.91076809350E-02 -0.14060654965E-01  0.54837138347E-01  0.51100000000E-03 0.  1.
</event>
<event>
 8    1  0.1070112E+005  0.1043930E+01  0.7957747E-01            NaN
         13   -1    0    0    0    0  0.00000000000E+00  0.00000000000E+00  0.74505805969E-08  0.10566000000E+00  0.10566000000E+00 0.  1.
     999900   -1    0    0    0    0 -0.00000000000E+00 -0.00000000000E+00 -0.74505805969E-08  0.93827000000E+00  0.93827000000E+00 0.  1.
     999902    2    1    2    0    0 -0.94229505787E-02  0.15108902346E-01  0.14186794082E-01  0.10211630052E+01  0.10209091767E+01 0.  0.
     999903    2    3    3    0    0  0.12742939004E+00  0.15743290606E-01 -0.95773351907E-02  0.13026811831E+00  0.19797895144E-01 0.  0.
         14    1    1    2    0    0  0.94229505787E-02 -0.15108902346E-01 -0.14186794082E-01  0.22766994840E-01  0.00000000000E+00 0. -1.
     999901    1    3    3    0    0 -0.13685234062E+00 -0.63438825977E-03  0.23764129272E-01  0.89089488685E+00  0.88000000000E+00 0.  1.
        -11    1    4    4    0    0  0.59702111284E-01  0.52781030179E-02  0.51925931255E-02  0.60161653963E-01  0.51100000000E-03 0. -1.
         11    1    4    4    0    0  0.67727278758E-01  0.10465187588E-01 -0.14769928316E-01  0.70106464343E-01  0.51100000000E-03 0.  1.
</event>
<event>
 8    1  0.1070112E+005  0.1043930E+01  0.7957747E-01            NaN
         13   -1    0    0    0    0  0.00000000000E+00  0.00000000000E+00  0.74505805969E-08  0.10566000000E+00  0.10566000000E+00 0.  1.
     999900   -1    0    0    0    0 -0.00000000000E+00 -0.00000000000E+00 -0.74505805969E-08  0.93827000000E+00  0.93827000000E+00 0.  1.
     999902    2    1    2    0    0 -0.54371276840E-02 -0.14434021108E-01  0.18169617617E-01  0.10200964454E+01  0.10198179835E+01 0.  0.
     999903    2    3    3    0    0  0.35884263097E-01  0.23231278747E-01 -0.11871805858E+00  0.12775997964E+00  0.20031532988E-01 0.  0.
         14    1    1    2    0    0  0.54371276840E-02  0.14434021108E-01 -0.18169617617E-01  0.23833554648E-01  0.00000000000E+00 0. -1.
     999901    1    3    3    0    0 -0.41321390781E-01 -0.37665299856E-01  0.13688767620E+00  0.89233646571E+00  0.88000000000E+00 0. -1.
        -11    1    4    4    0    0  0.12581286232E-01 -0.16857629307E-02 -0.25397105895E-01  0.28397265163E-01  0.51100000000E-03 0.  1.
         11    1    4    4    0    0  0.23302976865E-01  0.24917041678E-01 -0.93320952685E-01  0.99362714475E-01  0.51100000000E-03 0. -1.
</event>
<event>
 8    1  0.1070112E+005  0.1043930E+01  0.7957747E-01            NaN
         13   -1    0    0    0    0  0.00000000000E+00  0.00000000000E+00  0.74505805969E-08  0.10566000000E+00  0.10566000000E+00 0.  1.
     999900   -1    0    0    0    0 -0.00000000000E+00 -0.00000000000E+00 -0.74505805969E-08  0.93827000000E+00  0.93827000000E+00 0.  1.
     999902    2    1    2    0    0 -0.20796527046E-01 -0.51995440842E-02  0.92289091913E-02  0.10205911148E+01  0.10203242230E+01 0.  0.
     999903    2    3    3    0    0  0.10486632973E+00  0.70059446032E-01  0.14138547654E-01  0.12847050992E+00  0.19987503614E-01 0.  0.
         14    1    1    2    0    0  0.20796527046E-01  0.51995440842E-02 -0.92289091913E-02  0.23338885164E-01  0.00000000000E+00 0. -1.
     999901    1    3    3    0    0 -0.12566285677E+00 -0.75258990116E-01 -0.49096384624E-02  0.89212060492E+00  0.88000000000E+00 0. -1.
        -11    1    4    4    0    0  0.64427485064E-02  0.16551089737E-02  0.48542522020E-02  0.82506532755E-02  0.51100000000E-03 0. -1.
         11    1    4    4    0    0  0.98423581220E-01  0.68404337058E-01  0.92842954517E-02  0.12021985664E+00  0.51100000000E-03 0.  1.
</event>
<event>
 8    1  0.1241820E+005  0.1043930E+01  0.7957747E-01            NaN
         13   -1    0    0    0    0  0.00000000000E+00  0.00000000000E+00  0.74505805969E-08  0.10566000000E+00  0.10566000000E+00 0.  1.
     999900   -1    0    0    0    0 -0.00000000000E+00 -0.00000000000E+00 -0.74505805969E-08  0.93827000000E+00  0.93827000000E+00 0.  1.
     999902    2    1    2    0    0  0.18857735029E-02  0.22574615044E-01  0.11611066770E-01  0.10184744258E+01  0.10181562600E+01 0.  0.
     999903    2    3    3    0    0 -0.81509111023E-01 -0.36965357613E-02  0.98761301735E-01  0.12985749845E+00  0.21255014150E-01 0.  0.
         14    1    1    2    0    0 -0.18857735029E-02 -0.22574615044E-01 -0.11611066770E-01  0.25455574196E-01  0.00000000000E+00 0. -1.
     999901    1    3    3    0    0  0.83394884525E-01  0.26271150805E-01 -0.87150234965E-01  0.88861692736E+00  0.88000000000E+00 0.  1.
        -11    1    4    4    0    0 -0.47262481317E-01 -0.12280996718E-01  0.61369745411E-01  0.78428768915E-01  0.51100000000E-03 0. -1.
         11    1    4    4    0    0 -0.34246629705E-01  0.85844609571E-02  0.37391556323E-01  0.51428729533E-01  0.51100000000E-03 0.  1.
</event>
<event>
 8    1  0.1070112E+005  0.1043930E+01  0.7957747E-01            NaN
         13   -1    0    0    0    0  0.00000000000E+00  0.00000000000E+00  0.74505805969E-08  0.10566000000E+00  0.10566000000E+00 0. -1.
     999900   -1    0    0    0    0 -0.00000000000E+00 -0.00000000000E+00 -0.74505805969E-08  0.93827000000E+00  0.93827000000E+00 0. -1.
     999902    2    1    2    0    0 -0.46950819810E-02 -0.10108933414E-01  0.21160031041E-01  0.10200138706E+01  0.10197334530E+01 0.  0.
     999903    2    3    3    0    0  0.11149621348E+00 -0.21946889799E-01 -0.57709715574E-01  0.12880065750E+00  0.18604475530E-01 0.  0.
         14    1    1    2    0    0  0.46950819810E-02  0.10108933414E-01 -0.21160031041E-01  0.23916129353E-01  0.00000000000E+00 0.  1.
     999901    1    3    3    0    0 -0.11619129546E+00  0.11837956385E-01  0.78869746615E-01  0.89121321314E+00  0.88000000000E+00 0.  1.
        -11    1    4    4    0    0  0.64902158236E-01 -0.20570022051E-01 -0.39774629155E-01  0.78852382312E-01  0.51100000000E-03 0. -1.
         11    1    4    4    0    0  0.46594055242E-01 -0.13768677481E-02 -0.17935086419E-01  0.49948275191E-01  0.51100000000E-03 0.  1.
</event>
<event>
 8    1  0.1070112E+005  0.1043930E+01  0.7957747E-01            NaN
         13   -1    0    0    0    0  0.00000000000E+00  0.00000000000E+00  0.74505805969E-08  0.10566000000E+00  0.10566000000E+00 0. -1.
     999900   -1    0    0    0    0 -0.00000000000E+00 -0.00000000000E+00 -0.74505805969E-08  0.93827000000E+00  0.93827000000E+00 0. -1.
     999902    2    1    2    0    0 -0.12754364871E-01  0.12495761238E-01  0.15278268330E-01  0.10204301414E+01  0.10201595121E+01 0.  0.
     999903    2    3    3    0    0  0.12113750114E+00  0.22891911367E-02 -0.37978879504E-01  0.12865240581E+00  0.20724662959E-01 0.  0.
         14    1    1    2    0    0  0.12754364871E-01 -0.12495761238E-01 -0.15278268330E-01  0.23499858624E-01  0.00000000000E+00 0.  1.
     999901    1    3    3    0    0 -0.13389186601E+00  0.10206570101E-01  0.53257147834E-01  0.89177773557E+00  0.88000000000E+00 0. -1.
        -11    1    4    4    0    0  0.98248031826E-01 -0.53883007427E-02 -0.26430599094E-01  0.10188497059E+00  0.51100000000E-03 0.  1.
         11    1    4    4    0    0  0.22889469310E-01  0.76774918793E-02 -0.11548280410E-01  0.26767435221E-01  0.51100000000E-03 0. -1.
</event>
<event>
 8    1  0.1070112E+005  0.1043930E+01  0.7957747E-01            NaN
         13   -1    0    0    0    0  0.00000000000E+00  0.00000000000E+00  0.74505805969E-08  0.10566000000E+00  0.10566000000E+00 0. -1.
     999900   -1    0    0    0    0 -0.00000000000E+00 -0.00000000000E+00 -0.74505805969E-08  0.93827000000E+00  0.93827000000E+00 0. -1.
     999902    2    1    2    0    0 -0.15605953215E-01  0.73447763148E-02  0.18388042089E-01  0.10187186611E+01  0.10184066472E+01 0.  0.
     999903    2    3    3    0    0 -0.14830030803E-01  0.87195328438E-01 -0.90711530723E-01  0.12839319846E+00  0.20815294579E-01 0.  0.
         14    1    1    2    0    0  0.15605953215E-01 -0.73447763148E-02 -0.18388042089E-01  0.25211338853E-01  0.00000000000E+00 0.  1.
     999901    1    3    3    0    0 -0.77592241232E-03 -0.79850552123E-01  0.10909957281E+00  0.89032546269E+00  0.88000000000E+00 0.  1.
        -11    1    4    4    0    0 -0.11165929579E-01  0.47314417614E-01 -0.35565272064E-01  0.60236880692E-01  0.51100000000E-03 0.  1.
         11    1    4    4    0    0 -0.36641012241E-02  0.39880910824E-01 -0.55146258659E-01  0.68156317763E-01  0.51100000000E-03 0. -1.
</event>
<event>
 8    1  0.1070112E+005  0.1043930E+01  0.7957747E-01            NaN
         13   -1    0    0    0    0  0.00000000000E+00  0.00000000000E+00  0.74505805969E-08  0.10566000000E+00  0.10566000000E+00 0.  1.
     999900   -1    0    0    0    0 -0.00000000000E+00 -0.00000000000E+00 -0.74505805969E-08  0.93827000000E+00  0.93827000000E+00 0.  1.
     999902    2    1    2    0    0 -0.91393994630E-02 -0.16593017503E-01 -0.14746947723E-01  0.10199231402E+01  0.10196405653E+01 0.  0.
     999903    2    3    3    0    0  0.10661694560E-01  0.88473475070E-01  0.88862922789E-01  0.12741764636E+00  0.19935145746E-01 0.  0.
         14    1    1    2    0    0  0.91393994630E-02  0.16593017503E-01  0.14746947723E-01  0.24006859844E-01  0.00000000000E+00 0.  1.
     999901    1    3    3    0    0 -0.19801094023E-01 -0.10506649257E+00 -0.10360987051E+00  0.89250549379E+00  0.88000000000E+00 0.  1.
        -11    1    4    4    0    0  0.75189807007E-02  0.51076125107E-01  0.37536429802E-01  0.63832204333E-01  0.51100000000E-03 0. -1.
         11    1    4    4    0    0  0.31427138591E-02  0.37397349963E-01  0.51326492987E-01  0.63585442028E-01  0.51100000000E-03 0.  1.
</event>
<event>
 8    1  0.1070112E+005  0.1043930E+01  0.7957747E-01            NaN
         13   -1    0    0    0    0  0.00000000000E+00  0.00000000000E+00  0.74505805969E-08  0.10566000000E+00  0.10566000000E+00 0. -1.
     999900   -1    0    0    0    0 -0.00000000000E+00 -0.00000000000E+00 -0.74505805969E-08  0.93827000000E+00  0.93827000000E+00 0. -1.
     999902    2    1    2    0    0  0.16871545390E-01 -0.16573832975E-01  0.22267690427E-02  0.10201750114E+01  0.10198984040E+01 0.  0.
     999903    2    3    3    0    0 -0.54632835513E-01 -0.71756953192E-02  0.11580243276E+00  0.12994996520E+00  0.20989347347E-01 0.  0.
         14    1    1    2    0    0 -0.16871545390E-01  0.16573832975E-01 -0.22267690427E-02  0.23754988607E-01  0.00000000000E+00 0. -1.
     999901    1    3    3    0    0  0.71504380904E-01 -0.93981376558E-02 -0.11357566372E+00  0.89022504619E+00  0.88000000000E+00 0. -1.
        -11    1    4    4    0    0 -0.65078498345E-02  0.24010910626E-02  0.32779576747E-01  0.33509388543E-01  0.51100000000E-03 0.  1.
         11    1    4    4    0    0 -0.48124985679E-01 -0.95767863818E-02  0.83022856016E-01  0.96440576657E-01  0.51100000000E-03 0. -1.
</event>
<event>
 8    1  0.1070112E+005  0.1043930E+01  0.7957747E-01            NaN
         13   -1    0    0    0    0  0.00000000000E+00  0.00000000000E+00  0.74505805969E-08  0.10566000000E+00  0.10566000000E+00 0.  1.
     999900   -1    0    0    0    0 -0.00000000000E+00 -0.00000000000E+00 -0.74505805969E-08  0.93827000000E+00  0.93827000000E+00 0.  1.
     999902    2    1    2    0    0  0.11325071813E-01 -0.22599871954E-01 -0.73928192454E-02  0.10175924747E+01  0.10172515811E+01 0.  0.
     999903    2    3    3    0    0 -0.46737176660E-01 -0.38784531630E-01  0.11058430021E+00  0.12767575463E+00  0.19585895178E-01 0.  0.
         14    1    1    2    0    0 -0.11325071813E-01  0.22599871954E-01  0.73928192454E-02  0.26337525326E-01  0.00000000000E+00 0. -1.
     999901    1    3    3    0    0  0.58062248473E-01  0.16184659676E-01 -0.11797711946E+00  0.88991672005E+00  0.88000000000E+00 0.  1.
        -11    1    4    4    0    0 -0.20337024599E-01 -0.70411739901E-02  0.49120033715E-01  0.53630322896E-01  0.51100000000E-03 0. -1.
         11    1    4    4    0    0 -0.26400152061E-01 -0.31743357640E-01  0.61464266497E-01  0.74045431730E-01  0.51100000000E-03 0.  1.
</event>
<event>
 8    1  0.1070112E+005  0.1043930E+01  0.7957747E-01            NaN
         13   -1    0    0    0    0  0.00000000000E+00  0.00000000000E+00  0.74505805969E-08  0.10566000000E+00  0.10566000000E+00 0. -1.
     999900   -1    0    0    0    0 -0.00000000000E+00 -0.00000000000E+00 -0.74505805969E-08  0.93827000000E+00  0.93827000000E+00 0.  1.
     999902    2    1    2    0    0 -0.21595408915E-01  0.92499578993E-02  0.36173182379E-02  0.10201600947E+01  0.10198831357E+01 0.  0.
     999903    2    3    3    0    0  0.32884326025E-01 -0.63043224217E-01  0.10651538496E+00  0.12955223607E+00  0.19555756694E-01 0.  0.
         14    1    1    2    0    0  0.21595408915E-01 -0.92499578993E-02 -0.36173182379E-02  0.23769905313E-01  0.00000000000E+00 0.  1.
     999901    1    3    3    0    0 -0.54479734940E-01  0.72293182116E-01 -0.10289806672E+00  0.89060785862E+00  0.88000000000E+00 0. -1.
        -11    1    4    4    0    0  0.20453430566E-01 -0.21899333103E-01  0.53273277627E-01  0.61124682759E-01  0.51100000000E-03 0.  1.
         11    1    4    4    0    0  0.12430895459E-01 -0.41143891114E-01  0.53242107330E-01  0.68427553309E-01  0.51100000000E-03 0. -1.
</event>
<event>
 8    1  0.1137200E+005  0.1043930E+01  0.7957747E-01            NaN
         13   -1    0    0    0    0  0.00000000000E+00  0.00000000000E+00  0.74505805969E-08  0.10566000000E+00  0.10566000000E+00 0. -1.
     999900   -1    0    0    0    0 -0.00000000000E+00 -0.00000000000E+00 -0.74505805969E-08  0.93827000000E+00  0.93827000000E+00 0. -1.
     999902    2    1    2    0    0  0.24747663022E-01  0.23350171924E-02 -0.21462894080E-03  0.10190714965E+01  0.10187682611E+01 0.  0.
     999903    2    3    3    0    0 -0.10751071753E-01 -0.51006475516E-03 -0.12724083122E+00  0.12923785434E+00  0.19908494580E-01 0.  0.
         14    1    1    2    0    0 -0.24747663022E-01 -0.23350171924E-02  0.21462894080E-03  0.24858503493E-01  0.00000000000E+00 0. -1.
     999901    1    3    3    0    0  0.35498734774E-01  0.28450819476E-02  0.12702620228E+00  0.88983364216E+00  0.88000000000E+00 0.  1.
        -11    1    4    4    0    0 -0.15694581847E-01  0.17420915717E-02 -0.71191212170E-01  0.72923278818E-01  0.51100000000E-03 0. -1.
         11    1    4    4    0    0  0.49435100943E-02 -0.22521563268E-02 -0.56049619047E-01  0.56314575525E-01  0.51100000000E-03 0.  1.
</event>
<event>
 8    1  0.1118210E+005  0.1043930E+01  0.7957747E-01            NaN
         13   -1    0    0    0    0  0.00000000000E+00  0.00000000000E+00  0.74505805969E-08  0.10566000000E+00  0.10566000000E+00 0. -1.
     999900   -1    0    0    0    0 -0.00000000000E+00 -0.00000000000E+00 -0.74505805969E-08  0.93827000000E+00  0.93827000000E+00 0.  1.
     999902    2    1    2    0    0  0.62223611727E-02 -0.21995852845E-01  0.80629902078E-02  0.10196906285E+01  0.10194024871E+01 0.  0.
     999903    2    3    3    0    0 -0.11689816678E-01 -0.12749414025E+00  0.29422744175E-01  0.13295110987E+00  0.20466854411E-01 0.  0.
         14    1    1    2    0    0 -0.62223611727E-02  0.21995852845E-01 -0.80629902078E-02  0.24239371527E-01  0.00000000000E+00 0.  1.
     999901    1    3    3    0    0  0.17912177851E-01  0.10549828740E+00 -0.21359753968E-01  0.88673951860E+00  0.88000000000E+00 0.  1.
        -11    1    4    4    0    0  0.13748758363E-02 -0.88739288444E-01  0.20500843620E-01  0.91088403802E-01  0.51100000000E-03 0. -1.
         11    1    4    4    0    0 -0.13064692515E-01 -0.38754851805E-01  0.89219005558E-02  0.41862706069E-01  0.51100000000E-03 0.  1.
</event>
<event>
 8    1  0.1070112E+005  0.1043930E+01  0.7957747E-01            NaN
         13   -1    0    0    0    0  0.00000000000E+00  0.00000000000E+00  0.74505805969E-08  0.10566000000E+00  0.10566000000E+00 0.  1.
     999900   -1    0    0    0    0 -0.00000000000E+00 -0.00000000000E+00 -0.74505805969E-08  0.93827000000E+00  0.93827000000E+00 0.  1.
     999902    2    1    2    0    0  0.19296480233E-01  0.11815393117E-01  0.11815379443E-02  0.10212726900E+01  0.10210213287E+01 0.  0.
     999903    2    3    3    0    0  0.61176550699E-01 -0.32781684163E-01 -0.11067834070E+00  0.13208459290E+00  0.19479101833E-01 0.  0.
         14    1    1    2    0    0 -0.19296480233E-01 -0.11815393117E-01 -0.11815379443E-02  0.22657309986E-01  0.00000000000E+00 0.  1.
     999901    1    3    3    0    0 -0.41880070466E-01  0.44597077279E-01  0.11185987865E+00  0.88918809712E+00  0.88000000000E+00 0. -1.
        -11    1    4    4    0    0  0.20814353008E-01 -0.78176373545E-02 -0.52406214948E-01  0.56930002908E-01  0.51100000000E-03 0.  1.
         11    1    4    4    0    0  0.40362197691E-01 -0.24964046808E-01 -0.58272125755E-01  0.75154589989E-01  0.51100000000E-03 0. -1.
</event>
<event>
 7    1  0.1070112E+005  0.1043930E+01  0.7957747E-01            NaN
         13   -1    0    0    0    0  0.00000000000E+00  0.00000000000E+00  0.74505805969E-08  0.10566000000E+00  0.10566000000E+00 0.  1.
     999900   -1    0    0    0    0 -0.00000000000E+00 -0.00000000000E+00 -0.74505805969E-08  0.93827000000E+00  0.93827000000E+00 0.  1.
     999902    2    1    2    0    0 -0.21474376086E-01  0.49196690271E-02  0.11531554794E-01  0.10190637834E+01  0.10187603575E+01 0.  0.
         14    1    1    2    0    0  0.21474376086E-01 -0.49196690271E-02 -0.11531554794E-01  0.24866216592E-01  0.00000000000E+00 0. -1.
     999901    1    3    3    0    0  0.24689213376E-01 -0.16231528516E-02  0.12134895776E+00  0.88867190877E+00  0.88000000000E+00 0. -1.
        -11    1    3    3    0    0 -0.26941854973E-01  0.26923701152E-01 -0.40367873204E-01  0.55502932726E-01  0.51100000000E-03 0.  1.
         11    1    3    3    0    0 -0.19221734489E-01 -0.20380879273E-01 -0.69449529758E-01  0.74888941916E-01  0.51100000000E-03 0. -1.
</event>
<event>
 8    1  0.1070112E+005  0.1043930E+01  0.7957747E-01            NaN
         13   -1    0    0    0    0  0.00000000000E+00  0.00000000000E+00  0.74505805969E-08  0.10566000000E+00  0.10566000000E+00 0.  1.
     999900   -1    0    0    0    0 -0.00000000000E+00 -0.00000000000E+00 -0.74505805969E-08  0.93827000000E+00  0.93827000000E+00 0.  1.
     999902    2    1    2    0    0 -0.12609044644E-01 -0.12472651355E-01  0.14286810602E-01  0.10211557163E+01  0.10209017235E+01 0.  0.
     999903    2    3    3    0    0  0.11489915020E-01  0.11767442122E+00  0.51135012138E-01  0.13049483233E+00  0.20852439707E-01 0.  0.
         14    1    1    2    0    0  0.12609044644E-01  0.12472651355E-01 -0.14286810602E-01  0.22774283652E-01  0.00000000000E+00 0. -1.
     999901    1    3    3    0    0 -0.24098959665E-01 -0.13014707258E+00 -0.36848201536E-01  0.89066088401E+00  0.88000000000E+00 0. -1.
        -11    1    4    4    0    0  0.65660575843E-02  0.36610110131E-01  0.26338595446E-01  0.45578459903E-01  0.51100000000E-03 0. -1.
         11    1    4    4    0    0  0.49238574362E-02  0.81064311093E-01  0.24796416692E-01  0.84916372431E-01  0.51100000000E-03 0.  1.
</event>
<event>
 8    1  0.1070112E+005  0.1043930E+01  0.7957747E-01            NaN
         13   -1    0    0    0    0  0.00000000000E+00  0.00000000000E+00  0.74505805969E-08  0.10566000000E+00  0.10566000000E+00 0.  1.
     999900   -1    0    0    0    0 -0.00000000000E+00 -0.00000000000E+00 -0.74505805969E-08  0.93827000000E+00  0.93827000000E+00 0. -1.
     999902    2    1    2    0    0  0.13504203131E-01  0.19891965202E-02 -0.19689680942E-01  0.10199716207E+01  0.10196901995E+01 0.  0.
     999903    2    3    3    0    0  0.12598029838E+00  0.25753241049E-01  0.20485259839E-01  0.13158565292E+00  0.18996662288E-01 0.  0.
         14    1    1    2    0    0 -0.13504203131E-01 -0.19891965202E-02  0.19689680942E-01  0.23958379340E-01  0.00000000000E+00 0. -1.
     999901    1    3    3    0    0 -0.11247609525E+00 -0.23764044528E-01 -0.40174940781E-01  0.88838596774E+00  0.88000000000E+00 0.  1.
        -11    1    4    4    0    0  0.51587314035E-01  0.19975079193E-01  0.70968927755E-02  0.55775279168E-01  0.51100000000E-03 0. -1.
         11    1    4    4    0    0  0.74392984347E-01  0.57781618552E-02  0.13388367064E-01  0.75810373750E-01  0.51100000000E-03 0.  1.
</event>
<event>
 8    1  0.1070112E+005  0.1043930E+01  0.7957747E-01            NaN
         13   -1    0    0    0    0  0.00000000000E+00  0.00000000000E+00  0.74505805969E-08  0.10566000000E+00  0.10566000000E+00 0. -1.
     999900   -1    0    0    0    0 -0.00000000000E+00 -0.00000000000E+00 -0.74505805969E-08  0.93827000000E+00  0.93827000000E+00 0.  1.
     999902    2    1    2    0    0  0.13169402665E-01  0.99252311569E-02  0.16843899363E-01  0.10203575516E+01  0.10200852281E+01 0.  0.
     999903    2    3    3    0    0 -0.11745171073E+00 -0.13996218920E-01 -0.45467661291E-01  0.12821583544E+00  0.19524183347E-01 0.  0.
         14    1    1    2    0    0 -0.13169402665E-01 -0.99252311569E-02 -0.16843899363E-01  0.23572448448E-01  0.00000000000E+00 0.  1.
     999901    1    3    3    0    0  0.13062111340E+00  0.23921450077E-01  0.62311560654E-01  0.89214171611E+00  0.88000000000E+00 0.  1.
        -11    1    4    4    0    0 -0.52518498435E-01 -0.65562498901E-02 -0.30772882016E-01  0.61224247476E-01  0.51100000000E-03 0.  1.
         11    1    4    4    0    0 -0.64933212300E-01 -0.74399690296E-02 -0.14694779275E-01  0.66991587962E-01  0.51100000000E-03 0. -1.
</event>
<event>
 8    1  0.1070112E+005  0.1043930E+01  0.7957747E-01            NaN
         13   -1    0    0    0    0  0.00000000000E+00  0.00000000000E+00  0.74505805969E-08  0.10566000000E+00  0.10566000000E+00 0. -1.
     999900   -1    0    0    0    0 -0.00000000000E+00 -0.00000000000E+00 -0.74505805969E-08  0.93827000000E+00  0.93827000000E+00 0.  1.
     999902    2    1    2    0    0  0.45996047795E-02  0.21526257302E-01 -0.11057174222E-01  0.10192967457E+01  0.10189990473E+01 0.  0.
     999903    2    3    3    0    0 -0.11517996253E+00 -0.48753101119E-01 -0.20883768123E-01  0.12835180072E+00  0.19868677345E-01 0.  0.
         14    1    1    2    0    0 -0.45996047795E-02 -0.21526257302E-01  0.11057174222E-01  0.24633254339E-01  0.00000000000E+00 0. -1.
     999901    1    3    3    0    0  0.11977956731E+00  0.70279358421E-01  0.98265939011E-02  0.89094494494E+00  0.88000000000E+00 0. -1.
        -11    1    4    4    0    0 -0.24450870113E-02 -0.15650439271E-02 -0.40132008246E-02  0.49794291685E-02  0.51100000000E-03 0. -1.
         11    1    4    4    0    0 -0.11273487552E+00 -0.47188057192E-01 -0.16870567299E-01  0.12337237155E+00  0.51100000000E-03 0.  1.
</event>
<event>
 8    1  0.1070112E+005  0.1043930E+01  0.7957747E-01            NaN
         13   -1    0    0    0    0  0.00000000000E+00  0.00000000000E+00  0.74505805969E-08  0.10566000000E+00  0.10566000000E+00 0. -1.
     999900   -1    0    0    0    0 -0.00000000000E+00 -0.00000000000E+00 -0.74505805969E-08  0.93827000000E+00  0.93827000000E+00 0.  1.
     999902    2    1    2    0    0  0.55162001948E-02 -0.19216642428E-01 -0.13824266563E-01  0.10196232487E+01  0.10193334838E+01 0.  0.
     999903    2    3    3    0    0 -0.54018317619E-01  0.76186595232E-01 -0.87337961323E-01  0.12942641664E+00  0.20022534917E-01 0.  0.
         14    1    1    2    0    0 -0.55162001948E-02  0.19216642428E-01  0.13824266563E-01  0.24306751259E-01  0.00000000000E+00 0. -1.
     999901    1    3    3    0    0  0.59534517814E-01 -0.95403237660E-01  0.73513694760E-01  0.89019683210E+00  0.88000000000E+00 0. -1.
        -11    1    4    4    0    0 -0.16862287777E-01  0.39502377686E-01 -0.44922544396E-01  0.62153605752E-01  0.51100000000E-03 0. -1.
         11    1    4    4    0    0 -0.37156029842E-01  0.36684217545E-01 -0.42415416927E-01  0.67272810887E-01  0.51100000000E-03 0.  1.
</event>
<event>
 8    1  0.1070112E+005  0.1043930E+01  0.7957747E-01            NaN
         13   -1    0    0    0    0  0.00000000000E+00  0.00000000000E+00  0.74505805969E-08  0.10566000000E+00  0.10566000000E+00 0.  1.
     999900   -1    0    0    0    0 -0.00000000000E+00 -0.00000000000E+00 -0.74505805969E-08  0.93827000000E+00  0.93827000000E+00 0. -1.
     999902    2    1    2    0    0 -0.88182285464E-02 -0.15131655613E-01 -0.10640152785E-01  0.10234375378E+01  0.10232323552E+01 0.  0.
     999903    2    3    3    0    0 -0.87732908577E-01 -0.10143232987E+00  0.59649792178E-03  0.13563035409E+00  0.20239969146E-01 0.  0.
         14    1    1    2    0    0  0.88182285464E-02  0.15131655613E-01  0.10640152785E-01  0.20492462214E-01  0.00000000000E+00 0. -1.
     999901    1    3    3    0    0  0.78914680030E-01  0.86300674256E-01 -0.11236650707E-01  0.88780718369E+00  0.88000000000E+00 0.  1.
        -11    1    4    4    0    0 -0.65558344837E-01 -0.61287580661E-01 -0.66282878892E-03  0.89748340286E-01  0.51100000000E-03 0.  1.
         11    1    4    4    0    0 -0.22174563739E-01 -0.40144749209E-01  0.12593267107E-02  0.45882013805E-01  0.51100000000E-03 0. -1.
</event>
<event>
 8    1  0.1070112E+005  0.1043930E+01  0.7957747E-01            NaN
         13   -1    0    0    0    0  0.00000000000E+00  0.00000000000E+00  0.74505805969E-08  0.10566000000E+00  0.10566000000E+00 0.  1.
     999900   -1    0    0    0    0 -0.00000000000E+00 -0.00000000000E+00 -0.74505805969E-08  0.93827000000E+00  0.93827000000E+00 0. -1.
     999902    2    1    2    0    0 -0.21845020891E-01  0.75781410709E-02  0.69486791043E-03  0.10207974255E+01  0.10205352850E+01 0.  0.
     999903    2    3    3    0    0  0.10357816657E-01 -0.63562282630E-01 -0.11270100423E+00  0.13009174662E+00  0.86543656846E-02 0.  0.
         14    1    1    2    0    0  0.21845020891E-01 -0.75781410709E-02 -0.69486791043E-03  0.23132574461E-01  0.00000000000E+00 0.  1.
     999901    1    3    3    0    0 -0.32202837548E-01  0.71140423701E-01  0.11339587214E+00  0.89070567891E+00  0.88000000000E+00 0.  1.
        -11    1    4    4    0    0  0.11474038440E-02 -0.24615576700E-02 -0.85903587385E-02  0.90239229828E-02  0.51100000000E-03 0.  1.
         11    1    4    4    0    0  0.92104128135E-02 -0.61100724960E-01 -0.10411064550E+00  0.12106782364E+00  0.51100000000E-03 0. -1.
</event>
<event>
 8    1  0.1070112E+005  0.1043930E+01  0.7957747E-01            NaN
         13   -1    0    0    0    0  0.00000000000E+00  0.00000000000E+00  0.74505805969E-08  0.10566000000E+00  0.10566000000E+00 0.  1.
     999900   -1    0    0    0    0 -0.00000000000E+00 -0.00000000000E+00 -0.74505805969E-08  0.93827000000E+00  0.93827000000E+00 0. -1.
     999902    2    1    2    0    0  0.17566570447E-01  0.18043469814E-01 -0.48294340734E-03  0.10187430106E+01  0.10184316066E+01 0.  0.
     999903    2    3    3    0    0  0.28658645821E-01  0.11226932889E+00 -0.61636877787E-01  0.13153314235E+00  0.87259752038E-02 0.  0.
         14    1    1    2    0    0 -0.17566570447E-01 -0.18043469814E-01  0.48294340734E-03  0.25186989390E-01  0.00000000000E+00 0.  1.
     999901    1    3    3    0    0 -0.11092075374E-01 -0.94225859072E-01  0.61153934379E-01  0.88720986826E+00  0.88000000000E+00 0.  1.
        -11    1    4    4    0    0  0.22069634195E-01  0.72375810937E-01 -0.42657528154E-01  0.86863413423E-01  0.51100000000E-03 0. -1.
         11    1    4    4    0    0  0.65890116263E-02  0.39893517949E-01 -0.18979349633E-01  0.44669728923E-01  0.51100000000E-03 0.  1.
</event>
<event>
 8    1  0.1070112E+005  0.1043930E+01  0.7957747E-01            NaN
         13   -1    0    0    0    0  0.00000000000E+00  0.00000000000E+00  0.74505805969E-08  0.10566000000E+00  0.10566000000E+00 0. -1.
     999900   -1    0    0    0    0 -0.00000000000E+00 -0.00000000000E+00 -0.74505805969E-08  0.93827000000E+00  0.93827000000E+00 0. -1.
     999902    2    1    2    0    0  0.20677687955E-01 -0.10914207470E-01  0.10600882343E-02  0.10205246482E+01  0.10202562164E+01 0.  0.
     999903    2    3    3    0    0 -0.46882360440E-01 -0.24043125779E-01  0.11730660315E+00  0.13021572384E+00  0.20476034159E-01 0.  0.
         14    1    1    2    0    0 -0.20677687955E-01  0.10914207470E-01 -0.10600882343E-02  0.23405351758E-01  0.00000000000E+00 0. -1.
     999901    1    3    3    0    0  0.67560048394E-01  0.13128918309E-01 -0.11624651492E+00  0.89030892440E+00  0.88000000000E+00 0. -1.
        -11    1    4    4    0    0 -0.26456231966E-01 -0.20609276976E-01  0.53641817361E-01  0.63264367523E-01  0.51100000000E-03 0.  1.
         11    1    4    4    0    0 -0.20426128473E-01 -0.34338488025E-02  0.63664785793E-01  0.66951356320E-01  0.51100000000E-03 0. -1.
</event>
<event>
 8    1  0.1070112E+005  0.1043930E+01  0.7957747E-01            NaN
         13   -1    0    0    0    0  0.00000000000E+00  0.00000000000E+00  0.74505805969E-08  0.10566000000E+00  0.10566000000E+00 0. -1.
     999900   -1    0    0    0    0 -0.00000000000E+00 -0.00000000000E+00 -0.74505805969E-08  0.93827000000E+00  0.93827000000E+00 0. -1.
     999902    2    1    2    0    0 -0.57212932474E-02 -0.20132755478E-02 -0.22606092060E-01  0.10205244051E+01  0.10202559676E+01 0.  0.
     999903    2    3    3    0    0  0.33511087224E-01 -0.12037451675E+00 -0.36786748759E-01  0.13162078032E+00  0.18914218980E-01 0.  0.
         14    1    1    2    0    0  0.57212932474E-02  0.20132755478E-02  0.22606092060E-01  0.23405594910E-01  0.00000000000E+00 0. -1.
     999901    1    3    3    0    0 -0.39232380471E-01  0.11836124120E+00  0.14180656699E-01  0.88890362477E+00  0.88000000000E+00 0.  1.
        -11    1    4    4    0    0  0.16216223364E-01 -0.62979513810E-01 -0.93879116693E-02  0.65709809514E-01  0.51100000000E-03 0. -1.
         11    1    4    4    0    0  0.17294863860E-01 -0.57395002939E-01 -0.27398837090E-01  0.65910970811E-01  0.51100000000E-03 0.  1.
</event>
<event>
 8    1  0.1070112E+005  0.1043930E+01  0.7957747E-01            NaN
         13   -1    0    0    0    0  0.00000000000E+00  0.00000000000E+00  0.74505805969E-08  0.10566000000E+00  0.10566000000E+00 0.  1.
     999900   -1    0    0    0    0 -0.00000000000E+00 -0.00000000000E+00 -0.74505805969E-08  0.93827000000E+00  0.93827000000E+00 0.  1.
     999902    2    1    2    0    0 -0.18272573477E-01 -0.16547310505E-02 -0.14049107059E-01  0.10208215062E+01  0.10205599174E+01 0.  0.
     999903    2    3    3    0    0 -0.11030494937E+00 -0.31311805149E-01 -0.65794420195E-01  0.13401426802E+00  0.21984251359E-01 0.  0.
         14    1    1    2    0    0  0.18272573477E-01  0.16547310505E-02  0.14049107059E-01  0.23108493796E-01  0.00000000000E+00 0. -1.
     999901    1    3    3    0    0  0.92032375894E-01  0.29657074098E-01  0.51745313135E-01  0.88680723818E+00  0.88000000000E+00 0. -1.
        -11    1    4    4    0    0 -0.47899285648E-02 -0.69529858595E-02 -0.45937670963E-02  0.96255516804E-02  0.51100000000E-03 0. -1.
         11    1    4    4    0    0 -0.10551502081E+00 -0.24358819290E-01 -0.61200653098E-01  0.12438871634E+00  0.51100000000E-03 0.  1.
</event>
<event>
 8    1  0.1070112E+005  0.1043930E+01  0.7957747E-01            NaN
         13   -1    0    0    0    0  0.00000000000E+00  0.00000000000E+00  0.74505805969E-08  0.10566000000E+00  0.10566000000E+00 0.  1.
     999900   -1    0    0    0    0 -0.00000000000E+00 -0.00000000000E+00 -0.74505805969E-08  0.93827000000E+00  0.93827000000E+00 0. -1.
     999902    2    1    2    0    0  0.15159126719E-01 -0.11022634987E-01 -0.83098792118E-02  0.10234275197E+01  0.10232221345E+01 0.  0.
     999903    2    3    3    0    0 -0.30645193999E-01 -0.11461966022E+00  0.58329319550E-01  0.13366847243E+00  0.19701689707E-01 0.  0.
         14    1    1    2    0    0 -0.15159126719E-01  0.11022634987E-01  0.83098792118E-02  0.20502480276E-01  0.00000000000E+00 0.  1.
     999901    1    3    3    0    0  0.45804320718E-01  0.10359702523E+00 -0.66639198762E-01  0.88975904730E+00  0.88000000000E+00 0.  1.
        -11    1    4    4    0    0 -0.27424737017E-01 -0.73753678118E-01  0.44514378680E-01  0.90407479042E-01  0.51100000000E-03 0.  1.
         11    1    4    4    0    0 -0.32204569820E-02 -0.40865982104E-01  0.13814940870E-01  0.43260993386E-01  0.51100000000E-03 0. -1.
</event>
<event>
 8    1  0.1070112E+005  0.1043930E+01  0.7957747E-01            NaN
         13   -1    0    0    0    0  0.00000000000E+00  0.00000000000E+00  0.74505805969E-08  0.10566000000E+00  0.10566000000E+00 0. -1.
     999900   -1    0    0    0    0 -0.00000000000E+00 -0.00000000000E+00 -0.74505805969E-08  0.93827000000E+00  0.93827000000E+00 0. -1.
     999902    2    1    2    0    0 -0.18924283810E-01 -0.10152540669E-01  0.79975114005E-02  0.10210135695E+01  0.10207563599E+01 0.  0.
     999903    2    3    3    0    0  0.57802395095E-01  0.66004338086E-01  0.94311608043E-01  0.13020664498E+00  0.19010561810E-01 0.  0.
         14    1    1    2    0    0  0.18924283810E-01  0.10152540669E-01 -0.79975114005E-02  0.22916430533E-01  0.00000000000E+00 0.  1.
     999901    1    3    3    0    0 -0.76726678905E-01 -0.76156878755E-01 -0.86314096642E-01  0.89080692449E+00  0.88000000000E+00 0. -1.
        -11    1    4    4    0    0  0.32714130860E-01  0.25873708973E-01  0.52497206144E-01  0.67051330694E-01  0.51100000000E-03 0.  1.
         11    1    4    4    0    0  0.25088264235E-01  0.40130629113E-01  0.41814401899E-01  0.63155314285E-01  0.51100000000E-03 0. -1.
</event>
<event>
 8    1  0.1070112E+005  0.1043930E+01  0.7957747E-01            NaN
         13   -1    0    0    0    0  0.00000000000E+00  0.00000000000E+00  0.74505805969E-08  0.10566000000E+00  0.10566000000E+00 0.  1.
     999900   -1    0    0    0    0 -0.00000000000E+00 -0.00000000000E+00 -0.74505805969E-08  0.93827000000E+00  0.93827000000E+00 0. -1.
     999902    2    1    2    0    0 -0.13757647792E-01 -0.16682196354E-01 -0.88240969537E-02  0.10205754879E+01  0.10203082345E+01 0.  0.
     999903    2    3    3    0    0  0.18685477681E-01 -0.12974198521E+00 -0.60936836872E-02  0.13274525222E+00  0.20050915314E-01 0.  0.
         14    1    1    2    0    0  0.13757647792E-01  0.16682196354E-01  0.88240969537E-02  0.23354512091E-01  0.00000000000E+00 0. -1.
     999901    1    3    3    0    0 -0.32443125473E-01  0.11305978885E+00 -0.27304132665E-02  0.88783023569E+00  0.88000000000E+00 0. -1.
        -11    1    4    4    0    0  0.54298312172E-02 -0.88017483296E-01  0.20582574953E-02  0.88210305394E-01  0.51100000000E-03 0. -1.
         11    1    4    4    0    0  0.13255646464E-01 -0.41724501910E-01 -0.81519411825E-02  0.44534946827E-01  0.51100000000E-03 0.  1.
</event>
<event>
 8    1  0.1070112E+005  0.1043930E+01  0.7957747E-01            NaN
         13   -1    0    0    0    0  0.00000000000E+00  0.00000000000E+00  0.74505805969E-08  0.10566000000E+00  0.10566000000E+00 0. -1.
     999900   -1    0    0    0    0 -0.00000000000E+00 -0.00000000000E+00 -0.74505805969E-08  0.93827000000E+00  0.93827000000E+00 0. -1.
     999902    2    1    2    0    0 -0.49112431621E-02  0.17882016772E-01  0.13262124450E-01  0.10211315181E+01  0.10208769791E+01 0.  0.
     999903    2    3    3    0    0  0.36380845807E-01  0.10087474103E+00  0.77857076857E-01  0.13390813202E+00  0.19245365275E-01 0.  0.
         14    1    1    2    0    0  0.49112431621E-02 -0.17882016772E-01 -0.13262124450E-01  0.22798481926E-01  0.00000000000E+00 0.  1.
     999901    1    3    3    0    0 -0.41292088970E-01 -0.82992724255E-01 -0.64594952406E-01  0.88722338606E+00  0.88000000000E+00 0. -1.
        -11    1    4    4    0    0  0.14843702563E-01  0.19916914873E-01  0.22299834970E-01  0.33385067988E-01  0.51100000000E-03 0.  1.
         11    1    4    4    0    0  0.21537143244E-01  0.80957826154E-01  0.55557241886E-01  0.10052306403E+00  0.51100000000E-03 0. -1.
</event>
<event>
 8    1  0.1070112E+005  0.1043930E+01  0.7957747E-01            NaN
         13   -1    0    0    0    0  0.00000000000E+00  0.00000000000E+00  0.74505805969E-08  0.10566000000E+00  0.10566000000E+00 0.  1.
     999900   -1    0    0    0    0 -0.00000000000E+00 -0.00000000000E+00 -0.74505805969E-08  0.93827000000E+00  0.93827000000E+00 0. -1.
     999902    2    1    2    0    0  0.93393278354E-02 -0.21438222921E-01  0.16540531032E-02  0.10204873820E+01  0.10202180848E+01 0.  0.
     999903    2    3    3    0    0 -0.89756598215E-01 -0.14631046288E-01  0.91229654892E-01  0.13038057457E+00  0.20147701006E-01 0.  0.
         14    1    1    2    0    0 -0.93393278354E-02  0.21438222921E-01 -0.16540531032E-02  0.23442617987E-01  0.00000000000E+00 0. -1.
     999901    1    3    3    0    0  0.99095926050E-01 -0.68071766336E-02 -0.89575601789E-01  0.89010680744E+00  0.88000000000E+00 0. -1.
        -11    1    4    4    0    0 -0.57973169792E-01 -0.12370270149E-01  0.45915824310E-01  0.74982905001E-01  0.51100000000E-03 0.  1.
         11    1    4    4    0    0 -0.31783428422E-01 -0.22607761382E-02  0.45313830582E-01  0.55397669572E-01  0.51100000000E-03 0. -1.
</event>
<event>
 8    1  0.1070112E+005  0.1043930E+01  0.7957747E-01            NaN
         13   -1    0    0    0    0  0.00000000000E+00  0.00000000000E+00  0.74505805969E-08  0.10566000000E+00  0.10566000000E+00 0. -1.
     999900   -1    0    0    0    0 -0.00000000000E+00 -0.00000000000E+00 -0.74505805969E-08  0.93827000000E+00  0.93827000000E+00 0.  1.
     999902    2    1    2    0    0 -0.13582671641E-01  0.16154497258E-01  0.12630431677E-01  0.10193335662E+01  0.10190367681E+01 0.  0.
     999903    2    3    3    0    0 -0.12528889623E+00 -0.21769656207E-01 -0.22751970499E-01  0.13075693114E+00  0.20211319346E-01 0.  0.
         14    1    1    2    0    0  0.13582671641E-01 -0.16154497258E-01 -0.12630431677E-01  0.24596433784E-01  0.00000000000E+00 0.  1.
     999901    1    3    3    0    0  0.11170622458E+00  0.37924153465E-01  0.35382402176E-01  0.88857663508E+00  0.88000000000E+00 0. -1.
        -11    1    4    4    0    0 -0.84808723769E-01 -0.17990786272E-01 -0.24395442228E-01  0.90064347778E-01  0.51100000000E-03 0.  1.
         11    1    4    4    0    0 -0.40480172456E-01 -0.37788699348E-02  0.16434717290E-02  0.40692583358E-01  0.51100000000E-03 0. -1.
</event>
<event>
 8    1  0.1070112E+005  0.1043930E+01  0.7957747E-01            NaN
         13   -1    0    0    0    0  0.00000000000E+00  0.00000000000E+00  0.74505805969E-08  0.10566000000E+00  0.10566000000E+00 0.  1.
     999900   -1    0    0    0    0 -0.00000000000E+00 -0.00000000000E+00 -0.74505805969E-08  0.93827000000E+00  0.93827000000E+00 0.  1.
     999902    2    1    2    0    0 -0.11808045578E-01 -0.50975801512E-03  0.19990016926E-01  0.10207073694E+01  0.10204431603E+01 0.  0.
     999903    2    3    3    0    0  0.73245827673E-01  0.31458703551E-01 -0.98279850653E-01  0.12815826408E+00  0.20273389152E-01 0.  0.
         14    1    1    2    0    0  0.11808045578E-01  0.50975801512E-03 -0.19990016926E-01  0.23222630564E-01  0.00000000000E+00 0. -1.
     999901    1    3    3    0    0 -0.85053873251E-01 -0.31968461566E-01  0.11826986758E+00  0.89254910535E+00  0.88000000000E+00 0.  1.
        -11    1    4    4    0    0  0.53764744047E-01  0.14350381623E-01 -0.59126103244E-01  0.81195679448E-01  0.51100000000E-03 0. -1.
         11    1    4    4    0    0  0.19481083626E-01  0.17108321927E-01 -0.39153747408E-01  0.46962584634E-01  0.51100000000E-03 0.  1.
</event>
<event>
 8    1  0.1070112E+005  0.1043930E+01  0.7957747E-01            NaN
         13   -1    0    0    0    0  0.00000000000E+00  0.00000000000E+00  0.74505805969E-08  0.10566000000E+00  0.10566000000E+00 0. -1.
     999900   -1    0    0    0    0 -0.00000000000E+00 -0.00000000000E+00 -0.74505805969E-08  0.93827000000E+00  0.93827000000E+00 0. -1.
     999902    2    1    2    0    0 -0.67842083369E-02  0.61710132435E-02  0.19442713262E-01  0.10224328842E+01  0.10222068659E+01 0.  0.
     999903    2    3    3    0    0  0.57294861792E-01  0.23252532491E-01 -0.11268991471E+00  0.13010058240E+00  0.20093859921E-01 0.  0.
         14    1    1    2    0    0  0.67842083369E-02 -0.61710132435E-02 -0.19442713262E-01  0.21497115765E-01  0.00000000000E+00 0.  1.
     999901    1    3    3    0    0 -0.64079070128E-01 -0.17081519247E-01  0.13213262798E+00  0.89233230184E+00  0.88000000000E+00 0.  1.
        -11    1    4    4    0    0  0.17734227049E-01  0.69917088584E-02 -0.18115250584E-01  0.26302285576E-01  0.51100000000E-03 0. -1.
         11    1    4    4    0    0  0.39560634742E-01  0.16260823632E-01 -0.94574664131E-01  0.10379829682E+00  0.51100000000E-03 0.  1.
</event>
<event>
 8    1  0.1070112E+005  0.1043930E+01  0.7957747E-01            NaN
         13   -1    0    0    0    0  0.00000000000E+00  0.00000000000E+00  0.74505805969E-08  0.10566000000E+00  0.10566000000E+00 0.  1.
     999900   -1    0    0    0    0 -0.00000000000E+00 -0.00000000000E+00 -0.74505805969E-08  0.93827000000E+00  0.93827000000E+00 0.  1.
     999902    2    1    2    0    0 -0.87996033656E-02 -0.10165633128E-01  0.19185974718E-01  0.10205019241E+01  0.10202329647E+01 0.  0.
     999903    2    3    3    0    0 -0.48586453456E-01 -0.43456536139E-01  0.11445750415E+00  0.13384080391E+00  0.23742926187E-01 0.  0.
         14    1    1    2    0    0  0.87996033656E-02  0.10165633128E-01 -0.19185974718E-01  0.23428075938E-01  0.00000000000E+00 0. -1.
     999901    1    3    3    0    0  0.39786850091E-01  0.33290903011E-01 -0.95271529430E-01  0.88666112015E+00  0.88000000000E+00 0.  1.
        -11    1    4    4    0    0 -0.14780892425E-01 -0.22708322168E-01  0.29379673862E-01  0.39969601372E-01  0.51100000000E-03 0. -1.
         11    1    4    4    0    0 -0.33805561031E-01 -0.20748213971E-01  0.85077830285E-01  0.93871202542E-01  0.51100000000E-03 0.  1.
</event>
<event>
 7    1  0.1070112E+005  0.1043930E+01  0.7957747E-01            NaN
         13   -1    0    0    0    0  0.00000000000E+00  0.00000000000E+00  0.74505805969E-08  0.10566000000E+00  0.10566000000E+00 0. -1.
     999900   -1    0    0    0    0 -0.00000000000E+00 -0.00000000000E+00 -0.74505805969E-08  0.93827000000E+00  0.93827000000E+00 0. -1.
     999903    2    1    2    0    0  0.23675965475E-01  0.73092253329E-01 -0.39245769366E-01  0.88663396616E-01  0.20443547845E-01 0.  0.
         14    1    1    2    0    0  0.14242301798E-01 -0.62363393902E-01 -0.31965438305E-01  0.71511015274E-01  0.00000000000E+00 0.  1.
     999901    1    1    2    0    0 -0.37918267273E-01 -0.10728859427E-01  0.71211207672E-01  0.88375558811E+00  0.88000000000E+00 0.  1.
        -11    1    3    3    0    0  0.82757999719E-03  0.31892885786E-01 -0.20682388149E-01  0.38024509898E-01  0.51100000000E-03 0. -1.
         11    1    3    3    0    0  0.22848385478E-01  0.41199367543E-01 -0.18563381217E-01  0.50638886718E-01  0.51100000000E-03 0.  1.
</event>
<event>
 8    1  0.1070112E+005  0.1043930E+01  0.7957747E-01            NaN
         13   -1    0    0    0    0  0.00000000000E+00  0.00000000000E+00  0.74505805969E-08  0.10566000000E+00  0.10566000000E+00 0.  1.
     999900   -1    0    0    0    0 -0.00000000000E+00 -0.00000000000E+00 -0.74505805969E-08  0.93827000000E+00  0.93827000000E+00 0.  1.
     999902    2    1    2    0    0  0.10088177583E-01  0.20998091266E-02  0.20937083664E-01  0.10205945763E+01  0.10203277646E+01 0.  0.
     999903    2    3    3    0    0  0.73163239784E-01 -0.49019909738E-01 -0.93739127574E-01  0.12944794275E+00  0.14626504608E-01 0.  0.
         14    1    1    2    0    0 -0.10088177583E-01 -0.20998091266E-02 -0.20937083664E-01  0.23335423666E-01  0.00000000000E+00 0. -1.
     999901    1    3    3    0    0 -0.63075062201E-01  0.51119718864E-01  0.11467621124E+00  0.89114663359E+00  0.88000000000E+00 0. -1.
        -11    1    4    4    0    0  0.40495036595E-01 -0.23606245687E-01 -0.59382493912E-01  0.75654772014E-01  0.51100000000E-03 0.  1.
         11    1    4    4    0    0  0.32668203189E-01 -0.25413664051E-01 -0.34356633662E-01  0.53793170734E-01  0.51100000000E-03 0. -1.
</event>
<event>
 8    1  0.1070112E+005  0.1043930E+01  0.7957747E-01            NaN
         13   -1    0    0    0    0  0.00000000000E+00  0.00000000000E+00  0.74505805969E-08  0.10566000000E+00  0.10566000000E+00 0. -1.
     999900   -1    0    0    0    0 -0.00000000000E+00 -0.00000000000E+00 -0.74505805969E-08  0.93827000000E+00  0.93827000000E+00 0. -1.
     999902    2    1    2    0    0 -0.91775061096E-02  0.18412565411E-01  0.10628801603E-01  0.10207735623E+01  0.10205108745E+01 0.  0.
     999903    2    3    3    0    0  0.82410730952E-01  0.69043668947E-01  0.74521613783E-01  0.13227246198E+00  0.19595317834E-01 0.  0.
         14    1    1    2    0    0  0.91775061096E-02 -0.18412565411E-01 -0.10628801603E-01  0.23156437700E-01  0.00000000000E+00 0.  1.
     999901    1    3    3    0    0 -0.91588237062E-01 -0.50631103536E-01 -0.63892812179E-01  0.88850110032E+00  0.88000000000E+00 0. -1.
        -11    1    4    4    0    0  0.29202325842E-01  0.13351395078E-01  0.18895196564E-01  0.37260235631E-01  0.51100000000E-03 0.  1.
         11    1    4    4    0    0  0.53208405110E-01  0.55692273869E-01  0.55626417219E-01  0.95012226354E-01  0.51100000000E-03 0. -1.
</event>
<event>
 8    1  0.1070112E+005  0.1043930E+01  0.7957747E-01            NaN
         13   -1    0    0    0    0  0.00000000000E+00  0.00000000000E+00  0.74505805969E-08  0.10566000000E+00  0.10566000000E+00 0. -1.
     999900   -1    0    0    0    0 -0.00000000000E+00 -0.00000000000E+00 -0.74505805969E-08  0.93827000000E+00  0.93827000000E+00 0. -1.
     999902    2    1    2    0    0  0.19412017604E-01  0.13147331516E-01 -0.98873010867E-03  0.10204639321E+01  0.10201940896E+01 0.  0.
     999903    2    3    3    0    0  0.69882859169E-01  0.33461978281E-01 -0.10571986920E+00  0.13258522296E+00  0.19970793894E-01 0.  0.
         14    1    1    2    0    0 -0.19412017604E-01 -0.13147331516E-01  0.98873010867E-03  0.23466067857E-01  0.00000000000E+00 0. -1.
     999901    1    3    3    0    0 -0.50470841566E-01 -0.20314646765E-01  0.10473113909E+00  0.88787870918E+00  0.88000000000E+00 0.  1.
        -11    1    4    4    0    0  0.36358636470E-01  0.16969803629E-01 -0.38125807953E-01  0.55351269491E-01  0.51100000000E-03 0. -1.
         11    1    4    4    0    0  0.33524222699E-01  0.16492174651E-01 -0.67594061245E-01  0.77233953472E-01  0.51100000000E-03 0.  1.
</event>
<event>
 7    1  0.1070112E+005  0.1043930E+01  0.7957747E-01            NaN
         13   -1    0    0    0    0  0.00000000000E+00  0.00000000000E+00  0.74505805969E-08  0.10566000000E+00  0.10566000000E+00 0.  1.
     999900   -1    0    0    0    0 -0.00000000000E+00 -0.00000000000E+00 -0.74505805969E-08  0.93827000000E+00  0.93827000000E+00 0.  1.
     999903    2    1    2    0    0  0.87716441651E-01 -0.32535078499E-01  0.15183802271E-01  0.96552800689E-01  0.18417111627E-01 0.  0.
         14    1    1    2    0    0  0.39991637345E-01 -0.36797725846E-01  0.92423574104E-02  0.55125537235E-01  0.00000000000E+00 0.  1.
     999901    1    1    2    0    0 -0.12770807900E+00  0.69332804345E-01 -0.24426159681E-01  0.89225166208E+00  0.88000000000E+00 0. -1.
        -11    1    3    3    0    0  0.51342159416E-01 -0.14548028722E-01  0.41622912286E-03  0.53367563565E-01  0.51100000000E-03 0. -1.
         11    1    3    3    0    0  0.36374282235E-01 -0.17987049777E-01  0.14767573148E-01  0.43185237124E-01  0.51100000000E-03 0.  1.
</event>
<event>
 8    1  0.1070112E+005  0.1043930E+01  0.7957747E-01            NaN
         13   -1    0    0    0    0  0.00000000000E+00  0.00000000000E+00  0.74505805969E-08  0.10566000000E+00  0.10566000000E+00 0.  1.
     999900   -1    0    0    0    0 -0.00000000000E+00 -0.00000000000E+00 -0.74505805969E-08  0.93827000000E+00  0.93827000000E+00 0. -1.
     999902    2    1    2    0    0  0.15707446570E-01 -0.18131124718E-01 -0.21387652389E-03  0.10199402667E+01  0.10196580997E+01 0.  0.
     999903    2    3    3    0    0  0.10055862807E-01 -0.12528568277E+00  0.36853128566E-01  0.13264775428E+00  0.20967855082E-01 0.  0.
         14    1    1    2    0    0 -0.15707446570E-01  0.18131124718E-01  0.21387652389E-03  0.23989733313E-01  0.00000000000E+00 0. -1.
     999901    1    3    3    0    0  0.56515837627E-02  0.10715455805E+00 -0.37067005090E-01  0.88729251241E+00  0.88000000000E+00 0. -1.
        -11    1    4    4    0    0 -0.28660397181E-02 -0.69141402001E-01  0.26541484025E-01  0.74117873347E-01  0.51100000000E-03 0. -1.
         11    1    4    4    0    0  0.12921902525E-01 -0.56144280766E-01  0.10311644541E-01  0.58529880931E-01  0.51100000000E-03 0.  1.
</event>
<event>
 8    1  0.1070112E+005  0.1043930E+01  0.7957747E-01            NaN
         13   -1    0    0    0    0  0.00000000000E+00  0.00000000000E+00  0.74505805969E-08  0.10566000000E+00  0.10566000000E+00 0. -1.
     999900   -1    0    0    0    0 -0.00000000000E+00 -0.00000000000E+00 -0.74505805969E-08  0.93827000000E+00  0.93827000000E+00 0.  1.
     999902    2    1    2    0    0 -0.20908749812E-02 -0.16414718887E-01 -0.17316086143E-01  0.10199787663E+01  0.10196975151E+01 0.  0.
     999903    2    3    3    0    0  0.49817545192E-01  0.10301395404E+00 -0.56960904836E-01  0.12951293115E+00  0.20866051860E-01 0.  0.
         14    1    1    2    0    0  0.20908749812E-02  0.16414718887E-01  0.17316086143E-01  0.23951233656E-01  0.00000000000E+00 0. -1.
     999901    1    3    3    0    0 -0.51908420173E-01 -0.11942867292E+00  0.39644818693E-01  0.89046583520E+00  0.88000000000E+00 0. -1.
        -11    1    4    4    0    0  0.33722520317E-01  0.47277496440E-01 -0.32512019944E-01  0.66555710559E-01  0.51100000000E-03 0.  1.
         11    1    4    4    0    0  0.16095024875E-01  0.55736457595E-01 -0.24448884892E-01  0.62957220590E-01  0.51100000000E-03 0. -1.
</event>
<event>
 8    1  0.1070112E+005  0.1043930E+01  0.7957747E-01            NaN
         13   -1    0    0    0    0  0.00000000000E+00  0.00000000000E+00  0.74505805969E-08  0.10566000000E+00  0.10566000000E+00 0. -1.
     999900   -1    0    0    0    0 -0.00000000000E+00 -0.00000000000E+00 -0.74505805969E-08  0.93827000000E+00  0.93827000000E+00 0.  1.
     999902    2    1    2    0    0 -0.36351699707E-01  0.39497575944E-02  0.10791772253E-01  0.10058050868E+01  0.10050822671E+01 0.  0.
     999903    2    3    3    0    0 -0.91617901066E-01  0.70514831251E-01 -0.28037246557E-01  0.12071020222E+00  0.20461781528E-01 0.  0.
         14    1    1    2    0    0  0.36351699707E-01 -0.39497575944E-02 -0.10791772253E-01  0.38124913180E-01  0.00000000000E+00 0.  1.
     999901    1    3    3    0    0  0.55266201359E-01 -0.66565073656E-01  0.38829018810E-01  0.88509488460E+00  0.88000000000E+00 0. -1.
        -11    1    4    4    0    0 -0.69376905080E-01  0.44987316781E-01 -0.26437142405E-01  0.86811273745E-01  0.51100000000E-03 0. -1.
         11    1    4    4    0    0 -0.22240995986E-01  0.25527514469E-01 -0.16001041523E-02  0.33898928475E-01  0.51100000000E-03 0.  1.
</event>
<event>
 8    1  0.1070112E+005  0.1043930E+01  0.7957747E-01            NaN
         13   -1    0    0    0    0  0.00000000000E+00  0.00000000000E+00  0.74505805969E-08  0.10566000000E+00  0.10566000000E+00 0.  1.
     999900   -1    0    0    0    0 -0.00000000000E+00 -0.00000000000E+00 -0.74505805969E-08  0.93827000000E+00  0.93827000000E+00 0. -1.
     999902    2    1    2    0    0 -0.24137148940E-02  0.50957825346E-02 -0.23322616690E-01  0.10199354700E+01  0.10196531889E+01 0.  0.
     999903    2    3    3    0    0 -0.10575011279E+00  0.49089971113E-01  0.54936731503E-01  0.12935227608E+00  0.11002510705E-01 0.  0.
         14    1    1    2    0    0  0.24137148940E-02 -0.50957825346E-02  0.23322616690E-01  0.23994529970E-01  0.00000000000E+00 0.  1.
     999901    1    3    3    0    0  0.10333639789E+00 -0.43994188578E-01 -0.78259348193E-01  0.89058319395E+00  0.88000000000E+00 0. -1.
        -11    1    4    4    0    0 -0.51342727637E-01  0.18345799152E-01  0.23109617263E-01  0.59219587628E-01  0.51100000000E-03 0.  1.
         11    1    4    4    0    0 -0.54407385149E-01  0.30744171961E-01  0.31827114240E-01  0.70132688456E-01  0.51100000000E-03 0. -1.
</event>
<event>
 8    1  0.1070112E+005  0.1043930E+01  0.7957747E-01            NaN
         13   -1    0    0    0    0  0.00000000000E+00  0.00000000000E+00  0.74505805969E-08  0.10566000000E+00  0.10566000000E+00 0. -1.
     999900   -1    0    0    0    0 -0.00000000000E+00 -0.00000000000E+00 -0.74505805969E-08  0.93827000000E+00  0.93827000000E+00 0.  1.
     999902    2    1    2    0    0 -0.11921510896E-02  0.19280628806E-01  0.20407624362E-01  0.10158295551E+01  0.10154408156E+01 0.  0.
     999903    2    3    3    0    0  0.31332408499E-01  0.12040586503E+00 -0.20284755556E-01  0.12850772501E+00  0.24969419734E-01 0.  0.
         14    1    1    2    0    0  0.11921510896E-02 -0.19280628806E-01 -0.20407624362E-01  0.28100444898E-01  0.00000000000E+00 0.  1.
     999901    1    3    3    0    0 -0.32524559589E-01 -0.10112523623E+00  0.40692379918E-01  0.88732183009E+00  0.88000000000E+00 0.  1.
        -11    1    4    4    0    0  0.26102873129E-01  0.63253966885E-01 -0.19325869361E-01  0.71106783501E-01  0.51100000000E-03 0. -1.
         11    1    4    4    0    0  0.52295353704E-02  0.57151898148E-01 -0.95888619532E-03  0.57400941507E-01  0.51100000000E-03 0.  1.
</event>
<event>
 8    1  0.1070112E+005  0.1043930E+01  0.7957747E-01            NaN
         13   -1    0    0    0    0  0.00000000000E+00  0.00000000000E+00  0.74505805969E-08  0.10566000000E+00  0.10566000000E+00 0. -1.
     999900   -1    0    0    0    0 -0.00000000000E+00 -0.00000000000E+00 -0.74505805969E-08  0.93827000000E+00  0.93827000000E+00 0. -1.
     999902    2    1    2    0    0  0.77690926975E-02  0.18595809334E-01 -0.10904011820E-01  0.10210158035E+01  0.10207586447E+01 0.  0.
     999903    2    3    3    0    0 -0.85012406011E-01  0.75302037299E-01 -0.65856981591E-01  0.13262184155E+00  0.18812358572E-01 0.  0.
         14    1    1    2    0    0 -0.77690926975E-02 -0.18595809334E-01  0.10904011820E-01  0.22914196470E-01  0.00000000000E+00 0. -1.
     999901    1    3    3    0    0  0.92781498709E-01 -0.56706227965E-01  0.54952969771E-01  0.88839396198E+00  0.88000000000E+00 0.  1.
        -11    1    4    4    0    0 -0.17153886770E-01  0.25980439965E-01 -0.15555903699E-01  0.34806412527E-01  0.51100000000E-03 0. -1.
         11    1    4    4    0    0 -0.67858519242E-01  0.49321597334E-01 -0.50301077891E-01  0.97815429025E-01  0.51100000000E-03 0.  1.
</event>
<event>
 8    1  0.1070112E+005  0.1043930E+01  0.7957747E-01            NaN
         13   -1    0    0    0    0  0.00000000000E+00  0.00000000000E+00  0.74505805969E-08  0.10566000000E+00  0.10566000000E+00 0.  1.
     999900   -1    0    0    0    0 -0.00000000000E+00 -0.00000000000E+00 -0.74505805969E-08  0.93827000000E+00  0.93827000000E+00 0.  1.
     999902    2    1    2    0    0  0.22836103494E-01 -0.30175019353E-02  0.47876772377E-02  0.10204031049E+01  0.10201318452E+01 0.  0.
     999903    2    3    3    0    0 -0.12308857857E-01 -0.43051286808E-01  0.12141994599E+00  0.13111071294E+00  0.21030798523E-01 0.  0.
         14    1    1    2    0    0 -0.22836103494E-01  0.30175019353E-02 -0.47876772377E-02  0.23526895122E-01  0.00000000000E+00 0. -1.
     999901    1    3    3    0    0  0.35144961352E-01  0.40033784873E-01 -0.11663226875E+00  0.88929239194E+00  0.88000000000E+00 0.  1.
        -11    1    4    4    0    0 -0.16300438699E-01 -0.23249531735E-01  0.82617011974E-01  0.87361758316E-01  0.51100000000E-03 0. -1.
         11    1    4    4    0    0  0.39915808420E-02 -0.19801755074E-01  0.38802934017E-01  0.43748954627E-01  0.51100000000E-03 0.  1.
</event>
<event>
 8    1  0.1317111E+005  0.1043930E+01  0.7957747E-01            NaN
         13   -1    0    0    0    0  0.00000000000E+00  0.00000000000E+00  0.74505805969E-08  0.10566000000E+00  0.10566000000E+00 0.  1.
     999900   -1    0    0    0    0 -0.00000000000E+00 -0.00000000000E+00 -0.74505805969E-08  0.93827000000E+00  0.93827000000E+00 0.  1.
     999902    2    1    2    0    0 -0.12499573617E-02 -0.22446173955E-01 -0.84863528647E-02  0.10199006158E+01  0.10196175042E+01 0.  0.
     999903    2    3    3    0    0 -0.11985833859E+00 -0.32453469204E-01 -0.34168433063E-01  0.13151575368E+00  0.26639494268E-01 0.  0.
         14    1    1    2    0    0  0.12499573617E-02  0.22446173955E-01  0.84863528647E-02  0.24029384170E-01  0.00000000000E+00 0.  1.
     999901    1    3    3    0    0  0.11860838123E+00  0.10007295249E-01  0.25682080198E-01  0.88838486215E+00  0.88000000000E+00 0. -1.
        -11    1    4    4    0    0 -0.69531938295E-01 -0.15540526640E-01 -0.62356549503E-02  0.71521625575E-01  0.51100000000E-03 0. -1.
         11    1    4    4    0    0 -0.50326400295E-01 -0.16912942564E-01 -0.27932778112E-01  0.59994128104E-01  0.51100000000E-03 0.  1.
</event>
<event>
 8    1  0.1070112E+005  0.1043930E+01  0.7957747E-01            NaN
         13   -1    0    0    0    0  0.00000000000E+00  0.00000000000E+00  0.74505805969E-08  0.10566000000E+00  0.10566000000E+00 0. -1.
     999900   -1    0    0    0    0 -0.00000000000E+00 -0.00000000000E+00 -0.74505805969E-08  0.93827000000E+00  0.93827000000E+00 0. -1.
     999902    2    1    2    0    0 -0.20590819499E-01  0.12068623857E-01  0.17363449040E-02  0.10199999264E+01  0.10197191777E+01 0.  0.
     999903    2    3    3    0    0 -0.81368033785E-01  0.30553580013E-01  0.98033555075E-01  0.13247036853E+00  0.19584239708E-01 0.  0.
         14    1    1    2    0    0  0.20590819499E-01 -0.12068623857E-01 -0.17363449040E-02  0.23930073611E-01  0.00000000000E+00 0. -1.
     999901    1    3    3    0    0  0.60777214287E-01 -0.18484956157E-01 -0.96297210171E-01  0.88752955786E+00  0.88000000000E+00 0. -1.
        -11    1    4    4    0    0 -0.83696338113E-02  0.82722465066E-02  0.20690360152E-01  0.23808253960E-01  0.51100000000E-03 0. -1.
         11    1    4    4    0    0 -0.72998399974E-01  0.22281333507E-01  0.77343194923E-01  0.10866211457E+00  0.51100000000E-03 0.  1.
</event>
<event>
 8    1  0.1070112E+005  0.1043930E+01  0.7957747E-01            NaN
         13   -1    0    0    0    0  0.00000000000E+00  0.00000000000E+00  0.74505805969E-08  0.10566000000E+00  0.10566000000E+00 0. -1.
     999900   -1    0    0    0    0 -0.00000000000E+00 -0.00000000000E+00 -0.74505805969E-08  0.93827000000E+00  0.93827000000E+00 0.  1.
     999902    2    1    2    0    0  0.12635943672E-01  0.10933921369E-01 -0.17850133365E-01  0.10194791315E+01  0.10191858783E+01 0.  0.
     999903    2    3    3    0    0 -0.51453683213E-01  0.80590624269E-01 -0.88154226788E-01  0.13161528942E+00  0.20225886187E-01 0.  0.
         14    1    1    2    0    0 -0.12635943672E-01 -0.10933921369E-01  0.17850133365E-01  0.24450868495E-01  0.00000000000E+00 0. -1.
     999901    1    3    3    0    0  0.64089626885E-01 -0.69656702900E-01  0.70304093422E-01  0.88786384209E+00  0.88000000000E+00 0.  1.
        -11    1    4    4    0    0 -0.33625441873E-01  0.60822536322E-01 -0.73773075550E-01  0.10135471900E+00  0.51100000000E-03 0.  1.
         11    1    4    4    0    0 -0.17828241340E-01  0.19768087947E-01 -0.14381151238E-01  0.30260570422E-01  0.51100000000E-03 0. -1.
</event>
<event>
 8    1  0.1070112E+005  0.1043930E+01  0.7957747E-01            NaN
         13   -1    0    0    0    0  0.00000000000E+00  0.00000000000E+00  0.74505805969E-08  0.10566000000E+00  0.10566000000E+00 0.  1.
     999900   -1    0    0    0    0 -0.00000000000E+00 -0.00000000000E+00 -0.74505805969E-08  0.93827000000E+00  0.93827000000E+00 0.  1.
     999902    2    1    2    0    0 -0.13829887143E-02 -0.24246156547E-01 -0.37509663957E-02  0.10193564672E+01  0.10190602282E+01 0.  0.
     999903    2    3    3    0    0 -0.21640069548E-01 -0.86993668348E-01 -0.94200040671E-01  0.13226648609E+00  0.24178187218E-01 0.  0.
         14    1    1    2    0    0  0.13829887143E-02  0.24246156547E-01  0.37509663957E-02  0.24573532794E-01  0.00000000000E+00 0.  1.
     999901    1    3    3    0    0  0.20257080834E-01  0.62747511801E-01  0.90449074275E-01  0.88708998112E+00  0.88000000000E+00 0. -1.
        -11    1    4    4    0    0 -0.38457406585E-02 -0.31876014697E-01 -0.49930517825E-01  0.59364869792E-01  0.51100000000E-03 0.  1.
         11    1    4    4    0    0 -0.17794328889E-01 -0.55117653651E-01 -0.44269522846E-01  0.72901616297E-01  0.51100000000E-03 0. -1.
</event>
<event>
 8    1  0.1070112E+005  0.1043930E+01  0.7957747E-01            NaN
         13   -1    0    0    0    0  0.00000000000E+00  0.00000000000E+00  0.74505805969E-08  0.10566000000E+00  0.10566000000E+00 0.  1.
     999900   -1    0    0    0    0 -0.00000000000E+00 -0.00000000000E+00 -0.74505805969E-08  0.93827000000E+00  0.93827000000E+00 0. -1.
     999902    2    1    2    0    0 -0.18059084950E-01 -0.89485756215E-02  0.12892948267E-01  0.10200043721E+01  0.10197237290E+01 0.  0.
     999903    2    3    3    0    0 -0.94092466051E-01  0.51767608893E-01 -0.71610247861E-01  0.13061788680E+00  0.19993180196E-01 0.  0.
         14    1    1    2    0    0  0.18059084950E-01  0.89485756215E-02 -0.12892948267E-01  0.23925627889E-01  0.00000000000E+00 0. -1.
     999901    1    3    3    0    0  0.76033381101E-01 -0.60716184515E-01  0.84503196128E-01  0.88938648531E+00  0.88000000000E+00 0. -1.
        -11    1    4    4    0    0 -0.53413913639E-01  0.22245617153E-01 -0.29006148635E-01  0.64726589841E-01  0.51100000000E-03 0.  1.
         11    1    4    4    0    0 -0.40678552412E-01  0.29521991741E-01 -0.42604099226E-01  0.65891296956E-01  0.51100000000E-03 0. -1.
</event>
<event>
 8    1  0.1070112E+005  0.1043930E+01  0.7957747E-01            NaN
         13   -1    0    0    0    0  0.00000000000E+00  0.00000000000E+00  0.74505805969E-08  0.10566000000E+00  0.10566000000E+00 0. -1.
     999900   -1    0    0    0    0 -0.00000000000E+00 -0.00000000000E+00 -0.74505805969E-08  0.93827000000E+00  0.93827000000E+00 0. -1.
     999902    2    1    2    0    0  0.64885093312E-02 -0.66054866226E-02  0.22428020076E-01  0.10196658435E+01  0.10193771054E+01 0.  0.
     999903    2    3    3    0    0 -0.56539160577E-02  0.80881041783E-01 -0.95991981071E-01  0.12735164556E+00  0.20742987011E-01 0.  0.
         14    1    1    2    0    0 -0.64885093312E-02  0.66054866226E-02 -0.22428020076E-01  0.24264156515E-01  0.00000000000E+00 0.  1.
     999901    1    3    3    0    0  0.12142425389E-01 -0.87486528406E-01  0.11842000115E+00  0.89231419792E+00  0.88000000000E+00 0.  1.
        -11    1    4    4    0    0 -0.85393818966E-02  0.29993889994E-01 -0.48628838356E-01  0.57771788279E-01  0.51100000000E-03 0.  1.
         11    1    4    4    0    0  0.28854658389E-02  0.50887151789E-01 -0.47363142715E-01  0.69579857280E-01  0.51100000000E-03 0. -1.
</event>
