<event>
 8    1  0.1109553E+005  0.1043930E+01  0.7957747E-01            NaN
         13   -1    0    0    0    0  0.00000000000E+00  0.00000000000E+00  0.74505805969E-08  0.10566000000E+00  0.10566000000E+00 0. -1.
     999900   -1    0    0    0    0 -0.00000000000E+00 -0.00000000000E+00 -0.74505805969E-08  0.93827000000E+00  0.93827000000E+00 0.  1.
     999902    2    1    2    0    0  0.16916683760E-01  0.43399652542E-03  0.64536621551E-02  0.10258188902E+01  0.10256589995E+01 0.  0.
     999903    2    3    3    0    0 -0.72369461502E-01 -0.10868222894E+00  0.24673433690E-01  0.13440971006E+00  0.20199653026E-01 0.  0.
         14    1    1    2    0    0 -0.16916683760E-01 -0.43399652542E-03 -0.64536621551E-02  0.18111109785E-01  0.00000000000E+00 0.  1.
     999901    1    3    3    0    0  0.89286145262E-01  0.10911622546E+00 -0.18219771535E-01  0.89140918016E+00  0.88000000000E+00 0. -1.
        -11    1    4    4    0    0 -0.69267764062E-01 -0.10803521296E+00  0.21946159875E-01  0.13019802392E+00  0.51100000000E-03 0.  1.
         11    1    4    4    0    0 -0.31016974401E-02 -0.64701597891E-03  0.27272738151E-02  0.42116861409E-02  0.51100000000E-03 0. -1.
</event>
<event>
 8    1  0.1109553E+005  0.1043930E+01  0.7957747E-01            NaN
         13   -1    0    0    0    0  0.00000000000E+00  0.00000000000E+00  0.74505805969E-08  0.10566000000E+00  0.10566000000E+00 0. -1.
     999900   -1    0    0    0    0 -0.00000000000E+00 -0.00000000000E+00 -0.74505805969E-08  0.93827000000E+00  0.93827000000E+00 0.  1.
     999902    2    1    2    0    0  0.41148458954E-02  0.24664726463E-01  0.14347616264E-01  0.10151005917E+01  0.10146911237E+01 0.  0.
     999903    2    3    3    0    0  0.11762120518E+00 -0.27463552452E-01 -0.27176074927E-01  0.12531114024E+00  0.19373905145E-01 0.  0.
         14    1    1    2    0    0 -0.41148458954E-02 -0.24664726463E-01 -0.14347616264E-01  0.28829408261E-01  0.00000000000E+00 0.  1.
     999901    1    3    3    0    0 -0.11350635928E+00  0.52128278915E-01  0.41523691192E-01  0.88978945149E+00  0.88000000000E+00 0.  1.
        -11    1    4    4    0    0  0.47379132204E-01 -0.14236761627E-01 -0.20389499516E-01  0.53511310594E-01  0.51100000000E-03 0. -1.
         11    1    4    4    0    0  0.70242072973E-01 -0.13226790824E-01 -0.67865754112E-02  0.71799829650E-01  0.51100000000E-03 0.  1.
</event>
<event>
 8    1  0.1109553E+005  0.1043930E+01  0.7957747E-01            NaN
         13   -1    0    0    0    0  0.00000000000E+00  0.00000000000E+00  0.74505805969E-08  0.10566000000E+00  0.10566000000E+00 0. -1.
     999900   -1    0    0    0    0 -0.00000000000E+00 -0.00000000000E+00 -0.74505805969E-08  0.93827000000E+00  0.93827000000E+00 0. -1.
     999902    2    1    2    0    0 -0.18681223377E-01  0.97832325800E-02  0.11945443717E-01  0.10196938004E+01  0.10194057353E+01 0.  0.
     999903    2    3    3    0    0  0.47519851733E-01 -0.55469549234E-01  0.10543170424E+00  0.12987348774E+00  0.20402729179E-01 0.  0.
         14    1    1    2    0    0  0.18681223377E-01 -0.97832325800E-02 -0.11945443717E-01  0.24236199623E-01  0.00000000000E+00 0.  1.
     999901    1    3    3    0    0 -0.66201075110E-01  0.65252781814E-01 -0.93486260518E-01  0.88982031264E+00  0.88000000000E+00 0. -1.
        -11    1    4    4    0    0  0.22257923731E-01 -0.40916763176E-01  0.68008726475E-01  0.82432060968E-01  0.51100000000E-03 0. -1.
         11    1    4    4    0    0  0.25261928002E-01 -0.14552786059E-01  0.37422977760E-01  0.47441426769E-01  0.51100000000E-03 0.  1.
</event>
<event>
 8    1  0.1109553E+005  0.1043930E+01  0.7957747E-01            NaN
         13   -1    0    0    0    0  0.00000000000E+00  0.00000000000E+00  0.74505805969E-08  0.10566000000E+00  0.10566000000E+00 0. -1.
     999900   -1    0    0    0    0 -0.00000000000E+00 -0.00000000000E+00 -0.74505805969E-08  0.93827000000E+00  0.93827000000E+00 0. -1.
     999902    2    1    2    0    0 -0.23723005867E-01  0.17490694424E-02 -0.37644996859E-02  0.10198465677E+01  0.10195621658E+01 0.  0.
     999903    2    3    3    0    0  0.75391506953E-01  0.94848084443E-01  0.37862822126E-01  0.12842974764E+00  0.19508160762E-01 0.  0.
         14    1    1    2    0    0  0.23723005867E-01 -0.17490694424E-02  0.37644996859E-02  0.24083432255E-01  0.00000000000E+00 0. -1.
     999901    1    3    3    0    0 -0.99114512821E-01 -0.93099015000E-01 -0.41627321812E-01  0.89141682011E+00  0.88000000000E+00 0. -1.
        -11    1    4    4    0    0  0.34774034947E-01  0.29671931794E-01  0.10531164511E-01  0.46912936274E-01  0.51100000000E-03 0. -1.
         11    1    4    4    0    0  0.40617472006E-01  0.65176152649E-01  0.27331657614E-01  0.81516811365E-01  0.51100000000E-03 0.  1.
</event>
<event>
 8    1  0.1109553E+005  0.1043930E+01  0.7957747E-01            NaN
         13   -1    0    0    0    0  0.00000000000E+00  0.00000000000E+00  0.74505805969E-08  0.10566000000E+00  0.10566000000E+00 0.  1.
     999900   -1    0    0    0    0 -0.00000000000E+00 -0.00000000000E+00 -0.74505805969E-08  0.93827000000E+00  0.93827000000E+00 0.  1.
     999902    2    1    2    0    0  0.21281203727E-01 -0.14782375112E-01  0.27714107250E-02  0.10178706646E+01  0.10175370268E+01 0.  0.
     999903    2    3    3    0    0 -0.26336922382E-01  0.10978907175E+00 -0.53110604219E-01  0.12607005293E+00  0.18045725548E-01 0.  0.
         14    1    1    2    0    0 -0.21281203727E-01  0.14782375112E-01 -0.27714107250E-02  0.26059335437E-01  0.00000000000E+00 0.  1.
     999901    1    3    3    0    0  0.47618126109E-01 -0.12457144686E+00  0.55882014944E-01  0.89180061163E+00  0.88000000000E+00 0.  1.
        -11    1    4    4    0    0 -0.68769948909E-02  0.66073949387E-01 -0.32716963247E-01  0.74052148189E-01  0.51100000000E-03 0.  1.
         11    1    4    4    0    0 -0.19459927492E-01  0.43715122361E-01 -0.20393640972E-01  0.52017904746E-01  0.51100000000E-03 0. -1.
</event>
<event>
 8    1  0.1109553E+005  0.1043930E+01  0.7957747E-01            NaN
         13   -1    0    0    0    0  0.00000000000E+00  0.00000000000E+00  0.74505805969E-08  0.10566000000E+00  0.10566000000E+00 0. -1.
     999900   -1    0    0    0    0 -0.00000000000E+00 -0.00000000000E+00 -0.74505805969E-08  0.93827000000E+00  0.93827000000E+00 0. -1.
     999902    2    1    2    0    0  0.49980559563E-02 -0.21227638179E-01  0.92965030134E-02  0.10202230779E+01  0.10199476019E+01 0.  0.
     999903    2    3    3    0    0  0.10886847540E+00 -0.24850147053E-01  0.67903865004E-01  0.13217070926E+00  0.19704993273E-01 0.  0.
         14    1    1    2    0    0 -0.49980559563E-02  0.21227638179E-01 -0.92965030134E-02  0.23706922075E-01  0.00000000000E+00 0. -1.
     999901    1    3    3    0    0 -0.10387041945E+00  0.36225088742E-02 -0.58607361991E-01  0.88805236866E+00  0.88000000000E+00 0. -1.
        -11    1    4    4    0    0  0.79061549336E-01 -0.88916315510E-02  0.46564136736E-01  0.92186059933E-01  0.51100000000E-03 0. -1.
         11    1    4    4    0    0  0.29806926065E-01 -0.15958515502E-01  0.21339728268E-01  0.39984649330E-01  0.51100000000E-03 0.  1.
</event>
<event>
 8    1  0.1109553E+005  0.1043930E+01  0.7957747E-01            NaN
         13   -1    0    0    0    0  0.00000000000E+00  0.00000000000E+00  0.74505805969E-08  0.10566000000E+00  0.10566000000E+00 0.  1.
     999900   -1    0    0    0    0 -0.00000000000E+00 -0.00000000000E+00 -0.74505805969E-08  0.93827000000E+00  0.93827000000E+00 0.  1.
     999902    2    1    2    0    0  0.15341018488E-01  0.12411875959E-01 -0.12439589443E-01  0.10206030864E+01  0.10203364715E+01 0.  0.
     999903    2    3    3    0    0 -0.48030927166E-01  0.29552240277E-01  0.11443496222E+00  0.12908362645E+00  0.19670210215E-01 0.  0.
         14    1    1    2    0    0 -0.15341018488E-01 -0.12411875959E-01  0.12439589443E-01  0.23326913610E-01  0.00000000000E+00 0. -1.
     999901    1    3    3    0    0  0.63371945654E-01 -0.17140364318E-01 -0.12687455166E+00  0.89151945994E+00  0.88000000000E+00 0.  1.
        -11    1    4    4    0    0 -0.16794683157E-01  0.20985766015E-01  0.59844234819E-01  0.65605314721E-01  0.51100000000E-03 0.  1.
         11    1    4    4    0    0 -0.31236244009E-01  0.85664742623E-02  0.54590727403E-01  0.63478311732E-01  0.51100000000E-03 0. -1.
</event>
<event>
 8    1  0.1109553E+005  0.1043930E+01  0.7957747E-01            NaN
         13   -1    0    0    0    0  0.00000000000E+00  0.00000000000E+00  0.74505805969E-08  0.10566000000E+00  0.10566000000E+00 0.  1.
     999900   -1    0    0    0    0 -0.00000000000E+00 -0.00000000000E+00 -0.74505805969E-08  0.93827000000E+00  0.93827000000E+00 0.  1.
     999902    2    1    2    0    0  0.23780332283E-02  0.23058276995E-01  0.96632332906E-03  0.10207292896E+01  0.10204655848E+01 0.  0.
     999903    2    3    3    0    0  0.70890248225E-01  0.56390646108E-02 -0.10832618584E+00  0.13115511898E+00  0.20245403218E-01 0.  0.
         14    1    1    2    0    0 -0.23780332283E-02 -0.23058276995E-01 -0.96632332906E-03  0.23200710351E-01  0.00000000000E+00 0. -1.
     999901    1    3    3    0    0 -0.68512214997E-01  0.17419212384E-01  0.10929250917E+00  0.88957417067E+00  0.88000000000E+00 0. -1.
        -11    1    4    4    0    0  0.40829034190E-01  0.36664894954E-02 -0.44098041646E-01  0.60210892504E-01  0.51100000000E-03 0.  1.
         11    1    4    4    0    0  0.30061214035E-01  0.19725751154E-02 -0.64228144198E-01  0.70944226474E-01  0.51100000000E-03 0. -1.
</event>
<event>
 8    1  0.1109553E+005  0.1043930E+01  0.7957747E-01            NaN
         13   -1    0    0    0    0  0.00000000000E+00  0.00000000000E+00  0.74505805969E-08  0.10566000000E+00  0.10566000000E+00 0.  1.
     999900   -1    0    0    0    0 -0.00000000000E+00 -0.00000000000E+00 -0.74505805969E-08  0.93827000000E+00  0.93827000000E+00 0. -1.
     999902    2    1    2    0    0  0.52709624791E-02 -0.15829211584E-01 -0.17549427878E-01  0.10197157603E+01  0.10194282233E+01 0.  0.
     999903    2    3    3    0    0  0.41542620513E-01 -0.36413581069E-01  0.11465220384E+00  0.12886413357E+00  0.20226192648E-01 0.  0.
         14    1    1    2    0    0 -0.52709624791E-02  0.15829211584E-01  0.17549427878E-01  0.24214239688E-01  0.00000000000E+00 0.  1.
     999901    1    3    3    0    0 -0.36271658034E-01  0.20584369484E-01 -0.13220163172E+00  0.89085162674E+00  0.88000000000E+00 0. -1.
        -11    1    4    4    0    0  0.78694108232E-02 -0.49635713337E-02  0.40524908432E-01  0.41582375972E-01  0.51100000000E-03 0. -1.
         11    1    4    4    0    0  0.33673209690E-01 -0.31450009735E-01  0.74127295410E-01  0.87281757595E-01  0.51100000000E-03 0.  1.
</event>
<event>
 8    1  0.1109553E+005  0.1043930E+01  0.7957747E-01            NaN
         13   -1    0    0    0    0  0.00000000000E+00  0.00000000000E+00  0.74505805969E-08  0.10566000000E+00  0.10566000000E+00 0.  1.
     999900   -1    0    0    0    0 -0.00000000000E+00 -0.00000000000E+00 -0.74505805969E-08  0.93827000000E+00  0.93827000000E+00 0. -1.
     999902    2    1    2    0    0 -0.28199883978E-02  0.23384027597E-01  0.12174265159E-02  0.10203451063E+01  0.10200724920E+01 0.  0.
     999903    2    3    3    0    0 -0.96202156811E-02  0.12798303562E+00 -0.26707280514E-01  0.13368452595E+00  0.26192893888E-01 0.  0.
         14    1    1    2    0    0  0.28199883978E-02 -0.23384027597E-01 -0.12174265159E-02  0.23584893652E-01  0.00000000000E+00 0. -1.
     999901    1    3    3    0    0  0.68002272833E-02 -0.10459900802E+00  0.27924707030E-01  0.88666058040E+00  0.88000000000E+00 0. -1.
        -11    1    4    4    0    0 -0.82325391700E-03  0.38516902285E-01 -0.20319479106E-01  0.43558832179E-01  0.51100000000E-03 0. -1.
         11    1    4    4    0    0 -0.87969617641E-02  0.89466133333E-01 -0.63878014075E-02  0.90125693771E-01  0.51100000000E-03 0.  1.
</event>
<event>
 8    1  0.1109553E+005  0.1043930E+01  0.7957747E-01            NaN
         13   -1    0    0    0    0  0.00000000000E+00  0.00000000000E+00  0.74505805969E-08  0.10566000000E+00  0.10566000000E+00 0.  1.
     999900   -1    0    0    0    0 -0.00000000000E+00 -0.00000000000E+00 -0.74505805969E-08  0.93827000000E+00  0.93827000000E+00 0. -1.
     999902    2    1    2    0    0 -0.27634388315E-02 -0.13138507957E-01  0.18797203428E-01  0.10208303930E+01  0.10205690077E+01 0.  0.
     999903    2    3    3    0    0 -0.11240809631E+00  0.61774700829E-01  0.16597745714E-01  0.13086478842E+00  0.19960308287E-01 0.  0.
         14    1    1    2    0    0  0.27634388315E-02  0.13138507957E-01 -0.18797203428E-01  0.23099606971E-01  0.00000000000E+00 0. -1.
     999901    1    3    3    0    0  0.10964465748E+00 -0.74913208787E-01  0.21994577138E-02  0.88996560460E+00  0.88000000000E+00 0. -1.
        -11    1    4    4    0    0 -0.70581643872E-01  0.48676684675E-01  0.14698511486E-01  0.86991352694E-01  0.51100000000E-03 0. -1.
         11    1    4    4    0    0 -0.41826452443E-01  0.13098016155E-01  0.18992342272E-02  0.43873435731E-01  0.51100000000E-03 0.  1.
</event>
<event>
 8    1  0.1109553E+005  0.1043930E+01  0.7957747E-01            NaN
         13   -1    0    0    0    0  0.00000000000E+00  0.00000000000E+00  0.74505805969E-08  0.10566000000E+00  0.10566000000E+00 0. -1.
     999900   -1    0    0    0    0 -0.00000000000E+00 -0.00000000000E+00 -0.74505805969E-08  0.93827000000E+00  0.93827000000E+00 0.  1.
     999902    2    1    2    0    0  0.14169448766E-01  0.53978712598E-02  0.18437547743E-01  0.10200583964E+01  0.10197790342E+01 0.  0.
     999903    2    3    3    0    0 -0.89404888067E-02  0.48169541552E-01 -0.11707354783E+00  0.12835960081E+00  0.19228480073E-01 0.  0.
         14    1    1    2    0    0 -0.14169448766E-01 -0.53978712598E-02 -0.18437547743E-01  0.23871603617E-01  0.00000000000E+00 0.  1.
     999901    1    3    3    0    0  0.23109937573E-01 -0.42771670292E-01  0.13551109557E+00  0.89169879557E+00  0.88000000000E+00 0. -1.
        -11    1    4    4    0    0  0.16172622316E-02  0.15988758860E-01 -0.20726063923E-01  0.26231408535E-01  0.51100000000E-03 0.  1.
         11    1    4    4    0    0 -0.10557751038E-01  0.32180782692E-01 -0.96347483909E-01  0.10212819228E+00  0.51100000000E-03 0. -1.
</event>
<event>
 8    1  0.1109553E+005  0.1043930E+01  0.7957747E-01            NaN
         13   -1    0    0    0    0  0.00000000000E+00  0.00000000000E+00  0.74505805969E-08  0.10566000000E+00  0.10566000000E+00 0.  1.
     999900   -1    0    0    0    0 -0.00000000000E+00 -0.00000000000E+00 -0.74505805969E-08  0.93827000000E+00  0.93827000000E+00 0. -1.
     999902    2    1    2    0    0 -0.83754498105E-02  0.13149141681E-01 -0.17998503102E-01  0.10201183600E+01  0.10198404160E+01 0.  0.
     999903    2    3    3    0    0 -0.57383095173E-01  0.11136477184E+00  0.35061708566E-01  0.13171335922E+00  0.20594988980E-01 0.  0.
         14    1    1    2    0    0  0.83754498105E-02 -0.13149141681E-01  0.17998503102E-01  0.23811640019E-01  0.00000000000E+00 0.  1.
     999901    1    3    3    0    0  0.49007645362E-01 -0.98215630160E-01 -0.53060211669E-01  0.88840500076E+00  0.88000000000E+00 0. -1.
        -11    1    4    4    0    0 -0.35726618512E-01  0.84273546766E-01  0.18991978260E-01  0.93484642129E-01  0.51100000000E-03 0. -1.
         11    1    4    4    0    0 -0.21656476660E-01  0.27091225075E-01  0.16069730306E-01  0.38228717093E-01  0.51100000000E-03 0.  1.
</event>
<event>
 8    1  0.1109553E+005  0.1043930E+01  0.7957747E-01            NaN
         13   -1    0    0    0    0  0.00000000000E+00  0.00000000000E+00  0.74505805969E-08  0.10566000000E+00  0.10566000000E+00 0.  1.
     999900   -1    0    0    0    0 -0.00000000000E+00 -0.00000000000E+00 -0.74505805969E-08  0.93827000000E+00  0.93827000000E+00 0.  1.
     999902    2    1    2    0    0 -0.10395698549E-01  0.17505380918E-01 -0.47786156566E-02  0.10230172269E+01  0.10228034525E+01 0.  0.
     999903    2    3    3    0    0  0.86175660287E-01  0.82565661189E-02 -0.98367586943E-01  0.13275296086E+00  0.21277949739E-01 0.  0.
         14    1    1    2    0    0  0.10395698549E-01 -0.17505380918E-01  0.47786156566E-02  0.20912773059E-01  0.00000000000E+00 0.  1.
     999901    1    3    3    0    0 -0.96571358836E-01  0.92488147992E-02  0.93588971286E-01  0.89026426609E+00  0.88000000000E+00 0. -1.
        -11    1    4    4    0    0  0.54592340671E-01  0.20225489318E-02 -0.46686064682E-01  0.71862814589E-01  0.51100000000E-03 0.  1.
         11    1    4    4    0    0  0.31583319616E-01  0.62340171871E-02 -0.51681522261E-01  0.60890146267E-01  0.51100000000E-03 0. -1.
</event>
<event>
 8    1  0.1109553E+005  0.1043930E+01  0.7957747E-01            NaN
         13   -1    0    0    0    0  0.00000000000E+00  0.00000000000E+00  0.74505805969E-08  0.10566000000E+00  0.10566000000E+00 0. -1.
     999900   -1    0    0    0    0 -0.00000000000E+00 -0.00000000000E+00 -0.74505805969E-08  0.93827000000E+00  0.93827000000E+00 0.  1.
     999902    2    1    2    0    0 -0.18263432182E-01 -0.12650068861E-01 -0.39942875078E-02  0.10213571949E+01  0.10211077260E+01 0.  0.
     999903    2    3    3    0    0  0.80536002527E-01 -0.98018026824E-01 -0.24143923172E-01  0.13149483231E+00  0.24786702321E-01 0.  0.
         14    1    1    2    0    0  0.18263432182E-01  0.12650068861E-01  0.39942875078E-02  0.22572805097E-01  0.00000000000E+00 0. -1.
     999901    1    3    3    0    0 -0.98799434710E-01  0.85367957963E-01  0.20149635664E-01  0.88986236259E+00  0.88000000000E+00 0. -1.
        -11    1    4    4    0    0  0.38027977804E-01 -0.27855994365E-01 -0.65668751831E-02  0.47596937807E-01  0.51100000000E-03 0.  1.
         11    1    4    4    0    0  0.42508024723E-01 -0.70162032459E-01 -0.17577047988E-01  0.83897894501E-01  0.51100000000E-03 0. -1.
</event>
<event>
 8    1  0.1109553E+005  0.1043930E+01  0.7957747E-01            NaN
         13   -1    0    0    0    0  0.00000000000E+00  0.00000000000E+00  0.74505805969E-08  0.10566000000E+00  0.10566000000E+00 0.  1.
     999900   -1    0    0    0    0 -0.00000000000E+00 -0.00000000000E+00 -0.74505805969E-08  0.93827000000E+00  0.93827000000E+00 0. -1.
     999902    2    1    2    0    0 -0.90039138515E-02 -0.19530342633E-01  0.11482373779E-02  0.10223934451E+01  0.10221665879E+01 0.  0.
     999903    2    3    3    0    0  0.87321145590E-02 -0.12858849085E+00 -0.33912766138E-01  0.13479132682E+00  0.20183564484E-01 0.  0.
         14    1    1    2    0    0  0.90039138515E-02  0.19530342633E-01 -0.11482373779E-02  0.21536554903E-01  0.00000000000E+00 0.  1.
     999901    1    3    3    0    0 -0.17736028410E-01  0.10905814822E+00  0.35061003516E-01  0.88760211827E+00  0.88000000000E+00 0.  1.
        -11    1    4    4    0    0  0.26795021328E-03 -0.26352295862E-02 -0.43805702214E-02  0.51445844102E-02  0.51100000000E-03 0.  1.
         11    1    4    4    0    0  0.84641643457E-02 -0.12595326127E+00 -0.29532195917E-01  0.12964674241E+00  0.51100000000E-03 0. -1.
</event>
<event>
 8    1  0.1109553E+005  0.1043930E+01  0.7957747E-01            NaN
         13   -1    0    0    0    0  0.00000000000E+00  0.00000000000E+00  0.74505805969E-08  0.10566000000E+00  0.10566000000E+00 0. -1.
     999900   -1    0    0    0    0 -0.00000000000E+00 -0.00000000000E+00 -0.74505805969E-08  0.93827000000E+00  0.93827000000E+00 0. -1.
     999902    2    1    2    0    0 -0.13978698862E-01  0.27004118392E-02 -0.18819329335E-01  0.10203320466E+01  0.10200591267E+01 0.  0.
     999903    2    3    3    0    0  0.27866700930E-01 -0.69336961205E-01 -0.10712699964E+00  0.13199727572E+00  0.19050447109E-01 0.  0.
         14    1    1    2    0    0  0.13978698862E-01 -0.27004118392E-02  0.18819329335E-01  0.23597953356E-01  0.00000000000E+00 0.  1.
     999901    1    3    3    0    0 -0.41845399792E-01  0.72037373044E-01  0.88307670308E-01  0.88833477092E+00  0.88000000000E+00 0.  1.
        -11    1    4    4    0    0  0.25348168190E-01 -0.44270606481E-01 -0.61796354360E-01  0.80134054945E-01  0.51100000000E-03 0.  1.
         11    1    4    4    0    0  0.25185327394E-02 -0.25066354724E-01 -0.45330645283E-01  0.51863220774E-01  0.51100000000E-03 0. -1.
</event>
<event>
 8    1  0.1109553E+005  0.1043930E+01  0.7957747E-01            NaN
         13   -1    0    0    0    0  0.00000000000E+00  0.00000000000E+00  0.74505805969E-08  0.10566000000E+00  0.10566000000E+00 0.  1.
     999900   -1    0    0    0    0 -0.00000000000E+00 -0.00000000000E+00 -0.74505805969E-08  0.93827000000E+00  0.93827000000E+00 0.  1.
     999902    2    1    2    0    0  0.62978055931E-02 -0.15203712809E-01  0.17624208801E-01  0.10198171824E+01  0.10195320777E+01 0.  0.
     999903    2    3    3    0    0 -0.91439142576E-01 -0.32575772704E-02  0.91864981395E-01  0.13121889658E+00  0.20186515477E-01 0.  0.
         14    1    1    2    0    0 -0.62978055931E-02  0.15203712809E-01 -0.17624208801E-01  0.24112817636E-01  0.00000000000E+00 0.  1.
     999901    1    3    3    0    0  0.97736948169E-01 -0.11946135538E-01 -0.74240772594E-01  0.88859828579E+00  0.88000000000E+00 0.  1.
        -11    1    4    4    0    0 -0.58545246419E-01  0.59843661225E-03  0.45074353183E-01  0.73890881984E-01  0.51100000000E-03 0. -1.
         11    1    4    4    0    0 -0.32893896158E-01 -0.38560138826E-02  0.46790628212E-01  0.57328014591E-01  0.51100000000E-03 0.  1.
</event>
<event>
 8    1  0.1109553E+005  0.1043930E+01  0.7957747E-01            NaN
         13   -1    0    0    0    0  0.00000000000E+00  0.00000000000E+00  0.74505805969E-08  0.10566000000E+00  0.10566000000E+00 0. -1.
     999900   -1    0    0    0    0 -0.00000000000E+00 -0.00000000000E+00 -0.74505805969E-08  0.93827000000E+00  0.93827000000E+00 0. -1.
     999902    2    1    2    0    0 -0.45241768977E-02 -0.26330051157E-02  0.21516120710E-01  0.10217862798E+01  0.10215463070E+01 0.  0.
     999903    2    3    3    0    0  0.22175751093E-01 -0.12800199258E+00 -0.11037048913E-01  0.13190427753E+00  0.20016191935E-01 0.  0.
         14    1    1    2    0    0  0.45241768977E-02  0.26330051157E-02 -0.21516120710E-01  0.22143720169E-01  0.00000000000E+00 0.  1.
     999901    1    3    3    0    0 -0.26699927991E-01  0.12536898747E+00  0.32553169622E-01  0.88988200230E+00  0.88000000000E+00 0.  1.
        -11    1    4    4    0    0  0.89802190247E-02 -0.46128346430E-01  0.55701116138E-02  0.47326059867E-01  0.51100000000E-03 0.  1.
         11    1    4    4    0    0  0.13195532069E-01 -0.81873646152E-01 -0.16607160527E-01  0.84578217660E-01  0.51100000000E-03 0. -1.
</event>
<event>
 8    1  0.1109553E+005  0.1043930E+01  0.7957747E-01            NaN
         13   -1    0    0    0    0  0.00000000000E+00  0.00000000000E+00  0.74505805969E-08  0.10566000000E+00  0.10566000000E+00 0.  1.
     999900   -1    0    0    0    0 -0.00000000000E+00 -0.00000000000E+00 -0.74505805969E-08  0.93827000000E+00  0.93827000000E+00 0. -1.
     999902    2    1    2    0    0 -0.14248087913E-01  0.14800319835E-01  0.11105805851E-01  0.10205762765E+01  0.10203090413E+01 0.  0.
     999903    2    3    3    0    0  0.38296134836E-01  0.12285440566E+00 -0.15891610362E-01  0.13200132680E+00  0.24738796726E-01 0.  0.
         14    1    1    2    0    0  0.14248087913E-01 -0.14800319835E-01 -0.11105805851E-01  0.23353723472E-01  0.00000000000E+00 0. -1.
     999901    1    3    3    0    0 -0.52544222748E-01 -0.10805408582E+00  0.26997416213E-01  0.88857494973E+00  0.88000000000E+00 0. -1.
        -11    1    4    4    0    0  0.40576969761E-02  0.53416668921E-01 -0.82283465878E-02  0.54201219838E-01  0.51100000000E-03 0.  1.
         11    1    4    4    0    0  0.34238437859E-01  0.69437736737E-01 -0.76632637744E-02  0.77800106960E-01  0.51100000000E-03 0. -1.
</event>
<event>
 8    1  0.1109553E+005  0.1043930E+01  0.7957747E-01            NaN
         13   -1    0    0    0    0  0.00000000000E+00  0.00000000000E+00  0.74505805969E-08  0.10566000000E+00  0.10566000000E+00 0. -1.
     999900   -1    0    0    0    0 -0.00000000000E+00 -0.00000000000E+00 -0.74505805969E-08  0.93827000000E+00  0.93827000000E+00 0. -1.
     999902    2    1    2    0    0 -0.13166169072E-01  0.36425066348E-03  0.21350063321E-01  0.10188440300E+01  0.10185351499E+01 0.  0.
     999903    2    3    3    0    0 -0.59001194935E-01  0.27557943635E-01  0.11376569792E+00  0.13240114067E+00  0.18623822589E-01 0.  0.
         14    1    1    2    0    0  0.13166169072E-01 -0.36425066348E-03 -0.21350063321E-01  0.25085969991E-01  0.00000000000E+00 0.  1.
     999901    1    3    3    0    0  0.45835025863E-01 -0.27193692971E-01 -0.92415634599E-01  0.88644288933E+00  0.88000000000E+00 0.  1.
        -11    1    4    4    0    0 -0.34158207804E-01  0.18403352903E-01  0.49522777251E-01  0.62914490748E-01  0.51100000000E-03 0. -1.
         11    1    4    4    0    0 -0.24842987131E-01  0.91545907319E-02  0.64242920668E-01  0.69486649927E-01  0.51100000000E-03 0.  1.
</event>
<event>
 8    1  0.1109553E+005  0.1043930E+01  0.7957747E-01            NaN
         13   -1    0    0    0    0  0.00000000000E+00  0.00000000000E+00  0.74505805969E-08  0.10566000000E+00  0.10566000000E+00 0.  1.
     999900   -1    0    0    0    0 -0.00000000000E+00 -0.00000000000E+00 -0.74505805969E-08  0.93827000000E+00  0.93827000000E+00 0. -1.
     999902    2    1    2    0    0  0.99678733549E-02  0.14274590721E-01  0.10469538440E-01  0.10236141521E+01  0.10234125262E+01 0.  0.
     999903    2    3    3    0    0 -0.16926795272E-01 -0.71957080687E-01  0.10942454958E+00  0.13347297311E+00  0.19415577273E-01 0.  0.
         14    1    1    2    0    0 -0.99678733549E-02 -0.14274590721E-01 -0.10469538440E-01  0.20315847869E-01  0.00000000000E+00 0. -1.
     999901    1    3    3    0    0  0.26894668627E-01  0.86231671408E-01 -0.98955011143E-01  0.89014117902E+00  0.88000000000E+00 0. -1.
        -11    1    4    4    0    0  0.25889536389E-05 -0.21499362765E-01  0.45239800268E-01  0.50091149471E-01  0.51100000000E-03 0. -1.
         11    1    4    4    0    0 -0.16929384226E-01 -0.50457717923E-01  0.64184749315E-01  0.83381823642E-01  0.51100000000E-03 0.  1.
</event>
<event>
 8    1  0.1109553E+005  0.1043930E+01  0.7957747E-01            NaN
         13   -1    0    0    0    0  0.00000000000E+00  0.00000000000E+00  0.74505805969E-08  0.10566000000E+00  0.10566000000E+00 0. -1.
     999900   -1    0    0    0    0 -0.00000000000E+00 -0.00000000000E+00 -0.74505805969E-08  0.93827000000E+00  0.93827000000E+00 0. -1.
     999902    2    1    2    0    0  0.12380957900E-01  0.88318397166E-04  0.20492128169E-01  0.10199879191E+01  0.10197068853E+01 0.  0.
     999903    2    3    3    0    0  0.25614059975E-01  0.61311725137E-01 -0.10807235214E+00  0.12844305425E+00  0.20069309414E-01 0.  0.
         14    1    1    2    0    0 -0.12380957900E-01 -0.88318397166E-04 -0.20492128169E-01  0.23942080852E-01  0.00000000000E+00 0.  1.
     999901    1    3    3    0    0 -0.13233102075E-01 -0.61223406740E-01  0.12856448031E+00  0.89154486490E+00  0.88000000000E+00 0.  1.
        -11    1    4    4    0    0  0.13940160388E-02  0.12559489941E-01 -0.35752096999E-01  0.37923048785E-01  0.51100000000E-03 0.  1.
         11    1    4    4    0    0  0.24220043936E-01  0.48752235195E-01 -0.72320255144E-01  0.90520005468E-01  0.51100000000E-03 0. -1.
</event>
<event>
 8    1  0.1109553E+005  0.1043930E+01  0.7957747E-01            NaN
         13   -1    0    0    0    0  0.00000000000E+00  0.00000000000E+00  0.74505805969E-08  0.10566000000E+00  0.10566000000E+00 0. -1.
     999900   -1    0    0    0    0 -0.00000000000E+00 -0.00000000000E+00 -0.74505805969E-08  0.93827000000E+00  0.93827000000E+00 0. -1.
     999902    2    1    2    0    0 -0.94166599997E-02 -0.20961540669E-02 -0.21633768751E-01  0.10202427186E+01  0.10199677042E+01 0.  0.
     999903    2    3    3    0    0  0.12462911014E+00  0.19827743546E-01  0.17228658208E-01  0.12897440102E+00  0.20298151282E-01 0.  0.
         14    1    1    2    0    0  0.94166599997E-02  0.20961540669E-02  0.21633768751E-01  0.23687281351E-01  0.00000000000E+00 0. -1.
     999901    1    3    3    0    0 -0.13404577014E+00 -0.21923897612E-01 -0.38862426959E-01  0.89126831763E+00  0.88000000000E+00 0. -1.
        -11    1    4    4    0    0  0.95213386030E-01  0.62609385273E-02  0.12700931862E-01  0.96261950020E-01  0.51100000000E-03 0.  1.
         11    1    4    4    0    0  0.29415724114E-01  0.13566805018E-01  0.45277263454E-02  0.32712451000E-01  0.51100000000E-03 0. -1.
</event>
<event>
 8    1  0.1109553E+005  0.1043930E+01  0.7957747E-01            NaN
         13   -1    0    0    0    0  0.00000000000E+00  0.00000000000E+00  0.74505805969E-08  0.10566000000E+00  0.10566000000E+00 0. -1.
     999900   -1    0    0    0    0 -0.00000000000E+00 -0.00000000000E+00 -0.74505805969E-08  0.93827000000E+00  0.93827000000E+00 0. -1.
     999902    2    1    2    0    0  0.90107371254E-02  0.17919868593E-01  0.13572720738E-01  0.10197115396E+01  0.10194239012E+01 0.  0.
     999903    2    3    3    0    0 -0.12038563157E+00  0.39375961688E-01  0.22170543708E-01  0.12994881468E+00  0.18761523976E-01 0.  0.
         14    1    1    2    0    0 -0.90107371254E-02 -0.17919868593E-01 -0.13572720738E-01  0.24218460359E-01  0.00000000000E+00 0. -1.
     999901    1    3    3    0    0  0.12939636870E+00 -0.21456093095E-01 -0.85978229702E-02  0.88976272496E+00  0.88000000000E+00 0. -1.
        -11    1    4    4    0    0 -0.63892201372E-01  0.30639800795E-01  0.13274305476E-01  0.72093544064E-01  0.51100000000E-03 0. -1.
         11    1    4    4    0    0 -0.56493430199E-01  0.87361608931E-02  0.88962382321E-02  0.57855270620E-01  0.51100000000E-03 0.  1.
</event>
<event>
 8    1  0.1109553E+005  0.1043930E+01  0.7957747E-01            NaN
         13   -1    0    0    0    0  0.00000000000E+00  0.00000000000E+00  0.74505805969E-08  0.10566000000E+00  0.10566000000E+00 0.  1.
     999900   -1    0    0    0    0 -0.00000000000E+00 -0.00000000000E+00 -0.74505805969E-08  0.93827000000E+00  0.93827000000E+00 0. -1.
     999902    2    1    2    0    0  0.23677301774E-01 -0.12223979337E-02  0.20698734946E-02  0.10201309821E+01  0.10198533362E+01 0.  0.
     999903    2    3    3    0    0  0.52879011529E-01  0.10039520377E+00 -0.63255944708E-01  0.13139798546E+00  0.19716217694E-01 0.  0.
         14    1    1    2    0    0 -0.23677301774E-01  0.12223979337E-02 -0.20698734946E-02  0.23799017885E-01  0.00000000000E+00 0.  1.
     999901    1    3    3    0    0 -0.29201709755E-01 -0.10161760171E+00  0.65325818202E-01  0.88873299666E+00  0.88000000000E+00 0.  1.
        -11    1    4    4    0    0  0.41834713943E-01  0.92257373726E-01 -0.57759399879E-01  0.11661035843E+00  0.51100000000E-03 0.  1.
         11    1    4    4    0    0  0.11044297586E-01  0.81378300459E-02 -0.54965448289E-02  0.14787627027E-01  0.51100000000E-03 0. -1.
</event>
<event>
 8    1  0.1109553E+005  0.1043930E+01  0.7957747E-01            NaN
         13   -1    0    0    0    0  0.00000000000E+00  0.00000000000E+00  0.74505805969E-08  0.10566000000E+00  0.10566000000E+00 0. -1.
     999900   -1    0    0    0    0 -0.00000000000E+00 -0.00000000000E+00 -0.74505805969E-08  0.93827000000E+00  0.93827000000E+00 0. -1.
     999902    2    1    2    0    0 -0.22762167236E-01  0.22363470854E-02 -0.80743729910E-02  0.10196748355E+01  0.10193863140E+01 0.  0.
     999903    2    3    3    0    0 -0.67182307265E-01 -0.97015528989E-01 -0.55087294972E-01  0.13173660647E+00  0.19860718579E-01 0.  0.
         14    1    1    2    0    0  0.22762167236E-01 -0.22363470854E-02  0.80743729910E-02  0.24255164496E-01  0.00000000000E+00 0. -1.
     999901    1    3    3    0    0  0.44420140030E-01  0.99251876075E-01  0.47012921981E-01  0.88793822903E+00  0.88000000000E+00 0.  1.
        -11    1    4    4    0    0 -0.42862331023E-01 -0.52205942062E-01 -0.40264219951E-01  0.78639101829E-01  0.51100000000E-03 0. -1.
         11    1    4    4    0    0 -0.24319976242E-01 -0.44809586928E-01 -0.14823075021E-01  0.53097504641E-01  0.51100000000E-03 0.  1.
</event>
<event>
 8    1  0.1109553E+005  0.1043930E+01  0.7957747E-01            NaN
         13   -1    0    0    0    0  0.00000000000E+00  0.00000000000E+00  0.74505805969E-08  0.10566000000E+00  0.10566000000E+00 0.  1.
     999900   -1    0    0    0    0 -0.00000000000E+00 -0.00000000000E+00 -0.74505805969E-08  0.93827000000E+00  0.93827000000E+00 0. -1.
     999902    2    1    2    0    0 -0.20214542740E-01  0.11585721423E-01 -0.36409283740E-02  0.10203479509E+01  0.10200754031E+01 0.  0.
     999903    2    3    3    0    0  0.50766301216E-01  0.10640442346E+00 -0.52254062541E-01  0.13108302793E+00  0.23519236544E-01 0.  0.
         14    1    1    2    0    0  0.20214542740E-01 -0.11585721423E-01  0.36409283740E-02  0.23582049073E-01  0.00000000000E+00 0.  1.
     999901    1    3    3    0    0 -0.70980843956E-01 -0.94818702036E-01  0.48613134167E-01  0.88926492300E+00  0.88000000000E+00 0.  1.
        -11    1    4    4    0    0  0.44359038577E-01  0.88333033581E-01 -0.52452355599E-01  0.11190156323E+00  0.51100000000E-03 0.  1.
         11    1    4    4    0    0  0.64072626393E-02  0.18071389878E-01  0.19829305866E-03  0.19181464694E-01  0.51100000000E-03 0. -1.
</event>
<event>
 7    1  0.1109553E+005  0.1043930E+01  0.7957747E-01            NaN
         13   -1    0    0    0    0  0.00000000000E+00  0.00000000000E+00  0.74505805969E-08  0.10566000000E+00  0.10566000000E+00 0. -1.
     999900   -1    0    0    0    0 -0.00000000000E+00 -0.00000000000E+00 -0.74505805969E-08  0.93827000000E+00  0.93827000000E+00 0.  1.
     999903    2    1    2    0    0 -0.70143542057E-01 -0.18940187358E-02  0.27734260230E-01  0.77984746012E-01  0.19716176627E-01 0.  0.
         14    1    1    2    0    0  0.77005714135E-02  0.75531921470E-01 -0.27247049133E-01  0.80664562525E-01  0.00000000000E+00 0.  1.
     999901    1    1    2    0    0  0.62442970643E-01 -0.73637902734E-01 -0.48721109737E-03  0.88528069146E+00  0.88000000000E+00 0.  1.
        -11    1    3    3    0    0 -0.31188760941E-01  0.56161563968E-03  0.20663516152E-02  0.31266358137E-01  0.51100000000E-03 0.  1.
         11    1    3    3    0    0 -0.38954781116E-01 -0.24556343755E-02  0.25667908615E-01  0.46718387875E-01  0.51100000000E-03 0. -1.
</event>
<event>
 8    1  0.1109553E+005  0.1043930E+01  0.7957747E-01            NaN
         13   -1    0    0    0    0  0.00000000000E+00  0.00000000000E+00  0.74505805969E-08  0.10566000000E+00  0.10566000000E+00 0.  1.
     999900   -1    0    0    0    0 -0.00000000000E+00 -0.00000000000E+00 -0.74505805969E-08  0.93827000000E+00  0.93827000000E+00 0. -1.
     999902    2    1    2    0    0 -0.18033973129E-01  0.15072022060E-01 -0.31900286369E-02  0.10202115195E+01  0.10199357716E+01 0.  0.
     999903    2    3    3    0    0 -0.43541343934E-01 -0.90157996479E-02 -0.12058257865E+00  0.13172299399E+00  0.28873094698E-01 0.  0.
         14    1    1    2    0    0  0.18033973129E-01 -0.15072022060E-01  0.31900286369E-02  0.23718480527E-01  0.00000000000E+00 0.  1.
     999901    1    3    3    0    0  0.25507370805E-01  0.24087821708E-01  0.11739255001E+00  0.88848852548E+00  0.88000000000E+00 0.  1.
        -11    1    4    4    0    0 -0.73278716776E-02 -0.13037186462E-01 -0.51352797435E-01  0.53488661037E-01  0.51100000000E-03 0. -1.
         11    1    4    4    0    0 -0.36213472257E-01  0.40213868137E-02 -0.69229781211E-01  0.78234332951E-01  0.51100000000E-03 0.  1.
</event>
<event>
 8    1  0.1109553E+005  0.1043930E+01  0.7957747E-01            NaN
         13   -1    0    0    0    0  0.00000000000E+00  0.00000000000E+00  0.74505805969E-08  0.10566000000E+00  0.10566000000E+00 0. -1.
     999900   -1    0    0    0    0 -0.00000000000E+00 -0.00000000000E+00 -0.74505805969E-08  0.93827000000E+00  0.93827000000E+00 0.  1.
     999902    2    1    2    0    0  0.74906311593E-02  0.72351338479E-02 -0.20755610271E-01  0.10207081983E+01  0.10204440083E+01 0.  0.
     999903    2    3    3    0    0 -0.12158973789E+00  0.64378538892E-02  0.38695542724E-01  0.12930659580E+00  0.19933398273E-01 0.  0.
         14    1    1    2    0    0 -0.74906311593E-02 -0.72351338479E-02  0.20755610271E-01  0.23221801711E-01  0.00000000000E+00 0. -1.
     999901    1    3    3    0    0  0.12908036905E+00  0.79727995872E-03 -0.59451152995E-01  0.89140160249E+00  0.88000000000E+00 0.  1.
        -11    1    4    4    0    0 -0.34241439088E-01  0.10793274266E-01  0.12232003298E-01  0.37932228327E-01  0.51100000000E-03 0.  1.
         11    1    4    4    0    0 -0.87348298806E-01 -0.43554203768E-02  0.26463539426E-01  0.91374367472E-01  0.51100000000E-03 0. -1.
</event>
<event>
 8    1  0.1109553E+005  0.1043930E+01  0.7957747E-01            NaN
         13   -1    0    0    0    0  0.00000000000E+00  0.00000000000E+00  0.74505805969E-08  0.10566000000E+00  0.10566000000E+00 0.  1.
     999900   -1    0    0    0    0 -0.00000000000E+00 -0.00000000000E+00 -0.74505805969E-08  0.93827000000E+00  0.93827000000E+00 0.  1.
     999902    2    1    2    0    0  0.21850384639E-01  0.37760688309E-02  0.29841869343E-03  0.10217537276E+01  0.10215130409E+01 0.  0.
     999903    2    3    3    0    0 -0.80996280392E-01  0.50668123456E-01  0.86487206182E-01  0.13034764258E+00  0.19565656653E-01 0.  0.
         14    1    1    2    0    0 -0.21850384639E-01 -0.37760688309E-02 -0.29841869343E-03  0.22176272419E-01  0.00000000000E+00 0. -1.
     999901    1    3    3    0    0  0.10284666503E+00 -0.46892054625E-01 -0.86188787488E-01  0.89140608500E+00  0.88000000000E+00 0.  1.
        -11    1    4    4    0    0 -0.11288810640E-01  0.15843605819E-01  0.20120218650E-01  0.27991809704E-01  0.51100000000E-03 0. -1.
         11    1    4    4    0    0 -0.69707469752E-01  0.34824517637E-01  0.66366987532E-01  0.10235583287E+00  0.51100000000E-03 0.  1.
</event>
<event>
 8    1  0.1109553E+005  0.1043930E+01  0.7957747E-01            NaN
         13   -1    0    0    0    0  0.00000000000E+00  0.00000000000E+00  0.74505805969E-08  0.10566000000E+00  0.10566000000E+00 0. -1.
     999900   -1    0    0    0    0 -0.00000000000E+00 -0.00000000000E+00 -0.74505805969E-08  0.93827000000E+00  0.93827000000E+00 0.  1.
     999902    2    1    2    0    0 -0.11962612254E-01  0.17637045990E-01  0.84742594158E-02  0.10209956904E+01  0.10207380748E+01 0.  0.
     999903    2    3    3    0    0  0.22240344045E-01 -0.11351291447E+00 -0.50847278638E-01  0.12864531124E+00  0.24173450412E-01 0.  0.
         14    1    1    2    0    0  0.11962612254E-01 -0.17637045990E-01 -0.84742594158E-02  0.22934309578E-01  0.00000000000E+00 0.  1.
     999901    1    3    3    0    0 -0.34202956299E-01  0.13114996046E+00  0.59321538054E-01  0.89235037918E+00  0.88000000000E+00 0.  1.
        -11    1    4    4    0    0  0.11964063597E-02 -0.48549921536E-01 -0.11795120886E-01  0.49979118310E-01  0.51100000000E-03 0.  1.
         11    1    4    4    0    0  0.21043937685E-01 -0.64962992933E-01 -0.39052157752E-01  0.78666192931E-01  0.51100000000E-03 0. -1.
</event>
<event>
 8    1  0.1109553E+005  0.1043930E+01  0.7957747E-01            NaN
         13   -1    0    0    0    0  0.00000000000E+00  0.00000000000E+00  0.74505805969E-08  0.10566000000E+00  0.10566000000E+00 0.  1.
     999900   -1    0    0    0    0 -0.00000000000E+00 -0.00000000000E+00 -0.74505805969E-08  0.93827000000E+00  0.93827000000E+00 0.  1.
     999902    2    1    2    0    0 -0.73056501973E-02  0.21757995070E-01 -0.37478228349E-02  0.10206742684E+01  0.10204092969E+01 0.  0.
     999903    2    3    3    0    0 -0.34289498066E-01  0.12530224101E+00  0.26137337892E-01  0.13368911539E+00  0.17697397026E-01 0.  0.
         14    1    1    2    0    0  0.73056501973E-02 -0.21757995070E-01  0.37478228349E-02  0.23255731557E-01  0.00000000000E+00 0. -1.
     999901    1    3    3    0    0  0.26983847868E-01 -0.10354424594E+00 -0.29885160727E-01  0.88698515306E+00  0.88000000000E+00 0. -1.
        -11    1    4    4    0    0 -0.14368834124E-01  0.83750793706E-01  0.18715135243E-01  0.87012506278E-01  0.51100000000E-03 0. -1.
         11    1    4    4    0    0 -0.19920663941E-01  0.41551447300E-01  0.74222026482E-02  0.46676609107E-01  0.51100000000E-03 0.  1.
</event>
<event>
 8    1  0.1109553E+005  0.1043930E+01  0.7957747E-01            NaN
         13   -1    0    0    0    0  0.00000000000E+00  0.00000000000E+00  0.74505805969E-08  0.10566000000E+00  0.10566000000E+00 0.  1.
     999900   -1    0    0    0    0 -0.00000000000E+00 -0.00000000000E+00 -0.74505805969E-08  0.93827000000E+00  0.93827000000E+00 0. -1.
     999902    2    1    2    0    0  0.24704375090E-02 -0.16959260710E-01  0.18257429138E-01  0.10188889676E+01  0.10185812069E+01 0.  0.
     999903    2    3    3    0    0 -0.52826992947E-01  0.65688251579E-01  0.96746497681E-01  0.12981700707E+00  0.19670610876E-01 0.  0.
         14    1    1    2    0    0 -0.24704375090E-02  0.16959260710E-01 -0.18257429138E-01  0.25041032408E-01  0.00000000000E+00 0.  1.
     999901    1    3    3    0    0  0.55297430456E-01 -0.82647512289E-01 -0.78489068543E-01  0.88907196052E+00  0.88000000000E+00 0. -1.
        -11    1    4    4    0    0 -0.51373468251E-01  0.54148287737E-01  0.87011464918E-01  0.11464085857E+00  0.51100000000E-03 0. -1.
         11    1    4    4    0    0 -0.14535246954E-02  0.11539963842E-01  0.97350327630E-02  0.15176148504E-01  0.51100000000E-03 0.  1.
</event>
<event>
 8    1  0.1109553E+005  0.1043930E+01  0.7957747E-01            NaN
         13   -1    0    0    0    0  0.00000000000E+00  0.00000000000E+00  0.74505805969E-08  0.10566000000E+00  0.10566000000E+00 0.  1.
     999900   -1    0    0    0    0 -0.00000000000E+00 -0.00000000000E+00 -0.74505805969E-08  0.93827000000E+00  0.93827000000E+00 0. -1.
     999902    2    1    2    0    0  0.92122613078E-02 -0.36682156715E-02 -0.21941550282E-01  0.10198519354E+01  0.10195676618E+01 0.  0.
     999903    2    3    3    0    0  0.95343943858E-01  0.67724811144E-01 -0.57809731308E-01  0.13204443522E+00  0.20412010297E-01 0.  0.
         14    1    1    2    0    0 -0.92122613078E-02  0.36682156715E-02  0.21941550282E-01  0.24078064569E-01  0.00000000000E+00 0.  1.
     999901    1    3    3    0    0 -0.86131682551E-01 -0.71393026815E-01  0.35868181026E-01  0.88780750021E+00  0.88000000000E+00 0.  1.
        -11    1    4    4    0    0  0.86624485373E-01  0.52904551137E-01 -0.48792968416E-01  0.11262196893E+00  0.51100000000E-03 0. -1.
         11    1    4    4    0    0  0.87194584860E-02  0.14820260007E-01 -0.90167628920E-02  0.19422466296E-01  0.51100000000E-03 0.  1.
</event>
<event>
 7    1  0.1109553E+005  0.1043930E+01  0.7957747E-01            NaN
         13   -1    0    0    0    0  0.00000000000E+00  0.00000000000E+00  0.74505805969E-08  0.10566000000E+00  0.10566000000E+00 0. -1.
     999900   -1    0    0    0    0 -0.00000000000E+00 -0.00000000000E+00 -0.74505805969E-08  0.93827000000E+00  0.93827000000E+00 0. -1.
     999903    2    1    2    0    0 -0.10150807311E+00  0.25206749774E-01 -0.37000476480E-01  0.11286323295E+00  0.20731737765E-01 0.  0.
         14    1    1    2    0    0  0.37641480411E-01 -0.14840888829E-01  0.26984839699E-01  0.48634500125E-01  0.00000000000E+00 0.  1.
     999901    1    1    2    0    0  0.63866592699E-01 -0.10365860945E-01  0.10015636781E-01  0.88243226693E+00  0.88000000000E+00 0. -1.
        -11    1    3    3    0    0 -0.59399459027E-01  0.24314211271E-01 -0.18046135608E-01  0.66673838451E-01  0.51100000000E-03 0.  1.
         11    1    3    3    0    0 -0.42108614084E-01  0.89253850309E-03 -0.18954340872E-01  0.46189394496E-01  0.51100000000E-03 0. -1.
</event>
<event>
 8    1  0.1109553E+005  0.1043930E+01  0.7957747E-01            NaN
         13   -1    0    0    0    0  0.00000000000E+00  0.00000000000E+00  0.74505805969E-08  0.10566000000E+00  0.10566000000E+00 0.  1.
     999900   -1    0    0    0    0 -0.00000000000E+00 -0.00000000000E+00 -0.74505805969E-08  0.93827000000E+00  0.93827000000E+00 0.  1.
     999902    2    1    2    0    0 -0.17149171573E-01  0.45519757472E-02 -0.16085650577E-01  0.10199808304E+01  0.10196996282E+01 0.  0.
     999903    2    3    3    0    0 -0.30828120742E-01  0.51691415291E-01 -0.11680698995E+00  0.13287653632E+00  0.19746532899E-01 0.  0.
         14    1    1    2    0    0  0.17149171573E-01 -0.45519757472E-02  0.16085650577E-01  0.23949169575E-01  0.00000000000E+00 0.  1.
     999901    1    3    3    0    0  0.13678949169E-01 -0.47139439544E-01  0.10072133937E+00  0.88710429410E+00  0.88000000000E+00 0. -1.
        -11    1    4    4    0    0 -0.19844536868E-01  0.16728852873E-01 -0.38733921190E-01  0.46628724341E-01  0.51100000000E-03 0.  1.
         11    1    4    4    0    0 -0.10983583874E-01  0.34962562418E-01 -0.78073068757E-01  0.86247811982E-01  0.51100000000E-03 0. -1.
</event>
<event>
 8    1  0.1109553E+005  0.1043930E+01  0.7957747E-01            NaN
         13   -1    0    0    0    0  0.00000000000E+00  0.00000000000E+00  0.74505805969E-08  0.10566000000E+00  0.10566000000E+00 0. -1.
     999900   -1    0    0    0    0 -0.00000000000E+00 -0.00000000000E+00 -0.74505805969E-08  0.93827000000E+00  0.93827000000E+00 0.  1.
     999902    2    1    2    0    0  0.14696917548E-01 -0.13461478251E-01 -0.10687260955E-01  0.10213152188E+01  0.10210648108E+01 0.  0.
     999903    2    3    3    0    0 -0.23211282196E-01 -0.43337688887E-01 -0.12192938861E+00  0.13299971711E+00  0.20130326487E-01 0.  0.
         14    1    1    2    0    0 -0.14696917548E-01  0.13461478251E-01  0.10687260955E-01  0.22614781202E-01  0.00000000000E+00 0. -1.
     999901    1    3    3    0    0  0.37908199744E-01  0.29876210635E-01  0.11124212766E+00  0.88831550169E+00  0.88000000000E+00 0. -1.
        -11    1    4    4    0    0 -0.78383795419E-02 -0.20069366775E-01 -0.78335978705E-01  0.81246577511E-01  0.51100000000E-03 0. -1.
         11    1    4    4    0    0 -0.15372902655E-01 -0.23268322112E-01 -0.43593409910E-01  0.51753139600E-01  0.51100000000E-03 0.  1.
</event>
<event>
 8    1  0.1109553E+005  0.1043930E+01  0.7957747E-01            NaN
         13   -1    0    0    0    0  0.00000000000E+00  0.00000000000E+00  0.74505805969E-08  0.10566000000E+00  0.10566000000E+00 0. -1.
     999900   -1    0    0    0    0 -0.00000000000E+00 -0.00000000000E+00 -0.74505805969E-08  0.93827000000E+00  0.93827000000E+00 0.  1.
     999902    2    1    2    0    0 -0.78513826875E-02 -0.16047477512E-01  0.15010282628E-01  0.10205960263E+01  0.10203292481E+01 0.  0.
     999903    2    3    3    0    0  0.93766414970E-01  0.34851556469E-01  0.82100343678E-01  0.13075448716E+00  0.18694863380E-01 0.  0.
         14    1    1    2    0    0  0.78513826875E-02  0.16047477512E-01 -0.15010282628E-01  0.23333973711E-01  0.00000000000E+00 0.  1.
     999901    1    3    3    0    0 -0.10161779766E+00 -0.50899033981E-01 -0.67090061050E-01  0.88984153913E+00  0.88000000000E+00 0.  1.
        -11    1    4    4    0    0  0.73287737663E-01  0.27995767091E-01  0.73494828107E-01  0.10750165741E+00  0.51100000000E-03 0.  1.
         11    1    4    4    0    0  0.20478677307E-01  0.68557893784E-02  0.86055155708E-02  0.23252829752E-01  0.51100000000E-03 0. -1.
</event>
<event>
 8    1  0.1109553E+005  0.1043930E+01  0.7957747E-01            NaN
         13   -1    0    0    0    0  0.00000000000E+00  0.00000000000E+00  0.74505805969E-08  0.10566000000E+00  0.10566000000E+00 0. -1.
     999900   -1    0    0    0    0 -0.00000000000E+00 -0.00000000000E+00 -0.74505805969E-08  0.93827000000E+00  0.93827000000E+00 0.  1.
     999902    2    1    2    0    0  0.64946383307E-02  0.47901978682E-02  0.22662792833E-01  0.10198732234E+01  0.10195894582E+01 0.  0.
     999903    2    3    3    0    0  0.82910250444E-01 -0.40285802263E-01 -0.87229272682E-01  0.12861150108E+00  0.20854656669E-01 0.  0.
         14    1    1    2    0    0 -0.64946383307E-02 -0.47901978682E-02 -0.22662792833E-01  0.24056776626E-01  0.00000000000E+00 0.  1.
     999901    1    3    3    0    0 -0.76415612114E-01  0.45076000131E-01  0.10989206551E+00  0.89126172229E+00  0.88000000000E+00 0. -1.
        -11    1    4    4    0    0  0.16275589439E-01 -0.83197725195E-02 -0.30014373935E-01  0.35145941303E-01  0.51100000000E-03 0. -1.
         11    1    4    4    0    0  0.66634661005E-01 -0.31966029743E-01 -0.57214898747E-01  0.93465559777E-01  0.51100000000E-03 0.  1.
</event>
<event>
 8    1  0.1109553E+005  0.1043930E+01  0.7957747E-01            NaN
         13   -1    0    0    0    0  0.00000000000E+00  0.00000000000E+00  0.74505805969E-08  0.10566000000E+00  0.10566000000E+00 0. -1.
     999900   -1    0    0    0    0 -0.00000000000E+00 -0.00000000000E+00 -0.74505805969E-08  0.93827000000E+00  0.93827000000E+00 0. -1.
     999902    2    1    2    0    0 -0.12968777714E-01  0.55389080888E-02 -0.19434801653E-01  0.10199179153E+01  0.10196352160E+01 0.  0.
     999903    2    3    3    0    0 -0.52821430213E-01  0.94883301736E-01 -0.73840965512E-01  0.13282677831E+00  0.19937913911E-01 0.  0.
         14    1    1    2    0    0  0.12968777714E-01 -0.55389080888E-02  0.19434801653E-01  0.24012084739E-01  0.00000000000E+00 0. -1.
     999901    1    3    3    0    0  0.39852652499E-01 -0.89344393647E-01  0.54406163859E-01  0.88709113695E+00  0.88000000000E+00 0.  1.
        -11    1    4    4    0    0 -0.48353749140E-01  0.70774914219E-01 -0.60409756300E-01  0.10486550108E+00  0.51100000000E-03 0. -1.
         11    1    4    4    0    0 -0.44676810726E-02  0.24108387516E-01 -0.13431209212E-01  0.27961277236E-01  0.51100000000E-03 0.  1.
</event>
<event>
 8    1  0.1109553E+005  0.1043930E+01  0.7957747E-01            NaN
         13   -1    0    0    0    0  0.00000000000E+00  0.00000000000E+00  0.74505805969E-08  0.10566000000E+00  0.10566000000E+00 0.  1.
     999900   -1    0    0    0    0 -0.00000000000E+00 -0.00000000000E+00 -0.74505805969E-08  0.93827000000E+00  0.93827000000E+00 0.  1.
     999902    2    1    2    0    0 -0.19317981820E-01  0.11128234251E-01 -0.65359022518E-02  0.10206976941E+01  0.10204332622E+01 0.  0.
     999903    2    3    3    0    0 -0.13979559274E-01 -0.64070120876E-01  0.11023330091E+00  0.12978897926E+00  0.19834062653E-01 0.  0.
         14    1    1    2    0    0  0.19317981820E-01 -0.11128234251E-01  0.65359022518E-02  0.23232305899E-01  0.00000000000E+00 0. -1.
     999901    1    3    3    0    0 -0.53384225468E-02  0.75198355128E-01 -0.11676920316E+00  0.89090871484E+00  0.88000000000E+00 0.  1.
        -11    1    4    4    0    0  0.23967060295E-02 -0.32193966538E-01  0.45423686103E-01  0.55729418277E-01  0.51100000000E-03 0.  1.
         11    1    4    4    0    0 -0.16376265303E-01 -0.31876154338E-01  0.64809614808E-01  0.74059560985E-01  0.51100000000E-03 0. -1.
</event>
<event>
 8    1  0.1109553E+005  0.1043930E+01  0.7957747E-01            NaN
         13   -1    0    0    0    0  0.00000000000E+00  0.00000000000E+00  0.74505805969E-08  0.10566000000E+00  0.10566000000E+00 0. -1.
     999900   -1    0    0    0    0 -0.00000000000E+00 -0.00000000000E+00 -0.74505805969E-08  0.93827000000E+00  0.93827000000E+00 0. -1.
     999902    2    1    2    0    0 -0.84834692450E-02  0.11841270977E-01 -0.18010457381E-01  0.10207662023E+01  0.10205033455E+01 0.  0.
     999903    2    3    3    0    0  0.87380797826E-01 -0.16282943149E-01  0.90694624670E-01  0.12846707982E+00  0.19435472376E-01 0.  0.
         14    1    1    2    0    0  0.84834692450E-02 -0.11841270977E-01  0.18010457381E-01  0.23163797699E-01  0.00000000000E+00 0. -1.
     999901    1    3    3    0    0 -0.95864267071E-01  0.28124214126E-01 -0.10870508205E+00  0.89229912248E+00  0.88000000000E+00 0. -1.
        -11    1    4    4    0    0  0.82539130117E-02 -0.20890874782E-02  0.18687481683E-01  0.20542016920E-01  0.51100000000E-03 0.  1.
         11    1    4    4    0    0  0.79126884814E-01 -0.14193855671E-01  0.72007142987E-01  0.10792506290E+00  0.51100000000E-03 0. -1.
</event>
<event>
 8    1  0.1109553E+005  0.1043930E+01  0.7957747E-01            NaN
         13   -1    0    0    0    0  0.00000000000E+00  0.00000000000E+00  0.74505805969E-08  0.10566000000E+00  0.10566000000E+00 0. -1.
     999900   -1    0    0    0    0 -0.00000000000E+00 -0.00000000000E+00 -0.74505805969E-08  0.93827000000E+00  0.93827000000E+00 0.  1.
     999902    2    1    2    0    0  0.12344274479E-01 -0.14234465246E-01  0.14131511153E-01  0.10203779147E+01  0.10201060671E+01 0.  0.
     999903    2    3    3    0    0 -0.59845353111E-01 -0.43513048223E-01 -0.10390075203E+00  0.12908660830E+00  0.19827620053E-01 0.  0.
         14    1    1    2    0    0 -0.12344274479E-01  0.14234465246E-01 -0.14131511153E-01  0.23552085273E-01  0.00000000000E+00 0.  1.
     999901    1    3    3    0    0  0.72189627590E-01  0.29278582978E-01  0.11803226318E+00  0.89129130642E+00  0.88000000000E+00 0. -1.
        -11    1    4    4    0    0 -0.42674401548E-01 -0.34013577006E-01 -0.60644735962E-01  0.81584760153E-01  0.51100000000E-03 0. -1.
         11    1    4    4    0    0 -0.17170951563E-01 -0.94994712173E-02 -0.43256016066E-01  0.47501848152E-01  0.51100000000E-03 0.  1.
</event>
<event>
 8    1  0.1109553E+005  0.1043930E+01  0.7957747E-01            NaN
         13   -1    0    0    0    0  0.00000000000E+00  0.00000000000E+00  0.74505805969E-08  0.10566000000E+00  0.10566000000E+00 0. -1.
     999900   -1    0    0    0    0 -0.00000000000E+00 -0.00000000000E+00 -0.74505805969E-08  0.93827000000E+00  0.93827000000E+00 0. -1.
     999902    2    1    2    0    0  0.21431165154E-01  0.93660008492E-02  0.33575251434E-02  0.10203018433E+01  0.10200282162E+01 0.  0.
     999903    2    3    3    0    0 -0.11704044201E+00  0.31990094071E-01 -0.36296631324E-01  0.12830482109E+00  0.20563328676E-01 0.  0.
         14    1    1    2    0    0 -0.21431165154E-01 -0.93660008492E-02 -0.33575251434E-02  0.23628156654E-01  0.00000000000E+00 0. -1.
     999901    1    3    3    0    0  0.13847160716E+00 -0.22624093221E-01  0.39654156468E-01  0.89199702225E+00  0.88000000000E+00 0.  1.
        -11    1    4    4    0    0 -0.59735297608E-01  0.80637088106E-02 -0.11133168033E-01  0.61298757994E-01  0.51100000000E-03 0. -1.
         11    1    4    4    0    0 -0.57305144399E-01  0.23926385260E-01 -0.25163463291E-01  0.67006063099E-01  0.51100000000E-03 0.  1.
</event>
<event>
 8    1  0.1109553E+005  0.1043930E+01  0.7957747E-01            NaN
         13   -1    0    0    0    0  0.00000000000E+00  0.00000000000E+00  0.74505805969E-08  0.10566000000E+00  0.10566000000E+00 0. -1.
     999900   -1    0    0    0    0 -0.00000000000E+00 -0.00000000000E+00 -0.74505805969E-08  0.93827000000E+00  0.93827000000E+00 0.  1.
     999902    2    1    2    0    0 -0.44216055252E-02 -0.13582619615E-01 -0.19437527222E-01  0.10198083165E+01  0.10195229996E+01 0.  0.
     999903    2    3    3    0    0  0.10020764714E+00 -0.80782914123E-01 -0.14881226782E-01  0.13105417727E+00  0.19654381476E-01 0.  0.
         14    1    1    2    0    0  0.44216055252E-02  0.13582619615E-01  0.19437527222E-01  0.24121683513E-01  0.00000000000E+00 0. -1.
     999901    1    3    3    0    0 -0.10462925266E+00  0.67200294509E-01 -0.45563004402E-02  0.88875413921E+00  0.88000000000E+00 0.  1.
        -11    1    4    4    0    0  0.84263089322E-01 -0.57637244972E-01 -0.12130958649E-01  0.10280924817E+00  0.51100000000E-03 0. -1.
         11    1    4    4    0    0  0.15944557816E-01 -0.23145669151E-01 -0.27502681330E-02  0.28244929106E-01  0.51100000000E-03 0.  1.
</event>
<event>
 8    1  0.1109553E+005  0.1043930E+01  0.7957747E-01            NaN
         13   -1    0    0    0    0  0.00000000000E+00  0.00000000000E+00  0.74505805969E-08  0.10566000000E+00  0.10566000000E+00 0.  1.
     999900   -1    0    0    0    0 -0.00000000000E+00 -0.00000000000E+00 -0.74505805969E-08  0.93827000000E+00  0.93827000000E+00 0. -1.
     999902    2    1    2    0    0  0.46223266522E-02  0.14181787744E-01  0.17739684541E-01  0.10207527393E+01  0.10204895733E+01 0.  0.
     999903    2    3    3    0    0 -0.60793754998E-01 -0.11194493488E+00  0.82922893956E-02  0.12930646093E+00  0.20587609906E-01 0.  0.
         14    1    1    2    0    0 -0.46223266522E-02 -0.14181787744E-01 -0.17739684541E-01  0.23177260729E-01  0.00000000000E+00 0. -1.
     999901    1    3    3    0    0  0.65416081650E-01  0.12612672263E+00  0.94473951449E-02  0.89144627834E+00  0.88000000000E+00 0. -1.
        -11    1    4    4    0    0 -0.15706140906E-01 -0.46727533817E-01 -0.20838319588E-02  0.49343173341E-01  0.51100000000E-03 0. -1.
         11    1    4    4    0    0 -0.45087614092E-01 -0.65217401065E-01  0.10376121354E-01  0.79963287586E-01  0.51100000000E-03 0.  1.
</event>
<event>
 8    1  0.1109553E+005  0.1043930E+01  0.7957747E-01            NaN
         13   -1    0    0    0    0  0.00000000000E+00  0.00000000000E+00  0.74505805969E-08  0.10566000000E+00  0.10566000000E+00 0. -1.
     999900   -1    0    0    0    0 -0.00000000000E+00 -0.00000000000E+00 -0.74505805969E-08  0.93827000000E+00  0.93827000000E+00 0.  1.
     999902    2    1    2    0    0  0.23080121221E-01  0.60273998234E-02  0.22558345828E-02  0.10199694004E+01  0.10196879265E+01 0.  0.
     999903    2    3    3    0    0 -0.45162468144E-01 -0.45933858099E-01 -0.10934582650E+00  0.12878369915E+00  0.21889804611E-01 0.  0.
         14    1    1    2    0    0 -0.23080121221E-01 -0.60273998234E-02 -0.22558345828E-02  0.23960599614E-01  0.00000000000E+00 0.  1.
     999901    1    3    3    0    0  0.68242589365E-01  0.51961257922E-01  0.11160166108E+00  0.89118570123E+00  0.88000000000E+00 0. -1.
        -11    1    4    4    0    0 -0.32965100861E-01 -0.26437631199E-01 -0.86965773188E-01  0.96689984204E-01  0.51100000000E-03 0. -1.
         11    1    4    4    0    0 -0.12197367283E-01 -0.19496226900E-01 -0.22380053310E-01  0.32093714947E-01  0.51100000000E-03 0.  1.
</event>
<event>
 8    1  0.1109553E+005  0.1043930E+01  0.7957747E-01            NaN
         13   -1    0    0    0    0  0.00000000000E+00  0.00000000000E+00  0.74505805969E-08  0.10566000000E+00  0.10566000000E+00 0.  1.
     999900   -1    0    0    0    0 -0.00000000000E+00 -0.00000000000E+00 -0.74505805969E-08  0.93827000000E+00  0.93827000000E+00 0.  1.
     999902    2    1    2    0    0  0.98405178761E-02 -0.20761052380E-01 -0.38733434257E-02  0.10206306464E+01  0.10203646684E+01 0.  0.
     999903    2    3    3    0    0  0.12885737343E+00 -0.25886402975E-02  0.20248670634E-01  0.13210539634E+00  0.20758211271E-01 0.  0.
         14    1    1    2    0    0 -0.98405178761E-02  0.20761052380E-01  0.38733434257E-02  0.23299353581E-01  0.00000000000E+00 0. -1.
     999901    1    3    3    0    0 -0.11901685555E+00 -0.18172412082E-01 -0.24122014060E-01  0.88852525008E+00  0.88000000000E+00 0.  1.
        -11    1    4    4    0    0  0.41124187432E-01  0.87074386056E-02  0.81721235367E-02  0.42825961788E-01  0.51100000000E-03 0. -1.
         11    1    4    4    0    0  0.87733185993E-01 -0.11296078903E-01  0.12076547097E-01  0.89279434552E-01  0.51100000000E-03 0.  1.
</event>
<event>
 8    1  0.1109553E+005  0.1043930E+01  0.7957747E-01            NaN
         13   -1    0    0    0    0  0.00000000000E+00  0.00000000000E+00  0.74505805969E-08  0.10566000000E+00  0.10566000000E+00 0.  1.
     999900   -1    0    0    0    0 -0.00000000000E+00 -0.00000000000E+00 -0.74505805969E-08  0.93827000000E+00  0.93827000000E+00 0. -1.
     999902    2    1    2    0    0 -0.21664471135E-01  0.47866268960E-02  0.48369835071E-02  0.10212219064E+01  0.10209694043E+01 0.  0.
     999903    2    3    3    0    0  0.11875852834E+00 -0.23601040659E-01  0.38457894297E-01  0.12900285026E+00  0.22408225455E-01 0.  0.
         14    1    1    2    0    0  0.21664471135E-01 -0.47866268960E-02 -0.48369835071E-02  0.22708093624E-01  0.00000000000E+00 0. -1.
     999901    1    3    3    0    0 -0.14042299948E+00  0.28387667555E-01 -0.33620910790E-01  0.89221905611E+00  0.88000000000E+00 0. -1.
        -11    1    4    4    0    0  0.39239529416E-01 -0.72267246448E-04  0.19998016469E-01  0.44044610056E-01  0.51100000000E-03 0. -1.
         11    1    4    4    0    0  0.79518998925E-01 -0.23528773413E-01  0.18459877827E-01  0.84958240205E-01  0.51100000000E-03 0.  1.
</event>
<event>
 7    1  0.1109553E+005  0.1043930E+01  0.7957747E-01            NaN
         13   -1    0    0    0    0  0.00000000000E+00  0.00000000000E+00  0.74505805969E-08  0.10566000000E+00  0.10566000000E+00 0. -1.
     999900   -1    0    0    0    0 -0.00000000000E+00 -0.00000000000E+00 -0.74505805969E-08  0.93827000000E+00  0.93827000000E+00 0. -1.
     999903    2    1    2    0    0 -0.76265120911E-01  0.42757305853E-01 -0.43943317455E-01  0.99670955309E-01  0.18940124390E-01 0.  0.
         14    1    1    2    0    0  0.57708807412E-01  0.19067984378E-01 -0.44382993241E-03  0.60779038049E-01  0.00000000000E+00 0.  1.
     999901    1    1    2    0    0  0.18556313499E-01 -0.61825290231E-01  0.44387147387E-01  0.88348000664E+00  0.88000000000E+00 0. -1.
        -11    1    3    3    0    0 -0.54524561948E-02  0.61412514315E-02 -0.10193968593E-01  0.13100471914E-01  0.51100000000E-03 0. -1.
         11    1    3    3    0    0 -0.70812664716E-01  0.36616054421E-01 -0.33749348862E-01  0.86570483395E-01  0.51100000000E-03 0.  1.
</event>
<event>
 8    1  0.1109553E+005  0.1043930E+01  0.7957747E-01            NaN
         13   -1    0    0    0    0  0.00000000000E+00  0.00000000000E+00  0.74505805969E-08  0.10566000000E+00  0.10566000000E+00 0. -1.
     999900   -1    0    0    0    0 -0.00000000000E+00 -0.00000000000E+00 -0.74505805969E-08  0.93827000000E+00  0.93827000000E+00 0. -1.
     999902    2    1    2    0    0  0.32189745002E-02  0.18450146981E-01  0.14865820446E-01  0.10200184476E+01  0.10197381385E+01 0.  0.
     999903    2    3    3    0    0 -0.54832383926E-01  0.10845794225E+00  0.49572512598E-01  0.13284545551E+00  0.20512568825E-01 0.  0.
         14    1    1    2    0    0 -0.32189745002E-02 -0.18450146981E-01 -0.14865820446E-01  0.23911552397E-01  0.00000000000E+00 0. -1.
     999901    1    3    3    0    0  0.58051358426E-01 -0.90007795268E-01 -0.34706692152E-01  0.88717299210E+00  0.88000000000E+00 0.  1.
        -11    1    4    4    0    0 -0.20852218236E-01  0.28216749262E-01  0.66775816110E-02  0.35719058799E-01  0.51100000000E-03 0. -1.
         11    1    4    4    0    0 -0.33980165690E-01  0.80241192987E-01  0.42894930987E-01  0.97126396709E-01  0.51100000000E-03 0.  1.
</event>
<event>
 8    1  0.1109553E+005  0.1043930E+01  0.7957747E-01            NaN
         13   -1    0    0    0    0  0.00000000000E+00  0.00000000000E+00  0.74505805969E-08  0.10566000000E+00  0.10566000000E+00 0. -1.
     999900   -1    0    0    0    0 -0.00000000000E+00 -0.00000000000E+00 -0.74505805969E-08  0.93827000000E+00  0.93827000000E+00 0. -1.
     999902    2    1    2    0    0  0.22503193335E-01 -0.33401544488E-02  0.66733416128E-02  0.10202216928E+01  0.10199461842E+01 0.  0.
     999903    2    3    3    0    0  0.24210887543E-02  0.91108641628E-02  0.12947384932E+00  0.13138071519E+00  0.20212499791E-01 0.  0.
         14    1    1    2    0    0 -0.22503193335E-01  0.33401544488E-02 -0.66733416128E-02  0.23708307200E-01  0.00000000000E+00 0. -1.
     999901    1    3    3    0    0  0.20082104580E-01 -0.12451018612E-01 -0.12280050771E+00  0.88884097761E+00  0.88000000000E+00 0. -1.
        -11    1    4    4    0    0 -0.86997638786E-02  0.26591965342E-02  0.64998500488E-01  0.65634011034E-01  0.51100000000E-03 0.  1.
         11    1    4    4    0    0  0.11120852633E-01  0.64516676286E-02  0.64475348837E-01  0.65746704154E-01  0.51100000000E-03 0. -1.
</event>
<event>
 8    1  0.1109553E+005  0.1043930E+01  0.7957747E-01            NaN
         13   -1    0    0    0    0  0.00000000000E+00  0.00000000000E+00  0.74505805969E-08  0.10566000000E+00  0.10566000000E+00 0. -1.
     999900   -1    0    0    0    0 -0.00000000000E+00 -0.00000000000E+00 -0.74505805969E-08  0.93827000000E+00  0.93827000000E+00 0.  1.
     999902    2    1    2    0    0 -0.65623482553E-02 -0.23338529397E-01 -0.14486402047E-02  0.10196431738E+01  0.10193538894E+01 0.  0.
     999903    2    3    3    0    0  0.83634990848E-01  0.88040866934E-01  0.32933348308E-01  0.12738589528E+00  0.19913687294E-01 0.  0.
         14    1    1    2    0    0  0.65623482553E-02  0.23338529397E-01  0.14486402047E-02  0.24286826213E-01  0.00000000000E+00 0.  1.
     999901    1    3    3    0    0 -0.90197339104E-01 -0.11137939633E+00 -0.34381988513E-01  0.89225727850E+00  0.88000000000E+00 0. -1.
        -11    1    4    4    0    0  0.63794974099E-01  0.63645547077E-01  0.32910995774E-01  0.95937214609E-01  0.51100000000E-03 0.  1.
         11    1    4    4    0    0  0.19840016749E-01  0.24395319857E-01  0.22352534099E-04  0.31448680674E-01  0.51100000000E-03 0. -1.
</event>
<event>
 8    1  0.1109553E+005  0.1043930E+01  0.7957747E-01            NaN
         13   -1    0    0    0    0  0.00000000000E+00  0.00000000000E+00  0.74505805969E-08  0.10566000000E+00  0.10566000000E+00 0.  1.
     999900   -1    0    0    0    0 -0.00000000000E+00 -0.00000000000E+00 -0.74505805969E-08  0.93827000000E+00  0.93827000000E+00 0. -1.
     999902    2    1    2    0    0 -0.17254445217E-01  0.48411057496E-02 -0.14835944337E-01  0.10206650601E+01  0.10203998763E+01 0.  0.
     999903    2    3    3    0    0 -0.87573892042E-02 -0.12326494988E+00  0.34710804445E-01  0.12996969030E+00  0.20404428828E-01 0.  0.
         14    1    1    2    0    0  0.17254445217E-01 -0.48411057496E-02  0.14835944337E-01  0.23264939909E-01  0.00000000000E+00 0.  1.
     999901    1    3    3    0    0 -0.84970560124E-02  0.12810605563E+00 -0.49546748782E-01  0.89069536979E+00  0.88000000000E+00 0.  1.
        -11    1    4    4    0    0 -0.55926692618E-02 -0.38405715606E-01  0.16746963365E-02  0.38850259581E-01  0.51100000000E-03 0.  1.
         11    1    4    4    0    0 -0.31647199424E-02 -0.84859234279E-01  0.33036108108E-01  0.91119430719E-01  0.51100000000E-03 0. -1.
</event>
<event>
 8    1  0.1109553E+005  0.1043930E+01  0.7957747E-01            NaN
         13   -1    0    0    0    0  0.00000000000E+00  0.00000000000E+00  0.74505805969E-08  0.10566000000E+00  0.10566000000E+00 0. -1.
     999900   -1    0    0    0    0 -0.00000000000E+00 -0.00000000000E+00 -0.74505805969E-08  0.93827000000E+00  0.93827000000E+00 0. -1.
     999902    2    1    2    0    0 -0.13655155516E-01  0.76184668390E-03  0.18931360187E-01  0.10205753413E+01  0.10203080845E+01 0.  0.
     999903    2    3    3    0    0 -0.12340755765E+00  0.43844408930E-01  0.45508214330E-02  0.13259533209E+00  0.20225099160E-01 0.  0.
         14    1    1    2    0    0  0.13655155516E-01 -0.76184668390E-03 -0.18931360187E-01  0.23354658659E-01  0.00000000000E+00 0.  1.
     999901    1    3    3    0    0  0.10975240213E+00 -0.43082562246E-01  0.14380538754E-01  0.88798000926E+00  0.88000000000E+00 0. -1.
        -11    1    4    4    0    0 -0.28804508433E-01  0.12818564005E-01  0.94352984950E-02  0.32913542318E-01  0.51100000000E-03 0.  1.
         11    1    4    4    0    0 -0.94603049215E-01  0.31025844924E-01 -0.48844770620E-02  0.99681789768E-01  0.51100000000E-03 0. -1.
</event>
<event>
 8    1  0.1109553E+005  0.1043930E+01  0.7957747E-01            NaN
         13   -1    0    0    0    0  0.00000000000E+00  0.00000000000E+00  0.74505805969E-08  0.10566000000E+00  0.10566000000E+00 0.  1.
     999900   -1    0    0    0    0 -0.00000000000E+00 -0.00000000000E+00 -0.74505805969E-08  0.93827000000E+00  0.93827000000E+00 0. -1.
     999902    2    1    2    0    0 -0.24733848827E-01  0.11930300639E-01  0.43111786723E-02  0.10161328488E+01  0.10157525707E+01 0.  0.
     999903    2    3    3    0    0  0.70750315987E-01  0.90495612987E-01  0.48859111218E-01  0.12637206507E+00  0.19688141095E-01 0.  0.
         14    1    1    2    0    0  0.24733848827E-01 -0.11930300639E-01 -0.43111786723E-02  0.27797151161E-01  0.00000000000E+00 0.  1.
     999901    1    3    3    0    0 -0.95484164813E-01 -0.78565312347E-01 -0.44547932545E-01  0.88976078377E+00  0.88000000000E+00 0. -1.
        -11    1    4    4    0    0  0.24975982133E-01  0.47701627394E-01  0.24079373098E-01  0.58985780231E-01  0.51100000000E-03 0.  1.
         11    1    4    4    0    0  0.45774333853E-01  0.42793985592E-01  0.24779738119E-01  0.67386284842E-01  0.51100000000E-03 0. -1.
</event>
<event>
 8    1  0.1109553E+005  0.1043930E+01  0.7957747E-01            NaN
         13   -1    0    0    0    0  0.00000000000E+00  0.00000000000E+00  0.74505805969E-08  0.10566000000E+00  0.10566000000E+00 0.  1.
     999900   -1    0    0    0    0 -0.00000000000E+00 -0.00000000000E+00 -0.74505805969E-08  0.93827000000E+00  0.93827000000E+00 0.  1.
     999902    2    1    2    0    0 -0.60082076649E-02  0.23375385927E-01 -0.16144669234E-02  0.10197408758E+01  0.10194539421E+01 0.  0.
     999903    2    3    3    0    0  0.71991772754E-01  0.80655558476E-01 -0.72975932291E-01  0.13156438778E+00  0.17192061571E-01 0.  0.
         14    1    1    2    0    0  0.60082076649E-02 -0.23375385927E-01  0.16144669234E-02  0.24189124210E-01  0.00000000000E+00 0.  1.
     999901    1    3    3    0    0 -0.77999980419E-01 -0.57280172549E-01  0.71361465368E-01  0.88817648801E+00  0.88000000000E+00 0.  1.
        -11    1    4    4    0    0  0.67739034060E-01  0.74802444613E-01 -0.72568883568E-01  0.12429998567E+00  0.51100000000E-03 0. -1.
         11    1    4    4    0    0  0.42527386934E-02  0.58531138639E-02 -0.40704872309E-03  0.72644021063E-02  0.51100000000E-03 0.  1.
</event>
<event>
 8    1  0.1109553E+005  0.1043930E+01  0.7957747E-01            NaN
         13   -1    0    0    0    0  0.00000000000E+00  0.00000000000E+00  0.74505805969E-08  0.10566000000E+00  0.10566000000E+00 0.  1.
     999900   -1    0    0    0    0 -0.00000000000E+00 -0.00000000000E+00 -0.74505805969E-08  0.93827000000E+00  0.93827000000E+00 0. -1.
     999902    2    1    2    0    0  0.43926291571E-02 -0.22219569733E-01 -0.42445010528E-02  0.10208861232E+01  0.10206260119E+01 0.  0.
     999903    2    3    3    0    0  0.94634597292E-01 -0.88772217123E-01  0.23963850584E-01  0.13332284160E+00  0.19091894115E-01 0.  0.
         14    1    1    2    0    0 -0.43926291571E-02  0.22219569733E-01  0.42445010528E-02  0.23043876827E-01  0.00000000000E+00 0.  1.
     999901    1    3    3    0    0 -0.90241968135E-01  0.66552647390E-01 -0.28208351637E-01  0.88756328157E+00  0.88000000000E+00 0. -1.
        -11    1    4    4    0    0  0.68392105235E-01 -0.52083954079E-01  0.13598159103E-01  0.87036712846E-01  0.51100000000E-03 0. -1.
         11    1    4    4    0    0  0.26242492058E-01 -0.36688263044E-01  0.10365691481E-01  0.46286128758E-01  0.51100000000E-03 0.  1.
</event>
<event>
 8    1  0.1109553E+005  0.1043930E+01  0.7957747E-01            NaN
         13   -1    0    0    0    0  0.00000000000E+00  0.00000000000E+00  0.74505805969E-08  0.10566000000E+00  0.10566000000E+00 0.  1.
     999900   -1    0    0    0    0 -0.00000000000E+00 -0.00000000000E+00 -0.74505805969E-08  0.93827000000E+00  0.93827000000E+00 0.  1.
     999902    2    1    2    0    0  0.22832879323E-01  0.76196875091E-02 -0.39141360449E-02  0.10195431085E+01  0.10192514065E+01 0.  0.
     999903    2    3    3    0    0  0.59641277391E-01 -0.40155493235E-01 -0.10814283219E+00  0.13134214748E+00  0.19655583068E-01 0.  0.
         14    1    1    2    0    0 -0.22832879323E-01 -0.76196875091E-02  0.39141360449E-02  0.24386891497E-01  0.00000000000E+00 0. -1.
     999901    1    3    3    0    0 -0.36808398069E-01  0.47775180745E-01  0.10422869614E+00  0.88820096102E+00  0.88000000000E+00 0. -1.
        -11    1    4    4    0    0  0.12081089124E-01  0.24469081272E-03 -0.16040997852E-01  0.20089482848E-01  0.51100000000E-03 0.  1.
         11    1    4    4    0    0  0.47560188267E-01 -0.40400184048E-01 -0.92101834333E-01  0.11125266463E+00  0.51100000000E-03 0. -1.
</event>
<event>
 8    1  0.1109553E+005  0.1043930E+01  0.7957747E-01            NaN
         13   -1    0    0    0    0  0.00000000000E+00  0.00000000000E+00  0.74505805969E-08  0.10566000000E+00  0.10566000000E+00 0. -1.
     999900   -1    0    0    0    0 -0.00000000000E+00 -0.00000000000E+00 -0.74505805969E-08  0.93827000000E+00  0.93827000000E+00 0. -1.
     999902    2    1    2    0    0 -0.73487621685E-02 -0.21626895062E-02 -0.22508753694E-01  0.10201534249E+01  0.10198763086E+01 0.  0.
     999903    2    3    3    0    0  0.78049403047E-01  0.91801707967E-01 -0.46771570481E-01  0.13070930697E+00  0.19444285074E-01 0.  0.
         14    1    1    2    0    0  0.73487621685E-02  0.21626895062E-02  0.22508753694E-01  0.23776575114E-01  0.00000000000E+00 0. -1.
     999901    1    3    3    0    0 -0.85398165215E-01 -0.93964397473E-01  0.24262816787E-01  0.88944411791E+00  0.88000000000E+00 0. -1.
        -11    1    4    4    0    0  0.23301147452E-01  0.34407775466E-01 -0.76136465164E-02  0.42250055851E-01  0.51100000000E-03 0.  1.
         11    1    4    4    0    0  0.54748255595E-01  0.57393932500E-01 -0.39157923965E-01  0.88459251120E-01  0.51100000000E-03 0. -1.
</event>
<event>
 8    1  0.1109553E+005  0.1043930E+01  0.7957747E-01            NaN
         13   -1    0    0    0    0  0.00000000000E+00  0.00000000000E+00  0.74505805969E-08  0.10566000000E+00  0.10566000000E+00 0. -1.
     999900   -1    0    0    0    0 -0.00000000000E+00 -0.00000000000E+00 -0.74505805969E-08  0.93827000000E+00  0.93827000000E+00 0. -1.
     999902    2    1    2    0    0 -0.20996426383E-01  0.14293605655E-01 -0.14963946081E-01  0.10144498920E+01  0.10140214528E+01 0.  0.
     999903    2    3    3    0    0 -0.37390101839E-02  0.67466828974E-01  0.10187000834E+00  0.12496949146E+00  0.25963859272E-01 0.  0.
         14    1    1    2    0    0  0.20996426383E-01 -0.14293605655E-01  0.14963946081E-01  0.29480107968E-01  0.00000000000E+00 0. -1.
     999901    1    3    3    0    0 -0.17257416199E-01 -0.53173223319E-01 -0.11683395442E+00  0.88948040057E+00  0.88000000000E+00 0. -1.
        -11    1    4    4    0    0  0.29498800796E-02  0.20644095919E-01  0.53000024580E-01  0.56957389470E-01  0.51100000000E-03 0. -1.
         11    1    4    4    0    0 -0.66888902635E-02  0.46822733055E-01  0.48869983759E-01  0.68012101992E-01  0.51100000000E-03 0.  1.
</event>
<event>
 8    1  0.1109553E+005  0.1043930E+01  0.7957747E-01            NaN
         13   -1    0    0    0    0  0.00000000000E+00  0.00000000000E+00  0.74505805969E-08  0.10566000000E+00  0.10566000000E+00 0. -1.
     999900   -1    0    0    0    0 -0.00000000000E+00 -0.00000000000E+00 -0.74505805969E-08  0.93827000000E+00  0.93827000000E+00 0.  1.
     999902    2    1    2    0    0 -0.85552974323E-02  0.21075772549E-01  0.45713352943E-02  0.10207291722E+01  0.10204654647E+01 0.  0.
     999903    2    3    3    0    0  0.12064500370E+00  0.19040418964E-01 -0.40672967452E-01  0.13014290050E+00  0.19108369817E-01 0.  0.
         14    1    1    2    0    0  0.85552974323E-02 -0.21075772549E-01 -0.45713352943E-02  0.23200827767E-01  0.00000000000E+00 0.  1.
     999901    1    3    3    0    0 -0.12920030113E+00  0.20353535854E-02  0.45244302747E-01  0.89058627174E+00  0.88000000000E+00 0. -1.
        -11    1    4    4    0    0  0.57651007660E-01  0.15490877518E-01 -0.27305426902E-01  0.65646427396E-01  0.51100000000E-03 0. -1.
         11    1    4    4    0    0  0.62993996035E-01  0.35495414459E-02 -0.13367540550E-01  0.64496473100E-01  0.51100000000E-03 0.  1.
</event>
<event>
 8    1  0.1109553E+005  0.1043930E+01  0.7957747E-01            NaN
         13   -1    0    0    0    0  0.00000000000E+00  0.00000000000E+00  0.74505805969E-08  0.10566000000E+00  0.10566000000E+00 0.  1.
     999900   -1    0    0    0    0 -0.00000000000E+00 -0.00000000000E+00 -0.74505805969E-08  0.93827000000E+00  0.93827000000E+00 0. -1.
     999902    2    1    2    0    0 -0.23657832797E-02  0.27051941561E-02  0.23423057544E-01  0.10202328561E+01  0.10199576099E+01 0.  0.
     999903    2    3    3    0    0 -0.35938922524E-01  0.72518948439E-01  0.10396425555E+00  0.13316577825E+00  0.19337891075E-01 0.  0.
         14    1    1    2    0    0  0.23657832797E-02 -0.27051941561E-02 -0.23423057544E-01  0.23697143935E-01  0.00000000000E+00 0. -1.
     999901    1    3    3    0    0  0.33573139244E-01 -0.69813754283E-01 -0.80541198002E-01  0.88706707781E+00  0.88000000000E+00 0. -1.
        -11    1    4    4    0    0 -0.19066273453E-01  0.21014991684E-01  0.43777168765E-01  0.52171393358E-01  0.51100000000E-03 0. -1.
         11    1    4    4    0    0 -0.16872649071E-01  0.51503956754E-01  0.60187086781E-01  0.80994384893E-01  0.51100000000E-03 0.  1.
</event>
<event>
 8    1  0.1109553E+005  0.1043930E+01  0.7957747E-01            NaN
         13   -1    0    0    0    0  0.00000000000E+00  0.00000000000E+00  0.74505805969E-08  0.10566000000E+00  0.10566000000E+00 0.  1.
     999900   -1    0    0    0    0 -0.00000000000E+00 -0.00000000000E+00 -0.74505805969E-08  0.93827000000E+00  0.93827000000E+00 0. -1.
     999902    2    1    2    0    0  0.81547303217E-02  0.17742784924E-01  0.19169340814E-01  0.10165663440E+01  0.10161979935E+01 0.  0.
     999903    2    3    3    0    0 -0.99960871355E-01 -0.40752562063E-01  0.63062536198E-01  0.12693872439E+00  0.21991115484E-01 0.  0.
         14    1    1    2    0    0 -0.81547303217E-02 -0.17742784924E-01 -0.19169340814E-01  0.27363656019E-01  0.00000000000E+00 0. -1.
     999901    1    3    3    0    0  0.10811560168E+00  0.58495346987E-01 -0.43893195384E-01  0.88962761959E+00  0.88000000000E+00 0. -1.
        -11    1    4    4    0    0 -0.60229347906E-01 -0.12814275359E-01  0.36214149444E-01  0.71438825180E-01  0.51100000000E-03 0.  1.
         11    1    4    4    0    0 -0.39731523449E-01 -0.27938286705E-01  0.26848386754E-01  0.55499899206E-01  0.51100000000E-03 0. -1.
</event>
<event>
 8    1  0.1109553E+005  0.1043930E+01  0.7957747E-01            NaN
         13   -1    0    0    0    0  0.00000000000E+00  0.00000000000E+00  0.74505805969E-08  0.10566000000E+00  0.10566000000E+00 0. -1.
     999900   -1    0    0    0    0 -0.00000000000E+00 -0.00000000000E+00 -0.74505805969E-08  0.93827000000E+00  0.93827000000E+00 0. -1.
     999902    2    1    2    0    0  0.26406555790E-02  0.51024001849E-02  0.22448120114E-01  0.10207583439E+01  0.10204953067E+01 0.  0.
     999903    2    3    3    0    0  0.87889514979E-02 -0.64500586800E-01 -0.10853139199E+00  0.12832458730E+00  0.21226523329E-01 0.  0.
         14    1    1    2    0    0 -0.26406555790E-02 -0.51024001849E-02 -0.22448120114E-01  0.23171656095E-01  0.00000000000E+00 0.  1.
     999901    1    3    3    0    0 -0.61482959189E-02  0.69602986985E-01  0.13097951210E+00  0.89243375661E+00  0.88000000000E+00 0.  1.
        -11    1    4    4    0    0  0.15265512171E-01 -0.45092874222E-01 -0.69342000221E-01  0.84112884168E-01  0.51100000000E-03 0.  1.
         11    1    4    4    0    0 -0.64765606731E-02 -0.19407712578E-01 -0.39189391767E-01  0.44211703131E-01  0.51100000000E-03 0. -1.
</event>
<event>
 8    1  0.1109553E+005  0.1043930E+01  0.7957747E-01            NaN
         13   -1    0    0    0    0  0.00000000000E+00  0.00000000000E+00  0.74505805969E-08  0.10566000000E+00  0.10566000000E+00 0.  1.
     999900   -1    0    0    0    0 -0.00000000000E+00 -0.00000000000E+00 -0.74505805969E-08  0.93827000000E+00  0.93827000000E+00 0.  1.
     999902    2    1    2    0    0  0.29183753486E-02  0.14294723704E-02 -0.23622058770E-01  0.10200854625E+01  0.10198067410E+01 0.  0.
     999903    2    3    3    0    0 -0.25019664415E-01  0.97293038238E-01 -0.83791776497E-01  0.13239703057E+00  0.20395906418E-01 0.  0.
         14    1    1    2    0    0 -0.29183753486E-02 -0.14294723704E-02  0.23622058770E-01  0.23844537456E-01  0.00000000000E+00 0.  1.
     999901    1    3    3    0    0  0.27938039763E-01 -0.95863565867E-01  0.60169717727E-01  0.88768843197E+00  0.88000000000E+00 0. -1.
        -11    1    4    4    0    0 -0.21851848432E-01  0.89438776051E-01 -0.67963454974E-01  0.11443815043E+00  0.51100000000E-03 0. -1.
         11    1    4    4    0    0 -0.31678159830E-02  0.78542621866E-02 -0.15828321523E-01  0.17958880139E-01  0.51100000000E-03 0.  1.
</event>
<event>
 8    1  0.1277620E+005  0.1043930E+01  0.7957747E-01            NaN
         13   -1    0    0    0    0  0.00000000000E+00  0.00000000000E+00  0.74505805969E-08  0.10566000000E+00  0.10566000000E+00 0.  1.
     999900   -1    0    0    0    0 -0.00000000000E+00 -0.00000000000E+00 -0.74505805969E-08  0.93827000000E+00  0.93827000000E+00 0. -1.
     999902    2    1    2    0    0 -0.20276375141E-01  0.13788501031E-01  0.12962507857E-01  0.10161940890E+01  0.10158155077E+01 0.  0.
     999903    2    3    3    0    0  0.12700968470E-01  0.23737845795E-03 -0.12264206011E+00  0.12509379331E+00  0.21118978852E-01 0.  0.
         14    1    1    2    0    0  0.20276375141E-01 -0.13788501031E-01 -0.12962507857E-01  0.27735911008E-01  0.00000000000E+00 0. -1.
     999901    1    3    3    0    0 -0.32977343611E-01  0.13551122573E-01  0.13560456797E+00  0.89110029568E+00  0.88000000000E+00 0.  1.
        -11    1    4    4    0    0  0.18412636496E-01 -0.29997509716E-03 -0.81878886064E-01  0.83925730690E-01  0.51100000000E-03 0. -1.
         11    1    4    4    0    0 -0.57116680256E-02  0.53735355510E-03 -0.40763174045E-01  0.41168062618E-01  0.51100000000E-03 0.  1.
</event>
<event>
 8    1  0.1109553E+005  0.1043930E+01  0.7957747E-01            NaN
         13   -1    0    0    0    0  0.00000000000E+00  0.00000000000E+00  0.74505805969E-08  0.10566000000E+00  0.10566000000E+00 0. -1.
     999900   -1    0    0    0    0 -0.00000000000E+00 -0.00000000000E+00 -0.74505805969E-08  0.93827000000E+00  0.93827000000E+00 0.  1.
     999902    2    1    2    0    0  0.32276265496E-01 -0.32199077663E-02 -0.85178193022E-02  0.10103937753E+01  0.10098370675E+01 0.  0.
     999903    2    3    3    0    0 -0.18626106603E-01 -0.11367390627E+00 -0.33610436641E-01  0.12167516028E+00  0.20161705389E-01 0.  0.
         14    1    1    2    0    0 -0.32276265496E-01  0.32199077663E-02  0.85178193022E-02  0.33536224684E-01  0.00000000000E+00 0.  1.
     999901    1    3    3    0    0  0.50902372099E-01  0.11045399850E+00  0.25092617339E-01  0.88871861504E+00  0.88000000000E+00 0.  1.
        -11    1    4    4    0    0 -0.80169098233E-02 -0.60130015375E-01 -0.27955973715E-01  0.66795861994E-01  0.51100000000E-03 0.  1.
         11    1    4    4    0    0 -0.10609196780E-01 -0.53543890892E-01 -0.56544629259E-02  0.54879298284E-01  0.51100000000E-03 0. -1.
</event>
<event>
 8    1  0.1109553E+005  0.1043930E+01  0.7957747E-01            NaN
         13   -1    0    0    0    0  0.00000000000E+00  0.00000000000E+00  0.74505805969E-08  0.10566000000E+00  0.10566000000E+00 0. -1.
     999900   -1    0    0    0    0 -0.00000000000E+00 -0.00000000000E+00 -0.74505805969E-08  0.93827000000E+00  0.93827000000E+00 0. -1.
     999902    2    1    2    0    0  0.81823610378E-02 -0.21216444967E-01  0.42127623394E-02  0.10208034798E+01  0.10205414781E+01 0.  0.
     999903    2    3    3    0    0  0.30122560932E-02  0.89880263694E-01 -0.90179224113E-01  0.12879504053E+00  0.19192042994E-01 0.  0.
         14    1    1    2    0    0 -0.81823610378E-02  0.21216444967E-01 -0.42127623394E-02  0.23126520181E-01  0.00000000000E+00 0. -1.
     999901    1    3    3    0    0  0.51701049446E-02 -0.11109670866E+00  0.94391986452E-01  0.89200843929E+00  0.88000000000E+00 0.  1.
        -11    1    4    4    0    0  0.52329419753E-02  0.36799110274E-01 -0.25435028610E-01  0.45041758403E-01  0.51100000000E-03 0.  1.
         11    1    4    4    0    0 -0.22206858821E-02  0.53081153421E-01 -0.64744195503E-01  0.83753282124E-01  0.51100000000E-03 0. -1.
</event>
<event>
 8    1  0.1109553E+005  0.1043930E+01  0.7957747E-01            NaN
         13   -1    0    0    0    0  0.00000000000E+00  0.00000000000E+00  0.74505805969E-08  0.10566000000E+00  0.10566000000E+00 0.  1.
     999900   -1    0    0    0    0 -0.00000000000E+00 -0.00000000000E+00 -0.74505805969E-08  0.93827000000E+00  0.93827000000E+00 0.  1.
     999902    2    1    2    0    0  0.12291474299E-02 -0.25194490656E-01  0.14031908182E-02  0.10186665460E+01  0.10183532245E+01 0.  0.
     999903    2    3    3    0    0  0.28028533273E-01 -0.10682151539E+00  0.69123720465E-01  0.13189304146E+00  0.20524395870E-01 0.  0.
         14    1    1    2    0    0 -0.12291474299E-02  0.25194490656E-01 -0.14031908182E-02  0.25263453986E-01  0.00000000000E+00 0.  1.
     999901    1    3    3    0    0 -0.26799385843E-01  0.81627024736E-01 -0.67720529647E-01  0.88677350456E+00  0.88000000000E+00 0.  1.
        -11    1    4    4    0    0  0.16846895985E-01 -0.91328356869E-01  0.61077695794E-01  0.11115499412E+00  0.51100000000E-03 0.  1.
         11    1    4    4    0    0  0.11181637288E-01 -0.15493158523E-01  0.80460246712E-02  0.20738047340E-01  0.51100000000E-03 0. -1.
</event>
<event>
 8    1  0.1109553E+005  0.1043930E+01  0.7957747E-01            NaN
         13   -1    0    0    0    0  0.00000000000E+00  0.00000000000E+00  0.74505805969E-08  0.10566000000E+00  0.10566000000E+00 0. -1.
     999900   -1    0    0    0    0 -0.00000000000E+00 -0.00000000000E+00 -0.74505805969E-08  0.93827000000E+00  0.93827000000E+00 0.  1.
     999902    2    1    2    0    0 -0.28410938614E-02  0.33019336818E-02 -0.18304196264E-01  0.10251146291E+01  0.10249419421E+01 0.  0.
     999903    2    3    3    0    0  0.82107063112E-01 -0.90468494333E-01 -0.55646710796E-01  0.13528119194E+00  0.16683110911E-01 0.  0.
         14    1    1    2    0    0  0.28410938614E-02 -0.33019336818E-02  0.18304196264E-01  0.18815370877E-01  0.00000000000E+00 0. -1.
     999901    1    3    3    0    0 -0.84948156973E-01  0.93770428014E-01  0.37342514532E-01  0.88983343719E+00  0.88000000000E+00 0. -1.
        -11    1    4    4    0    0  0.45623702949E-01 -0.61738947821E-01 -0.37264019926E-01  0.85335152492E-01  0.51100000000E-03 0. -1.
         11    1    4    4    0    0  0.36483360163E-01 -0.28729546511E-01 -0.18382690870E-01  0.49946039444E-01  0.51100000000E-03 0.  1.
</event>
<event>
 7    1  0.1109553E+005  0.1043930E+01  0.7957747E-01            NaN
         13   -1    0    0    0    0  0.00000000000E+00  0.00000000000E+00  0.74505805969E-08  0.10566000000E+00  0.10566000000E+00 0. -1.
     999900   -1    0    0    0    0 -0.00000000000E+00 -0.00000000000E+00 -0.74505805969E-08  0.93827000000E+00  0.93827000000E+00 0.  1.
     999903    2    1    2    0    0 -0.60495973470E-01  0.72838848749E-02  0.31527805264E-01  0.73249421702E-01  0.25664323291E-01 0.  0.
         14    1    1    2    0    0  0.86814880511E-01  0.21003559038E-01 -0.24761128242E-02  0.89353814161E-01  0.00000000000E+00 0. -1.
     999901    1    1    2    0    0 -0.26318907041E-01 -0.28287443913E-01 -0.29051692440E-01  0.88132676414E+00  0.88000000000E+00 0. -1.
        -11    1    3    3    0    0 -0.20186546180E-01  0.12868061370E-01  0.19300390885E-01  0.30754672156E-01  0.51100000000E-03 0. -1.
         11    1    3    3    0    0 -0.40309427290E-01 -0.55841764956E-02  0.12227414379E-01  0.42494749546E-01  0.51100000000E-03 0.  1.
</event>
<event>
 8    1  0.1109553E+005  0.1043930E+01  0.7957747E-01            NaN
         13   -1    0    0    0    0  0.00000000000E+00  0.00000000000E+00  0.74505805969E-08  0.10566000000E+00  0.10566000000E+00 0.  1.
     999900   -1    0    0    0    0 -0.00000000000E+00 -0.00000000000E+00 -0.74505805969E-08  0.93827000000E+00  0.93827000000E+00 0.  1.
     999902    2    1    2    0    0  0.19237517340E-01 -0.13047785070E-01  0.22640906963E-02  0.10205750674E+01  0.10203078042E+01 0.  0.
     999903    2    3    3    0    0  0.64073787456E-01  0.11064568082E+00  0.17951081906E-01  0.13065571922E+00  0.20018958544E-01 0.  0.
         14    1    1    2    0    0 -0.19237517340E-01  0.13047785070E-01 -0.22640906963E-02  0.23354932570E-01  0.00000000000E+00 0.  1.
     999901    1    3    3    0    0 -0.44836270116E-01 -0.12369346589E+00 -0.15686991210E-01  0.88991934821E+00  0.88000000000E+00 0.  1.
        -11    1    4    4    0    0  0.29627344519E-01  0.61723809672E-01  0.10345114774E-02  0.68475831931E-01  0.51100000000E-03 0.  1.
         11    1    4    4    0    0  0.34446442937E-01  0.48921871147E-01  0.16916570429E-01  0.62179887292E-01  0.51100000000E-03 0. -1.
</event>
<event>
 7    1  0.1109553E+005  0.1043930E+01  0.7957747E-01            NaN
         13   -1    0    0    0    0  0.00000000000E+00  0.00000000000E+00  0.74505805969E-08  0.10566000000E+00  0.10566000000E+00 0. -1.
     999900   -1    0    0    0    0 -0.00000000000E+00 -0.00000000000E+00 -0.74505805969E-08  0.93827000000E+00  0.93827000000E+00 0.  1.
     999903    2    1    2    0    0  0.26350478727E-01 -0.51986227903E-01 -0.99461253673E-01  0.11696050913E+00  0.19756115308E-01 0.  0.
         14    1    1    2    0    0  0.79722806708E-02 -0.31803724599E-01  0.20809468558E-01  0.38833853004E-01  0.00000000000E+00 0.  1.
     999901    1    1    2    0    0 -0.34322759397E-01  0.83789952502E-01  0.78651785115E-01  0.88813563787E+00  0.88000000000E+00 0. -1.
        -11    1    3    3    0    0  0.16789422740E-01 -0.16694380654E-01 -0.51185905731E-01  0.56398981620E-01  0.51100000000E-03 0.  1.
         11    1    3    3    0    0  0.95610559869E-02 -0.35291847249E-01 -0.48275347942E-01  0.60561527506E-01  0.51100000000E-03 0. -1.
</event>
<event>
 8    1  0.1109553E+005  0.1043930E+01  0.7957747E-01            NaN
         13   -1    0    0    0    0  0.00000000000E+00  0.00000000000E+00  0.74505805969E-08  0.10566000000E+00  0.10566000000E+00 0. -1.
     999900   -1    0    0    0    0 -0.00000000000E+00 -0.00000000000E+00 -0.74505805969E-08  0.93827000000E+00  0.93827000000E+00 0. -1.
     999902    2    1    2    0    0 -0.58881467743E-02 -0.24214053774E-01  0.82883956605E-02  0.10176680851E+01  0.10173291715E+01 0.  0.
     999903    2    3    3    0    0 -0.27278342549E-01 -0.89561393710E-01 -0.87478166271E-01  0.12980601826E+00  0.20780317304E-01 0.  0.
         14    1    1    2    0    0  0.58881467743E-02  0.24214053774E-01 -0.82883956605E-02  0.26261914919E-01  0.00000000000E+00 0.  1.
     999901    1    3    3    0    0  0.21390195775E-01  0.65347339936E-01  0.95766561932E-01  0.88786206682E+00  0.88000000000E+00 0.  1.
        -11    1    4    4    0    0 -0.15316042379E-01 -0.54726793631E-01 -0.66271282950E-01  0.87302618290E-01  0.51100000000E-03 0. -1.
         11    1    4    4    0    0 -0.11962300170E-01 -0.34834600079E-01 -0.21206883321E-01  0.42503399972E-01  0.51100000000E-03 0.  1.
</event>
<event>
 8    1  0.1109553E+005  0.1043930E+01  0.7957747E-01            NaN
         13   -1    0    0    0    0  0.00000000000E+00  0.00000000000E+00  0.74505805969E-08  0.10566000000E+00  0.10566000000E+00 0. -1.
     999900   -1    0    0    0    0 -0.00000000000E+00 -0.00000000000E+00 -0.74505805969E-08  0.93827000000E+00  0.93827000000E+00 0.  1.
     999902    2    1    2    0    0 -0.15605294233E-01  0.81749498774E-02 -0.13830503098E-01  0.10215327272E+01  0.10212871657E+01 0.  0.
     999903    2    3    3    0    0 -0.34131907314E-01 -0.76685449195E-01  0.97679331368E-01  0.13025332884E+00  0.19468761737E-01 0.  0.
         14    1    1    2    0    0  0.15605294233E-01 -0.81749498774E-02  0.13830503098E-01  0.22397272815E-01  0.00000000000E+00 0. -1.
     999901    1    3    3    0    0  0.18526613081E-01  0.84860399072E-01 -0.11150983447E+00  0.89127939834E+00  0.88000000000E+00 0.  1.
        -11    1    4    4    0    0 -0.10455078883E-01 -0.38851408269E-01  0.35150639736E-01  0.53428168542E-01  0.51100000000E-03 0. -1.
         11    1    4    4    0    0 -0.23676828431E-01 -0.37834040926E-01  0.62528691632E-01  0.76825160303E-01  0.51100000000E-03 0.  1.
</event>
<event>
 8    1  0.1109553E+005  0.1043930E+01  0.7957747E-01            NaN
         13   -1    0    0    0    0  0.00000000000E+00  0.00000000000E+00  0.74505805969E-08  0.10566000000E+00  0.10566000000E+00 0. -1.
     999900   -1    0    0    0    0 -0.00000000000E+00 -0.00000000000E+00 -0.74505805969E-08  0.93827000000E+00  0.93827000000E+00 0.  1.
     999902    2    1    2    0    0 -0.22388839788E-02  0.21067551272E-01  0.84415862069E-02  0.10211239768E+01  0.10208692675E+01 0.  0.
     999903    2    3    3    0    0  0.79412330453E-01  0.28334184891E-01  0.10031954576E+00  0.13255136621E+00  0.19917559085E-01 0.  0.
         14    1    1    2    0    0  0.22388839788E-02 -0.21067551272E-01 -0.84415862069E-02  0.22806023235E-01  0.00000000000E+00 0.  1.
     999901    1    3    3    0    0 -0.81651214432E-01 -0.72666336185E-02 -0.91877959555E-01  0.88857261056E+00  0.88000000000E+00 0.  1.
        -11    1    4    4    0    0  0.62653650749E-01  0.28847938594E-01  0.72538351118E-01  0.10009873634E+00  0.51100000000E-03 0. -1.
         11    1    4    4    0    0  0.16758679704E-01 -0.51375370299E-03  0.27781194645E-01  0.32452629866E-01  0.51100000000E-03 0.  1.
</event>
<event>
 8    1  0.1109553E+005  0.1043930E+01  0.7957747E-01            NaN
         13   -1    0    0    0    0  0.00000000000E+00  0.00000000000E+00  0.74505805969E-08  0.10566000000E+00  0.10566000000E+00 0. -1.
     999900   -1    0    0    0    0 -0.00000000000E+00 -0.00000000000E+00 -0.74505805969E-08  0.93827000000E+00  0.93827000000E+00 0.  1.
     999902    2    1    2    0    0  0.10712843628E-01 -0.57957145533E-02  0.20498576940E-01  0.10200857768E+01  0.10198070626E+01 0.  0.
     999903    2    3    3    0    0 -0.97529278773E-01 -0.69349952175E-01  0.48480600038E-01  0.13073854884E+00  0.20513982725E-01 0.  0.
         14    1    1    2    0    0 -0.10712843628E-01  0.57957145533E-02 -0.20498576940E-01  0.23844223249E-01  0.00000000000E+00 0.  1.
     999901    1    3    3    0    0  0.10824212240E+00  0.63554237622E-01 -0.27982023097E-01  0.88934722791E+00  0.88000000000E+00 0.  1.
        -11    1    4    4    0    0 -0.68919660175E-01 -0.53240309315E-01  0.25805492609E-01  0.90833004269E-01  0.51100000000E-03 0.  1.
         11    1    4    4    0    0 -0.28609618598E-01 -0.16109642859E-01  0.22675107428E-01  0.39905544568E-01  0.51100000000E-03 0. -1.
</event>
<event>
 8    1  0.1109553E+005  0.1043930E+01  0.7957747E-01            NaN
         13   -1    0    0    0    0  0.00000000000E+00  0.00000000000E+00  0.74505805969E-08  0.10566000000E+00  0.10566000000E+00 0.  1.
     999900   -1    0    0    0    0 -0.00000000000E+00 -0.00000000000E+00 -0.74505805969E-08  0.93827000000E+00  0.93827000000E+00 0.  1.
     999902    2    1    2    0    0 -0.10185069115E-01 -0.14898942582E-01 -0.15009202734E-01  0.10204568176E+01  0.10201868096E+01 0.  0.
     999903    2    3    3    0    0 -0.13371322194E-01 -0.43536606514E-01 -0.12355992359E+00  0.13331898901E+00  0.20800715107E-01 0.  0.
         14    1    1    2    0    0  0.10185069115E-01  0.14898942582E-01  0.15009202734E-01  0.23473182351E-01  0.00000000000E+00 0. -1.
     999901    1    3    3    0    0  0.31862530788E-02  0.28637663932E-01  0.10855072086E+00  0.88713782864E+00  0.88000000000E+00 0. -1.
        -11    1    4    4    0    0 -0.46841502100E-02 -0.31137267123E-01 -0.57649242615E-01  0.65689930447E-01  0.51100000000E-03 0. -1.
         11    1    4    4    0    0 -0.86871719839E-02 -0.12399339391E-01 -0.65910680976E-01  0.67629058563E-01  0.51100000000E-03 0.  1.
</event>
<event>
 7    1  0.1109553E+005  0.1043930E+01  0.7957747E-01            NaN
         13   -1    0    0    0    0  0.00000000000E+00  0.00000000000E+00  0.74505805969E-08  0.10566000000E+00  0.10566000000E+00 0. -1.
     999900   -1    0    0    0    0 -0.00000000000E+00 -0.00000000000E+00 -0.74505805969E-08  0.93827000000E+00  0.93827000000E+00 0. -1.
     999903    2    1    2    0    0  0.34449941742E-01 -0.11140300120E+00 -0.41764362044E-04  0.11754360915E+00  0.14801052162E-01 0.  0.
         14    1    1    2    0    0 -0.24322995396E-01  0.30982823004E-01  0.16005208513E-01  0.42517174481E-01  0.00000000000E+00 0.  1.
     999901    1    1    2    0    0 -0.10126946346E-01  0.80420178193E-01 -0.15963444151E-01  0.88386921637E+00  0.88000000000E+00 0.  1.
        -11    1    3    3    0    0  0.38525141153E-02 -0.15481676040E-01 -0.50296106986E-02  0.16735658421E-01  0.51100000000E-03 0.  1.
         11    1    3    3    0    0  0.30597427627E-01 -0.95921325157E-01  0.49878463366E-02  0.10080795072E+00  0.51100000000E-03 0. -1.
</event>
<event>
 8    1  0.1253562E+005  0.1043930E+01  0.7957747E-01            NaN
         13   -1    0    0    0    0  0.00000000000E+00  0.00000000000E+00  0.74505805969E-08  0.10566000000E+00  0.10566000000E+00 0.  1.
     999900   -1    0    0    0    0 -0.00000000000E+00 -0.00000000000E+00 -0.74505805969E-08  0.93827000000E+00  0.93827000000E+00 0.  1.
     999902    2    1    2    0    0 -0.23324710764E-01  0.33671687207E-02  0.29052835839E-02  0.10201850925E+01  0.10199087226E+01 0.  0.
     999903    2    3    3    0    0  0.12989551872E-01  0.28225576844E-01 -0.12431685354E+00  0.12994796778E+00  0.21595893407E-01 0.  0.
         14    1    1    2    0    0  0.23324710764E-01 -0.33671687207E-02 -0.29052835839E-02  0.23744907457E-01  0.00000000000E+00 0.  1.
     999901    1    3    3    0    0 -0.36314262636E-01 -0.24858408123E-01  0.12722213712E+00  0.89023712476E+00  0.88000000000E+00 0. -1.
        -11    1    4    4    0    0  0.96950916824E-03  0.60325366369E-02 -0.67469593126E-01  0.67747609285E-01  0.51100000000E-03 0. -1.
         11    1    4    4    0    0  0.12020042703E-01  0.22193040207E-01 -0.56847260411E-01  0.62200358499E-01  0.51100000000E-03 0.  1.
</event>
<event>
 8    1  0.1109553E+005  0.1043930E+01  0.7957747E-01            NaN
         13   -1    0    0    0    0  0.00000000000E+00  0.00000000000E+00  0.74505805969E-08  0.10566000000E+00  0.10566000000E+00 0.  1.
     999900   -1    0    0    0    0 -0.00000000000E+00 -0.00000000000E+00 -0.74505805969E-08  0.93827000000E+00  0.93827000000E+00 0.  1.
     999902    2    1    2    0    0 -0.10110906577E-01 -0.16918813399E-01 -0.12164758171E-01  0.10207684366E+01  0.10205056311E+01 0.  0.
     999903    2    3    3    0    0  0.87193201146E-01 -0.73143536443E-01  0.60665425332E-01  0.13063724148E+00  0.20812587094E-01 0.  0.
         14    1    1    2    0    0  0.10110906577E-01  0.16918813399E-01  0.12164758171E-01  0.23161563419E-01  0.00000000000E+00 0. -1.
     999901    1    3    3    0    0 -0.97304107723E-01  0.56224723044E-01 -0.72830183503E-01  0.89013119510E+00  0.88000000000E+00 0. -1.
        -11    1    4    4    0    0  0.63122516599E-01 -0.46669559112E-01  0.31950397857E-01  0.84756055204E-01  0.51100000000E-03 0. -1.
         11    1    4    4    0    0  0.24070684547E-01 -0.26473977331E-01  0.28715027476E-01  0.45881186277E-01  0.51100000000E-03 0.  1.
</event>
<event>
 8    1  0.1109553E+005  0.1043930E+01  0.7957747E-01            NaN
         13   -1    0    0    0    0  0.00000000000E+00  0.00000000000E+00  0.74505805969E-08  0.10566000000E+00  0.10566000000E+00 0.  1.
     999900   -1    0    0    0    0 -0.00000000000E+00 -0.00000000000E+00 -0.74505805969E-08  0.93827000000E+00  0.93827000000E+00 0. -1.
     999902    2    1    2    0    0  0.13355585989E-01 -0.16145252212E-01  0.14585147154E-01  0.10184002651E+01  0.10180802191E+01 0.  0.
     999903    2    3    3    0    0  0.40246265633E-01 -0.59140880407E-01 -0.10526707525E+00  0.12882942031E+00  0.19961382072E-01 0.  0.
         14    1    1    2    0    0 -0.13355585989E-01  0.16145252212E-01 -0.14585147154E-01  0.25529734891E-01  0.00000000000E+00 0. -1.
     999901    1    3    3    0    0 -0.26890679644E-01  0.42995628195E-01  0.11985222240E+00  0.88957084480E+00  0.88000000000E+00 0.  1.
        -11    1    4    4    0    0  0.13419117723E-01 -0.27841719602E-01 -0.30359744285E-01  0.43326773073E-01  0.51100000000E-03 0. -1.
         11    1    4    4    0    0  0.26827147911E-01 -0.31299160805E-01 -0.74907330964E-01  0.85502647241E-01  0.51100000000E-03 0.  1.
</event>
<event>
 8    1  0.1109553E+005  0.1043930E+01  0.7957747E-01            NaN
         13   -1    0    0    0    0  0.00000000000E+00  0.00000000000E+00  0.74505805969E-08  0.10566000000E+00  0.10566000000E+00 0.  1.
     999900   -1    0    0    0    0 -0.00000000000E+00 -0.00000000000E+00 -0.74505805969E-08  0.93827000000E+00  0.93827000000E+00 0. -1.
     999902    2    1    2    0    0 -0.15874866936E-01 -0.16916331051E-01 -0.65068829922E-02  0.10198361588E+01  0.10195515081E+01 0.  0.
     999903    2    3    3    0    0 -0.39996422499E-01 -0.85823554224E-01 -0.91056804604E-01  0.13277429847E+00  0.19294465445E-01 0.  0.
         14    1    1    2    0    0  0.15874866936E-01  0.16916331051E-01  0.65068829922E-02  0.24093841179E-01  0.00000000000E+00 0.  1.
     999901    1    3    3    0    0  0.24121555563E-01  0.68907223173E-01  0.84549921612E-01  0.88706186035E+00  0.88000000000E+00 0. -1.
        -11    1    4    4    0    0 -0.24065323214E-01 -0.29904573816E-01 -0.33321901547E-01  0.50833390209E-01  0.51100000000E-03 0. -1.
         11    1    4    4    0    0 -0.15931099285E-01 -0.55918980408E-01 -0.57734903058E-01  0.81940908259E-01  0.51100000000E-03 0.  1.
</event>
<event>
 8    1  0.1109553E+005  0.1043930E+01  0.7957747E-01            NaN
         13   -1    0    0    0    0  0.00000000000E+00  0.00000000000E+00  0.74505805969E-08  0.10566000000E+00  0.10566000000E+00 0. -1.
     999900   -1    0    0    0    0 -0.00000000000E+00 -0.00000000000E+00 -0.74505805969E-08  0.93827000000E+00  0.93827000000E+00 0. -1.
     999902    2    1    2    0    0  0.14216927813E-02 -0.17170194499E-01 -0.17744965265E-01  0.10191970143E+01  0.10188968708E+01 0.  0.
     999903    2    3    3    0    0  0.44821947256E-01  0.88356388222E-01 -0.81555117061E-01  0.12953911532E+00  0.17699914765E-01 0.  0.
         14    1    1    2    0    0 -0.14216927813E-02  0.17170194499E-01  0.17744965265E-01  0.24732985702E-01  0.00000000000E+00 0.  1.
     999901    1    3    3    0    0 -0.43400254475E-01 -0.10552658272E+00  0.63810151796E-01  0.88965789898E+00  0.88000000000E+00 0. -1.
        -11    1    4    4    0    0  0.27762579663E-01  0.39486211136E-01 -0.32272117255E-01  0.58066103473E-01  0.51100000000E-03 0. -1.
         11    1    4    4    0    0  0.17059367593E-01  0.48870177086E-01 -0.49282999806E-01  0.71473011843E-01  0.51100000000E-03 0.  1.
</event>
<event>
 8    1  0.1109553E+005  0.1043930E+01  0.7957747E-01            NaN
         13   -1    0    0    0    0  0.00000000000E+00  0.00000000000E+00  0.74505805969E-08  0.10566000000E+00  0.10566000000E+00 0.  1.
     999900   -1    0    0    0    0 -0.00000000000E+00 -0.00000000000E+00 -0.74505805969E-08  0.93827000000E+00  0.93827000000E+00 0. -1.
     999902    2    1    2    0    0  0.19036470974E-01 -0.66867722765E-02  0.10728824053E-01  0.10210781332E+01  0.10208223872E+01 0.  0.
     999903    2    3    3    0    0  0.15859626124E-01 -0.36680072930E-01  0.12548697440E+00  0.13311466351E+00  0.19379819581E-01 0.  0.
         14    1    1    2    0    0 -0.19036470974E-01  0.66867722765E-02 -0.10728824053E-01  0.22851866799E-01  0.00000000000E+00 0. -1.
     999901    1    3    3    0    0  0.31768448503E-02  0.29993300653E-01 -0.11475815035E+00  0.88796346969E+00  0.88000000000E+00 0. -1.
        -11    1    4    4    0    0  0.96817077300E-02 -0.30095398733E-01  0.68887047920E-01  0.75796800602E-01  0.51100000000E-03 0.  1.
         11    1    4    4    0    0  0.61779183935E-02 -0.65846741968E-02  0.56599926483E-01  0.57317862912E-01  0.51100000000E-03 0. -1.
</event>
<event>
 8    1  0.1109553E+005  0.1043930E+01  0.7957747E-01            NaN
         13   -1    0    0    0    0  0.00000000000E+00  0.00000000000E+00  0.74505805969E-08  0.10566000000E+00  0.10566000000E+00 0. -1.
     999900   -1    0    0    0    0 -0.00000000000E+00 -0.00000000000E+00 -0.74505805969E-08  0.93827000000E+00  0.93827000000E+00 0. -1.
     999902    2    1    2    0    0  0.61285315430E-02  0.23354182587E-01 -0.61640255618E-03  0.10197772218E+01  0.10194911600E+01 0.  0.
     999903    2    3    3    0    0 -0.10893763856E+00 -0.24271409848E-01  0.61314890718E-01  0.12885415797E+00  0.19681660810E-01 0.  0.
         14    1    1    2    0    0 -0.61285315430E-02 -0.23354182587E-01  0.61640255618E-03  0.24152778211E-01  0.00000000000E+00 0. -1.
     999901    1    3    3    0    0  0.11506617010E+00  0.47625592435E-01 -0.61931293274E-01  0.89092306382E+00  0.88000000000E+00 0.  1.
        -11    1    4    4    0    0 -0.17607257833E-01 -0.83783094634E-02  0.17952460096E-01  0.26509687708E-01  0.51100000000E-03 0.  1.
         11    1    4    4    0    0 -0.91330380724E-01 -0.15893100385E-01  0.43362430622E-01  0.10234447026E+00  0.51100000000E-03 0. -1.
</event>
<event>
 8    1  0.1109553E+005  0.1043930E+01  0.7957747E-01            NaN
         13   -1    0    0    0    0  0.00000000000E+00  0.00000000000E+00  0.74505805969E-08  0.10566000000E+00  0.10566000000E+00 0.  1.
     999900   -1    0    0    0    0 -0.00000000000E+00 -0.00000000000E+00 -0.74505805969E-08  0.93827000000E+00  0.93827000000E+00 0.  1.
     999902    2    1    2    0    0 -0.18694131695E-02  0.89329853026E-02 -0.21792335493E-01  0.10203037684E+01  0.10200301863E+01 0.  0.
     999903    2    3    3    0    0  0.51375935382E-01 -0.10817604482E+00  0.41837934024E-01  0.12867693882E+00  0.21582364370E-01 0.  0.
         14    1    1    2    0    0  0.18694131695E-02 -0.89329853026E-02  0.21792335493E-01  0.23626231572E-01  0.00000000000E+00 0.  1.
     999901    1    3    3    0    0 -0.53245348551E-01  0.11710903012E+00 -0.63630269517E-01  0.89162682961E+00  0.88000000000E+00 0. -1.
        -11    1    4    4    0    0  0.28363222208E-01 -0.79863429828E-01  0.24142639006E-01  0.88123594667E-01  0.51100000000E-03 0.  1.
         11    1    4    4    0    0  0.23012713173E-01 -0.28312614991E-01  0.17695295018E-01  0.40553344153E-01  0.51100000000E-03 0. -1.
</event>
<event>
 8    1  0.1109553E+005  0.1043930E+01  0.7957747E-01            NaN
         13   -1    0    0    0    0  0.00000000000E+00  0.00000000000E+00  0.74505805969E-08  0.10566000000E+00  0.10566000000E+00 0.  1.
     999900   -1    0    0    0    0 -0.00000000000E+00 -0.00000000000E+00 -0.74505805969E-08  0.93827000000E+00  0.93827000000E+00 0. -1.
     999902    2    1    2    0    0  0.55320794425E-02  0.21051239178E-01 -0.12675880047E-01  0.10187419769E+01  0.10184305469E+01 0.  0.
     999903    2    3    3    0    0 -0.29204135217E-01 -0.95622814357E-01 -0.77225766215E-01  0.12801972658E+00  0.20703315820E-01 0.  0.
         14    1    1    2    0    0 -0.55320794425E-02 -0.21051239178E-01  0.12675880047E-01  0.25188023123E-01  0.00000000000E+00 0.  1.
     999901    1    3    3    0    0  0.34736214660E-01  0.11667405353E+00  0.64549886168E-01  0.89072225030E+00  0.88000000000E+00 0.  1.
        -11    1    4    4    0    0 -0.63855284344E-02 -0.30385307072E-01 -0.36002910511E-01  0.47544847728E-01  0.51100000000E-03 0.  1.
         11    1    4    4    0    0 -0.22818606783E-01 -0.65237507285E-01 -0.41222855704E-01  0.80474878848E-01  0.51100000000E-03 0. -1.
</event>
<event>
 8    1  0.1109553E+005  0.1043930E+01  0.7957747E-01            NaN
         13   -1    0    0    0    0  0.00000000000E+00  0.00000000000E+00  0.74505805969E-08  0.10566000000E+00  0.10566000000E+00 0.  1.
     999900   -1    0    0    0    0 -0.00000000000E+00 -0.00000000000E+00 -0.74505805969E-08  0.93827000000E+00  0.93827000000E+00 0. -1.
     999902    2    1    2    0    0  0.16880012986E-01 -0.95629450449E-02  0.13385959278E-01  0.10203594959E+01  0.10200872180E+01 0.  0.
     999903    2    3    3    0    0 -0.12459369402E+00  0.11300333855E-01  0.22852779503E-01  0.12876558228E+00  0.20175220280E-01 0.  0.
         14    1    1    2    0    0 -0.16880012986E-01  0.95629450449E-02 -0.13385959278E-01  0.23570504070E-01  0.00000000000E+00 0. -1.
     999901    1    3    3    0    0  0.14147370700E+00 -0.20863278899E-01 -0.94668202250E-02  0.89159391365E+00  0.88000000000E+00 0. -1.
        -11    1    4    4    0    0 -0.71915120738E-01  0.23776374848E-02  0.38623447999E-02  0.72059812511E-01  0.51100000000E-03 0.  1.
         11    1    4    4    0    0 -0.52678573280E-01  0.89226963698E-02  0.18990434703E-01  0.56705769765E-01  0.51100000000E-03 0. -1.
</event>
<event>
 8    1  0.1109553E+005  0.1043930E+01  0.7957747E-01            NaN
         13   -1    0    0    0    0  0.00000000000E+00  0.00000000000E+00  0.74505805969E-08  0.10566000000E+00  0.10566000000E+00 0. -1.
     999900   -1    0    0    0    0 -0.00000000000E+00 -0.00000000000E+00 -0.74505805969E-08  0.93827000000E+00  0.93827000000E+00 0.  1.
     999902    2    1    2    0    0  0.88359883172E-02  0.18332661420E-01  0.14257876759E-01  0.10190814947E+01  0.10187785062E+01 0.  0.
     999903    2    3    3    0    0 -0.94328202688E-01  0.80561684386E-01 -0.32242191341E-01  0.12965608587E+00  0.19574138202E-01 0.  0.
         14    1    1    2    0    0 -0.88359883172E-02 -0.18332661420E-01 -0.14257876759E-01  0.24848505266E-01  0.00000000000E+00 0.  1.
     999901    1    3    3    0    0  0.10316419101E+00 -0.62229022967E-01  0.46500068100E-01  0.88942540887E+00  0.88000000000E+00 0. -1.
        -11    1    4    4    0    0 -0.24050068176E-01  0.21684850151E-01  0.24459000209E-03  0.32387643487E-01  0.51100000000E-03 0.  1.
         11    1    4    4    0    0 -0.70278134512E-01  0.58876834235E-01 -0.32486781343E-01  0.97268442381E-01  0.51100000000E-03 0. -1.
</event>
<event>
 8    1  0.1109553E+005  0.1043930E+01  0.7957747E-01            NaN
         13   -1    0    0    0    0  0.00000000000E+00  0.00000000000E+00  0.74505805969E-08  0.10566000000E+00  0.10566000000E+00 0. -1.
     999900   -1    0    0    0    0 -0.00000000000E+00 -0.00000000000E+00 -0.74505805969E-08  0.93827000000E+00  0.93827000000E+00 0.  1.
     999902    2    1    2    0    0  0.15316704290E-01  0.10522576100E-01  0.15302479768E-01  0.10198573615E+01  0.10195732175E+01 0.  0.
     999903    2    3    3    0    0 -0.36799666424E-01  0.12418217162E+00  0.25519675504E-02  0.13092699564E+00  0.18972043992E-01 0.  0.
         14    1    1    2    0    0 -0.15316704290E-01 -0.10522576100E-01 -0.15302479768E-01  0.24072638517E-01  0.00000000000E+00 0.  1.
     999901    1    3    3    0    0  0.52116370714E-01 -0.11365959552E+00  0.12750512218E-01  0.88893036584E+00  0.88000000000E+00 0.  1.
        -11    1    4    4    0    0 -0.73571524698E-02  0.37529220311E-01 -0.70976732967E-02  0.38899976309E-01  0.51100000000E-03 0. -1.
         11    1    4    4    0    0 -0.29442513954E-01  0.86652951307E-01  0.96496408471E-02  0.92027019335E-01  0.51100000000E-03 0.  1.
</event>
<event>
 8    1  0.1109553E+005  0.1043930E+01  0.7957747E-01            NaN
         13   -1    0    0    0    0  0.00000000000E+00  0.00000000000E+00  0.74505805969E-08  0.10566000000E+00  0.10566000000E+00 0.  1.
     999900   -1    0    0    0    0 -0.00000000000E+00 -0.00000000000E+00 -0.74505805969E-08  0.93827000000E+00  0.93827000000E+00 0. -1.
     999902    2    1    2    0    0  0.12116946143E-01 -0.94072908164E-02  0.18261132577E-01  0.10200807554E+01  0.10198019225E+01 0.  0.
     999903    2    3    3    0    0 -0.11334613893E+00  0.49140502651E-01  0.32142033258E-01  0.12914781224E+00  0.19593644199E-01 0.  0.
         14    1    1    2    0    0 -0.12116946143E-01  0.94072908164E-02 -0.18261132577E-01  0.23849244586E-01  0.00000000000E+00 0. -1.
     999901    1    3    3    0    0  0.12546308507E+00 -0.58547793467E-01 -0.13880900681E-01  0.89093294318E+00  0.88000000000E+00 0. -1.
        -11    1    4    4    0    0 -0.31789361842E-01  0.23683611323E-01  0.10211617077E-01  0.40939164817E-01  0.51100000000E-03 0.  1.
         11    1    4    4    0    0 -0.81556777085E-01  0.25456891328E-01  0.21930416181E-01  0.88208647419E-01  0.51100000000E-03 0. -1.
</event>
<event>
 8    1  0.1109553E+005  0.1043930E+01  0.7957747E-01            NaN
         13   -1    0    0    0    0  0.00000000000E+00  0.00000000000E+00  0.74505805969E-08  0.10566000000E+00  0.10566000000E+00 0.  1.
     999900   -1    0    0    0    0 -0.00000000000E+00 -0.00000000000E+00 -0.74505805969E-08  0.93827000000E+00  0.93827000000E+00 0.  1.
     999902    2    1    2    0    0  0.82920871140E-02 -0.20173608558E-01  0.67805527111E-02  0.10210890480E+01  0.10208335491E+01 0.  0.
     999903    2    3    3    0    0  0.37271801764E-01 -0.12188151560E+00 -0.35511049082E-01  0.13374869520E+00  0.19580291331E-01 0.  0.
         14    1    1    2    0    0 -0.82920871140E-02  0.20173608558E-01 -0.67805527111E-02  0.22840951951E-01  0.00000000000E+00 0. -1.
     999901    1    3    3    0    0 -0.28979714650E-01  0.10170790704E+00  0.42291601793E-01  0.88734035285E+00  0.88000000000E+00 0.  1.
        -11    1    4    4    0    0  0.17017758807E-01 -0.82095620526E-01 -0.17766332714E-01  0.85704134810E-01  0.51100000000E-03 0. -1.
         11    1    4    4    0    0  0.20254042957E-01 -0.39785895073E-01 -0.17744716367E-01  0.48044560388E-01  0.51100000000E-03 0.  1.
</event>
<event>
 8    1  0.1109553E+005  0.1043930E+01  0.7957747E-01            NaN
         13   -1    0    0    0    0  0.00000000000E+00  0.00000000000E+00  0.74505805969E-08  0.10566000000E+00  0.10566000000E+00 0. -1.
     999900   -1    0    0    0    0 -0.00000000000E+00 -0.00000000000E+00 -0.74505805969E-08  0.93827000000E+00  0.93827000000E+00 0. -1.
     999902    2    1    2    0    0  0.16133393883E-01 -0.16459737671E-01 -0.56391375411E-02  0.10202021844E+01  0.10199262168E+01 0.  0.
     999903    2    3    3    0    0 -0.74603662874E-01  0.26555152255E-01 -0.10044185551E+00  0.12943226483E+00  0.19830840002E-01 0.  0.
         14    1    1    2    0    0 -0.16133393883E-01  0.16459737671E-01  0.56391375411E-02  0.23727815631E-01  0.00000000000E+00 0. -1.
     999901    1    3    3    0    0  0.90737056757E-01 -0.43014889927E-01  0.94802717967E-01  0.89076991954E+00  0.88000000000E+00 0.  1.
        -11    1    4    4    0    0 -0.45342500933E-01  0.26178894412E-01 -0.63643984020E-01  0.82414165811E-01  0.51100000000E-03 0.  1.
         11    1    4    4    0    0 -0.29261161941E-01  0.37625784344E-03 -0.36797871488E-01  0.47018099017E-01  0.51100000000E-03 0. -1.
</event>
<event>
 8    1  0.1109553E+005  0.1043930E+01  0.7957747E-01            NaN
         13   -1    0    0    0    0  0.00000000000E+00  0.00000000000E+00  0.74505805969E-08  0.10566000000E+00  0.10566000000E+00 0.  1.
     999900   -1    0    0    0    0 -0.00000000000E+00 -0.00000000000E+00 -0.74505805969E-08  0.93827000000E+00  0.93827000000E+00 0. -1.
     999902    2    1    2    0    0  0.28280081402E-02  0.31992195183E-02  0.23653645597E-01  0.10198940356E+01  0.10196107670E+01 0.  0.
     999903    2    3    3    0    0 -0.22438687245E-01 -0.55933663575E-01 -0.11042640212E+00  0.12741851045E+00  0.20234058265E-01 0.  0.
         14    1    1    2    0    0 -0.28280081402E-02 -0.31992195183E-02 -0.23653645597E-01  0.24035964419E-01  0.00000000000E+00 0. -1.
     999901    1    3    3    0    0  0.25266695385E-01  0.59132883093E-01  0.13408004772E+00  0.89247552513E+00  0.88000000000E+00 0.  1.
        -11    1    4    4    0    0  0.30014077649E-02 -0.12208472505E-01 -0.16689439976E-01  0.20901047275E-01  0.51100000000E-03 0.  1.
         11    1    4    4    0    0 -0.25440095010E-01 -0.43725191069E-01 -0.93736962146E-01  0.10651746318E+00  0.51100000000E-03 0. -1.
</event>
<event>
 8    1  0.1109553E+005  0.1043930E+01  0.7957747E-01            NaN
         13   -1    0    0    0    0  0.00000000000E+00  0.00000000000E+00  0.74505805969E-08  0.10566000000E+00  0.10566000000E+00 0. -1.
     999900   -1    0    0    0    0 -0.00000000000E+00 -0.00000000000E+00 -0.74505805969E-08  0.93827000000E+00  0.93827000000E+00 0.  1.
     999902    2    1    2    0    0 -0.16477011579E-01  0.13893225026E-01  0.11474735026E-01  0.10195131379E+01  0.10192207097E+01 0.  0.
     999903    2    3    3    0    0 -0.77530127877E-01  0.26209374617E-01 -0.99302820716E-01  0.13038387989E+00  0.21001282960E-01 0.  0.
         14    1    1    2    0    0  0.16477011579E-01 -0.13893225026E-01 -0.11474735026E-01  0.24416862127E-01  0.00000000000E+00 0.  1.
     999901    1    3    3    0    0  0.61053116298E-01 -0.12316149591E-01  0.11077755574E+00  0.88912925799E+00  0.88000000000E+00 0. -1.
        -11    1    4    4    0    0 -0.65118167335E-01  0.13278073280E-01 -0.75532822634E-01  0.10060890300E+00  0.51100000000E-03 0. -1.
         11    1    4    4    0    0 -0.12411960542E-01  0.12931301337E-01 -0.23769998081E-01  0.29774976886E-01  0.51100000000E-03 0.  1.
</event>
<event>
 7    1  0.1109553E+005  0.1043930E+01  0.7957747E-01            NaN
         13   -1    0    0    0    0  0.00000000000E+00  0.00000000000E+00  0.74505805969E-08  0.10566000000E+00  0.10566000000E+00 0. -1.
     999900   -1    0    0    0    0 -0.00000000000E+00 -0.00000000000E+00 -0.74505805969E-08  0.93827000000E+00  0.93827000000E+00 0.  1.
     999903    2    1    2    0    0  0.41944865014E-01 -0.50119506827E-01  0.88500525867E-01  0.11211048577E+00  0.21565743110E-01 0.  0.
         14    1    1    2    0    0 -0.35359353118E-02 -0.13631943353E-01  0.37200292574E-01  0.39776808390E-01  0.00000000000E+00 0. -1.
     999901    1    1    2    0    0 -0.38408929703E-01  0.63751450180E-01 -0.12570081844E+00  0.89204270584E+00  0.88000000000E+00 0.  1.
        -11    1    3    3    0    0  0.33142950800E-01 -0.38375141006E-01  0.81143731443E-01  0.95685280521E-01  0.51100000000E-03 0. -1.
         11    1    3    3    0    0  0.88019142140E-02 -0.11744365820E-01  0.73567944243E-02  0.16425205252E-01  0.51100000000E-03 0.  1.
</event>
<event>
 8    1  0.1109553E+005  0.1043930E+01  0.7957747E-01            NaN
         13   -1    0    0    0    0  0.00000000000E+00  0.00000000000E+00  0.74505805969E-08  0.10566000000E+00  0.10566000000E+00 0. -1.
     999900   -1    0    0    0    0 -0.00000000000E+00 -0.00000000000E+00 -0.74505805969E-08  0.93827000000E+00  0.93827000000E+00 0.  1.
     999902    2    1    2    0    0  0.49437253117E-02  0.13601642184E-02  0.22939032711E-01  0.10204249008E+01  0.10201541494E+01 0.  0.
     999903    2    3    3    0    0  0.90642772884E-01 -0.63413184552E-01  0.70527432398E-01  0.13261604229E+00  0.19379156346E-01 0.  0.
         14    1    1    2    0    0 -0.49437253117E-02 -0.13601642184E-02 -0.22939032711E-01  0.23505099200E-01  0.00000000000E+00 0.  1.
     999901    1    3    3    0    0 -0.85699047572E-01  0.64773348771E-01 -0.47588399687E-01  0.88780885851E+00  0.88000000000E+00 0.  1.
        -11    1    4    4    0    0  0.46402635148E-01 -0.43956293369E-01  0.38084139924E-01  0.74404456252E-01  0.51100000000E-03 0.  1.
         11    1    4    4    0    0  0.44240137736E-01 -0.19456891184E-01  0.32443292474E-01  0.58211586038E-01  0.51100000000E-03 0. -1.
</event>
<event>
 8    1  0.1109553E+005  0.1043930E+01  0.7957747E-01            NaN
         13   -1    0    0    0    0  0.00000000000E+00  0.00000000000E+00  0.74505805969E-08  0.10566000000E+00  0.10566000000E+00 0.  1.
     999900   -1    0    0    0    0 -0.00000000000E+00 -0.00000000000E+00 -0.74505805969E-08  0.93827000000E+00  0.93827000000E+00 0.  1.
     999902    2    1    2    0    0 -0.17955357097E-01 -0.49085081440E-02  0.14360171839E-01  0.10204203672E+01  0.10201495101E+01 0.  0.
     999903    2    3    3    0    0 -0.12480822956E+00  0.36339536725E-01 -0.17257377417E-01  0.13243466515E+00  0.18532872500E-01 0.  0.
         14    1    1    2    0    0  0.17955357097E-01  0.49085081440E-02 -0.14360171839E-01  0.23509632833E-01  0.00000000000E+00 0. -1.
     999901    1    3    3    0    0  0.10685287247E+00 -0.41248044869E-01  0.31617549257E-01  0.88798570201E+00  0.88000000000E+00 0. -1.
        -11    1    4    4    0    0 -0.60121059107E-01  0.14850247388E-01  0.73705999182E-03  0.61934449010E-01  0.51100000000E-03 0. -1.
         11    1    4    4    0    0 -0.64687170455E-01  0.21489289336E-01 -0.17994437409E-01  0.70500216144E-01  0.51100000000E-03 0.  1.
</event>
<event>
 8    1  0.1109553E+005  0.1043930E+01  0.7957747E-01            NaN
         13   -1    0    0    0    0  0.00000000000E+00  0.00000000000E+00  0.74505805969E-08  0.10566000000E+00  0.10566000000E+00 0. -1.
     999900   -1    0    0    0    0 -0.00000000000E+00 -0.00000000000E+00 -0.74505805969E-08  0.93827000000E+00  0.93827000000E+00 0. -1.
     999902    2    1    2    0    0  0.20929928160E-01 -0.34898759745E-02  0.46246234742E-02  0.10222129958E+01  0.10219822800E+01 0.  0.
     999903    2    3    3    0    0 -0.98998789536E-01  0.77619300833E-01  0.26042458198E-01  0.13012537709E+00  0.20709609923E-01 0.  0.
         14    1    1    2    0    0 -0.20929928160E-01  0.34898759745E-02 -0.46246234742E-02  0.21717004153E-01  0.00000000000E+00 0. -1.
     999901    1    3    3    0    0  0.11992871770E+00 -0.81109176808E-01 -0.21417834724E-01  0.89208761875E+00  0.88000000000E+00 0. -1.
        -11    1    4    4    0    0 -0.50237988695E-01  0.33583235914E-01  0.21948229441E-01  0.64293663289E-01  0.51100000000E-03 0.  1.
         11    1    4    4    0    0 -0.48760800841E-01  0.44036064919E-01  0.40942287573E-02  0.65831713804E-01  0.51100000000E-03 0. -1.
</event>
<event>
 8    1  0.1109553E+005  0.1043930E+01  0.7957747E-01            NaN
         13   -1    0    0    0    0  0.00000000000E+00  0.00000000000E+00  0.74505805969E-08  0.10566000000E+00  0.10566000000E+00 0. -1.
     999900   -1    0    0    0    0 -0.00000000000E+00 -0.00000000000E+00 -0.74505805969E-08  0.93827000000E+00  0.93827000000E+00 0. -1.
     999902    2    1    2    0    0  0.17197561184E-01  0.19376335373E-02  0.16985460458E-01  0.10196809505E+01  0.10193925762E+01 0.  0.
     999903    2    3    3    0    0  0.12926173061E+00  0.28757873339E-02  0.22033808565E-01  0.13255934440E+00  0.19225657740E-01 0.  0.
         14    1    1    2    0    0 -0.17197561184E-01 -0.19376335373E-02 -0.16985460458E-01  0.24249049494E-01  0.00000000000E+00 0.  1.
     999901    1    3    3    0    0 -0.11206416942E+00 -0.93815379662E-03 -0.50483481069E-02  0.88712160611E+00  0.88000000000E+00 0.  1.
        -11    1    4    4    0    0  0.51854775157E-01 -0.47414041528E-02  0.14256763250E-02  0.52093111770E-01  0.51100000000E-03 0.  1.
         11    1    4    4    0    0  0.77406955450E-01  0.76171914868E-02  0.20608132240E-01  0.80466232630E-01  0.51100000000E-03 0. -1.
</event>
<event>
 8    1  0.1109553E+005  0.1043930E+01  0.7957747E-01            NaN
         13   -1    0    0    0    0  0.00000000000E+00  0.00000000000E+00  0.74505805969E-08  0.10566000000E+00  0.10566000000E+00 0.  1.
     999900   -1    0    0    0    0 -0.00000000000E+00 -0.00000000000E+00 -0.74505805969E-08  0.93827000000E+00  0.93827000000E+00 0. -1.
     999902    2    1    2    0    0 -0.18803683999E-01 -0.16895364499E-03  0.13498214507E-01  0.10207824543E+01  0.10205199705E+01 0.  0.
     999903    2    3    3    0    0  0.29857700818E-01  0.53897252008E-01  0.11488613410E+00  0.13197955421E+00  0.20576269048E-01 0.  0.
         14    1    1    2    0    0  0.18803683999E-01  0.16895364499E-03 -0.13498214507E-01  0.23147545704E-01  0.00000000000E+00 0. -1.
     999901    1    3    3    0    0 -0.48661384817E-01 -0.54066205653E-01 -0.10138791959E+00  0.88880290009E+00  0.88000000000E+00 0. -1.
        -11    1    4    4    0    0  0.10446386766E-01  0.38023598236E-01  0.77558125043E-01  0.87008303629E-01  0.51100000000E-03 0.  1.
         11    1    4    4    0    0  0.19411314052E-01  0.15873653772E-01  0.37328009058E-01  0.44971250578E-01  0.51100000000E-03 0. -1.
</event>
<event>
 8    1  0.1109553E+005  0.1043930E+01  0.7957747E-01            NaN
         13   -1    0    0    0    0  0.00000000000E+00  0.00000000000E+00  0.74505805969E-08  0.10566000000E+00  0.10566000000E+00 0.  1.
     999900   -1    0    0    0    0 -0.00000000000E+00 -0.00000000000E+00 -0.74505805969E-08  0.93827000000E+00  0.93827000000E+00 0. -1.
     999902    2    1    2    0    0 -0.16930428211E-01 -0.20723475990E-01 -0.18820015409E-01  0.10112146391E+01  0.10106852881E+01 0.  0.
     999903    2    3    3    0    0  0.73255380380E-01  0.17381270081E-01  0.90224476010E-01  0.11909572730E+00  0.19361737673E-01 0.  0.
         14    1    1    2    0    0  0.16930428211E-01  0.20723475990E-01  0.18820015409E-01  0.32715360865E-01  0.00000000000E+00 0.  1.
     999901    1    3    3    0    0 -0.90185808591E-01 -0.38104746072E-01 -0.10904449142E+00  0.89211891183E+00  0.88000000000E+00 0. -1.
        -11    1    4    4    0    0  0.19152969176E-02 -0.27330139472E-02  0.22481864035E-02  0.40562532740E-02  0.51100000000E-03 0.  1.
         11    1    4    4    0    0  0.71340083463E-01  0.20114284028E-01  0.87976289606E-01  0.11503947403E+00  0.51100000000E-03 0. -1.
</event>
<event>
 8    1  0.1109553E+005  0.1043930E+01  0.7957747E-01            NaN
         13   -1    0    0    0    0  0.00000000000E+00  0.00000000000E+00  0.74505805969E-08  0.10566000000E+00  0.10566000000E+00 0. -1.
     999900   -1    0    0    0    0 -0.00000000000E+00 -0.00000000000E+00 -0.74505805969E-08  0.93827000000E+00  0.93827000000E+00 0. -1.
     999902    2    1    2    0    0 -0.12003834959E-01 -0.19757608777E-02  0.18662709953E-01  0.10216523783E+01  0.10214094623E+01 0.  0.
     999903    2    3    3    0    0  0.30681183532E-01 -0.12112040229E+00  0.38062408971E-01  0.13238649868E+00  0.21585902349E-01 0.  0.
         14    1    1    2    0    0  0.12003834959E-01  0.19757608777E-02 -0.18662709953E-01  0.22277621677E-01  0.00000000000E+00 0.  1.
     999901    1    3    3    0    0 -0.42685018491E-01  0.11914464142E+00 -0.19399699018E-01  0.88926587965E+00  0.88000000000E+00 0. -1.
        -11    1    4    4    0    0  0.23614312018E-01 -0.78458822994E-01  0.14739347190E-01  0.83252219876E-01  0.51100000000E-03 0.  1.
         11    1    4    4    0    0  0.70668715135E-02 -0.42661579301E-01  0.23323061781E-01  0.49134278800E-01  0.51100000000E-03 0. -1.
</event>
<event>
 8    1  0.1109553E+005  0.1043930E+01  0.7957747E-01            NaN
         13   -1    0    0    0    0  0.00000000000E+00  0.00000000000E+00  0.74505805969E-08  0.10566000000E+00  0.10566000000E+00 0. -1.
     999900   -1    0    0    0    0 -0.00000000000E+00 -0.00000000000E+00 -0.74505805969E-08  0.93827000000E+00  0.93827000000E+00 0. -1.
     999902    2    1    2    0    0 -0.19502924156E-01 -0.14326023925E-01 -0.33254744360E-02  0.10195034204E+01  0.10192107566E+01 0.  0.
     999903    2    3    3    0    0 -0.14553733706E-01  0.71408667309E-01 -0.10512098603E+00  0.12948248919E+00  0.20106823997E-01 0.  0.
         14    1    1    2    0    0  0.19502924156E-01  0.14326023925E-01  0.33254744360E-02  0.24426579629E-01  0.00000000000E+00 0.  1.
     999901    1    3    3    0    0 -0.49491904498E-02 -0.85734691235E-01  0.10179551159E+00  0.89002093118E+00  0.88000000000E+00 0.  1.
        -11    1    4    4    0    0 -0.47716765033E-02  0.35571420910E-01 -0.35031621224E-01  0.50155463200E-01  0.51100000000E-03 0. -1.
         11    1    4    4    0    0 -0.97820572028E-02  0.35837246400E-01 -0.70089364801E-01  0.79327025987E-01  0.51100000000E-03 0.  1.
</event>
<event>
 8    1  0.1109553E+005  0.1043930E+01  0.7957747E-01            NaN
         13   -1    0    0    0    0  0.00000000000E+00  0.00000000000E+00  0.74505805969E-08  0.10566000000E+00  0.10566000000E+00 0.  1.
     999900   -1    0    0    0    0 -0.00000000000E+00 -0.00000000000E+00 -0.74505805969E-08  0.93827000000E+00  0.93827000000E+00 0.  1.
     999902    2    1    2    0    0 -0.13929965318E-03  0.21496741883E-01 -0.11397256531E-01  0.10195983997E+01  0.10193080349E+01 0.  0.
     999903    2    3    3    0    0 -0.75450240838E-02  0.12185145173E+00  0.45906844550E-01  0.13201196869E+00  0.20371986236E-01 0.  0.
         14    1    1    2    0    0  0.13929965318E-03 -0.21496741883E-01  0.11397256531E-01  0.24331600284E-01  0.00000000000E+00 0.  1.
     999901    1    3    3    0    0  0.74057244307E-02 -0.10035470985E+00 -0.57304101081E-01  0.88758643103E+00  0.88000000000E+00 0. -1.
        -11    1    4    4    0    0 -0.11623136606E-01  0.96705831677E-01  0.29763784143E-01  0.10184919809E+00  0.51100000000E-03 0. -1.
         11    1    4    4    0    0  0.40781125225E-02  0.25145620054E-01  0.16143060407E-01  0.30162770594E-01  0.51100000000E-03 0.  1.
</event>
<event>
 8    1  0.1109553E+005  0.1043930E+01  0.7957747E-01            NaN
         13   -1    0    0    0    0  0.00000000000E+00  0.00000000000E+00  0.74505805969E-08  0.10566000000E+00  0.10566000000E+00 0.  1.
     999900   -1    0    0    0    0 -0.00000000000E+00 -0.00000000000E+00 -0.74505805969E-08  0.93827000000E+00  0.93827000000E+00 0. -1.
     999902    2    1    2    0    0  0.14610399631E-01 -0.26615362529E-01  0.46150902946E-02  0.10132194097E+01  0.10127538851E+01 0.  0.
     999903    2    3    3    0    0  0.10724155573E+00 -0.26932671720E-01 -0.56989912205E-01  0.12621557197E+00  0.21363530457E-01 0.  0.
         14    1    1    2    0    0 -0.14610399631E-01  0.26615362529E-01 -0.46150902946E-02  0.30710590329E-01  0.00000000000E+00 0. -1.
     999901    1    3    3    0    0 -0.92631156097E-01  0.31730919099E-03  0.61605002500E-01  0.88700383770E+00  0.88000000000E+00 0.  1.
        -11    1    4    4    0    0  0.50318483143E-01 -0.23294259044E-01 -0.31053290657E-01  0.63554230637E-01  0.51100000000E-03 0.  1.
         11    1    4    4    0    0  0.56923072584E-01 -0.36384126759E-02 -0.25936621548E-01  0.62661341332E-01  0.51100000000E-03 0. -1.
</event>
<event>
 8    1  0.1109553E+005  0.1043930E+01  0.7957747E-01            NaN
         13   -1    0    0    0    0  0.00000000000E+00  0.00000000000E+00  0.74505805969E-08  0.10566000000E+00  0.10566000000E+00 0. -1.
     999900   -1    0    0    0    0 -0.00000000000E+00 -0.00000000000E+00 -0.74505805969E-08  0.93827000000E+00  0.93827000000E+00 0. -1.
     999902    2    1    2    0    0 -0.12346980682E-01  0.10205342829E-01 -0.17308036607E-01  0.10203468474E+01  0.10200742737E+01 0.  0.
     999903    2    3    3    0    0 -0.10611997437E+00 -0.69005592870E-01  0.27192056107E-01  0.13071321219E+00  0.17980965456E-01 0.  0.
         14    1    1    2    0    0  0.12346980682E-01 -0.10205342829E-01  0.17308036607E-01  0.23583152576E-01  0.00000000000E+00 0. -1.
     999901    1    3    3    0    0  0.93772993691E-01  0.79210935699E-01 -0.44500092714E-01  0.88963363523E+00  0.88000000000E+00 0. -1.
        -11    1    4    4    0    0 -0.43703150929E-01 -0.25910128109E-01  0.19695515441E-01  0.54492885675E-01  0.51100000000E-03 0. -1.
         11    1    4    4    0    0 -0.62416823444E-01 -0.43095464761E-01  0.74965406660E-02  0.76220326519E-01  0.51100000000E-03 0.  1.
</event>
<event>
 8    1  0.1109553E+005  0.1043930E+01  0.7957747E-01            NaN
         13   -1    0    0    0    0  0.00000000000E+00  0.00000000000E+00  0.74505805969E-08  0.10566000000E+00  0.10566000000E+00 0.  1.
     999900   -1    0    0    0    0 -0.00000000000E+00 -0.00000000000E+00 -0.74505805969E-08  0.93827000000E+00  0.93827000000E+00 0. -1.
     999902    2    1    2    0    0 -0.10204063451E-01 -0.27615875339E-04 -0.21162611691E-01  0.10204357495E+01  0.10201652508E+01 0.  0.
     999903    2    3    3    0    0  0.17869893610E-01 -0.11880061238E+00  0.44207567895E-01  0.12961116959E+00  0.20293536544E-01 0.  0.
         14    1    1    2    0    0  0.10204063451E-01  0.27615875339E-04  0.21162611691E-01  0.23494250513E-01  0.00000000000E+00 0.  1.
     999901    1    3    3    0    0 -0.28073957062E-01  0.11877299650E+00 -0.65370179586E-01  0.89082457989E+00  0.88000000000E+00 0.  1.
        -11    1    4    4    0    0  0.12475871810E-01 -0.34254902385E-01  0.72098171709E-02  0.37165687125E-01  0.51100000000E-03 0.  1.
         11    1    4    4    0    0  0.53940218002E-02 -0.84545709992E-01  0.36997750724E-01  0.92445482469E-01  0.51100000000E-03 0. -1.
</event>
<event>
 8    1  0.1109553E+005  0.1043930E+01  0.7957747E-01            NaN
         13   -1    0    0    0    0  0.00000000000E+00  0.00000000000E+00  0.74505805969E-08  0.10566000000E+00  0.10566000000E+00 0. -1.
     999900   -1    0    0    0    0 -0.00000000000E+00 -0.00000000000E+00 -0.74505805969E-08  0.93827000000E+00  0.93827000000E+00 0. -1.
     999902    2    1    2    0    0  0.32970779635E-02  0.11416904975E-01  0.26112892742E-01  0.10152402874E+01  0.10148348346E+01 0.  0.
     999903    2    3    3    0    0 -0.65931691456E-01 -0.83148870197E-01  0.65833177904E-01  0.12658230515E+00  0.20696620748E-01 0.  0.
         14    1    1    2    0    0 -0.32970779635E-02 -0.11416904975E-01 -0.26112892742E-01  0.28689712610E-01  0.00000000000E+00 0.  1.
     999901    1    3    3    0    0  0.69228769419E-01  0.94565775172E-01 -0.39720285162E-01  0.88865798224E+00  0.88000000000E+00 0. -1.
        -11    1    4    4    0    0 -0.18841433170E-01 -0.33402372835E-01  0.14588550229E-01  0.41034193470E-01  0.51100000000E-03 0. -1.
         11    1    4    4    0    0 -0.47090258285E-01 -0.49746497362E-01  0.51244627675E-01  0.85548111678E-01  0.51100000000E-03 0.  1.
</event>
<event>
 8    1  0.1109553E+005  0.1043930E+01  0.7957747E-01            NaN
         13   -1    0    0    0    0  0.00000000000E+00  0.00000000000E+00  0.74505805969E-08  0.10566000000E+00  0.10566000000E+00 0. -1.
     999900   -1    0    0    0    0 -0.00000000000E+00 -0.00000000000E+00 -0.74505805969E-08  0.93827000000E+00  0.93827000000E+00 0. -1.
     999902    2    1    2    0    0 -0.21775088500E-01  0.76634230599E-03 -0.99343636453E-02  0.10199835318E+01  0.10197023937E+01 0.  0.
     999903    2    3    3    0    0  0.81311044610E-01  0.18137528773E-01 -0.96596173761E-01  0.12956858452E+00  0.22731946300E-01 0.  0.
         14    1    1    2    0    0  0.21775088500E-01 -0.76634230599E-03  0.99343636453E-02  0.23946468231E-01  0.00000000000E+00 0.  1.
     999901    1    3    3    0    0 -0.10308613311E+00 -0.17371186467E-01  0.86661810116E-01  0.89041494725E+00  0.88000000000E+00 0.  1.
        -11    1    4    4    0    0  0.74010194802E-01  0.11033736414E-01 -0.91390715283E-01  0.11811763727E+00  0.51100000000E-03 0.  1.
         11    1    4    4    0    0  0.73008498088E-02  0.71037923593E-02 -0.52054584780E-02  0.11450947244E-01  0.51100000000E-03 0. -1.
</event>
<event>
 8    1  0.1109553E+005  0.1043930E+01  0.7957747E-01            NaN
         13   -1    0    0    0    0  0.00000000000E+00  0.00000000000E+00  0.74505805969E-08  0.10566000000E+00  0.10566000000E+00 0.  1.
     999900   -1    0    0    0    0 -0.00000000000E+00 -0.00000000000E+00 -0.74505805969E-08  0.93827000000E+00  0.93827000000E+00 0. -1.
     999902    2    1    2    0    0 -0.61979661212E-02  0.14630429325E-01 -0.16786400292E-01  0.10208162058E+01  0.10205544957E+01 0.  0.
     999903    2    3    3    0    0 -0.59411584207E-01 -0.98628306539E-01 -0.59267958445E-01  0.13094884876E+00  0.19432727642E-01 0.  0.
         14    1    1    2    0    0  0.61979661212E-02 -0.14630429325E-01  0.16786400292E-01  0.23113794172E-01  0.00000000000E+00 0.  1.
     999901    1    3    3    0    0  0.53213618085E-01  0.11325873586E+00  0.42481558152E-01  0.88986735707E+00  0.88000000000E+00 0. -1.
        -11    1    4    4    0    0 -0.42685858726E-01 -0.76064517043E-01 -0.35577602541E-01  0.94201487312E-01  0.51100000000E-03 0. -1.
         11    1    4    4    0    0 -0.16725725481E-01 -0.22563789496E-01 -0.23690355904E-01  0.36747361444E-01  0.51100000000E-03 0.  1.
</event>
<event>
 8    1  0.1109553E+005  0.1043930E+01  0.7957747E-01            NaN
         13   -1    0    0    0    0  0.00000000000E+00  0.00000000000E+00  0.74505805969E-08  0.10566000000E+00  0.10566000000E+00 0.  1.
     999900   -1    0    0    0    0 -0.00000000000E+00 -0.00000000000E+00 -0.74505805969E-08  0.93827000000E+00  0.93827000000E+00 0.  1.
     999902    2    1    2    0    0  0.29006431100E-01  0.19469278869E-01  0.51519519189E-02  0.10086175592E+01  0.10079992125E+01 0.  0.
     999903    2    3    3    0    0 -0.40139895865E-01  0.49008029589E-01 -0.99125778517E-01  0.11927645628E+00  0.19696569542E-01 0.  0.
         14    1    1    2    0    0 -0.29006431100E-01 -0.19469278869E-01 -0.51519519189E-02  0.35312440774E-01  0.00000000000E+00 0. -1.
     999901    1    3    3    0    0  0.69146326965E-01 -0.29538750720E-01  0.10427773044E+00  0.88934110295E+00  0.88000000000E+00 0. -1.
        -11    1    4    4    0    0 -0.95156048463E-02  0.24967271540E-01 -0.32166817555E-01  0.41819572647E-01  0.51100000000E-03 0.  1.
         11    1    4    4    0    0 -0.30624291018E-01  0.24040758048E-01 -0.66958960961E-01  0.77456883632E-01  0.51100000000E-03 0. -1.
</event>
<event>
 8    1  0.1109553E+005  0.1043930E+01  0.7957747E-01            NaN
         13   -1    0    0    0    0  0.00000000000E+00  0.00000000000E+00  0.74505805969E-08  0.10566000000E+00  0.10566000000E+00 0.  1.
     999900   -1    0    0    0    0 -0.00000000000E+00 -0.00000000000E+00 -0.74505805969E-08  0.93827000000E+00  0.93827000000E+00 0.  1.
     999902    2    1    2    0    0 -0.73419064681E-03  0.10518683742E-01  0.21434329272E-01  0.10200425092E+01  0.10197627707E+01 0.  0.
     999903    2    3    3    0    0 -0.68054533434E-01 -0.94757020327E-01 -0.49988270684E-01  0.12834963038E+00  0.19091568577E-01 0.  0.
         14    1    1    2    0    0  0.73419064681E-03 -0.10518683742E-01 -0.21434329272E-01  0.23887490762E-01  0.00000000000E+00 0. -1.
     999901    1    3    3    0    0  0.67320342787E-01  0.10527570407E+00  0.71422599956E-01  0.89169287886E+00  0.88000000000E+00 0. -1.
        -11    1    4    4    0    0 -0.15498138064E-01 -0.10133859111E-01 -0.95109072516E-02  0.20823204885E-01  0.51100000000E-03 0.  1.
         11    1    4    4    0    0 -0.52556395370E-01 -0.84623161216E-01 -0.40477363433E-01  0.10752642550E+00  0.51100000000E-03 0. -1.
</event>
<event>
 8    1  0.1109553E+005  0.1043930E+01  0.7957747E-01            NaN
         13   -1    0    0    0    0  0.00000000000E+00  0.00000000000E+00  0.74505805969E-08  0.10566000000E+00  0.10566000000E+00 0.  1.
     999900   -1    0    0    0    0 -0.00000000000E+00 -0.00000000000E+00 -0.74505805969E-08  0.93827000000E+00  0.93827000000E+00 0.  1.
     999902    2    1    2    0    0  0.49466641509E-02  0.93501672847E-02 -0.25937303118E-01  0.10159185950E+01  0.10155323495E+01 0.  0.
     999903    2    3    3    0    0  0.51380625225E-01  0.44788279688E-01  0.10248589761E+00  0.12468097744E+00  0.19900459326E-01 0.  0.
         14    1    1    2    0    0 -0.49466641509E-02 -0.93501672847E-02  0.25937303118E-01  0.28011404954E-01  0.00000000000E+00 0.  1.
     999901    1    3    3    0    0 -0.46433961074E-01 -0.35438112403E-01 -0.12842320072E+00  0.89123761761E+00  0.88000000000E+00 0.  1.
        -11    1    4    4    0    0  0.43988841763E-01  0.41858379653E-01  0.98641931049E-01  0.11583451053E+00  0.51100000000E-03 0. -1.
         11    1    4    4    0    0  0.73917834620E-02  0.29299000350E-02  0.38439665571E-02  0.88464669137E-02  0.51100000000E-03 0.  1.
</event>
<event>
 8    1  0.1109553E+005  0.1043930E+01  0.7957747E-01            NaN
         13   -1    0    0    0    0  0.00000000000E+00  0.00000000000E+00  0.74505805969E-08  0.10566000000E+00  0.10566000000E+00 0.  1.
     999900   -1    0    0    0    0 -0.00000000000E+00 -0.00000000000E+00 -0.74505805969E-08  0.93827000000E+00  0.93827000000E+00 0.  1.
     999902    2    1    2    0    0 -0.14990062857E-01 -0.10835278570E-01 -0.14754707791E-01  0.10202697665E+01  0.10199953872E+01 0.  0.
     999903    2    3    3    0    0 -0.47134181676E-01 -0.97538157913E-01 -0.75705238014E-01  0.13332805435E+00  0.17600104615E-01 0.  0.
         14    1    1    2    0    0  0.14990062857E-01  0.10835278570E-01  0.14754707791E-01  0.23660233476E-01  0.00000000000E+00 0.  1.
     999901    1    3    3    0    0  0.32144118819E-01  0.86702879343E-01  0.60950530222E-01  0.88694171217E+00  0.88000000000E+00 0. -1.
        -11    1    4    4    0    0 -0.15280232241E-01 -0.43715887236E-01 -0.40696564350E-01  0.61652540622E-01  0.51100000000E-03 0.  1.
         11    1    4    4    0    0 -0.31853949435E-01 -0.53822270676E-01 -0.35008673663E-01  0.71675513727E-01  0.51100000000E-03 0. -1.
</event>
<event>
 8    1  0.1109553E+005  0.1043930E+01  0.7957747E-01            NaN
         13   -1    0    0    0    0  0.00000000000E+00  0.00000000000E+00  0.74505805969E-08  0.10566000000E+00  0.10566000000E+00 0. -1.
     999900   -1    0    0    0    0 -0.00000000000E+00 -0.00000000000E+00 -0.74505805969E-08  0.93827000000E+00  0.93827000000E+00 0. -1.
     999902    2    1    2    0    0 -0.14778679426E-01 -0.95619919351E-02  0.14106778209E-01  0.10213724681E+01  0.10211233404E+01 0.  0.
     999903    2    3    3    0    0 -0.92670063467E-01 -0.76415265925E-01  0.57220489853E-01  0.13435768799E+00  0.18728863638E-01 0.  0.
         14    1    1    2    0    0  0.14778679426E-01  0.95619919351E-02 -0.14106778209E-01  0.22557531930E-01  0.00000000000E+00 0.  1.
     999901    1    3    3    0    0  0.77891384040E-01  0.66853273990E-01 -0.43113711644E-01  0.88701478008E+00  0.88000000000E+00 0. -1.
        -11    1    4    4    0    0 -0.45290223887E-01 -0.26522075884E-01  0.29209808317E-01  0.60067453017E-01  0.51100000000E-03 0. -1.
         11    1    4    4    0    0 -0.47379839579E-01 -0.49893190041E-01  0.28010681537E-01  0.74290234972E-01  0.51100000000E-03 0.  1.
</event>
<event>
 8    1  0.1109553E+005  0.1043930E+01  0.7957747E-01            NaN
         13   -1    0    0    0    0  0.00000000000E+00  0.00000000000E+00  0.74505805969E-08  0.10566000000E+00  0.10566000000E+00 0. -1.
     999900   -1    0    0    0    0 -0.00000000000E+00 -0.00000000000E+00 -0.74505805969E-08  0.93827000000E+00  0.93827000000E+00 0. -1.
     999902    2    1    2    0    0 -0.74678037841E-03  0.18167328079E-01  0.15610899160E-01  0.10199652412E+01  0.10196836684E+01 0.  0.
     999903    2    3    3    0    0 -0.30197822391E-02  0.12240492440E+00  0.48475031063E-01  0.13320107067E+00  0.20015293822E-01 0.  0.
         14    1    1    2    0    0  0.74678037841E-03 -0.18167328079E-01 -0.15610899160E-01  0.23964758773E-01  0.00000000000E+00 0.  1.
     999901    1    3    3    0    0  0.22730018607E-02 -0.10423759633E+00 -0.32864131904E-01  0.88676417056E+00  0.88000000000E+00 0. -1.
        -11    1    4    4    0    0  0.62630178154E-02  0.50421493113E-01  0.13180302036E-01  0.52493179011E-01  0.51100000000E-03 0.  1.
         11    1    4    4    0    0 -0.92828000545E-02  0.71983431291E-01  0.35294729027E-01  0.80707891655E-01  0.51100000000E-03 0. -1.
</event>
<event>
 8    1  0.1109553E+005  0.1043930E+01  0.7957747E-01            NaN
         13   -1    0    0    0    0  0.00000000000E+00  0.00000000000E+00  0.74505805969E-08  0.10566000000E+00  0.10566000000E+00 0. -1.
     999900   -1    0    0    0    0 -0.00000000000E+00 -0.00000000000E+00 -0.74505805969E-08  0.93827000000E+00  0.93827000000E+00 0.  1.
     999902    2    1    2    0    0  0.56084858857E-02 -0.28731517273E-01 -0.16992942554E-01  0.10100815836E+01  0.10095142843E+01 0.  0.
     999903    2    3    3    0    0  0.78052155399E-01 -0.45252458159E-01 -0.83194232083E-01  0.12447239353E+00  0.20788760581E-01 0.  0.
         14    1    1    2    0    0 -0.56084858857E-02  0.28731517273E-01  0.16992942554E-01  0.33848416438E-01  0.00000000000E+00 0. -1.
     999901    1    3    3    0    0 -0.72443669513E-01  0.16520940887E-01  0.66201289528E-01  0.88560919004E+00  0.88000000000E+00 0. -1.
        -11    1    4    4    0    0  0.23618547502E-01 -0.59452831537E-02 -0.14190940581E-01  0.28192660276E-01  0.51100000000E-03 0.  1.
         11    1    4    4    0    0  0.54433607896E-01 -0.39307175006E-01 -0.69003291502E-01  0.96279733250E-01  0.51100000000E-03 0. -1.
</event>
<event>
 8    1  0.1109553E+005  0.1043930E+01  0.7957747E-01            NaN
         13   -1    0    0    0    0  0.00000000000E+00  0.00000000000E+00  0.74505805969E-08  0.10566000000E+00  0.10566000000E+00 0. -1.
     999900   -1    0    0    0    0 -0.00000000000E+00 -0.00000000000E+00 -0.74505805969E-08  0.93827000000E+00  0.93827000000E+00 0. -1.
     999902    2    1    2    0    0  0.21181273063E-01  0.62698152753E-02 -0.86516173660E-02  0.10202064380E+01  0.10199305705E+01 0.  0.
     999903    2    3    3    0    0  0.33738683116E-01  0.54654405079E-01 -0.11416634445E+00  0.13249470846E+00  0.19886951332E-01 0.  0.
         14    1    1    2    0    0 -0.21181273063E-01 -0.62698152753E-02  0.86516173660E-02  0.23723562026E-01  0.00000000000E+00 0.  1.
     999901    1    3    3    0    0 -0.12557410053E-01 -0.48384589804E-01  0.10551472708E+00  0.88771172951E+00  0.88000000000E+00 0.  1.
        -11    1    4    4    0    0  0.29717883972E-01  0.41105824746E-01 -0.10167452200E+00  0.11362574972E+00  0.51100000000E-03 0. -1.
         11    1    4    4    0    0  0.40207991439E-02  0.13548580334E-01 -0.12491822452E-01  0.18868958741E-01  0.51100000000E-03 0.  1.
</event>
<event>
 8    1  0.1109553E+005  0.1043930E+01  0.7957747E-01            NaN
         13   -1    0    0    0    0  0.00000000000E+00  0.00000000000E+00  0.74505805969E-08  0.10566000000E+00  0.10566000000E+00 0. -1.
     999900   -1    0    0    0    0 -0.00000000000E+00 -0.00000000000E+00 -0.74505805969E-08  0.93827000000E+00  0.93827000000E+00 0.  1.
     999902    2    1    2    0    0 -0.16976186857E-01  0.98931857531E-02  0.47525464257E-02  0.10237148388E+01  0.10235152263E+01 0.  0.
     999903    2    3    3    0    0 -0.41231502602E-01 -0.18550982977E-01 -0.12298482248E+00  0.13370684643E+00  0.26609743457E-01 0.  0.
         14    1    1    2    0    0  0.16976186857E-01 -0.98931857531E-02 -0.47525464257E-02  0.20215161193E-01  0.00000000000E+00 0. -1.
     999901    1    3    3    0    0  0.24255315745E-01  0.28444168731E-01  0.12773736890E+00  0.89000799237E+00  0.88000000000E+00 0. -1.
        -11    1    4    4    0    0 -0.14685817828E-02 -0.34076981302E-02 -0.42509208169E-01  0.42673915208E-01  0.51100000000E-03 0. -1.
         11    1    4    4    0    0 -0.39762920819E-01 -0.15143284847E-01 -0.80475614308E-01  0.91032931224E-01  0.51100000000E-03 0.  1.
</event>
<event>
 8    1  0.1109553E+005  0.1043930E+01  0.7957747E-01            NaN
         13   -1    0    0    0    0  0.00000000000E+00  0.00000000000E+00  0.74505805969E-08  0.10566000000E+00  0.10566000000E+00 0.  1.
     999900   -1    0    0    0    0 -0.00000000000E+00 -0.00000000000E+00 -0.74505805969E-08  0.93827000000E+00  0.93827000000E+00 0.  1.
     999902    2    1    2    0    0  0.32382477851E-02 -0.22534735432E-01  0.36374401693E-02  0.10208750326E+01  0.10206146681E+01 0.  0.
     999903    2    3    3    0    0 -0.12547146002E+00 -0.29916586762E-01 -0.14949194895E-01  0.13128740703E+00  0.19360149096E-01 0.  0.
         14    1    1    2    0    0 -0.32382477851E-02  0.22534735432E-01 -0.36374401693E-02  0.23054967376E-01  0.00000000000E+00 0.  1.
     999901    1    3    3    0    0  0.12870970780E+00  0.73818513302E-02  0.18586635064E-01  0.88958762560E+00  0.88000000000E+00 0. -1.
        -11    1    4    4    0    0 -0.68737231162E-01 -0.23940387192E-01 -0.14585967970E-01  0.74235844909E-01  0.51100000000E-03 0. -1.
         11    1    4    4    0    0 -0.56734228857E-01 -0.59761995702E-02 -0.36322692541E-03  0.57051562118E-01  0.51100000000E-03 0.  1.
</event>
<event>
 8    1  0.1109553E+005  0.1043930E+01  0.7957747E-01            NaN
         13   -1    0    0    0    0  0.00000000000E+00  0.00000000000E+00  0.74505805969E-08  0.10566000000E+00  0.10566000000E+00 0. -1.
     999900   -1    0    0    0    0 -0.00000000000E+00 -0.00000000000E+00 -0.74505805969E-08  0.93827000000E+00  0.93827000000E+00 0.  1.
     999902    2    1    2    0    0 -0.64141921138E-02 -0.17935733500E-01 -0.14505753614E-01  0.10199873752E+01  0.10197063284E+01 0.  0.
     999903    2    3    3    0    0 -0.21652691910E-01 -0.12636060759E+00  0.25981824158E-01  0.13227829603E+00  0.19663422840E-01 0.  0.
         14    1    1    2    0    0  0.64141921138E-02  0.17935733500E-01  0.14505753614E-01  0.23942624847E-01  0.00000000000E+00 0. -1.
     999901    1    3    3    0    0  0.15238499796E-01  0.10842487409E+00 -0.40487577772E-01  0.88770907912E+00  0.88000000000E+00 0. -1.
        -11    1    4    4    0    0 -0.81141346431E-02 -0.94584077693E-01  0.15586606534E-01  0.96203899912E-01  0.51100000000E-03 0. -1.
         11    1    4    4    0    0 -0.13538557266E-01 -0.31776529896E-01  0.10395217624E-01  0.36074396122E-01  0.51100000000E-03 0.  1.
</event>
<event>
 8    1  0.1109553E+005  0.1043930E+01  0.7957747E-01            NaN
         13   -1    0    0    0    0  0.00000000000E+00  0.00000000000E+00  0.74505805969E-08  0.10566000000E+00  0.10566000000E+00 0.  1.
     999900   -1    0    0    0    0 -0.00000000000E+00 -0.00000000000E+00 -0.74505805969E-08  0.93827000000E+00  0.93827000000E+00 0.  1.
     999902    2    1    2    0    0  0.19216601303E-01 -0.13600223176E-01 -0.28654872904E-02  0.10202138693E+01  0.10199381767E+01 0.  0.
     999903    2    3    3    0    0 -0.80360145276E-01  0.40010183429E-01  0.89387747173E-01  0.12819354254E+00  0.19617524759E-01 0.  0.
         14    1    1    2    0    0 -0.19216601303E-01  0.13600223176E-01  0.28654872904E-02  0.23716130660E-01  0.00000000000E+00 0.  1.
     999901    1    3    3    0    0  0.99576746579E-01 -0.53610406604E-01 -0.92253234463E-01  0.89202032680E+00  0.88000000000E+00 0.  1.
        -11    1    4    4    0    0 -0.71453997142E-02 -0.20464296187E-02  0.74774674843E-02  0.10555484463E-01  0.51100000000E-03 0.  1.
         11    1    4    4    0    0 -0.73214745562E-01  0.42056613047E-01  0.81910279688E-01  0.11763805808E+00  0.51100000000E-03 0. -1.
</event>
<event>
 8    1  0.1109553E+005  0.1043930E+01  0.7957747E-01            NaN
         13   -1    0    0    0    0  0.00000000000E+00  0.00000000000E+00  0.74505805969E-08  0.10566000000E+00  0.10566000000E+00 0. -1.
     999900   -1    0    0    0    0 -0.00000000000E+00 -0.00000000000E+00 -0.74505805969E-08  0.93827000000E+00  0.93827000000E+00 0.  1.
     999902    2    1    2    0    0 -0.23701227855E-01 -0.75579187575E-02 -0.10604680128E-01  0.10168868941E+01  0.10165272381E+01 0.  0.
     999903    2    3    3    0    0  0.12212922852E+00 -0.15499553553E-01  0.36901501916E-03  0.12478263248E+00  0.20366260739E-01 0.  0.
         14    1    1    2    0    0  0.23701227855E-01  0.75579187575E-02  0.10604680128E-01  0.27043105931E-01  0.00000000000E+00 0. -1.
     999901    1    3    3    0    0 -0.14583045637E+00  0.79416347958E-02 -0.10973695147E-01  0.89210426159E+00  0.88000000000E+00 0.  1.
        -11    1    4    4    0    0  0.10087507783E+00 -0.20507275689E-01  0.39809397716E-03  0.10294051332E+00  0.51100000000E-03 0.  1.
         11    1    4    4    0    0  0.21254150689E-01  0.50077221354E-02 -0.29078958000E-04  0.21842119153E-01  0.51100000000E-03 0. -1.
</event>
<event>
 8    1  0.1109553E+005  0.1043930E+01  0.7957747E-01            NaN
         13   -1    0    0    0    0  0.00000000000E+00  0.00000000000E+00  0.74505805969E-08  0.10566000000E+00  0.10566000000E+00 0.  1.
     999900   -1    0    0    0    0 -0.00000000000E+00 -0.00000000000E+00 -0.74505805969E-08  0.93827000000E+00  0.93827000000E+00 0.  1.
     999902    2    1    2    0    0  0.22877080218E-01  0.75172767609E-03  0.53396731368E-02  0.10204260003E+01  0.10201552745E+01 0.  0.
     999903    2    3    3    0    0 -0.29017492154E-01  0.91297469195E-01 -0.84920468928E-01  0.12967436756E+00  0.20657028483E-01 0.  0.
         14    1    1    2    0    0 -0.22877080218E-01 -0.75172767609E-03 -0.53396731368E-02  0.23503999724E-01  0.00000000000E+00 0. -1.
     999901    1    3    3    0    0  0.51894572372E-01 -0.90545741519E-01  0.90260142065E-01  0.89075163272E+00  0.88000000000E+00 0. -1.
        -11    1    4    4    0    0 -0.32233263285E-01  0.85009754906E-01 -0.78995886699E-01  0.12044190686E+00  0.51100000000E-03 0. -1.
         11    1    4    4    0    0  0.32157711317E-02  0.62877142891E-02 -0.59245822282E-02  0.92324606976E-02  0.51100000000E-03 0.  1.
</event>
<event>
 8    1  0.1109553E+005  0.1043930E+01  0.7957747E-01            NaN
         13   -1    0    0    0    0  0.00000000000E+00  0.00000000000E+00  0.74505805969E-08  0.10566000000E+00  0.10566000000E+00 0. -1.
     999900   -1    0    0    0    0 -0.00000000000E+00 -0.00000000000E+00 -0.74505805969E-08  0.93827000000E+00  0.93827000000E+00 0.  1.
     999902    2    1    2    0    0  0.21728911029E-01 -0.40646906382E-02  0.63040519447E-02  0.10209428654E+01  0.10206840481E+01 0.  0.
     999903    2    3    3    0    0  0.42287467967E-01 -0.67637601717E-01 -0.10153696361E+00  0.13184565257E+00  0.26654193089E-01 0.  0.
         14    1    1    2    0    0 -0.21728911029E-01  0.40646906382E-02 -0.63040519447E-02  0.22987134563E-01  0.00000000000E+00 0. -1.
     999901    1    3    3    0    0 -0.20558556938E-01  0.63572911079E-01  0.10784101556E+00  0.88909721286E+00  0.88000000000E+00 0. -1.
        -11    1    4    4    0    0  0.16756742732E-01 -0.67389296309E-02 -0.21712955538E-01  0.28247392070E-01  0.51100000000E-03 0. -1.
         11    1    4    4    0    0  0.25530725235E-01 -0.60898672086E-01 -0.79824008076E-01  0.10359826050E+00  0.51100000000E-03 0.  1.
</event>
<event>
 8    1  0.1109553E+005  0.1043930E+01  0.7957747E-01            NaN
         13   -1    0    0    0    0  0.00000000000E+00  0.00000000000E+00  0.74505805969E-08  0.10566000000E+00  0.10566000000E+00 0. -1.
     999900   -1    0    0    0    0 -0.00000000000E+00 -0.00000000000E+00 -0.74505805969E-08  0.93827000000E+00  0.93827000000E+00 0.  1.
     999902    2    1    2    0    0  0.16563395732E-01  0.56784890219E-02 -0.15192025802E-01  0.10207483486E+01  0.10204850818E+01 0.  0.
     999903    2    3    3    0    0 -0.77148519406E-01 -0.96796241059E-01 -0.33278833612E-01  0.12967589024E+00  0.19671029822E-01 0.  0.
         14    1    1    2    0    0 -0.16563395732E-01 -0.56784890219E-02  0.15192025802E-01  0.23181651445E-01  0.00000000000E+00 0.  1.
     999901    1    3    3    0    0  0.93711915138E-01  0.10247473008E+00  0.18086807810E-01  0.89107245831E+00  0.88000000000E+00 0.  1.
        -11    1    4    4    0    0 -0.68824399199E-01 -0.89010448425E-01 -0.35637870913E-01  0.11802532278E+00  0.51100000000E-03 0.  1.
         11    1    4    4    0    0 -0.83241202078E-02 -0.77857926344E-02  0.23590373008E-02  0.11650567461E-01  0.51100000000E-03 0. -1.
</event>
<event>
 8    1  0.1109553E+005  0.1043930E+01  0.7957747E-01            NaN
         13   -1    0    0    0    0  0.00000000000E+00  0.00000000000E+00  0.74505805969E-08  0.10566000000E+00  0.10566000000E+00 0. -1.
     999900   -1    0    0    0    0 -0.00000000000E+00 -0.00000000000E+00 -0.74505805969E-08  0.93827000000E+00  0.93827000000E+00 0. -1.
     999902    2    1    2    0    0  0.97325775704E-02 -0.21414474336E-01  0.50628840531E-02  0.10198689200E+01  0.10195850520E+01 0.  0.
     999903    2    3    3    0    0 -0.66745101267E-01 -0.10402878847E+00 -0.38119790876E-01  0.13164670471E+00  0.24512018129E-01 0.  0.
         14    1    1    2    0    0 -0.97325775704E-02  0.21414474336E-01 -0.50628840531E-02  0.24061080030E-01  0.00000000000E+00 0. -1.
     999901    1    3    3    0    0  0.76477678837E-01  0.82614314130E-01  0.43182674929E-01  0.88822221526E+00  0.88000000000E+00 0.  1.
        -11    1    4    4    0    0 -0.46206782409E-01 -0.53478764833E-01 -0.14304396055E-01  0.72110483954E-01  0.51100000000E-03 0.  1.
         11    1    4    4    0    0 -0.20538318858E-01 -0.50550023634E-01 -0.23815394822E-01  0.59536220760E-01  0.51100000000E-03 0. -1.
</event>
<event>
 8    1  0.1109553E+005  0.1043930E+01  0.7957747E-01            NaN
         13   -1    0    0    0    0  0.00000000000E+00  0.00000000000E+00  0.74505805969E-08  0.10566000000E+00  0.10566000000E+00 0. -1.
     999900   -1    0    0    0    0 -0.00000000000E+00 -0.00000000000E+00 -0.74505805969E-08  0.93827000000E+00  0.93827000000E+00 0. -1.
     999902    2    1    2    0    0  0.85005877795E-02  0.22057534668E-01 -0.34904167105E-02  0.10200348575E+01  0.10197549375E+01 0.  0.
     999903    2    3    3    0    0  0.14493713619E-01 -0.82987372152E-01  0.94586881503E-01  0.12835694115E+00  0.20781109647E-01 0.  0.
         14    1    1    2    0    0 -0.85005877795E-02 -0.22057534668E-01  0.34904167105E-02  0.23895142541E-01  0.00000000000E+00 0.  1.
     999901    1    3    3    0    0 -0.59931258392E-02  0.10504490682E+00 -0.98077298214E-01  0.89167791631E+00  0.88000000000E+00 0. -1.
        -11    1    4    4    0    0  0.63856730787E-02 -0.54567284232E-01  0.46826227663E-01  0.72189487096E-01  0.51100000000E-03 0.  1.
         11    1    4    4    0    0  0.81080405400E-02 -0.28420087920E-01  0.47760653841E-01  0.56167454055E-01  0.51100000000E-03 0. -1.
</event>
<event>
 8    1  0.1109553E+005  0.1043930E+01  0.7957747E-01            NaN
         13   -1    0    0    0    0  0.00000000000E+00  0.00000000000E+00  0.74505805969E-08  0.10566000000E+00  0.10566000000E+00 0.  1.
     999900   -1    0    0    0    0 -0.00000000000E+00 -0.00000000000E+00 -0.74505805969E-08  0.93827000000E+00  0.93827000000E+00 0.  1.
     999902    2    1    2    0    0  0.21750196454E-01 -0.51378707116E-02  0.33454973360E-02  0.10213321879E+01  0.10210821597E+01 0.  0.
     999903    2    3    3    0    0  0.12577272340E+00 -0.14893878489E-01 -0.39488053387E-01  0.13411711874E+00  0.19684755834E-01 0.  0.
         14    1    1    2    0    0 -0.21750196454E-01  0.51378707116E-02 -0.33454973360E-02  0.22597812144E-01  0.00000000000E+00 0. -1.
     999901    1    3    3    0    0 -0.10402252694E+00  0.97560077770E-02  0.42833550723E-01  0.88721506912E+00  0.88000000000E+00 0.  1.
        -11    1    4    4    0    0  0.52254899110E-01 -0.15733500166E-01 -0.14585270608E-01  0.56489899523E-01  0.51100000000E-03 0. -1.
         11    1    4    4    0    0  0.73517824286E-01  0.83962167750E-03 -0.24902782778E-01  0.77627219217E-01  0.51100000000E-03 0.  1.
</event>
<event>
 8    1  0.1109553E+005  0.1043930E+01  0.7957747E-01            NaN
         13   -1    0    0    0    0  0.00000000000E+00  0.00000000000E+00  0.74505805969E-08  0.10566000000E+00  0.10566000000E+00 0. -1.
     999900   -1    0    0    0    0 -0.00000000000E+00 -0.00000000000E+00 -0.74505805969E-08  0.93827000000E+00  0.93827000000E+00 0. -1.
     999902    2    1    2    0    0 -0.93014303311E-02 -0.20209665067E-01  0.11594783738E-01  0.10188424298E+01  0.10185335098E+01 0.  0.
     999903    2    3    3    0    0  0.94952227403E-01 -0.40282861462E-01  0.76692252781E-01  0.13007393417E+00  0.19972288217E-01 0.  0.
         14    1    1    2    0    0  0.93014303311E-02  0.20209665067E-01 -0.11594783738E-01  0.25087570194E-01  0.00000000000E+00 0. -1.
     999901    1    3    3    0    0 -0.10425365773E+00  0.20073196395E-01 -0.65097469044E-01  0.88876849564E+00  0.88000000000E+00 0.  1.
        -11    1    4    4    0    0  0.70494079225E-01 -0.38648781845E-01  0.61618428765E-01  0.10129282022E+00  0.51100000000E-03 0. -1.
         11    1    4    4    0    0  0.24458148178E-01 -0.16340796174E-02  0.15073824016E-01  0.28781113946E-01  0.51100000000E-03 0.  1.
</event>
<event>
 8    1  0.1109553E+005  0.1043930E+01  0.7957747E-01            NaN
         13   -1    0    0    0    0  0.00000000000E+00  0.00000000000E+00  0.74505805969E-08  0.10566000000E+00  0.10566000000E+00 0.  1.
     999900   -1    0    0    0    0 -0.00000000000E+00 -0.00000000000E+00 -0.74505805969E-08  0.93827000000E+00  0.93827000000E+00 0.  1.
     999902    2    1    2    0    0 -0.90870679162E-02  0.14049994679E-01 -0.17292586670E-01  0.10198673587E+01  0.10195834535E+01 0.  0.
     999903    2    3    3    0    0  0.14399464357E-01  0.12956224026E+00 -0.28245344840E-02  0.13188986988E+00  0.19830307760E-01 0.  0.
         14    1    1    2    0    0  0.90870679162E-02 -0.14049994679E-01  0.17292586670E-01  0.24062641325E-01  0.00000000000E+00 0.  1.
     999901    1    3    3    0    0 -0.23486532274E-01 -0.11551224558E+00 -0.14468052186E-01  0.88797748880E+00  0.88000000000E+00 0.  1.
        -11    1    4    4    0    0  0.61587633092E-02  0.29359725052E-01  0.71830074374E-02  0.30850940626E-01  0.51100000000E-03 0.  1.
         11    1    4    4    0    0  0.82407010482E-02  0.10020251521E+00 -0.10007541921E-01  0.10103892925E+00  0.51100000000E-03 0. -1.
</event>
<event>
 8    1  0.1109553E+005  0.1043930E+01  0.7957747E-01            NaN
         13   -1    0    0    0    0  0.00000000000E+00  0.00000000000E+00  0.74505805969E-08  0.10566000000E+00  0.10566000000E+00 0.  1.
     999900   -1    0    0    0    0 -0.00000000000E+00 -0.00000000000E+00 -0.74505805969E-08  0.93827000000E+00  0.93827000000E+00 0.  1.
     999902    2    1    2    0    0 -0.39070331069E-03 -0.21286863399E-01 -0.11015703712E-01  0.10199585810E+01  0.10196768498E+01 0.  0.
     999903    2    3    3    0    0  0.83303224585E-02 -0.72875073387E-01 -0.10904141967E+00  0.13297129769E+00  0.20277184500E-01 0.  0.
         14    1    1    2    0    0  0.39070331069E-03  0.21286863399E-01  0.11015703712E-01  0.23971419039E-01  0.00000000000E+00 0.  1.
     999901    1    3    3    0    0 -0.87210257692E-02  0.51588209987E-01  0.98025715960E-01  0.88698728327E+00  0.88000000000E+00 0. -1.
        -11    1    4    4    0    0 -0.20549539222E-02 -0.22360103129E-01 -0.48447670302E-01  0.53400701552E-01  0.51100000000E-03 0. -1.
         11    1    4    4    0    0  0.10385276381E-01 -0.50514970258E-01 -0.60593749370E-01  0.79570596135E-01  0.51100000000E-03 0.  1.
</event>
<event>
 8    1  0.1109553E+005  0.1043930E+01  0.7957747E-01            NaN
         13   -1    0    0    0    0  0.00000000000E+00  0.00000000000E+00  0.74505805969E-08  0.10566000000E+00  0.10566000000E+00 0. -1.
     999900   -1    0    0    0    0 -0.00000000000E+00 -0.00000000000E+00 -0.74505805969E-08  0.93827000000E+00  0.93827000000E+00 0. -1.
     999902    2    1    2    0    0 -0.16123643853E-01  0.15451983050E-01 -0.67600040410E-02  0.10205969049E+01  0.10203301471E+01 0.  0.
     999903    2    3    3    0    0  0.75526208087E-01 -0.84300246829E-01 -0.57986923399E-01  0.12875925154E+00  0.20142538271E-01 0.  0.
         14    1    1    2    0    0  0.16123643853E-01 -0.15451983050E-01  0.67600040410E-02  0.23333095078E-01  0.00000000000E+00 0. -1.
     999901    1    3    3    0    0 -0.91649851940E-01  0.99752229879E-01  0.51226919358E-01  0.89183765338E+00  0.88000000000E+00 0.  1.
        -11    1    4    4    0    0  0.56088687998E-01 -0.70298113621E-01 -0.38306179334E-01  0.97751676181E-01  0.51100000000E-03 0.  1.
         11    1    4    4    0    0  0.19437520089E-01 -0.14002133207E-01 -0.19680744065E-01  0.31007575357E-01  0.51100000000E-03 0. -1.
</event>
<event>
 8    1  0.1109553E+005  0.1043930E+01  0.7957747E-01            NaN
         13   -1    0    0    0    0  0.00000000000E+00  0.00000000000E+00  0.74505805969E-08  0.10566000000E+00  0.10566000000E+00 0. -1.
     999900   -1    0    0    0    0 -0.00000000000E+00 -0.00000000000E+00 -0.74505805969E-08  0.93827000000E+00  0.93827000000E+00 0.  1.
     999902    2    1    2    0    0  0.21882092520E-02  0.21925363197E-01 -0.10276103617E-01  0.10196172849E+01  0.10193273760E+01 0.  0.
     999903    2    3    3    0    0  0.12009689617E+00 -0.18484735321E-01 -0.42414091560E-01  0.13025330720E+00  0.20050410585E-01 0.  0.
         14    1    1    2    0    0 -0.21882092520E-02 -0.21925363197E-01  0.10276103617E-01  0.24312715122E-01  0.00000000000E+00 0.  1.
     999901    1    3    3    0    0 -0.11790868692E+00  0.40410098519E-01  0.32137987944E-01  0.88936397767E+00  0.88000000000E+00 0.  1.
        -11    1    4    4    0    0  0.62266132938E-01 -0.80252074851E-03 -0.16238260181E-01  0.64355711210E-01  0.51100000000E-03 0. -1.
         11    1    4    4    0    0  0.57830763235E-01 -0.17682214573E-01 -0.26175831379E-01  0.65897595995E-01  0.51100000000E-03 0.  1.
</event>
<event>
 8    1  0.1109553E+005  0.1043930E+01  0.7957747E-01            NaN
         13   -1    0    0    0    0  0.00000000000E+00  0.00000000000E+00  0.74505805969E-08  0.10566000000E+00  0.10566000000E+00 0.  1.
     999900   -1    0    0    0    0 -0.00000000000E+00 -0.00000000000E+00 -0.74505805969E-08  0.93827000000E+00  0.93827000000E+00 0.  1.
     999902    2    1    2    0    0  0.20340762120E-01 -0.54692943951E-02  0.10958040515E-01  0.10201868234E+01  0.10199104942E+01 0.  0.
     999903    2    3    3    0    0 -0.90022936367E-01 -0.41942203743E-01  0.81255690096E-01  0.12976435139E+00  0.19313782429E-01 0.  0.
         14    1    1    2    0    0 -0.20340762120E-01  0.54692943951E-02 -0.10958040515E-01  0.23743176635E-01  0.00000000000E+00 0. -1.
     999901    1    3    3    0    0  0.11036369849E+00  0.36472909348E-01 -0.70297649582E-01  0.89042247197E+00  0.88000000000E+00 0. -1.
        -11    1    4    4    0    0 -0.57653235217E-01 -0.36348277634E-01  0.51317551482E-01  0.85316147528E-01  0.51100000000E-03 0. -1.
         11    1    4    4    0    0 -0.32369701151E-01 -0.55939261088E-02  0.29938138614E-01  0.44448203862E-01  0.51100000000E-03 0.  1.
</event>
<event>
 8    1  0.1109553E+005  0.1043930E+01  0.7957747E-01            NaN
         13   -1    0    0    0    0  0.00000000000E+00  0.00000000000E+00  0.74505805969E-08  0.10566000000E+00  0.10566000000E+00 0.  1.
     999900   -1    0    0    0    0 -0.00000000000E+00 -0.00000000000E+00 -0.74505805969E-08  0.93827000000E+00  0.93827000000E+00 0.  1.
     999902    2    1    2    0    0 -0.10742856352E-01  0.14907214633E-01  0.15316798422E-01  0.10200084966E+01  0.10197279514E+01 0.  0.
     999903    2    3    3    0    0  0.66073852856E-01 -0.10780845865E+00  0.95400883898E-02  0.12816023952E+00  0.18590748275E-01 0.  0.
         14    1    1    2    0    0  0.10742856352E-01 -0.14907214633E-01 -0.15316798422E-01  0.23921503394E-01  0.00000000000E+00 0. -1.
     999901    1    3    3    0    0 -0.76816709208E-01  0.12271567328E+00  0.57767100319E-02  0.89184825708E+00  0.88000000000E+00 0.  1.
        -11    1    4    4    0    0  0.28803296065E-01 -0.40226786676E-01 -0.46177998913E-02  0.49693152721E-01  0.51100000000E-03 0.  1.
         11    1    4    4    0    0  0.37270556791E-01 -0.67581671970E-01  0.14157888281E-01  0.78467086803E-01  0.51100000000E-03 0. -1.
</event>
<event>
 8    1  0.1109553E+005  0.1043930E+01  0.7957747E-01            NaN
         13   -1    0    0    0    0  0.00000000000E+00  0.00000000000E+00  0.74505805969E-08  0.10566000000E+00  0.10566000000E+00 0.  1.
     999900   -1    0    0    0    0 -0.00000000000E+00 -0.00000000000E+00 -0.74505805969E-08  0.93827000000E+00  0.93827000000E+00 0. -1.
     999902    2    1    2    0    0  0.31626504892E-02  0.37957354579E-02 -0.20489938177E-01  0.10228528196E+01  0.10226356355E+01 0.  0.
     999903    2    3    3    0    0  0.23484581124E-02  0.11561315267E+00  0.60775488747E-01  0.13206223408E+00  0.19361232136E-01 0.  0.
         14    1    1    2    0    0 -0.31626504892E-02 -0.37957354579E-02  0.20489938177E-01  0.21077180368E-01  0.00000000000E+00 0.  1.
     999901    1    3    3    0    0  0.81419237673E-03 -0.11181741722E+00 -0.81265426924E-01  0.89079058556E+00  0.88000000000E+00 0.  1.
        -11    1    4    4    0    0  0.73752981758E-02  0.83628262561E-01  0.36273760688E-01  0.91455607579E-01  0.51100000000E-03 0.  1.
         11    1    4    4    0    0 -0.50268400634E-02  0.31984890113E-01  0.24501728059E-01  0.40606626496E-01  0.51100000000E-03 0. -1.
</event>
<event>
 8    1  0.1109553E+005  0.1043930E+01  0.7957747E-01            NaN
         13   -1    0    0    0    0  0.00000000000E+00  0.00000000000E+00  0.74505805969E-08  0.10566000000E+00  0.10566000000E+00 0. -1.
     999900   -1    0    0    0    0 -0.00000000000E+00 -0.00000000000E+00 -0.74505805969E-08  0.93827000000E+00  0.93827000000E+00 0. -1.
     999902    2    1    2    0    0  0.51402488262E-02 -0.21454449326E-01 -0.31487256691E-02  0.10216448025E+01  0.10214017194E+01 0.  0.
     999903    2    3    3    0    0  0.65303936461E-01 -0.11518645513E+00 -0.13635222150E-01  0.13456232335E+00  0.19712331651E-01 0.  0.
         14    1    1    2    0    0 -0.51402488262E-02  0.21454449326E-01  0.31487256691E-02  0.22285197491E-01  0.00000000000E+00 0.  1.
     999901    1    3    3    0    0 -0.60163687635E-01  0.93732005805E-01  0.10486496481E-01  0.88708247916E+00  0.88000000000E+00 0.  1.
        -11    1    4    4    0    0  0.20955095523E-01 -0.54395377016E-01 -0.10602739220E-01  0.59250757540E-01  0.51100000000E-03 0.  1.
         11    1    4    4    0    0  0.44348840938E-01 -0.60791078116E-01 -0.30324829294E-02  0.75311565810E-01  0.51100000000E-03 0. -1.
</event>
<event>
 8    1  0.1109553E+005  0.1043930E+01  0.7957747E-01            NaN
         13   -1    0    0    0    0  0.00000000000E+00  0.00000000000E+00  0.74505805969E-08  0.10566000000E+00  0.10566000000E+00 0. -1.
     999900   -1    0    0    0    0 -0.00000000000E+00 -0.00000000000E+00 -0.74505805969E-08  0.93827000000E+00  0.93827000000E+00 0.  1.
     999902    2    1    2    0    0 -0.98273507944E-02 -0.20560489507E-01  0.68850728571E-02  0.10201242280E+01  0.10198464226E+01 0.  0.
     999903    2    3    3    0    0 -0.27890180218E-01 -0.10854894433E+00 -0.67688551387E-01  0.13241399407E+00  0.19773476388E-01 0.  0.
         14    1    1    2    0    0  0.98273507944E-02  0.20560489507E-01 -0.68850728571E-02  0.23805772003E-01  0.00000000000E+00 0. -1.
     999901    1    3    3    0    0  0.18062829423E-01  0.87988454823E-01  0.74573624244E-01  0.88771023393E+00  0.88000000000E+00 0.  1.
        -11    1    4    4    0    0 -0.27401375124E-01 -0.85567666657E-01 -0.60517311854E-01  0.10832943779E+00  0.51100000000E-03 0.  1.
         11    1    4    4    0    0 -0.48880509385E-03 -0.22981277673E-01 -0.71712395326E-02  0.24084556283E-01  0.51100000000E-03 0. -1.
</event>
<event>
 8    1  0.1109553E+005  0.1043930E+01  0.7957747E-01            NaN
         13   -1    0    0    0    0  0.00000000000E+00  0.00000000000E+00  0.74505805969E-08  0.10566000000E+00  0.10566000000E+00 0. -1.
     999900   -1    0    0    0    0 -0.00000000000E+00 -0.00000000000E+00 -0.74505805969E-08  0.93827000000E+00  0.93827000000E+00 0. -1.
     999902    2    1    2    0    0  0.62819387238E-02 -0.16506539470E-01  0.15814585571E-01  0.10202228341E+01  0.10199473523E+01 0.  0.
     999903    2    3    3    0    0 -0.36814289083E-01 -0.17977113257E-01  0.12443525243E+00  0.13249658308E+00  0.19817769732E-01 0.  0.
         14    1    1    2    0    0 -0.62819387238E-02  0.16506539470E-01 -0.15814585571E-01  0.23707165925E-01  0.00000000000E+00 0.  1.
     999901    1    3    3    0    0  0.43096227807E-01  0.14705737862E-02 -0.10862066686E+00  0.88772625100E+00  0.88000000000E+00 0. -1.
        -11    1    4    4    0    0 -0.29767472987E-01 -0.18450973869E-01  0.77722445395E-01  0.85250105712E-01  0.51100000000E-03 0.  1.
         11    1    4    4    0    0 -0.70468160968E-02  0.47386061277E-03  0.46712807040E-01  0.47246477366E-01  0.51100000000E-03 0. -1.
</event>
<event>
 8    1  0.1109553E+005  0.1043930E+01  0.7957747E-01            NaN
         13   -1    0    0    0    0  0.00000000000E+00  0.00000000000E+00  0.74505805969E-08  0.10566000000E+00  0.10566000000E+00 0.  1.
     999900   -1    0    0    0    0 -0.00000000000E+00 -0.00000000000E+00 -0.74505805969E-08  0.93827000000E+00  0.93827000000E+00 0. -1.
     999902    2    1    2    0    0 -0.10779812312E-02 -0.22481202459E-01  0.77676346806E-02  0.10201202823E+01  0.10198423838E+01 0.  0.
     999903    2    3    3    0    0 -0.10375638737E+00 -0.78624389322E-01 -0.10656934947E-01  0.13218200897E+00  0.20281289767E-01 0.  0.
         14    1    1    2    0    0  0.10779812312E-02  0.22481202459E-01 -0.77676346806E-02  0.23809717681E-01  0.00000000000E+00 0. -1.
     999901    1    3    3    0    0  0.10267840614E+00  0.56143186863E-01  0.18424569628E-01  0.88793827335E+00  0.88000000000E+00 0.  1.
        -11    1    4    4    0    0 -0.47494536105E-01 -0.24849895632E-01 -0.88591023827E-02  0.54332247227E-01  0.51100000000E-03 0. -1.
         11    1    4    4    0    0 -0.56261851269E-01 -0.53774493690E-01 -0.17978325645E-02  0.77849761738E-01  0.51100000000E-03 0.  1.
</event>
<event>
 8    1  0.1109553E+005  0.1043930E+01  0.7957747E-01            NaN
         13   -1    0    0    0    0  0.00000000000E+00  0.00000000000E+00  0.74505805969E-08  0.10566000000E+00  0.10566000000E+00 0.  1.
     999900   -1    0    0    0    0 -0.00000000000E+00 -0.00000000000E+00 -0.74505805969E-08  0.93827000000E+00  0.93827000000E+00 0. -1.
     999902    2    1    2    0    0 -0.49295876917E-02  0.12912256575E-01 -0.12609977841E-01  0.10252206776E+01  0.10250499495E+01 0.  0.
     999903    2    3    3    0    0  0.67346851706E-01 -0.10683151189E+00  0.36036957228E-01  0.13284800986E+00  0.20033997869E-01 0.  0.
         14    1    1    2    0    0  0.49295876917E-02 -0.12912256575E-01  0.12609977841E-01  0.18709322431E-01  0.00000000000E+00 0.  1.
     999901    1    3    3    0    0 -0.72276439397E-01  0.11974376847E+00 -0.48646935069E-01  0.89237266771E+00  0.88000000000E+00 0. -1.
        -11    1    4    4    0    0  0.41007911169E-02 -0.17162255370E-01  0.10898945233E-02  0.17686392742E-01  0.51100000000E-03 0.  1.
         11    1    4    4    0    0  0.63246060589E-01 -0.89669256521E-01  0.34947062705E-01  0.11516161712E+00  0.51100000000E-03 0. -1.
</event>
<event>
 8    1  0.1109553E+005  0.1043930E+01  0.7957747E-01            NaN
         13   -1    0    0    0    0  0.00000000000E+00  0.00000000000E+00  0.74505805969E-08  0.10566000000E+00  0.10566000000E+00 0. -1.
     999900   -1    0    0    0    0 -0.00000000000E+00 -0.00000000000E+00 -0.74505805969E-08  0.93827000000E+00  0.93827000000E+00 0.  1.
     999902    2    1    2    0    0 -0.12274090375E-01 -0.16659537824E-01 -0.11426338489E-01  0.10202920071E+01  0.10200181494E+01 0.  0.
     999903    2    3    3    0    0  0.86251487004E-01  0.73582919153E-01  0.55522737340E-01  0.12769289825E+00  0.19207730236E-01 0.  0.
         14    1    1    2    0    0  0.12274090375E-01  0.16659537824E-01  0.11426338489E-01  0.23637992857E-01  0.00000000000E+00 0. -1.
     999901    1    3    3    0    0 -0.98525577379E-01 -0.90242456977E-01 -0.66949075829E-01  0.89259910889E+00  0.88000000000E+00 0.  1.
        -11    1    4    4    0    0  0.43031529604E-01  0.26197336550E-01  0.18721224058E-01  0.53747170471E-01  0.51100000000E-03 0.  1.
         11    1    4    4    0    0  0.43219957400E-01  0.47385582602E-01  0.36801513282E-01  0.73945727781E-01  0.51100000000E-03 0. -1.
</event>
<event>
 8    1  0.1109553E+005  0.1043930E+01  0.7957747E-01            NaN
         13   -1    0    0    0    0  0.00000000000E+00  0.00000000000E+00  0.74505805969E-08  0.10566000000E+00  0.10566000000E+00 0.  1.
     999900   -1    0    0    0    0 -0.00000000000E+00 -0.00000000000E+00 -0.74505805969E-08  0.93827000000E+00  0.93827000000E+00 0. -1.
     999902    2    1    2    0    0 -0.39264587764E-02  0.20364721455E-01  0.14133727893E-01  0.10188321670E+01  0.10185229910E+01 0.  0.
     999903    2    3    3    0    0  0.12169515615E+00 -0.23809026386E-01 -0.26588885616E-01  0.12788298695E+00  0.16447150081E-01 0.  0.
         14    1    1    2    0    0  0.39264587764E-02 -0.20364721455E-01 -0.14133727893E-01  0.25097833026E-01  0.00000000000E+00 0. -1.
     999901    1    3    3    0    0 -0.12562161492E+00  0.44173747840E-01  0.40722613509E-01  0.89094918002E+00  0.88000000000E+00 0.  1.
        -11    1    4    4    0    0  0.50967806101E-01 -0.18293610833E-02 -0.97351809879E-02  0.51923970289E-01  0.51100000000E-03 0.  1.
         11    1    4    4    0    0  0.70727350046E-01 -0.21979665303E-01 -0.16853704628E-01  0.75959016661E-01  0.51100000000E-03 0. -1.
</event>
<event>
 8    1  0.1109553E+005  0.1043930E+01  0.7957747E-01            NaN
         13   -1    0    0    0    0  0.00000000000E+00  0.00000000000E+00  0.74505805969E-08  0.10566000000E+00  0.10566000000E+00 0. -1.
     999900   -1    0    0    0    0 -0.00000000000E+00 -0.00000000000E+00 -0.74505805969E-08  0.93827000000E+00  0.93827000000E+00 0. -1.
     999902    2    1    2    0    0  0.34033103334E-02 -0.28240405646E-01  0.11434913846E-01  0.10132728591E+01  0.10128089784E+01 0.  0.
     999903    2    3    3    0    0  0.85221330056E-01  0.41682358221E-01  0.77690883129E-01  0.12424348125E+00  0.20011877151E-01 0.  0.
         14    1    1    2    0    0 -0.34033103334E-02  0.28240405646E-01 -0.11434913846E-01  0.30657140880E-01  0.00000000000E+00 0.  1.
     999901    1    3    3    0    0 -0.81818019723E-01 -0.69922763868E-01 -0.66255969284E-01  0.88902937787E+00  0.88000000000E+00 0. -1.
        -11    1    4    4    0    0  0.63418820194E-02  0.75406901368E-02  0.14599884118E-01  0.17620987843E-01  0.51100000000E-03 0. -1.
         11    1    4    4    0    0  0.78879448037E-01  0.34141668085E-01  0.63090999011E-01  0.10662249340E+00  0.51100000000E-03 0.  1.
</event>
<event>
 8    1  0.1109553E+005  0.1043930E+01  0.7957747E-01            NaN
         13   -1    0    0    0    0  0.00000000000E+00  0.00000000000E+00  0.74505805969E-08  0.10566000000E+00  0.10566000000E+00 0. -1.
     999900   -1    0    0    0    0 -0.00000000000E+00 -0.00000000000E+00 -0.74505805969E-08  0.93827000000E+00  0.93827000000E+00 0.  1.
     999902    2    1    2    0    0  0.69754704877E-02  0.19916467100E-01 -0.10104167775E-01  0.10205330545E+01  0.10202648178E+01 0.  0.
     999903    2    3    3    0    0 -0.12768376186E+00  0.19491826705E-01 -0.15370157630E-01  0.13027409232E+00  0.72126994615E-02 0.  0.
         14    1    1    2    0    0 -0.69754704877E-02 -0.19916467100E-01  0.10104167775E-01  0.23396945457E-01  0.00000000000E+00 0. -1.
     999901    1    3    3    0    0  0.13465923234E+00  0.42464039551E-03  0.52659898555E-02  0.89025896223E+00  0.88000000000E+00 0.  1.
        -11    1    4    4    0    0 -0.68446346199E-01  0.13800357714E-01 -0.69905205235E-02  0.70174644133E-01  0.51100000000E-03 0.  1.
         11    1    4    4    0    0 -0.59237415657E-01  0.56914689907E-02 -0.83796371067E-02  0.60099448184E-01  0.51100000000E-03 0. -1.
</event>
<event>
 8    1  0.1109553E+005  0.1043930E+01  0.7957747E-01            NaN
         13   -1    0    0    0    0  0.00000000000E+00  0.00000000000E+00  0.74505805969E-08  0.10566000000E+00  0.10566000000E+00 0.  1.
     999900   -1    0    0    0    0 -0.00000000000E+00 -0.00000000000E+00 -0.74505805969E-08  0.93827000000E+00  0.93827000000E+00 0.  1.
     999902    2    1    2    0    0  0.75326772176E-02 -0.17206748781E-01  0.14232900861E-01  0.10203633096E+01  0.10200911208E+01 0.  0.
     999903    2    3    3    0    0 -0.26928827512E-01 -0.26289758553E-01  0.12560545003E+00  0.13262802186E+00  0.19928621380E-01 0.  0.
         14    1    1    2    0    0 -0.75326772176E-02  0.17206748781E-01 -0.14232900861E-01  0.23566690404E-01  0.00000000000E+00 0. -1.
     999901    1    3    3    0    0  0.34461504729E-01  0.90830097720E-02 -0.11137254917E+00  0.88773528773E+00  0.88000000000E+00 0.  1.
        -11    1    4    4    0    0 -0.15938936756E-01 -0.10255765773E-01  0.90804146284E-01  0.92762516891E-01  0.51100000000E-03 0.  1.
         11    1    4    4    0    0 -0.10989890756E-01 -0.16033992780E-01  0.34801303748E-01  0.39865504974E-01  0.51100000000E-03 0. -1.
</event>
<event>
 8    1  0.1109553E+005  0.1043930E+01  0.7957747E-01            NaN
         13   -1    0    0    0    0  0.00000000000E+00  0.00000000000E+00  0.74505805969E-08  0.10566000000E+00  0.10566000000E+00 0.  1.
     999900   -1    0    0    0    0 -0.00000000000E+00 -0.00000000000E+00 -0.74505805969E-08  0.93827000000E+00  0.93827000000E+00 0.  1.
     999902    2    1    2    0    0  0.63338893968E-02  0.16660266605E-01  0.16397706963E-01  0.10197108458E+01  0.10194231906E+01 0.  0.
     999903    2    3    3    0    0  0.28690581908E-01  0.74841129432E-01  0.10478467393E+00  0.13308968065E+00  0.17569606125E-01 0.  0.
         14    1    1    2    0    0 -0.63338893968E-02 -0.16660266605E-01 -0.16397706963E-01  0.24219154235E-01  0.00000000000E+00 0. -1.
     999901    1    3    3    0    0 -0.22356692511E-01 -0.58180862827E-01 -0.88386966971E-01  0.88662116511E+00  0.88000000000E+00 0.  1.
        -11    1    4    4    0    0  0.21545170956E-01  0.56156055238E-01  0.89828375947E-01  0.10810686924E+00  0.51100000000E-03 0. -1.
         11    1    4    4    0    0  0.71454109517E-02  0.18685074194E-01  0.14956297986E-01  0.24982811406E-01  0.51100000000E-03 0.  1.
</event>
<event>
 8    1  0.1109553E+005  0.1043930E+01  0.7957747E-01            NaN
         13   -1    0    0    0    0  0.00000000000E+00  0.00000000000E+00  0.74505805969E-08  0.10566000000E+00  0.10566000000E+00 0.  1.
     999900   -1    0    0    0    0 -0.00000000000E+00 -0.00000000000E+00 -0.74505805969E-08  0.93827000000E+00  0.93827000000E+00 0. -1.
     999902    2    1    2    0    0  0.39824585634E-02 -0.11272131986E-02 -0.23859594986E-01  0.10197140784E+01  0.10194265010E+01 0.  0.
     999903    2    3    3    0    0 -0.90829865085E-01  0.84665438848E-01 -0.34785220553E-01  0.13040584997E+00  0.19426096159E-01 0.  0.
         14    1    1    2    0    0 -0.39824585634E-02  0.11272131986E-02  0.23859594986E-01  0.24215921595E-01  0.00000000000E+00 0.  1.
     999901    1    3    3    0    0  0.94812323649E-01 -0.85792652046E-01  0.10925625567E-01  0.88930822843E+00  0.88000000000E+00 0.  1.
        -11    1    4    4    0    0 -0.60920563498E-01  0.49144818932E-01 -0.13948901440E-01  0.79506988732E-01  0.51100000000E-03 0. -1.
         11    1    4    4    0    0 -0.29909301587E-01  0.35520619916E-01 -0.20836319113E-01  0.50898861243E-01  0.51100000000E-03 0.  1.
</event>
<event>
 8    1  0.1109553E+005  0.1043930E+01  0.7957747E-01            NaN
         13   -1    0    0    0    0  0.00000000000E+00  0.00000000000E+00  0.74505805969E-08  0.10566000000E+00  0.10566000000E+00 0.  1.
     999900   -1    0    0    0    0 -0.00000000000E+00 -0.00000000000E+00 -0.74505805969E-08  0.93827000000E+00  0.93827000000E+00 0.  1.
     999902    2    1    2    0    0 -0.13419307639E-01 -0.11189787189E-01  0.16169245841E-01  0.10201238313E+01  0.10198460166E+01 0.  0.
     999903    2    3    3    0    0  0.88025076585E-01 -0.77281625351E-01  0.57940678767E-01  0.13085224922E+00  0.66577133042E-02 0.  0.
         14    1    1    2    0    0  0.13419307639E-01  0.11189787189E-01 -0.16169245841E-01  0.23806168653E-01  0.00000000000E+00 0. -1.
     999901    1    3    3    0    0 -0.10144438422E+00  0.66091838162E-01 -0.41771432926E-01  0.88927158212E+00  0.88000000000E+00 0. -1.
        -11    1    4    4    0    0  0.70428062580E-01 -0.65051876722E-01  0.46566542772E-01  0.10658594040E+00  0.51100000000E-03 0.  1.
         11    1    4    4    0    0  0.17597014006E-01 -0.12229748629E-01  0.11374135995E-01  0.24266308827E-01  0.51100000000E-03 0. -1.
</event>
<event>
 8    1  0.1109553E+005  0.1043930E+01  0.7957747E-01            NaN
         13   -1    0    0    0    0  0.00000000000E+00  0.00000000000E+00  0.74505805969E-08  0.10566000000E+00  0.10566000000E+00 0.  1.
     999900   -1    0    0    0    0 -0.00000000000E+00 -0.00000000000E+00 -0.74505805969E-08  0.93827000000E+00  0.93827000000E+00 0. -1.
     999902    2    1    2    0    0 -0.21932532351E-01  0.13550435033E-02 -0.92480138311E-02  0.10200889036E+01  0.10198102634E+01 0.  0.
     999903    2    3    3    0    0 -0.72297967342E-01  0.94531996040E-01  0.53492655419E-01  0.13151982181E+00  0.16513781725E-01 0.  0.
         14    1    1    2    0    0  0.21932532351E-01 -0.13550435033E-02  0.92480138311E-02  0.23841096410E-01  0.00000000000E+00 0.  1.
     999901    1    3    3    0    0  0.50365434991E-01 -0.93176952536E-01 -0.62740669250E-01  0.88856908178E+00  0.88000000000E+00 0.  1.
        -11    1    4    4    0    0 -0.37535699518E-01  0.37899723365E-01  0.18824440375E-01  0.56567998426E-01  0.51100000000E-03 0. -1.
         11    1    4    4    0    0 -0.34762267823E-01  0.56632272675E-01  0.34668215044E-01  0.74951823380E-01  0.51100000000E-03 0.  1.
</event>
<event>
 8    1  0.1109553E+005  0.1043930E+01  0.7957747E-01            NaN
         13   -1    0    0    0    0  0.00000000000E+00  0.00000000000E+00  0.74505805969E-08  0.10566000000E+00  0.10566000000E+00 0.  1.
     999900   -1    0    0    0    0 -0.00000000000E+00 -0.00000000000E+00 -0.74505805969E-08  0.93827000000E+00  0.93827000000E+00 0.  1.
     999902    2    1    2    0    0 -0.21353313514E-01  0.72361637479E-02  0.27749171393E-02  0.10212137893E+01  0.10209611047E+01 0.  0.
     999903    2    3    3    0    0  0.11015174389E+00  0.34171349017E-01 -0.54581375675E-01  0.12918866148E+00  0.20236005248E-01 0.  0.
         14    1    1    2    0    0  0.21353313514E-01 -0.72361637479E-02 -0.27749171393E-02  0.22716210709E-01  0.00000000000E+00 0. -1.
     999901    1    3    3    0    0 -0.13150505740E+00 -0.26935185269E-01  0.57356292814E-01  0.89202512781E+00  0.88000000000E+00 0. -1.
        -11    1    4    4    0    0  0.41502497220E-01  0.15842914404E-01 -0.10774528926E-01  0.45714404807E-01  0.51100000000E-03 0. -1.
         11    1    4    4    0    0  0.68649246669E-01  0.18328434613E-01 -0.43806846748E-01  0.83474256670E-01  0.51100000000E-03 0.  1.
</event>
<event>
 8    1  0.1109553E+005  0.1043930E+01  0.7957747E-01            NaN
         13   -1    0    0    0    0  0.00000000000E+00  0.00000000000E+00  0.74505805969E-08  0.10566000000E+00  0.10566000000E+00 0. -1.
     999900   -1    0    0    0    0 -0.00000000000E+00 -0.00000000000E+00 -0.74505805969E-08  0.93827000000E+00  0.93827000000E+00 0. -1.
     999902    2    1    2    0    0 -0.12069196219E-01  0.63482128033E-02  0.16849178554E-01  0.10222537429E+01  0.10220239013E+01 0.  0.
     999903    2    3    3    0    0  0.14996430658E-01 -0.10075024021E+00 -0.78646990588E-01  0.13022115096E+00  0.19917208488E-01 0.  0.
         14    1    1    2    0    0  0.12069196219E-01 -0.63482128033E-02 -0.16849178554E-01  0.21676257082E-01  0.00000000000E+00 0.  1.
     999901    1    3    3    0    0 -0.27065626877E-01  0.10709845301E+00  0.95496169142E-01  0.89203259196E+00  0.88000000000E+00 0.  1.
        -11    1    4    4    0    0  0.17791047673E-01 -0.52166013927E-01 -0.41253708221E-01  0.68847250847E-01  0.51100000000E-03 0.  1.
         11    1    4    4    0    0 -0.27946170152E-02 -0.48584226282E-01 -0.37393282367E-01  0.61373900112E-01  0.51100000000E-03 0. -1.
</event>
<event>
 8    1  0.1109553E+005  0.1043930E+01  0.7957747E-01            NaN
         13   -1    0    0    0    0  0.00000000000E+00  0.00000000000E+00  0.74505805969E-08  0.10566000000E+00  0.10566000000E+00 0. -1.
     999900   -1    0    0    0    0 -0.00000000000E+00 -0.00000000000E+00 -0.74505805969E-08  0.93827000000E+00  0.93827000000E+00 0.  1.
     999902    2    1    2    0    0 -0.14547491384E-01 -0.76200503384E-02 -0.15068671491E-01  0.10216418970E+01  0.10213987499E+01 0.  0.
     999903    2    3    3    0    0 -0.56234701005E-01  0.11115694788E+00 -0.32634863237E-01  0.13251065260E+00  0.31238279322E-01 0.  0.
         14    1    1    2    0    0  0.14547491384E-01  0.76200503384E-02  0.15068671491E-01  0.22288102953E-01  0.00000000000E+00 0. -1.
     999901    1    3    3    0    0  0.41687209621E-01 -0.11877699822E+00  0.17566191746E-01  0.88913124444E+00  0.88000000000E+00 0. -1.
        -11    1    4    4    0    0 -0.26897468512E-01  0.47645583767E-01 -0.30221542713E-01  0.62507425398E-01  0.51100000000E-03 0.  1.
         11    1    4    4    0    0 -0.29337232493E-01  0.63511364117E-01 -0.24133205237E-02  0.70003227206E-01  0.51100000000E-03 0. -1.
</event>
<event>
 8    1  0.1109553E+005  0.1043930E+01  0.7957747E-01            NaN
         13   -1    0    0    0    0  0.00000000000E+00  0.00000000000E+00  0.74505805969E-08  0.10566000000E+00  0.10566000000E+00 0.  1.
     999900   -1    0    0    0    0 -0.00000000000E+00 -0.00000000000E+00 -0.74505805969E-08  0.93827000000E+00  0.93827000000E+00 0. -1.
     999902    2    1    2    0    0  0.12041657457E-01 -0.12205089198E-01  0.16929142850E-01  0.10198351542E+01  0.10195504794E+01 0.  0.
     999903    2    3    3    0    0 -0.77481321473E-01  0.60945143540E-02 -0.99142840864E-01  0.12752245976E+00  0.19803448350E-01 0.  0.
         14    1    1    2    0    0 -0.12041657457E-01  0.12205089198E-01 -0.16929142850E-01  0.24094845804E-01  0.00000000000E+00 0. -1.
     999901    1    3    3    0    0  0.89522978930E-01 -0.18299603552E-01  0.11607198371E+00  0.89231269444E+00  0.88000000000E+00 0.  1.
        -11    1    4    4    0    0 -0.37576143120E-01 -0.67812724890E-02 -0.44355848252E-01  0.58529091771E-01  0.51100000000E-03 0. -1.
         11    1    4    4    0    0 -0.39905178352E-01  0.12875786843E-01 -0.54786992613E-01  0.68993367991E-01  0.51100000000E-03 0.  1.
</event>
<event>
 8    1  0.1109553E+005  0.1043930E+01  0.7957747E-01            NaN
         13   -1    0    0    0    0  0.00000000000E+00  0.00000000000E+00  0.74505805969E-08  0.10566000000E+00  0.10566000000E+00 0. -1.
     999900   -1    0    0    0    0 -0.00000000000E+00 -0.00000000000E+00 -0.74505805969E-08  0.93827000000E+00  0.93827000000E+00 0.  1.
     999902    2    1    2    0    0  0.17183220648E-01 -0.30005841114E-02  0.18239192453E-01  0.10186924344E+01  0.10183797627E+01 0.  0.
     999903    2    3    3    0    0 -0.32553914857E-02 -0.84068986326E-01 -0.92120697659E-01  0.12786746389E+00  0.28029865322E-01 0.  0.
         14    1    1    2    0    0 -0.17183220648E-01  0.30005841114E-02 -0.18239192453E-01  0.25237565616E-01  0.00000000000E+00 0.  1.
     999901    1    3    3    0    0  0.20438612134E-01  0.81068402215E-01  0.11035989011E+00  0.89082497049E+00  0.88000000000E+00 0. -1.
        -11    1    4    4    0    0  0.51359095782E-02 -0.35907721094E-01 -0.57402363853E-01  0.67904598506E-01  0.51100000000E-03 0. -1.
         11    1    4    4    0    0 -0.83913010639E-02 -0.48161265232E-01 -0.34718333805E-01  0.59962865388E-01  0.51100000000E-03 0.  1.
</event>
<event>
 8    1  0.1109553E+005  0.1043930E+01  0.7957747E-01            NaN
         13   -1    0    0    0    0  0.00000000000E+00  0.00000000000E+00  0.74505805969E-08  0.10566000000E+00  0.10566000000E+00 0. -1.
     999900   -1    0    0    0    0 -0.00000000000E+00 -0.00000000000E+00 -0.74505805969E-08  0.93827000000E+00  0.93827000000E+00 0. -1.
     999902    2    1    2    0    0 -0.20171148536E-02 -0.37793966471E-01 -0.34013471328E-02  0.10059297129E+01  0.10052117019E+01 0.  0.
     999903    2    3    3    0    0  0.55571676181E-01 -0.96334780439E-01 -0.43857758791E-01  0.12118103846E+00  0.19817667905E-01 0.  0.
         14    1    1    2    0    0  0.20171148536E-02  0.37793966471E-01  0.34013471328E-02  0.38000287055E-01  0.00000000000E+00 0. -1.
     999901    1    3    3    0    0 -0.57588791034E-01  0.58540813969E-01  0.40456411659E-01  0.88474867448E+00  0.88000000000E+00 0.  1.
        -11    1    4    4    0    0  0.54584974821E-01 -0.82325894027E-01 -0.36404934082E-01  0.10527417846E+00  0.51100000000E-03 0. -1.
         11    1    4    4    0    0  0.98670135932E-03 -0.14008886412E-01 -0.74528247097E-02  0.15906860006E-01  0.51100000000E-03 0.  1.
</event>
<event>
 8    1  0.1109553E+005  0.1043930E+01  0.7957747E-01            NaN
         13   -1    0    0    0    0  0.00000000000E+00  0.00000000000E+00  0.74505805969E-08  0.10566000000E+00  0.10566000000E+00 0.  1.
     999900   -1    0    0    0    0 -0.00000000000E+00 -0.00000000000E+00 -0.74505805969E-08  0.93827000000E+00  0.93827000000E+00 0. -1.
     999902    2    1    2    0    0 -0.30848832154E-01  0.57367337631E-02 -0.19735527326E-01  0.10068617980E+01  0.10061792230E+01 0.  0.
     999903    2    3    3    0    0 -0.11590910967E+00 -0.13065654825E-01 -0.31695363880E-01  0.12247963044E+00  0.19774497265E-01 0.  0.
         14    1    1    2    0    0  0.30848832154E-01 -0.57367337631E-02  0.19735527326E-01  0.37068201985E-01  0.00000000000E+00 0.  1.
     999901    1    3    3    0    0  0.85060277515E-01  0.18802388588E-01  0.11959836554E-01  0.88438216757E+00  0.88000000000E+00 0.  1.
        -11    1    4    4    0    0 -0.73337651666E-01 -0.29691179644E-02 -0.28035542113E-01  0.78571493278E-01  0.51100000000E-03 0. -1.
         11    1    4    4    0    0 -0.42571458002E-01 -0.10096536861E-01 -0.36598217670E-02  0.43908137166E-01  0.51100000000E-03 0.  1.
</event>
<event>
 8    1  0.1109553E+005  0.1043930E+01  0.7957747E-01            NaN
         13   -1    0    0    0    0  0.00000000000E+00  0.00000000000E+00  0.74505805969E-08  0.10566000000E+00  0.10566000000E+00 0.  1.
     999900   -1    0    0    0    0 -0.00000000000E+00 -0.00000000000E+00 -0.74505805969E-08  0.93827000000E+00  0.93827000000E+00 0. -1.
     999902    2    1    2    0    0  0.16244924001E-01  0.61300015455E-02 -0.21722080525E-01  0.10161213097E+01  0.10157407114E+01 0.  0.
     999903    2    3    3    0    0  0.54292014613E-02 -0.12300767999E+00  0.16429103892E-01  0.12581291732E+00  0.19965198353E-01 0.  0.
         14    1    1    2    0    0 -0.16244924001E-01 -0.61300015455E-02  0.21722080525E-01  0.27808690316E-01  0.00000000000E+00 0.  1.
     999901    1    3    3    0    0  0.10815722540E-01  0.12913768153E+00 -0.38151184417E-01  0.89030839237E+00  0.88000000000E+00 0.  1.
        -11    1    4    4    0    0 -0.34652087847E-02 -0.36210237315E-01 -0.27272032307E-02  0.36481333813E-01  0.51100000000E-03 0. -1.
         11    1    4    4    0    0  0.88944102460E-02 -0.86797442671E-01  0.19156307123E-01  0.89331583504E-01  0.51100000000E-03 0.  1.
</event>
<event>
 8    1  0.1109553E+005  0.1043930E+01  0.7957747E-01            NaN
         13   -1    0    0    0    0  0.00000000000E+00  0.00000000000E+00  0.74505805969E-08  0.10566000000E+00  0.10566000000E+00 0.  1.
     999900   -1    0    0    0    0 -0.00000000000E+00 -0.00000000000E+00 -0.74505805969E-08  0.93827000000E+00  0.93827000000E+00 0.  1.
     999902    2    1    2    0    0  0.17948052439E-01 -0.14544261187E-01  0.13810379531E-02  0.10207874983E+01  0.10205251301E+01 0.  0.
     999903    2    3    3    0    0 -0.11733365543E-01  0.10949782233E+00  0.64753877148E-01  0.12933725189E+00  0.20189481365E-01 0.  0.
         14    1    1    2    0    0 -0.17948052439E-01  0.14544261187E-01 -0.13810379531E-02  0.23142501716E-01  0.00000000000E+00 0. -1.
     999901    1    3    3    0    0  0.29681417982E-01 -0.12404208352E+00 -0.63372839195E-01  0.89145024640E+00  0.88000000000E+00 0. -1.
        -11    1    4    4    0    0  0.35512052008E-02  0.43871063941E-01  0.19349701797E-01  0.48082776441E-01  0.51100000000E-03 0.  1.
         11    1    4    4    0    0 -0.15284570743E-01  0.65626758388E-01  0.45404175352E-01  0.81254475444E-01  0.51100000000E-03 0. -1.
</event>
<event>
 8    1  0.1109553E+005  0.1043930E+01  0.7957747E-01            NaN
         13   -1    0    0    0    0  0.00000000000E+00  0.00000000000E+00  0.74505805969E-08  0.10566000000E+00  0.10566000000E+00 0. -1.
     999900   -1    0    0    0    0 -0.00000000000E+00 -0.00000000000E+00 -0.74505805969E-08  0.93827000000E+00  0.93827000000E+00 0.  1.
     999902    2    1    2    0    0 -0.16549665738E-01 -0.15288867909E-01  0.68938782749E-02  0.10203680290E+01  0.10200959505E+01 0.  0.
     999903    2    3    3    0    0  0.55790263085E-01 -0.10924335094E+00 -0.41769657842E-01  0.13108255747E+00  0.19780530258E-01 0.  0.
         14    1    1    2    0    0  0.16549665738E-01  0.15288867909E-01 -0.68938782749E-02  0.23561970963E-01  0.00000000000E+00 0.  1.
     999901    1    3    3    0    0 -0.72339928823E-01  0.93954483035E-01  0.48663536117E-01  0.88928547156E+00  0.88000000000E+00 0. -1.
        -11    1    4    4    0    0  0.10463755458E-01 -0.36698732494E-01 -0.18611683837E-01  0.42461076778E-01  0.51100000000E-03 0. -1.
         11    1    4    4    0    0  0.45326507628E-01 -0.72544618450E-01 -0.23157974005E-01  0.88621480696E-01  0.51100000000E-03 0.  1.
</event>
<event>
 8    1  0.1109553E+005  0.1043930E+01  0.7957747E-01            NaN
         13   -1    0    0    0    0  0.00000000000E+00  0.00000000000E+00  0.74505805969E-08  0.10566000000E+00  0.10566000000E+00 0.  1.
     999900   -1    0    0    0    0 -0.00000000000E+00 -0.00000000000E+00 -0.74505805969E-08  0.93827000000E+00  0.93827000000E+00 0. -1.
     999902    2    1    2    0    0 -0.22192007278E-01 -0.59795175539E-02 -0.40578326484E-03  0.10209429498E+01  0.10206841344E+01 0.  0.
     999903    2    3    3    0    0 -0.12062599024E+00  0.16207912516E-01  0.49562465601E-01  0.13376858308E+00  0.24985393180E-01 0.  0.
         14    1    1    2    0    0  0.22192007278E-01  0.59795175539E-02  0.40578326484E-03  0.22987050208E-01  0.00000000000E+00 0.  1.
     999901    1    3    3    0    0  0.98433982966E-01 -0.22187430070E-01 -0.49968248865E-01  0.88717436671E+00  0.88000000000E+00 0.  1.
        -11    1    4    4    0    0 -0.68734169445E-01  0.34116262938E-03  0.18256577079E-01  0.71120082739E-01  0.51100000000E-03 0. -1.
         11    1    4    4    0    0 -0.51891820799E-01  0.15866749886E-01  0.31305888521E-01  0.62648500341E-01  0.51100000000E-03 0.  1.
</event>
<event>
 8    1  0.1109553E+005  0.1043930E+01  0.7957747E-01            NaN
         13   -1    0    0    0    0  0.00000000000E+00  0.00000000000E+00  0.74505805969E-08  0.10566000000E+00  0.10566000000E+00 0. -1.
     999900   -1    0    0    0    0 -0.00000000000E+00 -0.00000000000E+00 -0.74505805969E-08  0.93827000000E+00  0.93827000000E+00 0. -1.
     999902    2    1    2    0    0 -0.12681019950E-01  0.47138470245E-03 -0.20034037993E-01  0.10202151703E+01  0.10199395083E+01 0.  0.
     999903    2    3    3    0    0 -0.11269371921E+00 -0.19742411659E-01 -0.65240466603E-01  0.13316682956E+00  0.19683720340E-01 0.  0.
         14    1    1    2    0    0  0.12681019950E-01 -0.47138470245E-03  0.20034037993E-01  0.23714829724E-01  0.00000000000E+00 0. -1.
     999901    1    3    3    0    0  0.10001269926E+00  0.20213796361E-01  0.45206428610E-01  0.88704834071E+00  0.88000000000E+00 0.  1.
        -11    1    4    4    0    0 -0.34531579048E-01  0.29214338935E-02 -0.17727551834E-01  0.38929319832E-01  0.51100000000E-03 0. -1.
         11    1    4    4    0    0 -0.78162140158E-01 -0.22663845552E-01 -0.47512914769E-01  0.94237509731E-01  0.51100000000E-03 0.  1.
</event>
<event>
 8    1  0.1109553E+005  0.1043930E+01  0.7957747E-01            NaN
         13   -1    0    0    0    0  0.00000000000E+00  0.00000000000E+00  0.74505805969E-08  0.10566000000E+00  0.10566000000E+00 0.  1.
     999900   -1    0    0    0    0 -0.00000000000E+00 -0.00000000000E+00 -0.74505805969E-08  0.93827000000E+00  0.93827000000E+00 0. -1.
     999902    2    1    2    0    0 -0.58986463654E-02 -0.17310016395E-01  0.15786701227E-01  0.10197711376E+01  0.10194849300E+01 0.  0.
     999903    2    3    3    0    0  0.11944636246E+00  0.43370881394E-01  0.65155865179E-02  0.12877198151E+00  0.19781392689E-01 0.  0.
         14    1    1    2    0    0  0.58986463654E-02  0.17310016395E-01 -0.15786701227E-01  0.24158862394E-01  0.00000000000E+00 0. -1.
     999901    1    3    3    0    0 -0.12534500883E+00 -0.60680897789E-01  0.92711147090E-02  0.89099915609E+00  0.88000000000E+00 0. -1.
        -11    1    4    4    0    0  0.10372219990E+00  0.43958014749E-01  0.32913735906E-02  0.11270180156E+00  0.51100000000E-03 0.  1.
         11    1    4    4    0    0  0.15724162561E-01 -0.58713335505E-03  0.32242129273E-02  0.16070179956E-01  0.51100000000E-03 0. -1.
</event>
<event>
 8    1  0.1109553E+005  0.1043930E+01  0.7957747E-01            NaN
         13   -1    0    0    0    0  0.00000000000E+00  0.00000000000E+00  0.74505805969E-08  0.10566000000E+00  0.10566000000E+00 0. -1.
     999900   -1    0    0    0    0 -0.00000000000E+00 -0.00000000000E+00 -0.74505805969E-08  0.93827000000E+00  0.93827000000E+00 0. -1.
     999902    2    1    2    0    0  0.19908687830E-01 -0.10292192105E-01 -0.51281067611E-02  0.10209390768E+01  0.10206801732E+01 0.  0.
     999903    2    3    3    0    0  0.73935907013E-01 -0.10855321926E+00  0.14823414892E-01  0.13359910078E+00  0.19459351029E-01 0.  0.
         14    1    1    2    0    0 -0.19908687830E-01  0.10292192105E-01  0.51281067611E-02  0.22990923174E-01  0.00000000000E+00 0.  1.
     999901    1    3    3    0    0 -0.54027219183E-01  0.98261027157E-01 -0.19951521653E-01  0.88733997604E+00  0.88000000000E+00 0. -1.
        -11    1    4    4    0    0  0.46066521681E-01 -0.60939432734E-01 -0.28808260150E-03  0.76394260219E-01  0.51100000000E-03 0. -1.
         11    1    4    4    0    0  0.27869385332E-01 -0.47613786528E-01  0.15111497493E-01  0.57204840562E-01  0.51100000000E-03 0.  1.
</event>
<event>
 8    1  0.1109553E+005  0.1043930E+01  0.7957747E-01            NaN
         13   -1    0    0    0    0  0.00000000000E+00  0.00000000000E+00  0.74505805969E-08  0.10566000000E+00  0.10566000000E+00 0.  1.
     999900   -1    0    0    0    0 -0.00000000000E+00 -0.00000000000E+00 -0.74505805969E-08  0.93827000000E+00  0.93827000000E+00 0.  1.
     999902    2    1    2    0    0  0.14743412567E-01  0.15373396948E-01 -0.66959852321E-02  0.10216018616E+01  0.10213578304E+01 0.  0.
     999903    2    3    3    0    0 -0.20846897865E-01  0.55155460894E-01 -0.11705190550E+00  0.13310441534E+00  0.23214624382E-01 0.  0.
         14    1    1    2    0    0 -0.14743412567E-01 -0.15373396948E-01  0.66959852321E-02  0.22328138437E-01  0.00000000000E+00 0. -1.
     999901    1    3    3    0    0  0.35590310432E-01 -0.39782063946E-01  0.11035592027E+00  0.88849744622E+00  0.88000000000E+00 0. -1.
        -11    1    4    4    0    0 -0.17507191589E-01  0.49342814624E-01 -0.81128511112E-01  0.96557296713E-01  0.51100000000E-03 0.  1.
         11    1    4    4    0    0 -0.33397062762E-02  0.58126462694E-02 -0.35923394385E-01  0.36547118625E-01  0.51100000000E-03 0. -1.
</event>
<event>
 8    1  0.1109553E+005  0.1043930E+01  0.7957747E-01            NaN
         13   -1    0    0    0    0  0.00000000000E+00  0.00000000000E+00  0.74505805969E-08  0.10566000000E+00  0.10566000000E+00 0.  1.
     999900   -1    0    0    0    0 -0.00000000000E+00 -0.00000000000E+00 -0.74505805969E-08  0.93827000000E+00  0.93827000000E+00 0.  1.
     999902    2    1    2    0    0 -0.20372097628E-01  0.13538173919E-01  0.17608366199E-02  0.10194064387E+01  0.10191114179E+01 0.  0.
     999903    2    3    3    0    0 -0.99846804691E-01  0.41570849557E-01 -0.73481389861E-01  0.13218411444E+00  0.19380544722E-01 0.  0.
         14    1    1    2    0    0  0.20372097628E-01 -0.13538173919E-01 -0.17608366199E-02  0.24523561333E-01  0.00000000000E+00 0. -1.
     999901    1    3    3    0    0  0.79474707063E-01 -0.28032675638E-01  0.75242226481E-01  0.88722232423E+00  0.88000000000E+00 0. -1.
        -11    1    4    4    0    0 -0.77490569689E-01  0.35968145081E-01 -0.48702471977E-01  0.98339655017E-01  0.51100000000E-03 0. -1.
         11    1    4    4    0    0 -0.22356235002E-01  0.56027044765E-02 -0.24778917884E-01  0.33844459420E-01  0.51100000000E-03 0.  1.
</event>
<event>
 8    1  0.1109553E+005  0.1043930E+01  0.7957747E-01            NaN
         13   -1    0    0    0    0  0.00000000000E+00  0.00000000000E+00  0.74505805969E-08  0.10566000000E+00  0.10566000000E+00 0.  1.
     999900   -1    0    0    0    0 -0.00000000000E+00 -0.00000000000E+00 -0.74505805969E-08  0.93827000000E+00  0.93827000000E+00 0.  1.
     999902    2    1    2    0    0  0.16948678950E-01 -0.25671809862E-02  0.96035010783E-02  0.10242811993E+01  0.10240927203E+01 0.  0.
     999903    2    3    3    0    0 -0.62374535220E-01 -0.10427144736E-01  0.11662773261E+00  0.13422044998E+00  0.20341907141E-01 0.  0.
         14    1    1    2    0    0 -0.16948678950E-01  0.25671809862E-02 -0.96035010783E-02  0.19648800709E-01  0.00000000000E+00 0. -1.
     999901    1    3    3    0    0  0.79323214170E-01  0.78599637502E-02 -0.10702423153E+00  0.89006074932E+00  0.88000000000E+00 0.  1.
        -11    1    4    4    0    0 -0.16833542937E-01  0.60757754528E-02  0.28513711238E-01  0.33668621367E-01  0.51100000000E-03 0.  1.
         11    1    4    4    0    0 -0.45540992283E-01 -0.16502920189E-01  0.88114021374E-01  0.10055182861E+00  0.51100000000E-03 0. -1.
</event>
<event>
 8    1  0.1109553E+005  0.1043930E+01  0.7957747E-01            NaN
         13   -1    0    0    0    0  0.00000000000E+00  0.00000000000E+00  0.74505805969E-08  0.10566000000E+00  0.10566000000E+00 0.  1.
     999900   -1    0    0    0    0 -0.00000000000E+00 -0.00000000000E+00 -0.74505805969E-08  0.93827000000E+00  0.93827000000E+00 0.  1.
     999902    2    1    2    0    0 -0.12609493666E-01 -0.13395134493E-02 -0.20651366725E-01  0.10196962926E+01  0.10194082875E+01 0.  0.
     999903    2    3    3    0    0 -0.74407970094E-01  0.66178017608E-01  0.79619652301E-01  0.12928518196E+00  0.21431127231E-01 0.  0.
         14    1    1    2    0    0  0.12609493666E-01  0.13395134493E-02  0.20651366725E-01  0.24233707401E-01  0.00000000000E+00 0.  1.
     999901    1    3    3    0    0  0.61798476428E-01 -0.67517531057E-01 -0.10027101903E+00  0.89041111064E+00  0.88000000000E+00 0.  1.
        -11    1    4    4    0    0 -0.24337700001E-01  0.10002361931E-01  0.16472802000E-01  0.31048111251E-01  0.51100000000E-03 0. -1.
         11    1    4    4    0    0 -0.50070270094E-01  0.56175655677E-01  0.63146850301E-01  0.98237070711E-01  0.51100000000E-03 0.  1.
</event>
<event>
 8    1  0.1109553E+005  0.1043930E+01  0.7957747E-01            NaN
         13   -1    0    0    0    0  0.00000000000E+00  0.00000000000E+00  0.74505805969E-08  0.10566000000E+00  0.10566000000E+00 0. -1.
     999900   -1    0    0    0    0 -0.00000000000E+00 -0.00000000000E+00 -0.74505805969E-08  0.93827000000E+00  0.93827000000E+00 0.  1.
     999902    2    1    2    0    0 -0.17112599112E-01 -0.13493979363E-02  0.16241029479E-01  0.10202988138E+01  0.10200251156E+01 0.  0.
     999903    2    3    3    0    0 -0.95291470257E-02  0.58273364791E-01 -0.11279335372E+00  0.12886050710E+00  0.19902260204E-01 0.  0.
         14    1    1    2    0    0  0.17112599112E-01  0.13493979363E-02 -0.16241029479E-01  0.23631186210E-01  0.00000000000E+00 0. -1.
     999901    1    3    3    0    0 -0.75834520867E-02 -0.59622762727E-01  0.12903438320E+00  0.89143830669E+00  0.88000000000E+00 0. -1.
        -11    1    4    4    0    0 -0.48212577410E-02  0.32634499511E-02 -0.20458218930E-01  0.21276618025E-01  0.51100000000E-03 0. -1.
         11    1    4    4    0    0 -0.47078892847E-02  0.55009914840E-01 -0.92335134787E-01  0.10758388908E+00  0.51100000000E-03 0.  1.
</event>
<event>
 8    1  0.1109553E+005  0.1043930E+01  0.7957747E-01            NaN
         13   -1    0    0    0    0  0.00000000000E+00  0.00000000000E+00  0.74505805969E-08  0.10566000000E+00  0.10566000000E+00 0. -1.
     999900   -1    0    0    0    0 -0.00000000000E+00 -0.00000000000E+00 -0.74505805969E-08  0.93827000000E+00  0.93827000000E+00 0.  1.
     999902    2    1    2    0    0 -0.12609292750E-02  0.14057322408E-01 -0.18676654917E-01  0.10205202650E+01  0.10202517314E+01 0.  0.
     999903    2    3    3    0    0  0.19616975766E-01  0.56933457824E-01 -0.11764338323E+00  0.13368958032E+00  0.20166653394E-01 0.  0.
         14    1    1    2    0    0  0.12609292750E-02 -0.14057322408E-01  0.18676654917E-01  0.23409735043E-01  0.00000000000E+00 0. -1.
     999901    1    3    3    0    0 -0.20877905041E-01 -0.42876135416E-01  0.98966728314E-01  0.88683068464E+00  0.88000000000E+00 0. -1.
        -11    1    4    4    0    0 -0.28816563811E-02  0.20310200200E-01 -0.38240714201E-01  0.43398404571E-01  0.51100000000E-03 0.  1.
         11    1    4    4    0    0  0.22498632147E-01  0.36623257624E-01 -0.79402669029E-01  0.90291175745E-01  0.51100000000E-03 0. -1.
</event>
<event>
 8    1  0.1109553E+005  0.1043930E+01  0.7957747E-01            NaN
         13   -1    0    0    0    0  0.00000000000E+00  0.00000000000E+00  0.74505805969E-08  0.10566000000E+00  0.10566000000E+00 0.  1.
     999900   -1    0    0    0    0 -0.00000000000E+00 -0.00000000000E+00 -0.74505805969E-08  0.93827000000E+00  0.93827000000E+00 0. -1.
     999902    2    1    2    0    0  0.15891335702E-01 -0.21626113655E-02  0.17204149966E-01  0.10204099189E+01  0.10201388182E+01 0.  0.
     999903    2    3    3    0    0 -0.10438054651E+00  0.35615453811E-01 -0.61642742842E-01  0.12793619921E+00  0.20101847728E-01 0.  0.
         14    1    1    2    0    0 -0.15891335702E-01  0.21626113655E-02 -0.17204149966E-01  0.23520081087E-01  0.00000000000E+00 0. -1.
     999901    1    3    3    0    0  0.12027188221E+00 -0.37778065177E-01  0.78846892808E-01  0.89247371971E+00  0.88000000000E+00 0.  1.
        -11    1    4    4    0    0 -0.31402916384E-01  0.15056471860E-01 -0.10131111580E-01  0.36273144958E-01  0.51100000000E-03 0.  1.
         11    1    4    4    0    0 -0.72977630129E-01  0.20558981951E-01 -0.51511631262E-01  0.91663054249E-01  0.51100000000E-03 0. -1.
</event>
<event>
 8    1  0.1109553E+005  0.1043930E+01  0.7957747E-01            NaN
         13   -1    0    0    0    0  0.00000000000E+00  0.00000000000E+00  0.74505805969E-08  0.10566000000E+00  0.10566000000E+00 0. -1.
     999900   -1    0    0    0    0 -0.00000000000E+00 -0.00000000000E+00 -0.74505805969E-08  0.93827000000E+00  0.93827000000E+00 0.  1.
     999902    2    1    2    0    0 -0.55963896209E-02 -0.13332765057E-01 -0.19044488731E-01  0.10200181880E+01  0.10197378728E+01 0.  0.
     999903    2    3    3    0    0  0.11366392145E+00  0.33058911469E-01  0.45733653746E-01  0.12840649161E+00  0.19603095013E-01 0.  0.
         14    1    1    2    0    0  0.55963896209E-02  0.13332765057E-01  0.19044488731E-01  0.23911811974E-01  0.00000000000E+00 0.  1.
     999901    1    3    3    0    0 -0.11926031107E+00 -0.46391676526E-01 -0.64778142477E-01  0.89161169642E+00  0.88000000000E+00 0.  1.
        -11    1    4    4    0    0  0.19582812573E-01  0.65273821196E-02  0.16338095404E-01  0.26330357917E-01  0.51100000000E-03 0. -1.
         11    1    4    4    0    0  0.94081108880E-01  0.26531529349E-01  0.29395558342E-01  0.10207613369E+00  0.51100000000E-03 0.  1.
</event>
<event>
 8    1  0.1109553E+005  0.1043930E+01  0.7957747E-01            NaN
         13   -1    0    0    0    0  0.00000000000E+00  0.00000000000E+00  0.74505805969E-08  0.10566000000E+00  0.10566000000E+00 0.  1.
     999900   -1    0    0    0    0 -0.00000000000E+00 -0.00000000000E+00 -0.74505805969E-08  0.93827000000E+00  0.93827000000E+00 0.  1.
     999902    2    1    2    0    0 -0.82123951785E-02  0.11332102129E-01  0.18780044606E-01  0.10205088547E+01  0.10202400563E+01 0.  0.
     999903    2    3    3    0    0  0.12589606027E+00  0.21072975693E-01  0.15413558241E-01  0.13028905278E+00  0.21065877654E-01 0.  0.
         14    1    1    2    0    0  0.82123951785E-02 -0.11332102129E-01 -0.18780044606E-01  0.23421145332E-01  0.00000000000E+00 0. -1.
     999901    1    3    3    0    0 -0.13410845545E+00 -0.97408735634E-02  0.33664863657E-02  0.89021980189E+00  0.88000000000E+00 0. -1.
        -11    1    4    4    0    0  0.10360813560E+00  0.12658835990E-01  0.19289104173E-01  0.10614717402E+00  0.51100000000E-03 0. -1.
         11    1    4    4    0    0  0.22287924667E-01  0.84141397032E-02 -0.38755459318E-02  0.24141878762E-01  0.51100000000E-03 0.  1.
</event>
<event>
 8    1  0.1109553E+005  0.1043930E+01  0.7957747E-01            NaN
         13   -1    0    0    0    0  0.00000000000E+00  0.00000000000E+00  0.74505805969E-08  0.10566000000E+00  0.10566000000E+00 0.  1.
     999900   -1    0    0    0    0 -0.00000000000E+00 -0.00000000000E+00 -0.74505805969E-08  0.93827000000E+00  0.93827000000E+00 0. -1.
     999902    2    1    2    0    0  0.76488599967E-02 -0.15137345847E-01 -0.15184881801E-01  0.10211654457E+01  0.10209116722E+01 0.  0.
     999903    2    3    3    0    0 -0.26719895942E-01 -0.74416721233E-01 -0.10585601880E+00  0.13385686867E+00  0.21456079257E-01 0.  0.
         14    1    1    2    0    0 -0.76488599967E-02  0.15137345847E-01  0.15184881801E-01  0.22764554330E-01  0.00000000000E+00 0.  1.
     999901    1    3    3    0    0  0.34368755939E-01  0.59279375386E-01  0.90671136995E-01  0.88730857700E+00  0.88000000000E+00 0.  1.
        -11    1    4    4    0    0 -0.27313342426E-01 -0.50459599689E-01 -0.67113430679E-01  0.88298717849E-01  0.51100000000E-03 0.  1.
         11    1    4    4    0    0  0.59344648411E-03 -0.23957121544E-01 -0.38742588116E-01  0.45558150822E-01  0.51100000000E-03 0. -1.
</event>
<event>
 8    1  0.1109553E+005  0.1043930E+01  0.7957747E-01            NaN
         13   -1    0    0    0    0  0.00000000000E+00  0.00000000000E+00  0.74505805969E-08  0.10566000000E+00  0.10566000000E+00 0.  1.
     999900   -1    0    0    0    0 -0.00000000000E+00 -0.00000000000E+00 -0.74505805969E-08  0.93827000000E+00  0.93827000000E+00 0. -1.
     999902    2    1    2    0    0 -0.14793800304E-01 -0.15320236557E-01  0.64681876120E-02  0.10216723356E+01  0.10214298594E+01 0.  0.
     999903    2    3    3    0    0 -0.57439928324E-01 -0.45767994196E-01  0.11029194193E+00  0.13402086671E+00  0.20080478087E-01 0.  0.
         14    1    1    2    0    0  0.14793800304E-01  0.15320236557E-01 -0.64681876120E-02  0.22257664446E-01  0.00000000000E+00 0.  1.
     999901    1    3    3    0    0  0.42646128020E-01  0.30447757639E-01 -0.10382375432E+00  0.88765146884E+00  0.88000000000E+00 0. -1.
        -11    1    4    4    0    0 -0.57338486825E-01 -0.45180761456E-01  0.10059644243E+00  0.12429363872E+00  0.51100000000E-03 0. -1.
         11    1    4    4    0    0 -0.10144149887E-03 -0.58723273940E-03  0.96954995041E-02  0.97272279865E-02  0.51100000000E-03 0.  1.
</event>
<event>
 8    1  0.1109553E+005  0.1043930E+01  0.7957747E-01            NaN
         13   -1    0    0    0    0  0.00000000000E+00  0.00000000000E+00  0.74505805969E-08  0.10566000000E+00  0.10566000000E+00 0.  1.
     999900   -1    0    0    0    0 -0.00000000000E+00 -0.00000000000E+00 -0.74505805969E-08  0.93827000000E+00  0.93827000000E+00 0.  1.
     999902    2    1    2    0    0 -0.16820681455E-01  0.15340445085E-01 -0.70666281632E-02  0.10200930158E+01  0.10198144729E+01 0.  0.
     999903    2    3    3    0    0  0.51140714916E-01  0.69875296061E-02 -0.11802786310E+00  0.13048584509E+00  0.20779340941E-01 0.  0.
         14    1    1    2    0    0  0.16820681455E-01 -0.15340445085E-01  0.70666281632E-02  0.23836984155E-01  0.00000000000E+00 0.  1.
     999901    1    3    3    0    0 -0.67961396371E-01  0.83529154787E-02  0.11096123494E+00  0.88960717075E+00  0.88000000000E+00 0. -1.
        -11    1    4    4    0    0  0.36408760385E-01 -0.41754436364E-02 -0.86350201376E-01  0.93806452662E-01  0.51100000000E-03 0. -1.
         11    1    4    4    0    0  0.14731954531E-01  0.11162973242E-01 -0.31677661724E-01  0.36679392432E-01  0.51100000000E-03 0.  1.
</event>
<event>
 8    1  0.1109553E+005  0.1043930E+01  0.7957747E-01            NaN
         13   -1    0    0    0    0  0.00000000000E+00  0.00000000000E+00  0.74505805969E-08  0.10566000000E+00  0.10566000000E+00 0. -1.
     999900   -1    0    0    0    0 -0.00000000000E+00 -0.00000000000E+00 -0.74505805969E-08  0.93827000000E+00  0.93827000000E+00 0. -1.
     999902    2    1    2    0    0  0.21025162238E-01  0.11677760581E-01  0.52124442997E-02  0.10193211172E+01  0.10190240148E+01 0.  0.
     999903    2    3    3    0    0  0.12902991890E+00 -0.18841436627E-01  0.13569930321E-01  0.13215354762E+00  0.16634224793E-01 0.  0.
         14    1    1    2    0    0 -0.21025162238E-01 -0.11677760581E-01 -0.52124442997E-02  0.24608882845E-01  0.00000000000E+00 0.  1.
     999901    1    3    3    0    0 -0.10800475666E+00  0.30519197207E-01 -0.83574860215E-02  0.88716756953E+00  0.88000000000E+00 0. -1.
        -11    1    4    4    0    0  0.75500644508E-01 -0.47214863486E-02  0.13181015439E-01  0.76789582909E-01  0.51100000000E-03 0. -1.
         11    1    4    4    0    0  0.53529274392E-01 -0.14119950278E-01  0.38891488241E-03  0.55363964711E-01  0.51100000000E-03 0.  1.
</event>
<event>
 8    1  0.1109553E+005  0.1043930E+01  0.7957747E-01            NaN
         13   -1    0    0    0    0  0.00000000000E+00  0.00000000000E+00  0.74505805969E-08  0.10566000000E+00  0.10566000000E+00 0.  1.
     999900   -1    0    0    0    0 -0.00000000000E+00 -0.00000000000E+00 -0.74505805969E-08  0.93827000000E+00  0.93827000000E+00 0. -1.
     999902    2    1    2    0    0 -0.15784700496E-01  0.15246069722E-01 -0.72780702095E-02  0.10208092362E+01  0.10205473664E+01 0.  0.
     999903    2    3    3    0    0 -0.87844320390E-01 -0.85496410359E-01 -0.42849376307E-01  0.13142351904E+00  0.20243801459E-01 0.  0.
         14    1    1    2    0    0  0.15784700496E-01 -0.15246069722E-01  0.72780702095E-02  0.23120763779E-01  0.00000000000E+00 0.  1.
     999901    1    3    3    0    0  0.72059619893E-01  0.10074248008E+00  0.35571306098E-01  0.88938571718E+00  0.88000000000E+00 0.  1.
        -11    1    4    4    0    0 -0.60134299914E-01 -0.44744948187E-01 -0.25438821808E-01  0.79155790631E-01  0.51100000000E-03 0. -1.
         11    1    4    4    0    0 -0.27710020475E-01 -0.40751462171E-01 -0.17410554500E-01  0.52267728407E-01  0.51100000000E-03 0.  1.
</event>
<event>
 8    1  0.1109553E+005  0.1043930E+01  0.7957747E-01            NaN
         13   -1    0    0    0    0  0.00000000000E+00  0.00000000000E+00  0.74505805969E-08  0.10566000000E+00  0.10566000000E+00 0.  1.
     999900   -1    0    0    0    0 -0.00000000000E+00 -0.00000000000E+00 -0.74505805969E-08  0.93827000000E+00  0.93827000000E+00 0. -1.
     999902    2    1    2    0    0  0.16415104283E-02  0.48244081429E-02 -0.22439229572E-01  0.10209193830E+01  0.10206600306E+01 0.  0.
     999903    2    3    3    0    0 -0.10620865255E+00 -0.11905942787E-01 -0.76357517111E-01  0.13253954081E+00  0.17726536866E-01 0.  0.
         14    1    1    2    0    0 -0.16415104283E-02 -0.48244081429E-02  0.22439229572E-01  0.23010616988E-01  0.00000000000E+00 0.  1.
     999901    1    3    3    0    0  0.10785016298E+00  0.16730350930E-01  0.53918287540E-01  0.88837984220E+00  0.88000000000E+00 0. -1.
        -11    1    4    4    0    0 -0.24169287010E-01  0.19739542118E-02 -0.10529968585E-01  0.26442244406E-01  0.51100000000E-03 0. -1.
         11    1    4    4    0    0 -0.82039365538E-01 -0.13879896999E-01 -0.65827548526E-01  0.10609729641E+00  0.51100000000E-03 0.  1.
</event>
<event>
 8    1  0.1109553E+005  0.1043930E+01  0.7957747E-01            NaN
         13   -1    0    0    0    0  0.00000000000E+00  0.00000000000E+00  0.74505805969E-08  0.10566000000E+00  0.10566000000E+00 0.  1.
     999900   -1    0    0    0    0 -0.00000000000E+00 -0.00000000000E+00 -0.74505805969E-08  0.93827000000E+00  0.93827000000E+00 0. -1.
     999902    2    1    2    0    0  0.18247488800E-01  0.11507788246E-01 -0.99116141411E-02  0.10201888936E+01  0.10199126132E+01 0.  0.
     999903    2    3    3    0    0 -0.82279401481E-01 -0.80757694967E-01  0.51096703438E-01  0.12758562794E+00  0.19378187504E-01 0.  0.
         14    1    1    2    0    0 -0.18247488800E-01 -0.11507788246E-01  0.99116141411E-02  0.23741106392E-01  0.00000000000E+00 0.  1.
     999901    1    3    3    0    0  0.10052689028E+00  0.92265483214E-01 -0.61008317579E-01  0.89260326567E+00  0.88000000000E+00 0. -1.
        -11    1    4    4    0    0 -0.43746663049E-01 -0.33018066935E-01  0.16954668253E-01  0.57373209502E-01  0.51100000000E-03 0.  1.
         11    1    4    4    0    0 -0.38532738432E-01 -0.47739628032E-01  0.34142035185E-01  0.70212418441E-01  0.51100000000E-03 0. -1.
</event>
<event>
 8    1  0.1109553E+005  0.1043930E+01  0.7957747E-01            NaN
         13   -1    0    0    0    0  0.00000000000E+00  0.00000000000E+00  0.74505805969E-08  0.10566000000E+00  0.10566000000E+00 0. -1.
     999900   -1    0    0    0    0 -0.00000000000E+00 -0.00000000000E+00 -0.74505805969E-08  0.93827000000E+00  0.93827000000E+00 0. -1.
     999902    2    1    2    0    0 -0.17263436334E-01  0.12534137208E-01 -0.26532613761E-03  0.10225945547E+01  0.10223719587E+01 0.  0.
     999903    2    3    3    0    0 -0.90632821687E-01  0.62410478260E-01 -0.75554009503E-01  0.13493521576E+00  0.19741528230E-01 0.  0.
         14    1    1    2    0    0  0.17263436334E-01 -0.12534137208E-01  0.26532613761E-03  0.21335445333E-01  0.00000000000E+00 0.  1.
     999901    1    3    3    0    0  0.73369385354E-01 -0.49876341052E-01  0.75288683366E-01  0.88765933891E+00  0.88000000000E+00 0. -1.
        -11    1    4    4    0    0 -0.67913110376E-01  0.42048365853E-01 -0.63824089211E-01  0.10224495643E+00  0.51100000000E-03 0. -1.
         11    1    4    4    0    0 -0.22719711312E-01  0.20362112407E-01 -0.11729920293E-01  0.32690259326E-01  0.51100000000E-03 0.  1.
</event>
<event>
 8    1  0.1109553E+005  0.1043930E+01  0.7957747E-01            NaN
         13   -1    0    0    0    0  0.00000000000E+00  0.00000000000E+00  0.74505805969E-08  0.10566000000E+00  0.10566000000E+00 0.  1.
     999900   -1    0    0    0    0 -0.00000000000E+00 -0.00000000000E+00 -0.74505805969E-08  0.93827000000E+00  0.93827000000E+00 0.  1.
     999902    2    1    2    0    0 -0.21597778183E-01 -0.35373839368E-03  0.11033973960E-01  0.10196743257E+01  0.10193857919E+01 0.  0.
     999903    2    3    3    0    0 -0.94266815456E-01 -0.89831779739E-01 -0.84616372685E-02  0.13194284170E+00  0.19527750111E-01 0.  0.
         14    1    1    2    0    0  0.21597778183E-01  0.35373839368E-03 -0.11033973960E-01  0.24255674277E-01  0.00000000000E+00 0. -1.
     999901    1    3    3    0    0  0.72669037273E-01  0.89478041346E-01  0.19495611229E-01  0.88773148402E+00  0.88000000000E+00 0.  1.
        -11    1    4    4    0    0 -0.34089746796E-01 -0.25854068752E-01  0.50182539014E-02  0.43081175713E-01  0.51100000000E-03 0. -1.
         11    1    4    4    0    0 -0.60177068659E-01 -0.63977710988E-01 -0.13479891170E-01  0.88861665991E-01  0.51100000000E-03 0.  1.
</event>
<event>
 8    1  0.1109553E+005  0.1043930E+01  0.7957747E-01            NaN
         13   -1    0    0    0    0  0.00000000000E+00  0.00000000000E+00  0.74505805969E-08  0.10566000000E+00  0.10566000000E+00 0. -1.
     999900   -1    0    0    0    0 -0.00000000000E+00 -0.00000000000E+00 -0.74505805969E-08  0.93827000000E+00  0.93827000000E+00 0.  1.
     999902    2    1    2    0    0 -0.15761921256E-01  0.11480254789E-01  0.12555394503E-01  0.10207379250E+01  0.10204744187E+01 0.  0.
     999903    2    3    3    0    0 -0.40584250948E-01  0.42870371735E-01 -0.11479388819E+00  0.13067088972E+00  0.20305035221E-01 0.  0.
         14    1    1    2    0    0  0.15761921256E-01 -0.11480254789E-01 -0.12555394503E-01  0.23192075001E-01  0.00000000000E+00 0. -1.
     999901    1    3    3    0    0  0.24822329692E-01 -0.31390116946E-01  0.12734928270E+00  0.89006703528E+00  0.88000000000E+00 0. -1.
        -11    1    4    4    0    0 -0.30047966640E-01  0.35782955775E-01 -0.10392988277E+00  0.11395166465E+00  0.51100000000E-03 0.  1.
         11    1    4    4    0    0 -0.10536284308E-01  0.70874159601E-02 -0.10864005426E-01  0.16719225069E-01  0.51100000000E-03 0. -1.
</event>
<event>
 8    1  0.1109553E+005  0.1043930E+01  0.7957747E-01            NaN
         13   -1    0    0    0    0  0.00000000000E+00  0.00000000000E+00  0.74505805969E-08  0.10566000000E+00  0.10566000000E+00 0. -1.
     999900   -1    0    0    0    0 -0.00000000000E+00 -0.00000000000E+00 -0.74505805969E-08  0.93827000000E+00  0.93827000000E+00 0. -1.
     999902    2    1    2    0    0  0.11537029726E-01  0.21483711062E-01 -0.81471266735E-02  0.10182195241E+01  0.10178948722E+01 0.  0.
     999903    2    3    3    0    0  0.84540973240E-01 -0.12069560162E-01  0.94011908651E-01  0.12867364771E+00  0.20635363032E-01 0.  0.
         14    1    1    2    0    0 -0.11537029726E-01 -0.21483711062E-01  0.81471266735E-02  0.25710475860E-01  0.00000000000E+00 0. -1.
     999901    1    3    3    0    0 -0.73003943514E-01  0.33553271224E-01 -0.10215903532E+00  0.88954587643E+00  0.88000000000E+00 0. -1.
        -11    1    4    4    0    0  0.70515169153E-01 -0.15579472793E-01  0.85382423821E-01  0.11182812022E+00  0.51100000000E-03 0.  1.
         11    1    4    4    0    0  0.14025804086E-01  0.35099126308E-02  0.86294848301E-02  0.16845527489E-01  0.51100000000E-03 0. -1.
</event>
<event>
 8    1  0.1109553E+005  0.1043930E+01  0.7957747E-01            NaN
         13   -1    0    0    0    0  0.00000000000E+00  0.00000000000E+00  0.74505805969E-08  0.10566000000E+00  0.10566000000E+00 0. -1.
     999900   -1    0    0    0    0 -0.00000000000E+00 -0.00000000000E+00 -0.74505805969E-08  0.93827000000E+00  0.93827000000E+00 0.  1.
     999902    2    1    2    0    0  0.56304630787E-02  0.20195381848E-01 -0.10442143293E-01  0.10205079181E+01  0.10202390980E+01 0.  0.
     999903    2    3    3    0    0  0.31822398653E-01  0.11352188529E+00  0.58737061489E-01  0.13248673814E+00  0.14241133932E-01 0.  0.
         14    1    1    2    0    0 -0.56304630787E-02 -0.20195381848E-01  0.10442143293E-01  0.23422081867E-01  0.00000000000E+00 0. -1.
     999901    1    3    3    0    0 -0.26191935574E-01 -0.93326503443E-01 -0.69179204782E-01  0.88802117999E+00  0.88000000000E+00 0.  1.
        -11    1    4    4    0    0  0.18565136296E-01  0.58671508840E-01  0.38205565195E-01  0.72435740958E-01  0.51100000000E-03 0.  1.
         11    1    4    4    0    0  0.13257262357E-01  0.54850376450E-01  0.20531496295E-01  0.60050997186E-01  0.51100000000E-03 0. -1.
</event>
<event>
 8    1  0.1109553E+005  0.1043930E+01  0.7957747E-01            NaN
         13   -1    0    0    0    0  0.00000000000E+00  0.00000000000E+00  0.74505805969E-08  0.10566000000E+00  0.10566000000E+00 0.  1.
     999900   -1    0    0    0    0 -0.00000000000E+00 -0.00000000000E+00 -0.74505805969E-08  0.93827000000E+00  0.93827000000E+00 0. -1.
     999902    2    1    2    0    0 -0.19923668415E-01  0.56626859088E-02  0.11417397800E-01  0.10202788785E+01  0.10200047129E+01 0.  0.
     999903    2    3    3    0    0 -0.12182437952E+00  0.10247601212E-01  0.49909081895E-01  0.13355096866E+00  0.19968775600E-01 0.  0.
         14    1    1    2    0    0  0.19923668415E-01 -0.56626859088E-02 -0.11417397800E-01  0.23651121482E-01  0.00000000000E+00 0. -1.
     999901    1    3    3    0    0  0.10190071111E+00 -0.45849153034E-02 -0.38491684095E-01  0.88672790986E+00  0.88000000000E+00 0. -1.
        -11    1    4    4    0    0 -0.17482908708E-01 -0.35862776123E-02  0.12705927133E-01  0.21913812751E-01  0.51100000000E-03 0.  1.
         11    1    4    4    0    0 -0.10434147081E+00  0.13833878824E-01  0.37203154762E-01  0.11163715591E+00  0.51100000000E-03 0. -1.
</event>
<event>
 8    1  0.1109553E+005  0.1043930E+01  0.7957747E-01            NaN
         13   -1    0    0    0    0  0.00000000000E+00  0.00000000000E+00  0.74505805969E-08  0.10566000000E+00  0.10566000000E+00 0.  1.
     999900   -1    0    0    0    0 -0.00000000000E+00 -0.00000000000E+00 -0.74505805969E-08  0.93827000000E+00  0.93827000000E+00 0.  1.
     999902    2    1    2    0    0  0.21501715875E-01 -0.10827055346E-01 -0.63379290071E-03  0.10198478363E+01  0.10195634648E+01 0.  0.
     999903    2    3    3    0    0 -0.10764463532E+00  0.62360771425E-01 -0.17163413532E-01  0.12726256514E+00  0.20614179483E-01 0.  0.
         14    1    1    2    0    0 -0.21501715875E-01  0.10827055346E-01  0.63379290071E-03  0.24082163659E-01  0.00000000000E+00 0. -1.
     999901    1    3    3    0    0  0.12914635119E+00 -0.73187826771E-01  0.16529620631E-01  0.89258527120E+00  0.88000000000E+00 0.  1.
        -11    1    4    4    0    0 -0.15096791667E-01  0.49865265292E-02  0.38415674468E-02  0.16364514259E-01  0.51100000000E-03 0.  1.
         11    1    4    4    0    0 -0.92547843650E-01  0.57374244896E-01 -0.21004980978E-01  0.11089805088E+00  0.51100000000E-03 0. -1.
</event>
<event>
 8    1  0.1109553E+005  0.1043930E+01  0.7957747E-01            NaN
         13   -1    0    0    0    0  0.00000000000E+00  0.00000000000E+00  0.74505805969E-08  0.10566000000E+00  0.10566000000E+00 0. -1.
     999900   -1    0    0    0    0 -0.00000000000E+00 -0.00000000000E+00 -0.74505805969E-08  0.93827000000E+00  0.93827000000E+00 0. -1.
     999902    2    1    2    0    0 -0.13898833991E-01 -0.18883319986E-01 -0.25437601854E-02  0.10203455120E+01  0.10200729071E+01 0.  0.
     999903    2    3    3    0    0 -0.59705074232E-01  0.11296878261E+00  0.94734573079E-03  0.12933744442E+00  0.20015876989E-01 0.  0.
         14    1    1    2    0    0  0.13898833991E-01  0.18883319986E-01  0.25437601854E-02  0.23584488036E-01  0.00000000000E+00 0.  1.
     999901    1    3    3    0    0  0.45806240241E-01 -0.13185210260E+00 -0.34911059162E-02  0.89100806754E+00  0.88000000000E+00 0.  1.
        -11    1    4    4    0    0 -0.12574289302E-01  0.25942505624E-01  0.85519440172E-02  0.30075292467E-01  0.51100000000E-03 0. -1.
         11    1    4    4    0    0 -0.47130784930E-01  0.87026276989E-01 -0.76045982864E-02  0.99262151955E-01  0.51100000000E-03 0.  1.
</event>
<event>
 8    1  0.1109553E+005  0.1043930E+01  0.7957747E-01            NaN
         13   -1    0    0    0    0  0.00000000000E+00  0.00000000000E+00  0.74505805969E-08  0.10566000000E+00  0.10566000000E+00 0.  1.
     999900   -1    0    0    0    0 -0.00000000000E+00 -0.00000000000E+00 -0.74505805969E-08  0.93827000000E+00  0.93827000000E+00 0. -1.
     999902    2    1    2    0    0  0.16944628635E-01  0.87683279460E-02  0.14812111748E-01  0.10197762701E+01  0.10194901855E+01 0.  0.
     999903    2    3    3    0    0  0.33658740498E-01  0.33567579017E-01  0.12254949020E+00  0.13270146653E+00  0.18210120737E-01 0.  0.
         14    1    1    2    0    0 -0.16944628635E-01 -0.87683279460E-02 -0.14812111748E-01  0.24153729919E-01  0.00000000000E+00 0. -1.
     999901    1    3    3    0    0 -0.16714111862E-01 -0.24799251071E-01 -0.10773737845E+00  0.88707480356E+00  0.88000000000E+00 0. -1.
        -11    1    4    4    0    0  0.10442678650E-01  0.19510606649E-02  0.38606245611E-01  0.40044468985E-01  0.51100000000E-03 0. -1.
         11    1    4    4    0    0  0.23216061848E-01  0.31616518352E-01  0.83943244586E-01  0.92656997540E-01  0.51100000000E-03 0.  1.
</event>
<event>
 8    1  0.1109553E+005  0.1043930E+01  0.7957747E-01            NaN
         13   -1    0    0    0    0  0.00000000000E+00  0.00000000000E+00  0.74505805969E-08  0.10566000000E+00  0.10566000000E+00 0.  1.
     999900   -1    0    0    0    0 -0.00000000000E+00 -0.00000000000E+00 -0.74505805969E-08  0.93827000000E+00  0.93827000000E+00 0. -1.
     999902    2    1    2    0    0 -0.19424157343E-01 -0.29871667230E-02 -0.11856632358E-01  0.10209778588E+01  0.10207198379E+01 0.  0.
     999903    2    3    3    0    0  0.12713875693E+00 -0.13826541359E-02 -0.65764070383E-02  0.12883933647E+00  0.19752221287E-01 0.  0.
         14    1    1    2    0    0  0.19424157343E-01  0.29871667230E-02  0.11856632358E-01  0.22952141173E-01  0.00000000000E+00 0.  1.
     999901    1    3    3    0    0 -0.14656291427E+00 -0.16045125872E-02 -0.52802253202E-02  0.89213852236E+00  0.88000000000E+00 0. -1.
        -11    1    4    4    0    0  0.90856989734E-01  0.37880601693E-02 -0.12222524586E-01  0.91755071857E-01  0.51100000000E-03 0. -1.
         11    1    4    4    0    0  0.36281767195E-01 -0.51707143051E-02  0.56461175482E-02  0.37084264609E-01  0.51100000000E-03 0.  1.
</event>
<event>
 8    1  0.1109553E+005  0.1043930E+01  0.7957747E-01            NaN
         13   -1    0    0    0    0  0.00000000000E+00  0.00000000000E+00  0.74505805969E-08  0.10566000000E+00  0.10566000000E+00 0.  1.
     999900   -1    0    0    0    0 -0.00000000000E+00 -0.00000000000E+00 -0.74505805969E-08  0.93827000000E+00  0.93827000000E+00 0.  1.
     999902    2    1    2    0    0 -0.23381064374E-01  0.66697056566E-02  0.34684657832E-02  0.10193700855E+01  0.10190741788E+01 0.  0.
     999903    2    3    3    0    0 -0.10721396935E+00  0.72293393161E-01  0.22494235244E-01  0.13274930738E+00  0.19880092335E-01 0.  0.
         14    1    1    2    0    0  0.23381064374E-01 -0.66697056566E-02 -0.34684657832E-02  0.24559914489E-01  0.00000000000E+00 0.  1.
     999901    1    3    3    0    0  0.83832904976E-01 -0.65623687504E-01 -0.19025769460E-01  0.88662077814E+00  0.88000000000E+00 0.  1.
        -11    1    4    4    0    0 -0.59880207129E-01  0.29057270359E-01  0.81810215205E-02  0.67060826126E-01  0.51100000000E-03 0.  1.
         11    1    4    4    0    0 -0.47333762220E-01  0.43236122802E-01  0.14313213723E-01  0.65688481250E-01  0.51100000000E-03 0. -1.
</event>
<event>
 8    1  0.1109553E+005  0.1043930E+01  0.7957747E-01            NaN
         13   -1    0    0    0    0  0.00000000000E+00  0.00000000000E+00  0.74505805969E-08  0.10566000000E+00  0.10566000000E+00 0.  1.
     999900   -1    0    0    0    0 -0.00000000000E+00 -0.00000000000E+00 -0.74505805969E-08  0.93827000000E+00  0.93827000000E+00 0. -1.
     999902    2    1    2    0    0 -0.15049853370E-01 -0.16207532055E-01 -0.90720745963E-02  0.10200242534E+01  0.10197440820E+01 0.  0.
     999903    2    3    3    0    0 -0.40839798502E-01  0.11392337520E+00 -0.39366461531E-01  0.12956542553E+00  0.24311656487E-01 0.  0.
         14    1    1    2    0    0  0.15049853370E-01  0.16207532055E-01  0.90720745963E-02  0.23905746574E-01  0.00000000000E+00 0.  1.
     999901    1    3    3    0    0  0.25789945133E-01 -0.13013090726E+00  0.30294386935E-01  0.89045882789E+00  0.88000000000E+00 0.  1.
        -11    1    4    4    0    0 -0.24850215899E-01  0.73222479944E-01 -0.12749337470E-01  0.78370093316E-01  0.51100000000E-03 0.  1.
         11    1    4    4    0    0 -0.15989582603E-01  0.40700895256E-01 -0.26617124061E-01  0.51195332217E-01  0.51100000000E-03 0. -1.
</event>
<event>
 8    1  0.1109553E+005  0.1043930E+01  0.7957747E-01            NaN
         13   -1    0    0    0    0  0.00000000000E+00  0.00000000000E+00  0.74505805969E-08  0.10566000000E+00  0.10566000000E+00 0. -1.
     999900   -1    0    0    0    0 -0.00000000000E+00 -0.00000000000E+00 -0.74505805969E-08  0.93827000000E+00  0.93827000000E+00 0. -1.
     999902    2    1    2    0    0 -0.22781079618E-01 -0.37030109898E-02  0.63758128312E-02  0.10199854627E+01  0.10197043705E+01 0.  0.
     999903    2    3    3    0    0  0.58643535047E-01 -0.93693270774E-01 -0.63287285745E-01  0.12892925679E+00  0.19999488176E-01 0.  0.
         14    1    1    2    0    0  0.22781079618E-01  0.37030109898E-02 -0.63758128312E-02  0.23944537336E-01  0.00000000000E+00 0.  1.
     999901    1    3    3    0    0 -0.81424614666E-01  0.89990259785E-01  0.69663098576E-01  0.89105620588E+00  0.88000000000E+00 0. -1.
        -11    1    4    4    0    0  0.23396958261E-01 -0.48163790846E-01 -0.39906148188E-01  0.66782708755E-01  0.51100000000E-03 0.  1.
         11    1    4    4    0    0  0.35246576787E-01 -0.45529479929E-01 -0.23381137557E-01  0.62146548031E-01  0.51100000000E-03 0. -1.
</event>
<event>
 8    1  0.1109553E+005  0.1043930E+01  0.7957747E-01            NaN
         13   -1    0    0    0    0  0.00000000000E+00  0.00000000000E+00  0.74505805969E-08  0.10566000000E+00  0.10566000000E+00 0. -1.
     999900   -1    0    0    0    0 -0.00000000000E+00 -0.00000000000E+00 -0.74505805969E-08  0.93827000000E+00  0.93827000000E+00 0.  1.
     999902    2    1    2    0    0  0.68773071235E-02  0.22252900970E-01 -0.66288265705E-02  0.10197136771E+01  0.10194260900E+01 0.  0.
     999903    2    3    3    0    0 -0.11945864860E+00 -0.81956087431E-04  0.44239348654E-01  0.12895714984E+00  0.20061183450E-01 0.  0.
         14    1    1    2    0    0 -0.68773071235E-02 -0.22252900970E-01  0.66288265705E-02  0.24216322936E-01  0.00000000000E+00 0. -1.
     999901    1    3    3    0    0  0.12633595573E+00  0.22334857057E-01 -0.50868175224E-01  0.89075652723E+00  0.88000000000E+00 0.  1.
        -11    1    4    4    0    0 -0.60853084718E-01  0.74366068399E-02  0.15429433687E-01  0.63219693023E-01  0.51100000000E-03 0.  1.
         11    1    4    4    0    0 -0.58605563885E-01 -0.75185629274E-02  0.28809914967E-01  0.65737456813E-01  0.51100000000E-03 0. -1.
</event>
<event>
 8    1  0.1109553E+005  0.1043930E+01  0.7957747E-01            NaN
         13   -1    0    0    0    0  0.00000000000E+00  0.00000000000E+00  0.74505805969E-08  0.10566000000E+00  0.10566000000E+00 0.  1.
     999900   -1    0    0    0    0 -0.00000000000E+00 -0.00000000000E+00 -0.74505805969E-08  0.93827000000E+00  0.93827000000E+00 0.  1.
     999902    2    1    2    0    0 -0.22258400724E-01 -0.10496384074E-02 -0.89609196061E-02  0.10199125850E+01  0.10196297587E+01 0.  0.
     999903    2    3    3    0    0  0.71510057337E-01 -0.97530988744E-01 -0.40926655573E-01  0.12911351507E+00  0.19217871169E-01 0.  0.
         14    1    1    2    0    0  0.22258400724E-01  0.10496384074E-02  0.89609196061E-02  0.24017415010E-01  0.00000000000E+00 0. -1.
     999901    1    3    3    0    0 -0.93768458061E-01  0.96481350336E-01  0.31965735967E-01  0.89079906992E+00  0.88000000000E+00 0. -1.
        -11    1    4    4    0    0  0.61803443995E-01 -0.70743616311E-01 -0.32376361331E-01  0.99362039192E-01  0.51100000000E-03 0.  1.
         11    1    4    4    0    0  0.97066133421E-02 -0.26787372433E-01 -0.85502942423E-02  0.29751475880E-01  0.51100000000E-03 0. -1.
</event>
<event>
 8    1  0.1109553E+005  0.1043930E+01  0.7957747E-01            NaN
         13   -1    0    0    0    0  0.00000000000E+00  0.00000000000E+00  0.74505805969E-08  0.10566000000E+00  0.10566000000E+00 0.  1.
     999900   -1    0    0    0    0 -0.00000000000E+00 -0.00000000000E+00 -0.74505805969E-08  0.93827000000E+00  0.93827000000E+00 0.  1.
     999902    2    1    2    0    0 -0.17484198148E-01  0.97892026114E-02 -0.12229981158E-01  0.10204545211E+01  0.10201844595E+01 0.  0.
     999903    2    3    3    0    0  0.11233490661E+00 -0.49929211786E-01  0.23618603372E-01  0.12820768862E+00  0.27700461437E-01 0.  0.
         14    1    1    2    0    0  0.17484198148E-01 -0.97892026114E-02  0.12229981158E-01  0.23475478947E-01  0.00000000000E+00 0.  1.
     999901    1    3    3    0    0 -0.12981910475E+00  0.59718414398E-01 -0.35848584529E-01  0.89224683243E+00  0.88000000000E+00 0. -1.
        -11    1    4    4    0    0  0.76563756702E-01 -0.36639553973E-01  0.32362701093E-02  0.84942335269E-01  0.51100000000E-03 0.  1.
         11    1    4    4    0    0  0.35771149904E-01 -0.13289657813E-01  0.20382333263E-01  0.43265353350E-01  0.51100000000E-03 0. -1.
</event>
<event>
 8    1  0.1109553E+005  0.1043930E+01  0.7957747E-01            NaN
         13   -1    0    0    0    0  0.00000000000E+00  0.00000000000E+00  0.74505805969E-08  0.10566000000E+00  0.10566000000E+00 0. -1.
     999900   -1    0    0    0    0 -0.00000000000E+00 -0.00000000000E+00 -0.74505805969E-08  0.93827000000E+00  0.93827000000E+00 0. -1.
     999902    2    1    2    0    0 -0.41239582647E-02  0.59261132185E-02 -0.22716197607E-01  0.10200940716E+01  0.10198155536E+01 0.  0.
     999903    2    3    3    0    0  0.68184726005E-01  0.69825873484E-01 -0.87238782553E-01  0.13247090315E+00  0.20325489685E-01 0.  0.
         14    1    1    2    0    0  0.41239582647E-02 -0.59261132185E-02  0.22716197607E-01  0.23835928414E-01  0.00000000000E+00 0. -1.
     999901    1    3    3    0    0 -0.72308684270E-01 -0.63899760266E-01  0.64522584946E-01  0.88762316844E+00  0.88000000000E+00 0.  1.
        -11    1    4    4    0    0  0.60084780877E-01  0.56080152678E-01 -0.63497985945E-01  0.10386250410E+00  0.51100000000E-03 0. -1.
         11    1    4    4    0    0  0.80999451283E-02  0.13745720806E-01 -0.23740796607E-01  0.28608399048E-01  0.51100000000E-03 0.  1.
</event>
<event>
 8    1  0.1109553E+005  0.1043930E+01  0.7957747E-01            NaN
         13   -1    0    0    0    0  0.00000000000E+00  0.00000000000E+00  0.74505805969E-08  0.10566000000E+00  0.10566000000E+00 0. -1.
     999900   -1    0    0    0    0 -0.00000000000E+00 -0.00000000000E+00 -0.74505805969E-08  0.93827000000E+00  0.93827000000E+00 0.  1.
     999902    2    1    2    0    0 -0.16038079494E-01 -0.15032548785E-02 -0.16619837994E-01  0.10207848324E+01  0.10205224031E+01 0.  0.
     999903    2    3    3    0    0 -0.15226767623E-02  0.78234569728E-01  0.10088559166E+00  0.12928253649E+00  0.20324989316E-01 0.  0.
         14    1    1    2    0    0  0.16038079494E-01  0.15032548785E-02  0.16619837994E-01  0.23145167617E-01  0.00000000000E+00 0. -1.
     999901    1    3    3    0    0 -0.14515402731E-01 -0.79737824607E-01 -0.11750542965E+00  0.89150229590E+00  0.88000000000E+00 0.  1.
        -11    1    4    4    0    0  0.89677918904E-02  0.47668453232E-01  0.61890133379E-01  0.78634295670E-01  0.51100000000E-03 0.  1.
         11    1    4    4    0    0 -0.10490468653E-01  0.30566116497E-01  0.38995458281E-01  0.50648240816E-01  0.51100000000E-03 0. -1.
</event>
<event>
 8    1  0.1109553E+005  0.1043930E+01  0.7957747E-01            NaN
         13   -1    0    0    0    0  0.00000000000E+00  0.00000000000E+00  0.74505805969E-08  0.10566000000E+00  0.10566000000E+00 0. -1.
     999900   -1    0    0    0    0 -0.00000000000E+00 -0.00000000000E+00 -0.74505805969E-08  0.93827000000E+00  0.93827000000E+00 0. -1.
     999902    2    1    2    0    0  0.16295653308E-01  0.32631176029E-02 -0.16750197479E-01  0.10203341239E+01  0.10200612526E+01 0.  0.
     999903    2    3    3    0    0  0.50245382967E-01  0.92939230106E-01 -0.78811839888E-01  0.13295256180E+00  0.17400533932E-01 0.  0.
         14    1    1    2    0    0 -0.16295653308E-01 -0.32631176029E-02  0.16750197479E-01  0.23595876097E-01  0.00000000000E+00 0. -1.
     999901    1    3    3    0    0 -0.33949729659E-01 -0.89676112503E-01  0.62061642409E-01  0.88738156210E+00  0.88000000000E+00 0.  1.
        -11    1    4    4    0    0  0.27267617527E-01  0.66886805631E-01 -0.55888030527E-01  0.91329627232E-01  0.51100000000E-03 0.  1.
         11    1    4    4    0    0  0.22977765440E-01  0.26052424475E-01 -0.22923809360E-01  0.41622934570E-01  0.51100000000E-03 0. -1.
</event>
<event>
 8    1  0.1109553E+005  0.1043930E+01  0.7957747E-01            NaN
         13   -1    0    0    0    0  0.00000000000E+00  0.00000000000E+00  0.74505805969E-08  0.10566000000E+00  0.10566000000E+00 0.  1.
     999900   -1    0    0    0    0 -0.00000000000E+00 -0.00000000000E+00 -0.74505805969E-08  0.93827000000E+00  0.93827000000E+00 0.  1.
     999902    2    1    2    0    0 -0.16069057405E-01  0.93458630096E-02 -0.13025125680E-01  0.10212316816E+01  0.10209793993E+01 0.  0.
     999903    2    3    3    0    0 -0.12372309938E+00 -0.43600262391E-01 -0.61327589644E-02  0.13306492375E+00  0.21454020617E-01 0.  0.
         14    1    1    2    0    0  0.16069057405E-01 -0.93458630096E-02  0.13025125680E-01  0.22698318446E-01  0.00000000000E+00 0.  1.
     999901    1    3    3    0    0  0.10765404197E+00  0.52946125401E-01 -0.68923667155E-02  0.88816675780E+00  0.88000000000E+00 0. -1.
        -11    1    4    4    0    0 -0.26924036807E-01 -0.14419871032E-01 -0.92419916517E-02  0.31914134317E-01  0.51100000000E-03 0. -1.
         11    1    4    4    0    0 -0.96799062569E-01 -0.29180391359E-01  0.31092326872E-02  0.10115078943E+00  0.51100000000E-03 0.  1.
</event>
<event>
 8    1  0.1109553E+005  0.1043930E+01  0.7957747E-01            NaN
         13   -1    0    0    0    0  0.00000000000E+00  0.00000000000E+00  0.74505805969E-08  0.10566000000E+00  0.10566000000E+00 0.  1.
     999900   -1    0    0    0    0 -0.00000000000E+00 -0.00000000000E+00 -0.74505805969E-08  0.93827000000E+00  0.93827000000E+00 0.  1.
     999902    2    1    2    0    0  0.10590538565E-01  0.11665417599E-01 -0.17927339386E-01  0.10200630569E+01  0.10197838051E+01 0.  0.
     999903    2    3    3    0    0  0.59221630087E-01  0.56324074092E-01  0.98582841395E-01  0.12993160545E+00  0.22000970076E-01 0.  0.
         14    1    1    2    0    0 -0.10590538565E-01 -0.11665417599E-01  0.17927339386E-01  0.23866943087E-01  0.00000000000E+00 0.  1.
     999901    1    3    3    0    0 -0.48631091522E-01 -0.44658656493E-01 -0.11651018078E+00  0.89013145147E+00  0.88000000000E+00 0.  1.
        -11    1    4    4    0    0  0.55099634457E-01  0.46284801070E-01  0.74858670971E-01  0.10383801938E+00  0.51100000000E-03 0. -1.
         11    1    4    4    0    0  0.41219956301E-02  0.10039273022E-01  0.23724170425E-01  0.26093586072E-01  0.51100000000E-03 0.  1.
</event>
<event>
 8    1  0.1109553E+005  0.1043930E+01  0.7957747E-01            NaN
         13   -1    0    0    0    0  0.00000000000E+00  0.00000000000E+00  0.74505805969E-08  0.10566000000E+00  0.10566000000E+00 0. -1.
     999900   -1    0    0    0    0 -0.00000000000E+00 -0.00000000000E+00 -0.74505805969E-08  0.93827000000E+00  0.93827000000E+00 0.  1.
     999902    2    1    2    0    0 -0.11176330911E-01  0.13645689773E-01  0.90443438278E-02  0.10241079068E+01  0.10239160559E+01 0.  0.
     999903    2    3    3    0    0  0.11883162430E+00  0.57278808758E-01  0.14187164237E-01  0.13347197331E+00  0.14549060573E-01 0.  0.
         14    1    1    2    0    0  0.11176330911E-01 -0.13645689773E-01 -0.90443438278E-02  0.19822093161E-01  0.00000000000E+00 0.  1.
     999901    1    3    3    0    0 -0.13000795521E+00 -0.43633118985E-01 -0.51428204091E-02  0.89063593353E+00  0.88000000000E+00 0. -1.
        -11    1    4    4    0    0  0.36723351418E-01  0.13831249077E-01  0.99120166619E-02  0.40477366338E-01  0.51100000000E-03 0. -1.
         11    1    4    4    0    0  0.82108272883E-01  0.43447559682E-01  0.42751475750E-02  0.92994606972E-01  0.51100000000E-03 0.  1.
</event>
<event>
 8    1  0.1109553E+005  0.1043930E+01  0.7957747E-01            NaN
         13   -1    0    0    0    0  0.00000000000E+00  0.00000000000E+00  0.74505805969E-08  0.10566000000E+00  0.10566000000E+00 0.  1.
     999900   -1    0    0    0    0 -0.00000000000E+00 -0.00000000000E+00 -0.74505805969E-08  0.93827000000E+00  0.93827000000E+00 0. -1.
     999902    2    1    2    0    0 -0.76351297687E-02 -0.13327389120E-01  0.16743660366E-01  0.10212085416E+01  0.10209557389E+01 0.  0.
     999903    2    3    3    0    0 -0.86575299113E-02 -0.10601292531E+00  0.79287675223E-01  0.13413277954E+00  0.19783173329E-01 0.  0.
         14    1    1    2    0    0  0.76351297687E-02  0.13327389120E-01 -0.16743660366E-01  0.22721458355E-01  0.00000000000E+00 0. -1.
     999901    1    3    3    0    0  0.10224001426E-02  0.92685536193E-01 -0.62544014858E-01  0.88707576211E+00  0.88000000000E+00 0.  1.
        -11    1    4    4    0    0 -0.78213566995E-02 -0.17918414464E-01  0.95106736630E-02  0.21747579913E-01  0.51100000000E-03 0.  1.
         11    1    4    4    0    0 -0.83617321179E-03 -0.88094510849E-01  0.69777001560E-01  0.11238519963E+00  0.51100000000E-03 0. -1.
</event>
<event>
 8    1  0.1109553E+005  0.1043930E+01  0.7957747E-01            NaN
         13   -1    0    0    0    0  0.00000000000E+00  0.00000000000E+00  0.74505805969E-08  0.10566000000E+00  0.10566000000E+00 0.  1.
     999900   -1    0    0    0    0 -0.00000000000E+00 -0.00000000000E+00 -0.74505805969E-08  0.93827000000E+00  0.93827000000E+00 0. -1.
     999902    2    1    2    0    0 -0.14348610732E-01 -0.68879299323E-02  0.17137945987E-01  0.10205412121E+01  0.10202731645E+01 0.  0.
     999903    2    3    3    0    0  0.91676698544E-01  0.86904773854E-01  0.18491843884E-01  0.12922742302E+00  0.20018036763E-01 0.  0.
         14    1    1    2    0    0  0.14348610732E-01  0.68879299323E-02 -0.17137945987E-01  0.23388787941E-01  0.00000000000E+00 0. -1.
     999901    1    3    3    0    0 -0.10602530928E+00 -0.93792703786E-01 -0.13538978964E-02  0.89131378904E+00  0.88000000000E+00 0.  1.
        -11    1    4    4    0    0  0.33066756313E-01  0.23824412576E-01  0.13650478252E-01  0.42983830508E-01  0.51100000000E-03 0.  1.
         11    1    4    4    0    0  0.58609942231E-01  0.63080361278E-01  0.48413656311E-02  0.86243592513E-01  0.51100000000E-03 0. -1.
</event>
<event>
 8    1  0.1109553E+005  0.1043930E+01  0.7957747E-01            NaN
         13   -1    0    0    0    0  0.00000000000E+00  0.00000000000E+00  0.74505805969E-08  0.10566000000E+00  0.10566000000E+00 0. -1.
     999900   -1    0    0    0    0 -0.00000000000E+00 -0.00000000000E+00 -0.74505805969E-08  0.93827000000E+00  0.93827000000E+00 0.  1.
     999902    2    1    2    0    0  0.13705613148E-01 -0.73666214530E-02  0.17302330529E-01  0.10206602431E+01  0.10203949482E+01 0.  0.
     999903    2    3    3    0    0 -0.13807578725E-01 -0.34417209886E-01  0.12638266388E+00  0.13308645510E+00  0.19084895497E-01 0.  0.
         14    1    1    2    0    0 -0.13705613148E-01  0.73666214530E-02 -0.17302330529E-01  0.23269756878E-01  0.00000000000E+00 0.  1.
     999901    1    3    3    0    0  0.27513191874E-01  0.27050588433E-01 -0.10908033335E+00  0.88757378802E+00  0.88000000000E+00 0.  1.
        -11    1    4    4    0    0 -0.15361524834E-01 -0.12732303612E-01  0.60993787321E-01  0.64176251162E-01  0.51100000000E-03 0.  1.
         11    1    4    4    0    0  0.15539461084E-02 -0.21684906275E-01  0.65388876555E-01  0.68910203938E-01  0.51100000000E-03 0. -1.
</event>
<event>
 8    1  0.1109553E+005  0.1043930E+01  0.7957747E-01            NaN
         13   -1    0    0    0    0  0.00000000000E+00  0.00000000000E+00  0.74505805969E-08  0.10566000000E+00  0.10566000000E+00 0.  1.
     999900   -1    0    0    0    0 -0.00000000000E+00 -0.00000000000E+00 -0.74505805969E-08  0.93827000000E+00  0.93827000000E+00 0. -1.
     999902    2    1    2    0    0  0.11005838306E-01  0.20496484718E-01 -0.75777196934E-02  0.10194625482E+01  0.10191688923E+01 0.  0.
     999903    2    3    3    0    0  0.59014965637E-01  0.94751924664E-01 -0.69488804306E-01  0.13286696447E+00  0.19085149363E-01 0.  0.
         14    1    1    2    0    0 -0.11005838306E-01 -0.20496484718E-01  0.75777196934E-02  0.24467451816E-01  0.00000000000E+00 0.  1.
     999901    1    3    3    0    0 -0.48009127331E-01 -0.74255439947E-01  0.61911084612E-01  0.88659558372E+00  0.88000000000E+00 0.  1.
        -11    1    4    4    0    0  0.24487771644E-01  0.31279700690E-01 -0.34348126348E-01  0.52517859248E-01  0.51100000000E-03 0.  1.
         11    1    4    4    0    0  0.34527193993E-01  0.63472223974E-01 -0.35140677957E-01  0.80349105219E-01  0.51100000000E-03 0. -1.
</event>
<event>
 8    1  0.1109553E+005  0.1043930E+01  0.7957747E-01            NaN
         13   -1    0    0    0    0  0.00000000000E+00  0.00000000000E+00  0.74505805969E-08  0.10566000000E+00  0.10566000000E+00 0. -1.
     999900   -1    0    0    0    0 -0.00000000000E+00 -0.00000000000E+00 -0.74505805969E-08  0.93827000000E+00  0.93827000000E+00 0. -1.
     999902    2    1    2    0    0  0.17930096077E-01 -0.99646257560E-02 -0.11563572476E-01  0.10203822120E+01  0.10201104647E+01 0.  0.
     999903    2    3    3    0    0  0.79184730851E-01  0.79501898291E-01 -0.66562231423E-01  0.13202347719E+00  0.20221138589E-01 0.  0.
         14    1    1    2    0    0 -0.17930096077E-01  0.99646257560E-02  0.11563572476E-01  0.23547788010E-01  0.00000000000E+00 0. -1.
     999901    1    3    3    0    0 -0.61254634775E-01 -0.89466524047E-01  0.54998658947E-01  0.88835873480E+00  0.88000000000E+00 0.  1.
        -11    1    4    4    0    0  0.17116057887E-01  0.18087774037E-01 -0.55983010167E-02  0.25528985536E-01  0.51100000000E-03 0.  1.
         11    1    4    4    0    0  0.62068672964E-01  0.61414124254E-01 -0.60963930406E-01  0.10649449166E+00  0.51100000000E-03 0. -1.
</event>
<event>
 8    1  0.1109553E+005  0.1043930E+01  0.7957747E-01            NaN
         13   -1    0    0    0    0  0.00000000000E+00  0.00000000000E+00  0.74505805969E-08  0.10566000000E+00  0.10566000000E+00 0. -1.
     999900   -1    0    0    0    0 -0.00000000000E+00 -0.00000000000E+00 -0.74505805969E-08  0.93827000000E+00  0.93827000000E+00 0. -1.
     999902    2    1    2    0    0  0.99812718427E-02 -0.20853889741E-01  0.14179581692E-01  0.10168085870E+01  0.10164468169E+01 0.  0.
     999903    2    3    3    0    0 -0.10017511547E+00  0.64773591779E-01 -0.30359502521E-01  0.12470420676E+00  0.19969172245E-01 0.  0.
         14    1    1    2    0    0 -0.99812718427E-02  0.20853889741E-01 -0.14179581692E-01  0.27121412977E-01  0.00000000000E+00 0.  1.
     999901    1    3    3    0    0  0.11015638731E+00 -0.85627481520E-01  0.44539084213E-01  0.89210438026E+00  0.88000000000E+00 0. -1.
        -11    1    4    4    0    0 -0.10626513860E-01  0.15070723491E-02  0.63369837981E-03  0.10763677741E-01  0.51100000000E-03 0.  1.
         11    1    4    4    0    0 -0.89548601608E-01  0.63266519430E-01 -0.30993200901E-01  0.11394052902E+00  0.51100000000E-03 0. -1.
</event>
<event>
 8    1  0.1109553E+005  0.1043930E+01  0.7957747E-01            NaN
         13   -1    0    0    0    0  0.00000000000E+00  0.00000000000E+00  0.74505805969E-08  0.10566000000E+00  0.10566000000E+00 0. -1.
     999900   -1    0    0    0    0 -0.00000000000E+00 -0.00000000000E+00 -0.74505805969E-08  0.93827000000E+00  0.93827000000E+00 0. -1.
     999902    2    1    2    0    0 -0.17355751521E-01  0.98631538675E-02 -0.12209755538E-01  0.10205295289E+01  0.10202612104E+01 0.  0.
     999903    2    3    3    0    0 -0.34139111116E-01  0.76093057484E-01 -0.10207896354E+00  0.13331785418E+00  0.19947509641E-01 0.  0.
         14    1    1    2    0    0  0.17355751521E-01 -0.98631538675E-02  0.12209755538E-01  0.23400471050E-01  0.00000000000E+00 0.  1.
     999901    1    3    3    0    0  0.16783359595E-01 -0.66229903617E-01  0.89869208007E-01  0.88721167477E+00  0.88000000000E+00 0.  1.
        -11    1    4    4    0    0 -0.17643370209E-01  0.20303230176E-01 -0.24825231999E-01  0.36606870020E-01  0.51100000000E-03 0.  1.
         11    1    4    4    0    0 -0.16495740907E-01  0.55789827308E-01 -0.77253731546E-01  0.96710984164E-01  0.51100000000E-03 0. -1.
</event>
<event>
 8    1  0.1109553E+005  0.1043930E+01  0.7957747E-01            NaN
         13   -1    0    0    0    0  0.00000000000E+00  0.00000000000E+00  0.74505805969E-08  0.10566000000E+00  0.10566000000E+00 0.  1.
     999900   -1    0    0    0    0 -0.00000000000E+00 -0.00000000000E+00 -0.74505805969E-08  0.93827000000E+00  0.93827000000E+00 0.  1.
     999902    2    1    2    0    0 -0.70897639811E-02  0.22690040524E-01 -0.28627288263E-02  0.10199863597E+01  0.10197052889E+01 0.  0.
     999903    2    3    3    0    0 -0.10302726511E+00  0.75467091223E-01  0.29556249052E-01  0.13260796733E+00  0.20035017552E-01 0.  0.
         14    1    1    2    0    0  0.70897639811E-02 -0.22690040524E-01  0.28627288263E-02  0.23943640254E-01  0.00000000000E+00 0.  1.
     999901    1    3    3    0    0  0.95937501124E-01 -0.52777050698E-01 -0.32418977878E-01  0.88737839242E+00  0.88000000000E+00 0. -1.
        -11    1    4    4    0    0 -0.58402054146E-01  0.51823951460E-01  0.24579348201E-01  0.81859192229E-01  0.51100000000E-03 0. -1.
         11    1    4    4    0    0 -0.44625210960E-01  0.23643139762E-01  0.49769008505E-02  0.50748775100E-01  0.51100000000E-03 0.  1.
</event>
<event>
 8    1  0.1109553E+005  0.1043930E+01  0.7957747E-01            NaN
         13   -1    0    0    0    0  0.00000000000E+00  0.00000000000E+00  0.74505805969E-08  0.10566000000E+00  0.10566000000E+00 0. -1.
     999900   -1    0    0    0    0 -0.00000000000E+00 -0.00000000000E+00 -0.74505805969E-08  0.93827000000E+00  0.93827000000E+00 0.  1.
     999902    2    1    2    0    0  0.42239520301E-02 -0.12038672971E-01 -0.20178499042E-01  0.10200565159E+01  0.10197771092E+01 0.  0.
     999903    2    3    3    0    0 -0.10834474885E+00  0.63992153044E-01 -0.23775771920E-01  0.12962665385E+00  0.20104770691E-01 0.  0.
         14    1    1    2    0    0 -0.42239520301E-02  0.12038672971E-01  0.20178499042E-01  0.23873484062E-01  0.00000000000E+00 0. -1.
     999901    1    3    3    0    0  0.11256870088E+00 -0.76030826015E-01  0.35972728780E-02  0.89042986209E+00  0.88000000000E+00 0. -1.
        -11    1    4    4    0    0 -0.46367076092E-01  0.36343093818E-01 -0.17554916266E-01  0.61474892596E-01  0.51100000000E-03 0. -1.
         11    1    4    4    0    0 -0.61977672756E-01  0.27649059226E-01 -0.62208556540E-02  0.68151761257E-01  0.51100000000E-03 0.  1.
</event>
<event>
 8    1  0.1109553E+005  0.1043930E+01  0.7957747E-01            NaN
         13   -1    0    0    0    0  0.00000000000E+00  0.00000000000E+00  0.74505805969E-08  0.10566000000E+00  0.10566000000E+00 0.  1.
     999900   -1    0    0    0    0 -0.00000000000E+00 -0.00000000000E+00 -0.74505805969E-08  0.93827000000E+00  0.93827000000E+00 0.  1.
     999902    2    1    2    0    0  0.21407372007E-02 -0.20092121845E-01 -0.12691307195E-01  0.10200690404E+01  0.10197899302E+01 0.  0.
     999903    2    3    3    0    0 -0.94831943606E-01 -0.60250975060E-01  0.63285926280E-01  0.13058099980E+00  0.20567243863E-01 0.  0.
         14    1    1    2    0    0 -0.21407372007E-02  0.20092121845E-01  0.12691307195E-01  0.23860959627E-01  0.00000000000E+00 0.  1.
     999901    1    3    3    0    0  0.96972680806E-01  0.40158853215E-01 -0.75977233475E-01  0.88948804057E+00  0.88000000000E+00 0.  1.
        -11    1    4    4    0    0 -0.79549904035E-01 -0.55462022734E-01  0.47114461225E-01  0.10781584659E+00  0.51100000000E-03 0. -1.
         11    1    4    4    0    0 -0.15282039571E-01 -0.47889523261E-02  0.16171465055E-01  0.22765153214E-01  0.51100000000E-03 0.  1.
</event>
<event>
 8    1  0.1109553E+005  0.1043930E+01  0.7957747E-01            NaN
         13   -1    0    0    0    0  0.00000000000E+00  0.00000000000E+00  0.74505805969E-08  0.10566000000E+00  0.10566000000E+00 0. -1.
     999900   -1    0    0    0    0 -0.00000000000E+00 -0.00000000000E+00 -0.74505805969E-08  0.93827000000E+00  0.93827000000E+00 0.  1.
     999902    2    1    2    0    0 -0.18054535680E-01  0.12625368721E-01 -0.76178102166E-02  0.10206191179E+01  0.10203528735E+01 0.  0.
     999903    2    3    3    0    0  0.78723746744E-01 -0.84758811711E-01 -0.54776015217E-01  0.12872584462E+00  0.13727591370E-01 0.  0.
         14    1    1    2    0    0  0.18054535680E-01 -0.12625368721E-01  0.76178102166E-02  0.23310882147E-01  0.00000000000E+00 0. -1.
     999901    1    3    3    0    0 -0.96778282424E-01  0.97384180432E-01  0.47158205000E-01  0.89189327324E+00  0.88000000000E+00 0. -1.
        -11    1    4    4    0    0  0.18057837778E-01 -0.11877509914E-01 -0.11532702559E-01  0.24503573133E-01  0.51100000000E-03 0. -1.
         11    1    4    4    0    0  0.60665908966E-01 -0.72881301797E-01 -0.43243312658E-01  0.10422227148E+00  0.51100000000E-03 0.  1.
</event>
<event>
 8    1  0.1109553E+005  0.1043930E+01  0.7957747E-01            NaN
         13   -1    0    0    0    0  0.00000000000E+00  0.00000000000E+00  0.74505805969E-08  0.10566000000E+00  0.10566000000E+00 0. -1.
     999900   -1    0    0    0    0 -0.00000000000E+00 -0.00000000000E+00 -0.74505805969E-08  0.93827000000E+00  0.93827000000E+00 0.  1.
     999902    2    1    2    0    0 -0.16501214604E-01 -0.16400073870E-01 -0.28391193683E-02  0.10204925704E+01  0.10202233938E+01 0.  0.
     999903    2    3    3    0    0  0.15442829110E-01  0.82100600728E-01 -0.96917128873E-01  0.12944067704E+00  0.19569603810E-01 0.  0.
         14    1    1    2    0    0  0.16501214604E-01  0.16400073870E-01  0.28391193683E-02  0.23437429577E-01  0.00000000000E+00 0. -1.
     999901    1    3    3    0    0 -0.31944043715E-01 -0.98500674599E-01  0.94078009505E-01  0.89105189338E+00  0.88000000000E+00 0. -1.
        -11    1    4    4    0    0  0.64833247827E-02  0.46265065274E-01 -0.39572761082E-01  0.61227071673E-01  0.51100000000E-03 0. -1.
         11    1    4    4    0    0  0.89595043275E-02  0.35835535455E-01 -0.57344367791E-01  0.68213605369E-01  0.51100000000E-03 0.  1.
</event>
<event>
 7    1  0.1109553E+005  0.1043930E+01  0.7957747E-01            NaN
         13   -1    0    0    0    0  0.00000000000E+00  0.00000000000E+00  0.74505805969E-08  0.10566000000E+00  0.10566000000E+00 0. -1.
     999900   -1    0    0    0    0 -0.00000000000E+00 -0.00000000000E+00 -0.74505805969E-08  0.93827000000E+00  0.93827000000E+00 0.  1.
     999902    2    1    2    0    0  0.15982373228E-01 -0.73029494150E-02 -0.16132993697E-01  0.10200753818E+01  0.10197964217E+01 0.  0.
         14    1    1    2    0    0 -0.15982373228E-01  0.73029494150E-02  0.16132993697E-01  0.23854618206E-01  0.00000000000E+00 0. -1.
     999901    1    3    3    0    0 -0.30649083760E-01 -0.28591814203E-01 -0.13431223159E+00  0.89117710570E+00  0.88000000000E+00 0.  1.
        -11    1    3    3    0    0  0.37703915860E-01  0.15413678974E-01  0.91853997780E-01  0.10048176352E+00  0.51100000000E-03 0.  1.
         11    1    3    3    0    0  0.89275411281E-02  0.58751858141E-02  0.26325240110E-01  0.28416512573E-01  0.51100000000E-03 0. -1.
</event>
<event>
 8    1  0.1109553E+005  0.1043930E+01  0.7957747E-01            NaN
         13   -1    0    0    0    0  0.00000000000E+00  0.00000000000E+00  0.74505805969E-08  0.10566000000E+00  0.10566000000E+00 0.  1.
     999900   -1    0    0    0    0 -0.00000000000E+00 -0.00000000000E+00 -0.74505805969E-08  0.93827000000E+00  0.93827000000E+00 0.  1.
     999902    2    1    2    0    0 -0.20734353625E-01 -0.48602638396E-02  0.10254515118E-01  0.10202933618E+01  0.10200195358E+01 0.  0.
     999903    2    3    3    0    0  0.45058027196E-01 -0.96023968576E-01  0.74059936186E-01  0.13084938370E+00  0.19643286642E-01 0.  0.
         14    1    1    2    0    0  0.20734353625E-01  0.48602638396E-02 -0.10254515118E-01  0.23636638195E-01  0.00000000000E+00 0. -1.
     999901    1    3    3    0    0 -0.65792380821E-01  0.91163704737E-01 -0.63805421068E-01  0.88944397811E+00  0.88000000000E+00 0.  1.
        -11    1    4    4    0    0  0.32562813567E-01 -0.84792662922E-01  0.65511737545E-01  0.11199188091E+00  0.51100000000E-03 0. -1.
         11    1    4    4    0    0  0.12495213628E-01 -0.11231305654E-01  0.85481986413E-02  0.18857502786E-01  0.51100000000E-03 0.  1.
</event>
<event>
 8    1  0.1109553E+005  0.1043930E+01  0.7957747E-01            NaN
         13   -1    0    0    0    0  0.00000000000E+00  0.00000000000E+00  0.74505805969E-08  0.10566000000E+00  0.10566000000E+00 0.  1.
     999900   -1    0    0    0    0 -0.00000000000E+00 -0.00000000000E+00 -0.74505805969E-08  0.93827000000E+00  0.93827000000E+00 0. -1.
     999902    2    1    2    0    0 -0.75221400603E-02  0.14004370465E-01  0.17715628895E-01  0.10201277209E+01  0.10198499980E+01 0.  0.
     999903    2    3    3    0    0  0.66976763479E-01  0.10052175031E+00 -0.44824392671E-01  0.13055108118E+00  0.21067735689E-01 0.  0.
         14    1    1    2    0    0  0.75221400603E-02 -0.14004370465E-01 -0.17715628895E-01  0.23802279100E-01  0.00000000000E+00 0. -1.
     999901    1    3    3    0    0 -0.74498903540E-01 -0.86517379843E-01  0.62540021566E-01  0.88957663972E+00  0.88000000000E+00 0.  1.
        -11    1    4    4    0    0  0.13813673311E-01  0.16306927652E-01 -0.16512951347E-01  0.27012444224E-01  0.51100000000E-03 0.  1.
         11    1    4    4    0    0  0.53163090168E-01  0.84214822656E-01 -0.28311441325E-01  0.10353863695E+00  0.51100000000E-03 0. -1.
</event>
<event>
 8    1  0.1109553E+005  0.1043930E+01  0.7957747E-01            NaN
         13   -1    0    0    0    0  0.00000000000E+00  0.00000000000E+00  0.74505805969E-08  0.10566000000E+00  0.10566000000E+00 0.  1.
     999900   -1    0    0    0    0 -0.00000000000E+00 -0.00000000000E+00 -0.74505805969E-08  0.93827000000E+00  0.93827000000E+00 0. -1.
     999902    2    1    2    0    0  0.20228799517E-01 -0.12756799536E-01 -0.19590875056E-02  0.10199346194E+01  0.10196523180E+01 0.  0.
     999903    2    3    3    0    0 -0.82111971552E-01 -0.84900859247E-01 -0.50075184209E-01  0.12976971475E+00  0.19547967179E-01 0.  0.
         14    1    1    2    0    0 -0.20228799517E-01  0.12756799536E-01  0.19590875056E-02  0.23995380559E-01  0.00000000000E+00 0.  1.
     999901    1    3    3    0    0  0.10234077107E+00  0.72144059711E-01  0.48116096704E-01  0.89016490469E+00  0.88000000000E+00 0.  1.
        -11    1    4    4    0    0 -0.16619420072E-01 -0.22984940428E-01 -0.20175473293E-01  0.34811254697E-01  0.51100000000E-03 0.  1.
         11    1    4    4    0    0 -0.65492551480E-01 -0.61915918818E-01 -0.29899710917E-01  0.94958460057E-01  0.51100000000E-03 0. -1.
</event>
<event>
 8    1  0.1109553E+005  0.1043930E+01  0.7957747E-01            NaN
         13   -1    0    0    0    0  0.00000000000E+00  0.00000000000E+00  0.74505805969E-08  0.10566000000E+00  0.10566000000E+00 0.  1.
     999900   -1    0    0    0    0 -0.00000000000E+00 -0.00000000000E+00 -0.74505805969E-08  0.93827000000E+00  0.93827000000E+00 0. -1.
     999902    2    1    2    0    0 -0.19377419265E-01 -0.11229708824E-01  0.79780924928E-02  0.10201552088E+01  0.10198781345E+01 0.  0.
     999903    2    3    3    0    0  0.67637424199E-01 -0.14461854065E-01 -0.10640403919E+00  0.12849086510E+00  0.20102648680E-01 0.  0.
         14    1    1    2    0    0  0.19377419265E-01  0.11229708824E-01 -0.79780924928E-02  0.23774791218E-01  0.00000000000E+00 0. -1.
     999901    1    3    3    0    0 -0.87014843463E-01  0.32321452417E-02  0.11438213168E+00  0.89166434368E+00  0.88000000000E+00 0.  1.
        -11    1    4    4    0    0  0.25612330960E-01  0.31831972415E-02 -0.46894710042E-01  0.53530357675E-01  0.51100000000E-03 0.  1.
         11    1    4    4    0    0  0.42025093239E-01 -0.17645051307E-01 -0.59509329144E-01  0.74960507426E-01  0.51100000000E-03 0. -1.
</event>
<event>
 8    1  0.1133900E+005  0.1043930E+01  0.7957747E-01            NaN
         13   -1    0    0    0    0  0.00000000000E+00  0.00000000000E+00  0.74505805969E-08  0.10566000000E+00  0.10566000000E+00 0.  1.
     999900   -1    0    0    0    0 -0.00000000000E+00 -0.00000000000E+00 -0.74505805969E-08  0.93827000000E+00  0.93827000000E+00 0.  1.
     999902    2    1    2    0    0  0.14333381298E-01  0.10453584042E-01  0.16548205979E-01  0.10196696134E+01  0.10193809661E+01 0.  0.
     999903    2    3    3    0    0  0.72052269479E-02  0.15217429705E-01 -0.12551954552E+00  0.12823439371E+00  0.20134993457E-01 0.  0.
         14    1    1    2    0    0 -0.14333381298E-01 -0.10453584042E-01 -0.16548205979E-01  0.24260386639E-01  0.00000000000E+00 0. -1.
     999901    1    3    3    0    0  0.71281543497E-02 -0.47638456632E-02  0.14206775150E+00  0.89143521965E+00  0.88000000000E+00 0. -1.
        -11    1    4    4    0    0 -0.56961997315E-02  0.10993502034E-01 -0.69099564737E-01  0.70201956854E-01  0.51100000000E-03 0.  1.
         11    1    4    4    0    0  0.12901426679E-01  0.42239276714E-02 -0.56419980784E-01  0.58032436861E-01  0.51100000000E-03 0. -1.
</event>
<event>
 8    1  0.1109553E+005  0.1043930E+01  0.7957747E-01            NaN
         13   -1    0    0    0    0  0.00000000000E+00  0.00000000000E+00  0.74505805969E-08  0.10566000000E+00  0.10566000000E+00 0. -1.
     999900   -1    0    0    0    0 -0.00000000000E+00 -0.00000000000E+00 -0.74505805969E-08  0.93827000000E+00  0.93827000000E+00 0. -1.
     999902    2    1    2    0    0  0.95640558366E-02 -0.19377399736E-01 -0.11429412458E-01  0.10194844226E+01  0.10191912979E+01 0.  0.
     999903    2    3    3    0    0  0.51655967758E-02 -0.13008626630E+00  0.11456229277E-01  0.13224175447E+00  0.20187034628E-01 0.  0.
         14    1    1    2    0    0 -0.95640558366E-02  0.19377399736E-01  0.11429412458E-01  0.24445577386E-01  0.00000000000E+00 0.  1.
     999901    1    3    3    0    0  0.43984590608E-02  0.11070886656E+00 -0.22885641734E-01  0.88724266814E+00  0.88000000000E+00 0. -1.
        -11    1    4    4    0    0  0.12324473927E-01 -0.58608141178E-01  0.61993052837E-02  0.60212119851E-01  0.51100000000E-03 0.  1.
         11    1    4    4    0    0 -0.71588771514E-02 -0.71478125119E-01  0.52569239930E-02  0.72029634620E-01  0.51100000000E-03 0. -1.
</event>
<event>
 8    1  0.1109553E+005  0.1043930E+01  0.7957747E-01            NaN
         13   -1    0    0    0    0  0.00000000000E+00  0.00000000000E+00  0.74505805969E-08  0.10566000000E+00  0.10566000000E+00 0.  1.
     999900   -1    0    0    0    0 -0.00000000000E+00 -0.00000000000E+00 -0.74505805969E-08  0.93827000000E+00  0.93827000000E+00 0.  1.
     999902    2    1    2    0    0 -0.11807493494E-01  0.64664978817E-02  0.19692323678E-01  0.10200758576E+01  0.10197969088E+01 0.  0.
     999903    2    3    3    0    0 -0.38711117030E-01  0.25331152995E-01  0.12342972322E+00  0.13337346772E+00  0.20331439247E-01 0.  0.
         14    1    1    2    0    0  0.11807493494E-01 -0.64664978817E-02 -0.19692323678E-01  0.23854142393E-01  0.00000000000E+00 0. -1.
     999901    1    3    3    0    0  0.26903623535E-01 -0.18864655113E-01 -0.10373739955E+00  0.88670238989E+00  0.88000000000E+00 0.  1.
        -11    1    4    4    0    0 -0.60183336605E-02  0.15076480067E-01  0.41650960691E-01  0.44705528055E-01  0.51100000000E-03 0.  1.
         11    1    4    4    0    0 -0.32692783369E-01  0.10254672928E-01  0.81778762533E-01  0.88667939661E-01  0.51100000000E-03 0. -1.
</event>
<event>
 8    1  0.1109553E+005  0.1043930E+01  0.7957747E-01            NaN
         13   -1    0    0    0    0  0.00000000000E+00  0.00000000000E+00  0.74505805969E-08  0.10566000000E+00  0.10566000000E+00 0.  1.
     999900   -1    0    0    0    0 -0.00000000000E+00 -0.00000000000E+00 -0.74505805969E-08  0.93827000000E+00  0.93827000000E+00 0.  1.
     999902    2    1    2    0    0  0.17314645611E-01  0.14202527249E-01  0.81155740514E-02  0.10201104434E+01  0.10198323125E+01 0.  0.
     999903    2    3    3    0    0  0.10230046161E+00 -0.32858242264E-01  0.75371704789E-01  0.13221366336E+00  0.15953380953E-01 0.  0.
         14    1    1    2    0    0 -0.17314645611E-01 -0.14202527249E-01 -0.81155740514E-02  0.23819556568E-01  0.00000000000E+00 0. -1.
     999901    1    3    3    0    0 -0.84985816004E-01  0.47060769514E-01 -0.67256130738E-01  0.88789678008E+00  0.88000000000E+00 0.  1.
        -11    1    4    4    0    0  0.90050135152E-01 -0.33579540312E-01  0.69468798841E-01  0.11858662446E+00  0.51100000000E-03 0.  1.
         11    1    4    4    0    0  0.12250326462E-01  0.72129804744E-03  0.59029059485E-02  0.13627038891E-01  0.51100000000E-03 0. -1.
</event>
<event>
 8    1  0.1109553E+005  0.1043930E+01  0.7957747E-01            NaN
         13   -1    0    0    0    0  0.00000000000E+00  0.00000000000E+00  0.74505805969E-08  0.10566000000E+00  0.10566000000E+00 0. -1.
     999900   -1    0    0    0    0 -0.00000000000E+00 -0.00000000000E+00 -0.74505805969E-08  0.93827000000E+00  0.93827000000E+00 0. -1.
     999902    2    1    2    0    0  0.75017698889E-02  0.27686638832E-02  0.22700312876E-01  0.10198624647E+01  0.10195784426E+01 0.  0.
     999903    2    3    3    0    0  0.21507111970E-03 -0.10275481372E+00 -0.74193272981E-01  0.12824782412E+00  0.19602669132E-01 0.  0.
         14    1    1    2    0    0 -0.75017698889E-02 -0.27686638832E-02 -0.22700312876E-01  0.24067535309E-01  0.00000000000E+00 0.  1.
     999901    1    3    3    0    0  0.72866987692E-02  0.10552347760E+00  0.96893585857E-01  0.89161464057E+00  0.88000000000E+00 0.  1.
        -11    1    4    4    0    0 -0.81426943461E-02 -0.45481553669E-01 -0.26640410640E-01  0.53337114615E-01  0.51100000000E-03 0.  1.
         11    1    4    4    0    0  0.83577654658E-02 -0.57273260052E-01 -0.47552862341E-01  0.74910709504E-01  0.51100000000E-03 0. -1.
</event>
<event>
 8    1  0.1109553E+005  0.1043930E+01  0.7957747E-01            NaN
         13   -1    0    0    0    0  0.00000000000E+00  0.00000000000E+00  0.74505805969E-08  0.10566000000E+00  0.10566000000E+00 0.  1.
     999900   -1    0    0    0    0 -0.00000000000E+00 -0.00000000000E+00 -0.74505805969E-08  0.93827000000E+00  0.93827000000E+00 0. -1.
     999902    2    1    2    0    0  0.13522966480E-02 -0.80686363224E-02 -0.22171544699E-01  0.10202972051E+01  0.10200234693E+01 0.  0.
     999903    2    3    3    0    0  0.11828729225E+00 -0.51388662480E-01  0.38821608404E-02  0.13112387365E+00  0.23360670573E-01 0.  0.
         14    1    1    2    0    0 -0.13522966480E-02  0.80686363224E-02  0.22171544699E-01  0.23632794855E-01  0.00000000000E+00 0.  1.
     999901    1    3    3    0    0 -0.11693499560E+00  0.43320026158E-01 -0.26053705539E-01  0.88917333149E+00  0.88000000000E+00 0. -1.
        -11    1    4    4    0    0  0.67788617163E-01 -0.17981876637E-01 -0.28977808016E-02  0.70194748798E-01  0.51100000000E-03 0. -1.
         11    1    4    4    0    0  0.50498675088E-01 -0.33406785843E-01  0.67799416420E-02  0.60929124856E-01  0.51100000000E-03 0.  1.
</event>
<event>
 8    1  0.1109553E+005  0.1043930E+01  0.7957747E-01            NaN
         13   -1    0    0    0    0  0.00000000000E+00  0.00000000000E+00  0.74505805969E-08  0.10566000000E+00  0.10566000000E+00 0.  1.
     999900   -1    0    0    0    0 -0.00000000000E+00 -0.00000000000E+00 -0.74505805969E-08  0.93827000000E+00  0.93827000000E+00 0. -1.
     999902    2    1    2    0    0 -0.46205221902E-02  0.52438612139E-02 -0.22156107198E-01  0.10206976865E+01  0.10204332544E+01 0.  0.
     999903    2    3    3    0    0 -0.63475702533E-01 -0.11254236922E+00 -0.60502179362E-02  0.13075559397E+00  0.19117283711E-01 0.  0.
         14    1    1    2    0    0  0.46205221902E-02 -0.52438612139E-02  0.22156107198E-01  0.23232313529E-01  0.00000000000E+00 0.  1.
     999901    1    3    3    0    0  0.58855180342E-01  0.11778623043E+00 -0.16105889262E-01  0.88994209250E+00  0.88000000000E+00 0. -1.
        -11    1    4    4    0    0 -0.80531172749E-02 -0.29911202690E-01  0.11096503218E-02  0.31000406272E-01  0.51100000000E-03 0. -1.
         11    1    4    4    0    0 -0.55422585258E-01 -0.82631166529E-01 -0.71598682580E-02  0.99755187700E-01  0.51100000000E-03 0.  1.
</event>
<event>
 8    1  0.1109553E+005  0.1043930E+01  0.7957747E-01            NaN
         13   -1    0    0    0    0  0.00000000000E+00  0.00000000000E+00  0.74505805969E-08  0.10566000000E+00  0.10566000000E+00 0. -1.
     999900   -1    0    0    0    0 -0.00000000000E+00 -0.00000000000E+00 -0.74505805969E-08  0.93827000000E+00  0.93827000000E+00 0.  1.
     999902    2    1    2    0    0 -0.14424062528E-02 -0.61141005422E-02  0.23074390718E-01  0.10200157727E+01  0.10197354001E+01 0.  0.
     999903    2    3    3    0    0 -0.21293781555E-01 -0.32776874071E-02  0.13011057619E+00  0.13330338000E+00  0.19412900703E-01 0.  0.
         14    1    1    2    0    0  0.14424062528E-02  0.61141005422E-02 -0.23074390718E-01  0.23914227319E-01  0.00000000000E+00 0.  1.
     999901    1    3    3    0    0  0.19851375302E-01 -0.28364131351E-02 -0.10703618547E+00  0.88671239269E+00  0.88000000000E+00 0.  1.
        -11    1    4    4    0    0 -0.24835590611E-01 -0.23226959985E-02  0.10513995937E+00  0.10805958382E+00  0.51100000000E-03 0.  1.
         11    1    4    4    0    0  0.35418090561E-02 -0.95499140867E-03  0.24970616820E-01  0.25243796175E-01  0.51100000000E-03 0. -1.
</event>
<event>
 8    1  0.1109553E+005  0.1043930E+01  0.7957747E-01            NaN
         13   -1    0    0    0    0  0.00000000000E+00  0.00000000000E+00  0.74505805969E-08  0.10566000000E+00  0.10566000000E+00 0.  1.
     999900   -1    0    0    0    0 -0.00000000000E+00 -0.00000000000E+00 -0.74505805969E-08  0.93827000000E+00  0.93827000000E+00 0. -1.
     999902    2    1    2    0    0  0.35930225621E-02  0.19074703271E-01 -0.11688269761E-01  0.10212723354E+01  0.10210209661E+01 0.  0.
     999903    2    3    3    0    0 -0.36515791259E-02 -0.77720424350E-01  0.10049823141E+00  0.12885562104E+00  0.21215045760E-01 0.  0.
         14    1    1    2    0    0 -0.35930225621E-02 -0.19074703271E-01  0.11688269761E-01  0.22657664620E-01  0.00000000000E+00 0. -1.
     999901    1    3    3    0    0  0.72446016880E-02  0.96795127622E-01 -0.11218650117E+00  0.89241671434E+00  0.88000000000E+00 0. -1.
        -11    1    4    4    0    0  0.70363631679E-02 -0.24124999681E-01  0.23329685611E-01  0.34293751150E-01  0.51100000000E-03 0. -1.
         11    1    4    4    0    0 -0.10687942294E-01 -0.53595424670E-01  0.77168545797E-01  0.94561869892E-01  0.51100000000E-03 0.  1.
</event>
<event>
 8    1  0.1109553E+005  0.1043930E+01  0.7957747E-01            NaN
         13   -1    0    0    0    0  0.00000000000E+00  0.00000000000E+00  0.74505805969E-08  0.10566000000E+00  0.10566000000E+00 0.  1.
     999900   -1    0    0    0    0 -0.00000000000E+00 -0.00000000000E+00 -0.74505805969E-08  0.93827000000E+00  0.93827000000E+00 0.  1.
     999902    2    1    2    0    0  0.12072593571E-01 -0.12552699394E-01  0.16791663899E-01  0.10197374856E+01  0.10194504705E+01 0.  0.
     999903    2    3    3    0    0 -0.18412887135E-02 -0.12221294705E+00  0.48216702675E-01  0.13226551470E+00  0.15163152357E-01 0.  0.
         14    1    1    2    0    0 -0.12072593571E-01  0.12552699394E-01 -0.16791663899E-01  0.24192514423E-01  0.00000000000E+00 0. -1.
     999901    1    3    3    0    0  0.13913882285E-01  0.10966024766E+00 -0.31425038776E-01  0.88747197088E+00  0.88000000000E+00 0.  1.
        -11    1    4    4    0    0 -0.34131030851E-03 -0.59439249365E-01  0.31555785790E-01  0.67299105459E-01  0.51100000000E-03 0.  1.
         11    1    4    4    0    0 -0.14999784050E-02 -0.62773697689E-01  0.16660916885E-01  0.64966409237E-01  0.51100000000E-03 0. -1.
</event>
<event>
 8    1  0.1109553E+005  0.1043930E+01  0.7957747E-01            NaN
         13   -1    0    0    0    0  0.00000000000E+00  0.00000000000E+00  0.74505805969E-08  0.10566000000E+00  0.10566000000E+00 0. -1.
     999900   -1    0    0    0    0 -0.00000000000E+00 -0.00000000000E+00 -0.74505805969E-08  0.93827000000E+00  0.93827000000E+00 0.  1.
     999902    2    1    2    0    0  0.85253112896E-02  0.20281721907E-01 -0.14602158936E-01  0.10175244661E+01  0.10171817865E+01 0.  0.
     999903    2    3    3    0    0 -0.61033387023E-01  0.10480456842E+00 -0.43244532903E-01  0.13027990584E+00  0.19841682044E-01 0.  0.
         14    1    1    2    0    0 -0.85253112896E-02 -0.20281721907E-01  0.14602158936E-01  0.26405533922E-01  0.00000000000E+00 0.  1.
     999901    1    3    3    0    0  0.69558698312E-01 -0.84522846508E-01  0.28642373966E-01  0.88724456024E+00  0.88000000000E+00 0. -1.
        -11    1    4    4    0    0 -0.53193892297E-01  0.77079366167E-01 -0.37575337975E-01  0.10091078243E+00  0.51100000000E-03 0. -1.
         11    1    4    4    0    0 -0.78394947254E-02  0.27725202249E-01 -0.56691949281E-02  0.29369123402E-01  0.51100000000E-03 0.  1.
</event>
<event>
 8    1  0.1109553E+005  0.1043930E+01  0.7957747E-01            NaN
         13   -1    0    0    0    0  0.00000000000E+00  0.00000000000E+00  0.74505805969E-08  0.10566000000E+00  0.10566000000E+00 0.  1.
     999900   -1    0    0    0    0 -0.00000000000E+00 -0.00000000000E+00 -0.74505805969E-08  0.93827000000E+00  0.93827000000E+00 0. -1.
     999902    2    1    2    0    0 -0.92953726551E-02  0.15144457144E-01  0.12489382477E-01  0.10222103497E+01  0.10219795770E+01 0.  0.
     999903    2    3    3    0    0  0.88933147971E-01  0.29171169272E-02 -0.93245873221E-01  0.13037051294E+00  0.19597535372E-01 0.  0.
         14    1    1    2    0    0  0.92953726551E-02 -0.15144457144E-01 -0.12489382477E-01  0.21719650311E-01  0.00000000000E+00 0. -1.
     999901    1    3    3    0    0 -0.98228520626E-01  0.12227340216E-01  0.10573525570E+00  0.89183983675E+00  0.88000000000E+00 0.  1.
        -11    1    4    4    0    0  0.15190429236E-01 -0.50269037413E-02 -0.24330853719E-01  0.29125083095E-01  0.51100000000E-03 0. -1.
         11    1    4    4    0    0  0.73742718735E-01  0.79440206685E-02 -0.68915019502E-01  0.10124542985E+00  0.51100000000E-03 0.  1.
</event>
<event>
 8    1  0.1109553E+005  0.1043930E+01  0.7957747E-01            NaN
         13   -1    0    0    0    0  0.00000000000E+00  0.00000000000E+00  0.74505805969E-08  0.10566000000E+00  0.10566000000E+00 0.  1.
     999900   -1    0    0    0    0 -0.00000000000E+00 -0.00000000000E+00 -0.74505805969E-08  0.93827000000E+00  0.93827000000E+00 0.  1.
     999902    2    1    2    0    0 -0.39910798662E-02  0.26513686973E-01  0.84948743440E-04  0.10171174744E+01  0.10167640066E+01 0.  0.
     999903    2    3    3    0    0  0.71729018791E-01 -0.24410856552E-01  0.99761176426E-01  0.12680169170E+00  0.19632489443E-01 0.  0.
         14    1    1    2    0    0  0.39910798662E-02 -0.26513686973E-01 -0.84948743440E-04  0.26812525649E-01  0.00000000000E+00 0.  1.
     999901    1    3    3    0    0 -0.75720098657E-01  0.50924543525E-01 -0.99676227682E-01  0.89031578265E+00  0.88000000000E+00 0.  1.
        -11    1    4    4    0    0  0.49476119265E-01 -0.83280184606E-02  0.71953082283E-01  0.87719720929E-01  0.51100000000E-03 0.  1.
         11    1    4    4    0    0  0.22252899526E-01 -0.16082838092E-01  0.27808094143E-01  0.39081970770E-01  0.51100000000E-03 0. -1.
</event>
<event>
 8    1  0.1109553E+005  0.1043930E+01  0.7957747E-01            NaN
         13   -1    0    0    0    0  0.00000000000E+00  0.00000000000E+00  0.74505805969E-08  0.10566000000E+00  0.10566000000E+00 0. -1.
     999900   -1    0    0    0    0 -0.00000000000E+00 -0.00000000000E+00 -0.74505805969E-08  0.93827000000E+00  0.93827000000E+00 0.  1.
     999902    2    1    2    0    0 -0.11225693761E-01 -0.17144723576E-01 -0.11854690885E-01  0.10202552995E+01  0.10199805806E+01 0.  0.
     999903    2    3    3    0    0 -0.99431255883E-01 -0.86192338936E-01 -0.54524930232E-02  0.13313141724E+00  0.19456377811E-01 0.  0.
         14    1    1    2    0    0  0.11225693761E-01  0.17144723576E-01  0.11854690885E-01  0.23674700482E-01  0.00000000000E+00 0.  1.
     999901    1    3    3    0    0  0.88205562122E-01  0.69047615360E-01 -0.64021978617E-02  0.88712388228E+00  0.88000000000E+00 0. -1.
        -11    1    4    4    0    0 -0.28880689441E-01 -0.31514380423E-01  0.58919981907E-02  0.43153530095E-01  0.51100000000E-03 0.  1.
         11    1    4    4    0    0 -0.70550566443E-01 -0.54677958513E-01 -0.11344491214E-01  0.89977887142E-01  0.51100000000E-03 0. -1.
</event>
<event>
 8    1  0.1109553E+005  0.1043930E+01  0.7957747E-01            NaN
         13   -1    0    0    0    0  0.00000000000E+00  0.00000000000E+00  0.74505805969E-08  0.10566000000E+00  0.10566000000E+00 0. -1.
     999900   -1    0    0    0    0 -0.00000000000E+00 -0.00000000000E+00 -0.74505805969E-08  0.93827000000E+00  0.93827000000E+00 0.  1.
     999902    2    1    2    0    0  0.23370253001E-01 -0.99406262919E-02  0.53707821335E-02  0.10179717628E+01  0.10176407420E+01 0.  0.
     999903    2    3    3    0    0 -0.88983057585E-01 -0.88455533911E-01 -0.56631729096E-02  0.12729246853E+00  0.20710746039E-01 0.  0.
         14    1    1    2    0    0 -0.23370253001E-01  0.99406262919E-02 -0.53707821335E-02  0.25958237173E-01  0.00000000000E+00 0. -1.
     999901    1    3    3    0    0  0.11235331059E+00  0.78514907619E-01  0.11033955043E-01  0.89067929429E+00  0.88000000000E+00 0. -1.
        -11    1    4    4    0    0 -0.62482392084E-01 -0.48275254959E-01 -0.55715840977E-02  0.79157142648E-01  0.51100000000E-03 0.  1.
         11    1    4    4    0    0 -0.26500665501E-01 -0.40180278951E-01 -0.91588811869E-04  0.48135325886E-01  0.51100000000E-03 0. -1.
</event>
<event>
 8    1  0.1109553E+005  0.1043930E+01  0.7957747E-01            NaN
         13   -1    0    0    0    0  0.00000000000E+00  0.00000000000E+00  0.74505805969E-08  0.10566000000E+00  0.10566000000E+00 0. -1.
     999900   -1    0    0    0    0 -0.00000000000E+00 -0.00000000000E+00 -0.74505805969E-08  0.93827000000E+00  0.93827000000E+00 0. -1.
     999902    2    1    2    0    0  0.62582903556E-02 -0.60669146446E-02 -0.22083106729E-01  0.10201889542E+01  0.10199126752E+01 0.  0.
     999903    2    3    3    0    0  0.73033204242E-01  0.62565305653E-01  0.83203782507E-01  0.12875494106E+00  0.20166780381E-01 0.  0.
         14    1    1    2    0    0 -0.62582903556E-02  0.60669146446E-02  0.22083106729E-01  0.23741045770E-01  0.00000000000E+00 0. -1.
     999901    1    3    3    0    0 -0.66774913887E-01 -0.68632220297E-01 -0.10528688924E+00  0.89143401317E+00  0.88000000000E+00 0. -1.
        -11    1    4    4    0    0  0.36308127656E-01  0.29881602151E-01  0.27578790099E-01  0.54516429316E-01  0.51100000000E-03 0.  1.
         11    1    4    4    0    0  0.36725076586E-01  0.32683703501E-01  0.55624992408E-01  0.74238511746E-01  0.51100000000E-03 0. -1.
</event>
<event>
 8    1  0.1109553E+005  0.1043930E+01  0.7957747E-01            NaN
         13   -1    0    0    0    0  0.00000000000E+00  0.00000000000E+00  0.74505805969E-08  0.10566000000E+00  0.10566000000E+00 0.  1.
     999900   -1    0    0    0    0 -0.00000000000E+00 -0.00000000000E+00 -0.74505805969E-08  0.93827000000E+00  0.93827000000E+00 0. -1.
     999902    2    1    2    0    0 -0.19270966173E-01  0.26198489408E-02 -0.13544594045E-01  0.10202300048E+01  0.10199546916E+01 0.  0.
     999903    2    3    3    0    0  0.84946156069E-01  0.86384626674E-01  0.38258773343E-01  0.12862396205E+00  0.20055840021E-01 0.  0.
         14    1    1    2    0    0  0.19270966173E-01 -0.26198489408E-02  0.13544594045E-01  0.23699995223E-01  0.00000000000E+00 0. -1.
     999901    1    3    3    0    0 -0.10421712224E+00 -0.83764777734E-01 -0.51803367388E-01  0.89160604273E+00  0.88000000000E+00 0.  1.
        -11    1    4    4    0    0  0.10805885336E-01  0.19536898658E-01  0.12215578397E-01  0.25454646799E-01  0.51100000000E-03 0. -1.
         11    1    4    4    0    0  0.74140270733E-01  0.66847728016E-01  0.26043194946E-01  0.10316931525E+00  0.51100000000E-03 0.  1.
</event>
<event>
 8    1  0.1109553E+005  0.1043930E+01  0.7957747E-01            NaN
         13   -1    0    0    0    0  0.00000000000E+00  0.00000000000E+00  0.74505805969E-08  0.10566000000E+00  0.10566000000E+00 0.  1.
     999900   -1    0    0    0    0 -0.00000000000E+00 -0.00000000000E+00 -0.74505805969E-08  0.93827000000E+00  0.93827000000E+00 0.  1.
     999902    2    1    2    0    0  0.81071389025E-02  0.20678144249E-01 -0.81425618924E-02  0.10202738662E+01  0.10199995831E+01 0.  0.
     999903    2    3    3    0    0 -0.29223311453E-01 -0.10968187637E+00  0.54983425608E-01  0.12765290087E+00  0.19696955905E-01 0.  0.
         14    1    1    2    0    0 -0.81071389025E-02 -0.20678144249E-01  0.81425618924E-02  0.23656133770E-01  0.00000000000E+00 0. -1.
     999901    1    3    3    0    0  0.37330450355E-01  0.13036002062E+00 -0.63125987501E-01  0.89262096536E+00  0.88000000000E+00 0. -1.
        -11    1    4    4    0    0 -0.13281424866E-02 -0.12174202154E-01  0.13054589288E-01  0.17906942314E-01  0.51100000000E-03 0. -1.
         11    1    4    4    0    0 -0.27895168966E-01 -0.97507674220E-01  0.41928836320E-01  0.10974595856E+00  0.51100000000E-03 0.  1.
</event>
<event>
 8    1  0.1109553E+005  0.1043930E+01  0.7957747E-01            NaN
         13   -1    0    0    0    0  0.00000000000E+00  0.00000000000E+00  0.74505805969E-08  0.10566000000E+00  0.10566000000E+00 0. -1.
     999900   -1    0    0    0    0 -0.00000000000E+00 -0.00000000000E+00 -0.74505805969E-08  0.93827000000E+00  0.93827000000E+00 0. -1.
     999902    2    1    2    0    0  0.13127232340E-01  0.19307103095E-01  0.26732849725E-02  0.10204303210E+01  0.10201596959E+01 0.  0.
     999903    2    3    3    0    0 -0.68881322479E-01 -0.29620688914E-01 -0.10315581403E+00  0.12896011397E+00  0.19172042899E-01 0.  0.
         14    1    1    2    0    0 -0.13127232340E-01 -0.19307103095E-01 -0.26732849725E-02  0.23499678963E-01  0.00000000000E+00 0. -1.
     999901    1    3    3    0    0  0.82008554818E-01  0.48927792010E-01  0.10582909900E+00  0.89147020707E+00  0.88000000000E+00 0.  1.
        -11    1    4    4    0    0 -0.37223954611E-01 -0.14271882126E-01 -0.70303122006E-01  0.80821404969E-01  0.51100000000E-03 0. -1.
         11    1    4    4    0    0 -0.31657367867E-01 -0.15348806788E-01 -0.32852692022E-01  0.48138709000E-01  0.51100000000E-03 0.  1.
</event>
<event>
 8    1  0.1109553E+005  0.1043930E+01  0.7957747E-01            NaN
         13   -1    0    0    0    0  0.00000000000E+00  0.00000000000E+00  0.74505805969E-08  0.10566000000E+00  0.10566000000E+00 0. -1.
     999900   -1    0    0    0    0 -0.00000000000E+00 -0.00000000000E+00 -0.74505805969E-08  0.93827000000E+00  0.93827000000E+00 0. -1.
     999902    2    1    2    0    0  0.10421759819E-01 -0.21419456682E-01  0.12256709990E-02  0.10200781977E+01  0.10197993043E+01 0.  0.
     999903    2    3    3    0    0  0.57817846229E-01  0.10907252600E+00  0.30792307437E-01  0.12870356687E+00  0.19409344575E-01 0.  0.
         14    1    1    2    0    0 -0.10421759819E-01  0.21419456682E-01 -0.12256709990E-02  0.23851802273E-01  0.00000000000E+00 0. -1.
     999901    1    3    3    0    0 -0.47396086411E-01 -0.13049198268E+00 -0.29566636438E-01  0.89137463086E+00  0.88000000000E+00 0. -1.
        -11    1    4    4    0    0  0.78703980411E-02  0.69922650492E-02  0.68277990878E-02  0.12558459190E-01  0.51100000000E-03 0. -1.
         11    1    4    4    0    0  0.49947448188E-01  0.10208026095E+00  0.23964508349E-01  0.11614510768E+00  0.51100000000E-03 0.  1.
</event>
<event>
 8    1  0.1109553E+005  0.1043930E+01  0.7957747E-01            NaN
         13   -1    0    0    0    0  0.00000000000E+00  0.00000000000E+00  0.74505805969E-08  0.10566000000E+00  0.10566000000E+00 0.  1.
     999900   -1    0    0    0    0 -0.00000000000E+00 -0.00000000000E+00 -0.74505805969E-08  0.93827000000E+00  0.93827000000E+00 0.  1.
     999902    2    1    2    0    0 -0.19526960707E-01  0.11577544548E-01  0.89228439799E-02  0.10195382211E+01  0.10192464008E+01 0.  0.
     999903    2    3    3    0    0 -0.11224508794E+00 -0.60558661192E-01 -0.23855646383E-01  0.13112687905E+00  0.18943477297E-01 0.  0.
         14    1    1    2    0    0  0.19526960707E-01 -0.11577544548E-01 -0.89228439799E-02  0.24391778879E-01  0.00000000000E+00 0. -1.
     999901    1    3    3    0    0  0.92718127234E-01  0.72136205739E-01  0.32778490363E-01  0.88841134207E+00  0.88000000000E+00 0. -1.
        -11    1    4    4    0    0 -0.47444907045E-01 -0.35727835863E-01 -0.14124379476E-01  0.61051262694E-01  0.51100000000E-03 0.  1.
         11    1    4    4    0    0 -0.64800180896E-01 -0.24830825329E-01 -0.97312669073E-02  0.70075616353E-01  0.51100000000E-03 0. -1.
</event>
<event>
 8    1  0.1109553E+005  0.1043930E+01  0.7957747E-01            NaN
         13   -1    0    0    0    0  0.00000000000E+00  0.00000000000E+00  0.74505805969E-08  0.10566000000E+00  0.10566000000E+00 0.  1.
     999900   -1    0    0    0    0 -0.00000000000E+00 -0.00000000000E+00 -0.74505805969E-08  0.93827000000E+00  0.93827000000E+00 0. -1.
     999902    2    1    2    0    0  0.13572843532E-01  0.57189027257E-02 -0.17010863905E-01  0.10214289462E+01  0.10211810783E+01 0.  0.
     999903    2    3    3    0    0  0.12075289541E+00 -0.38140513801E-01 -0.37665116760E-01  0.13360136719E+00  0.19867152565E-01 0.  0.
         14    1    1    2    0    0 -0.13572843532E-01 -0.57189027257E-02  0.17010863905E-01  0.22501053770E-01  0.00000000000E+00 0.  1.
     999901    1    3    3    0    0 -0.10718005188E+00  0.43859416527E-01  0.20654252855E-01  0.88782757904E+00  0.88000000000E+00 0. -1.
        -11    1    4    4    0    0  0.94182264698E-01 -0.32570802673E-01 -0.21330206891E-01  0.10191366453E+00  0.51100000000E-03 0.  1.
         11    1    4    4    0    0  0.26570630717E-01 -0.55697111278E-02 -0.16334909869E-01  0.31687702665E-01  0.51100000000E-03 0. -1.
</event>
<event>
 8    1  0.1109553E+005  0.1043930E+01  0.7957747E-01            NaN
         13   -1    0    0    0    0  0.00000000000E+00  0.00000000000E+00  0.74505805969E-08  0.10566000000E+00  0.10566000000E+00 0. -1.
     999900   -1    0    0    0    0 -0.00000000000E+00 -0.00000000000E+00 -0.74505805969E-08  0.93827000000E+00  0.93827000000E+00 0.  1.
     999902    2    1    2    0    0 -0.12290269595E-01 -0.12323204738E-01  0.15926642648E-01  0.10203382631E+01  0.10200654887E+01 0.  0.
     999903    2    3    3    0    0 -0.29521158565E-01  0.12283814800E+00  0.22068531459E-01  0.12983098209E+00  0.20207781278E-01 0.  0.
         14    1    1    2    0    0  0.12290269595E-01  0.12323204738E-01 -0.15926642648E-01  0.23591736854E-01  0.00000000000E+00 0.  1.
     999901    1    3    3    0    0  0.17230888970E-01 -0.13516135274E+00 -0.61418888108E-02  0.89050728105E+00  0.88000000000E+00 0. -1.
        -11    1    4    4    0    0 -0.15713850808E-01  0.55622736441E-01  0.17522645817E-03  0.57802298758E-01  0.51100000000E-03 0.  1.
         11    1    4    4    0    0 -0.13807307757E-01  0.67215411557E-01  0.21893305001E-01  0.72028683336E-01  0.51100000000E-03 0. -1.
</event>
<event>
 8    1  0.1109553E+005  0.1043930E+01  0.7957747E-01            NaN
         13   -1    0    0    0    0  0.00000000000E+00  0.00000000000E+00  0.74505805969E-08  0.10566000000E+00  0.10566000000E+00 0. -1.
     999900   -1    0    0    0    0 -0.00000000000E+00 -0.00000000000E+00 -0.74505805969E-08  0.93827000000E+00  0.93827000000E+00 0.  1.
     999902    2    1    2    0    0 -0.37995093351E-02 -0.23552175446E-01  0.27746003698E-02  0.10199125137E+01  0.10196296857E+01 0.  0.
     999903    2    3    3    0    0  0.91251658783E-01 -0.22500178393E-01 -0.88072988595E-01  0.13014337756E+00  0.18636634484E-01 0.  0.
         14    1    1    2    0    0  0.37995093351E-02  0.23552175446E-01 -0.27746003698E-02  0.24017486269E-01  0.00000000000E+00 0. -1.
     999901    1    3    3    0    0 -0.95051168118E-01 -0.10519970539E-02  0.90847588965E-01  0.88976913617E+00  0.88000000000E+00 0. -1.
        -11    1    4    4    0    0  0.20947152905E-01  0.93913569420E-03 -0.26470579980E-01  0.33773035341E-01  0.51100000000E-03 0. -1.
         11    1    4    4    0    0  0.70304505879E-01 -0.23439314087E-01 -0.61602408615E-01  0.96370342221E-01  0.51100000000E-03 0.  1.
</event>
<event>
 8    1  0.1109553E+005  0.1043930E+01  0.7957747E-01            NaN
         13   -1    0    0    0    0  0.00000000000E+00  0.00000000000E+00  0.74505805969E-08  0.10566000000E+00  0.10566000000E+00 0.  1.
     999900   -1    0    0    0    0 -0.00000000000E+00 -0.00000000000E+00 -0.74505805969E-08  0.93827000000E+00  0.93827000000E+00 0. -1.
     999902    2    1    2    0    0  0.18222482405E-01  0.14370708464E-03  0.10601393642E-01  0.10228475650E+01  0.10226302715E+01 0.  0.
     999903    2    3    3    0    0  0.53494543544E-01  0.11476196925E+00  0.39533476170E-01  0.13424274302E+00  0.20645642163E-01 0.  0.
         14    1    1    2    0    0 -0.18222482405E-01 -0.14370708464E-03 -0.10601393642E-01  0.21082434961E-01  0.00000000000E+00 0. -1.
     999901    1    3    3    0    0 -0.35272061138E-01 -0.11461826216E+00 -0.28932082528E-01  0.88860482202E+00  0.88000000000E+00 0. -1.
        -11    1    4    4    0    0  0.44515266186E-01  0.74674283690E-01  0.30866512711E-01  0.92254323997E-01  0.51100000000E-03 0.  1.
         11    1    4    4    0    0  0.89792773572E-02  0.40087685559E-01  0.86669634586E-02  0.41988419021E-01  0.51100000000E-03 0. -1.
</event>
<event>
 8    1  0.1109553E+005  0.1043930E+01  0.7957747E-01            NaN
         13   -1    0    0    0    0  0.00000000000E+00  0.00000000000E+00  0.74505805969E-08  0.10566000000E+00  0.10566000000E+00 0.  1.
     999900   -1    0    0    0    0 -0.00000000000E+00 -0.00000000000E+00 -0.74505805969E-08  0.93827000000E+00  0.93827000000E+00 0.  1.
     999902    2    1    2    0    0  0.13119340653E-01 -0.41067026950E-02  0.20683214312E-01  0.10190949953E+01  0.10187923399E+01 0.  0.
     999903    2    3    3    0    0  0.73470713045E-01 -0.76198635146E-01 -0.69974332926E-01  0.12945555945E+00  0.25654569397E-01 0.  0.
         14    1    1    2    0    0 -0.13119340653E-01  0.41067026950E-02 -0.20683214312E-01  0.24835004740E-01  0.00000000000E+00 0. -1.
     999901    1    3    3    0    0 -0.60351372392E-01  0.72091932451E-01  0.90657547238E-01  0.88963943581E+00  0.88000000000E+00 0. -1.
        -11    1    4    4    0    0  0.51718294699E-02 -0.46986975552E-02 -0.14434995193E-01  0.16045428820E-01  0.51100000000E-03 0. -1.
         11    1    4    4    0    0  0.68298883575E-01 -0.71499937591E-01 -0.55539337733E-01  0.11341013063E+00  0.51100000000E-03 0.  1.
</event>
<event>
 8    1  0.1109553E+005  0.1043930E+01  0.7957747E-01            NaN
         13   -1    0    0    0    0  0.00000000000E+00  0.00000000000E+00  0.74505805969E-08  0.10566000000E+00  0.10566000000E+00 0.  1.
     999900   -1    0    0    0    0 -0.00000000000E+00 -0.00000000000E+00 -0.74505805969E-08  0.93827000000E+00  0.93827000000E+00 0.  1.
     999902    2    1    2    0    0  0.11217270785E-02  0.15885324706E-01  0.17556540607E-01  0.10202269637E+01  0.10199515790E+01 0.  0.
     999903    2    3    3    0    0 -0.17899354918E-02 -0.46362002430E-01 -0.11746877308E+00  0.12775004922E+00  0.19196960363E-01 0.  0.
         14    1    1    2    0    0 -0.11217270785E-02 -0.15885324706E-01 -0.17556540607E-01  0.23703036319E-01  0.00000000000E+00 0. -1.
     999901    1    3    3    0    0  0.29116625704E-02  0.62247327136E-01  0.13502531369E+00  0.89247691446E+00  0.88000000000E+00 0. -1.
        -11    1    4    4    0    0  0.55700501837E-02 -0.27994726346E-01 -0.51590582570E-01  0.58962526177E-01  0.51100000000E-03 0.  1.
         11    1    4    4    0    0 -0.73599856755E-02 -0.18367276084E-01 -0.65878190511E-01  0.68787523040E-01  0.51100000000E-03 0. -1.
</event>
<event>
 8    1  0.1109553E+005  0.1043930E+01  0.7957747E-01            NaN
         13   -1    0    0    0    0  0.00000000000E+00  0.00000000000E+00  0.74505805969E-08  0.10566000000E+00  0.10566000000E+00 0.  1.
     999900   -1    0    0    0    0 -0.00000000000E+00 -0.00000000000E+00 -0.74505805969E-08  0.93827000000E+00  0.93827000000E+00 0. -1.
     999902    2    1    2    0    0  0.57865068021E-02 -0.10954981557E-01  0.20189626630E-01  0.10202421064E+01  0.10199670775E+01 0.  0.
     999903    2    3    3    0    0 -0.19042664984E-01 -0.12598513042E+00 -0.24502762147E-01  0.13128438378E+00  0.20008195671E-01 0.  0.
         14    1    1    2    0    0 -0.57865068021E-02  0.10954981557E-01 -0.20189626630E-01  0.23687893645E-01  0.00000000000E+00 0. -1.
     999901    1    3    3    0    0  0.24829171786E-01  0.11503014886E+00  0.44692388776E-01  0.88895772258E+00  0.88000000000E+00 0.  1.
        -11    1    4    4    0    0 -0.19673297505E-01 -0.86635178880E-01 -0.10279983991E-01  0.89435071679E-01  0.51100000000E-03 0.  1.
         11    1    4    4    0    0  0.63063252058E-03 -0.39349951540E-01 -0.14222778155E-01  0.41849312097E-01  0.51100000000E-03 0. -1.
</event>
<event>
 8    1  0.1109553E+005  0.1043930E+01  0.7957747E-01            NaN
         13   -1    0    0    0    0  0.00000000000E+00  0.00000000000E+00  0.74505805969E-08  0.10566000000E+00  0.10566000000E+00 0. -1.
     999900   -1    0    0    0    0 -0.00000000000E+00 -0.00000000000E+00 -0.74505805969E-08  0.93827000000E+00  0.93827000000E+00 0.  1.
     999902    2    1    2    0    0 -0.15331354865E-01  0.11623767704E-01  0.13543463037E-01  0.10204015532E+01  0.10201302574E+01 0.  0.
     999903    2    3    3    0    0  0.90201108509E-01 -0.84030855761E-01  0.31377557472E-01  0.12877104523E+00  0.20000157047E-01 0.  0.
         14    1    1    2    0    0  0.15331354865E-01 -0.11623767704E-01 -0.13543463037E-01  0.23528446797E-01  0.00000000000E+00 0. -1.
     999901    1    3    3    0    0 -0.10553246337E+00  0.95654623465E-01 -0.17834094435E-01  0.89163050797E+00  0.88000000000E+00 0.  1.
        -11    1    4    4    0    0  0.40793742457E-01 -0.36510349300E-01  0.38047175263E-02  0.54880525017E-01  0.51100000000E-03 0.  1.
         11    1    4    4    0    0  0.49407366052E-01 -0.47520506460E-01  0.27572839946E-01  0.73890520218E-01  0.51100000000E-03 0. -1.
</event>
<event>
 8    1  0.1109553E+005  0.1043930E+01  0.7957747E-01            NaN
         13   -1    0    0    0    0  0.00000000000E+00  0.00000000000E+00  0.74505805969E-08  0.10566000000E+00  0.10566000000E+00 0.  1.
     999900   -1    0    0    0    0 -0.00000000000E+00 -0.00000000000E+00 -0.74505805969E-08  0.93827000000E+00  0.93827000000E+00 0. -1.
     999902    2    1    2    0    0 -0.17681734268E-01  0.12918895878E-01  0.81828301398E-02  0.10205526540E+01  0.10202848716E+01 0.  0.
     999903    2    3    3    0    0  0.10538075213E+00 -0.62522830649E-01 -0.30998105733E-01  0.12793236775E+00  0.19788908192E-01 0.  0.
         14    1    1    2    0    0  0.17681734268E-01 -0.12918895878E-01 -0.81828301398E-02  0.23377346011E-01  0.00000000000E+00 0. -1.
     999901    1    3    3    0    0 -0.12306248640E+00  0.75441726527E-01  0.39180935873E-01  0.89262028623E+00  0.88000000000E+00 0. -1.
        -11    1    4    4    0    0  0.46246047246E-01 -0.37399992389E-01 -0.98461467144E-02  0.60288174983E-01  0.51100000000E-03 0.  1.
         11    1    4    4    0    0  0.59134704888E-01 -0.25122838260E-01 -0.21151959018E-01  0.67644192772E-01  0.51100000000E-03 0. -1.
</event>
<event>
 8    1  0.1109553E+005  0.1043930E+01  0.7957747E-01            NaN
         13   -1    0    0    0    0  0.00000000000E+00  0.00000000000E+00  0.74505805969E-08  0.10566000000E+00  0.10566000000E+00 0. -1.
     999900   -1    0    0    0    0 -0.00000000000E+00 -0.00000000000E+00 -0.74505805969E-08  0.93827000000E+00  0.93827000000E+00 0. -1.
     999902    2    1    2    0    0  0.10372727343E-01  0.25703042846E-02  0.22318879785E-01  0.10191846503E+01  0.10188842030E+01 0.  0.
     999903    2    3    3    0    0  0.46233361935E-01  0.59653077856E-01 -0.10133418072E+00  0.12798629555E+00  0.20392699968E-01 0.  0.
         14    1    1    2    0    0 -0.10372727343E-01 -0.25703042846E-02 -0.22318879785E-01  0.24745349694E-01  0.00000000000E+00 0.  1.
     999901    1    3    3    0    0 -0.35860634593E-01 -0.57082773571E-01  0.12365306051E+00  0.89119835476E+00  0.88000000000E+00 0.  1.
        -11    1    4    4    0    0  0.21162713806E-01  0.37779694834E-01 -0.44273074762E-01  0.61931672570E-01  0.51100000000E-03 0. -1.
         11    1    4    4    0    0  0.25070648130E-01  0.21873383022E-01 -0.57061105959E-01  0.66054622977E-01  0.51100000000E-03 0.  1.
</event>
<event>
 8    1  0.1109553E+005  0.1043930E+01  0.7957747E-01            NaN
         13   -1    0    0    0    0  0.00000000000E+00  0.00000000000E+00  0.74505805969E-08  0.10566000000E+00  0.10566000000E+00 0. -1.
     999900   -1    0    0    0    0 -0.00000000000E+00 -0.00000000000E+00 -0.74505805969E-08  0.93827000000E+00  0.93827000000E+00 0.  1.
     999902    2    1    2    0    0 -0.49548886068E-02 -0.18766849726E-01  0.11776659813E-01  0.10212268001E+01  0.10209744081E+01 0.  0.
     999903    2    3    3    0    0 -0.34874043236E-01  0.99734699865E-01 -0.71332280835E-01  0.12890126023E+00  0.19079605642E-01 0.  0.
         14    1    1    2    0    0  0.49548886068E-02  0.18766849726E-01 -0.11776659813E-01  0.22703199909E-01  0.00000000000E+00 0.  1.
     999901    1    3    3    0    0  0.29919154629E-01 -0.11850154959E+00  0.83108940649E-01  0.89232553986E+00  0.88000000000E+00 0.  1.
        -11    1    4    4    0    0 -0.27069718221E-01  0.49260599638E-01 -0.34918734403E-01  0.66173676448E-01  0.51100000000E-03 0.  1.
         11    1    4    4    0    0 -0.78043250145E-02  0.50474100227E-01 -0.36413546432E-01  0.62727583784E-01  0.51100000000E-03 0. -1.
</event>
<event>
 8    1  0.1109553E+005  0.1043930E+01  0.7957747E-01            NaN
         13   -1    0    0    0    0  0.00000000000E+00  0.00000000000E+00  0.74505805969E-08  0.10566000000E+00  0.10566000000E+00 0. -1.
     999900   -1    0    0    0    0 -0.00000000000E+00 -0.00000000000E+00 -0.74505805969E-08  0.93827000000E+00  0.93827000000E+00 0. -1.
     999902    2    1    2    0    0  0.20850852280E-02  0.22971536298E-02  0.24149292104E-01  0.10195822526E+01  0.10192914975E+01 0.  0.
     999903    2    3    3    0    0  0.43932001964E-01 -0.88213893746E-01  0.85230856891E-01  0.13184672232E+00  0.20187802575E-01 0.  0.
         14    1    1    2    0    0 -0.20850852280E-02 -0.22971536298E-02 -0.24149292104E-01  0.24347747418E-01  0.00000000000E+00 0.  1.
     999901    1    3    3    0    0 -0.41846916736E-01  0.90511047376E-01 -0.61081564787E-01  0.88773553026E+00  0.88000000000E+00 0. -1.
        -11    1    4    4    0    0  0.18579069825E-01 -0.41895492867E-01  0.26813793704E-01  0.53100421957E-01  0.51100000000E-03 0. -1.
         11    1    4    4    0    0  0.25352932139E-01 -0.46318400879E-01  0.58417063187E-01  0.78746300360E-01  0.51100000000E-03 0.  1.
</event>
<event>
 8    1  0.1109553E+005  0.1043930E+01  0.7957747E-01            NaN
         13   -1    0    0    0    0  0.00000000000E+00  0.00000000000E+00  0.74505805969E-08  0.10566000000E+00  0.10566000000E+00 0. -1.
     999900   -1    0    0    0    0 -0.00000000000E+00 -0.00000000000E+00 -0.74505805969E-08  0.93827000000E+00  0.93827000000E+00 0. -1.
     999902    2    1    2    0    0  0.22988793548E-01 -0.37722594276E-03 -0.65425492229E-02  0.10200253586E+01  0.10197452135E+01 0.  0.
     999903    2    3    3    0    0 -0.10449684604E+00  0.45762756521E-01  0.53702847984E-01  0.12760673817E+00  0.19638305134E-01 0.  0.
         14    1    1    2    0    0 -0.22988793548E-01  0.37722594276E-03  0.65425492229E-02  0.23904641359E-01  0.00000000000E+00 0. -1.
     999901    1    3    3    0    0  0.12748563958E+00 -0.46139982464E-01 -0.60245397207E-01  0.89241862047E+00  0.88000000000E+00 0.  1.
        -11    1    4    4    0    0 -0.17923695342E-01  0.15773144773E-01  0.14592201348E-01  0.27986504103E-01  0.51100000000E-03 0. -1.
         11    1    4    4    0    0 -0.86573150694E-01  0.29989611748E-01  0.39110646635E-01  0.99620234065E-01  0.51100000000E-03 0.  1.
</event>
<event>
 8    1  0.1109553E+005  0.1043930E+01  0.7957747E-01            NaN
         13   -1    0    0    0    0  0.00000000000E+00  0.00000000000E+00  0.74505805969E-08  0.10566000000E+00  0.10566000000E+00 0. -1.
     999900   -1    0    0    0    0 -0.00000000000E+00 -0.00000000000E+00 -0.74505805969E-08  0.93827000000E+00  0.93827000000E+00 0. -1.
     999902    2    1    2    0    0  0.10827788182E-01 -0.18640066267E-01 -0.12001413059E-01  0.10192576069E+01  0.10189589502E+01 0.  0.
     999903    2    3    3    0    0  0.18107943679E-01  0.34405445480E-01  0.12002275482E+00  0.12779969542E+00  0.20387941861E-01 0.  0.
         14    1    1    2    0    0 -0.10827788182E-01  0.18640066267E-01  0.12001413059E-01  0.24672393130E-01  0.00000000000E+00 0. -1.
     999901    1    3    3    0    0 -0.72801554975E-02 -0.53045511747E-01 -0.13202416788E+00  0.89145791145E+00  0.88000000000E+00 0. -1.
        -11    1    4    4    0    0 -0.42329240038E-02  0.80986731822E-02  0.20171467037E-01  0.22150741666E-01  0.51100000000E-03 0.  1.
         11    1    4    4    0    0  0.22340867683E-01  0.26306772298E-01  0.99851287779E-01  0.10564895376E+00  0.51100000000E-03 0. -1.
</event>
<event>
 8    1  0.1109553E+005  0.1043930E+01  0.7957747E-01            NaN
         13   -1    0    0    0    0  0.00000000000E+00  0.00000000000E+00  0.74505805969E-08  0.10566000000E+00  0.10566000000E+00 0.  1.
     999900   -1    0    0    0    0 -0.00000000000E+00 -0.00000000000E+00 -0.74505805969E-08  0.93827000000E+00  0.93827000000E+00 0.  1.
     999902    2    1    2    0    0 -0.11488427972E-03 -0.21423828712E-01 -0.89191625059E-02  0.10207234256E+01  0.10204595859E+01 0.  0.
     999903    2    3    3    0    0 -0.10338727172E+00 -0.22808661236E-01  0.74090792697E-01  0.13080334132E+00  0.20270805484E-01 0.  0.
         14    1    1    2    0    0  0.11488427972E-03  0.21423828712E-01  0.89191625059E-02  0.23206574389E-01  0.00000000000E+00 0.  1.
     999901    1    3    3    0    0  0.10327238744E+00  0.13848325239E-02 -0.83009955203E-01  0.88992008430E+00  0.88000000000E+00 0. -1.
        -11    1    4    4    0    0 -0.50984100028E-01 -0.17668602599E-01  0.47130418926E-01  0.71645624309E-01  0.51100000000E-03 0. -1.
         11    1    4    4    0    0 -0.52403171696E-01 -0.51400586370E-02  0.26960373771E-01  0.59157717006E-01  0.51100000000E-03 0.  1.
</event>
<event>
 8    1  0.1109553E+005  0.1043930E+01  0.7957747E-01            NaN
         13   -1    0    0    0    0  0.00000000000E+00  0.00000000000E+00  0.74505805969E-08  0.10566000000E+00  0.10566000000E+00 0. -1.
     999900   -1    0    0    0    0 -0.00000000000E+00 -0.00000000000E+00 -0.74505805969E-08  0.93827000000E+00  0.93827000000E+00 0. -1.
     999902    2    1    2    0    0  0.68563416953E-02  0.13353382907E-01 -0.57290825762E-02  0.10278631197E+01  0.10277375385E+01 0.  0.
     999903    2    3    3    0    0 -0.11395358513E+00  0.26854150922E-01 -0.68806729922E-01  0.13727000339E+00  0.20052998855E-01 0.  0.
         14    1    1    2    0    0 -0.68563416953E-02 -0.13353382907E-01  0.57290825762E-02  0.16066880334E-01  0.00000000000E+00 0. -1.
     999901    1    3    3    0    0  0.12080992683E+00 -0.13500768015E-01  0.63077647346E-01  0.89059311627E+00  0.88000000000E+00 0.  1.
        -11    1    4    4    0    0 -0.58914466251E-01  0.20839926560E-01 -0.27953952304E-01  0.68460948307E-01  0.51100000000E-03 0. -1.
         11    1    4    4    0    0 -0.55039118880E-01  0.60142243617E-02 -0.40852777618E-01  0.68809055086E-01  0.51100000000E-03 0.  1.
</event>
<event>
 8    1  0.1109553E+005  0.1043930E+01  0.7957747E-01            NaN
         13   -1    0    0    0    0  0.00000000000E+00  0.00000000000E+00  0.74505805969E-08  0.10566000000E+00  0.10566000000E+00 0.  1.
     999900   -1    0    0    0    0 -0.00000000000E+00 -0.00000000000E+00 -0.74505805969E-08  0.93827000000E+00  0.93827000000E+00 0. -1.
     999902    2    1    2    0    0  0.17643351918E-01 -0.12781275578E-01  0.11515773336E-01  0.10192873153E+01  0.10189893862E+01 0.  0.
     999903    2    3    3    0    0 -0.90614998478E-01 -0.19606962979E-01  0.88108845267E-01  0.12932497955E+00  0.19138201967E-01 0.  0.
         14    1    1    2    0    0 -0.17643351918E-01  0.12781275578E-01 -0.11515773336E-01  0.24642684672E-01  0.00000000000E+00 0. -1.
     999901    1    3    3    0    0  0.10825835040E+00  0.68256874006E-02 -0.76593071931E-01  0.88996233578E+00  0.88000000000E+00 0. -1.
        -11    1    4    4    0    0 -0.72874781246E-01 -0.23263639421E-01  0.72807301423E-01  0.10560821427E+00  0.51100000000E-03 0.  1.
         11    1    4    4    0    0 -0.17740217232E-01  0.36566764428E-02  0.15301543844E-01  0.23716765274E-01  0.51100000000E-03 0. -1.
</event>
<event>
 8    1  0.1109553E+005  0.1043930E+01  0.7957747E-01            NaN
         13   -1    0    0    0    0  0.00000000000E+00  0.00000000000E+00  0.74505805969E-08  0.10566000000E+00  0.10566000000E+00 0.  1.
     999900   -1    0    0    0    0 -0.00000000000E+00 -0.00000000000E+00 -0.74505805969E-08  0.93827000000E+00  0.93827000000E+00 0. -1.
     999902    2    1    2    0    0 -0.15420356242E-01  0.15543335207E-01  0.85725378865E-02  0.10204167896E+01  0.10201458491E+01 0.  0.
     999903    2    3    3    0    0  0.27962614153E-01  0.10973174597E+00 -0.63554869327E-01  0.13139716009E+00  0.20075567218E-01 0.  0.
         14    1    1    2    0    0  0.15420356242E-01 -0.15543335207E-01 -0.85725378865E-02  0.23513210368E-01  0.00000000000E+00 0.  1.
     999901    1    3    3    0    0 -0.43382970395E-01 -0.94188410767E-01  0.72127407213E-01  0.88901962954E+00  0.88000000000E+00 0.  1.
        -11    1    4    4    0    0  0.18693864268E-03  0.39125933138E-01 -0.21520031579E-01  0.44656986801E-01  0.51100000000E-03 0.  1.
         11    1    4    4    0    0  0.27775675510E-01  0.70605812837E-01 -0.42034837747E-01  0.86740173287E-01  0.51100000000E-03 0. -1.
</event>
<event>
 8    1  0.1109553E+005  0.1043930E+01  0.7957747E-01            NaN
         13   -1    0    0    0    0  0.00000000000E+00  0.00000000000E+00  0.74505805969E-08  0.10566000000E+00  0.10566000000E+00 0. -1.
     999900   -1    0    0    0    0 -0.00000000000E+00 -0.00000000000E+00 -0.74505805969E-08  0.93827000000E+00  0.93827000000E+00 0.  1.
     999902    2    1    2    0    0 -0.20504187377E-01  0.12426418375E-01 -0.75974764749E-03  0.10199421950E+01  0.10196600739E+01 0.  0.
     999903    2    3    3    0    0 -0.10437155205E+00 -0.62071273916E-01 -0.46693080387E-01  0.13163283891E+00  0.20017407436E-01 0.  0.
         14    1    1    2    0    0  0.20504187377E-01 -0.12426418375E-01  0.75974764749E-03  0.23987805029E-01  0.00000000000E+00 0.  1.
     999901    1    3    3    0    0  0.83867364670E-01  0.74497692290E-01  0.45933332740E-01  0.88830935606E+00  0.88000000000E+00 0. -1.
        -11    1    4    4    0    0 -0.67299551358E-01 -0.50333607221E-01 -0.28957519086E-01  0.88890385653E-01  0.51100000000E-03 0.  1.
         11    1    4    4    0    0 -0.37072000689E-01 -0.11737666694E-01 -0.17735561301E-01  0.42742453254E-01  0.51100000000E-03 0. -1.
</event>
<event>
 8    1  0.1109553E+005  0.1043930E+01  0.7957747E-01            NaN
         13   -1    0    0    0    0  0.00000000000E+00  0.00000000000E+00  0.74505805969E-08  0.10566000000E+00  0.10566000000E+00 0.  1.
     999900   -1    0    0    0    0 -0.00000000000E+00 -0.00000000000E+00 -0.74505805969E-08  0.93827000000E+00  0.93827000000E+00 0.  1.
     999902    2    1    2    0    0  0.11213682969E-01  0.10360776284E-03 -0.21854576222E-01  0.10193662071E+01  0.10190702057E+01 0.  0.
     999903    2    3    3    0    0  0.72053342462E-01 -0.62736781068E-01  0.83896384682E-01  0.12872955594E+00  0.20127278791E-01 0.  0.
         14    1    1    2    0    0 -0.11213682969E-01 -0.10360776284E-03  0.21854576222E-01  0.24563792910E-01  0.00000000000E+00 0.  1.
     999901    1    3    3    0    0 -0.60839659493E-01  0.62840388831E-01 -0.10575096090E+00  0.89063665115E+00  0.88000000000E+00 0.  1.
        -11    1    4    4    0    0  0.23279746550E-01 -0.24086338962E-01  0.17765715268E-01  0.37920707852E-01  0.51100000000E-03 0.  1.
         11    1    4    4    0    0  0.48773595912E-01 -0.38650442105E-01  0.66130669415E-01  0.90808848090E-01  0.51100000000E-03 0. -1.
</event>
<event>
 8    1  0.1109553E+005  0.1043930E+01  0.7957747E-01            NaN
         13   -1    0    0    0    0  0.00000000000E+00  0.00000000000E+00  0.74505805969E-08  0.10566000000E+00  0.10566000000E+00 0. -1.
     999900   -1    0    0    0    0 -0.00000000000E+00 -0.00000000000E+00 -0.74505805969E-08  0.93827000000E+00  0.93827000000E+00 0.  1.
     999902    2    1    2    0    0  0.10450844869E-01 -0.11996964920E-01 -0.17786054007E-01  0.10200659885E+01  0.10197868061E+01 0.  0.
     999903    2    3    3    0    0 -0.66828900633E-01  0.61919087709E-02 -0.11143047130E+00  0.13154346712E+00  0.19557405559E-01 0.  0.
         14    1    1    2    0    0 -0.10450844869E-01  0.11996964920E-01  0.17786054007E-01  0.23864011459E-01  0.00000000000E+00 0. -1.
     999901    1    3    3    0    0  0.77279745502E-01 -0.18188873691E-01  0.93644417294E-01  0.88852252143E+00  0.88000000000E+00 0. -1.
        -11    1    4    4    0    0 -0.58453623251E-01 -0.36094398222E-03 -0.10063522756E+00  0.11638155566E+00  0.51100000000E-03 0.  1.
         11    1    4    4    0    0 -0.83752773823E-02  0.65528527531E-02 -0.10795243744E-01  0.15161911454E-01  0.51100000000E-03 0. -1.
</event>
<event>
 8    1  0.1109553E+005  0.1043930E+01  0.7957747E-01            NaN
         13   -1    0    0    0    0  0.00000000000E+00  0.00000000000E+00  0.74505805969E-08  0.10566000000E+00  0.10566000000E+00 0.  1.
     999900   -1    0    0    0    0 -0.00000000000E+00 -0.00000000000E+00 -0.74505805969E-08  0.93827000000E+00  0.93827000000E+00 0. -1.
     999902    2    1    2    0    0  0.18064440554E-01 -0.59395656310E-02  0.16161545755E-01  0.10189740786E+01  0.10186684322E+01 0.  0.
     999903    2    3    3    0    0  0.61933766196E-01 -0.37190037596E-01 -0.10479868547E+00  0.12906819184E+00  0.21376233894E-01 0.  0.
         14    1    1    2    0    0 -0.18064440554E-01  0.59395656310E-02 -0.16161545755E-01  0.24955921413E-01  0.00000000000E+00 0. -1.
     999901    1    3    3    0    0 -0.43869325642E-01  0.31250471965E-01  0.12096023123E+00  0.88990588675E+00  0.88000000000E+00 0. -1.
        -11    1    4    4    0    0  0.24169142430E-01 -0.67056884247E-02 -0.49472849615E-01  0.55470151191E-01  0.51100000000E-03 0.  1.
         11    1    4    4    0    0  0.37764623766E-01 -0.30484349171E-01 -0.55325835859E-01  0.73598040647E-01  0.51100000000E-03 0. -1.
</event>
<event>
 8    1  0.1109553E+005  0.1043930E+01  0.7957747E-01            NaN
         13   -1    0    0    0    0  0.00000000000E+00  0.00000000000E+00  0.74505805969E-08  0.10566000000E+00  0.10566000000E+00 0. -1.
     999900   -1    0    0    0    0 -0.00000000000E+00 -0.00000000000E+00 -0.74505805969E-08  0.93827000000E+00  0.93827000000E+00 0. -1.
     999902    2    1    2    0    0  0.40948009043E-02  0.21121729179E-01  0.88492306469E-02  0.10206662144E+01  0.10204010572E+01 0.  0.
     999903    2    3    3    0    0 -0.88580337264E-01  0.51110545862E-01  0.81628889454E-01  0.13230542670E+00  0.19562369319E-01 0.  0.
         14    1    1    2    0    0 -0.40948009043E-02 -0.21121729179E-01 -0.88492306469E-02  0.23263785612E-01  0.00000000000E+00 0. -1.
     999901    1    3    3    0    0  0.92675138169E-01 -0.29988816683E-01 -0.72779658807E-01  0.88836078769E+00  0.88000000000E+00 0. -1.
        -11    1    4    4    0    0 -0.43914713005E-01  0.36403014853E-01  0.46807150619E-01  0.73789240265E-01  0.51100000000E-03 0. -1.
         11    1    4    4    0    0 -0.44665624259E-01  0.14707531010E-01  0.34821738834E-01  0.58516186438E-01  0.51100000000E-03 0.  1.
</event>
<event>
 8    1  0.1109553E+005  0.1043930E+01  0.7957747E-01            NaN
         13   -1    0    0    0    0  0.00000000000E+00  0.00000000000E+00  0.74505805969E-08  0.10566000000E+00  0.10566000000E+00 0.  1.
     999900   -1    0    0    0    0 -0.00000000000E+00 -0.00000000000E+00 -0.74505805969E-08  0.93827000000E+00  0.93827000000E+00 0. -1.
     999902    2    1    2    0    0 -0.37674833085E-02 -0.10014613017E-01  0.20020513305E-01  0.10212296177E+01  0.10209772890E+01 0.  0.
     999903    2    3    3    0    0 -0.45543704092E-01  0.25557696643E-01  0.12027750780E+00  0.13383900088E+00  0.26809968969E-01 0.  0.
         14    1    1    2    0    0  0.37674833085E-02  0.10014613017E-01 -0.20020513305E-01  0.22700382317E-01  0.00000000000E+00 0. -1.
     999901    1    3    3    0    0  0.41776220783E-01 -0.35572309660E-01 -0.10025699449E+00  0.88739061680E+00  0.88000000000E+00 0. -1.
        -11    1    4    4    0    0 -0.13546749293E-01  0.85981702282E-02  0.70352726411E-01  0.72161001809E-01  0.51100000000E-03 0.  1.
         11    1    4    4    0    0 -0.31996954798E-01  0.16959526415E-01  0.49924781385E-01  0.61677999075E-01  0.51100000000E-03 0. -1.
</event>
<event>
 8    1  0.1109553E+005  0.1043930E+01  0.7957747E-01            NaN
         13   -1    0    0    0    0  0.00000000000E+00  0.00000000000E+00  0.74505805969E-08  0.10566000000E+00  0.10566000000E+00 0. -1.
     999900   -1    0    0    0    0 -0.00000000000E+00 -0.00000000000E+00 -0.74505805969E-08  0.93827000000E+00  0.93827000000E+00 0. -1.
     999902    2    1    2    0    0  0.21437521063E-01 -0.12879915198E-01 -0.37988258501E-02  0.10186339410E+01  0.10183198000E+01 0.  0.
     999903    2    3    3    0    0 -0.50216005245E-01  0.42723190778E-02 -0.11639564619E+00  0.12840561580E+00  0.20003895262E-01 0.  0.
         14    1    1    2    0    0 -0.21437521063E-01  0.12879915198E-01  0.37988258501E-02  0.25296059035E-01  0.00000000000E+00 0.  1.
     999901    1    3    3    0    0  0.71653526308E-01 -0.17152234276E-01  0.11259682034E+00  0.89022832516E+00  0.88000000000E+00 0.  1.
        -11    1    4    4    0    0 -0.38816947005E-01 -0.47000710352E-02 -0.92804503410E-01  0.10070641994E+00  0.51100000000E-03 0.  1.
         11    1    4    4    0    0 -0.11399058240E-01  0.89723901130E-02 -0.23591142775E-01  0.27699195864E-01  0.51100000000E-03 0. -1.
</event>
<event>
 8    1  0.1109553E+005  0.1043930E+01  0.7957747E-01            NaN
         13   -1    0    0    0    0  0.00000000000E+00  0.00000000000E+00  0.74505805969E-08  0.10566000000E+00  0.10566000000E+00 0.  1.
     999900   -1    0    0    0    0 -0.00000000000E+00 -0.00000000000E+00 -0.74505805969E-08  0.93827000000E+00  0.93827000000E+00 0.  1.
     999902    2    1    2    0    0 -0.18597951193E-01  0.81017942409E-02  0.10718170310E-01  0.10209865470E+01  0.10207287236E+01 0.  0.
     999903    2    3    3    0    0  0.52857873935E-01 -0.28344926329E-01 -0.11236401427E+00  0.12880746046E+00  0.19191156370E-01 0.  0.
         14    1    1    2    0    0  0.18597951193E-01 -0.81017942409E-02 -0.10718170310E-01  0.22943452950E-01  0.00000000000E+00 0. -1.
     999901    1    3    3    0    0 -0.71455825128E-01  0.36446720569E-01  0.12308218458E+00  0.89217908659E+00  0.88000000000E+00 0. -1.
        -11    1    4    4    0    0  0.33313171583E-01 -0.19527247415E-01 -0.89405190977E-01  0.97389065542E-01  0.51100000000E-03 0.  1.
         11    1    4    4    0    0  0.19544702352E-01 -0.88176789137E-02 -0.22958823290E-01  0.31418394920E-01  0.51100000000E-03 0. -1.
</event>
<event>
 8    1  0.1109553E+005  0.1043930E+01  0.7957747E-01            NaN
         13   -1    0    0    0    0  0.00000000000E+00  0.00000000000E+00  0.74505805969E-08  0.10566000000E+00  0.10566000000E+00 0.  1.
     999900   -1    0    0    0    0 -0.00000000000E+00 -0.00000000000E+00 -0.74505805969E-08  0.93827000000E+00  0.93827000000E+00 0. -1.
     999902    2    1    2    0    0 -0.47358228468E-02 -0.90212044012E-02 -0.21708726492E-01  0.10199491962E+01  0.10196672417E+01 0.  0.
     999903    2    3    3    0    0  0.12481773503E-01  0.75277445620E-01 -0.10594007138E+00  0.13175010391E+00  0.17672087247E-01 0.  0.
         14    1    1    2    0    0  0.47358228468E-02  0.90212044012E-02  0.21708726492E-01  0.23980803839E-01  0.00000000000E+00 0.  1.
     999901    1    3    3    0    0 -0.17217596350E-01 -0.84298650021E-01  0.84231344883E-01  0.88819909225E+00  0.88000000000E+00 0.  1.
        -11    1    4    4    0    0  0.67208833496E-02  0.66449399194E-01 -0.83292582804E-01  0.10676426555E+00  0.51100000000E-03 0. -1.
         11    1    4    4    0    0  0.57608901539E-02  0.88280464260E-02 -0.22647488571E-01  0.24985838362E-01  0.51100000000E-03 0.  1.
</event>
<event>
 8    1  0.1109553E+005  0.1043930E+01  0.7957747E-01            NaN
         13   -1    0    0    0    0  0.00000000000E+00  0.00000000000E+00  0.74505805969E-08  0.10566000000E+00  0.10566000000E+00 0. -1.
     999900   -1    0    0    0    0 -0.00000000000E+00 -0.00000000000E+00 -0.74505805969E-08  0.93827000000E+00  0.93827000000E+00 0.  1.
     999902    2    1    2    0    0 -0.23171497874E-01  0.98421903757E-02  0.36865230538E-02  0.10184863863E+01  0.10181685232E+01 0.  0.
     999903    2    3    3    0    0 -0.92229834980E-01  0.87591332902E-01 -0.28456247092E-01  0.13178060605E+00  0.19436719675E-01 0.  0.
         14    1    1    2    0    0  0.23171497874E-01 -0.98421903757E-02 -0.36865230538E-02  0.25443613685E-01  0.00000000000E+00 0.  1.
     999901    1    3    3    0    0  0.69058337106E-01 -0.77749142526E-01  0.32142770146E-01  0.88670578027E+00  0.88000000000E+00 0.  1.
        -11    1    4    4    0    0 -0.39781740547E-01  0.25917815329E-01 -0.67460814041E-02  0.47959261542E-01  0.51100000000E-03 0.  1.
         11    1    4    4    0    0 -0.52448094433E-01  0.61673517573E-01 -0.21710165688E-01  0.83821344505E-01  0.51100000000E-03 0. -1.
</event>
<event>
 8    1  0.1109553E+005  0.1043930E+01  0.7957747E-01            NaN
         13   -1    0    0    0    0  0.00000000000E+00  0.00000000000E+00  0.74505805969E-08  0.10566000000E+00  0.10566000000E+00 0.  1.
     999900   -1    0    0    0    0 -0.00000000000E+00 -0.00000000000E+00 -0.74505805969E-08  0.93827000000E+00  0.93827000000E+00 0. -1.
     999902    2    1    2    0    0 -0.83586353715E-02 -0.16303368057E-01  0.15947660335E-01  0.10196401983E+01  0.10193508422E+01 0.  0.
     999903    2    3    3    0    0  0.54546363253E-01 -0.10290578241E+00  0.59089316320E-01  0.13210528661E+00  0.19883501993E-01 0.  0.
         14    1    1    2    0    0  0.83586353715E-02  0.16303368057E-01 -0.15947660335E-01  0.24289801676E-01  0.00000000000E+00 0. -1.
     999901    1    3    3    0    0 -0.62904998625E-01  0.86602414349E-01 -0.43141655985E-01  0.88753491171E+00  0.88000000000E+00 0. -1.
        -11    1    4    4    0    0  0.42751356626E-01 -0.73045472070E-01  0.51623906124E-01  0.99139337742E-01  0.51100000000E-03 0. -1.
         11    1    4    4    0    0  0.11795006628E-01 -0.29860310336E-01  0.74654101959E-02  0.32965948873E-01  0.51100000000E-03 0.  1.
</event>
<event>
 8    1  0.1109553E+005  0.1043930E+01  0.7957747E-01            NaN
         13   -1    0    0    0    0  0.00000000000E+00  0.00000000000E+00  0.74505805969E-08  0.10566000000E+00  0.10566000000E+00 0. -1.
     999900   -1    0    0    0    0 -0.00000000000E+00 -0.00000000000E+00 -0.74505805969E-08  0.93827000000E+00  0.93827000000E+00 0. -1.
     999902    2    1    2    0    0 -0.65691854509E-02 -0.61892876956E-02  0.21297467299E-01  0.10207989907E+01  0.10205368860E+01 0.  0.
     999903    2    3    3    0    0  0.11077819141E+00  0.63117111803E-01  0.16000102229E-01  0.13029247977E+00  0.21553410852E-01 0.  0.
         14    1    1    2    0    0  0.65691854509E-02  0.61892876956E-02 -0.21297467299E-01  0.23131009339E-01  0.00000000000E+00 0.  1.
     999901    1    3    3    0    0 -0.11734737686E+00 -0.69306399498E-01  0.52973650702E-02  0.89050651089E+00  0.88000000000E+00 0.  1.
        -11    1    4    4    0    0  0.58425476093E-01  0.28338667208E-01 -0.18143571108E-02  0.64962830361E-01  0.51100000000E-03 0. -1.
         11    1    4    4    0    0  0.52352715312E-01  0.34778444595E-01  0.17814459340E-01  0.65329649407E-01  0.51100000000E-03 0.  1.
</event>
<event>
 8    1  0.1109553E+005  0.1043930E+01  0.7957747E-01            NaN
         13   -1    0    0    0    0  0.00000000000E+00  0.00000000000E+00  0.74505805969E-08  0.10566000000E+00  0.10566000000E+00 0. -1.
     999900   -1    0    0    0    0 -0.00000000000E+00 -0.00000000000E+00 -0.74505805969E-08  0.93827000000E+00  0.93827000000E+00 0. -1.
     999902    2    1    2    0    0  0.79831065537E-02 -0.15690435641E-02  0.21197285401E-01  0.10212250050E+01  0.10209725727E+01 0.  0.
     999903    2    3    3    0    0  0.11259306622E+00 -0.57893893095E-02 -0.63930652576E-01  0.13093975816E+00  0.18638034747E-01 0.  0.
         14    1    1    2    0    0 -0.79831065537E-02  0.15690435641E-02 -0.21197285401E-01  0.22704994964E-01  0.00000000000E+00 0.  1.
     999901    1    3    3    0    0 -0.10460995967E+00  0.42203457455E-02  0.85127937977E-01  0.89028524688E+00  0.88000000000E+00 0.  1.
        -11    1    4    4    0    0  0.44112846545E-01 -0.86557948523E-02 -0.32850885699E-01  0.55680407928E-01  0.51100000000E-03 0. -1.
         11    1    4    4    0    0  0.68480219674E-01  0.28664055428E-02 -0.31079766877E-01  0.75259350233E-01  0.51100000000E-03 0.  1.
</event>
<event>
 8    1  0.1109553E+005  0.1043930E+01  0.7957747E-01            NaN
         13   -1    0    0    0    0  0.00000000000E+00  0.00000000000E+00  0.74505805969E-08  0.10566000000E+00  0.10566000000E+00 0. -1.
     999900   -1    0    0    0    0 -0.00000000000E+00 -0.00000000000E+00 -0.74505805969E-08  0.93827000000E+00  0.93827000000E+00 0.  1.
     999902    2    1    2    0    0  0.45280106983E-02 -0.23230931184E-01 -0.34293082017E-02  0.10200147497E+01  0.10197343528E+01 0.  0.
     999903    2    3    3    0    0 -0.10460898471E+00 -0.67589815377E-01 -0.36571057577E-01  0.13154585885E+00  0.21341225407E-01 0.  0.
         14    1    1    2    0    0 -0.45280106983E-02  0.23230931184E-01  0.34293082017E-02  0.23915250350E-01  0.00000000000E+00 0. -1.
     999901    1    3    3    0    0  0.10913699541E+00  0.44358884193E-01  0.33141749375E-01  0.88846889080E+00  0.88000000000E+00 0.  1.
        -11    1    4    4    0    0 -0.12986592973E-01 -0.17366210836E-01 -0.89952669295E-02  0.23482180988E-01  0.51100000000E-03 0. -1.
         11    1    4    4    0    0 -0.91622391741E-01 -0.50223604541E-01 -0.27575790648E-01  0.10806367786E+00  0.51100000000E-03 0.  1.
</event>
<event>
 8    1  0.1109553E+005  0.1043930E+01  0.7957747E-01            NaN
         13   -1    0    0    0    0  0.00000000000E+00  0.00000000000E+00  0.74505805969E-08  0.10566000000E+00  0.10566000000E+00 0.  1.
     999900   -1    0    0    0    0 -0.00000000000E+00 -0.00000000000E+00 -0.74505805969E-08  0.93827000000E+00  0.93827000000E+00 0.  1.
     999902    2    1    2    0    0 -0.13318509160E-01 -0.18999442901E-01 -0.22135112227E-02  0.10206220368E+01  0.10203558599E+01 0.  0.
     999903    2    3    3    0    0  0.10076540555E+00 -0.39061550029E-01  0.69376533644E-01  0.13014870072E+00  0.21121298084E-01 0.  0.
         14    1    1    2    0    0  0.13318509160E-01  0.18999442901E-01  0.22135112227E-02  0.23307963204E-01  0.00000000000E+00 0. -1.
     999901    1    3    3    0    0 -0.11408391471E+00  0.20062107128E-01 -0.71590044866E-01  0.89047333608E+00  0.88000000000E+00 0. -1.
        -11    1    4    4    0    0  0.78764103130E-01 -0.29621202497E-01  0.42922036100E-01  0.94465665102E-01  0.51100000000E-03 0.  1.
         11    1    4    4    0    0  0.22001302419E-01 -0.94403475318E-02  0.26454497543E-01  0.35683035618E-01  0.51100000000E-03 0. -1.
</event>
<event>
 8    1  0.1109553E+005  0.1043930E+01  0.7957747E-01            NaN
         13   -1    0    0    0    0  0.00000000000E+00  0.00000000000E+00  0.74505805969E-08  0.10566000000E+00  0.10566000000E+00 0.  1.
     999900   -1    0    0    0    0 -0.00000000000E+00 -0.00000000000E+00 -0.74505805969E-08  0.93827000000E+00  0.93827000000E+00 0. -1.
     999902    2    1    2    0    0 -0.23679868080E-01 -0.27927162136E-02  0.16028641283E-02  0.10200322053E+01  0.10197522225E+01 0.  0.
     999903    2    3    3    0    0  0.78946328918E-01  0.64374730990E-01  0.76839879918E-01  0.12834604372E+00  0.13845972492E-01 0.  0.
         14    1    1    2    0    0  0.23679868080E-01  0.27927162136E-02 -0.16028641283E-02  0.23897794659E-01  0.00000000000E+00 0. -1.
     999901    1    3    3    0    0 -0.10262619700E+00 -0.67167447203E-01 -0.75237015790E-01  0.89168616162E+00  0.88000000000E+00 0.  1.
        -11    1    4    4    0    0  0.15953111300E-01  0.20484149427E-01  0.21289251930E-01  0.33579688900E-01  0.51100000000E-03 0. -1.
         11    1    4    4    0    0  0.62993217618E-01  0.43890581563E-01  0.55550627988E-01  0.94766354825E-01  0.51100000000E-03 0.  1.
</event>
<event>
 8    1  0.1109553E+005  0.1043930E+01  0.7957747E-01            NaN
         13   -1    0    0    0    0  0.00000000000E+00  0.00000000000E+00  0.74505805969E-08  0.10566000000E+00  0.10566000000E+00 0.  1.
     999900   -1    0    0    0    0 -0.00000000000E+00 -0.00000000000E+00 -0.74505805969E-08  0.93827000000E+00  0.93827000000E+00 0.  1.
     999902    2    1    2    0    0  0.16916814976E-01  0.14249032505E-01 -0.51792612275E-02  0.10212135235E+01  0.10209608329E+01 0.  0.
     999903    2    3    3    0    0  0.48082216655E-02 -0.12472990181E+00 -0.29850456999E-01  0.12988281604E+00  0.19945644129E-01 0.  0.
         14    1    1    2    0    0 -0.16916814976E-01 -0.14249032505E-01  0.51792612275E-02  0.22716476468E-01  0.00000000000E+00 0. -1.
     999901    1    3    3    0    0  0.12108593310E-01  0.13897893431E+00  0.24671195771E-01  0.89133070749E+00  0.88000000000E+00 0.  1.
        -11    1    4    4    0    0  0.29172700025E-02 -0.15110890536E-01 -0.10276696658E-01  0.18512727845E-01  0.51100000000E-03 0. -1.
         11    1    4    4    0    0  0.18909516630E-02 -0.10961901127E+00 -0.19573760341E-01  0.11137008820E+00  0.51100000000E-03 0.  1.
</event>
<event>
 8    1  0.1109553E+005  0.1043930E+01  0.7957747E-01            NaN
         13   -1    0    0    0    0  0.00000000000E+00  0.00000000000E+00  0.74505805969E-08  0.10566000000E+00  0.10566000000E+00 0.  1.
     999900   -1    0    0    0    0 -0.00000000000E+00 -0.00000000000E+00 -0.74505805969E-08  0.93827000000E+00  0.93827000000E+00 0. -1.
     999902    2    1    2    0    0 -0.60585734295E-02 -0.71343787794E-02 -0.21614491555E-01  0.10203759787E+01  0.10201040859E+01 0.  0.
     999903    2    3    3    0    0 -0.64957226994E-01 -0.36301470141E-02  0.10931487333E+00  0.12873489084E+00  0.19756297317E-01 0.  0.
         14    1    1    2    0    0  0.60585734295E-02  0.71343787794E-02  0.21614491555E-01  0.23554021265E-01  0.00000000000E+00 0.  1.
     999901    1    3    3    0    0  0.58898653565E-01 -0.35042317652E-02 -0.13092936488E+00  0.89164108789E+00  0.88000000000E+00 0. -1.
        -11    1    4    4    0    0 -0.37054003130E-01  0.76383261781E-02  0.58219562741E-01  0.69434298308E-01  0.51100000000E-03 0.  1.
         11    1    4    4    0    0 -0.27903223865E-01 -0.11268473192E-01  0.51095310584E-01  0.59300592533E-01  0.51100000000E-03 0. -1.
</event>
<event>
 8    1  0.1109553E+005  0.1043930E+01  0.7957747E-01            NaN
         13   -1    0    0    0    0  0.00000000000E+00  0.00000000000E+00  0.74505805969E-08  0.10566000000E+00  0.10566000000E+00 0. -1.
     999900   -1    0    0    0    0 -0.00000000000E+00 -0.00000000000E+00 -0.74505805969E-08  0.93827000000E+00  0.93827000000E+00 0. -1.
     999902    2    1    2    0    0 -0.11074606980E-02  0.25926230890E-02 -0.23445364927E-01  0.10203157395E+01  0.10200424378E+01 0.  0.
     999903    2    3    3    0    0 -0.40569078945E-01 -0.95185789435E-01  0.73617533553E-01  0.12872219781E+00  0.21063672193E-01 0.  0.
         14    1    1    2    0    0  0.11074606980E-02 -0.25926230890E-02  0.23445364927E-01  0.23614260527E-01  0.00000000000E+00 0. -1.
     999901    1    3    3    0    0  0.39461618247E-01  0.97778412524E-01 -0.97062898480E-01  0.89159354166E+00  0.88000000000E+00 0. -1.
        -11    1    4    4    0    0 -0.20727560723E-01 -0.36575124913E-01  0.41199791140E-01  0.58864721582E-01  0.51100000000E-03 0.  1.
         11    1    4    4    0    0 -0.19841518222E-01 -0.58610664522E-01  0.32417742413E-01  0.69857476231E-01  0.51100000000E-03 0. -1.
</event>
<event>
 8    1  0.1109553E+005  0.1043930E+01  0.7957747E-01            NaN
         13   -1    0    0    0    0  0.00000000000E+00  0.00000000000E+00  0.74505805969E-08  0.10566000000E+00  0.10566000000E+00 0. -1.
     999900   -1    0    0    0    0 -0.00000000000E+00 -0.00000000000E+00 -0.74505805969E-08  0.93827000000E+00  0.93827000000E+00 0.  1.
     999902    2    1    2    0    0  0.25010869107E-02  0.28142346042E-02  0.23877102719E-01  0.10197578800E+01  0.10194713544E+01 0.  0.
     999903    2    3    3    0    0 -0.17285772429E-01  0.11151999108E+00 -0.59215428267E-01  0.12896450888E+00  0.19745158062E-01 0.  0.
         14    1    1    2    0    0 -0.25010869107E-02 -0.28142346042E-02 -0.23877102719E-01  0.24172120023E-01  0.00000000000E+00 0.  1.
     999901    1    3    3    0    0  0.19786859340E-01 -0.10870575647E+00  0.83092530986E-01  0.89079337110E+00  0.88000000000E+00 0. -1.
        -11    1    4    4    0    0 -0.58425530672E-02  0.18667753702E-01 -0.29392596710E-02  0.19786885128E-01  0.51100000000E-03 0.  1.
         11    1    4    4    0    0 -0.11443219362E-01  0.92852237373E-01 -0.56276168596E-01  0.10917762375E+00  0.51100000000E-03 0. -1.
</event>
<event>
 8    1  0.1109553E+005  0.1043930E+01  0.7957747E-01            NaN
         13   -1    0    0    0    0  0.00000000000E+00  0.00000000000E+00  0.74505805969E-08  0.10566000000E+00  0.10566000000E+00 0. -1.
     999900   -1    0    0    0    0 -0.00000000000E+00 -0.00000000000E+00 -0.74505805969E-08  0.93827000000E+00  0.93827000000E+00 0. -1.
     999902    2    1    2    0    0  0.68456657287E-05  0.30881179042E-02  0.23265300115E-01  0.10204606432E+01  0.10201907241E+01 0.  0.
     999903    2    3    3    0    0 -0.52028999397E-01 -0.10113759246E+00 -0.57624318240E-01  0.12910557465E+00  0.20294284084E-01 0.  0.
         14    1    1    2    0    0 -0.68456657287E-05 -0.30881179042E-02 -0.23265300115E-01  0.23469356798E-01  0.00000000000E+00 0.  1.
     999901    1    3    3    0    0  0.52035845063E-01  0.10422571037E+00  0.80889618355E-01  0.89135506855E+00  0.88000000000E+00 0.  1.
        -11    1    4    4    0    0 -0.37318534582E-01 -0.64307406411E-01 -0.27405990029E-01  0.79243075111E-01  0.51100000000E-03 0. -1.
         11    1    4    4    0    0 -0.14710464815E-01 -0.36830186050E-01 -0.30218328211E-01  0.49862499541E-01  0.51100000000E-03 0.  1.
</event>
<event>
 8    1  0.1109553E+005  0.1043930E+01  0.7957747E-01            NaN
         13   -1    0    0    0    0  0.00000000000E+00  0.00000000000E+00  0.74505805969E-08  0.10566000000E+00  0.10566000000E+00 0. -1.
     999900   -1    0    0    0    0 -0.00000000000E+00 -0.00000000000E+00 -0.74505805969E-08  0.93827000000E+00  0.93827000000E+00 0. -1.
     999902    2    1    2    0    0 -0.13389376459E-01  0.22487102414E-01  0.89023990376E-02  0.10162858707E+01  0.10159098253E+01 0.  0.
     999903    2    3    3    0    0 -0.60735561652E-01  0.10571849713E-01  0.11116725205E+00  0.12901943119E+00  0.22074492964E-01 0.  0.
         14    1    1    2    0    0  0.13389376459E-01 -0.22487102414E-01 -0.89023990376E-02  0.27644129314E-01  0.00000000000E+00 0. -1.
     999901    1    3    3    0    0  0.47346185193E-01  0.11915252701E-01 -0.10226485301E+00  0.88726643950E+00  0.88000000000E+00 0. -1.
        -11    1    4    4    0    0 -0.40220105296E-01  0.79418242285E-02  0.92392766738E-01  0.10108122431E+00  0.51100000000E-03 0. -1.
         11    1    4    4    0    0 -0.20515456356E-01  0.26300254841E-02  0.18774485313E-01  0.27938206873E-01  0.51100000000E-03 0.  1.
</event>
<event>
 8    1  0.1109553E+005  0.1043930E+01  0.7957747E-01            NaN
         13   -1    0    0    0    0  0.00000000000E+00  0.00000000000E+00  0.74505805969E-08  0.10566000000E+00  0.10566000000E+00 0.  1.
     999900   -1    0    0    0    0 -0.00000000000E+00 -0.00000000000E+00 -0.74505805969E-08  0.93827000000E+00  0.93827000000E+00 0. -1.
     999902    2    1    2    0    0  0.15117109483E-01 -0.15913586532E-01 -0.22852209193E-03  0.10219795682E+01  0.10217438115E+01 0.  0.
     999903    2    3    3    0    0  0.68331986601E-01  0.43271264279E-01  0.10291955483E+00  0.13238741696E+00  0.19807339497E-01 0.  0.
         14    1    1    2    0    0 -0.15117109483E-01  0.15913586532E-01  0.22852209193E-03  0.21950431836E-01  0.00000000000E+00 0.  1.
     999901    1    3    3    0    0 -0.53214877118E-01 -0.59184850812E-01 -0.10314807692E+00  0.88959215120E+00  0.88000000000E+00 0. -1.
        -11    1    4    4    0    0  0.48894818227E-01  0.27815689496E-01  0.56442303990E-01  0.79689463747E-01  0.51100000000E-03 0. -1.
         11    1    4    4    0    0  0.19437168374E-01  0.15455574784E-01  0.46477250838E-01  0.52697953212E-01  0.51100000000E-03 0.  1.
</event>
<event>
 8    1  0.1109553E+005  0.1043930E+01  0.7957747E-01            NaN
         13   -1    0    0    0    0  0.00000000000E+00  0.00000000000E+00  0.74505805969E-08  0.10566000000E+00  0.10566000000E+00 0.  1.
     999900   -1    0    0    0    0 -0.00000000000E+00 -0.00000000000E+00 -0.74505805969E-08  0.93827000000E+00  0.93827000000E+00 0.  1.
     999902    2    1    2    0    0  0.18399074177E-01  0.73176171161E-02  0.12535321749E-01  0.10204948183E+01  0.10202256939E+01 0.  0.
     999903    2    3    3    0    0  0.17441485593E-01 -0.72054073782E-01 -0.10418014603E+00  0.12924665828E+00  0.18846773752E-01 0.  0.
         14    1    1    2    0    0 -0.18399074177E-01 -0.73176171161E-02 -0.12535321749E-01  0.23435181719E-01  0.00000000000E+00 0.  1.
     999901    1    3    3    0    0  0.95758858441E-03  0.79371690898E-01  0.11671546778E+00  0.89124816000E+00  0.88000000000E+00 0. -1.
        -11    1    4    4    0    0  0.94374967043E-02 -0.65290292209E-01 -0.88594997629E-01  0.11045914777E+00  0.51100000000E-03 0.  1.
         11    1    4    4    0    0  0.80039888883E-02 -0.67637815728E-02 -0.15585148401E-01  0.18787510505E-01  0.51100000000E-03 0. -1.
</event>
<event>
 8    1  0.1109553E+005  0.1043930E+01  0.7957747E-01            NaN
         13   -1    0    0    0    0  0.00000000000E+00  0.00000000000E+00  0.74505805969E-08  0.10566000000E+00  0.10566000000E+00 0.  1.
     999900   -1    0    0    0    0 -0.00000000000E+00 -0.00000000000E+00 -0.74505805969E-08  0.93827000000E+00  0.93827000000E+00 0.  1.
     999902    2    1    2    0    0 -0.20063189191E-01 -0.31355523304E-02 -0.12008557307E-01  0.10203382918E+01  0.10200655180E+01 0.  0.
     999903    2    3    3    0    0 -0.93674219035E-01 -0.31483050431E-01  0.84478193203E-01  0.13155718407E+00  0.20116803381E-01 0.  0.
         14    1    1    2    0    0  0.20063189191E-01  0.31355523304E-02  0.12008557307E-01  0.23591708236E-01  0.00000000000E+00 0.  1.
     999901    1    3    3    0    0  0.73611029845E-01  0.28347498100E-01 -0.96486750509E-01  0.88878110769E+00  0.88000000000E+00 0.  1.
        -11    1    4    4    0    0 -0.34164470985E-01 -0.13076963489E-01  0.44197415548E-01  0.57375000775E-01  0.51100000000E-03 0. -1.
         11    1    4    4    0    0 -0.59509748050E-01 -0.18406086942E-01  0.40280777655E-01  0.74182183299E-01  0.51100000000E-03 0.  1.
</event>
<event>
 8    1  0.1109553E+005  0.1043930E+01  0.7957747E-01            NaN
         13   -1    0    0    0    0  0.00000000000E+00  0.00000000000E+00  0.74505805969E-08  0.10566000000E+00  0.10566000000E+00 0.  1.
     999900   -1    0    0    0    0 -0.00000000000E+00 -0.00000000000E+00 -0.74505805969E-08  0.93827000000E+00  0.93827000000E+00 0.  1.
     999902    2    1    2    0    0  0.18941163950E-01 -0.10417119641E-01 -0.97995265860E-02  0.10201957464E+01  0.10199196273E+01 0.  0.
     999903    2    3    3    0    0 -0.19766847411E-01  0.94059989288E-01 -0.85693178826E-01  0.12992970587E+00  0.17331985745E-01 0.  0.
         14    1    1    2    0    0 -0.18941163950E-01  0.10417119641E-01  0.97995265860E-02  0.23734253616E-01  0.00000000000E+00 0.  1.
     999901    1    3    3    0    0  0.38708011362E-01 -0.10447710893E+00  0.75893652240E-01  0.89026604051E+00  0.88000000000E+00 0. -1.
        -11    1    4    4    0    0 -0.12974307825E-01  0.68255478680E-01 -0.51146996708E-01  0.86275253849E-01  0.51100000000E-03 0.  1.
         11    1    4    4    0    0 -0.67925395861E-02  0.25804510608E-01 -0.34546182118E-01  0.43654452026E-01  0.51100000000E-03 0. -1.
</event>
<event>
 8    1  0.1109553E+005  0.1043930E+01  0.7957747E-01            NaN
         13   -1    0    0    0    0  0.00000000000E+00  0.00000000000E+00  0.74505805969E-08  0.10566000000E+00  0.10566000000E+00 0. -1.
     999900   -1    0    0    0    0 -0.00000000000E+00 -0.00000000000E+00 -0.74505805969E-08  0.93827000000E+00  0.93827000000E+00 0. -1.
     999902    2    1    2    0    0 -0.21016090646E-01  0.72232001637E-02 -0.10620112833E-01  0.10192999882E+01  0.10190023692E+01 0.  0.
     999903    2    3    3    0    0 -0.88611059396E-02  0.13886987446E-01  0.12589536994E+00  0.12866615389E+00  0.20831883384E-01 0.  0.
         14    1    1    2    0    0  0.21016090646E-01 -0.72232001637E-02  0.10620112833E-01  0.24630011840E-01  0.00000000000E+00 0. -1.
     999901    1    3    3    0    0 -0.12154984706E-01 -0.66637872825E-02 -0.13651548277E+00  0.89063383427E+00  0.88000000000E+00 0. -1.
        -11    1    4    4    0    0 -0.89641609796E-03  0.12266830632E-01  0.11107980784E+00  0.11175984756E+00  0.51100000000E-03 0. -1.
         11    1    4    4    0    0 -0.79646898416E-02  0.16201568146E-02  0.14815562100E-01  0.16906306330E-01  0.51100000000E-03 0.  1.
</event>
<event>
 8    1  0.1109553E+005  0.1043930E+01  0.7957747E-01            NaN
         13   -1    0    0    0    0  0.00000000000E+00  0.00000000000E+00  0.74505805969E-08  0.10566000000E+00  0.10566000000E+00 0. -1.
     999900   -1    0    0    0    0 -0.00000000000E+00 -0.00000000000E+00 -0.74505805969E-08  0.93827000000E+00  0.93827000000E+00 0.  1.
     999902    2    1    2    0    0 -0.87637640675E-02 -0.64482168275E-02  0.20686766285E-01  0.10205563961E+01  0.10202887004E+01 0.  0.
     999903    2    3    3    0    0 -0.93236253687E-01  0.89087940397E-01 -0.24103206077E-02  0.13106427455E+00  0.23288930683E-01 0.  0.
         14    1    1    2    0    0  0.87637640675E-02  0.64482168275E-02 -0.20686766285E-01  0.23373603920E-01  0.00000000000E+00 0.  1.
     999901    1    3    3    0    0  0.84472489620E-01 -0.95536157224E-01  0.23097086892E-01  0.88949212153E+00  0.88000000000E+00 0.  1.
        -11    1    4    4    0    0 -0.66221257949E-01  0.69270919322E-01  0.74871870073E-02  0.96125097443E-01  0.51100000000E-03 0.  1.
         11    1    4    4    0    0 -0.27014995739E-01  0.19817021074E-01 -0.98975076150E-02  0.34939177108E-01  0.51100000000E-03 0. -1.
</event>
<event>
 8    1  0.1109553E+005  0.1043930E+01  0.7957747E-01            NaN
         13   -1    0    0    0    0  0.00000000000E+00  0.00000000000E+00  0.74505805969E-08  0.10566000000E+00  0.10566000000E+00 0.  1.
     999900   -1    0    0    0    0 -0.00000000000E+00 -0.00000000000E+00 -0.74505805969E-08  0.93827000000E+00  0.93827000000E+00 0. -1.
     999902    2    1    2    0    0  0.23068030430E-01  0.73398687885E-02 -0.11995857470E-02  0.10196927001E+01  0.10194046085E+01 0.  0.
     999903    2    3    3    0    0  0.72873842098E-01  0.10040795495E+00  0.41388894750E-01  0.13236183382E+00  0.20353382113E-01 0.  0.
         14    1    1    2    0    0 -0.23068030430E-01 -0.73398687885E-02  0.11995857470E-02  0.24237299927E-01  0.00000000000E+00 0. -1.
     999901    1    3    3    0    0 -0.49805811667E-01 -0.93068086163E-01 -0.42588480497E-01  0.88733086626E+00  0.88000000000E+00 0. -1.
        -11    1    4    4    0    0  0.54292420420E-01  0.85606817496E-01  0.28370839471E-01  0.10526803774E+00  0.51100000000E-03 0.  1.
         11    1    4    4    0    0  0.18581421678E-01  0.14801137455E-01  0.13018055279E-01  0.27093796075E-01  0.51100000000E-03 0. -1.
</event>
<event>
 8    1  0.1109553E+005  0.1043930E+01  0.7957747E-01            NaN
         13   -1    0    0    0    0  0.00000000000E+00  0.00000000000E+00  0.74505805969E-08  0.10566000000E+00  0.10566000000E+00 0.  1.
     999900   -1    0    0    0    0 -0.00000000000E+00 -0.00000000000E+00 -0.74505805969E-08  0.93827000000E+00  0.93827000000E+00 0.  1.
     999902    2    1    2    0    0  0.28452865759E-01 -0.10621697851E-01  0.12025618358E-01  0.10112650106E+01  0.10107373151E+01 0.  0.
     999903    2    3    3    0    0 -0.55566112502E-01  0.86636427236E-01  0.58320754322E-01  0.12072496591E+00  0.24077865884E-01 0.  0.
         14    1    1    2    0    0 -0.28452865759E-01  0.10621697851E-01 -0.12025618358E-01  0.32664989393E-01  0.00000000000E+00 0.  1.
     999901    1    3    3    0    0  0.84018978261E-01 -0.97258125086E-01 -0.46295135964E-01  0.89054004470E+00  0.88000000000E+00 0.  1.
        -11    1    4    4    0    0 -0.45485442347E-01  0.50610494122E-01  0.41496198031E-01  0.79702842815E-01  0.51100000000E-03 0.  1.
         11    1    4    4    0    0 -0.10080670155E-01  0.36025933113E-01  0.16824556290E-01  0.41022123090E-01  0.51100000000E-03 0. -1.
</event>
<event>
 8    1  0.1109553E+005  0.1043930E+01  0.7957747E-01            NaN
         13   -1    0    0    0    0  0.00000000000E+00  0.00000000000E+00  0.74505805969E-08  0.10566000000E+00  0.10566000000E+00 0.  1.
     999900   -1    0    0    0    0 -0.00000000000E+00 -0.00000000000E+00 -0.74505805969E-08  0.93827000000E+00  0.93827000000E+00 0.  1.
     999902    2    1    2    0    0 -0.15118406567E-01 -0.24654865134E-02  0.17451833752E-01  0.10207090753E+01  0.10204449055E+01 0.  0.
     999903    2    3    3    0    0  0.54518379680E-01  0.98539542390E-01 -0.59086782908E-01  0.12890783195E+00  0.21063857360E-01 0.  0.
         14    1    1    2    0    0  0.15118406567E-01  0.24654865134E-02 -0.17451833752E-01  0.23220924663E-01  0.00000000000E+00 0. -1.
     999901    1    3    3    0    0 -0.69636786247E-01 -0.10100502890E+00  0.76538616660E-01  0.89180124338E+00  0.88000000000E+00 0. -1.
        -11    1    4    4    0    0  0.35065448879E-01  0.58878715368E-01 -0.24419764993E-01  0.72752146854E-01  0.51100000000E-03 0.  1.
         11    1    4    4    0    0  0.19452930801E-01  0.39660827022E-01 -0.34667017915E-01  0.56155685099E-01  0.51100000000E-03 0. -1.
</event>
<event>
 8    1  0.1109553E+005  0.1043930E+01  0.7957747E-01            NaN
         13   -1    0    0    0    0  0.00000000000E+00  0.00000000000E+00  0.74505805969E-08  0.10566000000E+00  0.10566000000E+00 0.  1.
     999900   -1    0    0    0    0 -0.00000000000E+00 -0.00000000000E+00 -0.74505805969E-08  0.93827000000E+00  0.93827000000E+00 0. -1.
     999902    2    1    2    0    0  0.16612687430E-01  0.86068437664E-03 -0.15958918146E-01  0.10208776849E+01  0.10206173810E+01 0.  0.
     999903    2    3    3    0    0 -0.43371529255E-01  0.55402619762E-01 -0.11017423877E+00  0.13214293508E+00  0.19309390896E-01 0.  0.
         14    1    1    2    0    0 -0.16612687430E-01 -0.86068437664E-03  0.15958918146E-01  0.23052315060E-01  0.00000000000E+00 0.  1.
     999901    1    3    3    0    0  0.59984216685E-01 -0.54541935385E-01  0.94215320625E-01  0.88873474986E+00  0.88000000000E+00 0.  1.
        -11    1    4    4    0    0 -0.22605685661E-01  0.25530406781E-01 -0.70472007086E-01  0.78290379986E-01  0.51100000000E-03 0. -1.
         11    1    4    4    0    0 -0.20765843594E-01  0.29872212981E-01 -0.39702231684E-01  0.53852555095E-01  0.51100000000E-03 0.  1.
</event>
<event>
 8    1  0.1109553E+005  0.1043930E+01  0.7957747E-01            NaN
         13   -1    0    0    0    0  0.00000000000E+00  0.00000000000E+00  0.74505805969E-08  0.10566000000E+00  0.10566000000E+00 0. -1.
     999900   -1    0    0    0    0 -0.00000000000E+00 -0.00000000000E+00 -0.74505805969E-08  0.93827000000E+00  0.93827000000E+00 0.  1.
     999902    2    1    2    0    0  0.18775628347E-01 -0.77078553503E-02 -0.11733787960E-01  0.10204860875E+01  0.10202167602E+01 0.  0.
     999903    2    3    3    0    0  0.13089100997E-01  0.11361889546E+00  0.57459087099E-01  0.12945288327E+00  0.19388768092E-01 0.  0.
         14    1    1    2    0    0 -0.18775628347E-01  0.77078553503E-02  0.11733787960E-01  0.23443912511E-01  0.00000000000E+00 0.  1.
     999901    1    3    3    0    0  0.56865273496E-02 -0.12132675081E+00 -0.69192875058E-01  0.89103320421E+00  0.88000000000E+00 0.  1.
        -11    1    4    4    0    0 -0.24055146960E-02  0.61766371078E-01  0.32818365828E-01  0.69986979888E-01  0.51100000000E-03 0. -1.
         11    1    4    4    0    0  0.15494615694E-01  0.51852524378E-01  0.24640721270E-01  0.59465903387E-01  0.51100000000E-03 0.  1.
</event>
<event>
 8    1  0.1109553E+005  0.1043930E+01  0.7957747E-01            NaN
         13   -1    0    0    0    0  0.00000000000E+00  0.00000000000E+00  0.74505805969E-08  0.10566000000E+00  0.10566000000E+00 0.  1.
     999900   -1    0    0    0    0 -0.00000000000E+00 -0.00000000000E+00 -0.74505805969E-08  0.93827000000E+00  0.93827000000E+00 0. -1.
     999902    2    1    2    0    0 -0.16643736800E-01 -0.52283464610E-03  0.17929128870E-01  0.10194608154E+01  0.10191671174E+01 0.  0.
     999903    2    3    3    0    0  0.35986858401E-01  0.32677841701E-01 -0.11577256957E+00  0.12718932726E+00  0.20271699236E-01 0.  0.
         14    1    1    2    0    0  0.16643736800E-01  0.52283464610E-03 -0.17929128870E-01  0.24469184554E-01  0.00000000000E+00 0. -1.
     999901    1    3    3    0    0 -0.52630595201E-01 -0.33200676347E-01  0.13370169843E+00  0.89227148818E+00  0.88000000000E+00 0.  1.
        -11    1    4    4    0    0  0.15978901975E-01  0.25915277038E-01 -0.55245686369E-01  0.63081485998E-01  0.51100000000E-03 0. -1.
         11    1    4    4    0    0  0.20007956426E-01  0.67625646622E-02 -0.60526883196E-01  0.64107841264E-01  0.51100000000E-03 0.  1.
</event>
<event>
 8    1  0.1109553E+005  0.1043930E+01  0.7957747E-01            NaN
         13   -1    0    0    0    0  0.00000000000E+00  0.00000000000E+00  0.74505805969E-08  0.10566000000E+00  0.10566000000E+00 0.  1.
     999900   -1    0    0    0    0 -0.00000000000E+00 -0.00000000000E+00 -0.74505805969E-08  0.93827000000E+00  0.93827000000E+00 0.  1.
     999902    2    1    2    0    0  0.20115315370E-01  0.26408332281E-01 -0.70505947557E-02  0.10099927518E+01  0.10094224200E+01 0.  0.
     999903    2    3    3    0    0  0.80140741238E-01 -0.64205665273E-01 -0.62777135133E-01  0.12155626249E+00  0.17030865974E-01 0.  0.
         14    1    1    2    0    0 -0.20115315370E-01 -0.26408332281E-01  0.70505947557E-02  0.33937248161E-01  0.00000000000E+00 0.  1.
     999901    1    3    3    0    0 -0.60025425868E-01  0.90613997554E-01  0.55726540378E-01  0.88843648935E+00  0.88000000000E+00 0. -1.
        -11    1    4    4    0    0  0.20510378693E-01 -0.10085017005E-01 -0.19972208719E-01  0.30356769332E-01  0.51100000000E-03 0.  1.
         11    1    4    4    0    0  0.59630362545E-01 -0.54120648268E-01 -0.42804926414E-01  0.91199493159E-01  0.51100000000E-03 0. -1.
</event>
<event>
 8    1  0.1109553E+005  0.1043930E+01  0.7957747E-01            NaN
         13   -1    0    0    0    0  0.00000000000E+00  0.00000000000E+00  0.74505805969E-08  0.10566000000E+00  0.10566000000E+00 0.  1.
     999900   -1    0    0    0    0 -0.00000000000E+00 -0.00000000000E+00 -0.74505805969E-08  0.93827000000E+00  0.93827000000E+00 0. -1.
     999902    2    1    2    0    0 -0.12376192869E-01 -0.47053136973E-02  0.21141157390E-01  0.10189848870E+01  0.10186795086E+01 0.  0.
     999903    2    3    3    0    0  0.10024148552E+00 -0.62363981389E-01 -0.44207940115E-01  0.12753787904E+00  0.19337710019E-01 0.  0.
         14    1    1    2    0    0  0.12376192869E-01  0.47053136973E-02 -0.21141157390E-01  0.24945113003E-01  0.00000000000E+00 0. -1.
     999901    1    3    3    0    0 -0.11261767838E+00  0.57658667692E-01  0.65349097505E-01  0.89144700795E+00  0.88000000000E+00 0.  1.
        -11    1    4    4    0    0  0.77487073384E-01 -0.38888751344E-01 -0.35619512294E-01  0.93731490438E-01  0.51100000000E-03 0. -1.
         11    1    4    4    0    0  0.22754412131E-01 -0.23475230045E-01 -0.85884278208E-02  0.33806388605E-01  0.51100000000E-03 0.  1.
</event>
<event>
 8    1  0.1109553E+005  0.1043930E+01  0.7957747E-01            NaN
         13   -1    0    0    0    0  0.00000000000E+00  0.00000000000E+00  0.74505805969E-08  0.10566000000E+00  0.10566000000E+00 0. -1.
     999900   -1    0    0    0    0 -0.00000000000E+00 -0.00000000000E+00 -0.74505805969E-08  0.93827000000E+00  0.93827000000E+00 0.  1.
     999902    2    1    2    0    0  0.12081748038E-01 -0.57616501554E-02  0.19461296115E-01  0.10203099387E+01  0.10200365012E+01 0.  0.
     999903    2    3    3    0    0  0.20218552134E-01  0.12076703361E+00 -0.36737029498E-01  0.12944857622E+00  0.20343507397E-01 0.  0.
         14    1    1    2    0    0 -0.12081748038E-01  0.57616501554E-02 -0.19461296115E-01  0.23620061275E-01  0.00000000000E+00 0.  1.
     999901    1    3    3    0    0 -0.81368040956E-02 -0.12652868376E+00  0.56198325612E-01  0.89086136250E+00  0.88000000000E+00 0.  1.
        -11    1    4    4    0    0  0.24037349869E-01  0.95587607580E-01 -0.31155818338E-01  0.10337180974E+00  0.51100000000E-03 0.  1.
         11    1    4    4    0    0 -0.38187977358E-02  0.25179426028E-01 -0.55812111601E-02  0.26076766484E-01  0.51100000000E-03 0. -1.
</event>
<event>
 8    1  0.1109553E+005  0.1043930E+01  0.7957747E-01            NaN
         13   -1    0    0    0    0  0.00000000000E+00  0.00000000000E+00  0.74505805969E-08  0.10566000000E+00  0.10566000000E+00 0. -1.
     999900   -1    0    0    0    0 -0.00000000000E+00 -0.00000000000E+00 -0.74505805969E-08  0.93827000000E+00  0.93827000000E+00 0. -1.
     999902    2    1    2    0    0 -0.21600577456E-01 -0.67881702554E-02 -0.92128820924E-02  0.10194853401E+01  0.10191922376E+01 0.  0.
     999903    2    3    3    0    0 -0.83147266784E-01  0.60994921057E-01 -0.79760162197E-01  0.13192719486E+00  0.20230000008E-01 0.  0.
         14    1    1    2    0    0  0.21600577456E-01  0.67881702554E-02  0.92128820924E-02  0.24444659914E-01  0.00000000000E+00 0. -1.
     999901    1    3    3    0    0  0.61546689328E-01 -0.67783091313E-01  0.70547280104E-01  0.88755814523E+00  0.88000000000E+00 0.  1.
        -11    1    4    4    0    0 -0.57275347185E-01  0.52909923672E-01 -0.59211079783E-01  0.97908827529E-01  0.51100000000E-03 0. -1.
         11    1    4    4    0    0 -0.25871919599E-01  0.80849973849E-02 -0.20549082414E-01  0.34018367326E-01  0.51100000000E-03 0.  1.
</event>
<event>
 8    1  0.1109553E+005  0.1043930E+01  0.7957747E-01            NaN
         13   -1    0    0    0    0  0.00000000000E+00  0.00000000000E+00  0.74505805969E-08  0.10566000000E+00  0.10566000000E+00 0. -1.
     999900   -1    0    0    0    0 -0.00000000000E+00 -0.00000000000E+00 -0.74505805969E-08  0.93827000000E+00  0.93827000000E+00 0. -1.
     999902    2    1    2    0    0  0.20577910815E-01 -0.12344734013E-01 -0.25751043143E-03  0.10199318921E+01  0.10196495257E+01 0.  0.
     999903    2    3    3    0    0  0.63520323757E-01 -0.68946533160E-01 -0.91378332725E-01  0.13237861553E+00  0.19637774614E-01 0.  0.
         14    1    1    2    0    0 -0.20577910815E-01  0.12344734013E-01  0.25751043143E-03  0.23998107904E-01  0.00000000000E+00 0.  1.
     999901    1    3    3    0    0 -0.42942412941E-01  0.56601799148E-01  0.91120822293E-01  0.88755327657E+00  0.88000000000E+00 0.  1.
        -11    1    4    4    0    0  0.39281727969E-01 -0.55097363006E-01 -0.60798631109E-01  0.90969820424E-01  0.51100000000E-03 0. -1.
         11    1    4    4    0    0  0.24238595788E-01 -0.13849170155E-01 -0.30579701616E-01  0.41408795101E-01  0.51100000000E-03 0.  1.
</event>
<event>
 8    1  0.1109553E+005  0.1043930E+01  0.7957747E-01            NaN
         13   -1    0    0    0    0  0.00000000000E+00  0.00000000000E+00  0.74505805969E-08  0.10566000000E+00  0.10566000000E+00 0. -1.
     999900   -1    0    0    0    0 -0.00000000000E+00 -0.00000000000E+00 -0.74505805969E-08  0.93827000000E+00  0.93827000000E+00 0.  1.
     999902    2    1    2    0    0  0.89144769999E-02  0.68268682427E-02  0.19593542491E-01  0.10213472425E+01  0.10210975511E+01 0.  0.
     999903    2    3    3    0    0 -0.12955589458E-01  0.94026825634E-01  0.92252205349E-01  0.13378799732E+00  0.19490192323E-01 0.  0.
         14    1    1    2    0    0 -0.89144769999E-02 -0.68268682427E-02 -0.19593542491E-01  0.22582757527E-01  0.00000000000E+00 0.  1.
     999901    1    3    3    0    0  0.21870066458E-01 -0.87199957392E-01 -0.72658662858E-01  0.88755924516E+00  0.88000000000E+00 0.  1.
        -11    1    4    4    0    0 -0.16310657657E-01  0.51430391975E-01  0.47118330773E-01  0.71634635391E-01  0.51100000000E-03 0.  1.
         11    1    4    4    0    0  0.33550681990E-02  0.42596433660E-01  0.45133874576E-01  0.62153361924E-01  0.51100000000E-03 0. -1.
</event>
<event>
 8    1  0.1109553E+005  0.1043930E+01  0.7957747E-01            NaN
         13   -1    0    0    0    0  0.00000000000E+00  0.00000000000E+00  0.74505805969E-08  0.10566000000E+00  0.10566000000E+00 0. -1.
     999900   -1    0    0    0    0 -0.00000000000E+00 -0.00000000000E+00 -0.74505805969E-08  0.93827000000E+00  0.93827000000E+00 0.  1.
     999902    2    1    2    0    0  0.21631786884E-01 -0.87423820859E-02 -0.30406890996E-02  0.10204010978E+01  0.10201297913E+01 0.  0.
     999903    2    3    3    0    0  0.11347941865E+00  0.34780034865E-01  0.54786993734E-01  0.13266564783E+00  0.22612610437E-01 0.  0.
         14    1    1    2    0    0 -0.21631786884E-01  0.87423820859E-02  0.30406890996E-02  0.23528902195E-01  0.00000000000E+00 0. -1.
     999901    1    3    3    0    0 -0.91847631762E-01 -0.43522416951E-01 -0.57827682833E-01  0.88773544997E+00  0.88000000000E+00 0. -1.
        -11    1    4    4    0    0  0.77034710937E-01  0.34186762700E-01  0.35877725533E-01  0.91599965849E-01  0.51100000000E-03 0. -1.
         11    1    4    4    0    0  0.36444707708E-01  0.59327216512E-03  0.18909268201E-01  0.41065681982E-01  0.51100000000E-03 0.  1.
</event>
<event>
 8    1  0.1109553E+005  0.1043930E+01  0.7957747E-01            NaN
         13   -1    0    0    0    0  0.00000000000E+00  0.00000000000E+00  0.74505805969E-08  0.10566000000E+00  0.10566000000E+00 0.  1.
     999900   -1    0    0    0    0 -0.00000000000E+00 -0.00000000000E+00 -0.74505805969E-08  0.93827000000E+00  0.93827000000E+00 0.  1.
     999902    2    1    2    0    0 -0.59344365488E-02  0.22188733723E-01 -0.51362674682E-02  0.10203940980E+01  0.10201226282E+01 0.  0.
     999903    2    3    3    0    0 -0.53046191668E-01  0.67026996448E-01  0.98698504357E-01  0.13190569223E+00  0.18740335565E-01 0.  0.
         14    1    1    2    0    0  0.59344365488E-02 -0.22188733723E-01  0.51362674682E-02  0.23535902041E-01  0.00000000000E+00 0.  1.
     999901    1    3    3    0    0  0.47111755119E-01 -0.44838262725E-01 -0.10383477183E+00  0.88848840573E+00  0.88000000000E+00 0.  1.
        -11    1    4    4    0    0 -0.35926238015E-02  0.11993554604E-01  0.80480134651E-02  0.14892412147E-01  0.51100000000E-03 0.  1.
         11    1    4    4    0    0 -0.49453567866E-01  0.55033441844E-01  0.90650490892E-01  0.11701328008E+00  0.51100000000E-03 0. -1.
</event>
<event>
 8    1  0.1109553E+005  0.1043930E+01  0.7957747E-01            NaN
         13   -1    0    0    0    0  0.00000000000E+00  0.00000000000E+00  0.74505805969E-08  0.10566000000E+00  0.10566000000E+00 0. -1.
     999900   -1    0    0    0    0 -0.00000000000E+00 -0.00000000000E+00 -0.74505805969E-08  0.93827000000E+00  0.93827000000E+00 0.  1.
     999902    2    1    2    0    0 -0.11107720067E-01 -0.14604562927E-01  0.14696659698E-01  0.10204211398E+01  0.10201503007E+01 0.  0.
     999903    2    3    3    0    0 -0.11980303282E+00  0.13222379931E-01  0.52241315635E-01  0.13250300674E+00  0.17328985297E-01 0.  0.
         14    1    1    2    0    0  0.11107720067E-01  0.14604562927E-01 -0.14696659698E-01  0.23508860237E-01  0.00000000000E+00 0.  1.
     999901    1    3    3    0    0  0.10869531275E+00 -0.27826942857E-01 -0.37544655937E-01  0.88791813302E+00  0.88000000000E+00 0.  1.
        -11    1    4    4    0    0 -0.10779128152E+00  0.67397266571E-02  0.44577786906E-01  0.11684102231E+00  0.51100000000E-03 0.  1.
         11    1    4    4    0    0 -0.12011751300E-01  0.64826532735E-02  0.76635287293E-02  0.15661984432E-01  0.51100000000E-03 0. -1.
</event>
<event>
 8    1  0.1109553E+005  0.1043930E+01  0.7957747E-01            NaN
         13   -1    0    0    0    0  0.00000000000E+00  0.00000000000E+00  0.74505805969E-08  0.10566000000E+00  0.10566000000E+00 0. -1.
     999900   -1    0    0    0    0 -0.00000000000E+00 -0.00000000000E+00 -0.74505805969E-08  0.93827000000E+00  0.93827000000E+00 0.  1.
     999902    2    1    2    0    0  0.21721742425E-01 -0.90179347136E-02 -0.11173065513E-02  0.10203841805E+01  0.10201124792E+01 0.  0.
     999903    2    3    3    0    0  0.12160079426E+00  0.41968081093E-01 -0.26464205149E-01  0.13290580667E+00  0.20384462130E-01 0.  0.
         14    1    1    2    0    0 -0.21721742425E-01  0.90179347136E-02  0.11173065513E-02  0.23545819468E-01  0.00000000000E+00 0.  1.
     999901    1    3    3    0    0 -0.99879051839E-01 -0.50986015807E-01  0.25346898598E-01  0.88747837386E+00  0.88000000000E+00 0. -1.
        -11    1    4    4    0    0  0.10548169356E+00  0.38725267942E-01 -0.16232001593E-01  0.11353313635E+00  0.51100000000E-03 0.  1.
         11    1    4    4    0    0  0.16119100707E-01  0.32428131518E-02 -0.10232203556E-01  0.19372670321E-01  0.51100000000E-03 0. -1.
</event>
<event>
 8    1  0.1109553E+005  0.1043930E+01  0.7957747E-01            NaN
         13   -1    0    0    0    0  0.00000000000E+00  0.00000000000E+00  0.74505805969E-08  0.10566000000E+00  0.10566000000E+00 0.  1.
     999900   -1    0    0    0    0 -0.00000000000E+00 -0.00000000000E+00 -0.74505805969E-08  0.93827000000E+00  0.93827000000E+00 0. -1.
     999902    2    1    2    0    0 -0.19180599837E-01 -0.31889630977E-02  0.13578715484E-01  0.10202140474E+01  0.10199383589E+01 0.  0.
     999903    2    3    3    0    0 -0.68553235974E-01  0.10859840066E+00 -0.19884839614E-01  0.13113931404E+00  0.17577088866E-01 0.  0.
         14    1    1    2    0    0  0.19180599837E-01  0.31889630977E-02 -0.13578715484E-01  0.23715952647E-01  0.00000000000E+00 0.  1.
     999901    1    3    3    0    0  0.49372636137E-01 -0.11178736375E+00  0.33463555098E-01  0.88907473331E+00  0.88000000000E+00 0. -1.
        -11    1    4    4    0    0 -0.25039544383E-01  0.46658301067E-01 -0.33134465372E-03  0.52956083235E-01  0.51100000000E-03 0.  1.
         11    1    4    4    0    0 -0.43513691591E-01  0.61940099590E-01 -0.19553494960E-01  0.78183230806E-01  0.51100000000E-03 0. -1.
</event>
<event>
 8    1  0.1109553E+005  0.1043930E+01  0.7957747E-01            NaN
         13   -1    0    0    0    0  0.00000000000E+00  0.00000000000E+00  0.74505805969E-08  0.10566000000E+00  0.10566000000E+00 0. -1.
     999900   -1    0    0    0    0 -0.00000000000E+00 -0.00000000000E+00 -0.74505805969E-08  0.93827000000E+00  0.93827000000E+00 0. -1.
     999902    2    1    2    0    0  0.26816841239E-02 -0.12196844103E-01  0.18881271622E-01  0.10212924901E+01  0.10210415729E+01 0.  0.
     999903    2    3    3    0    0  0.61514385176E-02 -0.12140347877E+00  0.52820505757E-01  0.13388615710E+00  0.18943399437E-01 0.  0.
         14    1    1    2    0    0 -0.26816841239E-02  0.12196844103E-01 -0.18881271622E-01  0.22637509887E-01  0.00000000000E+00 0.  1.
     999901    1    3    3    0    0 -0.34697543937E-02  0.10920663467E+00 -0.33939234135E-01  0.88740633301E+00  0.88000000000E+00 0. -1.
        -11    1    4    4    0    0  0.11540108917E-01 -0.95640337209E-01  0.45634094694E-01  0.10659727921E+00  0.51100000000E-03 0.  1.
         11    1    4    4    0    0 -0.53886703995E-02 -0.25763141561E-01  0.71864110636E-02  0.27288877895E-01  0.51100000000E-03 0. -1.
</event>
<event>
 8    1  0.1109553E+005  0.1043930E+01  0.7957747E-01            NaN
         13   -1    0    0    0    0  0.00000000000E+00  0.00000000000E+00  0.74505805969E-08  0.10566000000E+00  0.10566000000E+00 0.  1.
     999900   -1    0    0    0    0 -0.00000000000E+00 -0.00000000000E+00 -0.74505805969E-08  0.93827000000E+00  0.93827000000E+00 0.  1.
     999902    2    1    2    0    0 -0.73478714874E-02 -0.12872618172E-01  0.17570456194E-01  0.10209426895E+01  0.10206838682E+01 0.  0.
     999903    2    3    3    0    0 -0.10018756602E+00 -0.22076513511E-01  0.82850524221E-01  0.13360655934E+00  0.21484471198E-01 0.  0.
         14    1    1    2    0    0  0.73478714874E-02  0.12872618172E-01 -0.17570456194E-01  0.22987310518E-01  0.00000000000E+00 0. -1.
     999901    1    3    3    0    0  0.92839694528E-01  0.92038953393E-02 -0.65280068027E-01  0.88733613014E+00  0.88000000000E+00 0.  1.
        -11    1    4    4    0    0 -0.62079008069E-01 -0.97970104174E-02  0.37832504613E-01  0.73357645697E-01  0.51100000000E-03 0.  1.
         11    1    4    4    0    0 -0.38108557947E-01 -0.12279503094E-01  0.45018019608E-01  0.60248913645E-01  0.51100000000E-03 0. -1.
</event>
<event>
 8    1  0.1109553E+005  0.1043930E+01  0.7957747E-01            NaN
         13   -1    0    0    0    0  0.00000000000E+00  0.00000000000E+00  0.74505805969E-08  0.10566000000E+00  0.10566000000E+00 0. -1.
     999900   -1    0    0    0    0 -0.00000000000E+00 -0.00000000000E+00 -0.74505805969E-08  0.93827000000E+00  0.93827000000E+00 0.  1.
     999902    2    1    2    0    0  0.16933671498E-01  0.14156709879E-01 -0.87908730234E-02  0.10201720305E+01  0.10198953528E+01 0.  0.
     999903    2    3    3    0    0  0.12204762519E+00  0.17795984128E-02  0.45955243297E-01  0.13214090866E+00  0.21226058784E-01 0.  0.
         14    1    1    2    0    0 -0.16933671498E-01 -0.14156709879E-01  0.87908730234E-02  0.23757969474E-01  0.00000000000E+00 0. -1.
     999901    1    3    3    0    0 -0.10511395369E+00  0.12377111466E-01 -0.54746116320E-01  0.88803112186E+00  0.88000000000E+00 0. -1.
        -11    1    4    4    0    0  0.68417213525E-01  0.24384170351E-04  0.36852293995E-01  0.77712729941E-01  0.51100000000E-03 0. -1.
         11    1    4    4    0    0  0.53630411660E-01  0.17552142424E-02  0.91029493023E-02  0.54428178721E-01  0.51100000000E-03 0.  1.
</event>
<event>
 8    1  0.1109553E+005  0.1043930E+01  0.7957747E-01            NaN
         13   -1    0    0    0    0  0.00000000000E+00  0.00000000000E+00  0.74505805969E-08  0.10566000000E+00  0.10566000000E+00 0.  1.
     999900   -1    0    0    0    0 -0.00000000000E+00 -0.00000000000E+00 -0.74505805969E-08  0.93827000000E+00  0.93827000000E+00 0.  1.
     999902    2    1    2    0    0  0.52552480873E-02 -0.24569350601E-01  0.18155843591E-02  0.10187393873E+01  0.10184278925E+01 0.  0.
     999903    2    3    3    0    0  0.62333143269E-01 -0.10617403211E+00 -0.41936781815E-01  0.13204243811E+00  0.22763258777E-01 0.  0.
         14    1    1    2    0    0 -0.52552480873E-02  0.24569350601E-01 -0.18155843591E-02  0.25190612695E-01  0.00000000000E+00 0. -1.
     999901    1    3    3    0    0 -0.57077895182E-01  0.81604681505E-01  0.43752366174E-01  0.88669694919E+00  0.88000000000E+00 0. -1.
        -11    1    4    4    0    0  0.49430794948E-01 -0.73680076406E-01 -0.39106455839E-01  0.96962534815E-01  0.51100000000E-03 0.  1.
         11    1    4    4    0    0  0.12902348322E-01 -0.32493955700E-01 -0.28303259755E-02  0.35079903297E-01  0.51100000000E-03 0. -1.
</event>
<event>
 8    1  0.1109553E+005  0.1043930E+01  0.7957747E-01            NaN
         13   -1    0    0    0    0  0.00000000000E+00  0.00000000000E+00  0.74505805969E-08  0.10566000000E+00  0.10566000000E+00 0. -1.
     999900   -1    0    0    0    0 -0.00000000000E+00 -0.00000000000E+00 -0.74505805969E-08  0.93827000000E+00  0.93827000000E+00 0.  1.
     999902    2    1    2    0    0  0.23163923885E-02  0.19061352618E-01  0.11417154910E-01  0.10215905223E+01  0.10213462405E+01 0.  0.
     999903    2    3    3    0    0 -0.11213474904E+00 -0.28802830811E-01 -0.56360939088E-01  0.13030834822E+00  0.19997628736E-01 0.  0.
         14    1    1    2    0    0 -0.23163923885E-02 -0.19061352618E-01 -0.11417154910E-01  0.22339477692E-01  0.00000000000E+00 0.  1.
     999901    1    3    3    0    0  0.11445114143E+00  0.47864183429E-01  0.67778093997E-01  0.89128217409E+00  0.88000000000E+00 0.  1.
        -11    1    4    4    0    0 -0.94527701095E-01 -0.17975572607E-01 -0.41214848793E-01  0.10467823254E+00  0.51100000000E-03 0.  1.
         11    1    4    4    0    0 -0.17607047944E-01 -0.10827258205E-01 -0.15146090295E-01  0.25630115680E-01  0.51100000000E-03 0. -1.
</event>
<event>
 8    1  0.1109553E+005  0.1043930E+01  0.7957747E-01            NaN
         13   -1    0    0    0    0  0.00000000000E+00  0.00000000000E+00  0.74505805969E-08  0.10566000000E+00  0.10566000000E+00 0.  1.
     999900   -1    0    0    0    0 -0.00000000000E+00 -0.00000000000E+00 -0.74505805969E-08  0.93827000000E+00  0.93827000000E+00 0.  1.
     999902    2    1    2    0    0  0.13164112625E-02  0.20963780265E-01 -0.10822739446E-01  0.10203006811E+01  0.10200270267E+01 0.  0.
     999903    2    3    3    0    0  0.10265180938E+00 -0.21558923691E-01 -0.76055545475E-01  0.13106934888E+00  0.19812800351E-01 0.  0.
         14    1    1    2    0    0 -0.13164112625E-02 -0.20963780265E-01  0.10822739446E-01  0.23629318880E-01  0.00000000000E+00 0.  1.
     999901    1    3    3    0    0 -0.10133539812E+00  0.42522703956E-01  0.65232806030E-01  0.88923133224E+00  0.88000000000E+00 0. -1.
        -11    1    4    4    0    0  0.78178220288E-01 -0.18543558295E-01 -0.47508886710E-01  0.93343736368E-01  0.51100000000E-03 0. -1.
         11    1    4    4    0    0  0.24473589090E-01 -0.30153653957E-02 -0.28546658765E-01  0.37725612508E-01  0.51100000000E-03 0.  1.
</event>
<event>
 8    1  0.1109553E+005  0.1043930E+01  0.7957747E-01            NaN
         13   -1    0    0    0    0  0.00000000000E+00  0.00000000000E+00  0.74505805969E-08  0.10566000000E+00  0.10566000000E+00 0.  1.
     999900   -1    0    0    0    0 -0.00000000000E+00 -0.00000000000E+00 -0.74505805969E-08  0.93827000000E+00  0.93827000000E+00 0. -1.
     999902    2    1    2    0    0 -0.85002561022E-02  0.21439356573E-01  0.63348633813E-02  0.10200128334E+01  0.10197323911E+01 0.  0.
     999903    2    3    3    0    0 -0.53686487672E-01 -0.85193192776E-01  0.78453008396E-01  0.12949987844E+00  0.21799654510E-01 0.  0.
         14    1    1    2    0    0  0.85002561022E-02 -0.21439356573E-01 -0.63348633813E-02  0.23917166599E-01  0.00000000000E+00 0. -1.
     999901    1    3    3    0    0  0.45186231570E-01  0.10663254935E+00 -0.72118145015E-01  0.89051295496E+00  0.88000000000E+00 0.  1.
        -11    1    4    4    0    0 -0.38528151480E-01 -0.67480403285E-01  0.70327366538E-01  0.10480564340E+00  0.51100000000E-03 0.  1.
         11    1    4    4    0    0 -0.15158336192E-01 -0.17712789491E-01  0.81256418582E-02  0.24694235042E-01  0.51100000000E-03 0. -1.
</event>
<event>
 8    1  0.1109553E+005  0.1043930E+01  0.7957747E-01            NaN
         13   -1    0    0    0    0  0.00000000000E+00  0.00000000000E+00  0.74505805969E-08  0.10566000000E+00  0.10566000000E+00 0.  1.
     999900   -1    0    0    0    0 -0.00000000000E+00 -0.00000000000E+00 -0.74505805969E-08  0.93827000000E+00  0.93827000000E+00 0. -1.
     999902    2    1    2    0    0 -0.12699153579E-01 -0.11658683001E-01  0.16056402536E-01  0.10203715312E+01  0.10200995344E+01 0.  0.
     999903    2    3    3    0    0  0.10997443003E-01  0.31114230273E-01 -0.12234236372E+00  0.12821388294E+00  0.19547550732E-01 0.  0.
         14    1    1    2    0    0  0.12699153579E-01  0.11658683001E-01 -0.16056402536E-01  0.23558468825E-01  0.00000000000E+00 0. -1.
     999901    1    3    3    0    0 -0.23696596582E-01 -0.42772913274E-01  0.13839876626E+00  0.89215764823E+00  0.88000000000E+00 0.  1.
        -11    1    4    4    0    0 -0.25109456250E-02  0.21129248156E-01 -0.60784237053E-01  0.64402908092E-01  0.51100000000E-03 0.  1.
         11    1    4    4    0    0  0.13508388628E-01  0.99849821167E-02 -0.61558126670E-01  0.63810974850E-01  0.51100000000E-03 0. -1.
</event>
<event>
 8    1  0.1109553E+005  0.1043930E+01  0.7957747E-01            NaN
         13   -1    0    0    0    0  0.00000000000E+00  0.00000000000E+00  0.74505805969E-08  0.10566000000E+00  0.10566000000E+00 0.  1.
     999900   -1    0    0    0    0 -0.00000000000E+00 -0.00000000000E+00 -0.74505805969E-08  0.93827000000E+00  0.93827000000E+00 0. -1.
     999902    2    1    2    0    0 -0.21319271299E-01 -0.33773118502E-02  0.96933494496E-02  0.10202682463E+01  0.10199938313E+01 0.  0.
     999903    2    3    3    0    0  0.15792978160E-01 -0.91028977441E-01  0.91256333518E-01  0.13138543406E+00  0.19967998988E-01 0.  0.
         14    1    1    2    0    0  0.21319271299E-01  0.33773118502E-02 -0.96933494496E-02  0.23661753688E-01  0.00000000000E+00 0. -1.
     999901    1    3    3    0    0 -0.37112249459E-01  0.87651665591E-01 -0.81562984069E-01  0.88888281225E+00  0.88000000000E+00 0.  1.
        -11    1    4    4    0    0  0.22780061001E-02 -0.66068504815E-01  0.62498145058E-01  0.90975358735E-01  0.51100000000E-03 0.  1.
         11    1    4    4    0    0  0.13514972060E-01 -0.24960472626E-01  0.28758188460E-01  0.40410075328E-01  0.51100000000E-03 0. -1.
</event>
<event>
 8    1  0.1109553E+005  0.1043930E+01  0.7957747E-01            NaN
         13   -1    0    0    0    0  0.00000000000E+00  0.00000000000E+00  0.74505805969E-08  0.10566000000E+00  0.10566000000E+00 0. -1.
     999900   -1    0    0    0    0 -0.00000000000E+00 -0.00000000000E+00 -0.74505805969E-08  0.93827000000E+00  0.93827000000E+00 0. -1.
     999902    2    1    2    0    0  0.22737423758E-01 -0.35562417280E-02  0.54116850470E-02  0.10202884343E+01  0.10200144928E+01 0.  0.
     999903    2    3    3    0    0 -0.96377516624E-01 -0.81147742613E-01 -0.15117635419E-01  0.12864373878E+00  0.21144426776E-01 0.  0.
         14    1    1    2    0    0 -0.22737423758E-01  0.35562417280E-02 -0.54116850470E-02  0.23641565714E-01  0.00000000000E+00 0.  1.
     999901    1    3    3    0    0  0.11911494038E+00  0.77591500885E-01  0.20529320466E-01  0.89164469551E+00  0.88000000000E+00 0.  1.
        -11    1    4    4    0    0 -0.18048368327E-01 -0.27056415704E-01 -0.25926407822E-02  0.32630907699E-01  0.51100000000E-03 0. -1.
         11    1    4    4    0    0 -0.78329148297E-01 -0.54091326909E-01 -0.12524994637E-01  0.96012831077E-01  0.51100000000E-03 0.  1.
</event>
<event>
 8    1  0.1109553E+005  0.1043930E+01  0.7957747E-01            NaN
         13   -1    0    0    0    0  0.00000000000E+00  0.00000000000E+00  0.74505805969E-08  0.10566000000E+00  0.10566000000E+00 0. -1.
     999900   -1    0    0    0    0 -0.00000000000E+00 -0.00000000000E+00 -0.74505805969E-08  0.93827000000E+00  0.93827000000E+00 0. -1.
     999902    2    1    2    0    0  0.26394690613E-02 -0.23486379654E-01 -0.28566257063E-02  0.10201237585E+01  0.10198459420E+01 0.  0.
     999903    2    3    3    0    0  0.12743130933E-01  0.73991121045E-01  0.10233723021E+00  0.12845695160E+00  0.19778936955E-01 0.  0.
         14    1    1    2    0    0 -0.26394690613E-02  0.23486379654E-01  0.28566257063E-02  0.23806241547E-01  0.00000000000E+00 0.  1.
     999901    1    3    3    0    0 -0.10103661871E-01 -0.97477500699E-01 -0.10519385592E+00  0.89166680686E+00  0.88000000000E+00 0. -1.
        -11    1    4    4    0    0  0.12965809334E-01  0.50779707780E-01  0.56446504258E-01  0.77027007587E-01  0.51100000000E-03 0. -1.
         11    1    4    4    0    0 -0.22267840113E-03  0.23211413265E-01  0.45890725952E-01  0.51429944010E-01  0.51100000000E-03 0.  1.
</event>
<event>
 8    1  0.1109553E+005  0.1043930E+01  0.7957747E-01            NaN
         13   -1    0    0    0    0  0.00000000000E+00  0.00000000000E+00  0.74505805969E-08  0.10566000000E+00  0.10566000000E+00 0. -1.
     999900   -1    0    0    0    0 -0.00000000000E+00 -0.00000000000E+00 -0.74505805969E-08  0.93827000000E+00  0.93827000000E+00 0.  1.
     999902    2    1    2    0    0 -0.74770404688E-02  0.22096945925E-01  0.35888817736E-02  0.10203278555E+01  0.10200548375E+01 0.  0.
     999903    2    3    3    0    0 -0.10817537800E+00  0.74879777949E-01  0.10654861193E-02  0.13301024039E+00  0.19537022195E-01 0.  0.
         14    1    1    2    0    0  0.74770404688E-02 -0.22096945925E-01 -0.35888817736E-02  0.23602144517E-01  0.00000000000E+00 0. -1.
     999901    1    3    3    0    0  0.10069833753E+00 -0.52782832024E-01  0.25233956543E-02  0.88731761510E+00  0.88000000000E+00 0. -1.
        -11    1    4    4    0    0 -0.96348126892E-01  0.66764657893E-01  0.71107164754E-02  0.11743638494E+00  0.51100000000E-03 0. -1.
         11    1    4    4    0    0 -0.11827251105E-01  0.81151200563E-02 -0.60452303561E-02  0.15573855441E-01  0.51100000000E-03 0.  1.
</event>
<event>
 8    1  0.1109553E+005  0.1043930E+01  0.7957747E-01            NaN
         13   -1    0    0    0    0  0.00000000000E+00  0.00000000000E+00  0.74505805969E-08  0.10566000000E+00  0.10566000000E+00 0. -1.
     999900   -1    0    0    0    0 -0.00000000000E+00 -0.00000000000E+00 -0.74505805969E-08  0.93827000000E+00  0.93827000000E+00 0.  1.
     999902    2    1    2    0    0  0.13670544024E-01  0.18701996227E-01 -0.22433143664E-02  0.10206559609E+01  0.10203905672E+01 0.  0.
     999903    2    3    3    0    0  0.12114745840E+00  0.50203803454E-01  0.14826155198E-01  0.13339330657E+00  0.19412130245E-01 0.  0.
         14    1    1    2    0    0 -0.13670544024E-01 -0.18701996227E-01  0.22433143664E-02  0.23274039102E-01  0.00000000000E+00 0.  1.
     999901    1    3    3    0    0 -0.10747691438E+00 -0.31501807226E-01 -0.17069469564E-01  0.88726265433E+00  0.88000000000E+00 0.  1.
        -11    1    4    4    0    0  0.42023199368E-01  0.11650618826E-01  0.12405934031E-01  0.45341532002E-01  0.51100000000E-03 0. -1.
         11    1    4    4    0    0  0.79124259031E-01  0.38553184628E-01  0.24202211670E-02  0.88051774563E-01  0.51100000000E-03 0.  1.
</event>
<event>
 8    1  0.1109553E+005  0.1043930E+01  0.7957747E-01            NaN
         13   -1    0    0    0    0  0.00000000000E+00  0.00000000000E+00  0.74505805969E-08  0.10566000000E+00  0.10566000000E+00 0.  1.
     999900   -1    0    0    0    0 -0.00000000000E+00 -0.00000000000E+00 -0.74505805969E-08  0.93827000000E+00  0.93827000000E+00 0. -1.
     999902    2    1    2    0    0  0.90888473514E-02  0.18276715896E-01 -0.11795841561E-01  0.10203548570E+01  0.10200824706E+01 0.  0.
     999903    2    3    3    0    0 -0.70432338708E-01 -0.85103496192E-01 -0.62523422730E-01  0.12929684834E+00  0.24600349586E-01 0.  0.
         14    1    1    2    0    0 -0.90888473514E-02 -0.18276715896E-01  0.11795841561E-01  0.23575143016E-01  0.00000000000E+00 0.  1.
     999901    1    3    3    0    0  0.79521186059E-01  0.10338021209E+00  0.50727581170E-01  0.89105800865E+00  0.88000000000E+00 0. -1.
        -11    1    4    4    0    0 -0.49804370479E-01 -0.75368017205E-01 -0.50892949652E-01  0.10368783333E+00  0.51100000000E-03 0. -1.
         11    1    4    4    0    0 -0.20627968229E-01 -0.97354789875E-02 -0.11630473078E-01  0.25609015002E-01  0.51100000000E-03 0.  1.
</event>
<event>
 8    1  0.1109553E+005  0.1043930E+01  0.7957747E-01            NaN
         13   -1    0    0    0    0  0.00000000000E+00  0.00000000000E+00  0.74505805969E-08  0.10566000000E+00  0.10566000000E+00 0. -1.
     999900   -1    0    0    0    0 -0.00000000000E+00 -0.00000000000E+00 -0.74505805969E-08  0.93827000000E+00  0.93827000000E+00 0.  1.
     999902    2    1    2    0    0 -0.97309744658E-03  0.13178006135E-01 -0.19036325346E-01  0.10207569888E+01  0.10204939205E+01 0.  0.
     999903    2    3    3    0    0  0.31007316431E-01  0.84473046771E-01  0.92073454965E-01  0.13033511523E+00  0.20311864761E-01 0.  0.
         14    1    1    2    0    0  0.97309744658E-03 -0.13178006135E-01  0.19036325346E-01  0.23173011177E-01  0.00000000000E+00 0. -1.
     999901    1    3    3    0    0 -0.31980413877E-01 -0.71295040637E-01 -0.11110978031E+00  0.89042187359E+00  0.88000000000E+00 0.  1.
        -11    1    4    4    0    0  0.29615642607E-02  0.34623893334E-01  0.39919949931E-01  0.52928710318E-01  0.51100000000E-03 0.  1.
         11    1    4    4    0    0  0.28045752170E-01  0.49849153438E-01  0.52153505034E-01  0.77406404913E-01  0.51100000000E-03 0. -1.
</event>
<event>
 8    1  0.1109553E+005  0.1043930E+01  0.7957747E-01            NaN
         13   -1    0    0    0    0  0.00000000000E+00  0.00000000000E+00  0.74505805969E-08  0.10566000000E+00  0.10566000000E+00 0. -1.
     999900   -1    0    0    0    0 -0.00000000000E+00 -0.00000000000E+00 -0.74505805969E-08  0.93827000000E+00  0.93827000000E+00 0.  1.
     999902    2    1    2    0    0 -0.29144904500E-02  0.16598945768E-01  0.16443317019E-01  0.10203842588E+01  0.10201125593E+01 0.  0.
     999903    2    3    3    0    0 -0.49718795249E-01  0.11607205627E+00  0.34603413558E-01  0.13335814204E+00  0.25343973104E-01 0.  0.
         14    1    1    2    0    0  0.29144904500E-02 -0.16598945768E-01 -0.16443317019E-01  0.23545741223E-01  0.00000000000E+00 0.  1.
     999901    1    3    3    0    0  0.46804304799E-01 -0.99473110498E-01 -0.18160096540E-01  0.88702611673E+00  0.88000000000E+00 0.  1.
        -11    1    4    4    0    0 -0.36003998605E-01  0.52285566101E-01  0.19089805396E-01  0.66292911606E-01  0.51100000000E-03 0. -1.
         11    1    4    4    0    0 -0.13714796643E-01  0.63786490165E-01  0.15513608162E-01  0.67065230438E-01  0.51100000000E-03 0.  1.
</event>
<event>
 8    1  0.1109553E+005  0.1043930E+01  0.7957747E-01            NaN
         13   -1    0    0    0    0  0.00000000000E+00  0.00000000000E+00  0.74505805969E-08  0.10566000000E+00  0.10566000000E+00 0.  1.
     999900   -1    0    0    0    0 -0.00000000000E+00 -0.00000000000E+00 -0.74505805969E-08  0.93827000000E+00  0.93827000000E+00 0. -1.
     999902    2    1    2    0    0 -0.22912379405E-02  0.18984225693E-01  0.12826317009E-01  0.10209046877E+01  0.10206450002E+01 0.  0.
     999903    2    3    3    0    0  0.65062248925E-02  0.73085872966E-01  0.11025849002E+00  0.13383230517E+00  0.19242543892E-01 0.  0.
         14    1    1    2    0    0  0.22912379405E-02 -0.18984225693E-01 -0.12826317009E-01  0.23025312256E-01  0.00000000000E+00 0. -1.
     999901    1    3    3    0    0 -0.87974628330E-02 -0.54101647273E-01 -0.97432173013E-01  0.88707238258E+00  0.88000000000E+00 0. -1.
        -11    1    4    4    0    0 -0.58493354733E-02  0.40116600223E-01  0.62425083335E-01  0.74435935471E-01  0.51100000000E-03 0. -1.
         11    1    4    4    0    0  0.12355560366E-01  0.32969272743E-01  0.47833406686E-01  0.59396369698E-01  0.51100000000E-03 0.  1.
</event>
<event>
 8    1  0.1109553E+005  0.1043930E+01  0.7957747E-01            NaN
         13   -1    0    0    0    0  0.00000000000E+00  0.00000000000E+00  0.74505805969E-08  0.10566000000E+00  0.10566000000E+00 0. -1.
     999900   -1    0    0    0    0 -0.00000000000E+00 -0.00000000000E+00 -0.74505805969E-08  0.93827000000E+00  0.93827000000E+00 0.  1.
     999902    2    1    2    0    0  0.38325897622E-03 -0.86497508429E-02  0.22034810274E-01  0.10202551623E+01  0.10199804401E+01 0.  0.
     999903    2    3    3    0    0 -0.45394540717E-01 -0.98329230953E-01 -0.68630034984E-01  0.12988550295E+00  0.20757171957E-01 0.  0.
         14    1    1    2    0    0 -0.38325897622E-03  0.86497508429E-02 -0.22034810274E-01  0.23674837717E-01  0.00000000000E+00 0.  1.
     999901    1    3    3    0    0  0.45777799693E-01  0.89679480110E-01  0.90664845258E-01  0.89036965933E+00  0.88000000000E+00 0. -1.
        -11    1    4    4    0    0 -0.26278559219E-01 -0.70903954784E-01 -0.56199300389E-01  0.94215476244E-01  0.51100000000E-03 0. -1.
         11    1    4    4    0    0 -0.19115981498E-01 -0.27425276169E-01 -0.12430734595E-01  0.35670026705E-01  0.51100000000E-03 0.  1.
</event>
<event>
 8    1  0.1109553E+005  0.1043930E+01  0.7957747E-01            NaN
         13   -1    0    0    0    0  0.00000000000E+00  0.00000000000E+00  0.74505805969E-08  0.10566000000E+00  0.10566000000E+00 0. -1.
     999900   -1    0    0    0    0 -0.00000000000E+00 -0.00000000000E+00 -0.74505805969E-08  0.93827000000E+00  0.93827000000E+00 0. -1.
     999902    2    1    2    0    0 -0.69957243097E-02  0.66026904285E-02  0.22497413909E-01  0.10194622802E+01  0.10191686178E+01 0.  0.
     999903    2    3    3    0    0  0.12078305239E+00 -0.39063951881E-01  0.13136241840E-01  0.12901268054E+00  0.18899016123E-01 0.  0.
         14    1    1    2    0    0  0.69957243097E-02 -0.66026904285E-02 -0.22497413909E-01  0.24467719798E-01  0.00000000000E+00 0.  1.
     999901    1    3    3    0    0 -0.12777877670E+00  0.45666642309E-01  0.93611720693E-02  0.89044959966E+00  0.88000000000E+00 0. -1.
        -11    1    4    4    0    0  0.68338228703E-01 -0.17931940786E-01  0.15825487783E-01  0.72404248405E-01  0.51100000000E-03 0. -1.
         11    1    4    4    0    0  0.52444823684E-01 -0.21132011095E-01 -0.26892459434E-02  0.56608432136E-01  0.51100000000E-03 0.  1.
</event>
<event>
 8    1  0.1109553E+005  0.1043930E+01  0.7957747E-01            NaN
         13   -1    0    0    0    0  0.00000000000E+00  0.00000000000E+00  0.74505805969E-08  0.10566000000E+00  0.10566000000E+00 0. -1.
     999900   -1    0    0    0    0 -0.00000000000E+00 -0.00000000000E+00 -0.74505805969E-08  0.93827000000E+00  0.93827000000E+00 0. -1.
     999902    2    1    2    0    0 -0.28611595678E-02 -0.23098128466E-01  0.21659353475E-03  0.10206543328E+01  0.10203889015E+01 0.  0.
     999903    2    3    3    0    0 -0.72968099576E-01 -0.75048932167E-01 -0.79058939224E-01  0.13279258725E+00  0.20660822407E-01 0.  0.
         14    1    1    2    0    0  0.28611595678E-02  0.23098128466E-01 -0.21659353475E-03  0.23275667240E-01  0.00000000000E+00 0. -1.
     999901    1    3    3    0    0  0.70106940008E-01  0.51950803701E-01  0.79275532759E-01  0.88786174551E+00  0.88000000000E+00 0.  1.
        -11    1    4    4    0    0 -0.38381899407E-01 -0.24864661295E-01 -0.33057212454E-01  0.56431037556E-01  0.51100000000E-03 0. -1.
         11    1    4    4    0    0 -0.34586200169E-01 -0.50184270872E-01 -0.46001726770E-01  0.76361549696E-01  0.51100000000E-03 0.  1.
</event>
<event>
 8    1  0.1109553E+005  0.1043930E+01  0.7957747E-01            NaN
         13   -1    0    0    0    0  0.00000000000E+00  0.00000000000E+00  0.74505805969E-08  0.10566000000E+00  0.10566000000E+00 0. -1.
     999900   -1    0    0    0    0 -0.00000000000E+00 -0.00000000000E+00 -0.74505805969E-08  0.93827000000E+00  0.93827000000E+00 0.  1.
     999902    2    1    2    0    0 -0.10440163564E-02 -0.40754540605E-02  0.22585718483E-01  0.10209557976E+01  0.10206972748E+01 0.  0.
     999903    2    3    3    0    0  0.32051402076E-01  0.93024908787E-01 -0.80864560791E-01  0.12897723987E+00  0.20374621061E-01 0.  0.
         14    1    1    2    0    0  0.10440163564E-02  0.40754540605E-02 -0.22585718483E-01  0.22974202388E-01  0.00000000000E+00 0.  1.
     999901    1    3    3    0    0 -0.33095418433E-01 -0.97100362847E-01  0.10345027927E+00  0.89197855774E+00  0.88000000000E+00 0. -1.
        -11    1    4    4    0    0  0.96285291273E-02  0.49272160843E-01 -0.31305462864E-01  0.59167115304E-01  0.51100000000E-03 0.  1.
         11    1    4    4    0    0  0.22422872949E-01  0.43752747944E-01 -0.49559097927E-01  0.69810124568E-01  0.51100000000E-03 0. -1.
</event>
<event>
 8    1  0.1109553E+005  0.1043930E+01  0.7957747E-01            NaN
         13   -1    0    0    0    0  0.00000000000E+00  0.00000000000E+00  0.74505805969E-08  0.10566000000E+00  0.10566000000E+00 0.  1.
     999900   -1    0    0    0    0 -0.00000000000E+00 -0.00000000000E+00 -0.74505805969E-08  0.93827000000E+00  0.93827000000E+00 0. -1.
     999902    2    1    2    0    0 -0.18204422898E-01  0.87217738754E-02 -0.83394550536E-02  0.10220892843E+01  0.10218559038E+01 0.  0.
     999903    2    3    3    0    0  0.35446153422E-01  0.12622257766E+00 -0.78999248162E-02  0.13265968256E+00  0.18644400248E-01 0.  0.
         14    1    1    2    0    0  0.18204422898E-01 -0.87217738754E-02  0.83394550536E-02  0.21840715720E-01  0.00000000000E+00 0.  1.
     999901    1    3    3    0    0 -0.53650576320E-01 -0.11750080379E+00 -0.43953023740E-03  0.88942960172E+00  0.88000000000E+00 0. -1.
        -11    1    4    4    0    0  0.13330536596E-01  0.80862027158E-01 -0.45382723935E-02  0.82080616953E-01  0.51100000000E-03 0.  1.
         11    1    4    4    0    0  0.22115616826E-01  0.45360550504E-01 -0.33616524227E-02  0.50579065607E-01  0.51100000000E-03 0. -1.
</event>
<event>
 8    1  0.1109553E+005  0.1043930E+01  0.7957747E-01            NaN
         13   -1    0    0    0    0  0.00000000000E+00  0.00000000000E+00  0.74505805969E-08  0.10566000000E+00  0.10566000000E+00 0.  1.
     999900   -1    0    0    0    0 -0.00000000000E+00 -0.00000000000E+00 -0.74505805969E-08  0.93827000000E+00  0.93827000000E+00 0. -1.
     999902    2    1    2    0    0  0.80139738343E-02  0.12908899833E-01  0.17681155204E-01  0.10206171983E+01  0.10203509097E+01 0.  0.
     999903    2    3    3    0    0 -0.86560083498E-01 -0.63580207158E-01 -0.67244992248E-01  0.12820065529E+00  0.19453232023E-01 0.  0.
         14    1    1    2    0    0 -0.80139738343E-02 -0.12908899833E-01 -0.17681155204E-01  0.23312801652E-01  0.00000000000E+00 0. -1.
     999901    1    3    3    0    0  0.94574057332E-01  0.76489106992E-01  0.84926147451E-01  0.89241654306E+00  0.88000000000E+00 0.  1.
        -11    1    4    4    0    0 -0.72542093757E-01 -0.47743763192E-01 -0.46238585098E-01  0.98387449216E-01  0.51100000000E-03 0.  1.
         11    1    4    4    0    0 -0.14017989740E-01 -0.15836443967E-01 -0.21006407150E-01  0.29813206071E-01  0.51100000000E-03 0. -1.
</event>
<event>
 8    1  0.1109553E+005  0.1043930E+01  0.7957747E-01            NaN
         13   -1    0    0    0    0  0.00000000000E+00  0.00000000000E+00  0.74505805969E-08  0.10566000000E+00  0.10566000000E+00 0. -1.
     999900   -1    0    0    0    0 -0.00000000000E+00 -0.00000000000E+00 -0.74505805969E-08  0.93827000000E+00  0.93827000000E+00 0.  1.
     999902    2    1    2    0    0  0.98101214389E-02  0.18831107142E-01 -0.10024047838E-01  0.10204495696E+01  0.10201793927E+01 0.  0.
     999903    2    3    3    0    0 -0.12402396918E+00 -0.30596740483E-01  0.81594084085E-03  0.12889352460E+00  0.17168851597E-01 0.  0.
         14    1    1    2    0    0 -0.98101214389E-02 -0.18831107142E-01  0.10024047838E-01  0.23480430445E-01  0.00000000000E+00 0. -1.
     999901    1    3    3    0    0  0.13383409062E+00  0.49427847625E-01 -0.10839988679E-01  0.89155604495E+00  0.88000000000E+00 0. -1.
        -11    1    4    4    0    0 -0.26234435440E-01  0.53162332927E-03 -0.75892124818E-03  0.26255767151E-01  0.51100000000E-03 0. -1.
         11    1    4    4    0    0 -0.97789533743E-01 -0.31128363813E-01  0.15748620890E-02  0.10263775745E+00  0.51100000000E-03 0.  1.
</event>
<event>
 8    1  0.1109553E+005  0.1043930E+01  0.7957747E-01            NaN
         13   -1    0    0    0    0  0.00000000000E+00  0.00000000000E+00  0.74505805969E-08  0.10566000000E+00  0.10566000000E+00 0. -1.
     999900   -1    0    0    0    0 -0.00000000000E+00 -0.00000000000E+00 -0.74505805969E-08  0.93827000000E+00  0.93827000000E+00 0.  1.
     999902    2    1    2    0    0 -0.76055054775E-02 -0.11272496950E-02 -0.22326256493E-01  0.10203169499E+01  0.10200436766E+01 0.  0.
     999903    2    3    3    0    0  0.28755589808E-01 -0.10677151412E+00  0.64847958879E-01  0.12897964918E+00  0.14263658670E-01 0.  0.
         14    1    1    2    0    0  0.76055054775E-02  0.11272496950E-02  0.22326256493E-01  0.23613050088E-01  0.00000000000E+00 0. -1.
     999901    1    3    3    0    0 -0.36361095285E-01  0.10564426442E+00 -0.87174215372E-01  0.89133730074E+00  0.88000000000E+00 0. -1.
        -11    1    4    4    0    0  0.27412200570E-02 -0.22180239900E-02  0.35059448235E-02  0.49986686154E-02  0.51100000000E-03 0. -1.
         11    1    4    4    0    0  0.26014369751E-01 -0.10455349013E+00  0.61342014056E-01  0.12398098056E+00  0.51100000000E-03 0.  1.
</event>
<event>
 8    1  0.1109553E+005  0.1043930E+01  0.7957747E-01            NaN
         13   -1    0    0    0    0  0.00000000000E+00  0.00000000000E+00  0.74505805969E-08  0.10566000000E+00  0.10566000000E+00 0. -1.
     999900   -1    0    0    0    0 -0.00000000000E+00 -0.00000000000E+00 -0.74505805969E-08  0.93827000000E+00  0.93827000000E+00 0. -1.
     999902    2    1    2    0    0  0.14915425572E-01  0.18421695379E-01 -0.91502134993E-03  0.10202094173E+01  0.10199336199E+01 0.  0.
     999903    2    3    3    0    0 -0.28720753034E-02 -0.11596150267E+00  0.51002004881E-01  0.12831782257E+00  0.20222269103E-01 0.  0.
         14    1    1    2    0    0 -0.14915425572E-01 -0.18421695379E-01  0.91502134993E-03  0.23720582723E-01  0.00000000000E+00 0. -1.
     999901    1    3    3    0    0  0.17787500876E-01  0.13438319805E+00 -0.51917026230E-01  0.89189159471E+00  0.88000000000E+00 0. -1.
        -11    1    4    4    0    0 -0.58130298508E-02 -0.10493750455E+00  0.51172654671E-01  0.11689556400E+00  0.51100000000E-03 0. -1.
         11    1    4    4    0    0  0.29409545474E-02 -0.11023998124E-01 -0.17064979094E-03  0.11422258561E-01  0.51100000000E-03 0.  1.
</event>
<event>
 8    1  0.1109553E+005  0.1043930E+01  0.7957747E-01            NaN
         13   -1    0    0    0    0  0.00000000000E+00  0.00000000000E+00  0.74505805969E-08  0.10566000000E+00  0.10566000000E+00 0.  1.
     999900   -1    0    0    0    0 -0.00000000000E+00 -0.00000000000E+00 -0.74505805969E-08  0.93827000000E+00  0.93827000000E+00 0. -1.
     999902    2    1    2    0    0 -0.36426459078E-02 -0.22275242441E-01  0.57752692162E-02  0.10206317376E+01  0.10203657848E+01 0.  0.
     999903    2    3    3    0    0 -0.38579491395E-01 -0.62005215631E-01  0.10973384509E+00  0.13293446973E+00  0.17234632653E-01 0.  0.
         14    1    1    2    0    0  0.36426459078E-02  0.22275242441E-01 -0.57752692162E-02  0.23298262372E-01  0.00000000000E+00 0.  1.
     999901    1    3    3    0    0  0.34936845487E-01  0.39729973190E-01 -0.10395857587E+00  0.88769726790E+00  0.88000000000E+00 0. -1.
        -11    1    4    4    0    0 -0.22098648229E-01 -0.41110040985E-01  0.55479896221E-01  0.72502867040E-01  0.51100000000E-03 0.  1.
         11    1    4    4    0    0 -0.16480843166E-01 -0.20895174646E-01  0.54253948865E-01  0.60431602687E-01  0.51100000000E-03 0. -1.
</event>
<event>
 8    1  0.1109553E+005  0.1043930E+01  0.7957747E-01            NaN
         13   -1    0    0    0    0  0.00000000000E+00  0.00000000000E+00  0.74505805969E-08  0.10566000000E+00  0.10566000000E+00 0.  1.
     999900   -1    0    0    0    0 -0.00000000000E+00 -0.00000000000E+00 -0.74505805969E-08  0.93827000000E+00  0.93827000000E+00 0. -1.
     999902    2    1    2    0    0  0.33688407969E-02  0.22588957128E-01  0.74400031923E-02  0.10199099309E+01  0.10196270413E+01 0.  0.
     999903    2    3    3    0    0  0.37231177878E-01  0.98578062511E-01  0.78448024892E-01  0.13313874217E+00  0.21634163752E-01 0.  0.
         14    1    1    2    0    0 -0.33688407969E-02 -0.22588957128E-01 -0.74400031923E-02  0.24020069108E-01  0.00000000000E+00 0. -1.
     999901    1    3    3    0    0 -0.33862337081E-01 -0.75989105383E-01 -0.71008021700E-01  0.88677118873E+00  0.88000000000E+00 0. -1.
        -11    1    4    4    0    0  0.16191286381E-01  0.46309506353E-01  0.23363808305E-01  0.54340195002E-01  0.51100000000E-03 0.  1.
         11    1    4    4    0    0  0.21039891497E-01  0.52268556158E-01  0.55084216587E-01  0.78798547163E-01  0.51100000000E-03 0. -1.
</event>
<event>
 8    1  0.1109553E+005  0.1043930E+01  0.7957747E-01            NaN
         13   -1    0    0    0    0  0.00000000000E+00  0.00000000000E+00  0.74505805969E-08  0.10566000000E+00  0.10566000000E+00 0.  1.
     999900   -1    0    0    0    0 -0.00000000000E+00 -0.00000000000E+00 -0.74505805969E-08  0.93827000000E+00  0.93827000000E+00 0.  1.
     999902    2    1    2    0    0 -0.22146397630E-01  0.86678143674E-02  0.10096301826E-01  0.10180934127E+01  0.10177655269E+01 0.  0.
     999903    2    3    3    0    0  0.97661700620E-01 -0.68940508412E-01  0.35193035872E-01  0.12623755088E+00  0.20168490506E-01 0.  0.
         14    1    1    2    0    0  0.22146397630E-01 -0.86678143674E-02 -0.10096301826E-01  0.25836587322E-01  0.00000000000E+00 0.  1.
     999901    1    3    3    0    0 -0.11980809825E+00  0.77608322779E-01 -0.25096734045E-01  0.89185586180E+00  0.88000000000E+00 0.  1.
        -11    1    4    4    0    0  0.92663559255E-01 -0.65263302413E-01  0.37814112869E-01  0.11948222507E+00  0.51100000000E-03 0. -1.
         11    1    4    4    0    0  0.49981413654E-02 -0.36772059985E-02 -0.26210769973E-02  0.67553258019E-02  0.51100000000E-03 0.  1.
</event>
<event>
 8    1  0.1109553E+005  0.1043930E+01  0.7957747E-01            NaN
         13   -1    0    0    0    0  0.00000000000E+00  0.00000000000E+00  0.74505805969E-08  0.10566000000E+00  0.10566000000E+00 0.  1.
     999900   -1    0    0    0    0 -0.00000000000E+00 -0.00000000000E+00 -0.74505805969E-08  0.93827000000E+00  0.93827000000E+00 0. -1.
     999902    2    1    2    0    0  0.20751549265E-01 -0.16385592124E-02  0.11327987040E-01  0.10202311611E+01  0.10199558751E+01 0.  0.
     999903    2    3    3    0    0  0.12619449544E+00  0.29797797580E-01  0.24453222747E-01  0.13328204690E+00  0.18793203637E-01 0.  0.
         14    1    1    2    0    0 -0.20751549265E-01  0.16385592124E-02 -0.11327987040E-01  0.23698838865E-01  0.00000000000E+00 0. -1.
     999901    1    3    3    0    0 -0.10544294618E+00 -0.31436356792E-01 -0.13125235707E-01  0.88694911423E+00  0.88000000000E+00 0. -1.
        -11    1    4    4    0    0  0.55390530932E-01  0.37663527115E-02  0.83842381275E-02  0.56150270700E-01  0.51100000000E-03 0.  1.
         11    1    4    4    0    0  0.70803964510E-01  0.26031444868E-01  0.16068984620E-01  0.77131776202E-01  0.51100000000E-03 0. -1.
</event>
<event>
 8    1  0.1109553E+005  0.1043930E+01  0.7957747E-01            NaN
         13   -1    0    0    0    0  0.00000000000E+00  0.00000000000E+00  0.74505805969E-08  0.10566000000E+00  0.10566000000E+00 0.  1.
     999900   -1    0    0    0    0 -0.00000000000E+00 -0.00000000000E+00 -0.74505805969E-08  0.93827000000E+00  0.93827000000E+00 0.  1.
     999902    2    1    2    0    0 -0.19552353888E-01  0.12487623038E-01  0.40837413541E-02  0.10203734252E+01  0.10201014727E+01 0.  0.
     999903    2    3    3    0    0 -0.25443914944E-01  0.28898755316E-01 -0.12350970559E+00  0.13100054310E+00  0.20590387334E-01 0.  0.
         14    1    1    2    0    0  0.19552353888E-01 -0.12487623038E-01 -0.40837413541E-02  0.23556574776E-01  0.00000000000E+00 0. -1.
     999901    1    3    3    0    0  0.58915610558E-02 -0.16411132278E-01  0.12759344695E+00  0.88937288212E+00  0.88000000000E+00 0. -1.
        -11    1    4    4    0    0  0.11549633789E-02  0.86895920448E-02 -0.42029309421E-01  0.42936778194E-01  0.51100000000E-03 0.  1.
         11    1    4    4    0    0 -0.26598878323E-01  0.20209163271E-01 -0.81480396171E-01  0.88063764906E-01  0.51100000000E-03 0. -1.
</event>
<event>
 8    1  0.1109553E+005  0.1043930E+01  0.7957747E-01            NaN
         13   -1    0    0    0    0  0.00000000000E+00  0.00000000000E+00  0.74505805969E-08  0.10566000000E+00  0.10566000000E+00 0. -1.
     999900   -1    0    0    0    0 -0.00000000000E+00 -0.00000000000E+00 -0.74505805969E-08  0.93827000000E+00  0.93827000000E+00 0. -1.
     999902    2    1    2    0    0 -0.10959499250E-01  0.13395138151E-01  0.11506972329E-01  0.10231465748E+01  0.10229354637E+01 0.  0.
     999903    2    3    3    0    0  0.71127065572E-01  0.26159574229E-01 -0.10585611810E+00  0.13147666396E+00  0.18363350618E-01 0.  0.
         14    1    1    2    0    0  0.10959499250E-01 -0.13395138151E-01 -0.11506972329E-01  0.20783425176E-01  0.00000000000E+00 0.  1.
     999901    1    3    3    0    0 -0.82086564822E-01 -0.12764436079E-01  0.11736309042E+00  0.89166991087E+00  0.88000000000E+00 0.  1.
        -11    1    4    4    0    0  0.62164322916E-01  0.17605813322E-01 -0.80262213614E-01  0.10303713778E+00  0.51100000000E-03 0. -1.
         11    1    4    4    0    0  0.89627426557E-02  0.85537609068E-02 -0.25593904482E-01  0.28439526178E-01  0.51100000000E-03 0.  1.
</event>
<event>
 8    1  0.1109553E+005  0.1043930E+01  0.7957747E-01            NaN
         13   -1    0    0    0    0  0.00000000000E+00  0.00000000000E+00  0.74505805969E-08  0.10566000000E+00  0.10566000000E+00 0.  1.
     999900   -1    0    0    0    0 -0.00000000000E+00 -0.00000000000E+00 -0.74505805969E-08  0.93827000000E+00  0.93827000000E+00 0. -1.
     999902    2    1    2    0    0  0.16114216740E-01  0.15580181370E-01  0.82529649607E-02  0.10200444089E+01  0.10197647153E+01 0.  0.
     999903    2    3    3    0    0 -0.12659132399E-01  0.12350390931E+00  0.42037700921E-01  0.13234127998E+00  0.18264086081E-01 0.  0.
         14    1    1    2    0    0 -0.16114216740E-01 -0.15580181370E-01 -0.82529649607E-02  0.23885591123E-01  0.00000000000E+00 0. -1.
     999901    1    3    3    0    0  0.28773349139E-01 -0.10792372794E+00 -0.33784735960E-01  0.88770312890E+00  0.88000000000E+00 0. -1.
        -11    1    4    4    0    0 -0.92550361724E-03  0.67352517422E-01  0.15434742520E-01  0.69106516029E-01  0.51100000000E-03 0. -1.
         11    1    4    4    0    0 -0.11733628782E-01  0.56151391885E-01  0.26602958401E-01  0.63234763949E-01  0.51100000000E-03 0.  1.
</event>
<event>
 8    1  0.1109553E+005  0.1043930E+01  0.7957747E-01            NaN
         13   -1    0    0    0    0  0.00000000000E+00  0.00000000000E+00  0.74505805969E-08  0.10566000000E+00  0.10566000000E+00 0. -1.
     999900   -1    0    0    0    0 -0.00000000000E+00 -0.00000000000E+00 -0.74505805969E-08  0.93827000000E+00  0.93827000000E+00 0.  1.
     999902    2    1    2    0    0  0.14559036459E-01 -0.18983095125E-01 -0.29404566398E-02  0.10198266864E+01  0.10195418091E+01 0.  0.
     999903    2    3    3    0    0  0.75536259392E-02 -0.12733614156E+00 -0.30716695932E-01  0.13271847542E+00  0.19978190503E-01 0.  0.
         14    1    1    2    0    0 -0.14559036459E-01  0.18983095125E-01  0.29404566398E-02  0.24103313640E-01  0.00000000000E+00 0. -1.
     999901    1    3    3    0    0  0.70054105200E-02  0.10835304644E+00  0.27776239293E-01  0.88710821094E+00  0.88000000000E+00 0.  1.
        -11    1    4    4    0    0 -0.40962754500E-02 -0.56537267467E-01 -0.68482444788E-02  0.57099926958E-01  0.51100000000E-03 0.  1.
         11    1    4    4    0    0  0.11649901389E-01 -0.70798874096E-01 -0.23868451454E-01  0.75618548462E-01  0.51100000000E-03 0. -1.
</event>
<event>
 8    1  0.1109553E+005  0.1043930E+01  0.7957747E-01            NaN
         13   -1    0    0    0    0  0.00000000000E+00  0.00000000000E+00  0.74505805969E-08  0.10566000000E+00  0.10566000000E+00 0.  1.
     999900   -1    0    0    0    0 -0.00000000000E+00 -0.00000000000E+00 -0.74505805969E-08  0.93827000000E+00  0.93827000000E+00 0. -1.
     999902    2    1    2    0    0 -0.79220172014E-02  0.60083042443E-03 -0.23500864058E-01  0.10191225421E+01  0.10188205661E+01 0.  0.
     999903    2    3    3    0    0 -0.11574832947E+00  0.54614792661E-01  0.13277804944E-01  0.13013621366E+00  0.19459770049E-01 0.  0.
         14    1    1    2    0    0  0.79220172014E-02 -0.60083042443E-03  0.23500864058E-01  0.24807457854E-01  0.00000000000E+00 0.  1.
     999901    1    3    3    0    0  0.10782631227E+00 -0.54013962237E-01 -0.36778669001E-01  0.88898632848E+00  0.88000000000E+00 0. -1.
        -11    1    4    4    0    0 -0.98472639166E-01  0.41402513276E-01  0.16676304749E-01  0.10811747792E+00  0.51100000000E-03 0.  1.
         11    1    4    4    0    0 -0.17275690303E-01  0.13212279385E-01 -0.33984998056E-02  0.22018735748E-01  0.51100000000E-03 0. -1.
</event>
<event>
 8    1  0.1109553E+005  0.1043930E+01  0.7957747E-01            NaN
         13   -1    0    0    0    0  0.00000000000E+00  0.00000000000E+00  0.74505805969E-08  0.10566000000E+00  0.10566000000E+00 0.  1.
     999900   -1    0    0    0    0 -0.00000000000E+00 -0.00000000000E+00 -0.74505805969E-08  0.93827000000E+00  0.93827000000E+00 0.  1.
     999902    2    1    2    0    0 -0.87890447741E-02  0.53664835132E-02 -0.21605062011E-01  0.10199962339E+01  0.10197153976E+01 0.  0.
     999903    2    3    3    0    0  0.54106697196E-02  0.66097277259E-01 -0.11353893545E+00  0.13301162399E+00  0.20071792262E-01 0.  0.
         14    1    1    2    0    0  0.87890447741E-02 -0.53664835132E-02  0.21605062011E-01  0.23933766060E-01  0.00000000000E+00 0.  1.
     999901    1    3    3    0    0 -0.14199714494E-01 -0.60730793746E-01  0.91933873444E-01  0.88698460995E+00  0.88000000000E+00 0. -1.
        -11    1    4    4    0    0 -0.76661350036E-02  0.25847563145E-01 -0.44331820140E-01  0.51888703436E-01  0.51100000000E-03 0. -1.
         11    1    4    4    0    0  0.13076804723E-01  0.40249714114E-01 -0.69207115315E-01  0.81122920554E-01  0.51100000000E-03 0.  1.
</event>
<event>
 8    1  0.1109553E+005  0.1043930E+01  0.7957747E-01            NaN
         13   -1    0    0    0    0  0.00000000000E+00  0.00000000000E+00  0.74505805969E-08  0.10566000000E+00  0.10566000000E+00 0.  1.
     999900   -1    0    0    0    0 -0.00000000000E+00 -0.00000000000E+00 -0.74505805969E-08  0.93827000000E+00  0.93827000000E+00 0. -1.
     999902    2    1    2    0    0  0.38364719649E-02  0.24187384127E-02  0.10397378267E-01  0.10325865311E+01  0.10325242224E+01 0.  0.
     999903    2    3    3    0    0  0.88468777048E-01 -0.71015217800E-01  0.83865103145E-01  0.14244458756E+00  0.19677889322E-01 0.  0.
         14    1    1    2    0    0 -0.38364719649E-02 -0.24187384127E-02 -0.10397378267E-01  0.11343468935E-01  0.00000000000E+00 0.  1.
     999901    1    3    3    0    0 -0.84632305083E-01  0.73433956212E-01 -0.73467724879E-01  0.89014194351E+00  0.88000000000E+00 0. -1.
        -11    1    4    4    0    0  0.42308512201E-01 -0.26950064298E-01  0.27015248382E-01  0.56977196636E-01  0.51100000000E-03 0. -1.
         11    1    4    4    0    0  0.46160264847E-01 -0.44065153501E-01  0.56849854763E-01  0.85467390924E-01  0.51100000000E-03 0.  1.
</event>
<event>
 8    1  0.1109553E+005  0.1043930E+01  0.7957747E-01            NaN
         13   -1    0    0    0    0  0.00000000000E+00  0.00000000000E+00  0.74505805969E-08  0.10566000000E+00  0.10566000000E+00 0. -1.
     999900   -1    0    0    0    0 -0.00000000000E+00 -0.00000000000E+00 -0.74505805969E-08  0.93827000000E+00  0.93827000000E+00 0. -1.
     999902    2    1    2    0    0 -0.23033589432E-01  0.35084762022E-02  0.37618101265E-02  0.10203290072E+01  0.10200560161E+01 0.  0.
     999903    2    3    3    0    0 -0.51286918807E-03 -0.95453946985E-01 -0.85910512528E-01  0.12996847935E+00  0.19986756399E-01 0.  0.
         14    1    1    2    0    0  0.23033589432E-01 -0.35084762022E-02 -0.37618101265E-02  0.23600992835E-01  0.00000000000E+00 0.  1.
     999901    1    3    3    0    0 -0.22520720244E-01  0.98962423187E-01  0.89672322655E-01  0.89036052782E+00  0.88000000000E+00 0.  1.
        -11    1    4    4    0    0  0.20960196452E-02 -0.19945026409E-01 -0.29510252072E-01  0.35683518257E-01  0.51100000000E-03 0. -1.
         11    1    4    4    0    0 -0.26088888333E-02 -0.75508920576E-01 -0.56400260456E-01  0.94284961091E-01  0.51100000000E-03 0.  1.
</event>
<event>
 8    1  0.1109553E+005  0.1043930E+01  0.7957747E-01            NaN
         13   -1    0    0    0    0  0.00000000000E+00  0.00000000000E+00  0.74505805969E-08  0.10566000000E+00  0.10566000000E+00 0. -1.
     999900   -1    0    0    0    0 -0.00000000000E+00 -0.00000000000E+00 -0.74505805969E-08  0.93827000000E+00  0.93827000000E+00 0. -1.
     999902    2    1    2    0    0 -0.13369389203E-01  0.65790758488E-02  0.18268515400E-01  0.10203553640E+01  0.10200829895E+01 0.  0.
     999903    2    3    3    0    0  0.68465303492E-01  0.13037365366E-01 -0.10543971094E+00  0.12791917487E+00  0.19705633189E-01 0.  0.
         14    1    1    2    0    0  0.13369389203E-01 -0.65790758488E-02 -0.18268515400E-01  0.23574635980E-01  0.00000000000E+00 0.  1.
     999901    1    3    3    0    0 -0.81834692694E-01 -0.64582895174E-02  0.12370822634E+00  0.89243618915E+00  0.88000000000E+00 0.  1.
        -11    1    4    4    0    0  0.40552572402E-01  0.11819399655E-02 -0.47096507460E-01  0.62163093926E-01  0.51100000000E-03 0. -1.
         11    1    4    4    0    0  0.27912731089E-01  0.11855425401E-01 -0.58343203481E-01  0.65756080949E-01  0.51100000000E-03 0.  1.
</event>
<event>
 8    1  0.1109553E+005  0.1043930E+01  0.7957747E-01            NaN
         13   -1    0    0    0    0  0.00000000000E+00  0.00000000000E+00  0.74505805969E-08  0.10566000000E+00  0.10566000000E+00 0. -1.
     999900   -1    0    0    0    0 -0.00000000000E+00 -0.00000000000E+00 -0.74505805969E-08  0.93827000000E+00  0.93827000000E+00 0. -1.
     999902    2    1    2    0    0  0.14893125216E-01 -0.27527210243E-02  0.17221920958E-01  0.10209958069E+01  0.10207381939E+01 0.  0.
     999903    2    3    3    0    0 -0.46734932501E-01  0.57551107232E-01 -0.10258960274E+00  0.12870136535E+00  0.23305170959E-01 0.  0.
         14    1    1    2    0    0 -0.14893125216E-01  0.27527210243E-02 -0.17221920958E-01  0.22934193102E-01  0.00000000000E+00 0.  1.
     999901    1    3    3    0    0  0.61628057717E-01 -0.60303828257E-01  0.11981152370E+00  0.89229444154E+00  0.88000000000E+00 0.  1.
        -11    1    4    4    0    0 -0.39797494400E-01  0.50964041478E-01 -0.72617727033E-01  0.97235638964E-01  0.51100000000E-03 0.  1.
         11    1    4    4    0    0 -0.69374381012E-02  0.65870657540E-02 -0.29971875710E-01  0.31465726390E-01  0.51100000000E-03 0. -1.
</event>
<event>
 8    1  0.1109553E+005  0.1043930E+01  0.7957747E-01            NaN
         13   -1    0    0    0    0  0.00000000000E+00  0.00000000000E+00  0.74505805969E-08  0.10566000000E+00  0.10566000000E+00 0. -1.
     999900   -1    0    0    0    0 -0.00000000000E+00 -0.00000000000E+00 -0.74505805969E-08  0.93827000000E+00  0.93827000000E+00 0.  1.
     999902    2    1    2    0    0 -0.22831711870E-01  0.37637079606E-02 -0.17918268408E-02  0.10207208809E+01  0.10204569827E+01 0.  0.
     999903    2    3    3    0    0  0.85047736541E-03  0.10804502675E+00 -0.72717604040E-01  0.13141446276E+00  0.17534536426E-01 0.  0.
         14    1    1    2    0    0  0.22831711870E-01 -0.37637079606E-02  0.17918268408E-02  0.23209119069E-01  0.00000000000E+00 0. -1.
     999901    1    3    3    0    0 -0.23682189236E-01 -0.10428131879E+00  0.70925777199E-01  0.88930641817E+00  0.88000000000E+00 0. -1.
        -11    1    4    4    0    0  0.78124083497E-02  0.75056348626E-01 -0.45853815022E-01  0.88302449946E-01  0.51100000000E-03 0.  1.
         11    1    4    4    0    0 -0.69619309843E-02  0.32988678121E-01 -0.26863789017E-01  0.43112012811E-01  0.51100000000E-03 0. -1.
</event>
<event>
 8    1  0.1109553E+005  0.1043930E+01  0.7957747E-01            NaN
         13   -1    0    0    0    0  0.00000000000E+00  0.00000000000E+00  0.74505805969E-08  0.10566000000E+00  0.10566000000E+00 0. -1.
     999900   -1    0    0    0    0 -0.00000000000E+00 -0.00000000000E+00 -0.74505805969E-08  0.93827000000E+00  0.93827000000E+00 0. -1.
     999902    2    1    2    0    0 -0.10933695924E-01 -0.25197885088E-01 -0.18699346380E-02  0.10163986402E+01  0.10160256985E+01 0.  0.
     999903    2    3    3    0    0  0.69246672030E-01  0.99530454809E-01  0.14265502750E-01  0.12384813597E+00  0.20819298564E-01 0.  0.
         14    1    1    2    0    0  0.10933695924E-01  0.25197885088E-01  0.18699346380E-02  0.27531359847E-01  0.00000000000E+00 0. -1.
     999901    1    3    3    0    0 -0.80180367954E-01 -0.12472833990E+00 -0.16135437388E-01  0.89255050418E+00  0.88000000000E+00 0.  1.
        -11    1    4    4    0    0  0.32517102964E-01  0.46590099333E-01  0.17143692786E-01  0.59347844648E-01  0.51100000000E-03 0.  1.
         11    1    4    4    0    0  0.36729569066E-01  0.52940355476E-01 -0.28781900353E-02  0.64500291322E-01  0.51100000000E-03 0. -1.
</event>
<event>
 8    1  0.1109553E+005  0.1043930E+01  0.7957747E-01            NaN
         13   -1    0    0    0    0  0.00000000000E+00  0.00000000000E+00  0.74505805969E-08  0.10566000000E+00  0.10566000000E+00 0.  1.
     999900   -1    0    0    0    0 -0.00000000000E+00 -0.00000000000E+00 -0.74505805969E-08  0.93827000000E+00  0.93827000000E+00 0.  1.
     999902    2    1    2    0    0 -0.27222966757E-02  0.91034246489E-02  0.22503610629E-01  0.10195026438E+01  0.10192099612E+01 0.  0.
     999903    2    3    3    0    0 -0.10570189289E+00  0.50300851794E-01  0.56997845155E-01  0.13186990586E+00  0.20924910239E-01 0.  0.
         14    1    1    2    0    0  0.27222966757E-02 -0.91034246489E-02 -0.22503610629E-01  0.24427356199E-01  0.00000000000E+00 0. -1.
     999901    1    3    3    0    0  0.10297959622E+00 -0.41197427145E-01 -0.34494234526E-01  0.88763273794E+00  0.88000000000E+00 0.  1.
        -11    1    4    4    0    0 -0.80118632657E-01  0.46764822459E-01  0.40538268771E-01  0.10124009223E+00  0.51100000000E-03 0.  1.
         11    1    4    4    0    0 -0.25583260233E-01  0.35360293350E-02  0.16459576384E-01  0.30629813636E-01  0.51100000000E-03 0. -1.
</event>
<event>
 8    1  0.1109553E+005  0.1043930E+01  0.7957747E-01            NaN
         13   -1    0    0    0    0  0.00000000000E+00  0.00000000000E+00  0.74505805969E-08  0.10566000000E+00  0.10566000000E+00 0.  1.
     999900   -1    0    0    0    0 -0.00000000000E+00 -0.00000000000E+00 -0.74505805969E-08  0.93827000000E+00  0.93827000000E+00 0. -1.
     999902    2    1    2    0    0 -0.16636882480E-01  0.26327536367E-02 -0.16835075226E-01  0.10201153615E+01  0.10198373467E+01 0.  0.
     999903    2    3    3    0    0  0.61782872111E-01  0.35219826053E-01 -0.10953987407E+00  0.13118018109E+00  0.12316511863E-01 0.  0.
         14    1    1    2    0    0  0.16636882480E-01 -0.26327536367E-02  0.16835075226E-01  0.23814638528E-01  0.00000000000E+00 0.  1.
     999901    1    3    3    0    0 -0.78419754591E-01 -0.32587072416E-01  0.92704798847E-01  0.88893518039E+00  0.88000000000E+00 0.  1.
        -11    1    4    4    0    0  0.87215265762E-02  0.10417282155E-01 -0.21256278270E-01  0.25232425175E-01  0.51100000000E-03 0.  1.
         11    1    4    4    0    0  0.53061345535E-01  0.24802543898E-01 -0.88283595803E-01  0.10594775591E+00  0.51100000000E-03 0. -1.
</event>
<event>
 8    1  0.1109553E+005  0.1043930E+01  0.7957747E-01            NaN
         13   -1    0    0    0    0  0.00000000000E+00  0.00000000000E+00  0.74505805969E-08  0.10566000000E+00  0.10566000000E+00 0.  1.
     999900   -1    0    0    0    0 -0.00000000000E+00 -0.00000000000E+00 -0.74505805969E-08  0.93827000000E+00  0.93827000000E+00 0.  1.
     999902    2    1    2    0    0  0.15354357465E-01 -0.15716062471E-01 -0.22860482071E-02  0.10218398002E+01  0.10216009986E+01 0.  0.
     999903    2    3    3    0    0  0.47097591559E-03  0.10319936755E+00  0.76818109066E-01  0.13020093703E+00  0.20023257521E-01 0.  0.
         14    1    1    2    0    0 -0.15354357465E-01  0.15716062471E-01  0.22860482071E-02  0.22090199845E-01  0.00000000000E+00 0.  1.
     999901    1    3    3    0    0  0.14883381550E-01 -0.11891543002E+00 -0.79104157273E-01  0.89163886313E+00  0.88000000000E+00 0.  1.
        -11    1    4    4    0    0 -0.58276695710E-02  0.61291380433E-01  0.35805270878E-01  0.71224108219E-01  0.51100000000E-03 0.  1.
         11    1    4    4    0    0  0.62986454866E-02  0.41907987114E-01  0.41012838189E-01  0.58976828808E-01  0.51100000000E-03 0. -1.
</event>
<event>
 8    1  0.1109553E+005  0.1043930E+01  0.7957747E-01            NaN
         13   -1    0    0    0    0  0.00000000000E+00  0.00000000000E+00  0.74505805969E-08  0.10566000000E+00  0.10566000000E+00 0. -1.
     999900   -1    0    0    0    0 -0.00000000000E+00 -0.00000000000E+00 -0.74505805969E-08  0.93827000000E+00  0.93827000000E+00 0.  1.
     999902    2    1    2    0    0  0.14410244666E-01  0.15789663394E-01 -0.10210812037E-01  0.10202397213E+01  0.10199646365E+01 0.  0.
     999903    2    3    3    0    0 -0.39445964164E-01  0.86003404043E-01 -0.90011794361E-01  0.13220894630E+00  0.20603707472E-01 0.  0.
         14    1    1    2    0    0 -0.14410244666E-01 -0.15789663394E-01  0.10210812037E-01  0.23690278679E-01  0.00000000000E+00 0. -1.
     999901    1    3    3    0    0  0.53856208831E-01 -0.70213740648E-01  0.79800982324E-01  0.88803077502E+00  0.88000000000E+00 0. -1.
        -11    1    4    4    0    0 -0.36970826002E-01  0.60790571504E-01 -0.71128649179E-01  0.10060756142E+00  0.51100000000E-03 0.  1.
         11    1    4    4    0    0 -0.24751381622E-02  0.25212832539E-01 -0.18883145182E-01  0.31601384883E-01  0.51100000000E-03 0. -1.
</event>
<event>
 8    1  0.1109553E+005  0.1043930E+01  0.7957747E-01            NaN
         13   -1    0    0    0    0  0.00000000000E+00  0.00000000000E+00  0.74505805969E-08  0.10566000000E+00  0.10566000000E+00 0. -1.
     999900   -1    0    0    0    0 -0.00000000000E+00 -0.00000000000E+00 -0.74505805969E-08  0.93827000000E+00  0.93827000000E+00 0. -1.
     999902    2    1    2    0    0 -0.15375235396E-01  0.17353084880E-01 -0.17659915032E-02  0.10206782013E+01  0.10204133204E+01 0.  0.
     999903    2    3    3    0    0 -0.76083083777E-01 -0.32914746282E-01 -0.10035820140E+00  0.13167160874E+00  0.19840055446E-01 0.  0.
         14    1    1    2    0    0  0.15375235396E-01 -0.17353084880E-01  0.17659915032E-02  0.23251798734E-01  0.00000000000E+00 0.  1.
     999901    1    3    3    0    0  0.60707848381E-01  0.50267831163E-01  0.98592209896E-01  0.88900659253E+00  0.88000000000E+00 0.  1.
        -11    1    4    4    0    0 -0.22683174388E-01 -0.19977933979E-01 -0.33258422334E-01  0.44944721865E-01  0.51100000000E-03 0. -1.
         11    1    4    4    0    0 -0.53399909389E-01 -0.12936812303E-01 -0.67099779065E-01  0.86726886874E-01  0.51100000000E-03 0.  1.
</event>
<event>
 8    1  0.1109553E+005  0.1043930E+01  0.7957747E-01            NaN
         13   -1    0    0    0    0  0.00000000000E+00  0.00000000000E+00  0.74505805969E-08  0.10566000000E+00  0.10566000000E+00 0.  1.
     999900   -1    0    0    0    0 -0.00000000000E+00 -0.00000000000E+00 -0.74505805969E-08  0.93827000000E+00  0.93827000000E+00 0. -1.
     999902    2    1    2    0    0 -0.76255166847E-02 -0.99931793291E-02  0.13372756115E-01  0.10255767239E+01  0.10254124896E+01 0.  0.
     999903    2    3    3    0    0 -0.14385889871E-01  0.12949594492E+00  0.26483686936E-01  0.13446796794E+00  0.20102118018E-01 0.  0.
         14    1    1    2    0    0  0.76255166847E-02  0.99931793291E-02 -0.13372756115E-01  0.18353276109E-01  0.00000000000E+00 0. -1.
     999901    1    3    3    0    0  0.67603731866E-02 -0.13948912425E+00 -0.13110930820E-01  0.89110875595E+00  0.88000000000E+00 0. -1.
        -11    1    4    4    0    0 -0.97991387166E-02  0.12051602246E+00  0.28366050533E-01  0.12419753916E+00  0.51100000000E-03 0. -1.
         11    1    4    4    0    0 -0.45867511547E-02  0.89799224581E-02 -0.18823635972E-02  0.10270428775E-01  0.51100000000E-03 0.  1.
</event>
<event>
 8    1  0.1109553E+005  0.1043930E+01  0.7957747E-01            NaN
         13   -1    0    0    0    0  0.00000000000E+00  0.00000000000E+00  0.74505805969E-08  0.10566000000E+00  0.10566000000E+00 0. -1.
     999900   -1    0    0    0    0 -0.00000000000E+00 -0.00000000000E+00 -0.74505805969E-08  0.93827000000E+00  0.93827000000E+00 0.  1.
     999902    2    1    2    0    0  0.11959494299E-01  0.19830165854E-01 -0.70526803439E-02  0.10197224540E+01  0.10194350779E+01 0.  0.
     999903    2    3    3    0    0 -0.73668441080E-01 -0.79550476107E-01  0.63445640954E-01  0.12720989467E+00  0.20042217594E-01 0.  0.
         14    1    1    2    0    0 -0.11959494299E-01 -0.19830165854E-01  0.70526803439E-02  0.24207545967E-01  0.00000000000E+00 0. -1.
     999901    1    3    3    0    0  0.85627935380E-01  0.99380641961E-01 -0.70498321298E-01  0.89251255936E+00  0.88000000000E+00 0.  1.
        -11    1    4    4    0    0 -0.41235263532E-01 -0.51265154212E-01  0.28200361637E-01  0.71582012492E-01  0.51100000000E-03 0.  1.
         11    1    4    4    0    0 -0.32433177548E-01 -0.28285321895E-01  0.35245279317E-01  0.55627882179E-01  0.51100000000E-03 0. -1.
</event>
<event>
 8    1  0.1109553E+005  0.1043930E+01  0.7957747E-01            NaN
         13   -1    0    0    0    0  0.00000000000E+00  0.00000000000E+00  0.74505805969E-08  0.10566000000E+00  0.10566000000E+00 0. -1.
     999900   -1    0    0    0    0 -0.00000000000E+00 -0.00000000000E+00 -0.74505805969E-08  0.93827000000E+00  0.93827000000E+00 0.  1.
     999902    2    1    2    0    0 -0.92731532641E-02  0.16649235098E-01  0.16420723438E-01  0.10187739161E+01  0.10184632853E+01 0.  0.
     999903    2    3    3    0    0  0.59730320034E-01 -0.29653139479E-01 -0.10559236862E+00  0.12647767386E+00  0.19995846104E-01 0.  0.
         14    1    1    2    0    0  0.92731532641E-02 -0.16649235098E-01 -0.16420723438E-01  0.25156083937E-01  0.00000000000E+00 0.  1.
     999901    1    3    3    0    0 -0.69003473298E-01  0.46302374578E-01  0.12201309206E+00  0.89229624220E+00  0.88000000000E+00 0. -1.
        -11    1    4    4    0    0  0.32379320055E-01 -0.57328873544E-02 -0.43486848773E-01  0.54522046016E-01  0.51100000000E-03 0.  1.
         11    1    4    4    0    0  0.27350999979E-01 -0.23920252125E-01 -0.62105519848E-01  0.71955627842E-01  0.51100000000E-03 0. -1.
</event>
<event>
 8    1  0.1109553E+005  0.1043930E+01  0.7957747E-01            NaN
         13   -1    0    0    0    0  0.00000000000E+00  0.00000000000E+00  0.74505805969E-08  0.10566000000E+00  0.10566000000E+00 0. -1.
     999900   -1    0    0    0    0 -0.00000000000E+00 -0.00000000000E+00 -0.74505805969E-08  0.93827000000E+00  0.93827000000E+00 0.  1.
     999902    2    1    2    0    0 -0.73452503706E-02 -0.21726236275E-01 -0.70482354034E-02  0.10199370913E+01  0.10196548487E+01 0.  0.
     999903    2    3    3    0    0  0.68422519367E-01  0.96756593690E-01 -0.47076135227E-01  0.12787141620E+00  0.95633149833E-02 0.  0.
         14    1    1    2    0    0  0.73452503706E-02  0.21726236275E-01  0.70482354034E-02  0.23992908702E-01  0.00000000000E+00 0. -1.
     999901    1    3    3    0    0 -0.75767769738E-01 -0.11848282997E+00  0.40027899823E-01  0.89206567510E+00  0.88000000000E+00 0. -1.
        -11    1    4    4    0    0  0.23121595561E-01  0.39401515013E-01 -0.20838096845E-01  0.50215286196E-01  0.51100000000E-03 0. -1.
         11    1    4    4    0    0  0.45300923806E-01  0.57355078677E-01 -0.26238038382E-01  0.77656130002E-01  0.51100000000E-03 0.  1.
</event>
<event>
 8    1  0.1109553E+005  0.1043930E+01  0.7957747E-01            NaN
         13   -1    0    0    0    0  0.00000000000E+00  0.00000000000E+00  0.74505805969E-08  0.10566000000E+00  0.10566000000E+00 0.  1.
     999900   -1    0    0    0    0 -0.00000000000E+00 -0.00000000000E+00 -0.74505805969E-08  0.93827000000E+00  0.93827000000E+00 0. -1.
     999902    2    1    2    0    0  0.18870776861E-01 -0.11346880213E-02 -0.15828064783E-01  0.10192739385E+01  0.10189756819E+01 0.  0.
     999903    2    3    3    0    0 -0.18564592502E-01  0.78613748472E-01 -0.10098096420E+00  0.13078520117E+00  0.19566506358E-01 0.  0.
         14    1    1    2    0    0 -0.18870776861E-01  0.11346880213E-02  0.15828064783E-01  0.24656061547E-01  0.00000000000E+00 0.  1.
     999901    1    3    3    0    0  0.37435369363E-01 -0.79748436493E-01  0.85152899413E-01  0.88848873728E+00  0.88000000000E+00 0.  1.
        -11    1    4    4    0    0 -0.17026923177E-02  0.47279968080E-01 -0.52972205862E-01  0.71025419799E-01  0.51100000000E-03 0.  1.
         11    1    4    4    0    0 -0.16861900184E-01  0.31333780392E-01 -0.48008758335E-01  0.59759781369E-01  0.51100000000E-03 0. -1.
</event>
<event>
 8    1  0.1109553E+005  0.1043930E+01  0.7957747E-01            NaN
         13   -1    0    0    0    0  0.00000000000E+00  0.00000000000E+00  0.74505805969E-08  0.10566000000E+00  0.10566000000E+00 0. -1.
     999900   -1    0    0    0    0 -0.00000000000E+00 -0.00000000000E+00 -0.74505805969E-08  0.93827000000E+00  0.93827000000E+00 0.  1.
     999902    2    1    2    0    0  0.24889916181E-02  0.13047715918E-01 -0.19487601883E-01  0.10203460097E+01  0.10200734165E+01 0.  0.
     999903    2    3    3    0    0 -0.90440436878E-01  0.40792101645E-01 -0.85589507590E-01  0.13255375275E+00  0.20036600967E-01 0.  0.
         14    1    1    2    0    0 -0.24889916181E-02 -0.13047715918E-01  0.19487601883E-01  0.23583990271E-01  0.00000000000E+00 0. -1.
     999901    1    3    3    0    0  0.92929428497E-01 -0.27744385727E-01  0.66101905707E-01  0.88779225698E+00  0.88000000000E+00 0. -1.
        -11    1    4    4    0    0 -0.30872670485E-01  0.85238365115E-02 -0.17495016818E-01  0.36498141134E-01  0.51100000000E-03 0.  1.
         11    1    4    4    0    0 -0.59567766393E-01  0.32268265133E-01 -0.68094490772E-01  0.96055611612E-01  0.51100000000E-03 0. -1.
</event>
<event>
 8    1  0.1109553E+005  0.1043930E+01  0.7957747E-01            NaN
         13   -1    0    0    0    0  0.00000000000E+00  0.00000000000E+00  0.74505805969E-08  0.10566000000E+00  0.10566000000E+00 0. -1.
     999900   -1    0    0    0    0 -0.00000000000E+00 -0.00000000000E+00 -0.74505805969E-08  0.93827000000E+00  0.93827000000E+00 0. -1.
     999902    2    1    2    0    0 -0.23358263289E-01 -0.11306098897E-02 -0.23106341883E-02  0.10204305155E+01  0.10201598949E+01 0.  0.
     999903    2    3    3    0    0  0.56507340384E-01 -0.13843456527E-01 -0.11422096068E+00  0.12966452359E+00  0.19538168107E-01 0.  0.
         14    1    1    2    0    0  0.23358263289E-01  0.11306098897E-02  0.23106341883E-02  0.23499484525E-01  0.00000000000E+00 0.  1.
     999901    1    3    3    0    0 -0.79865603673E-01  0.12712846637E-01  0.11191032649E+00  0.89076599188E+00  0.88000000000E+00 0. -1.
        -11    1    4    4    0    0  0.33080980997E-01  0.12270882095E-02 -0.69360100780E-01  0.76856631141E-01  0.51100000000E-03 0.  1.
         11    1    4    4    0    0  0.23426359387E-01 -0.15070544736E-01 -0.44860859903E-01  0.52807892450E-01  0.51100000000E-03 0. -1.
</event>
<event>
 8    1  0.1109553E+005  0.1043930E+01  0.7957747E-01            NaN
         13   -1    0    0    0    0  0.00000000000E+00  0.00000000000E+00  0.74505805969E-08  0.10566000000E+00  0.10566000000E+00 0. -1.
     999900   -1    0    0    0    0 -0.00000000000E+00 -0.00000000000E+00 -0.74505805969E-08  0.93827000000E+00  0.93827000000E+00 0. -1.
     999902    2    1    2    0    0  0.93585599167E-02  0.20010728950E-01  0.72729193382E-02  0.10206725867E+01  0.10204075764E+01 0.  0.
     999903    2    3    3    0    0  0.11464975935E-01  0.12229335305E+00  0.48965907507E-01  0.13376533258E+00  0.20208766176E-01 0.  0.
         14    1    1    2    0    0 -0.93585599167E-02 -0.20010728950E-01 -0.72729193382E-02  0.23257413281E-01  0.00000000000E+00 0.  1.
     999901    1    3    3    0    0 -0.21064160181E-02 -0.10228262409E+00 -0.41692988168E-01  0.88690725414E+00  0.88000000000E+00 0. -1.
        -11    1    4    4    0    0  0.43456213187E-02  0.58960728658E-02  0.14856898694E-03  0.73437928639E-02  0.51100000000E-03 0. -1.
         11    1    4    4    0    0  0.71193546162E-02  0.11639728018E+00  0.48817338520E-01  0.12642153972E+00  0.51100000000E-03 0.  1.
</event>
<event>
 8    1  0.1109553E+005  0.1043930E+01  0.7957747E-01            NaN
         13   -1    0    0    0    0  0.00000000000E+00  0.00000000000E+00  0.74505805969E-08  0.10566000000E+00  0.10566000000E+00 0.  1.
     999900   -1    0    0    0    0 -0.00000000000E+00 -0.00000000000E+00 -0.74505805969E-08  0.93827000000E+00  0.93827000000E+00 0.  1.
     999902    2    1    2    0    0  0.15693778971E-01 -0.14919649680E-01 -0.91934833412E-02  0.10204053155E+01  0.10201341074E+01 0.  0.
     999903    2    3    3    0    0  0.12821254461E+00 -0.19143108702E-01 -0.22570951053E-01  0.13313012320E+00  0.20230340201E-01 0.  0.
         14    1    1    2    0    0 -0.15693778971E-01  0.14919649680E-01  0.91934833412E-02  0.23524684502E-01  0.00000000000E+00 0. -1.
     999901    1    3    3    0    0 -0.11251876564E+00  0.42234590221E-02  0.13377467712E-01  0.88727519230E+00  0.88000000000E+00 0. -1.
        -11    1    4    4    0    0  0.10929792100E+00 -0.18252675373E-01 -0.26140620739E-01  0.11385424395E+00  0.51100000000E-03 0. -1.
         11    1    4    4    0    0  0.18914623616E-01 -0.89043332973E-03  0.35696696854E-02  0.19275879247E-01  0.51100000000E-03 0.  1.
</event>
<event>
 8    1  0.1109553E+005  0.1043930E+01  0.7957747E-01            NaN
         13   -1    0    0    0    0  0.00000000000E+00  0.00000000000E+00  0.74505805969E-08  0.10566000000E+00  0.10566000000E+00 0. -1.
     999900   -1    0    0    0    0 -0.00000000000E+00 -0.00000000000E+00 -0.74505805969E-08  0.93827000000E+00  0.93827000000E+00 0.  1.
     999902    2    1    2    0    0 -0.28673151054E-03 -0.12685663816E-01 -0.19497057027E-01  0.10206675084E+01  0.10204023810E+01 0.  0.
     999903    2    3    3    0    0  0.30508675421E-01 -0.11463435259E+00 -0.58519096627E-01  0.13338817710E+00  0.17207761314E-01 0.  0.
         14    1    1    2    0    0  0.28673151054E-03  0.12685663816E-01  0.19497057027E-01  0.23262491572E-01  0.00000000000E+00 0.  1.
     999901    1    3    3    0    0 -0.30795406931E-01  0.10194868878E+00  0.39022039600E-01  0.88727933133E+00  0.88000000000E+00 0. -1.
        -11    1    4    4    0    0  0.94986649217E-02 -0.19469827877E-01 -0.16604049700E-01  0.27299348349E-01  0.51100000000E-03 0. -1.
         11    1    4    4    0    0  0.21010010499E-01 -0.95164524716E-01 -0.41915046926E-01  0.10608882875E+00  0.51100000000E-03 0.  1.
</event>
<event>
 8    1  0.1109553E+005  0.1043930E+01  0.7957747E-01            NaN
         13   -1    0    0    0    0  0.00000000000E+00  0.00000000000E+00  0.74505805969E-08  0.10566000000E+00  0.10566000000E+00 0. -1.
     999900   -1    0    0    0    0 -0.00000000000E+00 -0.00000000000E+00 -0.74505805969E-08  0.93827000000E+00  0.93827000000E+00 0. -1.
     999902    2    1    2    0    0  0.45423987388E-02 -0.14040372800E-01  0.17877747799E-01  0.10207485565E+01  0.10204852945E+01 0.  0.
     999903    2    3    3    0    0 -0.90113185274E-01 -0.93609885851E-01  0.13168004375E-01  0.13209048468E+00  0.19781377980E-01 0.  0.
         14    1    1    2    0    0 -0.45423987388E-02  0.14040372800E-01 -0.17877747799E-01  0.23181443463E-01  0.00000000000E+00 0.  1.
     999901    1    3    3    0    0  0.94655584013E-01  0.79569513051E-01  0.47097434239E-02  0.88865807186E+00  0.88000000000E+00 0. -1.
        -11    1    4    4    0    0 -0.13852603753E-01 -0.87564117512E-02  0.70240773470E-02  0.17837268879E-01  0.51100000000E-03 0. -1.
         11    1    4    4    0    0 -0.76260581521E-01 -0.84853474100E-01  0.61439270278E-02  0.11425321580E+00  0.51100000000E-03 0.  1.
</event>
<event>
 8    1  0.1109553E+005  0.1043930E+01  0.7957747E-01            NaN
         13   -1    0    0    0    0  0.00000000000E+00  0.00000000000E+00  0.74505805969E-08  0.10566000000E+00  0.10566000000E+00 0. -1.
     999900   -1    0    0    0    0 -0.00000000000E+00 -0.00000000000E+00 -0.74505805969E-08  0.93827000000E+00  0.93827000000E+00 0. -1.
     999902    2    1    2    0    0  0.21583041581E-01 -0.13111422789E-01  0.84153692254E-02  0.10173112936E+01  0.10169629848E+01 0.  0.
     999903    2    3    3    0    0  0.12563322786E+00 -0.19681221306E-01 -0.22203016599E-01  0.13062809816E+00  0.19991689964E-01 0.  0.
         14    1    1    2    0    0 -0.21583041581E-01  0.13111422789E-01 -0.84153692254E-02  0.26618706404E-01  0.00000000000E+00 0. -1.
     999901    1    3    3    0    0 -0.10405018628E+00  0.65697985172E-02  0.30618385824E-01  0.88668319544E+00  0.88000000000E+00 0.  1.
        -11    1    4    4    0    0  0.52074649123E-01  0.16584994517E-02 -0.10388783298E-01  0.53129159989E-01  0.51100000000E-03 0.  1.
         11    1    4    4    0    0  0.73558578739E-01 -0.21339720758E-01 -0.11814233301E-01  0.77498938171E-01  0.51100000000E-03 0. -1.
</event>
<event>
 8    1  0.1109553E+005  0.1043930E+01  0.7957747E-01            NaN
         13   -1    0    0    0    0  0.00000000000E+00  0.00000000000E+00  0.74505805969E-08  0.10566000000E+00  0.10566000000E+00 0. -1.
     999900   -1    0    0    0    0 -0.00000000000E+00 -0.00000000000E+00 -0.74505805969E-08  0.93827000000E+00  0.93827000000E+00 0.  1.
     999902    2    1    2    0    0  0.16227345417E-01 -0.16027953958E-01 -0.27184177626E-02  0.10209601972E+01  0.10207017744E+01 0.  0.
     999903    2    3    3    0    0  0.21144867902E-01 -0.13012936697E+00 -0.74351746142E-02  0.13356763337E+00  0.20106548043E-01 0.  0.
         14    1    1    2    0    0 -0.16227345417E-01  0.16027953958E-01  0.27184177626E-02  0.22969802840E-01  0.00000000000E+00 0. -1.
     999901    1    3    3    0    0 -0.49175224850E-02  0.11410141302E+00  0.47167568516E-02  0.88739256379E+00  0.88000000000E+00 0. -1.
        -11    1    4    4    0    0  0.47680940727E-02 -0.87139758571E-01 -0.71042796810E-02  0.87560288691E-01  0.51100000000E-03 0. -1.
         11    1    4    4    0    0  0.16376773830E-01 -0.42989608403E-01 -0.33089493316E-03  0.46007344676E-01  0.51100000000E-03 0.  1.
</event>
<event>
 8    1  0.1109553E+005  0.1043930E+01  0.7957747E-01            NaN
         13   -1    0    0    0    0  0.00000000000E+00  0.00000000000E+00  0.74505805969E-08  0.10566000000E+00  0.10566000000E+00 0. -1.
     999900   -1    0    0    0    0 -0.00000000000E+00 -0.00000000000E+00 -0.74505805969E-08  0.93827000000E+00  0.93827000000E+00 0. -1.
     999902    2    1    2    0    0  0.12855998140E-01  0.36514950506E-02 -0.17593673342E-01  0.10218359409E+01  0.10215970550E+01 0.  0.
     999903    2    3    3    0    0  0.63618566366E-01  0.94276560328E-01 -0.68755764878E-01  0.13425084620E+00  0.18987961642E-01 0.  0.
         14    1    1    2    0    0 -0.12855998140E-01 -0.36514950506E-02  0.17593673342E-01  0.22094059064E-01  0.00000000000E+00 0.  1.
     999901    1    3    3    0    0 -0.50762568226E-01 -0.90625065277E-01  0.51162091536E-01  0.88758509474E+00  0.88000000000E+00 0.  1.
        -11    1    4    4    0    0  0.12679228741E-01  0.31171094704E-01 -0.26278897607E-01  0.42699432864E-01  0.51100000000E-03 0. -1.
         11    1    4    4    0    0  0.50939337625E-01  0.63105465624E-01 -0.42476867271E-01  0.91551413334E-01  0.51100000000E-03 0.  1.
</event>
<event>
 8    1  0.1109553E+005  0.1043930E+01  0.7957747E-01            NaN
         13   -1    0    0    0    0  0.00000000000E+00  0.00000000000E+00  0.74505805969E-08  0.10566000000E+00  0.10566000000E+00 0.  1.
     999900   -1    0    0    0    0 -0.00000000000E+00 -0.00000000000E+00 -0.74505805969E-08  0.93827000000E+00  0.93827000000E+00 0.  1.
     999902    2    1    2    0    0 -0.23599966884E-02  0.70627244398E-02 -0.22232557992E-01  0.10204835014E+01  0.10202141140E+01 0.  0.
     999903    2    3    3    0    0 -0.49294601867E-01 -0.13158430416E-01 -0.12161787608E+00  0.13341575106E+00  0.20143306231E-01 0.  0.
         14    1    1    2    0    0  0.23599966884E-02 -0.70627244398E-02  0.22232557992E-01  0.23446498582E-01  0.00000000000E+00 0.  1.
     999901    1    3    3    0    0  0.46934605179E-01  0.20221154856E-01  0.99385318086E-01  0.88706775035E+00  0.88000000000E+00 0. -1.
        -11    1    4    4    0    0 -0.31169067769E-01 -0.18109788155E-01 -0.79118217670E-01  0.86944975133E-01  0.51100000000E-03 0. -1.
         11    1    4    4    0    0 -0.18125534098E-01  0.49513577390E-02 -0.42499658408E-01  0.46470775931E-01  0.51100000000E-03 0.  1.
</event>
<event>
 8    1  0.1109553E+005  0.1043930E+01  0.7957747E-01            NaN
         13   -1    0    0    0    0  0.00000000000E+00  0.00000000000E+00  0.74505805969E-08  0.10566000000E+00  0.10566000000E+00 0.  1.
     999900   -1    0    0    0    0 -0.00000000000E+00 -0.00000000000E+00 -0.74505805969E-08  0.93827000000E+00  0.93827000000E+00 0. -1.
     999902    2    1    2    0    0  0.22894073900E-01  0.58749085796E-02  0.10751442317E-02  0.10202697146E+01  0.10199953340E+01 0.  0.
     999903    2    3    3    0    0  0.11857931241E+00 -0.18390768420E-01  0.52900952451E-01  0.13323510289E+00  0.23533129387E-01 0.  0.
         14    1    1    2    0    0 -0.22894073900E-01 -0.58749085796E-02 -0.10751442317E-02  0.23660285410E-01  0.00000000000E+00 0. -1.
     999901    1    3    3    0    0 -0.95685238508E-01  0.24265676999E-01 -0.51825808220E-01  0.88703461170E+00  0.88000000000E+00 0. -1.
        -11    1    4    4    0    0  0.82848391807E-01 -0.53696189667E-02  0.27335062794E-01  0.87407983684E-01  0.51100000000E-03 0. -1.
         11    1    4    4    0    0  0.35730920601E-01 -0.13021149453E-01  0.25565889657E-01  0.45827119210E-01  0.51100000000E-03 0.  1.
</event>
<event>
 8    1  0.1109553E+005  0.1043930E+01  0.7957747E-01            NaN
         13   -1    0    0    0    0  0.00000000000E+00  0.00000000000E+00  0.74505805969E-08  0.10566000000E+00  0.10566000000E+00 0. -1.
     999900   -1    0    0    0    0 -0.00000000000E+00 -0.00000000000E+00 -0.74505805969E-08  0.93827000000E+00  0.93827000000E+00 0.  1.
     999902    2    1    2    0    0 -0.77158166525E-02 -0.81418575663E-02  0.20913772851E-01  0.10201979633E+01  0.10199218964E+01 0.  0.
     999903    2    3    3    0    0 -0.30930719259E-01  0.23290571019E-01 -0.12041596265E+00  0.12806511253E+00  0.20037686869E-01 0.  0.
         14    1    1    2    0    0  0.77158166525E-02  0.81418575663E-02 -0.20913772851E-01  0.23732036704E-01  0.00000000000E+00 0.  1.
     999901    1    3    3    0    0  0.23214902606E-01 -0.31432428585E-01  0.14132973550E+00  0.89213285076E+00  0.88000000000E+00 0. -1.
        -11    1    4    4    0    0 -0.17085128699E-01  0.10488110921E-01 -0.32827926156E-01  0.38468635926E-01  0.51100000000E-03 0. -1.
         11    1    4    4    0    0 -0.13845590560E-01  0.12802460098E-01 -0.87588036496E-01  0.89596476608E-01  0.51100000000E-03 0.  1.
</event>
<event>
 8    1  0.1109553E+005  0.1043930E+01  0.7957747E-01            NaN
         13   -1    0    0    0    0  0.00000000000E+00  0.00000000000E+00  0.74505805969E-08  0.10566000000E+00  0.10566000000E+00 0.  1.
     999900   -1    0    0    0    0 -0.00000000000E+00 -0.00000000000E+00 -0.74505805969E-08  0.93827000000E+00  0.93827000000E+00 0. -1.
     999902    2    1    2    0    0 -0.12396334380E-01  0.70950723162E-02  0.18410329211E-01  0.10206287258E+01  0.10203627034E+01 0.  0.
     999903    2    3    3    0    0  0.26845344451E-01 -0.56424518436E-01  0.11480923273E+00  0.13222150141E+00  0.19924023582E-01 0.  0.
         14    1    1    2    0    0  0.12396334380E-01 -0.70950723162E-02 -0.18410329211E-01  0.23301274191E-01  0.00000000000E+00 0. -1.
     999901    1    3    3    0    0 -0.39241678832E-01  0.63519590752E-01 -0.96398903517E-01  0.88840722440E+00  0.88000000000E+00 0. -1.
        -11    1    4    4    0    0  0.15700015629E-01 -0.28519705727E-01  0.79162988525E-01  0.85597336283E-01  0.51100000000E-03 0. -1.
         11    1    4    4    0    0  0.11145328822E-01 -0.27904812710E-01  0.35646244204E-01  0.46624165126E-01  0.51100000000E-03 0.  1.
</event>
<event>
 8    1  0.1109553E+005  0.1043930E+01  0.7957747E-01            NaN
         13   -1    0    0    0    0  0.00000000000E+00  0.00000000000E+00  0.74505805969E-08  0.10566000000E+00  0.10566000000E+00 0.  1.
     999900   -1    0    0    0    0 -0.00000000000E+00 -0.00000000000E+00 -0.74505805969E-08  0.93827000000E+00  0.93827000000E+00 0.  1.
     999902    2    1    2    0    0 -0.16908313375E-01  0.15597780977E-01 -0.40960039298E-02  0.10205642327E+01  0.10202967186E+01 0.  0.
     999903    2    3    3    0    0  0.42392474822E-01  0.12199860418E+00  0.17722440753E-01  0.13190582636E+00  0.20106734668E-01 0.  0.
         14    1    1    2    0    0  0.16908313375E-01 -0.15597780977E-01  0.40960039298E-02  0.23365767284E-01  0.00000000000E+00 0.  1.
     999901    1    3    3    0    0 -0.59300788197E-01 -0.10640082320E+00 -0.21818444683E-01  0.88865840636E+00  0.88000000000E+00 0.  1.
        -11    1    4    4    0    0  0.15620538232E-01  0.73115914096E-01  0.64867607523E-02  0.75048499617E-01  0.51100000000E-03 0.  1.
         11    1    4    4    0    0  0.26771936589E-01  0.48882690080E-01  0.11235680001E-01  0.56857326743E-01  0.51100000000E-03 0. -1.
</event>
<event>
 8    1  0.1109553E+005  0.1043930E+01  0.7957747E-01            NaN
         13   -1    0    0    0    0  0.00000000000E+00  0.00000000000E+00  0.74505805969E-08  0.10566000000E+00  0.10566000000E+00 0. -1.
     999900   -1    0    0    0    0 -0.00000000000E+00 -0.00000000000E+00 -0.74505805969E-08  0.93827000000E+00  0.93827000000E+00 0.  1.
     999902    2    1    2    0    0  0.16679607149E-01  0.14219393156E-01  0.32028933462E-02  0.10217791769E+01  0.10215390484E+01 0.  0.
     999903    2    3    3    0    0 -0.33718482044E-01 -0.85603006804E-01 -0.89456815491E-01  0.12987654741E+00  0.20014617744E-01 0.  0.
         14    1    1    2    0    0 -0.16679607149E-01 -0.14219393156E-01 -0.32028933462E-02  0.22150823058E-01  0.00000000000E+00 0.  1.
     999901    1    3    3    0    0  0.50398089193E-01  0.99822399960E-01  0.92659708837E-01  0.89190262953E+00  0.88000000000E+00 0.  1.
        -11    1    4    4    0    0 -0.86163550050E-02 -0.10432221634E-01 -0.60784873724E-02  0.14841898515E-01  0.51100000000E-03 0. -1.
         11    1    4    4    0    0 -0.25102127039E-01 -0.75170785170E-01 -0.83378328119E-01  0.11503464889E+00  0.51100000000E-03 0.  1.
</event>
<event>
 8    1  0.1408011E+005  0.1043930E+01  0.7957747E-01            NaN
         13   -1    0    0    0    0  0.00000000000E+00  0.00000000000E+00  0.74505805969E-08  0.10566000000E+00  0.10566000000E+00 0. -1.
     999900   -1    0    0    0    0 -0.00000000000E+00 -0.00000000000E+00 -0.74505805969E-08  0.93827000000E+00  0.93827000000E+00 0. -1.
     999902    2    1    2    0    0 -0.21264421353E-02 -0.14109472185E-02 -0.25036421087E-01  0.10187638539E+01  0.10184529715E+01 0.  0.
     999903    2    3    3    0    0 -0.12514269751E+00  0.26104602762E-01 -0.87022246081E-02  0.12963118071E+00  0.19656278204E-01 0.  0.
         14    1    1    2    0    0  0.21264421353E-02  0.14109472185E-02  0.25036421087E-01  0.25166146091E-01  0.00000000000E+00 0. -1.
     999901    1    3    3    0    0  0.12301625538E+00 -0.27515549980E-01 -0.16334196479E-01  0.88913267320E+00  0.88000000000E+00 0.  1.
        -11    1    4    4    0    0 -0.67612342490E-01  0.43663003978E-02 -0.22682500577E-02  0.67793063918E-01  0.51100000000E-03 0.  1.
         11    1    4    4    0    0 -0.57530355023E-01  0.21738302364E-01 -0.64339745503E-02  0.61838116790E-01  0.51100000000E-03 0. -1.
</event>
<event>
 8    1  0.1109553E+005  0.1043930E+01  0.7957747E-01            NaN
         13   -1    0    0    0    0  0.00000000000E+00  0.00000000000E+00  0.74505805969E-08  0.10566000000E+00  0.10566000000E+00 0. -1.
     999900   -1    0    0    0    0 -0.00000000000E+00 -0.00000000000E+00 -0.74505805969E-08  0.93827000000E+00  0.93827000000E+00 0.  1.
     999902    2    1    2    0    0 -0.70306502970E-02  0.16201878816E-01  0.16810534462E-01  0.10195471169E+01  0.10192555119E+01 0.  0.
     999903    2    3    3    0    0 -0.21370450773E-01  0.75577248247E-01  0.10544850355E+00  0.13298761298E+00  0.19942459405E-01 0.  0.
         14    1    1    2    0    0  0.70306502970E-02 -0.16201878816E-01 -0.16810534462E-01  0.24382883129E-01  0.00000000000E+00 0. -1.
     999901    1    3    3    0    0  0.14339800476E-01 -0.59375369431E-01 -0.88637969086E-01  0.88655950389E+00  0.88000000000E+00 0.  1.
        -11    1    4    4    0    0 -0.20571794432E-01  0.36248775446E-01  0.53184010082E-01  0.67571980117E-01  0.51100000000E-03 0.  1.
         11    1    4    4    0    0 -0.79865634072E-03  0.39328472801E-01  0.52264493467E-01  0.65415632865E-01  0.51100000000E-03 0. -1.
</event>
<event>
 8    1  0.1109553E+005  0.1043930E+01  0.7957747E-01            NaN
         13   -1    0    0    0    0  0.00000000000E+00  0.00000000000E+00  0.74505805969E-08  0.10566000000E+00  0.10566000000E+00 0.  1.
     999900   -1    0    0    0    0 -0.00000000000E+00 -0.00000000000E+00 -0.74505805969E-08  0.93827000000E+00  0.93827000000E+00 0. -1.
     999902    2    1    2    0    0 -0.13483537441E-02 -0.21268518347E-01  0.11067408635E-01  0.10199163484E+01  0.10196336118E+01 0.  0.
     999903    2    3    3    0    0  0.91259983491E-01 -0.28534830063E-01 -0.85642509233E-01  0.12975798515E+00  0.18970350753E-01 0.  0.
         14    1    1    2    0    0  0.13483537441E-02  0.21268518347E-01 -0.11067408635E-01  0.24013651626E-01  0.00000000000E+00 0. -1.
     999901    1    3    3    0    0 -0.92608337235E-01  0.72663117160E-02  0.96709917869E-01  0.89015836323E+00  0.88000000000E+00 0.  1.
        -11    1    4    4    0    0  0.15130796104E-01  0.28455559491E-03 -0.20570286402E-01  0.25542509005E-01  0.51100000000E-03 0.  1.
         11    1    4    4    0    0  0.76129187387E-01 -0.28819385658E-01 -0.65072222832E-01  0.10421547614E+00  0.51100000000E-03 0. -1.
</event>
<event>
 8    1  0.1109553E+005  0.1043930E+01  0.7957747E-01            NaN
         13   -1    0    0    0    0  0.00000000000E+00  0.00000000000E+00  0.74505805969E-08  0.10566000000E+00  0.10566000000E+00 0.  1.
     999900   -1    0    0    0    0 -0.00000000000E+00 -0.00000000000E+00 -0.74505805969E-08  0.93827000000E+00  0.93827000000E+00 0.  1.
     999902    2    1    2    0    0 -0.17599153147E-01  0.13569351217E-01  0.68236225543E-02  0.10206830796E+01  0.10204183111E+01 0.  0.
     999903    2    3    3    0    0  0.64096495902E-01 -0.77960869409E-01 -0.76556979177E-01  0.12826821804E+00  0.20137198236E-01 0.  0.
         14    1    1    2    0    0  0.17599153147E-01 -0.13569351217E-01 -0.68236225543E-02  0.23246920413E-01  0.00000000000E+00 0.  1.
     999901    1    3    3    0    0 -0.81695649049E-01  0.91530220626E-01  0.83380601732E-01  0.89241486155E+00  0.88000000000E+00 0.  1.
        -11    1    4    4    0    0  0.28151578465E-01 -0.20315517307E-01 -0.21641751697E-01  0.40912811576E-01  0.51100000000E-03 0. -1.
         11    1    4    4    0    0  0.35944917437E-01 -0.57645352103E-01 -0.54915227480E-01  0.87355406466E-01  0.51100000000E-03 0.  1.
</event>
<event>
 8    1  0.1109553E+005  0.1043930E+01  0.7957747E-01            NaN
         13   -1    0    0    0    0  0.00000000000E+00  0.00000000000E+00  0.74505805969E-08  0.10566000000E+00  0.10566000000E+00 0.  1.
     999900   -1    0    0    0    0 -0.00000000000E+00 -0.00000000000E+00 -0.74505805969E-08  0.93827000000E+00  0.93827000000E+00 0.  1.
     999902    2    1    2    0    0 -0.87590738871E-02 -0.60484936244E-03  0.21922558373E-01  0.10203146282E+01  0.10200413005E+01 0.  0.
     999903    2    3    3    0    0  0.79872433309E-01  0.66342859925E-01 -0.72626502054E-01  0.12830730501E+00  0.20178579082E-01 0.  0.
         14    1    1    2    0    0  0.87590738871E-02  0.60484936244E-03 -0.21922558373E-01  0.23615371768E-01  0.00000000000E+00 0. -1.
     999901    1    3    3    0    0 -0.88631507196E-01 -0.66947709287E-01  0.94549060427E-01  0.89200732322E+00  0.88000000000E+00 0. -1.
        -11    1    4    4    0    0  0.20158946819E-01  0.76481141931E-02 -0.10153299389E-01  0.23837520782E-01  0.51100000000E-03 0.  1.
         11    1    4    4    0    0  0.59713486490E-01  0.58694745731E-01 -0.62473202665E-01  0.10446978423E+00  0.51100000000E-03 0. -1.
</event>
<event>
 8    1  0.1109553E+005  0.1043930E+01  0.7957747E-01            NaN
         13   -1    0    0    0    0  0.00000000000E+00  0.00000000000E+00  0.74505805969E-08  0.10566000000E+00  0.10566000000E+00 0. -1.
     999900   -1    0    0    0    0 -0.00000000000E+00 -0.00000000000E+00 -0.74505805969E-08  0.93827000000E+00  0.93827000000E+00 0.  1.
     999902    2    1    2    0    0 -0.16989137968E-02  0.15320445882E-01  0.17805043184E-01  0.10203795874E+01  0.10201077789E+01 0.  0.
     999903    2    3    3    0    0 -0.17056277695E-01  0.46766850122E-01  0.12213558708E+00  0.13352582982E+00  0.20832443935E-01 0.  0.
         14    1    1    2    0    0  0.16989137968E-02 -0.15320445882E-01 -0.17805043184E-01  0.23550412584E-01  0.00000000000E+00 0. -1.
     999901    1    3    3    0    0  0.15357363898E-01 -0.31446404240E-01 -0.10433054389E+00  0.88685375759E+00  0.88000000000E+00 0.  1.
        -11    1    4    4    0    0 -0.15601441502E-01  0.15205812195E-01  0.59628445299E-01  0.63485701628E-01  0.51100000000E-03 0.  1.
         11    1    4    4    0    0 -0.14548361932E-02  0.31561037928E-01  0.62507141778E-01  0.70040128196E-01  0.51100000000E-03 0. -1.
</event>
<event>
 8    1  0.1109553E+005  0.1043930E+01  0.7957747E-01            NaN
         13   -1    0    0    0    0  0.00000000000E+00  0.00000000000E+00  0.74505805969E-08  0.10566000000E+00  0.10566000000E+00 0.  1.
     999900   -1    0    0    0    0 -0.00000000000E+00 -0.00000000000E+00 -0.74505805969E-08  0.93827000000E+00  0.93827000000E+00 0.  1.
     999902    2    1    2    0    0  0.17246661666E-01 -0.16104956462E-01 -0.54194502983E-02  0.10197186927E+01  0.10194312261E+01 0.  0.
     999903    2    3    3    0    0  0.13032313100E+00  0.45273643475E-03 -0.18630267484E-01  0.13223068103E+00  0.12391234609E-01 0.  0.
         14    1    1    2    0    0 -0.17246661666E-01  0.16104956462E-01  0.54194502983E-02  0.24211307334E-01  0.00000000000E+00 0.  1.
     999901    1    3    3    0    0 -0.11307646933E+00 -0.16557692896E-01  0.13210817186E-01  0.88748801164E+00  0.88000000000E+00 0. -1.
        -11    1    4    4    0    0  0.94404269569E-01 -0.10834481547E-02 -0.80675296732E-02  0.94755929254E-01  0.51100000000E-03 0.  1.
         11    1    4    4    0    0  0.35918861429E-01  0.15361845894E-02 -0.10562737811E-01  0.37474751774E-01  0.51100000000E-03 0. -1.
</event>
<event>
 8    1  0.1109553E+005  0.1043930E+01  0.7957747E-01            NaN
         13   -1    0    0    0    0  0.00000000000E+00  0.00000000000E+00  0.74505805969E-08  0.10566000000E+00  0.10566000000E+00 0.  1.
     999900   -1    0    0    0    0 -0.00000000000E+00 -0.00000000000E+00 -0.74505805969E-08  0.93827000000E+00  0.93827000000E+00 0. -1.
     999902    2    1    2    0    0  0.27338219204E-02 -0.14441170705E-01  0.18391915428E-01  0.10203867686E+01  0.10201151277E+01 0.  0.
     999903    2    3    3    0    0  0.88621652039E-01 -0.51231804645E-01 -0.78064312547E-01  0.13019910631E+00  0.19474993515E-01 0.  0.
         14    1    1    2    0    0 -0.27338219204E-02  0.14441170705E-01 -0.18391915428E-01  0.23543231442E-01  0.00000000000E+00 0. -1.
     999901    1    3    3    0    0 -0.85887830118E-01  0.36790633939E-01  0.96456227976E-01  0.89018766225E+00  0.88000000000E+00 0.  1.
        -11    1    4    4    0    0  0.56031870608E-01 -0.24564519482E-01 -0.37693630808E-01  0.71861373948E-01  0.51100000000E-03 0. -1.
         11    1    4    4    0    0  0.32589781430E-01 -0.26667285163E-01 -0.40370681740E-01  0.58337732359E-01  0.51100000000E-03 0.  1.
</event>
<event>
 8    1  0.1109553E+005  0.1043930E+01  0.7957747E-01            NaN
         13   -1    0    0    0    0  0.00000000000E+00  0.00000000000E+00  0.74505805969E-08  0.10566000000E+00  0.10566000000E+00 0. -1.
     999900   -1    0    0    0    0 -0.00000000000E+00 -0.00000000000E+00 -0.74505805969E-08  0.93827000000E+00  0.93827000000E+00 0. -1.
     999902    2    1    2    0    0 -0.17157679393E-01  0.17790050263E-01  0.74018588412E-02  0.10181296247E+01  0.10178026692E+01 0.  0.
     999903    2    3    3    0    0  0.28670953108E-01 -0.21492070884E-01 -0.12001109601E+00  0.12690720037E+00  0.20465621850E-01 0.  0.
         14    1    1    2    0    0  0.17157679393E-01 -0.17790050263E-01 -0.74018588412E-02  0.25800375284E-01  0.00000000000E+00 0. -1.
     999901    1    3    3    0    0 -0.45828632501E-01  0.39282121147E-01  0.12741295485E+00  0.89122242435E+00  0.88000000000E+00 0.  1.
        -11    1    4    4    0    0  0.22139661792E-01 -0.54665816291E-02 -0.53088827052E-01  0.57781768904E-01  0.51100000000E-03 0.  1.
         11    1    4    4    0    0  0.65312913168E-02 -0.16025489255E-01 -0.66922268953E-01  0.69125431463E-01  0.51100000000E-03 0. -1.
</event>
<event>
 8    1  0.1109553E+005  0.1043930E+01  0.7957747E-01            NaN
         13   -1    0    0    0    0  0.00000000000E+00  0.00000000000E+00  0.74505805969E-08  0.10566000000E+00  0.10566000000E+00 0.  1.
     999900   -1    0    0    0    0 -0.00000000000E+00 -0.00000000000E+00 -0.74505805969E-08  0.93827000000E+00  0.93827000000E+00 0. -1.
     999902    2    1    2    0    0 -0.46746346612E-02 -0.54051945265E-02  0.22376923480E-01  0.10204396820E+01  0.10201692749E+01 0.  0.
     999903    2    3    3    0    0 -0.10205510241E+00  0.67344211162E-01 -0.39222308553E-01  0.12995110993E+00  0.19960330126E-01 0.  0.
         14    1    1    2    0    0  0.46746346612E-02  0.54051945265E-02 -0.22376923480E-01  0.23490318038E-01  0.00000000000E+00 0. -1.
     999901    1    3    3    0    0  0.97380467753E-01 -0.72749405689E-01  0.61599232033E-01  0.89048857203E+00  0.88000000000E+00 0.  1.
        -11    1    4    4    0    0 -0.43354978068E-01  0.34095082142E-01 -0.26910384630E-01  0.61372295635E-01  0.51100000000E-03 0. -1.
         11    1    4    4    0    0 -0.58700124346E-01  0.33249129020E-01 -0.12311923924E-01  0.68578814298E-01  0.51100000000E-03 0.  1.
</event>
<event>
 8    1  0.1109553E+005  0.1043930E+01  0.7957747E-01            NaN
         13   -1    0    0    0    0  0.00000000000E+00  0.00000000000E+00  0.74505805969E-08  0.10566000000E+00  0.10566000000E+00 0.  1.
     999900   -1    0    0    0    0 -0.00000000000E+00 -0.00000000000E+00 -0.74505805969E-08  0.93827000000E+00  0.93827000000E+00 0. -1.
     999902    2    1    2    0    0 -0.98568422374E-02  0.14105505759E-01 -0.16086962167E-01  0.10203734089E+01  0.10201014561E+01 0.  0.
     999903    2    3    3    0    0  0.15904788897E-01  0.77816265450E-01 -0.10433711367E+00  0.13329347352E+00  0.23928713250E-01 0.  0.
         14    1    1    2    0    0  0.98568422374E-02 -0.14105505759E-01  0.16086962167E-01  0.23556591081E-01  0.00000000000E+00 0.  1.
     999901    1    3    3    0    0 -0.25761631135E-01 -0.63710759691E-01  0.88250151499E-01  0.88707993539E+00  0.88000000000E+00 0.  1.
        -11    1    4    4    0    0  0.83053789843E-02  0.61932311272E-01 -0.93979771227E-01  0.11285853543E+00  0.51100000000E-03 0.  1.
         11    1    4    4    0    0  0.75994099132E-02  0.15883954178E-01 -0.10357342438E-01  0.20434938090E-01  0.51100000000E-03 0. -1.
</event>
<event>
 8    1  0.1109553E+005  0.1043930E+01  0.7957747E-01            NaN
         13   -1    0    0    0    0  0.00000000000E+00  0.00000000000E+00  0.74505805969E-08  0.10566000000E+00  0.10566000000E+00 0. -1.
     999900   -1    0    0    0    0 -0.00000000000E+00 -0.00000000000E+00 -0.74505805969E-08  0.93827000000E+00  0.93827000000E+00 0. -1.
     999902    2    1    2    0    0 -0.58442959267E-03  0.22043906657E-01  0.97357125156E-02  0.10198248247E+01  0.10195399029E+01 0.  0.
     999903    2    3    3    0    0  0.17569810479E-01  0.12381402416E+00 -0.38949677761E-01  0.13243708504E+00  0.19593194667E-01 0.  0.
         14    1    1    2    0    0  0.58442959267E-03 -0.22043906657E-01 -0.97357125156E-02  0.24105175312E-01  0.00000000000E+00 0. -1.
     999901    1    3    3    0    0 -0.18154240072E-01 -0.10177011750E+00  0.48685390277E-01  0.88738773965E+00  0.88000000000E+00 0.  1.
        -11    1    4    4    0    0  0.42224073393E-02  0.88672623497E-01 -0.23839251373E-01  0.91919714472E-01  0.51100000000E-03 0.  1.
         11    1    4    4    0    0  0.13347403140E-01  0.35141400664E-01 -0.15110426389E-01  0.40517370569E-01  0.51100000000E-03 0. -1.
</event>
<event>
 8    1  0.1109553E+005  0.1043930E+01  0.7957747E-01            NaN
         13   -1    0    0    0    0  0.00000000000E+00  0.00000000000E+00  0.74505805969E-08  0.10566000000E+00  0.10566000000E+00 0. -1.
     999900   -1    0    0    0    0 -0.00000000000E+00 -0.00000000000E+00 -0.74505805969E-08  0.93827000000E+00  0.93827000000E+00 0. -1.
     999902    2    1    2    0    0  0.35998915129E-02  0.12198664219E-01  0.14091660631E-01  0.10249473361E+01  0.10247715357E+01 0.  0.
     999903    2    3    3    0    0 -0.29994882161E-01  0.31730732238E-01  0.12812178729E+00  0.13673960127E+00  0.19390560941E-01 0.  0.
         14    1    1    2    0    0 -0.35998915129E-02 -0.12198664219E-01 -0.14091660631E-01  0.18982663854E-01  0.00000000000E+00 0.  1.
     999901    1    3    3    0    0  0.33594773674E-01 -0.19532068019E-01 -0.11403012666E+00  0.88820773487E+00  0.88000000000E+00 0. -1.
        -11    1    4    4    0    0 -0.19238805193E-01  0.10058878813E-01  0.79727699742E-01  0.82632196482E-01  0.51100000000E-03 0. -1.
         11    1    4    4    0    0 -0.10756076968E-01  0.21671853425E-01  0.48394087550E-01  0.54107404793E-01  0.51100000000E-03 0.  1.
</event>
<event>
 8    1  0.1109553E+005  0.1043930E+01  0.7957747E-01            NaN
         13   -1    0    0    0    0  0.00000000000E+00  0.00000000000E+00  0.74505805969E-08  0.10566000000E+00  0.10566000000E+00 0.  1.
     999900   -1    0    0    0    0 -0.00000000000E+00 -0.00000000000E+00 -0.74505805969E-08  0.93827000000E+00  0.93827000000E+00 0. -1.
     999902    2    1    2    0    0  0.13393669846E-01  0.19865124799E-01  0.95061858430E-03  0.10199525679E+01  0.10196706936E+01 0.  0.
     999903    2    3    3    0    0 -0.12203527932E+00  0.21179360214E-01 -0.29377358859E-01  0.12907518367E+00  0.21358818538E-01 0.  0.
         14    1    1    2    0    0 -0.13393669846E-01 -0.19865124799E-01 -0.95061858430E-03  0.23977432117E-01  0.00000000000E+00 0. -1.
     999901    1    3    3    0    0  0.13542894916E+00 -0.13142354144E-02  0.30327977444E-01  0.89087738421E+00  0.88000000000E+00 0.  1.
        -11    1    4    4    0    0 -0.17972510973E-01  0.28591610028E-02  0.32385957778E-02  0.18491500100E-01  0.51100000000E-03 0.  1.
         11    1    4    4    0    0 -0.10406276834E+00  0.18320199211E-01 -0.32615954637E-01  0.11058368357E+00  0.51100000000E-03 0. -1.
</event>
<event>
 8    1  0.1109553E+005  0.1043930E+01  0.7957747E-01            NaN
         13   -1    0    0    0    0  0.00000000000E+00  0.00000000000E+00  0.74505805969E-08  0.10566000000E+00  0.10566000000E+00 0.  1.
     999900   -1    0    0    0    0 -0.00000000000E+00 -0.00000000000E+00 -0.74505805969E-08  0.93827000000E+00  0.93827000000E+00 0.  1.
     999902    2    1    2    0    0 -0.21007653330E-01  0.53242778041E-02  0.99676523632E-02  0.10200757860E+01  0.10197968355E+01 0.  0.
     999903    2    3    3    0    0 -0.42019461231E-01 -0.12089713860E+00  0.16991592420E-01  0.13079367228E+00  0.20892995253E-01 0.  0.
         14    1    1    2    0    0  0.21007653330E-01 -0.53242778041E-02 -0.99676523632E-02  0.23854214014E-01  0.00000000000E+00 0. -1.
     999901    1    3    3    0    0  0.21011807901E-01  0.12622141640E+00 -0.70239400568E-02  0.88928211371E+00  0.88000000000E+00 0. -1.
        -11    1    4    4    0    0 -0.57542316020E-02 -0.45985981649E-01  0.86469729320E-02  0.47147141498E-01  0.51100000000E-03 0.  1.
         11    1    4    4    0    0 -0.36265229629E-01 -0.74911156951E-01  0.83446194881E-02  0.83646530778E-01  0.51100000000E-03 0. -1.
</event>
<event>
 8    1  0.1109553E+005  0.1043930E+01  0.7957747E-01            NaN
         13   -1    0    0    0    0  0.00000000000E+00  0.00000000000E+00  0.74505805969E-08  0.10566000000E+00  0.10566000000E+00 0.  1.
     999900   -1    0    0    0    0 -0.00000000000E+00 -0.00000000000E+00 -0.74505805969E-08  0.93827000000E+00  0.93827000000E+00 0.  1.
     999902    2    1    2    0    0  0.17101531733E-01 -0.61203483427E-03 -0.14762565771E-01  0.10213297716E+01  0.10210796894E+01 0.  0.
     999903    2    3    3    0    0  0.10163856692E-01  0.29910358809E-01  0.12435963697E+00  0.12985081218E+00  0.19949450381E-01 0.  0.
         14    1    1    2    0    0 -0.17101531733E-01  0.61203483427E-03  0.14762565771E-01  0.22600228371E-01  0.00000000000E+00 0. -1.
     999901    1    3    3    0    0  0.69376750413E-02 -0.30522393643E-01 -0.13912220274E+00  0.89147895945E+00  0.88000000000E+00 0.  1.
        -11    1    4    4    0    0  0.14099002061E-01  0.22251370859E-01  0.10989705343E+00  0.11301118900E+00  0.51100000000E-03 0.  1.
         11    1    4    4    0    0 -0.39351453691E-02  0.76589879499E-02  0.14462583533E-01  0.16839623183E-01  0.51100000000E-03 0. -1.
</event>
<event>
 8    1  0.1109553E+005  0.1043930E+01  0.7957747E-01            NaN
         13   -1    0    0    0    0  0.00000000000E+00  0.00000000000E+00  0.74505805969E-08  0.10566000000E+00  0.10566000000E+00 0.  1.
     999900   -1    0    0    0    0 -0.00000000000E+00 -0.00000000000E+00 -0.74505805969E-08  0.93827000000E+00  0.93827000000E+00 0.  1.
     999902    2    1    2    0    0  0.11092423599E-01 -0.16339504290E-01 -0.13156632111E-01  0.10201998877E+01  0.10199238661E+01 0.  0.
     999903    2    3    3    0    0 -0.29420000738E-01 -0.10312535036E+00  0.72372094080E-01  0.13088093332E+00  0.19792028029E-01 0.  0.
         14    1    1    2    0    0 -0.11092423599E-01  0.16339504290E-01  0.13156632111E-01  0.23730112310E-01  0.00000000000E+00 0.  1.
     999901    1    3    3    0    0  0.40512424337E-01  0.86785846074E-01 -0.85528726190E-01  0.88931895437E+00  0.88000000000E+00 0.  1.
        -11    1    4    4    0    0 -0.22646149959E-01 -0.83435731592E-01  0.48241499099E-01  0.99004407834E-01  0.51100000000E-03 0.  1.
         11    1    4    4    0    0 -0.67738507780E-02 -0.19689618771E-01  0.24130594981E-01  0.31876525483E-01  0.51100000000E-03 0. -1.
</event>
<event>
 8    1  0.1109553E+005  0.1043930E+01  0.7957747E-01            NaN
         13   -1    0    0    0    0  0.00000000000E+00  0.00000000000E+00  0.74505805969E-08  0.10566000000E+00  0.10566000000E+00 0. -1.
     999900   -1    0    0    0    0 -0.00000000000E+00 -0.00000000000E+00 -0.74505805969E-08  0.93827000000E+00  0.93827000000E+00 0.  1.
     999902    2    1    2    0    0  0.18300753600E-01 -0.27960867839E-02  0.13537414746E-01  0.10209953694E+01  0.10207377464E+01 0.  0.
     999903    2    3    3    0    0 -0.56713219950E-01 -0.10698013057E+00  0.45996745890E-01  0.13108805995E+00  0.20180217404E-01 0.  0.
         14    1    1    2    0    0 -0.18300753600E-01  0.27960867839E-02 -0.13537414746E-01  0.22934630619E-01  0.00000000000E+00 0.  1.
     999901    1    3    3    0    0  0.75013973550E-01  0.10418404378E+00 -0.32459331144E-01  0.88990730943E+00  0.88000000000E+00 0.  1.
        -11    1    4    4    0    0 -0.13068088635E-01 -0.34814885815E-01  0.22779867276E-01  0.43612322674E-01  0.51100000000E-03 0. -1.
         11    1    4    4    0    0 -0.43645131315E-01 -0.72165244753E-01  0.23216878615E-01  0.87475737272E-01  0.51100000000E-03 0.  1.
</event>
<event>
 8    1  0.1109553E+005  0.1043930E+01  0.7957747E-01            NaN
         13   -1    0    0    0    0  0.00000000000E+00  0.00000000000E+00  0.74505805969E-08  0.10566000000E+00  0.10566000000E+00 0. -1.
     999900   -1    0    0    0    0 -0.00000000000E+00 -0.00000000000E+00 -0.74505805969E-08  0.93827000000E+00  0.93827000000E+00 0.  1.
     999902    2    1    2    0    0 -0.78725371199E-02  0.59817916243E-02 -0.21778734341E-01  0.10200119746E+01  0.10197315119E+01 0.  0.
     999903    2    3    3    0    0 -0.12312402975E+00  0.23563679322E-01  0.31067521715E-01  0.13075118260E+00  0.20393802043E-01 0.  0.
         14    1    1    2    0    0  0.78725371199E-02 -0.59817916243E-02  0.21778734341E-01  0.23918025446E-01  0.00000000000E+00 0. -1.
     999901    1    3    3    0    0  0.11525149263E+00 -0.17581887698E-01 -0.52846256056E-01  0.88926079195E+00  0.88000000000E+00 0. -1.
        -11    1    4    4    0    0 -0.82246731499E-01  0.25064932641E-01  0.18432293477E-01  0.87936262454E-01  0.51100000000E-03 0.  1.
         11    1    4    4    0    0 -0.40877298247E-01 -0.15012533189E-02  0.12635228238E-01  0.42814920146E-01  0.51100000000E-03 0. -1.
</event>
<event>
 8    1  0.1109553E+005  0.1043930E+01  0.7957747E-01            NaN
         13   -1    0    0    0    0  0.00000000000E+00  0.00000000000E+00  0.74505805969E-08  0.10566000000E+00  0.10566000000E+00 0. -1.
     999900   -1    0    0    0    0 -0.00000000000E+00 -0.00000000000E+00 -0.74505805969E-08  0.93827000000E+00  0.93827000000E+00 0. -1.
     999902    2    1    2    0    0  0.18728940254E-01 -0.12304141035E-01  0.85783039282E-02  0.10199351591E+01  0.10196528706E+01 0.  0.
     999903    2    3    3    0    0  0.36811283408E-01  0.97170228702E-01 -0.74403671172E-01  0.12909419861E+00  0.18228601132E-01 0.  0.
         14    1    1    2    0    0 -0.18728940254E-01  0.12304141035E-01 -0.85783039282E-02  0.23994840860E-01  0.00000000000E+00 0. -1.
     999901    1    3    3    0    0 -0.18082343154E-01 -0.10947436974E+00  0.82981975100E-01  0.89084096053E+00  0.88000000000E+00 0.  1.
        -11    1    4    4    0    0  0.12711658184E-01  0.29594940512E-01 -0.13287402326E-01  0.34846275830E-01  0.51100000000E-03 0. -1.
         11    1    4    4    0    0  0.24099625224E-01  0.67575288190E-01 -0.61116268846E-01  0.94247922781E-01  0.51100000000E-03 0.  1.
</event>
<event>
 8    1  0.1109553E+005  0.1043930E+01  0.7957747E-01            NaN
         13   -1    0    0    0    0  0.00000000000E+00  0.00000000000E+00  0.74505805969E-08  0.10566000000E+00  0.10566000000E+00 0.  1.
     999900   -1    0    0    0    0 -0.00000000000E+00 -0.00000000000E+00 -0.74505805969E-08  0.93827000000E+00  0.93827000000E+00 0.  1.
     999902    2    1    2    0    0 -0.55290349010E-02  0.20085034505E-01 -0.11165763452E-01  0.10202941562E+01  0.10200203489E+01 0.  0.
     999903    2    3    3    0    0 -0.88704799846E-01  0.60138569848E-01 -0.75711884818E-01  0.13311396293E+00  0.22401975939E-01 0.  0.
         14    1    1    2    0    0  0.55290349010E-02 -0.20085034505E-01  0.11165763452E-01  0.23635843786E-01  0.00000000000E+00 0. -1.
     999901    1    3    3    0    0  0.83175764945E-01 -0.40053535343E-01  0.64546121366E-01  0.88718019328E+00  0.88000000000E+00 0. -1.
        -11    1    4    4    0    0 -0.27331975890E-01  0.19756025975E-01 -0.11788793169E-01  0.35729179025E-01  0.51100000000E-03 0. -1.
         11    1    4    4    0    0 -0.61372823955E-01  0.40382543873E-01 -0.63923091648E-01  0.97384783908E-01  0.51100000000E-03 0.  1.
</event>
<event>
 8    1  0.1109553E+005  0.1043930E+01  0.7957747E-01            NaN
         13   -1    0    0    0    0  0.00000000000E+00  0.00000000000E+00  0.74505805969E-08  0.10566000000E+00  0.10566000000E+00 0.  1.
     999900   -1    0    0    0    0 -0.00000000000E+00 -0.00000000000E+00 -0.74505805969E-08  0.93827000000E+00  0.93827000000E+00 0.  1.
     999902    2    1    2    0    0 -0.15739548723E-01 -0.11929300005E-01  0.12503294114E-01  0.10205553566E+01  0.10202876368E+01 0.  0.
     999903    2    3    3    0    0  0.25272261756E-01  0.81489432594E-01 -0.93817365562E-01  0.12830364830E+00  0.19516998954E-01 0.  0.
         14    1    1    2    0    0  0.15739548723E-01  0.11929300005E-01 -0.12503294114E-01  0.23374643448E-01  0.00000000000E+00 0. -1.
     999901    1    3    3    0    0 -0.41011810478E-01 -0.93418732600E-01  0.10632065968E+00  0.89225170825E+00  0.88000000000E+00 0. -1.
        -11    1    4    4    0    0 -0.12430485318E-02  0.25724647682E-01 -0.26627687881E-01  0.37048583656E-01  0.51100000000E-03 0. -1.
         11    1    4    4    0    0  0.26515310288E-01  0.55764784913E-01 -0.67189677681E-01  0.91255064648E-01  0.51100000000E-03 0.  1.
</event>
<event>
 8    1  0.1109553E+005  0.1043930E+01  0.7957747E-01            NaN
         13   -1    0    0    0    0  0.00000000000E+00  0.00000000000E+00  0.74505805969E-08  0.10566000000E+00  0.10566000000E+00 0.  1.
     999900   -1    0    0    0    0 -0.00000000000E+00 -0.00000000000E+00 -0.74505805969E-08  0.93827000000E+00  0.93827000000E+00 0. -1.
     999902    2    1    2    0    0 -0.87329688380E-02  0.18130352784E-01 -0.11425448130E-01  0.10207887964E+01  0.10205264581E+01 0.  0.
     999903    2    3    3    0    0 -0.10788426379E+00 -0.70915218837E-01 -0.98334254543E-02  0.13075361307E+00  0.18216158752E-01 0.  0.
         14    1    1    2    0    0  0.87329688380E-02 -0.18130352784E-01  0.11425448130E-01  0.23141203551E-01  0.00000000000E+00 0.  1.
     999901    1    3    3    0    0  0.99151294947E-01  0.89045571621E-01 -0.15920226756E-02  0.89003518338E+00  0.88000000000E+00 0. -1.
        -11    1    4    4    0    0 -0.52394788805E-01 -0.23732877458E-01 -0.55542463058E-02  0.57789048611E-01  0.51100000000E-03 0.  1.
         11    1    4    4    0    0 -0.55489474981E-01 -0.47182341379E-01 -0.42791791485E-02  0.72964564460E-01  0.51100000000E-03 0. -1.
</event>
<event>
 8    1  0.1109553E+005  0.1043930E+01  0.7957747E-01            NaN
         13   -1    0    0    0    0  0.00000000000E+00  0.00000000000E+00  0.74505805969E-08  0.10566000000E+00  0.10566000000E+00 0. -1.
     999900   -1    0    0    0    0 -0.00000000000E+00 -0.00000000000E+00 -0.74505805969E-08  0.93827000000E+00  0.93827000000E+00 0.  1.
     999902    2    1    2    0    0 -0.54046830679E-02 -0.20525085361E-01 -0.61158701924E-02  0.10218416864E+01  0.10216029261E+01 0.  0.
     999903    2    3    3    0    0  0.11669738636E+00 -0.15367595525E-01  0.54691786041E-01  0.13131763503E+00  0.19967143855E-01 0.  0.
         14    1    1    2    0    0  0.54046830679E-02  0.20525085361E-01  0.61158701924E-02  0.22088313570E-01  0.00000000000E+00 0.  1.
     999901    1    3    3    0    0 -0.12210206943E+00 -0.51574898365E-02 -0.60807656234E-01  0.89052405140E+00  0.88000000000E+00 0.  1.
        -11    1    4    4    0    0  0.64361063128E-01  0.14696617013E-03  0.35146892477E-01  0.73334393144E-01  0.51100000000E-03 0.  1.
         11    1    4    4    0    0  0.52336323236E-01 -0.15514561695E-01  0.19544893565E-01  0.57983241889E-01  0.51100000000E-03 0. -1.
</event>
<event>
 8    1  0.1109553E+005  0.1043930E+01  0.7957747E-01            NaN
         13   -1    0    0    0    0  0.00000000000E+00  0.00000000000E+00  0.74505805969E-08  0.10566000000E+00  0.10566000000E+00 0.  1.
     999900   -1    0    0    0    0 -0.00000000000E+00 -0.00000000000E+00 -0.74505805969E-08  0.93827000000E+00  0.93827000000E+00 0. -1.
     999902    2    1    2    0    0  0.20461954229E-01  0.76275980087E-02 -0.85673388184E-02  0.10204721417E+01  0.10202024901E+01 0.  0.
     999903    2    3    3    0    0  0.85103752612E-01 -0.13611629928E-02  0.98343037705E-01  0.13160252890E+00  0.20084100053E-01 0.  0.
         14    1    1    2    0    0 -0.20461954229E-01 -0.76275980087E-02  0.85673388184E-02  0.23457858314E-01  0.00000000000E+00 0.  1.
     999901    1    3    3    0    0 -0.64641798383E-01  0.89887610015E-02 -0.10691037652E+00  0.88886961278E+00  0.88000000000E+00 0. -1.
        -11    1    4    4    0    0  0.41088776251E-01  0.55201888121E-02  0.59339981353E-01  0.72389602336E-01  0.51100000000E-03 0.  1.
         11    1    4    4    0    0  0.44014976361E-01 -0.68813518049E-02  0.39003056352E-01  0.59212926566E-01  0.51100000000E-03 0. -1.
</event>
<event>
 8    1  0.1109553E+005  0.1043930E+01  0.7957747E-01            NaN
         13   -1    0    0    0    0  0.00000000000E+00  0.00000000000E+00  0.74505805969E-08  0.10566000000E+00  0.10566000000E+00 0.  1.
     999900   -1    0    0    0    0 -0.00000000000E+00 -0.00000000000E+00 -0.74505805969E-08  0.93827000000E+00  0.93827000000E+00 0.  1.
     999902    2    1    2    0    0 -0.18516151597E-01 -0.15172208987E-01  0.27277907520E-02  0.10198367512E+01  0.10195521146E+01 0.  0.
     999903    2    3    3    0    0  0.87013458233E-01 -0.73577571266E-01  0.58788243200E-01  0.12984211120E+00  0.20442979122E-01 0.  0.
         14    1    1    2    0    0  0.18516151597E-01  0.15172208987E-01 -0.27277907520E-02  0.24093248803E-01  0.00000000000E+00 0. -1.
     999901    1    3    3    0    0 -0.10552960983E+00  0.58405362279E-01 -0.56060452448E-01  0.88999464000E+00  0.88000000000E+00 0.  1.
        -11    1    4    4    0    0  0.56905654995E-01 -0.34919743451E-01  0.33555715718E-01  0.74725425603E-01  0.51100000000E-03 0. -1.
         11    1    4    4    0    0  0.30107803238E-01 -0.38657827815E-01  0.25232527482E-01  0.55116685598E-01  0.51100000000E-03 0.  1.
</event>
<event>
 8    1  0.1109553E+005  0.1043930E+01  0.7957747E-01            NaN
         13   -1    0    0    0    0  0.00000000000E+00  0.00000000000E+00  0.74505805969E-08  0.10566000000E+00  0.10566000000E+00 0. -1.
     999900   -1    0    0    0    0 -0.00000000000E+00 -0.00000000000E+00 -0.74505805969E-08  0.93827000000E+00  0.93827000000E+00 0.  1.
     999902    2    1    2    0    0 -0.22108882768E-01 -0.84368791059E-02  0.52867658089E-04  0.10202659678E+01  0.10199914993E+01 0.  0.
     999903    2    3    3    0    0 -0.88003293250E-01  0.24825536881E-01  0.93372154923E-01  0.13225867556E+00  0.20325133234E-01 0.  0.
         14    1    1    2    0    0  0.22108882768E-01  0.84368791059E-02 -0.52867658089E-04  0.23664032228E-01  0.00000000000E+00 0.  1.
     999901    1    3    3    0    0  0.65894410482E-01 -0.33262415987E-01 -0.93319287265E-01  0.88800729221E+00  0.88000000000E+00 0.  1.
        -11    1    4    4    0    0 -0.39579337689E-01  0.33157329720E-02  0.49487208117E-01  0.63456780136E-01  0.51100000000E-03 0. -1.
         11    1    4    4    0    0 -0.48423955562E-01  0.21509803909E-01  0.43884946806E-01  0.68801895422E-01  0.51100000000E-03 0.  1.
</event>
<event>
 8    1  0.1109553E+005  0.1043930E+01  0.7957747E-01            NaN
         13   -1    0    0    0    0  0.00000000000E+00  0.00000000000E+00  0.74505805969E-08  0.10566000000E+00  0.10566000000E+00 0. -1.
     999900   -1    0    0    0    0 -0.00000000000E+00 -0.00000000000E+00 -0.74505805969E-08  0.93827000000E+00  0.93827000000E+00 0.  1.
     999902    2    1    2    0    0 -0.19269473146E-01  0.70402577574E-02  0.12871187248E-01  0.10197113030E+01  0.10194236588E+01 0.  0.
     999903    2    3    3    0    0 -0.58910969720E-01 -0.35855371928E-01  0.11117008586E+00  0.13231389664E+00  0.19800737467E-01 0.  0.
         14    1    1    2    0    0  0.19269473146E-01 -0.70402577574E-02 -0.12871187248E-01  0.24218697029E-01  0.00000000000E+00 0.  1.
     999901    1    3    3    0    0  0.39641496574E-01  0.42895629685E-01 -0.98298898612E-01  0.88739740633E+00  0.88000000000E+00 0.  1.
        -11    1    4    4    0    0 -0.30349523490E-01 -0.27242911976E-01  0.52385327422E-01  0.66390914131E-01  0.51100000000E-03 0. -1.
         11    1    4    4    0    0 -0.28561446230E-01 -0.86124599516E-02  0.58784758437E-01  0.65922982508E-01  0.51100000000E-03 0.  1.
</event>
<event>
 8    1  0.1109553E+005  0.1043930E+01  0.7957747E-01            NaN
         13   -1    0    0    0    0  0.00000000000E+00  0.00000000000E+00  0.74505805969E-08  0.10566000000E+00  0.10566000000E+00 0. -1.
     999900   -1    0    0    0    0 -0.00000000000E+00 -0.00000000000E+00 -0.74505805969E-08  0.93827000000E+00  0.93827000000E+00 0.  1.
     999902    2    1    2    0    0  0.36941716537E-02  0.65147857276E-02 -0.23173881440E-01  0.10195759835E+01  0.10192850769E+01 0.  0.
     999903    2    3    3    0    0  0.47155167396E-01  0.11769268175E+00 -0.29011955417E-01  0.13149745895E+00  0.19357453395E-01 0.  0.
         14    1    1    2    0    0 -0.36941716537E-02 -0.65147857276E-02  0.23173881440E-01  0.24354016472E-01  0.00000000000E+00 0. -1.
     999901    1    3    3    0    0 -0.43460995742E-01 -0.11117789603E+00  0.58380739769E-02  0.88807852458E+00  0.88000000000E+00 0. -1.
        -11    1    4    4    0    0  0.17507174818E-01  0.37841120002E-01 -0.59235943360E-03  0.41702080809E-01  0.51100000000E-03 0. -1.
         11    1    4    4    0    0  0.29647992578E-01  0.79851561751E-01 -0.28419595984E-01  0.89795378137E-01  0.51100000000E-03 0.  1.
</event>
<event>
 8    1  0.1109553E+005  0.1043930E+01  0.7957747E-01            NaN
         13   -1    0    0    0    0  0.00000000000E+00  0.00000000000E+00  0.74505805969E-08  0.10566000000E+00  0.10566000000E+00 0.  1.
     999900   -1    0    0    0    0 -0.00000000000E+00 -0.00000000000E+00 -0.74505805969E-08  0.93827000000E+00  0.93827000000E+00 0. -1.
     999902    2    1    2    0    0 -0.14254211097E-01 -0.85530208038E-02  0.18859037976E-01  0.10187903896E+01  0.10184801706E+01 0.  0.
     999903    2    3    3    0    0 -0.11210705738E+00  0.10600132114E-01 -0.60813122258E-01  0.12958305947E+00  0.20326788940E-01 0.  0.
         14    1    1    2    0    0  0.14254211097E-01  0.85530208038E-02 -0.18859037976E-01  0.25139610424E-01  0.00000000000E+00 0. -1.
     999901    1    3    3    0    0  0.97852846283E-01 -0.19153152918E-01  0.79672160234E-01  0.88920733010E+00  0.88000000000E+00 0.  1.
        -11    1    4    4    0    0 -0.40234099275E-01 -0.36955594117E-02 -0.14691619847E-01  0.42994705704E-01  0.51100000000E-03 0.  1.
         11    1    4    4    0    0 -0.71872958105E-01  0.14295691526E-01 -0.46121502411E-01  0.86588353770E-01  0.51100000000E-03 0. -1.
</event>
<event>
 8    1  0.1109553E+005  0.1043930E+01  0.7957747E-01            NaN
         13   -1    0    0    0    0  0.00000000000E+00  0.00000000000E+00  0.74505805969E-08  0.10566000000E+00  0.10566000000E+00 0. -1.
     999900   -1    0    0    0    0 -0.00000000000E+00 -0.00000000000E+00 -0.74505805969E-08  0.93827000000E+00  0.93827000000E+00 0. -1.
     999902    2    1    2    0    0 -0.57490539719E-02  0.12100069545E-01 -0.19448866812E-01  0.10203138673E+01  0.10200405218E+01 0.  0.
     999903    2    3    3    0    0 -0.48109879065E-01  0.21294403266E-01 -0.12103156413E+00  0.13341025376E+00  0.19535716504E-01 0.  0.
         14    1    1    2    0    0  0.57490539719E-02 -0.12100069545E-01  0.19448866812E-01  0.23616132724E-01  0.00000000000E+00 0. -1.
     999901    1    3    3    0    0  0.42360825093E-01 -0.91943337204E-02  0.10158269731E+00  0.88690361352E+00  0.88000000000E+00 0.  1.
        -11    1    4    4    0    0 -0.14700209499E-01  0.14914118528E-01 -0.59818862078E-01  0.63380473902E-01  0.51100000000E-03 0.  1.
         11    1    4    4    0    0 -0.33409669566E-01  0.63802847379E-02 -0.61212702048E-01  0.70029779857E-01  0.51100000000E-03 0. -1.
</event>
<event>
 8    1  0.1109553E+005  0.1043930E+01  0.7957747E-01            NaN
         13   -1    0    0    0    0  0.00000000000E+00  0.00000000000E+00  0.74505805969E-08  0.10566000000E+00  0.10566000000E+00 0. -1.
     999900   -1    0    0    0    0 -0.00000000000E+00 -0.00000000000E+00 -0.74505805969E-08  0.93827000000E+00  0.93827000000E+00 0. -1.
     999902    2    1    2    0    0  0.20977813450E-01 -0.18811875283E-02  0.97788949513E-02  0.10207085808E+01  0.10204443996E+01 0.  0.
     999903    2    3    3    0    0  0.81072025974E-01 -0.10621569015E-01 -0.10100152314E+00  0.13168664086E+00  0.21320707797E-01 0.  0.
         14    1    1    2    0    0 -0.20977813450E-01  0.18811875283E-02 -0.97788949513E-02  0.23221419210E-01  0.00000000000E+00 0. -1.
     999901    1    3    3    0    0 -0.60094212524E-01  0.87403814871E-02  0.11078041809E+00  0.88902193993E+00  0.88000000000E+00 0.  1.
        -11    1    4    4    0    0  0.47218669815E-01  0.43375777788E-02 -0.54172656825E-01  0.71995522281E-01  0.51100000000E-03 0.  1.
         11    1    4    4    0    0  0.33853356159E-01 -0.14959146794E-01 -0.46828866311E-01  0.59691118577E-01  0.51100000000E-03 0. -1.
</event>
<event>
 8    1  0.1109553E+005  0.1043930E+01  0.7957747E-01            NaN
         13   -1    0    0    0    0  0.00000000000E+00  0.00000000000E+00  0.74505805969E-08  0.10566000000E+00  0.10566000000E+00 0. -1.
     999900   -1    0    0    0    0 -0.00000000000E+00 -0.00000000000E+00 -0.74505805969E-08  0.93827000000E+00  0.93827000000E+00 0.  1.
     999902    2    1    2    0    0  0.11704306679E-01 -0.14819114452E-01 -0.14360482136E-01  0.10202061640E+01  0.10199302901E+01 0.  0.
     999903    2    3    3    0    0  0.11170694902E+00  0.62986850417E-01  0.14464385017E-01  0.13066405166E+00  0.20447253541E-01 0.  0.
         14    1    1    2    0    0 -0.11704306679E-01  0.14819114452E-01  0.14360482136E-01  0.23723836012E-01  0.00000000000E+00 0. -1.
     999901    1    3    3    0    0 -0.10000264234E+00 -0.77805964868E-01 -0.28824867153E-01  0.88954211233E+00  0.88000000000E+00 0.  1.
        -11    1    4    4    0    0  0.29427061538E-01  0.86051174448E-02  0.86677051859E-02  0.31865188391E-01  0.51100000000E-03 0.  1.
         11    1    4    4    0    0  0.82279887479E-01  0.54381732972E-01  0.57966798315E-02  0.98798863266E-01  0.51100000000E-03 0. -1.
</event>
<event>
 8    1  0.1109553E+005  0.1043930E+01  0.7957747E-01            NaN
         13   -1    0    0    0    0  0.00000000000E+00  0.00000000000E+00  0.74505805969E-08  0.10566000000E+00  0.10566000000E+00 0.  1.
     999900   -1    0    0    0    0 -0.00000000000E+00 -0.00000000000E+00 -0.74505805969E-08  0.93827000000E+00  0.93827000000E+00 0. -1.
     999902    2    1    2    0    0  0.18403155316E-01 -0.11713960902E-03 -0.16284347706E-01  0.10193562370E+01  0.10190599924E+01 0.  0.
     999903    2    3    3    0    0 -0.55913694510E-01  0.81367116894E-01  0.78099120378E-01  0.12746447381E+00  0.20019254065E-01 0.  0.
         14    1    1    2    0    0 -0.18403155316E-01  0.11713960902E-03  0.16284347706E-01  0.24573762990E-01  0.00000000000E+00 0.  1.
     999901    1    3    3    0    0  0.74316849826E-01 -0.81484256503E-01 -0.94383468084E-01  0.89189176321E+00  0.88000000000E+00 0. -1.
        -11    1    4    4    0    0 -0.46984237643E-01  0.52552271732E-01  0.56847134677E-01  0.90560022599E-01  0.51100000000E-03 0.  1.
         11    1    4    4    0    0 -0.89294568669E-02  0.28814845162E-01  0.21251985700E-01  0.36904451206E-01  0.51100000000E-03 0. -1.
</event>
<event>
 7    1  0.1109553E+005  0.1043930E+01  0.7957747E-01            NaN
         13   -1    0    0    0    0  0.00000000000E+00  0.00000000000E+00  0.74505805969E-08  0.10566000000E+00  0.10566000000E+00 0.  1.
     999900   -1    0    0    0    0 -0.00000000000E+00 -0.00000000000E+00 -0.74505805969E-08  0.93827000000E+00  0.93827000000E+00 0.  1.
     999903    2    1    2    0    0 -0.92464960536E-01 -0.71342658795E-02 -0.59055350126E-01  0.11177710546E+00  0.20147462616E-01 0.  0.
         14    1    1    2    0    0  0.22402625861E-01 -0.33773606489E-01  0.25299355654E-01  0.47776474726E-01  0.00000000000E+00 0.  1.
     999901    1    1    2    0    0  0.70062334675E-01  0.40907872368E-01  0.33755994471E-01  0.88437641981E+00  0.88000000000E+00 0. -1.
        -11    1    3    3    0    0 -0.53733019397E-01  0.38257333244E-02 -0.26672584193E-01  0.60112906081E-01  0.51100000000E-03 0.  1.
         11    1    3    3    0    0 -0.38731941139E-01 -0.10959999204E-01 -0.32382765933E-01  0.51664199378E-01  0.51100000000E-03 0. -1.
</event>
<event>
 8    1  0.1109553E+005  0.1043930E+01  0.7957747E-01            NaN
         13   -1    0    0    0    0  0.00000000000E+00  0.00000000000E+00  0.74505805969E-08  0.10566000000E+00  0.10566000000E+00 0. -1.
     999900   -1    0    0    0    0 -0.00000000000E+00 -0.00000000000E+00 -0.74505805969E-08  0.93827000000E+00  0.93827000000E+00 0. -1.
     999902    2    1    2    0    0 -0.15245052028E-01  0.23131638010E-02  0.17577273830E-01  0.10205478937E+01  0.10202800010E+01 0.  0.
     999903    2    3    3    0    0  0.11725705875E+00 -0.47844682426E-01 -0.11733106387E-01  0.12873417031E+00  0.19912040473E-01 0.  0.
         14    1    1    2    0    0  0.15245052028E-01 -0.23131638010E-02 -0.17577273830E-01  0.23382106266E-01  0.00000000000E+00 0.  1.
     999901    1    3    3    0    0 -0.13250211078E+00  0.50157846227E-01  0.29310380218E-01  0.89181372342E+00  0.88000000000E+00 0.  1.
        -11    1    4    4    0    0  0.88436449126E-01 -0.41240600097E-01 -0.19996188074E-02  0.97601497051E-01  0.51100000000E-03 0.  1.
         11    1    4    4    0    0  0.28820609628E-01 -0.66040823296E-02 -0.97334875798E-02  0.31132673258E-01  0.51100000000E-03 0. -1.
</event>
<event>
 8    1  0.1109553E+005  0.1043930E+01  0.7957747E-01            NaN
         13   -1    0    0    0    0  0.00000000000E+00  0.00000000000E+00  0.74505805969E-08  0.10566000000E+00  0.10566000000E+00 0.  1.
     999900   -1    0    0    0    0 -0.00000000000E+00 -0.00000000000E+00 -0.74505805969E-08  0.93827000000E+00  0.93827000000E+00 0.  1.
     999902    2    1    2    0    0  0.80744959601E-02  0.19586158426E-01 -0.11659819467E-01  0.10197480547E+01  0.10194612934E+01 0.  0.
     999903    2    3    3    0    0  0.56648429621E-01  0.94563346640E-01 -0.71017560195E-01  0.13323559167E+00  0.23599956037E-01 0.  0.
         14    1    1    2    0    0 -0.80744959601E-02 -0.19586158426E-01  0.11659819467E-01  0.24181945267E-01  0.00000000000E+00 0.  1.
     999901    1    3    3    0    0 -0.48573933661E-01 -0.74977188213E-01  0.59357740729E-01  0.88651246306E+00  0.88000000000E+00 0. -1.
        -11    1    4    4    0    0  0.14336699270E-01  0.95605232081E-02 -0.64362325042E-02  0.18401922721E-01  0.51100000000E-03 0.  1.
         11    1    4    4    0    0  0.42311730351E-01  0.85002823432E-01 -0.64581327691E-01  0.11483366895E+00  0.51100000000E-03 0. -1.
</event>
<event>
 8    1  0.1109553E+005  0.1043930E+01  0.7957747E-01            NaN
         13   -1    0    0    0    0  0.00000000000E+00  0.00000000000E+00  0.74505805969E-08  0.10566000000E+00  0.10566000000E+00 0. -1.
     999900   -1    0    0    0    0 -0.00000000000E+00 -0.00000000000E+00 -0.74505805969E-08  0.93827000000E+00  0.93827000000E+00 0.  1.
     999902    2    1    2    0    0 -0.16441676382E-02  0.17738004491E-01 -0.16216717429E-01  0.10198401263E+01  0.10195555704E+01 0.  0.
     999903    2    3    3    0    0 -0.69817701469E-01 -0.90294110804E-01 -0.58118355427E-01  0.12962986130E+00  0.19965465651E-01 0.  0.
         14    1    1    2    0    0  0.16441676382E-02 -0.17738004491E-01  0.16216717429E-01  0.24089873697E-01  0.00000000000E+00 0. -1.
     999901    1    3    3    0    0  0.68173533831E-01  0.10803211530E+00  0.41901637998E-01  0.89021026500E+00  0.88000000000E+00 0. -1.
        -11    1    4    4    0    0 -0.20745335750E-01 -0.14236715188E-01 -0.15760069804E-01  0.29693331506E-01  0.51100000000E-03 0.  1.
         11    1    4    4    0    0 -0.49072365720E-01 -0.76057395617E-01 -0.42358285624E-01  0.99936529794E-01  0.51100000000E-03 0. -1.
</event>
<event>
 8    1  0.1109553E+005  0.1043930E+01  0.7957747E-01            NaN
         13   -1    0    0    0    0  0.00000000000E+00  0.00000000000E+00  0.74505805969E-08  0.10566000000E+00  0.10566000000E+00 0. -1.
     999900   -1    0    0    0    0 -0.00000000000E+00 -0.00000000000E+00 -0.74505805969E-08  0.93827000000E+00  0.93827000000E+00 0.  1.
     999902    2    1    2    0    0 -0.23099652979E-01  0.24793028191E-03 -0.53067953684E-02  0.10202273100E+01  0.10199519334E+01 0.  0.
     999903    2    3    3    0    0  0.26675026328E-01  0.10254607344E+00  0.71686100447E-01  0.12957006120E+00  0.20548711775E-01 0.  0.
         14    1    1    2    0    0  0.23099652979E-01 -0.24793028191E-03  0.53067953684E-02  0.23702690021E-01  0.00000000000E+00 0.  1.
     999901    1    3    3    0    0 -0.49774679307E-01 -0.10229814315E+00 -0.76992895815E-01  0.89065724878E+00  0.88000000000E+00 0.  1.
        -11    1    4    4    0    0 -0.25764877555E-02  0.23112840650E-02  0.27426630352E-02  0.44456320932E-02  0.51100000000E-03 0. -1.
         11    1    4    4    0    0  0.29251514083E-01  0.10023478937E+00  0.68943437412E-01  0.12512442911E+00  0.51100000000E-03 0.  1.
</event>
<event>
 8    1  0.1109553E+005  0.1043930E+01  0.7957747E-01            NaN
         13   -1    0    0    0    0  0.00000000000E+00  0.00000000000E+00  0.74505805969E-08  0.10566000000E+00  0.10566000000E+00 0.  1.
     999900   -1    0    0    0    0 -0.00000000000E+00 -0.00000000000E+00 -0.74505805969E-08  0.93827000000E+00  0.93827000000E+00 0. -1.
     999902    2    1    2    0    0  0.12762284866E-01 -0.78262362145E-02 -0.16688124862E-01  0.10215108252E+01  0.10212647779E+01 0.  0.
     999903    2    3    3    0    0 -0.10385248598E+00 -0.49549570421E-01  0.56705830139E-01  0.12981215745E+00  0.19878286587E-01 0.  0.
         14    1    1    2    0    0 -0.12762284866E-01  0.78262362145E-02  0.16688124862E-01  0.22419174822E-01  0.00000000000E+00 0. -1.
     999901    1    3    3    0    0  0.11661477084E+00  0.41723334206E-01 -0.73393955001E-01  0.89169866773E+00  0.88000000000E+00 0. -1.
        -11    1    4    4    0    0 -0.43831865538E-01 -0.23290509800E-01  0.35219316234E-01  0.60863302903E-01  0.51100000000E-03 0.  1.
         11    1    4    4    0    0 -0.60020620440E-01 -0.26259060620E-01  0.21486513905E-01  0.68948854548E-01  0.51100000000E-03 0. -1.
</event>
<event>
 8    1  0.1109553E+005  0.1043930E+01  0.7957747E-01            NaN
         13   -1    0    0    0    0  0.00000000000E+00  0.00000000000E+00  0.74505805969E-08  0.10566000000E+00  0.10566000000E+00 0. -1.
     999900   -1    0    0    0    0 -0.00000000000E+00 -0.00000000000E+00 -0.74505805969E-08  0.93827000000E+00  0.93827000000E+00 0. -1.
     999902    2    1    2    0    0 -0.11324752329E-01  0.14978731166E-01 -0.11622024849E-01  0.10218464345E+01  0.10216077779E+01 0.  0.
     999903    2    3    3    0    0  0.41534373465E-01 -0.12079703963E+00 -0.11157525491E-01  0.12986585016E+00  0.20582023699E-01 0.  0.
         14    1    1    2    0    0  0.11324752329E-01 -0.14978731166E-01  0.11622024849E-01  0.22083565478E-01  0.00000000000E+00 0. -1.
     999901    1    3    3    0    0 -0.52859125794E-01  0.13577577080E+00 -0.46449935825E-03  0.89198058436E+00  0.88000000000E+00 0.  1.
        -11    1    4    4    0    0  0.36748600949E-01 -0.87373873028E-01 -0.14663998549E-01  0.95916355925E-01  0.51100000000E-03 0.  1.
         11    1    4    4    0    0  0.47857725167E-02 -0.33423166606E-01  0.35064730582E-02  0.33949494236E-01  0.51100000000E-03 0. -1.
</event>
<event>
 8    1  0.1109553E+005  0.1043930E+01  0.7957747E-01            NaN
         13   -1    0    0    0    0  0.00000000000E+00  0.00000000000E+00  0.74505805969E-08  0.10566000000E+00  0.10566000000E+00 0.  1.
     999900   -1    0    0    0    0 -0.00000000000E+00 -0.00000000000E+00 -0.74505805969E-08  0.93827000000E+00  0.93827000000E+00 0.  1.
     999902    2    1    2    0    0 -0.13656724769E-01  0.11157700453E-01 -0.15938665199E-01  0.10201593993E+01  0.10198824238E+01 0.  0.
     999903    2    3    3    0    0  0.45853519103E-01 -0.11829513317E+00 -0.97285870061E-02  0.12867856923E+00  0.19163638128E-01 0.  0.
         14    1    1    2    0    0  0.13656724769E-01 -0.11157700453E-01  0.15938665199E-01  0.23770600731E-01  0.00000000000E+00 0.  1.
     999901    1    3    3    0    0 -0.59510243872E-01  0.12945283363E+00 -0.62100781925E-02  0.89148083004E+00  0.88000000000E+00 0.  1.
        -11    1    4    4    0    0  0.24495419053E-01 -0.86697525744E-01 -0.88430519898E-02  0.90525947739E-01  0.51100000000E-03 0. -1.
         11    1    4    4    0    0  0.21358100050E-01 -0.31597607431E-01 -0.88553501623E-03  0.38152621488E-01  0.51100000000E-03 0.  1.
</event>
<event>
 8    1  0.1109553E+005  0.1043930E+01  0.7957747E-01            NaN
         13   -1    0    0    0    0  0.00000000000E+00  0.00000000000E+00  0.74505805969E-08  0.10566000000E+00  0.10566000000E+00 0.  1.
     999900   -1    0    0    0    0 -0.00000000000E+00 -0.00000000000E+00 -0.74505805969E-08  0.93827000000E+00  0.93827000000E+00 0.  1.
     999902    2    1    2    0    0 -0.30464214987E-02  0.19515145356E-01 -0.13389441795E-01  0.10200679227E+01  0.10197887861E+01 0.  0.
     999903    2    3    3    0    0 -0.76913585706E-01 -0.49189147862E-01 -0.91590716661E-01  0.13085924232E+00  0.20000249679E-01 0.  0.
         14    1    1    2    0    0  0.30464214987E-02 -0.19515145356E-01  0.13389441795E-01  0.23862077315E-01  0.00000000000E+00 0.  1.
     999901    1    3    3    0    0  0.73867164207E-01  0.68704293217E-01  0.78201274866E-01  0.88920868037E+00  0.88000000000E+00 0. -1.
        -11    1    4    4    0    0 -0.15838325910E-01 -0.18869151966E-02 -0.12220393920E-01  0.20100053860E-01  0.51100000000E-03 0. -1.
         11    1    4    4    0    0 -0.61075259795E-01 -0.47302232665E-01 -0.79370322742E-01  0.11075918846E+00  0.51100000000E-03 0.  1.
</event>
<event>
 8    1  0.1109553E+005  0.1043930E+01  0.7957747E-01            NaN
         13   -1    0    0    0    0  0.00000000000E+00  0.00000000000E+00  0.74505805969E-08  0.10566000000E+00  0.10566000000E+00 0. -1.
     999900   -1    0    0    0    0 -0.00000000000E+00 -0.00000000000E+00 -0.74505805969E-08  0.93827000000E+00  0.93827000000E+00 0. -1.
     999902    2    1    2    0    0  0.98752787161E-02 -0.18497981736E-01  0.11298902890E-01  0.10201106452E+01  0.10198325190E+01 0.  0.
     999903    2    3    3    0    0 -0.83455899130E-01  0.87261909938E-01  0.40740695871E-01  0.12839169695E+00  0.15655526797E-01 0.  0.
         14    1    1    2    0    0 -0.98752787161E-02  0.18497981736E-01 -0.11298902890E-01  0.23819354831E-01  0.00000000000E+00 0.  1.
     999901    1    3    3    0    0  0.93331177846E-01 -0.10575989167E+00 -0.29441792980E-01  0.89171894822E+00  0.88000000000E+00 0. -1.
        -11    1    4    4    0    0 -0.41494324166E-01  0.45693283606E-01  0.12749995011E-01  0.63027601878E-01  0.51100000000E-03 0. -1.
         11    1    4    4    0    0 -0.41961574964E-01  0.41568626331E-01  0.27990700860E-01  0.65364095069E-01  0.51100000000E-03 0.  1.
</event>
<event>
 8    1  0.1109553E+005  0.1043930E+01  0.7957747E-01            NaN
         13   -1    0    0    0    0  0.00000000000E+00  0.00000000000E+00  0.74505805969E-08  0.10566000000E+00  0.10566000000E+00 0.  1.
     999900   -1    0    0    0    0 -0.00000000000E+00 -0.00000000000E+00 -0.74505805969E-08  0.93827000000E+00  0.93827000000E+00 0.  1.
     999902    2    1    2    0    0 -0.74365536783E-02 -0.20225389164E-01 -0.68957778193E-02  0.10213043409E+01  0.10210536892E+01 0.  0.
     999903    2    3    3    0    0  0.39266114595E-01  0.88186428124E-01 -0.84740456832E-01  0.13001647753E+00  0.20116300499E-01 0.  0.
         14    1    1    2    0    0  0.74365536783E-02  0.20225389164E-01  0.68957778193E-02  0.22625659089E-01  0.00000000000E+00 0.  1.
     999901    1    3    3    0    0 -0.46702668274E-01 -0.10841181729E+00  0.77844679013E-01  0.89128786338E+00  0.88000000000E+00 0. -1.
        -11    1    4    4    0    0  0.12096519152E-01  0.32270393668E-01 -0.18293981269E-01  0.39020955328E-01  0.51100000000E-03 0. -1.
         11    1    4    4    0    0  0.27169595443E-01  0.55916034457E-01 -0.66446475563E-01  0.90995522207E-01  0.51100000000E-03 0.  1.
</event>
<event>
 8    1  0.1109553E+005  0.1043930E+01  0.7957747E-01            NaN
         13   -1    0    0    0    0  0.00000000000E+00  0.00000000000E+00  0.74505805969E-08  0.10566000000E+00  0.10566000000E+00 0.  1.
     999900   -1    0    0    0    0 -0.00000000000E+00 -0.00000000000E+00 -0.74505805969E-08  0.93827000000E+00  0.93827000000E+00 0.  1.
     999902    2    1    2    0    0  0.98339759289E-02  0.21088675677E-01 -0.78901207988E-02  0.10193598284E+01  0.10190636715E+01 0.  0.
     999903    2    3    3    0    0 -0.74033817888E-01 -0.59827819209E-01 -0.83762101969E-01  0.12844016679E+00  0.20503964896E-01 0.  0.
         14    1    1    2    0    0 -0.98339759289E-02 -0.21088675677E-01  0.78901207988E-02  0.24570171562E-01  0.00000000000E+00 0.  1.
     999901    1    3    3    0    0  0.83867793817E-01  0.80916494886E-01  0.75871981170E-01  0.89091966165E+00  0.88000000000E+00 0. -1.
        -11    1    4    4    0    0 -0.31635846064E-01 -0.13046245073E-01 -0.28683597295E-01  0.44654687788E-01  0.51100000000E-03 0. -1.
         11    1    4    4    0    0 -0.42397971824E-01 -0.46781574137E-01 -0.55078504674E-01  0.83785479002E-01  0.51100000000E-03 0.  1.
</event>
<event>
 7    1  0.1109553E+005  0.1043930E+01  0.7957747E-01            NaN
         13   -1    0    0    0    0  0.00000000000E+00  0.00000000000E+00  0.74505805969E-08  0.10566000000E+00  0.10566000000E+00 0.  1.
     999900   -1    0    0    0    0 -0.00000000000E+00 -0.00000000000E+00 -0.74505805969E-08  0.93827000000E+00  0.93827000000E+00 0. -1.
     999903    2    1    2    0    0  0.25098404972E-01 -0.80122738987E-01  0.17423951419E-01  0.87979733442E-01  0.19678825641E-01 0.  0.
         14    1    1    2    0    0  0.54009858848E-01 -0.83624347723E-02 -0.39947444052E-01  0.67696332651E-01  0.00000000000E+00 0.  1.
     999901    1    1    2    0    0 -0.79108263820E-01  0.88485173759E-01  0.22523492633E-01  0.88825393391E+00  0.88000000000E+00 0. -1.
        -11    1    3    3    0    0  0.77669897052E-02 -0.41579124251E-01  0.96278413292E-04  0.42301537715E-01  0.51100000000E-03 0. -1.
         11    1    3    3    0    0  0.17331415266E-01 -0.38543614736E-01  0.17327673006E-01  0.45678195727E-01  0.51100000000E-03 0.  1.
</event>
<event>
 8    1  0.1109553E+005  0.1043930E+01  0.7957747E-01            NaN
         13   -1    0    0    0    0  0.00000000000E+00  0.00000000000E+00  0.74505805969E-08  0.10566000000E+00  0.10566000000E+00 0.  1.
     999900   -1    0    0    0    0 -0.00000000000E+00 -0.00000000000E+00 -0.74505805969E-08  0.93827000000E+00  0.93827000000E+00 0.  1.
     999902    2    1    2    0    0  0.91051658585E-02  0.17065612908E-01  0.29550297015E-01  0.10086120266E+01  0.10079934826E+01 0.  0.
     999903    2    3    3    0    0 -0.26280521791E-01  0.12392635569E-01  0.11831022868E+00  0.12342712556E+00  0.19816706889E-01 0.  0.
         14    1    1    2    0    0 -0.91051658585E-02 -0.17065612908E-01 -0.29550297015E-01  0.35317973369E-01  0.00000000000E+00 0. -1.
     999901    1    3    3    0    0  0.35385687650E-01  0.46729773388E-02 -0.88759931668E-01  0.88518490107E+00  0.88000000000E+00 0.  1.
        -11    1    4    4    0    0 -0.22357515486E-01  0.12618352903E-02  0.62830277627E-01  0.66703490424E-01  0.51100000000E-03 0. -1.
         11    1    4    4    0    0 -0.39230063049E-02  0.11130800279E-01  0.55479951055E-01  0.56723635139E-01  0.51100000000E-03 0.  1.
</event>
<event>
 8    1  0.1109553E+005  0.1043930E+01  0.7957747E-01            NaN
         13   -1    0    0    0    0  0.00000000000E+00  0.00000000000E+00  0.74505805969E-08  0.10566000000E+00  0.10566000000E+00 0. -1.
     999900   -1    0    0    0    0 -0.00000000000E+00 -0.00000000000E+00 -0.74505805969E-08  0.93827000000E+00  0.93827000000E+00 0. -1.
     999902    2    1    2    0    0 -0.93259893570E-02 -0.22388978517E-01 -0.26829513693E-03  0.10196748476E+01  0.10193863264E+01 0.  0.
     999903    2    3    3    0    0  0.83700335201E-01 -0.87470262555E-01 -0.46437827081E-01  0.13118112432E+00  0.19880207499E-01 0.  0.
         14    1    1    2    0    0  0.93259893570E-02  0.22388978517E-01  0.26829513693E-03  0.24255152417E-01  0.00000000000E+00 0. -1.
     999901    1    3    3    0    0 -0.93026324558E-01  0.65081284039E-01  0.46169531944E-01  0.88849372326E+00  0.88000000000E+00 0.  1.
        -11    1    4    4    0    0  0.52275923594E-01 -0.66648459747E-01 -0.27997637882E-01  0.89212769390E-01  0.51100000000E-03 0.  1.
         11    1    4    4    0    0  0.31424411607E-01 -0.20821802808E-01 -0.18440189199E-01  0.41968354932E-01  0.51100000000E-03 0. -1.
</event>
<event>
 8    1  0.1109553E+005  0.1043930E+01  0.7957747E-01            NaN
         13   -1    0    0    0    0  0.00000000000E+00  0.00000000000E+00  0.74505805969E-08  0.10566000000E+00  0.10566000000E+00 0.  1.
     999900   -1    0    0    0    0 -0.00000000000E+00 -0.00000000000E+00 -0.74505805969E-08  0.93827000000E+00  0.93827000000E+00 0.  1.
     999902    2    1    2    0    0 -0.56870144410E-02 -0.21728291470E-01 -0.72299854121E-02  0.10203347998E+01  0.10200619443E+01 0.  0.
     999903    2    3    3    0    0 -0.49936731185E-01  0.10773427473E+00  0.44683725059E-01  0.12825093221E+00  0.18743405645E-01 0.  0.
         14    1    1    2    0    0  0.56870144410E-02  0.21728291470E-01  0.72299854121E-02  0.23595200201E-01  0.00000000000E+00 0. -1.
     999901    1    3    3    0    0  0.44249716744E-01 -0.12946256620E+00 -0.51913710471E-01  0.89208386759E+00  0.88000000000E+00 0. -1.
        -11    1    4    4    0    0 -0.14695191093E-01  0.46617020603E-01  0.11156443405E-01  0.50138035478E-01  0.51100000000E-03 0. -1.
         11    1    4    4    0    0 -0.35241540092E-01  0.61117254124E-01  0.33527281654E-01  0.78112896732E-01  0.51100000000E-03 0.  1.
</event>
<event>
 8    1  0.1109553E+005  0.1043930E+01  0.7957747E-01            NaN
         13   -1    0    0    0    0  0.00000000000E+00  0.00000000000E+00  0.74505805969E-08  0.10566000000E+00  0.10566000000E+00 0. -1.
     999900   -1    0    0    0    0 -0.00000000000E+00 -0.00000000000E+00 -0.74505805969E-08  0.93827000000E+00  0.93827000000E+00 0.  1.
     999902    2    1    2    0    0 -0.16900836104E-01 -0.92878559512E-02  0.69863747398E-02  0.10234187357E+01  0.10232131727E+01 0.  0.
     999903    2    3    3    0    0  0.10912891238E+00  0.11440606017E-01 -0.68601722852E-01  0.13099130053E+00  0.20310525646E-01 0.  0.
         14    1    1    2    0    0  0.16900836104E-01  0.92878559512E-02 -0.69863747398E-02  0.20511264251E-01  0.00000000000E+00 0. -1.
     999901    1    3    3    0    0 -0.12602974848E+00 -0.20728461968E-01  0.75588097592E-01  0.89242743522E+00  0.88000000000E+00 0.  1.
        -11    1    4    4    0    0  0.83075797813E-01  0.97096663910E-02 -0.41564396258E-01  0.93400888438E-01  0.51100000000E-03 0. -1.
         11    1    4    4    0    0  0.26053114568E-01  0.17309396260E-02 -0.27037326595E-01  0.37590412090E-01  0.51100000000E-03 0.  1.
</event>
<event>
 8    1  0.1109553E+005  0.1043930E+01  0.7957747E-01            NaN
         13   -1    0    0    0    0  0.00000000000E+00  0.00000000000E+00  0.74505805969E-08  0.10566000000E+00  0.10566000000E+00 0. -1.
     999900   -1    0    0    0    0 -0.00000000000E+00 -0.00000000000E+00 -0.74505805969E-08  0.93827000000E+00  0.93827000000E+00 0.  1.
     999902    2    1    2    0    0  0.34150317479E-02  0.64874333524E-02 -0.22400323560E-01  0.10203604491E+01  0.10200881934E+01 0.  0.
     999903    2    3    3    0    0  0.13937316951E-01 -0.76733751846E-02 -0.13087759828E+00  0.13352418119E+00  0.21133663671E-01 0.  0.
         14    1    1    2    0    0 -0.34150317479E-02 -0.64874333524E-02  0.22400323560E-01  0.23569550886E-01  0.00000000000E+00 0. -1.
     999901    1    3    3    0    0 -0.10522285204E-01  0.14160808537E-01  0.10847727472E+00  0.88683626793E+00  0.88000000000E+00 0. -1.
        -11    1    4    4    0    0  0.54868382103E-02 -0.42340822264E-02 -0.93305999930E-02  0.11634176510E-01  0.51100000000E-03 0. -1.
         11    1    4    4    0    0  0.84504787411E-02 -0.34392929582E-02 -0.12154699828E+00  0.12189000468E+00  0.51100000000E-03 0.  1.
</event>
<event>
 8    1  0.1109553E+005  0.1043930E+01  0.7957747E-01            NaN
         13   -1    0    0    0    0  0.00000000000E+00  0.00000000000E+00  0.74505805969E-08  0.10566000000E+00  0.10566000000E+00 0.  1.
     999900   -1    0    0    0    0 -0.00000000000E+00 -0.00000000000E+00 -0.74505805969E-08  0.93827000000E+00  0.93827000000E+00 0.  1.
     999902    2    1    2    0    0 -0.17521154004E-01 -0.11264477963E-01  0.12000083269E-01  0.10198908382E+01  0.10196074934E+01 0.  0.
     999903    2    3    3    0    0 -0.62985195621E-01 -0.24584047473E-01 -0.10959547072E+00  0.13026739609E+00  0.19670206494E-01 0.  0.
         14    1    1    2    0    0  0.17521154004E-01  0.11264477963E-01 -0.12000083269E-01  0.24039161796E-01  0.00000000000E+00 0.  1.
     999901    1    3    3    0    0  0.45464041617E-01  0.13319569509E-01  0.12159555399E+00  0.88962344212E+00  0.88000000000E+00 0. -1.
        -11    1    4    4    0    0 -0.59101432467E-01 -0.25774088352E-01 -0.92943753187E-01  0.11311978310E+00  0.51100000000E-03 0. -1.
         11    1    4    4    0    0 -0.38837631537E-02  0.11900408790E-02 -0.16651717533E-01  0.17147612992E-01  0.51100000000E-03 0.  1.
</event>
<event>
 8    1  0.1109553E+005  0.1043930E+01  0.7957747E-01            NaN
         13   -1    0    0    0    0  0.00000000000E+00  0.00000000000E+00  0.74505805969E-08  0.10566000000E+00  0.10566000000E+00 0.  1.
     999900   -1    0    0    0    0 -0.00000000000E+00 -0.00000000000E+00 -0.74505805969E-08  0.93827000000E+00  0.93827000000E+00 0.  1.
     999902    2    1    2    0    0  0.29167672168E-02  0.54634220358E-02  0.22634827627E-01  0.10204631738E+01  0.10201933136E+01 0.  0.
     999903    2    3    3    0    0 -0.43320687176E-01 -0.51556379277E-01  0.11272466813E+00  0.13282285287E+00  0.20007929894E-01 0.  0.
         14    1    1    2    0    0 -0.29167672168E-02 -0.54634220358E-02 -0.22634827627E-01  0.23466826224E-01  0.00000000000E+00 0. -1.
     999901    1    3    3    0    0  0.46237454393E-01  0.57019801313E-01 -0.90089840504E-01  0.88764032090E+00  0.88000000000E+00 0.  1.
        -11    1    4    4    0    0 -0.41182933278E-01 -0.38815813164E-01  0.83571304124E-01  0.10093129019E+00  0.51100000000E-03 0.  1.
         11    1    4    4    0    0 -0.21377538974E-02 -0.12740566113E-01  0.29153364007E-01  0.31891562686E-01  0.51100000000E-03 0. -1.
</event>
<event>
 8    1  0.1109553E+005  0.1043930E+01  0.7957747E-01            NaN
         13   -1    0    0    0    0  0.00000000000E+00  0.00000000000E+00  0.74505805969E-08  0.10566000000E+00  0.10566000000E+00 0. -1.
     999900   -1    0    0    0    0 -0.00000000000E+00 -0.00000000000E+00 -0.74505805969E-08  0.93827000000E+00  0.93827000000E+00 0. -1.
     999902    2    1    2    0    0  0.68209253818E-02 -0.22125889914E-01 -0.63312912924E-04  0.10207765114E+01  0.10205138912E+01 0.  0.
     999903    2    3    3    0    0 -0.10612400829E+00  0.65731217862E-01  0.25121241353E-01  0.12886301152E+00  0.19791433339E-01 0.  0.
         14    1    1    2    0    0 -0.68209253818E-02  0.22125889914E-01  0.63312912924E-04  0.23153488637E-01  0.00000000000E+00 0. -1.
     999901    1    3    3    0    0  0.11294493367E+00 -0.87857107776E-01 -0.25184554266E-01  0.89191349984E+00  0.88000000000E+00 0. -1.
        -11    1    4    4    0    0 -0.81946028993E-01  0.58857993269E-01  0.23931440254E-01  0.10369373170E+00  0.51100000000E-03 0.  1.
         11    1    4    4    0    0 -0.24177979297E-01  0.68732245936E-02  0.11898010990E-02  0.25169279824E-01  0.51100000000E-03 0. -1.
</event>
<event>
 8    1  0.1109553E+005  0.1043930E+01  0.7957747E-01            NaN
         13   -1    0    0    0    0  0.00000000000E+00  0.00000000000E+00  0.74505805969E-08  0.10566000000E+00  0.10566000000E+00 0. -1.
     999900   -1    0    0    0    0 -0.00000000000E+00 -0.00000000000E+00 -0.74505805969E-08  0.93827000000E+00  0.93827000000E+00 0. -1.
     999902    2    1    2    0    0 -0.20854656372E-01  0.71538298844E-02 -0.63623810025E-02  0.10209828026E+01  0.10207248941E+01 0.  0.
     999903    2    3    3    0    0  0.11568893523E+00 -0.51883167994E-01  0.48257121861E-02  0.12842765423E+00  0.19864088629E-01 0.  0.
         14    1    1    2    0    0  0.20854656372E-01 -0.71538298844E-02  0.63623810025E-02  0.22947197355E-01  0.00000000000E+00 0. -1.
     999901    1    3    3    0    0 -0.13654359161E+00  0.59036997878E-01 -0.11188093189E-01  0.89255514841E+00  0.88000000000E+00 0.  1.
        -11    1    4    4    0    0  0.10425985691E-01 -0.26821515750E-02 -0.48740128790E-02  0.11828450331E-01  0.51100000000E-03 0.  1.
         11    1    4    4    0    0  0.10526294954E+00 -0.49201016419E-01  0.96997250651E-02  0.11659920390E+00  0.51100000000E-03 0. -1.
</event>
<event>
 8    1  0.1109553E+005  0.1043930E+01  0.7957747E-01            NaN
         13   -1    0    0    0    0  0.00000000000E+00  0.00000000000E+00  0.74505805969E-08  0.10566000000E+00  0.10566000000E+00 0.  1.
     999900   -1    0    0    0    0 -0.00000000000E+00 -0.00000000000E+00 -0.74505805969E-08  0.93827000000E+00  0.93827000000E+00 0.  1.
     999902    2    1    2    0    0 -0.11915201288E-01  0.68514775068E-02 -0.19143732202E-01  0.10203631324E+01  0.10200909394E+01 0.  0.
     999903    2    3    3    0    0  0.49976330197E-01 -0.89338240039E-01  0.73878113885E-01  0.12809854873E+00  0.21732642762E-01 0.  0.
         14    1    1    2    0    0  0.11915201288E-01 -0.68514775068E-02  0.19143732202E-01  0.23566867598E-01  0.00000000000E+00 0.  1.
     999901    1    3    3    0    0 -0.61891531485E-01  0.96189717546E-01 -0.93021846087E-01  0.89226458367E+00  0.88000000000E+00 0.  1.
        -11    1    4    4    0    0  0.34708189977E-01 -0.76579093128E-01  0.53752449988E-01  0.99792800124E-01  0.51100000000E-03 0.  1.
         11    1    4    4    0    0  0.15268140221E-01 -0.12759146911E-01  0.20125663897E-01  0.28305748603E-01  0.51100000000E-03 0. -1.
</event>
<event>
 8    1  0.1109553E+005  0.1043930E+01  0.7957747E-01            NaN
         13   -1    0    0    0    0  0.00000000000E+00  0.00000000000E+00  0.74505805969E-08  0.10566000000E+00  0.10566000000E+00 0. -1.
     999900   -1    0    0    0    0 -0.00000000000E+00 -0.00000000000E+00 -0.74505805969E-08  0.93827000000E+00  0.93827000000E+00 0.  1.
     999902    2    1    2    0    0 -0.16852831578E-01 -0.58424373460E-02  0.15782826546E-01  0.10201129972E+01  0.10198349266E+01 0.  0.
     999903    2    3    3    0    0  0.25780631808E-01 -0.86126065637E-01 -0.90314939202E-01  0.12909121914E+00  0.20625577724E-01 0.  0.
         14    1    1    2    0    0  0.16852831578E-01  0.58424373460E-02 -0.15782826546E-01  0.23817002753E-01  0.00000000000E+00 0.  1.
     999901    1    3    3    0    0 -0.42633463386E-01  0.80283628291E-01  0.10609776575E+00  0.89102177811E+00  0.88000000000E+00 0. -1.
        -11    1    4    4    0    0  0.14616440356E-01 -0.41691774006E-01 -0.30250422161E-01  0.53546181100E-01  0.51100000000E-03 0. -1.
         11    1    4    4    0    0  0.11164191452E-01 -0.44434291631E-01 -0.60064517041E-01  0.75545038036E-01  0.51100000000E-03 0.  1.
</event>
<event>
 8    1  0.1109553E+005  0.1043930E+01  0.7957747E-01            NaN
         13   -1    0    0    0    0  0.00000000000E+00  0.00000000000E+00  0.74505805969E-08  0.10566000000E+00  0.10566000000E+00 0.  1.
     999900   -1    0    0    0    0 -0.00000000000E+00 -0.00000000000E+00 -0.74505805969E-08  0.93827000000E+00  0.93827000000E+00 0.  1.
     999902    2    1    2    0    0  0.22794956313E-01 -0.48734040403E-03  0.66892390516E-02  0.10201688247E+01  0.10198920714E+01 0.  0.
     999903    2    3    3    0    0 -0.74272440070E-01 -0.87439012145E-02 -0.10208348133E+00  0.12813645141E+00  0.20126148623E-01 0.  0.
         14    1    1    2    0    0 -0.22794956313E-01  0.48734040403E-03 -0.66892390516E-02  0.23761175330E-01  0.00000000000E+00 0.  1.
     999901    1    3    3    0    0  0.97067396383E-01  0.82565608104E-02  0.10877272038E+00  0.89203237326E+00  0.88000000000E+00 0.  1.
        -11    1    4    4    0    0 -0.11659920447E-01 -0.81170231923E-03 -0.30691452100E-01  0.32845684017E-01  0.51100000000E-03 0. -1.
         11    1    4    4    0    0 -0.62612519623E-01 -0.79321988952E-02 -0.71392029229E-01  0.95290767398E-01  0.51100000000E-03 0.  1.
</event>
<event>
 8    1  0.1109553E+005  0.1043930E+01  0.7957747E-01            NaN
         13   -1    0    0    0    0  0.00000000000E+00  0.00000000000E+00  0.74505805969E-08  0.10566000000E+00  0.10566000000E+00 0.  1.
     999900   -1    0    0    0    0 -0.00000000000E+00 -0.00000000000E+00 -0.74505805969E-08  0.93827000000E+00  0.93827000000E+00 0.  1.
     999902    2    1    2    0    0  0.22719293571E-01  0.85735620706E-02 -0.46385686160E-02  0.10192077714E+01  0.10189078922E+01 0.  0.
     999903    2    3    3    0    0  0.62400173482E-01  0.81725974503E-01 -0.80286314631E-01  0.13205027179E+00  0.20456426978E-01 0.  0.
         14    1    1    2    0    0 -0.22719293571E-01 -0.85735620706E-02  0.46385686160E-02  0.24722228575E-01  0.00000000000E+00 0.  1.
     999901    1    3    3    0    0 -0.39680879911E-01 -0.73152412432E-01  0.75647746015E-01  0.88715749963E+00  0.88000000000E+00 0. -1.
        -11    1    4    4    0    0  0.26459064495E-01  0.37903953607E-01 -0.48774832311E-01  0.67201467104E-01  0.51100000000E-03 0.  1.
         11    1    4    4    0    0  0.35941108987E-01  0.43822020896E-01 -0.31511482320E-01  0.64848804689E-01  0.51100000000E-03 0. -1.
</event>
<event>
 8    1  0.1109553E+005  0.1043930E+01  0.7957747E-01            NaN
         13   -1    0    0    0    0  0.00000000000E+00  0.00000000000E+00  0.74505805969E-08  0.10566000000E+00  0.10566000000E+00 0. -1.
     999900   -1    0    0    0    0 -0.00000000000E+00 -0.00000000000E+00 -0.74505805969E-08  0.93827000000E+00  0.93827000000E+00 0. -1.
     999902    2    1    2    0    0  0.14301040813E-01  0.17775144068E-01 -0.57066720155E-02  0.10204131630E+01  0.10201421380E+01 0.  0.
     999903    2    3    3    0    0  0.34240636129E-02 -0.12578750656E+00  0.16590131485E-01  0.12843463711E+00  0.19646947046E-01 0.  0.
         14    1    1    2    0    0 -0.14301040813E-01 -0.17775144068E-01  0.57066720155E-02  0.23516836957E-01  0.00000000000E+00 0. -1.
     999901    1    3    3    0    0  0.10876977200E-01  0.14356265063E+00 -0.22296803501E-01  0.89197852594E+00  0.88000000000E+00 0. -1.
        -11    1    4    4    0    0 -0.11889864190E-02 -0.96818427421E-01  0.52127404799E-02  0.96967290162E-01  0.51100000000E-03 0. -1.
         11    1    4    4    0    0  0.46130500319E-02 -0.28969079135E-01  0.11377391005E-01  0.31467346943E-01  0.51100000000E-03 0.  1.
</event>
<event>
 8    1  0.1109553E+005  0.1043930E+01  0.7957747E-01            NaN
         13   -1    0    0    0    0  0.00000000000E+00  0.00000000000E+00  0.74505805969E-08  0.10566000000E+00  0.10566000000E+00 0.  1.
     999900   -1    0    0    0    0 -0.00000000000E+00 -0.00000000000E+00 -0.74505805969E-08  0.93827000000E+00  0.93827000000E+00 0.  1.
     999902    2    1    2    0    0 -0.93581713758E-02  0.10168824833E-01 -0.19327716537E-01  0.10201699285E+01  0.10198932013E+01 0.  0.
     999903    2    3    3    0    0  0.39615516184E-01 -0.53841759566E-01 -0.11158172982E+00  0.13168437436E+00  0.20541855470E-01 0.  0.
         14    1    1    2    0    0  0.93581713758E-02 -0.10168824833E-01  0.19327716537E-01  0.23760071476E-01  0.00000000000E+00 0.  1.
     999901    1    3    3    0    0 -0.48973687560E-01  0.64010584400E-01  0.92254013281E-01  0.88848555416E+00  0.88000000000E+00 0. -1.
        -11    1    4    4    0    0  0.24120221362E-01 -0.43867730336E-01 -0.68687429476E-01  0.84996393644E-01  0.51100000000E-03 0. -1.
         11    1    4    4    0    0  0.15495294822E-01 -0.99740292301E-02 -0.42894300342E-01  0.46687980718E-01  0.51100000000E-03 0.  1.
</event>
<event>
 8    1  0.1109553E+005  0.1043930E+01  0.7957747E-01            NaN
         13   -1    0    0    0    0  0.00000000000E+00  0.00000000000E+00  0.74505805969E-08  0.10566000000E+00  0.10566000000E+00 0.  1.
     999900   -1    0    0    0    0 -0.00000000000E+00 -0.00000000000E+00 -0.74505805969E-08  0.93827000000E+00  0.93827000000E+00 0.  1.
     999902    2    1    2    0    0 -0.11295150084E-01  0.24681912987E-02 -0.20419604726E-01  0.10204644371E+01  0.10201946063E+01 0.  0.
     999903    2    3    3    0    0 -0.48766335188E-01  0.99755577166E-01 -0.70149062685E-01  0.13291616005E+00  0.20407939203E-01 0.  0.
         14    1    1    2    0    0  0.11295150084E-01 -0.24681912987E-02  0.20419604726E-01  0.23465562872E-01  0.00000000000E+00 0.  1.
     999901    1    3    3    0    0  0.37471185103E-01 -0.97287385868E-01  0.49729457959E-01  0.88754827708E+00  0.88000000000E+00 0. -1.
        -11    1    4    4    0    0 -0.10775178030E-01  0.44720375941E-01 -0.29752810498E-01  0.54786014086E-01  0.51100000000E-03 0. -1.
         11    1    4    4    0    0 -0.37991157157E-01  0.55035201225E-01 -0.40396252187E-01  0.78130145961E-01  0.51100000000E-03 0.  1.
</event>
<event>
 8    1  0.1109553E+005  0.1043930E+01  0.7957747E-01            NaN
         13   -1    0    0    0    0  0.00000000000E+00  0.00000000000E+00  0.74505805969E-08  0.10566000000E+00  0.10566000000E+00 0.  1.
     999900   -1    0    0    0    0 -0.00000000000E+00 -0.00000000000E+00 -0.74505805969E-08  0.93827000000E+00  0.93827000000E+00 0.  1.
     999902    2    1    2    0    0 -0.13894555106E-01  0.71720456875E-02  0.17066423629E-01  0.10207835161E+01  0.10205210566E+01 0.  0.
     999903    2    3    3    0    0  0.51547802836E-01 -0.10925987050E+00 -0.41316049692E-01  0.12879270533E+00  0.16901174730E-01 0.  0.
         14    1    1    2    0    0  0.13894555106E-01 -0.71720456875E-02 -0.17066423629E-01  0.23146483889E-01  0.00000000000E+00 0. -1.
     999901    1    3    3    0    0 -0.65442357941E-01  0.11643191618E+00  0.58382473320E-01  0.89199081078E+00  0.88000000000E+00 0. -1.
        -11    1    4    4    0    0  0.93997057151E-02 -0.21118625624E-01 -0.15167103232E-01  0.27652358981E-01  0.51100000000E-03 0.  1.
         11    1    4    4    0    0  0.42148097120E-01 -0.88141244872E-01 -0.26148946459E-01  0.10114034635E+00  0.51100000000E-03 0. -1.
</event>
<event>
 8    1  0.1109553E+005  0.1043930E+01  0.7957747E-01            NaN
         13   -1    0    0    0    0  0.00000000000E+00  0.00000000000E+00  0.74505805969E-08  0.10566000000E+00  0.10566000000E+00 0.  1.
     999900   -1    0    0    0    0 -0.00000000000E+00 -0.00000000000E+00 -0.74505805969E-08  0.93827000000E+00  0.93827000000E+00 0. -1.
     999902    2    1    2    0    0  0.29762606045E-02 -0.39266143341E-02  0.18295709613E-01  0.10249824562E+01  0.10248073117E+01 0.  0.
     999903    2    3    3    0    0 -0.12085609246E-01 -0.52328795786E-01 -0.11986349525E+00  0.13276185733E+00  0.19341366214E-01 0.  0.
         14    1    1    2    0    0 -0.29762606045E-02  0.39266143341E-02 -0.18295709613E-01  0.18947543839E-01  0.00000000000E+00 0. -1.
     999901    1    3    3    0    0  0.15061869851E-01  0.48402181452E-01  0.13815920487E+00  0.89222059883E+00  0.88000000000E+00 0. -1.
        -11    1    4    4    0    0  0.22040851043E-02 -0.25454814781E-01 -0.42057173554E-01  0.49212524372E-01  0.51100000000E-03 0. -1.
         11    1    4    4    0    0 -0.14289694351E-01 -0.26873981005E-01 -0.77806321701E-01  0.83549332956E-01  0.51100000000E-03 0.  1.
</event>
<event>
 8    1  0.1109553E+005  0.1043930E+01  0.7957747E-01            NaN
         13   -1    0    0    0    0  0.00000000000E+00  0.00000000000E+00  0.74505805969E-08  0.10566000000E+00  0.10566000000E+00 0. -1.
     999900   -1    0    0    0    0 -0.00000000000E+00 -0.00000000000E+00 -0.74505805969E-08  0.93827000000E+00  0.93827000000E+00 0.  1.
     999902    2    1    2    0    0 -0.61626210081E-02 -0.17402129518E-01  0.14853336763E-01  0.10202354094E+01  0.10199602233E+01 0.  0.
     999903    2    3    3    0    0  0.53969209199E-01  0.53033337453E-01 -0.10105238507E+00  0.12781671377E+00  0.20007932613E-01 0.  0.
         14    1    1    2    0    0  0.61626210081E-02  0.17402129518E-01 -0.14853336763E-01  0.23694590573E-01  0.00000000000E+00 0. -1.
     999901    1    3    3    0    0 -0.60131830207E-01 -0.70435466971E-01  0.11590572183E+00  0.89241869566E+00  0.88000000000E+00 0. -1.
        -11    1    4    4    0    0  0.25559177975E-01  0.38354435047E-01 -0.63993775757E-01  0.78865700550E-01  0.51100000000E-03 0.  1.
         11    1    4    4    0    0  0.28410031224E-01  0.14678902406E-01 -0.37058609310E-01  0.48951013217E-01  0.51100000000E-03 0. -1.
</event>
<event>
 8    1  0.1109553E+005  0.1043930E+01  0.7957747E-01            NaN
         13   -1    0    0    0    0  0.00000000000E+00  0.00000000000E+00  0.74505805969E-08  0.10566000000E+00  0.10566000000E+00 0. -1.
     999900   -1    0    0    0    0 -0.00000000000E+00 -0.00000000000E+00 -0.74505805969E-08  0.93827000000E+00  0.93827000000E+00 0.  1.
     999902    2    1    2    0    0  0.18266519907E-01  0.10352060889E-02 -0.13898473918E-01  0.10209538171E+01  0.10206952492E+01 0.  0.
     999903    2    3    3    0    0 -0.10274226271E+00  0.71305205917E-01  0.25204868657E-01  0.12904010510E+00  0.19381908648E-01 0.  0.
         14    1    1    2    0    0 -0.18266519907E-01 -0.10352060889E-02  0.13898473918E-01  0.22976182851E-01  0.00000000000E+00 0.  1.
     999901    1    3    3    0    0  0.12100878261E+00 -0.70269999828E-01 -0.39103342576E-01  0.89191371205E+00  0.88000000000E+00 0.  1.
        -11    1    4    4    0    0 -0.24726757863E-01  0.27211358537E-01  0.43301277804E-02  0.37025419855E-01  0.51100000000E-03 0. -1.
         11    1    4    4    0    0 -0.78015504842E-01  0.44093847380E-01  0.20874740877E-01  0.92014685242E-01  0.51100000000E-03 0.  1.
</event>
<event>
 8    1  0.1109553E+005  0.1043930E+01  0.7957747E-01            NaN
         13   -1    0    0    0    0  0.00000000000E+00  0.00000000000E+00  0.74505805969E-08  0.10566000000E+00  0.10566000000E+00 0.  1.
     999900   -1    0    0    0    0 -0.00000000000E+00 -0.00000000000E+00 -0.74505805969E-08  0.93827000000E+00  0.93827000000E+00 0.  1.
     999902    2    1    2    0    0 -0.18859433620E-01 -0.13448259874E-01  0.66145180517E-02  0.10198408784E+01  0.10195563405E+01 0.  0.
     999903    2    3    3    0    0  0.70369650218E-01 -0.66266807779E-01  0.84931004129E-01  0.13029880498E+00  0.20526218155E-01 0.  0.
         14    1    1    2    0    0  0.18859433620E-01  0.13448259874E-01 -0.66145180517E-02  0.24089121594E-01  0.00000000000E+00 0.  1.
     999901    1    3    3    0    0 -0.89229083838E-01  0.52818547905E-01 -0.78316486077E-01  0.88954207343E+00  0.88000000000E+00 0.  1.
        -11    1    4    4    0    0  0.28189079845E-01 -0.40573403085E-01  0.41310112372E-01  0.64401954672E-01  0.51100000000E-03 0. -1.
         11    1    4    4    0    0  0.42180570372E-01 -0.25693404693E-01  0.43620891757E-01  0.65896850307E-01  0.51100000000E-03 0.  1.
</event>
<event>
 8    1  0.1109553E+005  0.1043930E+01  0.7957747E-01            NaN
         13   -1    0    0    0    0  0.00000000000E+00  0.00000000000E+00  0.74505805969E-08  0.10566000000E+00  0.10566000000E+00 0.  1.
     999900   -1    0    0    0    0 -0.00000000000E+00 -0.00000000000E+00 -0.74505805969E-08  0.93827000000E+00  0.93827000000E+00 0. -1.
     999902    2    1    2    0    0 -0.31345456426E-02 -0.10946633595E-01  0.21087725191E-01  0.10199644765E+01  0.10196828855E+01 0.  0.
     999903    2    3    3    0    0  0.92298028979E-01 -0.33030715148E-01 -0.80871140012E-01  0.12867849929E+00  0.20200509794E-01 0.  0.
         14    1    1    2    0    0  0.31345456426E-02  0.10946633595E-01 -0.21087725191E-01  0.23965523512E-01  0.00000000000E+00 0. -1.
     999901    1    3    3    0    0 -0.95432574622E-01  0.22084081553E-01  0.10195886520E+00  0.89128597720E+00  0.88000000000E+00 0.  1.
        -11    1    4    4    0    0  0.24304783852E-01 -0.14438344531E-01 -0.14148045193E-01  0.31616714167E-01  0.51100000000E-03 0.  1.
         11    1    4    4    0    0  0.67993245127E-01 -0.18592370617E-01 -0.66723094819E-01  0.97061785123E-01  0.51100000000E-03 0. -1.
</event>
<event>
 8    1  0.1109553E+005  0.1043930E+01  0.7957747E-01            NaN
         13   -1    0    0    0    0  0.00000000000E+00  0.00000000000E+00  0.74505805969E-08  0.10566000000E+00  0.10566000000E+00 0.  1.
     999900   -1    0    0    0    0 -0.00000000000E+00 -0.00000000000E+00 -0.74505805969E-08  0.93827000000E+00  0.93827000000E+00 0.  1.
     999902    2    1    2    0    0 -0.25370890872E-01 -0.16175977065E-01  0.12472476728E-01  0.10113584324E+01  0.10108338003E+01 0.  0.
     999903    2    3    3    0    0 -0.44514467969E-01 -0.82689007666E-01  0.81054324174E-01  0.12598058678E+00  0.21961214240E-01 0.  0.
         14    1    1    2    0    0  0.25370890872E-01  0.16175977065E-01 -0.12472476728E-01  0.32571567561E-01  0.00000000000E+00 0. -1.
     999901    1    3    3    0    0  0.19143577097E-01  0.66513030601E-01 -0.68581847446E-01  0.88537784566E+00  0.88000000000E+00 0.  1.
        -11    1    4    4    0    0 -0.31623146153E-01 -0.49641210895E-01  0.62840342587E-01  0.86101352888E-01  0.51100000000E-03 0.  1.
         11    1    4    4    0    0 -0.12891321816E-01 -0.33047796771E-01  0.18213981587E-01  0.39879233892E-01  0.51100000000E-03 0. -1.
</event>
<event>
 8    1  0.1109553E+005  0.1043930E+01  0.7957747E-01            NaN
         13   -1    0    0    0    0  0.00000000000E+00  0.00000000000E+00  0.74505805969E-08  0.10566000000E+00  0.10566000000E+00 0. -1.
     999900   -1    0    0    0    0 -0.00000000000E+00 -0.00000000000E+00 -0.74505805969E-08  0.93827000000E+00  0.93827000000E+00 0. -1.
     999902    2    1    2    0    0  0.17651415575E-01  0.93453729048E-02 -0.16854023920E-01  0.10177963705E+01  0.10174608028E+01 0.  0.
     999903    2    3    3    0    0  0.12734000645E+00  0.21031890327E-01  0.36633360341E-02  0.13067229595E+00  0.20100030942E-01 0.  0.
         14    1    1    2    0    0 -0.17651415575E-01 -0.93453729048E-02  0.16854023920E-01  0.26133629462E-01  0.00000000000E+00 0. -1.
     999901    1    3    3    0    0 -0.10968859088E+00 -0.11686517422E-01 -0.20517359955E-01  0.88712407459E+00  0.88000000000E+00 0. -1.
        -11    1    4    4    0    0  0.90301826142E-01  0.98317104168E-02 -0.51523036481E-02  0.90982908770E-01  0.51100000000E-03 0.  1.
         11    1    4    4    0    0  0.37038180309E-01  0.11200179910E-01  0.88156396823E-02  0.39689387178E-01  0.51100000000E-03 0. -1.
</event>
<event>
 8    1  0.1109553E+005  0.1043930E+01  0.7957747E-01            NaN
         13   -1    0    0    0    0  0.00000000000E+00  0.00000000000E+00  0.74505805969E-08  0.10566000000E+00  0.10566000000E+00 0.  1.
     999900   -1    0    0    0    0 -0.00000000000E+00 -0.00000000000E+00 -0.74505805969E-08  0.93827000000E+00  0.93827000000E+00 0.  1.
     999902    2    1    2    0    0 -0.10856592724E-01  0.49689927036E-02 -0.20515892382E-01  0.10201927227E+01  0.10199165324E+01 0.  0.
     999903    2    3    3    0    0 -0.11859638781E+00  0.41844597426E-01  0.32768400710E-01  0.13125690410E+00  0.18399273211E-01 0.  0.
         14    1    1    2    0    0  0.10856592724E-01 -0.49689927036E-02  0.20515892382E-01  0.23737277314E-01  0.00000000000E+00 0.  1.
     999901    1    3    3    0    0  0.10773979508E+00 -0.36875604722E-01 -0.53284293092E-01  0.88893581858E+00  0.88000000000E+00 0.  1.
        -11    1    4    4    0    0 -0.43965711392E-01  0.11586837088E-01  0.20177994691E-01  0.49745865784E-01  0.51100000000E-03 0. -1.
         11    1    4    4    0    0 -0.74630676417E-01  0.30257760338E-01  0.12590406019E-01  0.81511038319E-01  0.51100000000E-03 0.  1.
</event>
<event>
 8    1  0.1109553E+005  0.1043930E+01  0.7957747E-01            NaN
         13   -1    0    0    0    0  0.00000000000E+00  0.00000000000E+00  0.74505805969E-08  0.10566000000E+00  0.10566000000E+00 0.  1.
     999900   -1    0    0    0    0 -0.00000000000E+00 -0.00000000000E+00 -0.74505805969E-08  0.93827000000E+00  0.93827000000E+00 0.  1.
     999902    2    1    2    0    0  0.39847189818E-02  0.93775582268E-02  0.19117459101E-01  0.10222668094E+01  0.10220372478E+01 0.  0.
     999903    2    3    3    0    0 -0.10875476915E-02 -0.12541366675E+00  0.35620835184E-01  0.13183614753E+00  0.19548793526E-01 0.  0.
         14    1    1    2    0    0 -0.39847189818E-02 -0.93775582268E-02 -0.19117459101E-01  0.21663190581E-01  0.00000000000E+00 0. -1.
     999901    1    3    3    0    0  0.50722666733E-02  0.13479122497E+00 -0.16503376083E-01  0.89043066189E+00  0.88000000000E+00 0. -1.
        -11    1    4    4    0    0 -0.19164182683E-02 -0.61019629177E-01  0.73142951888E-02  0.61488436629E-01  0.51100000000E-03 0. -1.
         11    1    4    4    0    0  0.82887057680E-03 -0.64394037569E-01  0.28306539995E-01  0.70347710896E-01  0.51100000000E-03 0.  1.
</event>
<event>
 8    1  0.1109553E+005  0.1043930E+01  0.7957747E-01            NaN
         13   -1    0    0    0    0  0.00000000000E+00  0.00000000000E+00  0.74505805969E-08  0.10566000000E+00  0.10566000000E+00 0.  1.
     999900   -1    0    0    0    0 -0.00000000000E+00 -0.00000000000E+00 -0.74505805969E-08  0.93827000000E+00  0.93827000000E+00 0. -1.
     999902    2    1    2    0    0 -0.19360351076E-01 -0.86339177302E-02  0.10013699597E-01  0.10204855570E+01  0.10202162173E+01 0.  0.
     999903    2    3    3    0    0  0.94621513139E-01 -0.85586905288E-01  0.13632952515E-01  0.12979665132E+00  0.19569470966E-01 0.  0.
         14    1    1    2    0    0  0.19360351076E-01  0.86339177302E-02 -0.10013699597E-01  0.23444443026E-01  0.00000000000E+00 0.  1.
     999901    1    3    3    0    0 -0.11398186422E+00  0.76952987558E-01 -0.36192529175E-02  0.89068890565E+00  0.88000000000E+00 0.  1.
        -11    1    4    4    0    0  0.58147435951E-01 -0.60830875673E-01  0.15947305839E-01  0.85651021170E-01  0.51100000000E-03 0.  1.
         11    1    4    4    0    0  0.36474077188E-01 -0.24756029616E-01 -0.23143533246E-02  0.44145630150E-01  0.51100000000E-03 0. -1.
</event>
<event>
 8    1  0.1109553E+005  0.1043930E+01  0.7957747E-01            NaN
         13   -1    0    0    0    0  0.00000000000E+00  0.00000000000E+00  0.74505805969E-08  0.10566000000E+00  0.10566000000E+00 0.  1.
     999900   -1    0    0    0    0 -0.00000000000E+00 -0.00000000000E+00 -0.74505805969E-08  0.93827000000E+00  0.93827000000E+00 0.  1.
     999902    2    1    2    0    0 -0.17714601219E-01 -0.13784325923E-01  0.85068811396E-02  0.10199262135E+01  0.10196437119E+01 0.  0.
     999903    2    3    3    0    0  0.65009863010E-01  0.10781192282E+00 -0.58771744913E-02  0.12760570737E+00  0.19974543339E-01 0.  0.
         14    1    1    2    0    0  0.17714601219E-01  0.13784325923E-01 -0.85068811396E-02  0.24003786456E-01  0.00000000000E+00 0. -1.
     999901    1    3    3    0    0 -0.82724464229E-01 -0.12159624874E+00  0.14384055631E-01  0.89232050618E+00  0.88000000000E+00 0.  1.
        -11    1    4    4    0    0  0.19103459517E-01  0.36149364012E-01  0.71416708359E-02  0.41508833606E-01  0.51100000000E-03 0.  1.
         11    1    4    4    0    0  0.45906403493E-01  0.71662558808E-01 -0.13018845327E-01  0.86096873760E-01  0.51100000000E-03 0. -1.
</event>
<event>
 8    1  0.1271577E+005  0.1043930E+01  0.7957747E-01            NaN
         13   -1    0    0    0    0  0.00000000000E+00  0.00000000000E+00  0.74505805969E-08  0.10566000000E+00  0.10566000000E+00 0. -1.
     999900   -1    0    0    0    0 -0.00000000000E+00 -0.00000000000E+00 -0.74505805969E-08  0.93827000000E+00  0.93827000000E+00 0.  1.
     999902    2    1    2    0    0 -0.17307158401E-01 -0.99242131867E-02  0.14778878929E-01  0.10191017298E+01  0.10187992406E+01 0.  0.
     999903    2    3    3    0    0 -0.43172918160E-01 -0.11613965465E+00  0.40667092752E-01  0.13195971345E+00  0.20180022211E-01 0.  0.
         14    1    1    2    0    0  0.17307158401E-01  0.99242131867E-02 -0.14778878929E-01  0.24828270212E-01  0.00000000000E+00 0.  1.
     999901    1    3    3    0    0  0.25865759759E-01  0.10621544147E+00 -0.25888213823E-01  0.88714201634E+00  0.88000000000E+00 0.  1.
        -11    1    4    4    0    0 -0.18459806546E-01 -0.76149828624E-01  0.22104994430E-01  0.81415310335E-01  0.51100000000E-03 0.  1.
         11    1    4    4    0    0 -0.24713111614E-01 -0.39989826028E-01  0.18562098322E-01  0.50544403117E-01  0.51100000000E-03 0. -1.
</event>
<event>
 8    1  0.1109553E+005  0.1043930E+01  0.7957747E-01            NaN
         13   -1    0    0    0    0  0.00000000000E+00  0.00000000000E+00  0.74505805969E-08  0.10566000000E+00  0.10566000000E+00 0. -1.
     999900   -1    0    0    0    0 -0.00000000000E+00 -0.00000000000E+00 -0.74505805969E-08  0.93827000000E+00  0.93827000000E+00 0. -1.
     999902    2    1    2    0    0  0.18693516086E-01  0.47300455855E-02 -0.47854211582E-02  0.10240624100E+01  0.10238696687E+01 0.  0.
     999903    2    3    3    0    0 -0.11001108951E-01 -0.12728625998E+00  0.31177627599E-01  0.13299371653E+00  0.19810799955E-01 0.  0.
         14    1    1    2    0    0 -0.18693516086E-01 -0.47300455855E-02  0.47854211582E-02  0.19867589954E-01  0.00000000000E+00 0. -1.
     999901    1    3    3    0    0  0.29694625037E-01  0.13201630557E+00 -0.35963048757E-01  0.89106869352E+00  0.88000000000E+00 0. -1.
        -11    1    4    4    0    0 -0.39376786674E-03 -0.87319128167E-01  0.27146048240E-01  0.91443721781E-01  0.51100000000E-03 0.  1.
         11    1    4    4    0    0 -0.10607341084E-01 -0.39967131815E-01  0.40315793587E-02  0.41549994747E-01  0.51100000000E-03 0. -1.
</event>
<event>
 8    1  0.1109553E+005  0.1043930E+01  0.7957747E-01            NaN
         13   -1    0    0    0    0  0.00000000000E+00  0.00000000000E+00  0.74505805969E-08  0.10566000000E+00  0.10566000000E+00 0.  1.
     999900   -1    0    0    0    0 -0.00000000000E+00 -0.00000000000E+00 -0.74505805969E-08  0.93827000000E+00  0.93827000000E+00 0.  1.
     999902    2    1    2    0    0 -0.10768663503E-01 -0.14998026612E-01  0.15157623503E-01  0.10200415412E+01  0.10197617796E+01 0.  0.
     999903    2    3    3    0    0 -0.11003384652E+00  0.68045383901E-01  0.14081890416E-02  0.13046926666E+00  0.16811451378E-01 0.  0.
         14    1    1    2    0    0  0.10768663503E-01  0.14998026612E-01 -0.15157623503E-01  0.23888458848E-01  0.00000000000E+00 0. -1.
     999901    1    3    3    0    0  0.99265183016E-01 -0.83043410513E-01  0.13749434462E-01  0.88957227449E+00  0.88000000000E+00 0. -1.
        -11    1    4    4    0    0 -0.79880463145E-01  0.44892118492E-01 -0.56210657699E-02  0.91804401836E-01  0.51100000000E-03 0. -1.
         11    1    4    4    0    0 -0.30153383374E-01  0.23153265409E-01  0.70292548115E-02  0.38664864828E-01  0.51100000000E-03 0.  1.
</event>
<event>
 8    1  0.1109553E+005  0.1043930E+01  0.7957747E-01            NaN
         13   -1    0    0    0    0  0.00000000000E+00  0.00000000000E+00  0.74505805969E-08  0.10566000000E+00  0.10566000000E+00 0.  1.
     999900   -1    0    0    0    0 -0.00000000000E+00 -0.00000000000E+00 -0.74505805969E-08  0.93827000000E+00  0.93827000000E+00 0.  1.
     999902    2    1    2    0    0 -0.94525811972E-02  0.15231681075E-01 -0.15116974859E-01  0.10204805154E+01  0.10202110585E+01 0.  0.
     999903    2    3    3    0    0  0.56971061694E-01 -0.63303547965E-01 -0.96893560670E-01  0.13072364269E+00  0.21148702145E-01 0.  0.
         14    1    1    2    0    0  0.94525811972E-02 -0.15231681075E-01  0.15116974859E-01  0.23449484611E-01  0.00000000000E+00 0.  1.
     999901    1    3    3    0    0 -0.66423642891E-01  0.78535229039E-01  0.81776585811E-01  0.88975687270E+00  0.88000000000E+00 0. -1.
        -11    1    4    4    0    0  0.35121238779E-01 -0.52481634585E-01 -0.65724034254E-01  0.91146767259E-01  0.51100000000E-03 0. -1.
         11    1    4    4    0    0  0.21849822915E-01 -0.10821913379E-01 -0.31169526416E-01  0.39576875427E-01  0.51100000000E-03 0.  1.
</event>
<event>
 8    1  0.1109553E+005  0.1043930E+01  0.7957747E-01            NaN
         13   -1    0    0    0    0  0.00000000000E+00  0.00000000000E+00  0.74505805969E-08  0.10566000000E+00  0.10566000000E+00 0. -1.
     999900   -1    0    0    0    0 -0.00000000000E+00 -0.00000000000E+00 -0.74505805969E-08  0.93827000000E+00  0.93827000000E+00 0.  1.
     999902    2    1    2    0    0 -0.18849596741E-01  0.63432252879E-02  0.13334689731E-01  0.10199851101E+01  0.10197040095E+01 0.  0.
     999903    2    3    3    0    0  0.81901988069E-01 -0.75918095689E-01  0.61548530263E-01  0.12911902517E+00  0.20297984662E-01 0.  0.
         14    1    1    2    0    0  0.18849596741E-01 -0.63432252879E-02 -0.13334689731E-01  0.23944889947E-01  0.00000000000E+00 0.  1.
     999901    1    3    3    0    0 -0.10075158481E+00  0.82261320977E-01 -0.48213840532E-01  0.89086608488E+00  0.88000000000E+00 0.  1.
        -11    1    4    4    0    0  0.65742100778E-01 -0.49135178151E-01  0.47438996128E-01  0.94799836610E-01  0.51100000000E-03 0.  1.
         11    1    4    4    0    0  0.16159887291E-01 -0.26782917539E-01  0.14109534135E-01  0.34319188563E-01  0.51100000000E-03 0. -1.
</event>
<event>
 8    1  0.1109553E+005  0.1043930E+01  0.7957747E-01            NaN
         13   -1    0    0    0    0  0.00000000000E+00  0.00000000000E+00  0.74505805969E-08  0.10566000000E+00  0.10566000000E+00 0.  1.
     999900   -1    0    0    0    0 -0.00000000000E+00 -0.00000000000E+00 -0.74505805969E-08  0.93827000000E+00  0.93827000000E+00 0.  1.
     999902    2    1    2    0    0  0.20011544194E-01  0.67473924666E-03 -0.12516039405E-01  0.10203171133E+01  0.10200438438E+01 0.  0.
     999903    2    3    3    0    0 -0.93914611818E-01 -0.77499946717E-01  0.35007232116E-01  0.12826951826E+00  0.20034144861E-01 0.  0.
         14    1    1    2    0    0 -0.20011544194E-01 -0.67473924666E-03  0.12516039405E-01  0.23612886661E-01  0.00000000000E+00 0.  1.
     999901    1    3    3    0    0  0.11392615601E+00  0.78174685964E-01 -0.47523271521E-01  0.89204759508E+00  0.88000000000E+00 0.  1.
        -11    1    4    4    0    0 -0.69593338168E-02 -0.61088430299E-02  0.87220672393E-02  0.12731294839E-01  0.51100000000E-03 0.  1.
         11    1    4    4    0    0 -0.86955278001E-01 -0.71391103687E-01  0.26285164876E-01  0.11553822342E+00  0.51100000000E-03 0. -1.
</event>
<event>
 8    1  0.1109553E+005  0.1043930E+01  0.7957747E-01            NaN
         13   -1    0    0    0    0  0.00000000000E+00  0.00000000000E+00  0.74505805969E-08  0.10566000000E+00  0.10566000000E+00 0. -1.
     999900   -1    0    0    0    0 -0.00000000000E+00 -0.00000000000E+00 -0.74505805969E-08  0.93827000000E+00  0.93827000000E+00 0.  1.
     999902    2    1    2    0    0 -0.13407405707E-02  0.11970441079E-01  0.20585330772E-01  0.10200795307E+01  0.10198006687E+01 0.  0.
     999903    2    3    3    0    0  0.10623638819E+00 -0.64589311073E-01 -0.26968870564E-01  0.12895909191E+00  0.21099244727E-01 0.  0.
         14    1    1    2    0    0  0.13407405707E-02 -0.11970441079E-01 -0.20585330772E-01  0.23850469343E-01  0.00000000000E+00 0.  1.
     999901    1    3    3    0    0 -0.10757712876E+00  0.76559752152E-01  0.47554201336E-01  0.89112043874E+00  0.88000000000E+00 0. -1.
        -11    1    4    4    0    0  0.84192314249E-01 -0.56044333378E-01 -0.14347563845E-01  0.10215393674E+00  0.51100000000E-03 0. -1.
         11    1    4    4    0    0  0.22044073936E-01 -0.85449776950E-02 -0.12621306719E-01  0.26805155172E-01  0.51100000000E-03 0.  1.
</event>
<event>
 8    1  0.1109553E+005  0.1043930E+01  0.7957747E-01            NaN
         13   -1    0    0    0    0  0.00000000000E+00  0.00000000000E+00  0.74505805969E-08  0.10566000000E+00  0.10566000000E+00 0. -1.
     999900   -1    0    0    0    0 -0.00000000000E+00 -0.00000000000E+00 -0.74505805969E-08  0.93827000000E+00  0.93827000000E+00 0. -1.
     999902    2    1    2    0    0 -0.64360042203E-02 -0.21299210785E-01 -0.12471840373E-01  0.10184226416E+01  0.10181031635E+01 0.  0.
     999903    2    3    3    0    0  0.25084433074E-01 -0.32194341062E-01  0.11862014753E+00  0.12808711432E+00  0.25881751799E-01 0.  0.
         14    1    1    2    0    0  0.64360042203E-02  0.21299210785E-01  0.12471840373E-01  0.25507358403E-01  0.00000000000E+00 0. -1.
     999901    1    3    3    0    0 -0.31520437295E-01  0.10895130276E-01 -0.13109198791E+00  0.89033552727E+00  0.88000000000E+00 0. -1.
        -11    1    4    4    0    0  0.87920010443E-03 -0.21780030455E-01  0.59062618358E-01  0.62958690645E-01  0.51100000000E-03 0.  1.
         11    1    4    4    0    0  0.24205232970E-01 -0.10414310607E-01  0.59557529175E-01  0.65128423679E-01  0.51100000000E-03 0. -1.
</event>
<event>
 8    1  0.1109553E+005  0.1043930E+01  0.7957747E-01            NaN
         13   -1    0    0    0    0  0.00000000000E+00  0.00000000000E+00  0.74505805969E-08  0.10566000000E+00  0.10566000000E+00 0.  1.
     999900   -1    0    0    0    0 -0.00000000000E+00 -0.00000000000E+00 -0.74505805969E-08  0.93827000000E+00  0.93827000000E+00 0. -1.
     999902    2    1    2    0    0 -0.63052123586E-02  0.21605959273E-02 -0.23562966132E-01  0.10194425083E+01  0.10191483653E+01 0.  0.
     999903    2    3    3    0    0  0.26456834799E-01  0.12367571214E+00  0.19412673095E-01  0.12945027193E+00  0.19618235002E-01 0.  0.
         14    1    1    2    0    0  0.63052123586E-02 -0.21605959273E-02  0.23562966132E-01  0.24487491717E-01  0.00000000000E+00 0.  1.
     999901    1    3    3    0    0 -0.32762047157E-01 -0.12151511621E+00 -0.42975639227E-01  0.88999223635E+00  0.88000000000E+00 0.  1.
        -11    1    4    4    0    0  0.18009171115E-01  0.68143703942E-01  0.15387299091E-02  0.70501939278E-01  0.51100000000E-03 0.  1.
         11    1    4    4    0    0  0.84476636840E-02  0.55532008200E-01  0.17873943186E-01  0.58948332652E-01  0.51100000000E-03 0. -1.
</event>
<event>
 8    1  0.1109553E+005  0.1043930E+01  0.7957747E-01            NaN
         13   -1    0    0    0    0  0.00000000000E+00  0.00000000000E+00  0.74505805969E-08  0.10566000000E+00  0.10566000000E+00 0. -1.
     999900   -1    0    0    0    0 -0.00000000000E+00 -0.00000000000E+00 -0.74505805969E-08  0.93827000000E+00  0.93827000000E+00 0.  1.
     999902    2    1    2    0    0  0.46740912445E-03 -0.51092703089E-02  0.23600225181E-01  0.10197785250E+01  0.10194924945E+01 0.  0.
     999903    2    3    3    0    0 -0.18629778183E-01  0.10105165478E+00 -0.73369200752E-01  0.12790526378E+00  0.20450215516E-01 0.  0.
         14    1    1    2    0    0 -0.46740912445E-03  0.51092703089E-02 -0.23600225181E-01  0.24151474964E-01  0.00000000000E+00 0.  1.
     999901    1    3    3    0    0  0.19097187308E-01 -0.10616092509E+00  0.96969425933E-01  0.89187326126E+00  0.88000000000E+00 0. -1.
        -11    1    4    4    0    0 -0.20367659699E-01  0.61292963249E-01 -0.50616756050E-01  0.82060867772E-01  0.51100000000E-03 0. -1.
         11    1    4    4    0    0  0.17378815156E-02  0.39758691530E-01 -0.22752444703E-01  0.45844396007E-01  0.51100000000E-03 0.  1.
</event>
<event>
 8    1  0.1109553E+005  0.1043930E+01  0.7957747E-01            NaN
         13   -1    0    0    0    0  0.00000000000E+00  0.00000000000E+00  0.74505805969E-08  0.10566000000E+00  0.10566000000E+00 0.  1.
     999900   -1    0    0    0    0 -0.00000000000E+00 -0.00000000000E+00 -0.74505805969E-08  0.93827000000E+00  0.93827000000E+00 0.  1.
     999902    2    1    2    0    0 -0.21091639405E-01  0.99824533272E-03  0.85973052947E-02  0.10211315921E+01  0.10208770547E+01 0.  0.
     999903    2    3    3    0    0  0.75893281304E-01  0.87484028523E-01 -0.53720048279E-01  0.12940892323E+00  0.21156096774E-01 0.  0.
         14    1    1    2    0    0  0.21091639405E-01 -0.99824533272E-03 -0.85973052947E-02  0.22798407945E-01  0.00000000000E+00 0.  1.
     999901    1    3    3    0    0 -0.96984920709E-01 -0.86485783190E-01  0.62317353574E-01  0.89172266882E+00  0.88000000000E+00 0. -1.
        -11    1    4    4    0    0  0.34982689608E-01  0.52055812627E-01 -0.20885473292E-01  0.66106431731E-01  0.51100000000E-03 0. -1.
         11    1    4    4    0    0  0.40910591696E-01  0.35428215896E-01 -0.32834574987E-01  0.63302491500E-01  0.51100000000E-03 0.  1.
</event>
<event>
 8    1  0.1109553E+005  0.1043930E+01  0.7957747E-01            NaN
         13   -1    0    0    0    0  0.00000000000E+00  0.00000000000E+00  0.74505805969E-08  0.10566000000E+00  0.10566000000E+00 0.  1.
     999900   -1    0    0    0    0 -0.00000000000E+00 -0.00000000000E+00 -0.74505805969E-08  0.93827000000E+00  0.93827000000E+00 0.  1.
     999902    2    1    2    0    0 -0.11110887155E-01  0.18044374491E-01 -0.11126683091E-01  0.10199956243E+01  0.10197147735E+01 0.  0.
     999903    2    3    3    0    0 -0.14998955634E-01  0.29343585101E-02 -0.12946358255E+00  0.13193760173E+00  0.20325659011E-01 0.  0.
         14    1    1    2    0    0  0.11110887155E-01 -0.18044374491E-01  0.11126683091E-01  0.23934375712E-01  0.00000000000E+00 0.  1.
     999901    1    3    3    0    0  0.38880684794E-02  0.15110015981E-01  0.11833689946E+00  0.88805802256E+00  0.88000000000E+00 0. -1.
        -11    1    4    4    0    0 -0.14125062548E-01 -0.63925899167E-02 -0.66932159138E-01  0.68706314453E-01  0.51100000000E-03 0. -1.
         11    1    4    4    0    0 -0.87389308572E-03  0.93269484269E-02 -0.62531423408E-01  0.63231287275E-01  0.51100000000E-03 0.  1.
</event>
<event>
 8    1  0.1109553E+005  0.1043930E+01  0.7957747E-01            NaN
         13   -1    0    0    0    0  0.00000000000E+00  0.00000000000E+00  0.74505805969E-08  0.10566000000E+00  0.10566000000E+00 0. -1.
     999900   -1    0    0    0    0 -0.00000000000E+00 -0.00000000000E+00 -0.74505805969E-08  0.93827000000E+00  0.93827000000E+00 0. -1.
     999902    2    1    2    0    0 -0.28970011817E-02  0.24904102254E-01 -0.14223187282E-02  0.10188176541E+01  0.10185081160E+01 0.  0.
     999903    2    3    3    0    0  0.34280015540E-01  0.11871899332E+00  0.41077581824E-01  0.13203154355E+00  0.21809216464E-01 0.  0.
         14    1    1    2    0    0  0.28970011817E-02 -0.24904102254E-01  0.14223187282E-02  0.25112345878E-01  0.00000000000E+00 0. -1.
     999901    1    3    3    0    0 -0.37177016722E-01 -0.93814891067E-01 -0.42499900552E-01  0.88678611057E+00  0.88000000000E+00 0.  1.
        -11    1    4    4    0    0  0.69720150583E-02  0.53176516825E-02  0.38567583473E-02  0.95928160276E-02  0.51100000000E-03 0.  1.
         11    1    4    4    0    0  0.27308000482E-01  0.11340134164E+00  0.37220823477E-01  0.12243872752E+00  0.51100000000E-03 0. -1.
</event>
<event>
 8    1  0.1109553E+005  0.1043930E+01  0.7957747E-01            NaN
         13   -1    0    0    0    0  0.00000000000E+00  0.00000000000E+00  0.74505805969E-08  0.10566000000E+00  0.10566000000E+00 0. -1.
     999900   -1    0    0    0    0 -0.00000000000E+00 -0.00000000000E+00 -0.74505805969E-08  0.93827000000E+00  0.93827000000E+00 0. -1.
     999902    2    1    2    0    0 -0.22746858101E-01 -0.45141748276E-02 -0.34355154136E-02  0.10204864488E+01  0.10202171299E+01 0.  0.
     999903    2    3    3    0    0  0.10002032871E+00  0.71168775917E-01 -0.31277726932E-01  0.12831220574E+00  0.20412376620E-01 0.  0.
         14    1    1    2    0    0  0.22746858101E-01  0.45141748276E-02  0.34355154136E-02  0.23443551224E-01  0.00000000000E+00 0.  1.
     999901    1    3    3    0    0 -0.12276718681E+00 -0.75682950745E-01  0.27842211519E-01  0.89217424303E+00  0.88000000000E+00 0.  1.
        -11    1    4    4    0    0  0.46858801389E-01  0.21879038932E-01 -0.16848152771E-01  0.54392655616E-01  0.51100000000E-03 0.  1.
         11    1    4    4    0    0  0.53161527323E-01  0.49289736985E-01 -0.14429574161E-01  0.73919550126E-01  0.51100000000E-03 0. -1.
</event>
<event>
 8    1  0.1109553E+005  0.1043930E+01  0.7957747E-01            NaN
         13   -1    0    0    0    0  0.00000000000E+00  0.00000000000E+00  0.74505805969E-08  0.10566000000E+00  0.10566000000E+00 0.  1.
     999900   -1    0    0    0    0 -0.00000000000E+00 -0.00000000000E+00 -0.74505805969E-08  0.93827000000E+00  0.93827000000E+00 0.  1.
     999902    2    1    2    0    0 -0.14850198108E-01  0.18533839568E-01  0.38066403432E-02  0.10198775136E+01  0.10195938508E+01 0.  0.
     999903    2    3    3    0    0  0.39277666006E-01  0.61880934806E-01  0.10680672585E+00  0.13116056540E+00  0.20577465584E-01 0.  0.
         14    1    1    2    0    0  0.14850198108E-01 -0.18533839568E-01 -0.38066403432E-02  0.24052486434E-01  0.00000000000E+00 0. -1.
     999901    1    3    3    0    0 -0.54127864114E-01 -0.43347095238E-01 -0.10300008551E+00  0.88871694816E+00  0.88000000000E+00 0.  1.
        -11    1    4    4    0    0  0.27087539507E-01  0.33848873483E-01  0.46684199743E-01  0.63711511199E-01  0.51100000000E-03 0.  1.
         11    1    4    4    0    0  0.12190126499E-01  0.28032061323E-01  0.60122526109E-01  0.67449054202E-01  0.51100000000E-03 0. -1.
</event>
<event>
 8    1  0.1109553E+005  0.1043930E+01  0.7957747E-01            NaN
         13   -1    0    0    0    0  0.00000000000E+00  0.00000000000E+00  0.74505805969E-08  0.10566000000E+00  0.10566000000E+00 0. -1.
     999900   -1    0    0    0    0 -0.00000000000E+00 -0.00000000000E+00 -0.74505805969E-08  0.93827000000E+00  0.93827000000E+00 0. -1.
     999902    2    1    2    0    0 -0.10492877944E-01 -0.19869640426E-01  0.37656340580E-04  0.10214599195E+01  0.10212127412E+01 0.  0.
     999903    2    3    3    0    0 -0.95557395056E-01  0.21293967248E-01  0.86356542896E-01  0.13220103437E+00  0.20856945989E-01 0.  0.
         14    1    1    2    0    0  0.10492877944E-01  0.19869640426E-01 -0.37656340580E-04  0.22470080467E-01  0.00000000000E+00 0.  1.
     999901    1    3    3    0    0  0.85064517112E-01 -0.41163607674E-01 -0.86318886556E-01  0.88925888516E+00  0.88000000000E+00 0. -1.
        -11    1    4    4    0    0 -0.65641203836E-01  0.23610516122E-01  0.55361886597E-01  0.89058540978E-01  0.51100000000E-03 0. -1.
         11    1    4    4    0    0 -0.29916191220E-01 -0.23165488739E-02  0.30994656299E-01  0.43142493390E-01  0.51100000000E-03 0.  1.
</event>
<event>
 8    1  0.1109553E+005  0.1043930E+01  0.7957747E-01            NaN
         13   -1    0    0    0    0  0.00000000000E+00  0.00000000000E+00  0.74505805969E-08  0.10566000000E+00  0.10566000000E+00 0. -1.
     999900   -1    0    0    0    0 -0.00000000000E+00 -0.00000000000E+00 -0.74505805969E-08  0.93827000000E+00  0.93827000000E+00 0. -1.
     999902    2    1    2    0    0 -0.22869208498E-01 -0.66006055862E-02  0.39102782901E-02  0.10198082470E+01  0.10195229285E+01 0.  0.
     999903    2    3    3    0    0 -0.73689433822E-01  0.55162640095E-01 -0.91068772161E-01  0.13109096133E+00  0.20451634688E-01 0.  0.
         14    1    1    2    0    0  0.22869208498E-01  0.66006055862E-02 -0.39102782901E-02  0.24121752998E-01  0.00000000000E+00 0. -1.
     999901    1    3    3    0    0  0.50820225325E-01 -0.61763245681E-01  0.94979050451E-01  0.88871728567E+00  0.88000000000E+00 0.  1.
        -11    1    4    4    0    0 -0.48245131375E-01  0.28802979568E-01 -0.66077683783E-01  0.86739412890E-01  0.51100000000E-03 0. -1.
         11    1    4    4    0    0 -0.25444302447E-01  0.26359660526E-01 -0.24991088378E-01  0.44351548444E-01  0.51100000000E-03 0.  1.
</event>
<event>
 8    1  0.1109553E+005  0.1043930E+01  0.7957747E-01            NaN
         13   -1    0    0    0    0  0.00000000000E+00  0.00000000000E+00  0.74505805969E-08  0.10566000000E+00  0.10566000000E+00 0.  1.
     999900   -1    0    0    0    0 -0.00000000000E+00 -0.00000000000E+00 -0.74505805969E-08  0.93827000000E+00  0.93827000000E+00 0. -1.
     999902    2    1    2    0    0  0.20688202521E-01  0.68282536435E-02  0.62984324047E-02  0.10212518823E+01  0.10210000539E+01 0.  0.
     999903    2    3    3    0    0  0.10348647259E+00 -0.80424657959E-01  0.12945778506E-01  0.13304424255E+00  0.18857403768E-01 0.  0.
         14    1    1    2    0    0 -0.20688202521E-01 -0.68282536435E-02 -0.62984324047E-02  0.22678117693E-01  0.00000000000E+00 0. -1.
     999901    1    3    3    0    0 -0.82798270074E-01  0.87252911602E-01 -0.66473461013E-02  0.88820763976E+00  0.88000000000E+00 0.  1.
        -11    1    4    4    0    0  0.85726086087E-01 -0.59285878705E-01  0.51818786614E-02  0.10435942812E+00  0.51100000000E-03 0. -1.
         11    1    4    4    0    0  0.17760386508E-01 -0.21138779254E-01  0.77638998447E-02  0.28684814433E-01  0.51100000000E-03 0.  1.
</event>
<event>
 8    1  0.1109553E+005  0.1043930E+01  0.7957747E-01            NaN
         13   -1    0    0    0    0  0.00000000000E+00  0.00000000000E+00  0.74505805969E-08  0.10566000000E+00  0.10566000000E+00 0.  1.
     999900   -1    0    0    0    0 -0.00000000000E+00 -0.00000000000E+00 -0.74505805969E-08  0.93827000000E+00  0.93827000000E+00 0. -1.
     999902    2    1    2    0    0 -0.12676631794E-02  0.59578414089E-02  0.23623016942E-01  0.10195343083E+01  0.10192423932E+01 0.  0.
     999903    2    3    3    0    0  0.53237848108E-01  0.99939478910E-01  0.65026489124E-01  0.13188705490E+00  0.18535993298E-01 0.  0.
         14    1    1    2    0    0  0.12676631794E-02 -0.59578414089E-02 -0.23623016942E-01  0.24395691702E-01  0.00000000000E+00 0. -1.
     999901    1    3    3    0    0 -0.54505511288E-01 -0.93981637501E-01 -0.41403472182E-01  0.88764725339E+00  0.88000000000E+00 0. -1.
        -11    1    4    4    0    0  0.10465498530E-01  0.24312052914E-01  0.69261746590E-02  0.27364860548E-01  0.51100000000E-03 0.  1.
         11    1    4    4    0    0  0.42772349578E-01  0.75627425996E-01  0.58100314465E-01  0.10452219436E+00  0.51100000000E-03 0. -1.
</event>
<event>
 8    1  0.1109553E+005  0.1043930E+01  0.7957747E-01            NaN
         13   -1    0    0    0    0  0.00000000000E+00  0.00000000000E+00  0.74505805969E-08  0.10566000000E+00  0.10566000000E+00 0. -1.
     999900   -1    0    0    0    0 -0.00000000000E+00 -0.00000000000E+00 -0.74505805969E-08  0.93827000000E+00  0.93827000000E+00 0.  1.
     999902    2    1    2    0    0 -0.31552756984E-02 -0.10783297318E-01  0.21432926895E-01  0.10197307103E+01  0.10194435325E+01 0.  0.
     999903    2    3    3    0    0  0.13455761781E-01  0.29356617211E-01 -0.12128228741E+00  0.12717551780E+00  0.20526826035E-01 0.  0.
         14    1    1    2    0    0  0.31552756984E-02  0.10783297318E-01 -0.21432926895E-01  0.24199289681E-01  0.00000000000E+00 0. -1.
     999901    1    3    3    0    0 -0.16611037480E-01 -0.40139914529E-01  0.14271521431E+00  0.89255519252E+00  0.88000000000E+00 0. -1.
        -11    1    4    4    0    0 -0.49550783258E-02  0.39657136949E-02 -0.29558912219E-01  0.30236899624E-01  0.51100000000E-03 0.  1.
         11    1    4    4    0    0  0.18410840107E-01  0.25390903516E-01 -0.91723375195E-01  0.96938618172E-01  0.51100000000E-03 0. -1.
</event>
<event>
 8    1  0.1109553E+005  0.1043930E+01  0.7957747E-01            NaN
         13   -1    0    0    0    0  0.00000000000E+00  0.00000000000E+00  0.74505805969E-08  0.10566000000E+00  0.10566000000E+00 0.  1.
     999900   -1    0    0    0    0 -0.00000000000E+00 -0.00000000000E+00 -0.74505805969E-08  0.93827000000E+00  0.93827000000E+00 0.  1.
     999902    2    1    2    0    0 -0.20229190697E-01 -0.13111537203E-01 -0.21577796103E-02  0.10197269304E+01  0.10194396618E+01 0.  0.
     999903    2    3    3    0    0  0.62416333396E-01 -0.11717804162E-01 -0.11009044923E+00  0.12928788910E+00  0.23713828153E-01 0.  0.
         14    1    1    2    0    0  0.20229190697E-01  0.13111537203E-01  0.21577796103E-02  0.24203069577E-01  0.00000000000E+00 0.  1.
     999901    1    3    3    0    0 -0.82645524093E-01 -0.13937330419E-02  0.10793266962E+00  0.89043904133E+00  0.88000000000E+00 0. -1.
        -11    1    4    4    0    0  0.42153750088E-01 -0.17468709507E-01 -0.85421401273E-01  0.96846122146E-01  0.51100000000E-03 0.  1.
         11    1    4    4    0    0  0.20262583308E-01  0.57509053451E-02 -0.24669047962E-01  0.32441766952E-01  0.51100000000E-03 0. -1.
</event>
<event>
 8    1  0.1109553E+005  0.1043930E+01  0.7957747E-01            NaN
         13   -1    0    0    0    0  0.00000000000E+00  0.00000000000E+00  0.74505805969E-08  0.10566000000E+00  0.10566000000E+00 0.  1.
     999900   -1    0    0    0    0 -0.00000000000E+00 -0.00000000000E+00 -0.74505805969E-08  0.93827000000E+00  0.93827000000E+00 0. -1.
     999902    2    1    2    0    0 -0.18836575887E-01 -0.15612090446E-01 -0.12211950600E-01  0.10165861580E+01  0.10162183480E+01 0.  0.
     999903    2    3    3    0    0 -0.29704349437E-01  0.54355810637E-01 -0.11060936693E+00  0.12827558885E+00  0.19577847565E-01 0.  0.
         14    1    1    2    0    0  0.18836575887E-01  0.15612090446E-01  0.12211950600E-01  0.27343842025E-01  0.00000000000E+00 0.  1.
     999901    1    3    3    0    0  0.10867773551E-01 -0.69967901083E-01  0.98397416332E-01  0.88831056913E+00  0.88000000000E+00 0.  1.
        -11    1    4    4    0    0 -0.16153769835E-01  0.44537326933E-01 -0.90126975596E-01  0.10182166087E+00  0.51100000000E-03 0. -1.
         11    1    4    4    0    0 -0.13550579602E-01  0.98184837047E-02 -0.20482391336E-01  0.26453927981E-01  0.51100000000E-03 0.  1.
</event>
<event>
 8    1  0.1109553E+005  0.1043930E+01  0.7957747E-01            NaN
         13   -1    0    0    0    0  0.00000000000E+00  0.00000000000E+00  0.74505805969E-08  0.10566000000E+00  0.10566000000E+00 0. -1.
     999900   -1    0    0    0    0 -0.00000000000E+00 -0.00000000000E+00 -0.74505805969E-08  0.93827000000E+00  0.93827000000E+00 0. -1.
     999902    2    1    2    0    0  0.86267175262E-02 -0.21655899451E-01  0.61909902370E-02  0.10198109910E+01  0.10195257381E+01 0.  0.
     999903    2    3    3    0    0  0.96812671272E-01 -0.65916512103E-01 -0.57632609724E-01  0.13199951539E+00  0.19613119900E-01 0.  0.
         14    1    1    2    0    0 -0.86267175262E-02  0.21655899451E-01 -0.61909902370E-02  0.24119009027E-01  0.00000000000E+00 0.  1.
     999901    1    3    3    0    0 -0.88185953745E-01  0.44260612652E-01  0.63823599961E-01  0.88781147559E+00  0.88000000000E+00 0. -1.
        -11    1    4    4    0    0  0.83328054023E-01 -0.55694409291E-01 -0.56444418517E-01  0.11502897599E+00  0.51100000000E-03 0. -1.
         11    1    4    4    0    0  0.13484617249E-01 -0.10222102812E-01 -0.11881912074E-02  0.16970539402E-01  0.51100000000E-03 0.  1.
</event>
<event>
 8    1  0.1109553E+005  0.1043930E+01  0.7957747E-01            NaN
         13   -1    0    0    0    0  0.00000000000E+00  0.00000000000E+00  0.74505805969E-08  0.10566000000E+00  0.10566000000E+00 0. -1.
     999900   -1    0    0    0    0 -0.00000000000E+00 -0.00000000000E+00 -0.74505805969E-08  0.93827000000E+00  0.93827000000E+00 0.  1.
     999902    2    1    2    0    0 -0.15556479727E-01  0.16046264861E-01  0.70053016220E-02  0.10205086224E+01  0.10202398186E+01 0.  0.
     999903    2    3    3    0    0  0.16578647670E-01 -0.17723475307E-01 -0.12543073051E+00  0.12937879776E+00  0.20421361809E-01 0.  0.
         14    1    1    2    0    0  0.15556479727E-01 -0.16046264861E-01 -0.70053016220E-02  0.23421377592E-01  0.00000000000E+00 0.  1.
     999901    1    3    3    0    0 -0.32135127397E-01  0.33769740169E-01  0.13243603213E+00  0.89112982464E+00  0.88000000000E+00 0. -1.
        -11    1    4    4    0    0 -0.46140115850E-02 -0.56113194691E-02 -0.26933281628E-01  0.27900515933E-01  0.51100000000E-03 0. -1.
         11    1    4    4    0    0  0.21192659255E-01 -0.12112155838E-01 -0.98497448885E-01  0.10147828183E+00  0.51100000000E-03 0.  1.
</event>
<event>
 8    1  0.1109553E+005  0.1043930E+01  0.7957747E-01            NaN
         13   -1    0    0    0    0  0.00000000000E+00  0.00000000000E+00  0.74505805969E-08  0.10566000000E+00  0.10566000000E+00 0. -1.
     999900   -1    0    0    0    0 -0.00000000000E+00 -0.00000000000E+00 -0.74505805969E-08  0.93827000000E+00  0.93827000000E+00 0. -1.
     999902    2    1    2    0    0 -0.72456225481E-02  0.18225922157E-01 -0.14821710541E-01  0.10193461356E+01  0.10190496444E+01 0.  0.
     999903    2    3    3    0    0  0.10708343527E+00 -0.45979422886E-01  0.48401927834E-01  0.12738723060E+00  0.17429585885E-01 0.  0.
         14    1    1    2    0    0  0.72456225481E-02 -0.18225922157E-01  0.14821710541E-01  0.24583864382E-01  0.00000000000E+00 0. -1.
     999901    1    3    3    0    0 -0.11432905782E+00  0.64205345043E-01 -0.63223638375E-01  0.89195890502E+00  0.88000000000E+00 0. -1.
        -11    1    4    4    0    0  0.68582883950E-01 -0.21290524183E-01  0.33829091048E-01  0.79382409343E-01  0.51100000000E-03 0. -1.
         11    1    4    4    0    0  0.38500551318E-01 -0.24688898702E-01  0.14572836786E-01  0.48004821257E-01  0.51100000000E-03 0.  1.
</event>
<event>
 8    1  0.1109553E+005  0.1043930E+01  0.7957747E-01            NaN
         13   -1    0    0    0    0  0.00000000000E+00  0.00000000000E+00  0.74505805969E-08  0.10566000000E+00  0.10566000000E+00 0. -1.
     999900   -1    0    0    0    0 -0.00000000000E+00 -0.00000000000E+00 -0.74505805969E-08  0.93827000000E+00  0.93827000000E+00 0. -1.
     999902    2    1    2    0    0 -0.21657485357E-01 -0.22101478986E-02  0.92166685031E-02  0.10202893908E+01  0.10200154717E+01 0.  0.
     999903    2    3    3    0    0 -0.58895033843E-01 -0.11562550466E+00  0.15932525816E-01  0.13220449569E+00  0.19654540494E-01 0.  0.
         14    1    1    2    0    0  0.21657485357E-01  0.22101478986E-02 -0.92166685031E-02  0.23640609214E-01  0.00000000000E+00 0.  1.
     999901    1    3    3    0    0  0.37237548486E-01  0.11341535676E+00 -0.67158573125E-02  0.88808489510E+00  0.88000000000E+00 0. -1.
        -11    1    4    4    0    0 -0.14750413057E-01 -0.45738202224E-01  0.11527903779E-01  0.49423795024E-01  0.51100000000E-03 0.  1.
         11    1    4    4    0    0 -0.44144620786E-01 -0.69887302434E-01  0.44046220364E-02  0.82780700662E-01  0.51100000000E-03 0. -1.
</event>
<event>
 8    1  0.1109553E+005  0.1043930E+01  0.7957747E-01            NaN
         13   -1    0    0    0    0  0.00000000000E+00  0.00000000000E+00  0.74505805969E-08  0.10566000000E+00  0.10566000000E+00 0. -1.
     999900   -1    0    0    0    0 -0.00000000000E+00 -0.00000000000E+00 -0.74505805969E-08  0.93827000000E+00  0.93827000000E+00 0. -1.
     999902    2    1    2    0    0 -0.24561577141E-01 -0.18079624040E-02  0.31537715098E-02  0.10191008624E+01  0.10187983518E+01 0.  0.
     999903    2    3    3    0    0  0.12228535564E+00 -0.17165859756E-01  0.20242386208E-01  0.12663690938E+00  0.19462211388E-01 0.  0.
         14    1    1    2    0    0  0.24561577141E-01  0.18079624040E-02 -0.31537715098E-02  0.24829137609E-01  0.00000000000E+00 0.  1.
     999901    1    3    3    0    0 -0.14684693278E+00  0.15357897352E-01 -0.17088614698E-01  0.89246395301E+00  0.88000000000E+00 0. -1.
        -11    1    4    4    0    0  0.93051994085E-01 -0.79854892391E-02  0.83605485101E-02  0.93768872948E-01  0.51100000000E-03 0. -1.
         11    1    4    4    0    0  0.29233361554E-01 -0.91803705172E-02  0.11881837698E-01  0.32868036428E-01  0.51100000000E-03 0.  1.
</event>
<event>
 7    1  0.1109553E+005  0.1043930E+01  0.7957747E-01            NaN
         13   -1    0    0    0    0  0.00000000000E+00  0.00000000000E+00  0.74505805969E-08  0.10566000000E+00  0.10566000000E+00 0. -1.
     999900   -1    0    0    0    0 -0.00000000000E+00 -0.00000000000E+00 -0.74505805969E-08  0.93827000000E+00  0.93827000000E+00 0.  1.
     999902    2    1    2    0    0  0.60351619520E-02 -0.21466403515E-01 -0.17428653581E-01  0.10156282752E+01  0.10152338675E+01 0.  0.
         14    1    1    2    0    0 -0.60351619520E-02  0.21466403515E-01  0.17428653581E-01  0.28301724777E-01  0.00000000000E+00 0. -1.
     999901    1    3    3    0    0  0.98199364920E-01  0.69185093147E-02  0.56277635506E-01  0.88727569182E+00  0.88000000000E+00 0. -1.
        -11    1    3    3    0    0 -0.49032961711E-01 -0.36547830475E-01 -0.41594937764E-01  0.73961984933E-01  0.51100000000E-03 0.  1.
         11    1    3    3    0    0 -0.43131241257E-01  0.81629176450E-02 -0.32111351323E-01  0.54390598467E-01  0.51100000000E-03 0. -1.
</event>
<event>
 8    1  0.1109553E+005  0.1043930E+01  0.7957747E-01            NaN
         13   -1    0    0    0    0  0.00000000000E+00  0.00000000000E+00  0.74505805969E-08  0.10566000000E+00  0.10566000000E+00 0.  1.
     999900   -1    0    0    0    0 -0.00000000000E+00 -0.00000000000E+00 -0.74505805969E-08  0.93827000000E+00  0.93827000000E+00 0. -1.
     999902    2    1    2    0    0 -0.79469601536E-02  0.18861757538E-01  0.10976765278E-01  0.10207048100E+01  0.10204405420E+01 0.  0.
     999903    2    3    3    0    0  0.25608802462E-01  0.32858130119E-01  0.12434597431E+00  0.13268765637E+00  0.20214483574E-01 0.  0.
         14    1    1    2    0    0  0.79469601536E-02 -0.18861757538E-01 -0.10976765278E-01  0.23225189968E-01  0.00000000000E+00 0. -1.
     999901    1    3    3    0    0 -0.33555762616E-01 -0.13996372581E-01 -0.11336920903E+00  0.88801715367E+00  0.88000000000E+00 0. -1.
        -11    1    4    4    0    0  0.18574899139E-01  0.32223863044E-01  0.86099049656E-01  0.93790786862E-01  0.51100000000E-03 0.  1.
         11    1    4    4    0    0  0.70339033227E-02  0.63426707464E-03  0.38246924653E-01  0.38896869503E-01  0.51100000000E-03 0. -1.
</event>
<event>
 8    1  0.1109553E+005  0.1043930E+01  0.7957747E-01            NaN
         13   -1    0    0    0    0  0.00000000000E+00  0.00000000000E+00  0.74505805969E-08  0.10566000000E+00  0.10566000000E+00 0.  1.
     999900   -1    0    0    0    0 -0.00000000000E+00 -0.00000000000E+00 -0.74505805969E-08  0.93827000000E+00  0.93827000000E+00 0. -1.
     999902    2    1    2    0    0  0.10027935775E-01 -0.20700021298E-01  0.58706834294E-03  0.10209214141E+01  0.10206621080E+01 0.  0.
     999903    2    3    3    0    0  0.44155186830E-01  0.98601002314E-01  0.68880752156E-01  0.12959575486E+00  0.19459277463E-01 0.  0.
         14    1    1    2    0    0 -0.10027935775E-01  0.20700021298E-01 -0.58706834294E-03  0.23008585939E-01  0.00000000000E+00 0. -1.
     999901    1    3    3    0    0 -0.34127251054E-01 -0.11930102361E+00 -0.68293683813E-01  0.89132565920E+00  0.88000000000E+00 0.  1.
        -11    1    4    4    0    0  0.13517992714E-01  0.18478256558E-01  0.22381656428E-01  0.32021582689E-01  0.51100000000E-03 0. -1.
         11    1    4    4    0    0  0.30637194116E-01  0.80122745755E-01  0.46499095727E-01  0.97574172172E-01  0.51100000000E-03 0.  1.
</event>
<event>
 8    1  0.1109553E+005  0.1043930E+01  0.7957747E-01            NaN
         13   -1    0    0    0    0  0.00000000000E+00  0.00000000000E+00  0.74505805969E-08  0.10566000000E+00  0.10566000000E+00 0. -1.
     999900   -1    0    0    0    0 -0.00000000000E+00 -0.00000000000E+00 -0.74505805969E-08  0.93827000000E+00  0.93827000000E+00 0. -1.
     999902    2    1    2    0    0 -0.23825443962E-02 -0.95289458017E-02 -0.21421401049E-01  0.10203640553E+01  0.10200918839E+01 0.  0.
     999903    2    3    3    0    0 -0.81170077030E-01 -0.77685983565E-01  0.62698167300E-01  0.13023543603E+00  0.20162221295E-01 0.  0.
         14    1    1    2    0    0  0.23825443962E-02  0.95289458017E-02  0.21421401049E-01  0.23565944683E-01  0.00000000000E+00 0. -1.
     999901    1    3    3    0    0  0.78787532634E-01  0.68157037763E-01 -0.84119568349E-01  0.89012861929E+00  0.88000000000E+00 0. -1.
        -11    1    4    4    0    0 -0.48192216199E-02  0.21887290845E-03  0.44139074692E-02  0.65586967089E-02  0.51100000000E-03 0.  1.
         11    1    4    4    0    0 -0.76350855410E-01 -0.77904856474E-01  0.58284259831E-01  0.12367673932E+00  0.51100000000E-03 0. -1.
</event>
<event>
 8    1  0.1109553E+005  0.1043930E+01  0.7957747E-01            NaN
         13   -1    0    0    0    0  0.00000000000E+00  0.00000000000E+00  0.74505805969E-08  0.10566000000E+00  0.10566000000E+00 0. -1.
     999900   -1    0    0    0    0 -0.00000000000E+00 -0.00000000000E+00 -0.74505805969E-08  0.93827000000E+00  0.93827000000E+00 0. -1.
     999902    2    1    2    0    0  0.15386125641E-01  0.18539457322E-01 -0.44327859364E-03  0.10198335099E+01  0.10195487958E+01 0.  0.
     999903    2    3    3    0    0 -0.10915110732E+00  0.59209968640E-01  0.30841137571E-01  0.12958504593E+00  0.20526172194E-01 0.  0.
         14    1    1    2    0    0 -0.15386125641E-01 -0.18539457322E-01  0.44327859364E-03  0.24096490117E-01  0.00000000000E+00 0.  1.
     999901    1    3    3    0    0  0.12453723296E+00 -0.40670511318E-01 -0.31284416164E-01  0.89024846396E+00  0.88000000000E+00 0. -1.
        -11    1    4    4    0    0 -0.27825903641E-01  0.81670333926E-02  0.94115813465E-03  0.29019446023E-01  0.51100000000E-03 0.  1.
         11    1    4    4    0    0 -0.81325203681E-01  0.51042935248E-01  0.29899979436E-01  0.10056559990E+00  0.51100000000E-03 0. -1.
</event>
<event>
 8    1  0.1109553E+005  0.1043930E+01  0.7957747E-01            NaN
         13   -1    0    0    0    0  0.00000000000E+00  0.00000000000E+00  0.74505805969E-08  0.10566000000E+00  0.10566000000E+00 0.  1.
     999900   -1    0    0    0    0 -0.00000000000E+00 -0.00000000000E+00 -0.74505805969E-08  0.93827000000E+00  0.93827000000E+00 0.  1.
     999902    2    1    2    0    0 -0.20521944116E-01  0.20532323931E-01 -0.93625123764E-02  0.10134278172E+01  0.10129686854E+01 0.  0.
     999903    2    3    3    0    0 -0.72074303016E-01 -0.62002818024E-01  0.77062358494E-01  0.12385547409E+00  0.19039873060E-01 0.  0.
         14    1    1    2    0    0  0.20521944116E-01 -0.20532323931E-01  0.93625123764E-02  0.30502182779E-01  0.00000000000E+00 0. -1.
     999901    1    3    3    0    0  0.51552358900E-01  0.82535141955E-01 -0.86424870870E-01  0.88957234313E+00  0.88000000000E+00 0. -1.
        -11    1    4    4    0    0 -0.64551153869E-01 -0.55793289944E-01  0.60389195693E-01  0.10453161601E+00  0.51100000000E-03 0. -1.
         11    1    4    4    0    0 -0.75231491476E-02 -0.62095280802E-02  0.16673162801E-01  0.19323858074E-01  0.51100000000E-03 0.  1.
</event>
<event>
 8    1  0.1109553E+005  0.1043930E+01  0.7957747E-01            NaN
         13   -1    0    0    0    0  0.00000000000E+00  0.00000000000E+00  0.74505805969E-08  0.10566000000E+00  0.10566000000E+00 0. -1.
     999900   -1    0    0    0    0 -0.00000000000E+00 -0.00000000000E+00 -0.74505805969E-08  0.93827000000E+00  0.93827000000E+00 0.  1.
     999902    2    1    2    0    0 -0.11688286057E-01  0.20047087581E-01  0.49484743018E-02  0.10202026076E+01  0.10199266500E+01 0.  0.
     999903    2    3    3    0    0 -0.49477496038E-01 -0.72121729347E-01  0.94040441652E-01  0.13011244710E+00  0.20882475082E-01 0.  0.
         14    1    1    2    0    0  0.11688286057E-01 -0.20047087581E-01 -0.49484743018E-02  0.23727392384E-01  0.00000000000E+00 0. -1.
     999901    1    3    3    0    0  0.37789209980E-01  0.92168816928E-01 -0.89091967350E-01  0.89009016052E+00  0.88000000000E+00 0.  1.
        -11    1    4    4    0    0 -0.33560627365E-01 -0.56858109413E-01  0.80949726837E-01  0.10446185769E+00  0.51100000000E-03 0. -1.
         11    1    4    4    0    0 -0.15916868672E-01 -0.15263619934E-01  0.13090714815E-01  0.25650589412E-01  0.51100000000E-03 0.  1.
</event>
<event>
 8    1  0.1109553E+005  0.1043930E+01  0.7957747E-01            NaN
         13   -1    0    0    0    0  0.00000000000E+00  0.00000000000E+00  0.74505805969E-08  0.10566000000E+00  0.10566000000E+00 0. -1.
     999900   -1    0    0    0    0 -0.00000000000E+00 -0.00000000000E+00 -0.74505805969E-08  0.93827000000E+00  0.93827000000E+00 0. -1.
     999902    2    1    2    0    0 -0.72720274330E-02 -0.90071549062E-02 -0.20840064303E-01  0.10200905473E+01  0.10198119460E+01 0.  0.
     999903    2    3    3    0    0 -0.57734395701E-01 -0.19110687202E-01  0.11166824608E+00  0.12868324185E+00  0.19776267067E-01 0.  0.
         14    1    1    2    0    0  0.72720274330E-02  0.90071549062E-02  0.20840064303E-01  0.23839452650E-01  0.00000000000E+00 0. -1.
     999901    1    3    3    0    0  0.50462368268E-01  0.10103532296E-01 -0.13250831038E+00  0.89140730550E+00  0.88000000000E+00 0. -1.
        -11    1    4    4    0    0 -0.11655104473E-01  0.27732796923E-02  0.30992496283E-01  0.33231438238E-01  0.51100000000E-03 0. -1.
         11    1    4    4    0    0 -0.46079291229E-01 -0.21883966895E-01  0.80675749795E-01  0.95451803614E-01  0.51100000000E-03 0.  1.
</event>
<event>
 8    1  0.1109553E+005  0.1043930E+01  0.7957747E-01            NaN
         13   -1    0    0    0    0  0.00000000000E+00  0.00000000000E+00  0.74505805969E-08  0.10566000000E+00  0.10566000000E+00 0.  1.
     999900   -1    0    0    0    0 -0.00000000000E+00 -0.00000000000E+00 -0.74505805969E-08  0.93827000000E+00  0.93827000000E+00 0.  1.
     999902    2    1    2    0    0  0.73368216000E-02  0.55636820613E-02 -0.22782528694E-01  0.10193571059E+01  0.10190608825E+01 0.  0.
     999903    2    3    3    0    0  0.12647667294E+00 -0.63823534335E-03  0.23037222905E-01  0.13012585502E+00  0.20131278271E-01 0.  0.
         14    1    1    2    0    0 -0.73368216000E-02 -0.55636820613E-02  0.22782528694E-01  0.24572894070E-01  0.00000000000E+00 0.  1.
     999901    1    3    3    0    0 -0.11913985134E+00  0.62019174046E-02 -0.45819751598E-01  0.88923125091E+00  0.88000000000E+00 0. -1.
        -11    1    4    4    0    0  0.11140723222E+00 -0.65333810935E-02  0.17207309231E-01  0.11291859488E+00  0.51100000000E-03 0.  1.
         11    1    4    4    0    0  0.15069440718E-01  0.58951457501E-02  0.58299136735E-02  0.17207260137E-01  0.51100000000E-03 0. -1.
</event>
<event>
 8    1  0.1109553E+005  0.1043930E+01  0.7957747E-01            NaN
         13   -1    0    0    0    0  0.00000000000E+00  0.00000000000E+00  0.74505805969E-08  0.10566000000E+00  0.10566000000E+00 0.  1.
     999900   -1    0    0    0    0 -0.00000000000E+00 -0.00000000000E+00 -0.74505805969E-08  0.93827000000E+00  0.93827000000E+00 0. -1.
     999902    2    1    2    0    0 -0.90738628164E-02  0.10762811315E-01  0.18934748949E-01  0.10203355555E+01  0.10200627177E+01 0.  0.
     999903    2    3    3    0    0  0.42018725968E-01  0.52904644453E-01 -0.10656294550E+00  0.12896803419E+00  0.26694901239E-01 0.  0.
         14    1    1    2    0    0  0.90738628164E-02 -0.10762811315E-01 -0.18934748949E-01  0.23594444507E-01  0.00000000000E+00 0. -1.
     999901    1    3    3    0    0 -0.51092588784E-01 -0.42141833138E-01  0.12549769445E+00  0.89136752131E+00  0.88000000000E+00 0.  1.
        -11    1    4    4    0    0  0.23889472812E-01  0.12594220342E-01 -0.28548806390E-01  0.39301612748E-01  0.51100000000E-03 0.  1.
         11    1    4    4    0    0  0.18129253156E-01  0.40310424111E-01 -0.78014139107E-01  0.89666421439E-01  0.51100000000E-03 0. -1.
</event>
<event>
 8    1  0.1109553E+005  0.1043930E+01  0.7957747E-01            NaN
         13   -1    0    0    0    0  0.00000000000E+00  0.00000000000E+00  0.74505805969E-08  0.10566000000E+00  0.10566000000E+00 0.  1.
     999900   -1    0    0    0    0 -0.00000000000E+00 -0.00000000000E+00 -0.74505805969E-08  0.93827000000E+00  0.93827000000E+00 0. -1.
     999902    2    1    2    0    0  0.10712802569E-01 -0.80167615931E-02 -0.19656745640E-01  0.10201514329E+01  0.10198742696E+01 0.  0.
     999903    2    3    3    0    0  0.73679860437E-02 -0.24021837381E-01  0.12409563075E+00  0.12833749714E+00  0.20963103564E-01 0.  0.
         14    1    1    2    0    0 -0.10712802569E-01  0.80167615931E-02  0.19656745640E-01  0.23778567125E-01  0.00000000000E+00 0.  1.
     999901    1    3    3    0    0  0.33448165256E-02  0.16005075788E-01 -0.14375237639E+00  0.89181393573E+00  0.88000000000E+00 0. -1.
        -11    1    4    4    0    0  0.14030626912E-01 -0.12205827271E-01  0.82943789988E-01  0.85004553581E-01  0.51100000000E-03 0.  1.
         11    1    4    4    0    0 -0.66626408688E-02 -0.11816010109E-01  0.41151840766E-01  0.43332943561E-01  0.51100000000E-03 0. -1.
</event>
<event>
 8    1  0.1109553E+005  0.1043930E+01  0.7957747E-01            NaN
         13   -1    0    0    0    0  0.00000000000E+00  0.00000000000E+00  0.74505805969E-08  0.10566000000E+00  0.10566000000E+00 0. -1.
     999900   -1    0    0    0    0 -0.00000000000E+00 -0.00000000000E+00 -0.74505805969E-08  0.93827000000E+00  0.93827000000E+00 0. -1.
     999902    2    1    2    0    0  0.61386123401E-03 -0.22214791309E-01  0.86287365642E-02  0.10200903508E+01  0.10198117449E+01 0.  0.
     999903    2    3    3    0    0  0.62660290996E-01  0.91777466902E-01 -0.60137893191E-01  0.12791724892E+00  0.19920865327E-01 0.  0.
         14    1    1    2    0    0 -0.61386123401E-03  0.22214791309E-01 -0.86287365642E-02  0.23839649184E-01  0.00000000000E+00 0.  1.
     999901    1    3    3    0    0 -0.62046429762E-01 -0.11399225821E+00  0.68766629755E-01  0.89217310190E+00  0.88000000000E+00 0.  1.
        -11    1    4    4    0    0  0.13159035706E-01  0.35813025716E-01 -0.19069091898E-01  0.42657055905E-01  0.51100000000E-03 0.  1.
         11    1    4    4    0    0  0.49501255289E-01  0.55964441186E-01 -0.41068801293E-01  0.85260193016E-01  0.51100000000E-03 0. -1.
</event>
<event>
 8    1  0.1109553E+005  0.1043930E+01  0.7957747E-01            NaN
         13   -1    0    0    0    0  0.00000000000E+00  0.00000000000E+00  0.74505805969E-08  0.10566000000E+00  0.10566000000E+00 0.  1.
     999900   -1    0    0    0    0 -0.00000000000E+00 -0.00000000000E+00 -0.74505805969E-08  0.93827000000E+00  0.93827000000E+00 0. -1.
     999902    2    1    2    0    0  0.38083533734E-02  0.15940468307E-01  0.18208022517E-01  0.10194323640E+01  0.10191379743E+01 0.  0.
     999903    2    3    3    0    0 -0.57345614332E-02  0.12400874392E+00  0.41943665066E-01  0.13245254454E+00  0.19322312263E-01 0.  0.
         14    1    1    2    0    0 -0.38083533734E-02 -0.15940468307E-01 -0.18208022517E-01  0.24497635993E-01  0.00000000000E+00 0. -1.
     999901    1    3    3    0    0  0.95429148066E-02 -0.10806827562E+00 -0.23735642549E-01  0.88697981947E+00  0.88000000000E+00 0.  1.
        -11    1    4    4    0    0 -0.76109634314E-02  0.18684500419E-01  0.88261269448E-02  0.22027232194E-01  0.51100000000E-03 0.  1.
         11    1    4    4    0    0  0.18764019982E-02  0.10532424350E+00  0.33117538121E-01  0.11042531234E+00  0.51100000000E-03 0. -1.
</event>
<event>
 8    1  0.1109553E+005  0.1043930E+01  0.7957747E-01            NaN
         13   -1    0    0    0    0  0.00000000000E+00  0.00000000000E+00  0.74505805969E-08  0.10566000000E+00  0.10566000000E+00 0. -1.
     999900   -1    0    0    0    0 -0.00000000000E+00 -0.00000000000E+00 -0.74505805969E-08  0.93827000000E+00  0.93827000000E+00 0. -1.
     999902    2    1    2    0    0 -0.11217085747E-01 -0.23939645429E-02  0.20452755116E-01  0.10204807085E+01  0.10202112562E+01 0.  0.
     999903    2    3    3    0    0 -0.16971204676E-01  0.35576604170E-01 -0.12058662635E+00  0.12842298556E+00  0.19940216018E-01 0.  0.
         14    1    1    2    0    0  0.11217085747E-01  0.23939645429E-02 -0.20452755116E-01  0.23449291476E-01  0.00000000000E+00 0.  1.
     999901    1    3    3    0    0  0.57541189286E-02 -0.37970568713E-01  0.14103938146E+00  0.89205772296E+00  0.88000000000E+00 0.  1.
        -11    1    4    4    0    0 -0.82242773064E-02  0.30577931235E-01 -0.10641863686E+00  0.11103078856E+00  0.51100000000E-03 0. -1.
         11    1    4    4    0    0 -0.87469273693E-02  0.49986729356E-02 -0.14167989481E-01  0.17392196999E-01  0.51100000000E-03 0.  1.
</event>
<event>
 8    1  0.1109553E+005  0.1043930E+01  0.7957747E-01            NaN
         13   -1    0    0    0    0  0.00000000000E+00  0.00000000000E+00  0.74505805969E-08  0.10566000000E+00  0.10566000000E+00 0. -1.
     999900   -1    0    0    0    0 -0.00000000000E+00 -0.00000000000E+00 -0.74505805969E-08  0.93827000000E+00  0.93827000000E+00 0. -1.
     999902    2    1    2    0    0  0.25198909118E-01  0.71656217526E-02 -0.54969882562E-02  0.10171615851E+01  0.10168092949E+01 0.  0.
     999903    2    3    3    0    0 -0.94430403658E-01  0.79176876308E-01  0.16025531467E-01  0.12589281975E+00  0.20152060143E-01 0.  0.
         14    1    1    2    0    0 -0.25198909118E-01 -0.71656217526E-02  0.54969882562E-02  0.26768414890E-01  0.00000000000E+00 0.  1.
     999901    1    3    3    0    0  0.11962931278E+00 -0.72011254555E-01 -0.21522519723E-01  0.89126876536E+00  0.88000000000E+00 0. -1.
        -11    1    4    4    0    0 -0.48361341637E-01  0.28766839910E-01  0.11613070758E-01  0.57458463056E-01  0.51100000000E-03 0. -1.
         11    1    4    4    0    0 -0.46069062021E-01  0.50410036398E-01  0.44124607097E-02  0.68434356691E-01  0.51100000000E-03 0.  1.
</event>
<event>
 8    1  0.1109553E+005  0.1043930E+01  0.7957747E-01            NaN
         13   -1    0    0    0    0  0.00000000000E+00  0.00000000000E+00  0.74505805969E-08  0.10566000000E+00  0.10566000000E+00 0. -1.
     999900   -1    0    0    0    0 -0.00000000000E+00 -0.00000000000E+00 -0.74505805969E-08  0.93827000000E+00  0.93827000000E+00 0. -1.
     999902    2    1    2    0    0 -0.12438749082E-01  0.20147399430E-01  0.27408178477E-02  0.10200940552E+01  0.10198155368E+01 0.  0.
     999903    2    3    3    0    0  0.67445736781E-01 -0.91575849845E-01  0.50617302076E-01  0.12815472247E+00  0.30437771552E-01 0.  0.
         14    1    1    2    0    0  0.12438749082E-01 -0.20147399430E-01 -0.27408178477E-02  0.23835944810E-01  0.00000000000E+00 0.  1.
     999901    1    3    3    0    0 -0.79884485863E-01  0.11172324928E+00 -0.47876484228E-01  0.89193933272E+00  0.88000000000E+00 0.  1.
        -11    1    4    4    0    0  0.30097023667E-01 -0.44288189019E-01  0.75330520502E-02  0.54076635568E-01  0.51100000000E-03 0.  1.
         11    1    4    4    0    0  0.37348713114E-01 -0.47287660826E-01  0.43084250026E-01  0.74078086902E-01  0.51100000000E-03 0. -1.
</event>
<event>
 8    1  0.1109553E+005  0.1043930E+01  0.7957747E-01            NaN
         13   -1    0    0    0    0  0.00000000000E+00  0.00000000000E+00  0.74505805969E-08  0.10566000000E+00  0.10566000000E+00 0.  1.
     999900   -1    0    0    0    0 -0.00000000000E+00 -0.00000000000E+00 -0.74505805969E-08  0.93827000000E+00  0.93827000000E+00 0.  1.
     999902    2    1    2    0    0  0.36620818133E-02  0.22867750606E-01  0.13756828112E-02  0.10207300568E+01  0.10204663696E+01 0.  0.
     999903    2    3    3    0    0 -0.96393067192E-01  0.88253494646E-01  0.10378158006E-01  0.13260429267E+00  0.19896973405E-01 0.  0.
         14    1    1    2    0    0 -0.36620818133E-02 -0.22867750606E-01 -0.13756828112E-02  0.23199943193E-01  0.00000000000E+00 0. -1.
     999901    1    3    3    0    0  0.10005514901E+00 -0.65385744040E-01 -0.90024751952E-02  0.88812576414E+00  0.88000000000E+00 0. -1.
        -11    1    4    4    0    0 -0.31596963770E-01  0.26897323504E-01  0.12504613084E-01  0.43341211342E-01  0.51100000000E-03 0. -1.
         11    1    4    4    0    0 -0.64796103422E-01  0.61356171141E-01 -0.21264550775E-02  0.89263081327E-01  0.51100000000E-03 0.  1.
</event>
<event>
 8    1  0.1109553E+005  0.1043930E+01  0.7957747E-01            NaN
         13   -1    0    0    0    0  0.00000000000E+00  0.00000000000E+00  0.74505805969E-08  0.10566000000E+00  0.10566000000E+00 0. -1.
     999900   -1    0    0    0    0 -0.00000000000E+00 -0.00000000000E+00 -0.74505805969E-08  0.93827000000E+00  0.93827000000E+00 0. -1.
     999902    2    1    2    0    0  0.12072294746E-01  0.14526031918E-01  0.14461734938E-01  0.10201416062E+01  0.10198642110E+01 0.  0.
     999903    2    3    3    0    0  0.26535855699E-01  0.40785977746E-01 -0.11845316113E+00  0.12965570008E+00  0.20292894391E-01 0.  0.
         14    1    1    2    0    0 -0.12072294746E-01 -0.14526031918E-01 -0.14461734938E-01  0.23788393832E-01  0.00000000000E+00 0.  1.
     999901    1    3    3    0    0 -0.14463560953E-01 -0.26259945829E-01  0.13291489607E+00  0.89048590609E+00  0.88000000000E+00 0.  1.
        -11    1    4    4    0    0  0.98112278666E-02  0.10799945870E-01 -0.16285687545E-01  0.21871985801E-01  0.51100000000E-03 0. -1.
         11    1    4    4    0    0  0.16724627832E-01  0.29986031876E-01 -0.10216747358E+00  0.10778371428E+00  0.51100000000E-03 0.  1.
</event>
<event>
 8    1  0.1109553E+005  0.1043930E+01  0.7957747E-01            NaN
         13   -1    0    0    0    0  0.00000000000E+00  0.00000000000E+00  0.74505805969E-08  0.10566000000E+00  0.10566000000E+00 0.  1.
     999900   -1    0    0    0    0 -0.00000000000E+00 -0.00000000000E+00 -0.74505805969E-08  0.93827000000E+00  0.93827000000E+00 0. -1.
     999902    2    1    2    0    0 -0.17320275580E-01  0.14771383384E-01 -0.70858721578E-02  0.10200889577E+01  0.10198103188E+01 0.  0.
     999903    2    3    3    0    0  0.56990524212E-01 -0.15898610957E-01  0.11236160733E+00  0.12838808641E+00  0.18912542168E-01 0.  0.
         14    1    1    2    0    0  0.17320275580E-01 -0.14771383384E-01  0.70858721578E-02  0.23841042290E-01  0.00000000000E+00 0.  1.
     999901    1    3    3    0    0 -0.74310799792E-01  0.30669994341E-01 -0.11944747948E+00  0.89170087130E+00  0.88000000000E+00 0. -1.
        -11    1    4    4    0    0  0.23607566360E-01  0.25532132314E-02  0.48440502853E-01  0.53949787070E-01  0.51100000000E-03 0.  1.
         11    1    4    4    0    0  0.33382957852E-01 -0.18451824189E-01  0.63921104473E-01  0.74438299341E-01  0.51100000000E-03 0. -1.
</event>
<event>
 8    1  0.1109553E+005  0.1043930E+01  0.7957747E-01            NaN
         13   -1    0    0    0    0  0.00000000000E+00  0.00000000000E+00  0.74505805969E-08  0.10566000000E+00  0.10566000000E+00 0. -1.
     999900   -1    0    0    0    0 -0.00000000000E+00 -0.00000000000E+00 -0.74505805969E-08  0.93827000000E+00  0.93827000000E+00 0. -1.
     999902    2    1    2    0    0 -0.11311039221E-01 -0.39138497266E-02  0.21521494654E-01  0.10193041485E+01  0.10190066313E+01 0.  0.
     999903    2    3    3    0    0  0.82838164863E-01 -0.20479824741E-01 -0.91863228913E-01  0.12689471353E+00  0.19540489147E-01 0.  0.
         14    1    1    2    0    0  0.11311039221E-01  0.39138497266E-02 -0.21521494654E-01  0.24625851460E-01  0.00000000000E+00 0.  1.
     999901    1    3    3    0    0 -0.94149204084E-01  0.16565975014E-01  0.11338472357E+00  0.89240943501E+00  0.88000000000E+00 0.  1.
        -11    1    4    4    0    0  0.58024191066E-01 -0.56458021156E-02 -0.66446373940E-01  0.88397192044E-01  0.51100000000E-03 0.  1.
         11    1    4    4    0    0  0.24813973797E-01 -0.14834022625E-01 -0.25416854973E-01  0.38497521486E-01  0.51100000000E-03 0. -1.
</event>
<event>
 8    1  0.1109553E+005  0.1043930E+01  0.7957747E-01            NaN
         13   -1    0    0    0    0  0.00000000000E+00  0.00000000000E+00  0.74505805969E-08  0.10566000000E+00  0.10566000000E+00 0. -1.
     999900   -1    0    0    0    0 -0.00000000000E+00 -0.00000000000E+00 -0.74505805969E-08  0.93827000000E+00  0.93827000000E+00 0.  1.
     999902    2    1    2    0    0  0.13927637203E-01 -0.26324477753E-02  0.19195446580E-01  0.10200684404E+01  0.10197893160E+01 0.  0.
     999903    2    3    3    0    0 -0.10549912174E+00 -0.46204836697E-01 -0.51997453876E-01  0.12808764857E+00  0.20922688306E-01 0.  0.
         14    1    1    2    0    0 -0.13927637203E-01  0.26324477753E-02 -0.19195446580E-01  0.23861559646E-01  0.00000000000E+00 0.  1.
     999901    1    3    3    0    0  0.11942675894E+00  0.43572388922E-01  0.71192900456E-01  0.89198079178E+00  0.88000000000E+00 0.  1.
        -11    1    4    4    0    0 -0.36734520647E-01 -0.27015118307E-01 -0.22325818796E-01  0.50773466793E-01  0.51100000000E-03 0.  1.
         11    1    4    4    0    0 -0.68764601092E-01 -0.19189718390E-01 -0.29671635080E-01  0.77314181782E-01  0.51100000000E-03 0. -1.
</event>
<event>
 8    1  0.1109553E+005  0.1043930E+01  0.7957747E-01            NaN
         13   -1    0    0    0    0  0.00000000000E+00  0.00000000000E+00  0.74505805969E-08  0.10566000000E+00  0.10566000000E+00 0. -1.
     999900   -1    0    0    0    0 -0.00000000000E+00 -0.00000000000E+00 -0.74505805969E-08  0.93827000000E+00  0.93827000000E+00 0.  1.
     999902    2    1    2    0    0  0.15498261132E-01  0.58163952470E-03  0.17243791507E-01  0.10207377007E+01  0.10204741892E+01 0.  0.
     999903    2    3    3    0    0 -0.73569579633E-01 -0.58860245351E-01 -0.84786124124E-01  0.12839442501E+00  0.20479990216E-01 0.  0.
         14    1    1    2    0    0 -0.15498261132E-01 -0.58163952470E-03 -0.17243791507E-01  0.23192299329E-01  0.00000000000E+00 0.  1.
     999901    1    3    3    0    0  0.89067840764E-01  0.59441884876E-01  0.10202991563E+00  0.89234327566E+00  0.88000000000E+00 0. -1.
        -11    1    4    4    0    0 -0.32108841328E-01 -0.33785933479E-01 -0.52295607142E-01  0.70053969480E-01  0.51100000000E-03 0.  1.
         11    1    4    4    0    0 -0.41460738304E-01 -0.25074311872E-01 -0.32490516981E-01  0.58340455529E-01  0.51100000000E-03 0. -1.
</event>
<event>
 8    1  0.1109553E+005  0.1043930E+01  0.7957747E-01            NaN
         13   -1    0    0    0    0  0.00000000000E+00  0.00000000000E+00  0.74505805969E-08  0.10566000000E+00  0.10566000000E+00 0.  1.
     999900   -1    0    0    0    0 -0.00000000000E+00 -0.00000000000E+00 -0.74505805969E-08  0.93827000000E+00  0.93827000000E+00 0.  1.
     999902    2    1    2    0    0 -0.21152712885E-01  0.80245176403E-02 -0.57698790183E-02  0.10205821596E+01  0.10203150606E+01 0.  0.
     999903    2    3    3    0    0  0.46119212544E-01 -0.38994136904E-01  0.11232082719E+00  0.12890863153E+00  0.18813361861E-01 0.  0.
         14    1    1    2    0    0  0.21152712885E-01 -0.80245176403E-02  0.57698790183E-02  0.23347840364E-01  0.00000000000E+00 0.  1.
     999901    1    3    3    0    0 -0.67271925429E-01  0.47018654545E-01 -0.11809070621E+00  0.89167352810E+00  0.88000000000E+00 0.  1.
        -11    1    4    4    0    0  0.23856984685E-01 -0.29781878544E-01  0.57341259288E-01  0.68879584389E-01  0.51100000000E-03 0. -1.
         11    1    4    4    0    0  0.22262227859E-01 -0.92122583606E-02  0.54979567902E-01  0.60029047144E-01  0.51100000000E-03 0.  1.
</event>
<event>
 8    1  0.1109553E+005  0.1043930E+01  0.7957747E-01            NaN
         13   -1    0    0    0    0  0.00000000000E+00  0.00000000000E+00  0.74505805969E-08  0.10566000000E+00  0.10566000000E+00 0.  1.
     999900   -1    0    0    0    0 -0.00000000000E+00 -0.00000000000E+00 -0.74505805969E-08  0.93827000000E+00  0.93827000000E+00 0. -1.
     999902    2    1    2    0    0  0.18581985275E-02  0.51117984808E-02  0.22734731319E-01  0.10205537002E+01  0.10202859420E+01 0.  0.
     999903    2    3    3    0    0 -0.10418453542E+00 -0.69956942929E-01 -0.28635197151E-01  0.12953223752E+00  0.14499474363E-01 0.  0.
         14    1    1    2    0    0 -0.18581985275E-02 -0.51117984808E-02 -0.22734731319E-01  0.23376299827E-01  0.00000000000E+00 0. -1.
     999901    1    3    3    0    0  0.10604273394E+00  0.75068741410E-01  0.51369928470E-01  0.89102146265E+00  0.88000000000E+00 0.  1.
        -11    1    4    4    0    0 -0.53736516284E-01 -0.28209658645E-01 -0.10614821959E-01  0.61614394336E-01  0.51100000000E-03 0. -1.
         11    1    4    4    0    0 -0.50448019133E-01 -0.41747284284E-01 -0.18020375192E-01  0.67917843183E-01  0.51100000000E-03 0.  1.
</event>
<event>
 8    1  0.1109553E+005  0.1043930E+01  0.7957747E-01            NaN
         13   -1    0    0    0    0  0.00000000000E+00  0.00000000000E+00  0.74505805969E-08  0.10566000000E+00  0.10566000000E+00 0. -1.
     999900   -1    0    0    0    0 -0.00000000000E+00 -0.00000000000E+00 -0.74505805969E-08  0.93827000000E+00  0.93827000000E+00 0.  1.
     999902    2    1    2    0    0 -0.15347064449E-01 -0.84446523565E-02  0.17120950235E-01  0.10194356848E+01  0.10191413758E+01 0.  0.
     999903    2    3    3    0    0  0.52917121290E-01  0.53972914839E-01 -0.99735295598E-01  0.12690482597E+00  0.21080996320E-01 0.  0.
         14    1    1    2    0    0  0.15347064449E-01  0.84446523565E-02 -0.17120950235E-01  0.24494315209E-01  0.00000000000E+00 0. -1.
     999901    1    3    3    0    0 -0.68264185739E-01 -0.62417567195E-01  0.11685624583E+00  0.89253085882E+00  0.88000000000E+00 0. -1.
        -11    1    4    4    0    0  0.44879360058E-01  0.45581801107E-01 -0.69241757125E-01  0.94268444360E-01  0.51100000000E-03 0.  1.
         11    1    4    4    0    0  0.80377612323E-02  0.83911137320E-02 -0.30493538473E-01  0.32636381614E-01  0.51100000000E-03 0. -1.
</event>
<event>
 8    1  0.1109553E+005  0.1043930E+01  0.7957747E-01            NaN
         13   -1    0    0    0    0  0.00000000000E+00  0.00000000000E+00  0.74505805969E-08  0.10566000000E+00  0.10566000000E+00 0.  1.
     999900   -1    0    0    0    0 -0.00000000000E+00 -0.00000000000E+00 -0.74505805969E-08  0.93827000000E+00  0.93827000000E+00 0.  1.
     999902    2    1    2    0    0  0.98453045484E-02  0.86810217049E-02  0.18960641253E-01  0.10208692958E+01  0.10206088002E+01 0.  0.
     999903    2    3    3    0    0 -0.73925516937E-01 -0.10358602668E+00  0.10582498168E-01  0.12975110280E+00  0.22985048034E-01 0.  0.
         14    1    1    2    0    0 -0.98453045484E-02 -0.86810217049E-02 -0.18960641253E-01  0.23060704157E-01  0.00000000000E+00 0. -1.
     999901    1    3    3    0    0  0.83770821486E-01  0.11226704839E+00  0.83781430850E-02  0.89111819304E+00  0.88000000000E+00 0.  1.
        -11    1    4    4    0    0 -0.60217960625E-01 -0.80497311904E-01 -0.92307289614E-03  0.10053423889E+00  0.51100000000E-03 0.  1.
         11    1    4    4    0    0 -0.13707556312E-01 -0.23088714777E-01  0.11505571064E-01  0.29216863908E-01  0.51100000000E-03 0. -1.
</event>
<event>
 8    1  0.1109553E+005  0.1043930E+01  0.7957747E-01            NaN
         13   -1    0    0    0    0  0.00000000000E+00  0.00000000000E+00  0.74505805969E-08  0.10566000000E+00  0.10566000000E+00 0.  1.
     999900   -1    0    0    0    0 -0.00000000000E+00 -0.00000000000E+00 -0.74505805969E-08  0.93827000000E+00  0.93827000000E+00 0. -1.
     999902    2    1    2    0    0 -0.18188742924E-01  0.11855947799E-01  0.88819890012E-02  0.10204718757E+01  0.10202022179E+01 0.  0.
     999903    2    3    3    0    0 -0.24219064637E-01 -0.52103847823E-01 -0.11436573517E+00  0.12956378742E+00  0.20146453305E-01 0.  0.
         14    1    1    2    0    0  0.18188742924E-01 -0.11855947799E-01 -0.88819890012E-02  0.23458124307E-01  0.00000000000E+00 0. -1.
     999901    1    3    3    0    0  0.60303217125E-02  0.63959795622E-01  0.12324772417E+00  0.89090808827E+00  0.88000000000E+00 0.  1.
        -11    1    4    4    0    0 -0.13991152153E-02 -0.60351335323E-02 -0.31014548749E-01  0.31631372326E-01  0.51100000000E-03 0.  1.
         11    1    4    4    0    0 -0.22819949422E-01 -0.46068714291E-01 -0.83351186418E-01  0.97932415095E-01  0.51100000000E-03 0. -1.
</event>
<event>
 8    1  0.1109553E+005  0.1043930E+01  0.7957747E-01            NaN
         13   -1    0    0    0    0  0.00000000000E+00  0.00000000000E+00  0.74505805969E-08  0.10566000000E+00  0.10566000000E+00 0.  1.
     999900   -1    0    0    0    0 -0.00000000000E+00 -0.00000000000E+00 -0.74505805969E-08  0.93827000000E+00  0.93827000000E+00 0.  1.
     999902    2    1    2    0    0 -0.21072420389E-01  0.15529106521E-01 -0.74421573086E-02  0.10167162947E+01  0.10163520247E+01 0.  0.
     999903    2    3    3    0    0 -0.53510063593E-01 -0.10089251384E+00  0.51134526545E-01  0.12652675181E+00  0.18752409565E-01 0.  0.
         14    1    1    2    0    0  0.21072420389E-01 -0.15529106521E-01  0.74421573086E-02  0.27213705294E-01  0.00000000000E+00 0. -1.
     999901    1    3    3    0    0  0.32437643204E-01  0.11642162036E+00 -0.58576683853E-01  0.89018954289E+00  0.88000000000E+00 0.  1.
        -11    1    4    4    0    0 -0.37963277485E-01 -0.53508317109E-01  0.24902344523E-01  0.70176479828E-01  0.51100000000E-03 0.  1.
         11    1    4    4    0    0 -0.15546786108E-01 -0.47384196732E-01  0.26232182021E-01  0.56350271986E-01  0.51100000000E-03 0. -1.
</event>
<event>
 8    1  0.1109553E+005  0.1043930E+01  0.7957747E-01            NaN
         13   -1    0    0    0    0  0.00000000000E+00  0.00000000000E+00  0.74505805969E-08  0.10566000000E+00  0.10566000000E+00 0. -1.
     999900   -1    0    0    0    0 -0.00000000000E+00 -0.00000000000E+00 -0.74505805969E-08  0.93827000000E+00  0.93827000000E+00 0.  1.
     999902    2    1    2    0    0  0.19084745544E-02  0.20363973921E-01  0.24700576251E-01  0.10118605102E+01  0.10113521839E+01 0.  0.
     999903    2    3    3    0    0  0.91289088107E-01  0.22604464288E-01 -0.75587780915E-01  0.12166296557E+00  0.15611058738E-01 0.  0.
         14    1    1    2    0    0 -0.19084745544E-02 -0.20363973921E-01 -0.24700576251E-01  0.32069489801E-01  0.00000000000E+00 0.  1.
     999901    1    3    3    0    0 -0.89380613552E-01 -0.22404903671E-02  0.10028835717E+00  0.89019754463E+00  0.88000000000E+00 0. -1.
        -11    1    4    4    0    0  0.35404428466E-01  0.14991870350E-01 -0.24733312643E-01  0.45719007064E-01  0.51100000000E-03 0.  1.
         11    1    4    4    0    0  0.55884659641E-01  0.76125939381E-02 -0.50854468273E-01  0.75943958508E-01  0.51100000000E-03 0. -1.
</event>
<event>
 8    1  0.1109553E+005  0.1043930E+01  0.7957747E-01            NaN
         13   -1    0    0    0    0  0.00000000000E+00  0.00000000000E+00  0.74505805969E-08  0.10566000000E+00  0.10566000000E+00 0. -1.
     999900   -1    0    0    0    0 -0.00000000000E+00 -0.00000000000E+00 -0.74505805969E-08  0.93827000000E+00  0.93827000000E+00 0. -1.
     999902    2    1    2    0    0  0.67368347332E-02 -0.20326252887E-01  0.90753589347E-02  0.10206726648E+01  0.10204076563E+01 0.  0.
     999903    2    3    3    0    0 -0.10202258484E+00  0.70237958721E-01  0.30953890859E-01  0.12909588300E+00  0.19121322795E-01 0.  0.
         14    1    1    2    0    0 -0.67368347332E-02  0.20326252887E-01 -0.90753589347E-02  0.23257335154E-01  0.00000000000E+00 0. -1.
     999901    1    3    3    0    0  0.10875941957E+00 -0.90564211608E-01 -0.21878531925E-01  0.89157678185E+00  0.88000000000E+00 0. -1.
        -11    1    4    4    0    0 -0.67410062700E-01  0.37385140998E-01  0.24804934121E-01  0.80977226418E-01  0.51100000000E-03 0. -1.
         11    1    4    4    0    0 -0.34612522140E-01  0.32852817723E-01  0.61489567388E-02  0.48118656581E-01  0.51100000000E-03 0.  1.
</event>
<event>
 8    1  0.1109553E+005  0.1043930E+01  0.7957747E-01            NaN
         13   -1    0    0    0    0  0.00000000000E+00  0.00000000000E+00  0.74505805969E-08  0.10566000000E+00  0.10566000000E+00 0. -1.
     999900   -1    0    0    0    0 -0.00000000000E+00 -0.00000000000E+00 -0.74505805969E-08  0.93827000000E+00  0.93827000000E+00 0. -1.
     999902    2    1    2    0    0  0.15547515680E-01 -0.17803489316E-01 -0.66736091170E-03  0.10202839676E+01  0.10200099214E+01 0.  0.
     999903    2    3    3    0    0 -0.11144321122E-01 -0.53929321520E-01 -0.11766212235E+00  0.13140528970E+00  0.19758732563E-01 0.  0.
         14    1    1    2    0    0 -0.15547515680E-01  0.17803489316E-01  0.66736091170E-03  0.23646032357E-01  0.00000000000E+00 0. -1.
     999901    1    3    3    0    0  0.26691836803E-01  0.36125832204E-01  0.11699476143E+00  0.88887867795E+00  0.88000000000E+00 0.  1.
        -11    1    4    4    0    0 -0.21851688644E-02 -0.14495131345E-01 -0.54220972393E-01  0.56169909773E-01  0.51100000000E-03 0.  1.
         11    1    4    4    0    0 -0.89591522581E-02 -0.39434190175E-01 -0.63441149953E-01  0.75235379924E-01  0.51100000000E-03 0. -1.
</event>
<event>
 8    1  0.1109553E+005  0.1043930E+01  0.7957747E-01            NaN
         13   -1    0    0    0    0  0.00000000000E+00  0.00000000000E+00  0.74505805969E-08  0.10566000000E+00  0.10566000000E+00 0. -1.
     999900   -1    0    0    0    0 -0.00000000000E+00 -0.00000000000E+00 -0.74505805969E-08  0.93827000000E+00  0.93827000000E+00 0. -1.
     999902    2    1    2    0    0 -0.11816814197E-01  0.20176355767E-02 -0.25908595316E-01  0.10153824386E+01  0.10149810507E+01 0.  0.
     999903    2    3    3    0    0 -0.60373570316E-01  0.72837166235E-01 -0.85612664654E-01  0.12918960383E+00  0.20253508608E-01 0.  0.
         14    1    1    2    0    0  0.11816814197E-01 -0.20176355767E-02  0.25908595316E-01  0.28547561407E-01  0.00000000000E+00 0. -1.
     999901    1    3    3    0    0  0.48556756119E-01 -0.70819530658E-01  0.59704069339E-01  0.88619283476E+00  0.88000000000E+00 0. -1.
        -11    1    4    4    0    0 -0.31079687790E-01  0.26783020071E-01 -0.27113682040E-01  0.49180179260E-01  0.51100000000E-03 0. -1.
         11    1    4    4    0    0 -0.29293882526E-01  0.46054146164E-01 -0.58498982614E-01  0.80009424571E-01  0.51100000000E-03 0.  1.
</event>
<event>
 8    1  0.1109553E+005  0.1043930E+01  0.7957747E-01            NaN
         13   -1    0    0    0    0  0.00000000000E+00  0.00000000000E+00  0.74505805969E-08  0.10566000000E+00  0.10566000000E+00 0.  1.
     999900   -1    0    0    0    0 -0.00000000000E+00 -0.00000000000E+00 -0.74505805969E-08  0.93827000000E+00  0.93827000000E+00 0.  1.
     999902    2    1    2    0    0 -0.21407732119E-01  0.50929363689E-02 -0.32885844678E-02  0.10216804206E+01  0.10214381225E+01 0.  0.
     999903    2    3    3    0    0 -0.55999225513E-01 -0.10922489446E+00 -0.45787675635E-01  0.13259588548E+00  0.20473562879E-01 0.  0.
         14    1    1    2    0    0  0.21407732119E-01 -0.50929363689E-02  0.32885844678E-02  0.22249579392E-01  0.00000000000E+00 0. -1.
     999901    1    3    3    0    0  0.34591493395E-01  0.11431783083E+00  0.42499091167E-01  0.88908453513E+00  0.88000000000E+00 0. -1.
        -11    1    4    4    0    0 -0.17107411388E-01 -0.55039408798E-01 -0.18574829423E-01  0.60558116337E-01  0.51100000000E-03 0. -1.
         11    1    4    4    0    0 -0.38891814125E-01 -0.54185485663E-01 -0.27212846212E-01  0.72037769139E-01  0.51100000000E-03 0.  1.
</event>
<event>
 8    1  0.1109553E+005  0.1043930E+01  0.7957747E-01            NaN
         13   -1    0    0    0    0  0.00000000000E+00  0.00000000000E+00  0.74505805969E-08  0.10566000000E+00  0.10566000000E+00 0.  1.
     999900   -1    0    0    0    0 -0.00000000000E+00 -0.00000000000E+00 -0.74505805969E-08  0.93827000000E+00  0.93827000000E+00 0. -1.
     999902    2    1    2    0    0  0.94122381879E-02  0.12303239706E-02  0.23006603137E-01  0.10190420971E+01  0.10187381351E+01 0.  0.
     999903    2    3    3    0    0 -0.10561108035E+00  0.66591198833E-01 -0.20913497502E-01  0.12806994093E+00  0.19402250806E-01 0.  0.
         14    1    1    2    0    0 -0.94122381879E-02 -0.12303239706E-02 -0.23006603137E-01  0.24887902939E-01  0.00000000000E+00 0. -1.
     999901    1    3    3    0    0  0.11502331854E+00 -0.65360874863E-01  0.43920100639E-01  0.89097215614E+00  0.88000000000E+00 0.  1.
        -11    1    4    4    0    0 -0.80465213069E-01  0.43060867406E-01 -0.20905472393E-01  0.93627926993E-01  0.51100000000E-03 0.  1.
         11    1    4    4    0    0 -0.25145867279E-01  0.23530331427E-01 -0.80251093861E-05  0.34442013932E-01  0.51100000000E-03 0. -1.
</event>
<event>
 8    1  0.1109553E+005  0.1043930E+01  0.7957747E-01            NaN
         13   -1    0    0    0    0  0.00000000000E+00  0.00000000000E+00  0.74505805969E-08  0.10566000000E+00  0.10566000000E+00 0. -1.
     999900   -1    0    0    0    0 -0.00000000000E+00 -0.00000000000E+00 -0.74505805969E-08  0.93827000000E+00  0.93827000000E+00 0.  1.
     999902    2    1    2    0    0 -0.11330418851E-01  0.19362328272E-01  0.52648900930E-03  0.10214899613E+01  0.10212434507E+01 0.  0.
     999903    2    3    3    0    0 -0.36835004784E-01  0.11203348522E+00 -0.60620088550E-01  0.13414711255E+00  0.20305991289E-01 0.  0.
         14    1    1    2    0    0  0.11330418851E-01 -0.19362328272E-01 -0.52648900930E-03  0.22440038729E-01  0.00000000000E+00 0. -1.
     999901    1    3    3    0    0  0.25504585933E-01 -0.92671156944E-01  0.61146577559E-01  0.88734284872E+00  0.88000000000E+00 0. -1.
        -11    1    4    4    0    0 -0.15226773257E-01  0.76803881564E-01 -0.41255341007E-01  0.88503983694E-01  0.51100000000E-03 0. -1.
         11    1    4    4    0    0 -0.21608231528E-01  0.35229603651E-01 -0.19364747543E-01  0.45643128854E-01  0.51100000000E-03 0.  1.
</event>
<event>
 8    1  0.1109553E+005  0.1043930E+01  0.7957747E-01            NaN
         13   -1    0    0    0    0  0.00000000000E+00  0.00000000000E+00  0.74505805969E-08  0.10566000000E+00  0.10566000000E+00 0. -1.
     999900   -1    0    0    0    0 -0.00000000000E+00 -0.00000000000E+00 -0.74505805969E-08  0.93827000000E+00  0.93827000000E+00 0.  1.
     999902    2    1    2    0    0  0.63847690679E-02 -0.26309450524E-02 -0.23344950744E-01  0.10195851058E+01  0.10192944197E+01 0.  0.
     999903    2    3    3    0    0 -0.56872825760E-01  0.10687817533E+00  0.38014624319E-01  0.12842924503E+00  0.19786274125E-01 0.  0.
         14    1    1    2    0    0 -0.63847690679E-02  0.26309450524E-02  0.23344950744E-01  0.24344894191E-01  0.00000000000E+00 0. -1.
     999901    1    3    3    0    0  0.63257594828E-01 -0.10950912039E+00 -0.61359575063E-01  0.89115586078E+00  0.88000000000E+00 0. -1.
        -11    1    4    4    0    0 -0.22047165084E-01  0.62035532812E-01  0.18482930022E-01  0.68383950184E-01  0.51100000000E-03 0. -1.
         11    1    4    4    0    0 -0.34825660676E-01  0.44842642522E-01  0.19531694296E-01  0.60045294845E-01  0.51100000000E-03 0.  1.
</event>
<event>
 8    1  0.1109553E+005  0.1043930E+01  0.7957747E-01            NaN
         13   -1    0    0    0    0  0.00000000000E+00  0.00000000000E+00  0.74505805969E-08  0.10566000000E+00  0.10566000000E+00 0. -1.
     999900   -1    0    0    0    0 -0.00000000000E+00 -0.00000000000E+00 -0.74505805969E-08  0.93827000000E+00  0.93827000000E+00 0. -1.
     999902    2    1    2    0    0  0.14684440939E-01 -0.16032294188E-01 -0.79921043623E-02  0.10207666454E+01  0.10205037988E+01 0.  0.
     999903    2    3    3    0    0 -0.30248375025E-01  0.23815013968E-01 -0.12386479167E+00  0.13114130543E+00  0.19324499796E-01 0.  0.
         14    1    1    2    0    0 -0.14684440939E-01  0.16032294188E-01  0.79921043623E-02  0.23163354566E-01  0.00000000000E+00 0. -1.
     999901    1    3    3    0    0  0.44932815964E-01 -0.39847308156E-01  0.11587268731E+00  0.88962534001E+00  0.88000000000E+00 0.  1.
        -11    1    4    4    0    0 -0.11679331059E-01 -0.66500731807E-03 -0.24912524820E-01  0.27527150645E-01  0.51100000000E-03 0. -1.
         11    1    4    4    0    0 -0.18569043966E-01  0.24480021286E-01 -0.98952266848E-01  0.10361415478E+00  0.51100000000E-03 0.  1.
</event>
<event>
 8    1  0.1109553E+005  0.1043930E+01  0.7957747E-01            NaN
         13   -1    0    0    0    0  0.00000000000E+00  0.00000000000E+00  0.74505805969E-08  0.10566000000E+00  0.10566000000E+00 0. -1.
     999900   -1    0    0    0    0 -0.00000000000E+00 -0.00000000000E+00 -0.74505805969E-08  0.93827000000E+00  0.93827000000E+00 0.  1.
     999902    2    1    2    0    0 -0.17415228682E-01 -0.12187069240E-01 -0.74395592379E-02  0.10214097449E+01  0.10211614491E+01 0.  0.
     999903    2    3    3    0    0  0.10848899019E+00 -0.66886307158E-01  0.19022787693E-01  0.13037431648E+00  0.19797900599E-01 0.  0.
         14    1    1    2    0    0  0.17415228682E-01  0.12187069240E-01  0.74395592379E-02  0.22520255069E-01  0.00000000000E+00 0. -1.
     999901    1    3    3    0    0 -0.12590421887E+00  0.54699237919E-01 -0.26462346931E-01  0.89103542846E+00  0.88000000000E+00 0. -1.
        -11    1    4    4    0    0  0.37759103145E-01 -0.27275713501E-01  0.15986273410E-01  0.49249735795E-01  0.51100000000E-03 0.  1.
         11    1    4    4    0    0  0.70729887041E-01 -0.39610593657E-01  0.30365142827E-02  0.81124580681E-01  0.51100000000E-03 0. -1.
</event>
<event>
 8    1  0.1109553E+005  0.1043930E+01  0.7957747E-01            NaN
         13   -1    0    0    0    0  0.00000000000E+00  0.00000000000E+00  0.74505805969E-08  0.10566000000E+00  0.10566000000E+00 0.  1.
     999900   -1    0    0    0    0 -0.00000000000E+00 -0.00000000000E+00 -0.74505805969E-08  0.93827000000E+00  0.93827000000E+00 0.  1.
     999902    2    1    2    0    0  0.13832956336E-01  0.18635998718E-01  0.14654043743E-04  0.10207211365E+01  0.10204572442E+01 0.  0.
     999903    2    3    3    0    0  0.70361796285E-01 -0.99020955270E-01 -0.42094467024E-01  0.13009672262E+00  0.19931912160E-01 0.  0.
         14    1    1    2    0    0 -0.13832956336E-01 -0.18635998718E-01 -0.14654043743E-04  0.23208863478E-01  0.00000000000E+00 0. -1.
     999901    1    3    3    0    0 -0.56528839949E-01  0.11765695399E+00  0.42109121068E-01  0.89062441391E+00  0.88000000000E+00 0.  1.
        -11    1    4    4    0    0  0.35878733750E-01 -0.59815541430E-01 -0.15311923071E-01  0.71413574628E-01  0.51100000000E-03 0. -1.
         11    1    4    4    0    0  0.34483062535E-01 -0.39205413841E-01 -0.26782543953E-01  0.58683147988E-01  0.51100000000E-03 0.  1.
</event>
<event>
 8    1  0.1109553E+005  0.1043930E+01  0.7957747E-01            NaN
         13   -1    0    0    0    0  0.00000000000E+00  0.00000000000E+00  0.74505805969E-08  0.10566000000E+00  0.10566000000E+00 0. -1.
     999900   -1    0    0    0    0 -0.00000000000E+00 -0.00000000000E+00 -0.74505805969E-08  0.93827000000E+00  0.93827000000E+00 0.  1.
     999902    2    1    2    0    0 -0.27943951306E-02  0.45692912671E-02  0.23258814581E-01  0.10200624588E+01  0.10197831928E+01 0.  0.
     999903    2    3    3    0    0 -0.50664853883E-01  0.17865522069E-01 -0.11447408656E+00  0.12796452549E+00  0.19608645888E-01 0.  0.
         14    1    1    2    0    0  0.27943951306E-02 -0.45692912671E-02 -0.23258814581E-01  0.23867541192E-01  0.00000000000E+00 0.  1.
     999901    1    3    3    0    0  0.47870458752E-01 -0.13296230802E-01  0.13773290114E+00  0.89209793332E+00  0.88000000000E+00 0. -1.
        -11    1    4    4    0    0 -0.23219982979E-01  0.17923378647E-01 -0.66683798391E-01  0.72851940266E-01  0.51100000000E-03 0. -1.
         11    1    4    4    0    0 -0.27444870903E-01 -0.57856577949E-04 -0.47790288165E-01  0.55112585225E-01  0.51100000000E-03 0.  1.
</event>
<event>
 8    1  0.1109553E+005  0.1043930E+01  0.7957747E-01            NaN
         13   -1    0    0    0    0  0.00000000000E+00  0.00000000000E+00  0.74505805969E-08  0.10566000000E+00  0.10566000000E+00 0.  1.
     999900   -1    0    0    0    0 -0.00000000000E+00 -0.00000000000E+00 -0.74505805969E-08  0.93827000000E+00  0.93827000000E+00 0.  1.
     999902    2    1    2    0    0 -0.56123115244E-03 -0.19120717906E-01  0.12320378520E-01  0.10211767901E+01  0.10209232724E+01 0.  0.
     999903    2    3    3    0    0 -0.70302309166E-01 -0.18135894898E-01 -0.10655511043E+00  0.13044890253E+00  0.19788866929E-01 0.  0.
         14    1    1    2    0    0  0.56123115244E-03  0.19120717906E-01 -0.12320378520E-01  0.22753209895E-01  0.00000000000E+00 0. -1.
     999901    1    3    3    0    0  0.69741078013E-01 -0.98482300778E-03  0.11887548895E+00  0.89072788758E+00  0.88000000000E+00 0. -1.
        -11    1    4    4    0    0 -0.34559548883E-01 -0.15786588840E-01 -0.67441662014E-01  0.77409416110E-01  0.51100000000E-03 0.  1.
         11    1    4    4    0    0 -0.35742760282E-01 -0.23493060582E-02 -0.39113448413E-01  0.53039486417E-01  0.51100000000E-03 0. -1.
</event>
<event>
 8    1  0.1109553E+005  0.1043930E+01  0.7957747E-01            NaN
         13   -1    0    0    0    0  0.00000000000E+00  0.00000000000E+00  0.74505805969E-08  0.10566000000E+00  0.10566000000E+00 0. -1.
     999900   -1    0    0    0    0 -0.00000000000E+00 -0.00000000000E+00 -0.74505805969E-08  0.93827000000E+00  0.93827000000E+00 0. -1.
     999902    2    1    2    0    0 -0.13146685600E-01 -0.11814310083E-01  0.18368756935E-01  0.10184383446E+01  0.10181192647E+01 0.  0.
     999903    2    3    3    0    0  0.95222594737E-01  0.39735060167E-01  0.74074400501E-01  0.12854826304E+00  0.19784376798E-01 0.  0.
         14    1    1    2    0    0  0.13146685600E-01  0.11814310083E-01 -0.18368756935E-01  0.25491655425E-01  0.00000000000E+00 0. -1.
     999901    1    3    3    0    0 -0.10836928034E+00 -0.51549370251E-01 -0.55705643566E-01  0.88989008154E+00  0.88000000000E+00 0. -1.
        -11    1    4    4    0    0  0.31547560337E-01  0.36384929985E-02  0.19831402194E-01  0.37443728827E-01  0.51100000000E-03 0. -1.
         11    1    4    4    0    0  0.63675034401E-01  0.36096567169E-01  0.54242998307E-01  0.91104534210E-01  0.51100000000E-03 0.  1.
</event>
<event>
 8    1  0.1109553E+005  0.1043930E+01  0.7957747E-01            NaN
         13   -1    0    0    0    0  0.00000000000E+00  0.00000000000E+00  0.74505805969E-08  0.10566000000E+00  0.10566000000E+00 0. -1.
     999900   -1    0    0    0    0 -0.00000000000E+00 -0.00000000000E+00 -0.74505805969E-08  0.93827000000E+00  0.93827000000E+00 0. -1.
     999902    2    1    2    0    0  0.15365271231E-02  0.23359636651E-01 -0.82669165685E-02  0.10191030902E+01  0.10188006346E+01 0.  0.
     999903    2    3    3    0    0 -0.19251207736E-01 -0.92694171139E-01  0.82062776783E-01  0.12665697435E+00  0.18570714979E-01 0.  0.
         14    1    1    2    0    0 -0.15365271231E-02 -0.23359636651E-01  0.82669165685E-02  0.24826909788E-01  0.00000000000E+00 0.  1.
     999901    1    3    3    0    0  0.20787734859E-01  0.11605380779E+00 -0.90329693351E-01  0.89244611587E+00  0.88000000000E+00 0. -1.
        -11    1    4    4    0    0 -0.97528378545E-02 -0.77382309608E-01  0.71225136565E-01  0.10562395981E+00  0.51100000000E-03 0.  1.
         11    1    4    4    0    0 -0.94983698810E-02 -0.15311861531E-01  0.10837640218E-01  0.21033014535E-01  0.51100000000E-03 0. -1.
</event>
<event>
 8    1  0.1109553E+005  0.1043930E+01  0.7957747E-01            NaN
         13   -1    0    0    0    0  0.00000000000E+00  0.00000000000E+00  0.74505805969E-08  0.10566000000E+00  0.10566000000E+00 0.  1.
     999900   -1    0    0    0    0 -0.00000000000E+00 -0.00000000000E+00 -0.74505805969E-08  0.93827000000E+00  0.93827000000E+00 0.  1.
     999902    2    1    2    0    0 -0.10632070363E-02 -0.23264322763E-01  0.68490236480E-03  0.10206313259E+01  0.10203653636E+01 0.  0.
     999903    2    3    3    0    0  0.21454477868E-01 -0.81737215664E-01  0.10037009264E+00  0.13278941291E+00  0.20435401606E-01 0.  0.
         14    1    1    2    0    0  0.10632070363E-02  0.23264322763E-01 -0.68490236480E-03  0.23298674084E-01  0.00000000000E+00 0.  1.
     999901    1    3    3    0    0 -0.22517684904E-01  0.58472892901E-01 -0.99685190273E-01  0.88784191301E+00  0.88000000000E+00 0.  1.
        -11    1    4    4    0    0  0.11998450547E-01 -0.70153320246E-01  0.75450792811E-01  0.10372335520E+00  0.51100000000E-03 0. -1.
         11    1    4    4    0    0  0.94560273207E-02 -0.11583895418E-01  0.24919299827E-01  0.29066057706E-01  0.51100000000E-03 0.  1.
</event>
<event>
 8    1  0.1109553E+005  0.1043930E+01  0.7957747E-01            NaN
         13   -1    0    0    0    0  0.00000000000E+00  0.00000000000E+00  0.74505805969E-08  0.10566000000E+00  0.10566000000E+00 0.  1.
     999900   -1    0    0    0    0 -0.00000000000E+00 -0.00000000000E+00 -0.74505805969E-08  0.93827000000E+00  0.93827000000E+00 0.  1.
     999902    2    1    2    0    0  0.13145419736E-01  0.15712852319E-01 -0.13516157592E-01  0.10193865222E+01  0.10190910162E+01 0.  0.
     999903    2    3    3    0    0 -0.11264102171E+00  0.58295563471E-01  0.13201624885E-01  0.12902179014E+00  0.19646041272E-01 0.  0.
         14    1    1    2    0    0 -0.13145419736E-01 -0.15712852319E-01  0.13516157592E-01  0.24543477832E-01  0.00000000000E+00 0.  1.
     999901    1    3    3    0    0  0.12578644145E+00 -0.42582711152E-01 -0.26717782478E-01  0.89036473203E+00  0.88000000000E+00 0.  1.
        -11    1    4    4    0    0 -0.42156725724E-01  0.29366873148E-01  0.12270261367E-01  0.52824456432E-01  0.51100000000E-03 0. -1.
         11    1    4    4    0    0 -0.70484295990E-01  0.28928690323E-01  0.93136351840E-03  0.76197333706E-01  0.51100000000E-03 0.  1.
</event>
<event>
 8    1  0.1109553E+005  0.1043930E+01  0.7957747E-01            NaN
         13   -1    0    0    0    0  0.00000000000E+00  0.00000000000E+00  0.74505805969E-08  0.10566000000E+00  0.10566000000E+00 0.  1.
     999900   -1    0    0    0    0 -0.00000000000E+00 -0.00000000000E+00 -0.74505805969E-08  0.93827000000E+00  0.93827000000E+00 0.  1.
     999902    2    1    2    0    0 -0.16469891284E-01 -0.16838144248E-01  0.57085506638E-03  0.10203693061E+01  0.10200972574E+01 0.  0.
     999903    2    3    3    0    0 -0.65347349342E-01  0.50127841427E-01 -0.99754623062E-01  0.13079713327E+00  0.19334650178E-01 0.  0.
         14    1    1    2    0    0  0.16469891284E-01  0.16838144248E-01 -0.57085506638E-03  0.23560693881E-01  0.00000000000E+00 0. -1.
     999901    1    3    3    0    0  0.48877458059E-01 -0.66965985675E-01  0.10032547813E+00  0.88957217285E+00  0.88000000000E+00 0. -1.
        -11    1    4    4    0    0 -0.13920240880E-01  0.21177546510E-01 -0.34525084450E-01  0.42831112052E-01  0.51100000000E-03 0. -1.
         11    1    4    4    0    0 -0.51427108462E-01  0.28950294916E-01 -0.65229538613E-01  0.87966021219E-01  0.51100000000E-03 0.  1.
</event>
<event>
 8    1  0.1109553E+005  0.1043930E+01  0.7957747E-01            NaN
         13   -1    0    0    0    0  0.00000000000E+00  0.00000000000E+00  0.74505805969E-08  0.10566000000E+00  0.10566000000E+00 0. -1.
     999900   -1    0    0    0    0 -0.00000000000E+00 -0.00000000000E+00 -0.74505805969E-08  0.93827000000E+00  0.93827000000E+00 0. -1.
     999902    2    1    2    0    0 -0.15001661420E-01 -0.14010380521E-01 -0.11157250683E-01  0.10205671053E+01  0.10202996577E+01 0.  0.
     999903    2    3    3    0    0 -0.24176550207E-03 -0.13073556170E+00  0.12420727110E-01  0.13242379279E+00  0.17027650796E-01 0.  0.
         14    1    1    2    0    0  0.15001661420E-01  0.14010380521E-01  0.11157250683E-01  0.23362894737E-01  0.00000000000E+00 0. -1.
     999901    1    3    3    0    0 -0.14759895918E-01  0.11672518118E+00 -0.23577977793E-01  0.88814331247E+00  0.88000000000E+00 0. -1.
        -11    1    4    4    0    0 -0.57567683469E-02 -0.36698260686E-01  0.86703255185E-02  0.38148897556E-01  0.51100000000E-03 0. -1.
         11    1    4    4    0    0  0.55150028448E-02 -0.94037301016E-01  0.37504015918E-02  0.94274895236E-01  0.51100000000E-03 0.  1.
</event>
<event>
 8    1  0.1109553E+005  0.1043930E+01  0.7957747E-01            NaN
         13   -1    0    0    0    0  0.00000000000E+00  0.00000000000E+00  0.74505805969E-08  0.10566000000E+00  0.10566000000E+00 0.  1.
     999900   -1    0    0    0    0 -0.00000000000E+00 -0.00000000000E+00 -0.74505805969E-08  0.93827000000E+00  0.93827000000E+00 0. -1.
     999902    2    1    2    0    0  0.24293450338E-01  0.43950006445E-02 -0.49903948885E-02  0.10187428644E+01  0.10184314567E+01 0.  0.
     999903    2    3    3    0    0 -0.95861444893E-01 -0.79907589669E-01  0.60949636197E-02  0.12651699008E+00  0.19868585606E-01 0.  0.
         14    1    1    2    0    0 -0.24293450338E-01 -0.43950006445E-02  0.49903948885E-02  0.25187135628E-01  0.00000000000E+00 0.  1.
     999901    1    3    3    0    0  0.12015489523E+00  0.84302590313E-01 -0.11085358508E-01  0.89222587429E+00  0.88000000000E+00 0.  1.
        -11    1    4    4    0    0 -0.37344525578E-01 -0.43623075020E-01  0.51210338874E-02  0.57654768874E-01  0.51100000000E-03 0.  1.
         11    1    4    4    0    0 -0.58516919315E-01 -0.36284514649E-01  0.97392973234E-03  0.68862221207E-01  0.51100000000E-03 0. -1.
</event>
<event>
 8    1  0.1109553E+005  0.1043930E+01  0.7957747E-01            NaN
         13   -1    0    0    0    0  0.00000000000E+00  0.00000000000E+00  0.74505805969E-08  0.10566000000E+00  0.10566000000E+00 0.  1.
     999900   -1    0    0    0    0 -0.00000000000E+00 -0.00000000000E+00 -0.74505805969E-08  0.93827000000E+00  0.93827000000E+00 0. -1.
     999902    2    1    2    0    0  0.14190140721E-01 -0.16390104395E-02 -0.16938292194E-01  0.10217725590E+01  0.10215322854E+01 0.  0.
     999903    2    3    3    0    0  0.82782862177E-01 -0.89151004102E-01 -0.51921155163E-01  0.13408617792E+00  0.21963445816E-01 0.  0.
         14    1    1    2    0    0 -0.14190140721E-01  0.16390104395E-02  0.16938292194E-01  0.22157440993E-01  0.00000000000E+00 0.  1.
     999901    1    3    3    0    0 -0.68592721456E-01  0.87511993663E-01  0.34982862969E-01  0.88768638109E+00  0.88000000000E+00 0.  1.
        -11    1    4    4    0    0  0.15873096284E-01 -0.92720313052E-02 -0.18601327172E-02  0.18483694568E-01  0.51100000000E-03 0. -1.
         11    1    4    4    0    0  0.66909765893E-01 -0.79878972797E-01 -0.50061022446E-01  0.11560248335E+00  0.51100000000E-03 0.  1.
</event>
<event>
 8    1  0.1109553E+005  0.1043930E+01  0.7957747E-01            NaN
         13   -1    0    0    0    0  0.00000000000E+00  0.00000000000E+00  0.74505805969E-08  0.10566000000E+00  0.10566000000E+00 0.  1.
     999900   -1    0    0    0    0 -0.00000000000E+00 -0.00000000000E+00 -0.74505805969E-08  0.93827000000E+00  0.93827000000E+00 0.  1.
     999902    2    1    2    0    0  0.22105180489E-01 -0.61066997950E-02  0.55069062189E-02  0.10203449029E+01  0.10200722838E+01 0.  0.
     999903    2    3    3    0    0  0.18397674521E-01 -0.96961495871E-01 -0.84090241295E-01  0.13113402334E+00  0.19620328411E-01 0.  0.
         14    1    1    2    0    0 -0.22105180489E-01  0.61066997950E-02 -0.55069062189E-02  0.23585097052E-01  0.00000000000E+00 0. -1.
     999901    1    3    3    0    0  0.37075059678E-02  0.90854796076E-01  0.89597147514E-01  0.88921087961E+00  0.88000000000E+00 0. -1.
        -11    1    4    4    0    0  0.16509867944E-01 -0.54127820966E-01 -0.37906662275E-01  0.68114410428E-01  0.51100000000E-03 0. -1.
         11    1    4    4    0    0  0.18878065769E-02 -0.42833674905E-01 -0.46183579020E-01  0.63019612912E-01  0.51100000000E-03 0.  1.
</event>
<event>
 8    1  0.1109553E+005  0.1043930E+01  0.7957747E-01            NaN
         13   -1    0    0    0    0  0.00000000000E+00  0.00000000000E+00  0.74505805969E-08  0.10566000000E+00  0.10566000000E+00 0. -1.
     999900   -1    0    0    0    0 -0.00000000000E+00 -0.00000000000E+00 -0.74505805969E-08  0.93827000000E+00  0.93827000000E+00 0.  1.
     999902    2    1    2    0    0  0.11822710145E-01  0.18841262881E-01 -0.10125832228E-01  0.10194902344E+01  0.10191972508E+01 0.  0.
     999903    2    3    3    0    0 -0.11926494133E+00 -0.34970269538E-01  0.20818360939E-01  0.12761737552E+00  0.20143098105E-01 0.  0.
         14    1    1    2    0    0 -0.11822710145E-01 -0.18841262881E-01  0.10125832228E-01  0.24439765556E-01  0.00000000000E+00 0. -1.
     999901    1    3    3    0    0  0.13108765147E+00  0.53811532419E-01 -0.30944193168E-01  0.89187285892E+00  0.88000000000E+00 0. -1.
        -11    1    4    4    0    0 -0.46371094989E-01 -0.23290290014E-01  0.51616387014E-02  0.52149973101E-01  0.51100000000E-03 0. -1.
         11    1    4    4    0    0 -0.72893846340E-01 -0.11679979524E-01  0.15656722238E-01  0.75467402421E-01  0.51100000000E-03 0.  1.
</event>
<event>
 8    1  0.1109553E+005  0.1043930E+01  0.7957747E-01            NaN
         13   -1    0    0    0    0  0.00000000000E+00  0.00000000000E+00  0.74505805969E-08  0.10566000000E+00  0.10566000000E+00 0.  1.
     999900   -1    0    0    0    0 -0.00000000000E+00 -0.00000000000E+00 -0.74505805969E-08  0.93827000000E+00  0.93827000000E+00 0.  1.
     999902    2    1    2    0    0 -0.49757944599E-02 -0.14663119703E-01 -0.21637003240E-01  0.10173231302E+01  0.10169751353E+01 0.  0.
     999903    2    3    3    0    0  0.77391587089E-01  0.62560894985E-01 -0.78504230291E-01  0.12828892644E+00  0.19794219870E-01 0.  0.
         14    1    1    2    0    0  0.49757944599E-02  0.14663119703E-01  0.21637003240E-01  0.26606869774E-01  0.00000000000E+00 0.  1.
     999901    1    3    3    0    0 -0.82367381549E-01 -0.77224014688E-01  0.56867227051E-01  0.88903420379E+00  0.88000000000E+00 0. -1.
        -11    1    4    4    0    0  0.40938903421E-02  0.46777351342E-02 -0.12348615959E-01  0.13834398477E-01  0.51100000000E-03 0.  1.
         11    1    4    4    0    0  0.73297696747E-01  0.57883159851E-01 -0.66155614331E-01  0.11445452796E+00  0.51100000000E-03 0. -1.
</event>
<event>
 8    1  0.1109553E+005  0.1043930E+01  0.7957747E-01            NaN
         13   -1    0    0    0    0  0.00000000000E+00  0.00000000000E+00  0.74505805969E-08  0.10566000000E+00  0.10566000000E+00 0. -1.
     999900   -1    0    0    0    0 -0.00000000000E+00 -0.00000000000E+00 -0.74505805969E-08  0.93827000000E+00  0.93827000000E+00 0.  1.
     999902    2    1    2    0    0  0.21423442646E-02 -0.23632631295E-01 -0.30181257366E-02  0.10200092980E+01  0.10197287718E+01 0.  0.
     999903    2    3    3    0    0  0.70518336904E-01 -0.64088403963E-01 -0.89265531003E-01  0.13223085671E+00  0.20892703976E-01 0.  0.
         14    1    1    2    0    0 -0.21423442646E-02  0.23632631295E-01  0.30181257366E-02  0.23920701993E-01  0.00000000000E+00 0. -1.
     999901    1    3    3    0    0 -0.68375992640E-01  0.40455772668E-01  0.86247405267E-01  0.88777844129E+00  0.88000000000E+00 0. -1.
        -11    1    4    4    0    0  0.36642703770E-01 -0.46975581834E-01 -0.53275727393E-01  0.79924697550E-01  0.51100000000E-03 0.  1.
         11    1    4    4    0    0  0.33875633134E-01 -0.17112822129E-01 -0.35989803610E-01  0.52306159163E-01  0.51100000000E-03 0. -1.
</event>
<event>
 7    1  0.1109553E+005  0.1043930E+01  0.7957747E-01            NaN
         13   -1    0    0    0    0  0.00000000000E+00  0.00000000000E+00  0.74505805969E-08  0.10566000000E+00  0.10566000000E+00 0.  1.
     999900   -1    0    0    0    0 -0.00000000000E+00 -0.00000000000E+00 -0.74505805969E-08  0.93827000000E+00  0.93827000000E+00 0.  1.
     999903    2    1    2    0    0 -0.56985175249E-01  0.56018206358E-01 -0.75860766771E-01  0.11202107087E+00  0.20211747604E-01 0.  0.
         14    1    1    2    0    0 -0.11238992787E-01  0.58662692305E-02 -0.37764324146E-01  0.39835565161E-01  0.00000000000E+00 0. -1.
     999901    1    1    2    0    0  0.68224168035E-01 -0.61884475589E-01  0.11362509092E+00  0.89207336397E+00  0.88000000000E+00 0. -1.
        -11    1    3    3    0    0 -0.43422256006E-01  0.50994510818E-01 -0.55191754005E-01  0.86788958292E-01  0.51100000000E-03 0. -1.
         11    1    3    3    0    0 -0.13562919243E-01  0.50236955407E-02 -0.20669012765E-01  0.25232112574E-01  0.51100000000E-03 0.  1.
</event>
<event>
 8    1  0.1109553E+005  0.1043930E+01  0.7957747E-01            NaN
         13   -1    0    0    0    0  0.00000000000E+00  0.00000000000E+00  0.74505805969E-08  0.10566000000E+00  0.10566000000E+00 0. -1.
     999900   -1    0    0    0    0 -0.00000000000E+00 -0.00000000000E+00 -0.74505805969E-08  0.93827000000E+00  0.93827000000E+00 0. -1.
     999902    2    1    2    0    0 -0.12162914812E-01  0.68410227175E-02  0.18936101575E-01  0.10204074144E+01  0.10201362553E+01 0.  0.
     999903    2    3    3    0    0  0.11044033489E+00 -0.76541425881E-02 -0.61489967542E-01  0.12815743868E+00  0.19689070871E-01 0.  0.
         14    1    1    2    0    0  0.12162914812E-01 -0.68410227175E-02 -0.18936101575E-01  0.23522585559E-01  0.00000000000E+00 0.  1.
     999901    1    3    3    0    0 -0.12260324970E+00  0.14495165306E-01  0.80426069116E-01  0.89224997576E+00  0.88000000000E+00 0.  1.
        -11    1    4    4    0    0  0.72503092977E-01 -0.38065447093E-02 -0.50600807794E-01  0.88497972543E-01  0.51100000000E-03 0.  1.
         11    1    4    4    0    0  0.37937241909E-01 -0.38475978788E-02 -0.10889159748E-01  0.39659466135E-01  0.51100000000E-03 0. -1.
</event>
<event>
 8    1  0.1109553E+005  0.1043930E+01  0.7957747E-01            NaN
         13   -1    0    0    0    0  0.00000000000E+00  0.00000000000E+00  0.74505805969E-08  0.10566000000E+00  0.10566000000E+00 0. -1.
     999900   -1    0    0    0    0 -0.00000000000E+00 -0.00000000000E+00 -0.74505805969E-08  0.93827000000E+00  0.93827000000E+00 0.  1.
     999902    2    1    2    0    0 -0.94345188839E-02  0.19583270104E-01  0.95966493049E-02  0.10201684703E+01  0.10198917087E+01 0.  0.
     999903    2    3    3    0    0  0.23385924001E-02 -0.70225295821E-01 -0.10527586670E+00  0.12809230789E+00  0.19686798700E-01 0.  0.
         14    1    1    2    0    0  0.94345188839E-02 -0.19583270104E-01 -0.95966493049E-02  0.23761529674E-01  0.00000000000E+00 0.  1.
     999901    1    3    3    0    0 -0.11773111284E-01  0.89808565925E-01  0.11487251600E+00  0.89207616244E+00  0.88000000000E+00 0. -1.
        -11    1    4    4    0    0  0.49536853761E-02 -0.17665031997E-01 -0.41698149845E-01  0.45558634481E-01  0.51100000000E-03 0.  1.
         11    1    4    4    0    0 -0.26150929760E-02 -0.52560263824E-01 -0.63577716852E-01  0.82533673404E-01  0.51100000000E-03 0. -1.
</event>
<event>
 8    1  0.1109553E+005  0.1043930E+01  0.7957747E-01            NaN
         13   -1    0    0    0    0  0.00000000000E+00  0.00000000000E+00  0.74505805969E-08  0.10566000000E+00  0.10566000000E+00 0.  1.
     999900   -1    0    0    0    0 -0.00000000000E+00 -0.00000000000E+00 -0.74505805969E-08  0.93827000000E+00  0.93827000000E+00 0. -1.
     999902    2    1    2    0    0 -0.19962516661E-01  0.13202755188E-01  0.38503100384E-02  0.10196887190E+01  0.10194005317E+01 0.  0.
     999903    2    3    3    0    0 -0.10333863298E+00 -0.60150643101E-01  0.50589993302E-01  0.13147877999E+00  0.20744860372E-01 0.  0.
         14    1    1    2    0    0  0.19962516661E-01 -0.13202755188E-01 -0.38503100384E-02  0.24241280977E-01  0.00000000000E+00 0. -1.
     999901    1    3    3    0    0  0.83376116323E-01  0.73353398289E-01 -0.46739683263E-01  0.88820993904E+00  0.88000000000E+00 0. -1.
        -11    1    4    4    0    0 -0.80151441262E-01 -0.55286816121E-01  0.44209562089E-01  0.10693751481E+00  0.51100000000E-03 0. -1.
         11    1    4    4    0    0 -0.23187191722E-01 -0.48638269795E-02  0.63804312124E-02  0.24541265173E-01  0.51100000000E-03 0.  1.
</event>
<event>
 8    1  0.1109553E+005  0.1043930E+01  0.7957747E-01            NaN
         13   -1    0    0    0    0  0.00000000000E+00  0.00000000000E+00  0.74505805969E-08  0.10566000000E+00  0.10566000000E+00 0.  1.
     999900   -1    0    0    0    0 -0.00000000000E+00 -0.00000000000E+00 -0.74505805969E-08  0.93827000000E+00  0.93827000000E+00 0. -1.
     999902    2    1    2    0    0  0.10447891256E-01 -0.19447675602E-01 -0.96708998344E-02  0.10198281988E+01  0.10195433577E+01 0.  0.
     999903    2    3    3    0    0  0.10322591597E+00 -0.49565547438E-01 -0.64353323595E-01  0.13275153043E+00  0.19216798743E-01 0.  0.
         14    1    1    2    0    0 -0.10447891256E-01  0.19447675602E-01  0.96708998344E-02  0.24101801211E-01  0.00000000000E+00 0. -1.
     999901    1    3    3    0    0 -0.92778024713E-01  0.30117871836E-01  0.54682423760E-01  0.88707666836E+00  0.88000000000E+00 0. -1.
        -11    1    4    4    0    0  0.38506571225E-01 -0.18847398595E-01 -0.34934846840E-01  0.55305380444E-01  0.51100000000E-03 0.  1.
         11    1    4    4    0    0  0.64719344744E-01 -0.30718148844E-01 -0.29418476754E-01  0.77446149989E-01  0.51100000000E-03 0. -1.
</event>
<event>
 8    1  0.1109553E+005  0.1043930E+01  0.7957747E-01            NaN
         13   -1    0    0    0    0  0.00000000000E+00  0.00000000000E+00  0.74505805969E-08  0.10566000000E+00  0.10566000000E+00 0. -1.
     999900   -1    0    0    0    0 -0.00000000000E+00 -0.00000000000E+00 -0.74505805969E-08  0.93827000000E+00  0.93827000000E+00 0.  1.
     999902    2    1    2    0    0  0.21112020398E-01 -0.92797163079E-02 -0.43285750851E-02  0.10204658337E+01  0.10201960354E+01 0.  0.
     999903    2    3    3    0    0  0.59510347777E-01 -0.58462146115E-01  0.10061024059E+00  0.13203716573E+00  0.18764024135E-01 0.  0.
         14    1    1    2    0    0 -0.21112020398E-01  0.92797163079E-02  0.43285750851E-02  0.23464166346E-01  0.00000000000E+00 0. -1.
     999901    1    3    3    0    0 -0.38398327380E-01  0.49182429807E-01 -0.10493881568E+00  0.88842866792E+00  0.88000000000E+00 0.  1.
        -11    1    4    4    0    0  0.44430770783E-01 -0.52820021246E-01  0.76454539765E-01  0.10300294078E+00  0.51100000000E-03 0. -1.
         11    1    4    4    0    0  0.15079576995E-01 -0.56421248682E-02  0.24155700829E-01  0.29034224958E-01  0.51100000000E-03 0.  1.
</event>
<event>
 8    1  0.1109553E+005  0.1043930E+01  0.7957747E-01            NaN
         13   -1    0    0    0    0  0.00000000000E+00  0.00000000000E+00  0.74505805969E-08  0.10566000000E+00  0.10566000000E+00 0.  1.
     999900   -1    0    0    0    0 -0.00000000000E+00 -0.00000000000E+00 -0.74505805969E-08  0.93827000000E+00  0.93827000000E+00 0. -1.
     999902    2    1    2    0    0 -0.19810421167E-01 -0.10948197759E-02  0.11961641120E-01  0.10207625169E+01  0.10204995755E+01 0.  0.
     999903    2    3    3    0    0  0.12330039166E+00  0.26166836542E-01 -0.11236839707E-01  0.12848337210E+00  0.22226570120E-01 0.  0.
         14    1    1    2    0    0  0.19810421167E-01  0.10948197759E-02 -0.11961641120E-01  0.23167483148E-01  0.00000000000E+00 0. -1.
     999901    1    3    3    0    0 -0.14311081283E+00 -0.27261656318E-01  0.23198480826E-01  0.89227914476E+00  0.88000000000E+00 0. -1.
        -11    1    4    4    0    0  0.72926703995E-01  0.18708826884E-01  0.37957509230E-02  0.75385629964E-01  0.51100000000E-03 0. -1.
         11    1    4    4    0    0  0.50373687668E-01  0.74580096578E-02 -0.15032590630E-01  0.53097742131E-01  0.51100000000E-03 0.  1.
</event>
<event>
 8    1  0.1109553E+005  0.1043930E+01  0.7957747E-01            NaN
         13   -1    0    0    0    0  0.00000000000E+00  0.00000000000E+00  0.74505805969E-08  0.10566000000E+00  0.10566000000E+00 0.  1.
     999900   -1    0    0    0    0 -0.00000000000E+00 -0.00000000000E+00 -0.74505805969E-08  0.93827000000E+00  0.93827000000E+00 0. -1.
     999902    2    1    2    0    0  0.20069230648E-01 -0.51328367732E-02 -0.11474803762E-01  0.10202489706E+01  0.10199741030E+01 0.  0.
     999903    2    3    3    0    0  0.76594437330E-01 -0.36293699740E-01  0.97626299903E-01  0.13116565100E+00  0.22126750736E-01 0.  0.
         14    1    1    2    0    0 -0.20069230648E-01  0.51328367732E-02  0.11474803762E-01  0.23681029402E-01  0.00000000000E+00 0.  1.
     999901    1    3    3    0    0 -0.56525206681E-01  0.31160862966E-01 -0.10910110367E+00  0.88908331960E+00  0.88000000000E+00 0. -1.
        -11    1    4    4    0    0  0.39415627198E-01 -0.21090314101E-01  0.67461955654E-01  0.80930646840E-01  0.51100000000E-03 0.  1.
         11    1    4    4    0    0  0.37178810132E-01 -0.15203385638E-01  0.30164344249E-01  0.50235004157E-01  0.51100000000E-03 0. -1.
</event>
<event>
 8    1  0.1109553E+005  0.1043930E+01  0.7957747E-01            NaN
         13   -1    0    0    0    0  0.00000000000E+00  0.00000000000E+00  0.74505805969E-08  0.10566000000E+00  0.10566000000E+00 0. -1.
     999900   -1    0    0    0    0 -0.00000000000E+00 -0.00000000000E+00 -0.74505805969E-08  0.93827000000E+00  0.93827000000E+00 0.  1.
     999902    2    1    2    0    0  0.16562170024E-01  0.16746598900E-01  0.59018246737E-02  0.10196486165E+01  0.10193594634E+01 0.  0.
     999903    2    3    3    0    0 -0.37211386144E-01  0.81352572553E-01  0.93922970025E-01  0.13127186691E+00  0.20195306956E-01 0.  0.
         14    1    1    2    0    0 -0.16562170024E-01 -0.16746598900E-01 -0.59018246737E-02  0.24281383508E-01  0.00000000000E+00 0. -1.
     999901    1    3    3    0    0  0.53773556167E-01 -0.64605973653E-01 -0.88021145351E-01  0.88837674959E+00  0.88000000000E+00 0. -1.
        -11    1    4    4    0    0 -0.28136203013E-01  0.50733842418E-01  0.72310644162E-01  0.92707384100E-01  0.51100000000E-03 0.  1.
         11    1    4    4    0    0 -0.90751831309E-02  0.30618730135E-01  0.21612325863E-01  0.38564482806E-01  0.51100000000E-03 0. -1.
</event>
<event>
 8    1  0.1109553E+005  0.1043930E+01  0.7957747E-01            NaN
         13   -1    0    0    0    0  0.00000000000E+00  0.00000000000E+00  0.74505805969E-08  0.10566000000E+00  0.10566000000E+00 0.  1.
     999900   -1    0    0    0    0 -0.00000000000E+00 -0.00000000000E+00 -0.74505805969E-08  0.93827000000E+00  0.93827000000E+00 0. -1.
     999902    2    1    2    0    0  0.12478111204E-01  0.19011136549E-01  0.73071808169E-02  0.10200444089E+01  0.10197647153E+01 0.  0.
     999903    2    3    3    0    0 -0.33243159268E-01  0.11911626133E+00  0.43009826012E-01  0.13247122910E+00  0.20124364643E-01 0.  0.
         14    1    1    2    0    0 -0.12478111204E-01 -0.19011136549E-01 -0.73071808169E-02  0.23885591130E-01  0.00000000000E+00 0. -1.
     999901    1    3    3    0    0  0.45721270472E-01 -0.10010512478E+00 -0.35702645195E-01  0.88757317977E+00  0.88000000000E+00 0.  1.
        -11    1    4    4    0    0 -0.24582076335E-01  0.80092654083E-01  0.19242231622E-01  0.85962993863E-01  0.51100000000E-03 0. -1.
         11    1    4    4    0    0 -0.86610829332E-02  0.39023607250E-01  0.23767594389E-01  0.46508235232E-01  0.51100000000E-03 0.  1.
</event>
<event>
 8    1  0.1109553E+005  0.1043930E+01  0.7957747E-01            NaN
         13   -1    0    0    0    0  0.00000000000E+00  0.00000000000E+00  0.74505805969E-08  0.10566000000E+00  0.10566000000E+00 0.  1.
     999900   -1    0    0    0    0 -0.00000000000E+00 -0.00000000000E+00 -0.74505805969E-08  0.93827000000E+00  0.93827000000E+00 0.  1.
     999902    2    1    2    0    0  0.23851295229E-01 -0.80751584165E-03  0.57717810133E-03  0.10200580604E+01  0.10197786902E+01 0.  0.
     999903    2    3    3    0    0  0.72999843099E-01  0.10092885574E+00  0.31641996042E-01  0.13229069674E+00  0.31368798438E-01 0.  0.
         14    1    1    2    0    0 -0.23851295229E-01  0.80751584165E-03 -0.57717810133E-03  0.23871939605E-01  0.00000000000E+00 0. -1.
     999901    1    3    3    0    0 -0.49148547870E-01 -0.10173637159E+00 -0.31064817941E-01  0.88776736366E+00  0.88000000000E+00 0.  1.
        -11    1    4    4    0    0  0.34849049070E-01  0.53868707613E-01  0.47962508913E-03  0.64162177661E-01  0.51100000000E-03 0. -1.
         11    1    4    4    0    0  0.38150794029E-01  0.47060148132E-01  0.31162370953E-01  0.68128519077E-01  0.51100000000E-03 0.  1.
</event>
<event>
 8    1  0.1109553E+005  0.1043930E+01  0.7957747E-01            NaN
         13   -1    0    0    0    0  0.00000000000E+00  0.00000000000E+00  0.74505805969E-08  0.10566000000E+00  0.10566000000E+00 0. -1.
     999900   -1    0    0    0    0 -0.00000000000E+00 -0.00000000000E+00 -0.74505805969E-08  0.93827000000E+00  0.93827000000E+00 0. -1.
     999902    2    1    2    0    0  0.21386408413E-01 -0.70865298928E-02  0.54533087408E-02  0.10207494921E+01  0.10204862516E+01 0.  0.
     999903    2    3    3    0    0  0.96514687771E-01 -0.14864291467E-02  0.90020628269E-01  0.13349121458E+00  0.19972391635E-01 0.  0.
         14    1    1    2    0    0 -0.21386408413E-01  0.70865298928E-02 -0.54533087408E-02  0.23180507909E-01  0.00000000000E+00 0.  1.
     999901    1    3    3    0    0 -0.75128279358E-01 -0.56001007462E-02 -0.84567319529E-01  0.88725827752E+00  0.88000000000E+00 0. -1.
        -11    1    4    4    0    0  0.44700878416E-01 -0.93664303096E-02  0.48540701522E-01  0.66651026797E-01  0.51100000000E-03 0.  1.
         11    1    4    4    0    0  0.51813809355E-01  0.78800011629E-02  0.41479926747E-01  0.66840187778E-01  0.51100000000E-03 0. -1.
</event>
<event>
 8    1  0.1109553E+005  0.1043930E+01  0.7957747E-01            NaN
         13   -1    0    0    0    0  0.00000000000E+00  0.00000000000E+00  0.74505805969E-08  0.10566000000E+00  0.10566000000E+00 0. -1.
     999900   -1    0    0    0    0 -0.00000000000E+00 -0.00000000000E+00 -0.74505805969E-08  0.93827000000E+00  0.93827000000E+00 0.  1.
     999902    2    1    2    0    0 -0.13514064934E-01 -0.12304048328E-01  0.15472631360E-01  0.10199837711E+01  0.10197026388E+01 0.  0.
     999903    2    3    3    0    0  0.55280695589E-01 -0.11359652502E+00  0.30239060040E-01  0.13138322401E+00  0.19672950908E-01 0.  0.
         14    1    1    2    0    0  0.13514064934E-01  0.12304048328E-01 -0.15472631360E-01  0.23946228878E-01  0.00000000000E+00 0.  1.
     999901    1    3    3    0    0 -0.68794760523E-01  0.10129247669E+00 -0.14766428681E-01  0.88860054711E+00  0.88000000000E+00 0. -1.
        -11    1    4    4    0    0  0.36411702240E-01 -0.81785563432E-01  0.12618984439E-01  0.90411229033E-01  0.51100000000E-03 0. -1.
         11    1    4    4    0    0  0.18868993349E-01 -0.31810961590E-01  0.17620075602E-01  0.40971994978E-01  0.51100000000E-03 0.  1.
</event>
<event>
 8    1  0.1109553E+005  0.1043930E+01  0.7957747E-01            NaN
         13   -1    0    0    0    0  0.00000000000E+00  0.00000000000E+00  0.74505805969E-08  0.10566000000E+00  0.10566000000E+00 0.  1.
     999900   -1    0    0    0    0 -0.00000000000E+00 -0.00000000000E+00 -0.74505805969E-08  0.93827000000E+00  0.93827000000E+00 0.  1.
     999902    2    1    2    0    0  0.18652938036E-01 -0.56087520056E-02  0.13261323282E-01  0.10203661953E+01  0.10200940739E+01 0.  0.
     999903    2    3    3    0    0  0.61959691904E-01  0.10852390076E+00 -0.33356136314E-01  0.13071743040E+00  0.18920209381E-01 0.  0.
         14    1    1    2    0    0 -0.18652938036E-01  0.56087520056E-02 -0.13261323282E-01  0.23563804694E-01  0.00000000000E+00 0.  1.
     999901    1    3    3    0    0 -0.43306753868E-01 -0.11413265277E+00  0.46617459596E-01  0.88964876491E+00  0.88000000000E+00 0. -1.
        -11    1    4    4    0    0  0.34327657234E-01  0.68368630000E-01 -0.28848550265E-01  0.81762813018E-01  0.51100000000E-03 0. -1.
         11    1    4    4    0    0  0.27632034670E-01  0.40155270763E-01 -0.45075860493E-02  0.48954617382E-01  0.51100000000E-03 0.  1.
</event>
<event>
 8    1  0.1109553E+005  0.1043930E+01  0.7957747E-01            NaN
         13   -1    0    0    0    0  0.00000000000E+00  0.00000000000E+00  0.74505805969E-08  0.10566000000E+00  0.10566000000E+00 0.  1.
     999900   -1    0    0    0    0 -0.00000000000E+00 -0.00000000000E+00 -0.74505805969E-08  0.93827000000E+00  0.93827000000E+00 0. -1.
     999902    2    1    2    0    0  0.28369075519E-03  0.47738959898E-02  0.24414983741E-01  0.10190510532E+01  0.10187473126E+01 0.  0.
     999903    2    3    3    0    0  0.35112491716E-01 -0.66382108939E-01 -0.10010721143E+00  0.12676074196E+00  0.20183172713E-01 0.  0.
         14    1    1    2    0    0 -0.28369075519E-03 -0.47738959898E-02 -0.24414983741E-01  0.24878946812E-01  0.00000000000E+00 0. -1.
     999901    1    3    3    0    0 -0.34828800960E-01  0.71156004929E-01  0.12452219517E+00  0.89229031122E+00  0.88000000000E+00 0.  1.
        -11    1    4    4    0    0  0.17118187561E-01 -0.32355423666E-01 -0.32456034967E-01  0.48924034101E-01  0.51100000000E-03 0. -1.
         11    1    4    4    0    0  0.17994304154E-01 -0.34026685273E-01 -0.67651176466E-01  0.77836707863E-01  0.51100000000E-03 0.  1.
</event>
<event>
 8    1  0.1109553E+005  0.1043930E+01  0.7957747E-01            NaN
         13   -1    0    0    0    0  0.00000000000E+00  0.00000000000E+00  0.74505805969E-08  0.10566000000E+00  0.10566000000E+00 0. -1.
     999900   -1    0    0    0    0 -0.00000000000E+00 -0.00000000000E+00 -0.74505805969E-08  0.93827000000E+00  0.93827000000E+00 0.  1.
     999902    2    1    2    0    0  0.21613220915E-01 -0.45825177089E-02 -0.85610898398E-02  0.10202356326E+01  0.10199604517E+01 0.  0.
     999903    2    3    3    0    0 -0.50458386428E-01  0.71712610871E-01  0.91593508600E-01  0.12835772234E+00  0.19939577437E-01 0.  0.
         14    1    1    2    0    0 -0.21613220915E-01  0.45825177089E-02  0.85610898398E-02  0.23694367393E-01  0.00000000000E+00 0. -1.
     999901    1    3    3    0    0  0.72071607344E-01 -0.76295128580E-01 -0.10015459844E+00  0.89187791027E+00  0.88000000000E+00 0.  1.
        -11    1    4    4    0    0 -0.25019474956E-01  0.41672703810E-01  0.63615425290E-01  0.80061050616E-01  0.51100000000E-03 0. -1.
         11    1    4    4    0    0 -0.25438911472E-01  0.30039907061E-01  0.27978083310E-01  0.48296671726E-01  0.51100000000E-03 0.  1.
</event>
<event>
 8    1  0.1109553E+005  0.1043930E+01  0.7957747E-01            NaN
         13   -1    0    0    0    0  0.00000000000E+00  0.00000000000E+00  0.74505805969E-08  0.10566000000E+00  0.10566000000E+00 0.  1.
     999900   -1    0    0    0    0 -0.00000000000E+00 -0.00000000000E+00 -0.74505805969E-08  0.93827000000E+00  0.93827000000E+00 0. -1.
     999902    2    1    2    0    0 -0.10531746477E-01 -0.14648777384E-01 -0.15807415581E-01  0.10199429462E+01  0.10196608430E+01 0.  0.
     999903    2    3    3    0    0 -0.48764456402E-01  0.44170056383E-01 -0.11246776433E+00  0.13187503307E+00  0.20323883605E-01 0.  0.
         14    1    1    2    0    0  0.10531746477E-01  0.14648777384E-01  0.15807415581E-01  0.23987053801E-01  0.00000000000E+00 0. -1.
     999901    1    3    3    0    0  0.38232709925E-01 -0.58818833767E-01  0.96660348746E-01  0.88806791313E+00  0.88000000000E+00 0.  1.
        -11    1    4    4    0    0 -0.48132516348E-01  0.45269932151E-01 -0.10344120868E+00  0.12274547104E+00  0.51100000000E-03 0.  1.
         11    1    4    4    0    0 -0.63194005390E-03 -0.10998757681E-02 -0.90265556493E-02  0.91295620282E-02  0.51100000000E-03 0. -1.
</event>
<event>
 8    1  0.1109553E+005  0.1043930E+01  0.7957747E-01            NaN
         13   -1    0    0    0    0  0.00000000000E+00  0.00000000000E+00  0.74505805969E-08  0.10566000000E+00  0.10566000000E+00 0.  1.
     999900   -1    0    0    0    0 -0.00000000000E+00 -0.00000000000E+00 -0.74505805969E-08  0.93827000000E+00  0.93827000000E+00 0.  1.
     999902    2    1    2    0    0  0.69694773674E-02 -0.18363757504E-01 -0.12219662057E-01  0.10207973100E+01  0.10205351669E+01 0.  0.
     999903    2    3    3    0    0 -0.57322533607E-01 -0.40346069890E-01  0.10774054966E+00  0.13006326604E+00  0.19868289234E-01 0.  0.
         14    1    1    2    0    0 -0.69694773674E-02  0.18363757504E-01  0.12219662057E-01  0.23132689970E-01  0.00000000000E+00 0.  1.
     999901    1    3    3    0    0  0.64292010974E-01  0.21982312385E-01 -0.11996021172E+00  0.89073404399E+00  0.88000000000E+00 0.  1.
        -11    1    4    4    0    0 -0.40393466339E-01 -0.25964093943E-01  0.88420217979E-01  0.10061889666E+00  0.51100000000E-03 0. -1.
         11    1    4    4    0    0 -0.16929067268E-01 -0.14381975947E-01  0.19320331679E-01  0.29444369375E-01  0.51100000000E-03 0.  1.
</event>
<event>
 8    1  0.1109553E+005  0.1043930E+01  0.7957747E-01            NaN
         13   -1    0    0    0    0  0.00000000000E+00  0.00000000000E+00  0.74505805969E-08  0.10566000000E+00  0.10566000000E+00 0.  1.
     999900   -1    0    0    0    0 -0.00000000000E+00 -0.00000000000E+00 -0.74505805969E-08  0.93827000000E+00  0.93827000000E+00 0. -1.
     999902    2    1    2    0    0 -0.18277796995E-01  0.13932267222E-01 -0.44485006881E-02  0.10205211322E+01  0.10202526188E+01 0.  0.
     999903    2    3    3    0    0  0.31373235818E-02 -0.54919824909E-01  0.11503673152E+00  0.12952397245E+00  0.22737191383E-01 0.  0.
         14    1    1    2    0    0  0.18277796995E-01 -0.13932267222E-01  0.44485006881E-02  0.23408867792E-01  0.00000000000E+00 0. -1.
     999901    1    3    3    0    0 -0.21415120577E-01  0.68852092130E-01 -0.11948523221E+00  0.89099715976E+00  0.88000000000E+00 0. -1.
        -11    1    4    4    0    0  0.59658655877E-02 -0.24501240268E-01  0.75213657560E-01  0.79330055663E-01  0.51100000000E-03 0. -1.
         11    1    4    4    0    0 -0.28285420059E-02 -0.30418584641E-01  0.39823073965E-01  0.50193916787E-01  0.51100000000E-03 0.  1.
</event>
<event>
 7    1  0.1109553E+005  0.1043930E+01  0.7957747E-01            NaN
         13   -1    0    0    0    0  0.00000000000E+00  0.00000000000E+00  0.74505805969E-08  0.10566000000E+00  0.10566000000E+00 0. -1.
     999900   -1    0    0    0    0 -0.00000000000E+00 -0.00000000000E+00 -0.74505805969E-08  0.93827000000E+00  0.93827000000E+00 0.  1.
     999903    2    1    2    0    0  0.83117152987E-01 -0.70535289968E-01 -0.20086065805E-01  0.11169051325E+00  0.13697899807E-01 0.  0.
         14    1    1    2    0    0  0.15893739655E-01 -0.36528075127E-01  0.46341702066E-02  0.40104697558E-01  0.00000000000E+00 0. -1.
     999901    1    1    2    0    0 -0.99010892642E-01  0.10706336510E+00  0.15451895598E-01  0.89213478919E+00  0.88000000000E+00 0.  1.
        -11    1    3    3    0    0  0.26568602555E-01 -0.18233944364E-01 -0.11349811529E-01  0.34167919333E-01  0.51100000000E-03 0. -1.
         11    1    3    3    0    0  0.56548550432E-01 -0.52301345604E-01 -0.87362542755E-02  0.77522593917E-01  0.51100000000E-03 0.  1.
</event>
<event>
 8    1  0.1109553E+005  0.1043930E+01  0.7957747E-01            NaN
         13   -1    0    0    0    0  0.00000000000E+00  0.00000000000E+00  0.74505805969E-08  0.10566000000E+00  0.10566000000E+00 0.  1.
     999900   -1    0    0    0    0 -0.00000000000E+00 -0.00000000000E+00 -0.74505805969E-08  0.93827000000E+00  0.93827000000E+00 0.  1.
     999902    2    1    2    0    0 -0.16465608778E-01 -0.13282397175E-01  0.10919408314E-01  0.10201230299E+01  0.10198451963E+01 0.  0.
     999903    2    3    3    0    0 -0.63116266366E-02 -0.58398269685E-01 -0.11441634767E+00  0.13004011409E+00  0.19212915543E-01 0.  0.
         14    1    1    2    0    0  0.16465608778E-01  0.13282397175E-01 -0.10919408314E-01  0.23806970095E-01  0.00000000000E+00 0. -1.
     999901    1    3    3    0    0 -0.10153982141E-01  0.45115872510E-01  0.12533575599E+00  0.89008291582E+00  0.88000000000E+00 0. -1.
        -11    1    4    4    0    0  0.11164981787E-02 -0.13714531104E-01 -0.45752425008E-01  0.47779498184E-01  0.51100000000E-03 0.  1.
         11    1    4    4    0    0 -0.74281248153E-02 -0.44683738581E-01 -0.68663922664E-01  0.82260615901E-01  0.51100000000E-03 0. -1.
</event>
<event>
 8    1  0.1109553E+005  0.1043930E+01  0.7957747E-01            NaN
         13   -1    0    0    0    0  0.00000000000E+00  0.00000000000E+00  0.74505805969E-08  0.10566000000E+00  0.10566000000E+00 0.  1.
     999900   -1    0    0    0    0 -0.00000000000E+00 -0.00000000000E+00 -0.74505805969E-08  0.93827000000E+00  0.93827000000E+00 0.  1.
     999902    2    1    2    0    0 -0.29578738235E-02  0.23644444962E-01  0.23763419610E-02  0.10199830629E+01  0.10197019137E+01 0.  0.
     999903    2    3    3    0    0  0.10094773329E+00  0.82173432843E-01  0.68354608627E-02  0.13192793998E+00  0.20379889627E-01 0.  0.
         14    1    1    2    0    0  0.29578738235E-02 -0.23644444962E-01 -0.23763419610E-02  0.23946937095E-01  0.00000000000E+00 0. -1.
     999901    1    3    3    0    0 -0.10390560711E+00 -0.58528987881E-01 -0.44591189016E-02  0.88805512292E+00  0.88000000000E+00 0. -1.
        -11    1    4    4    0    0  0.50815840858E-01  0.46407004545E-01  0.12995331457E-01  0.70035701707E-01  0.51100000000E-03 0. -1.
         11    1    4    4    0    0  0.50131892429E-01  0.35766428298E-01 -0.61598705939E-02  0.61892238273E-01  0.51100000000E-03 0.  1.
</event>
<event>
 8    1  0.1109553E+005  0.1043930E+01  0.7957747E-01            NaN
         13   -1    0    0    0    0  0.00000000000E+00  0.00000000000E+00  0.74505805969E-08  0.10566000000E+00  0.10566000000E+00 0.  1.
     999900   -1    0    0    0    0 -0.00000000000E+00 -0.00000000000E+00 -0.74505805969E-08  0.93827000000E+00  0.93827000000E+00 0.  1.
     999902    2    1    2    0    0 -0.29207405465E-01  0.26021502472E-02 -0.65061879630E-02  0.10138937852E+01  0.10134487818E+01 0.  0.
     999903    2    3    3    0    0 -0.68320159511E-01 -0.10329797381E+00 -0.16685217256E-01  0.12662367046E+00  0.20421602720E-01 0.  0.
         14    1    1    2    0    0  0.29207405465E-01 -0.26021502472E-02  0.65061879630E-02  0.30036214837E-01  0.00000000000E+00 0.  1.
     999901    1    3    3    0    0  0.39112754046E-01  0.10590012406E+00  0.10179029293E-01  0.88727011470E+00  0.88000000000E+00 0. -1.
        -11    1    4    4    0    0 -0.40855553730E-01 -0.63237540643E-01 -0.20112998508E-01  0.77929177123E-01  0.51100000000E-03 0. -1.
         11    1    4    4    0    0 -0.27464605782E-01 -0.40060433167E-01  0.34277812521E-02  0.48694493339E-01  0.51100000000E-03 0.  1.
</event>
<event>
 8    1  0.1109553E+005  0.1043930E+01  0.7957747E-01            NaN
         13   -1    0    0    0    0  0.00000000000E+00  0.00000000000E+00  0.74505805969E-08  0.10566000000E+00  0.10566000000E+00 0.  1.
     999900   -1    0    0    0    0 -0.00000000000E+00 -0.00000000000E+00 -0.74505805969E-08  0.93827000000E+00  0.93827000000E+00 0.  1.
     999902    2    1    2    0    0  0.64898165605E-02  0.12495881302E-01 -0.20355562479E-01  0.10191789658E+01  0.10188783788E+01 0.  0.
     999903    2    3    3    0    0 -0.20175270062E-01  0.41043293592E-01  0.11742916218E+00  0.12760136857E+00  0.20022678599E-01 0.  0.
         14    1    1    2    0    0 -0.64898165605E-02 -0.12495881302E-01  0.20355562479E-01  0.24751034167E-01  0.00000000000E+00 0.  1.
     999901    1    3    3    0    0  0.26665086622E-01 -0.28547412289E-01 -0.13778472466E+00  0.89157759726E+00  0.88000000000E+00 0.  1.
        -11    1    4    4    0    0 -0.14170473033E-05  0.22491500393E-01  0.54529141548E-01  0.58987761366E-01  0.51100000000E-03 0. -1.
         11    1    4    4    0    0 -0.20173853015E-01  0.18551793198E-01  0.62900020636E-01  0.68613607203E-01  0.51100000000E-03 0.  1.
</event>
<event>
 8    1  0.1109553E+005  0.1043930E+01  0.7957747E-01            NaN
         13   -1    0    0    0    0  0.00000000000E+00  0.00000000000E+00  0.74505805969E-08  0.10566000000E+00  0.10566000000E+00 0. -1.
     999900   -1    0    0    0    0 -0.00000000000E+00 -0.00000000000E+00 -0.74505805969E-08  0.93827000000E+00  0.93827000000E+00 0. -1.
     999902    2    1    2    0    0  0.22392457371E-01  0.56372106878E-02 -0.50012803497E-02  0.10203034663E+01  0.10200298771E+01 0.  0.
     999903    2    3    3    0    0  0.10412033026E+00 -0.56545532111E-01  0.55428072893E-01  0.13227314840E+00  0.19633495537E-01 0.  0.
         14    1    1    2    0    0 -0.22392457371E-01 -0.56372106878E-02  0.50012803497E-02  0.23626533740E-01  0.00000000000E+00 0. -1.
     999901    1    3    3    0    0 -0.81727872890E-01  0.62182742799E-01 -0.60429353242E-01  0.88803031786E+00  0.88000000000E+00 0.  1.
        -11    1    4    4    0    0  0.77055632463E-01 -0.38902025628E-01  0.30818506211E-01  0.91656857563E-01  0.51100000000E-03 0.  1.
         11    1    4    4    0    0  0.27064697798E-01 -0.17643506484E-01  0.24609566681E-01  0.40616290835E-01  0.51100000000E-03 0. -1.
</event>
<event>
 8    1  0.1109553E+005  0.1043930E+01  0.7957747E-01            NaN
         13   -1    0    0    0    0  0.00000000000E+00  0.00000000000E+00  0.74505805969E-08  0.10566000000E+00  0.10566000000E+00 0.  1.
     999900   -1    0    0    0    0 -0.00000000000E+00 -0.00000000000E+00 -0.74505805969E-08  0.93827000000E+00  0.93827000000E+00 0.  1.
     999902    2    1    2    0    0  0.86859681958E-02  0.11106866883E-02 -0.19088881962E-01  0.10229284505E+01  0.10227128383E+01 0.  0.
     999903    2    3    3    0    0 -0.12633037429E+00 -0.18832243669E-01  0.23343576689E-01  0.13139738159E+00  0.20157689545E-01 0.  0.
         14    1    1    2    0    0 -0.86859681958E-02 -0.11106866883E-02  0.19088881962E-01  0.21001549537E-01  0.00000000000E+00 0.  1.
     999901    1    3    3    0    0  0.13501634248E+00  0.19942930358E-01 -0.42432458651E-01  0.89153106887E+00  0.88000000000E+00 0. -1.
        -11    1    4    4    0    0 -0.10921018960E+00 -0.21904746338E-01  0.24161916803E-01  0.11397693963E+00  0.51100000000E-03 0. -1.
         11    1    4    4    0    0 -0.17120184692E-01  0.30725026692E-02 -0.81834011416E-03  0.17420441960E-01  0.51100000000E-03 0.  1.
</event>
<event>
 8    1  0.1109553E+005  0.1043930E+01  0.7957747E-01            NaN
         13   -1    0    0    0    0  0.00000000000E+00  0.00000000000E+00  0.74505805969E-08  0.10566000000E+00  0.10566000000E+00 0.  1.
     999900   -1    0    0    0    0 -0.00000000000E+00 -0.00000000000E+00 -0.74505805969E-08  0.93827000000E+00  0.93827000000E+00 0. -1.
     999902    2    1    2    0    0 -0.21026567772E-01 -0.16738457751E-01  0.88005838813E-02  0.10156502759E+01  0.10152564898E+01 0.  0.
     999903    2    3    3    0    0  0.93780861167E-01 -0.21516789174E-01  0.77909531441E-01  0.12549319713E+00  0.20514026915E-01 0.  0.
         14    1    1    2    0    0  0.21026567772E-01  0.16738457751E-01 -0.88005838813E-02  0.28279724129E-01  0.00000000000E+00 0. -1.
     999901    1    3    3    0    0 -0.11480742894E+00  0.47783314229E-02 -0.69108947560E-01  0.89015707874E+00  0.88000000000E+00 0.  1.
        -11    1    4    4    0    0  0.60910934055E-01 -0.92039474934E-02  0.38178043733E-01  0.72475366030E-01  0.51100000000E-03 0. -1.
         11    1    4    4    0    0  0.32869927112E-01 -0.12312841681E-01  0.39731487708E-01  0.53017831105E-01  0.51100000000E-03 0.  1.
</event>
<event>
 8    1  0.1109553E+005  0.1043930E+01  0.7957747E-01            NaN
         13   -1    0    0    0    0  0.00000000000E+00  0.00000000000E+00  0.74505805969E-08  0.10566000000E+00  0.10566000000E+00 0.  1.
     999900   -1    0    0    0    0 -0.00000000000E+00 -0.00000000000E+00 -0.74505805969E-08  0.93827000000E+00  0.93827000000E+00 0.  1.
     999902    2    1    2    0    0 -0.15347632009E-01  0.11168995556E-01 -0.29381091398E-02  0.10247224818E+01  0.10245424520E+01 0.  0.
     999903    2    3    3    0    0 -0.11002886758E+00  0.73976117157E-01 -0.29734506437E-01  0.13701345414E+00  0.17599094599E-01 0.  0.
         14    1    1    2    0    0  0.15347632009E-01 -0.11168995556E-01  0.29381091398E-02  0.19207518198E-01  0.00000000000E+00 0.  1.
     999901    1    3    3    0    0  0.94681235570E-01 -0.62807121600E-01  0.26796397298E-01  0.88770902767E+00  0.88000000000E+00 0.  1.
        -11    1    4    4    0    0 -0.86078861567E-01  0.48694764930E-01 -0.20928471464E-01  0.10108913185E+00  0.51100000000E-03 0. -1.
         11    1    4    4    0    0 -0.23950006012E-01  0.25281352227E-01 -0.88060349731E-02  0.35924322280E-01  0.51100000000E-03 0.  1.
</event>
<event>
 8    1  0.1109553E+005  0.1043930E+01  0.7957747E-01            NaN
         13   -1    0    0    0    0  0.00000000000E+00  0.00000000000E+00  0.74505805969E-08  0.10566000000E+00  0.10566000000E+00 0. -1.
     999900   -1    0    0    0    0 -0.00000000000E+00 -0.00000000000E+00 -0.74505805969E-08  0.93827000000E+00  0.93827000000E+00 0.  1.
     999902    2    1    2    0    0 -0.23611806735E-01 -0.32751954983E-02 -0.31947597468E-02  0.10198789956E+01  0.10195953682E+01 0.  0.
     999903    2    3    3    0    0 -0.78433985741E-01  0.98787272235E-01 -0.32661057982E-01  0.13179652118E+00  0.19818249496E-01 0.  0.
         14    1    1    2    0    0  0.23611806735E-01  0.32751954983E-02  0.31947597468E-02  0.24051004400E-01  0.00000000000E+00 0. -1.
     999901    1    3    3    0    0  0.54822179007E-01 -0.10206246773E+00  0.29466298235E-01  0.88808247441E+00  0.88000000000E+00 0. -1.
        -11    1    4    4    0    0 -0.25030472882E-01  0.32270599393E-01 -0.20274310031E-01  0.45598518903E-01  0.51100000000E-03 0. -1.
         11    1    4    4    0    0 -0.53403512859E-01  0.66516672842E-01 -0.12386747951E-01  0.86198002282E-01  0.51100000000E-03 0.  1.
</event>
<event>
 8    1  0.1109553E+005  0.1043930E+01  0.7957747E-01            NaN
         13   -1    0    0    0    0  0.00000000000E+00  0.00000000000E+00  0.74505805969E-08  0.10566000000E+00  0.10566000000E+00 0.  1.
     999900   -1    0    0    0    0 -0.00000000000E+00 -0.00000000000E+00 -0.74505805969E-08  0.93827000000E+00  0.93827000000E+00 0. -1.
     999902    2    1    2    0    0 -0.70178670182E-02  0.21092534032E-02 -0.22530535599E-01  0.10202377135E+01  0.10199625814E+01 0.  0.
     999903    2    3    3    0    0  0.53581909620E-01  0.11639564391E+00  0.11454332407E-01  0.13013171795E+00  0.19598350096E-01 0.  0.
         14    1    1    2    0    0  0.70178670182E-02 -0.21092534032E-02  0.22530535599E-01  0.23692286546E-01  0.00000000000E+00 0.  1.
     999901    1    3    3    0    0 -0.60599776638E-01 -0.11428639050E+00 -0.33984868006E-01  0.89010599551E+00  0.88000000000E+00 0. -1.
        -11    1    4    4    0    0  0.15120191107E-01  0.20620687981E-01  0.82446281122E-02  0.26871322365E-01  0.51100000000E-03 0. -1.
         11    1    4    4    0    0  0.38461718512E-01  0.95774955925E-01  0.32097042948E-02  0.10326039558E+00  0.51100000000E-03 0.  1.
</event>
<event>
 8    1  0.1109553E+005  0.1043930E+01  0.7957747E-01            NaN
         13   -1    0    0    0    0  0.00000000000E+00  0.00000000000E+00  0.74505805969E-08  0.10566000000E+00  0.10566000000E+00 0. -1.
     999900   -1    0    0    0    0 -0.00000000000E+00 -0.00000000000E+00 -0.74505805969E-08  0.93827000000E+00  0.93827000000E+00 0. -1.
     999902    2    1    2    0    0 -0.10216366021E-01  0.58959300218E-02 -0.20695687375E-01  0.10201088413E+01  0.10198306725E+01 0.  0.
     999903    2    3    3    0    0 -0.23808333314E-02  0.25356248967E-01  0.12391042579E+00  0.12806006038E+00  0.19924299656E-01 0.  0.
         14    1    1    2    0    0  0.10216366021E-01 -0.58959300218E-02  0.20695687375E-01  0.23821158691E-01  0.00000000000E+00 0. -1.
     999901    1    3    3    0    0 -0.78355326895E-02 -0.19460318945E-01 -0.14460611316E+00  0.89204878093E+00  0.88000000000E+00 0. -1.
        -11    1    4    4    0    0 -0.36364486978E-02  0.57807408670E-02  0.75701825703E-01  0.76010974602E-01  0.51100000000E-03 0. -1.
         11    1    4    4    0    0  0.12556153664E-02  0.19575508100E-01  0.48208600087E-01  0.52049085781E-01  0.51100000000E-03 0.  1.
</event>
<event>
 8    1  0.1109553E+005  0.1043930E+01  0.7957747E-01            NaN
         13   -1    0    0    0    0  0.00000000000E+00  0.00000000000E+00  0.74505805969E-08  0.10566000000E+00  0.10566000000E+00 0.  1.
     999900   -1    0    0    0    0 -0.00000000000E+00 -0.00000000000E+00 -0.74505805969E-08  0.93827000000E+00  0.93827000000E+00 0.  1.
     999902    2    1    2    0    0 -0.37421038144E-02 -0.22124779939E-01 -0.63917924205E-02  0.10205983854E+01  0.10203316618E+01 0.  0.
     999903    2    3    3    0    0 -0.26708902589E-02  0.97564683761E-01  0.80636665545E-01  0.12824158027E+00  0.20435995372E-01 0.  0.
         14    1    1    2    0    0  0.37421038144E-02  0.22124779939E-01  0.63917924205E-02  0.23331614574E-01  0.00000000000E+00 0.  1.
     999901    1    3    3    0    0 -0.10712135556E-02 -0.11968946370E+00 -0.87028457965E-01  0.89235680516E+00  0.88000000000E+00 0.  1.
        -11    1    4    4    0    0  0.60083219014E-02  0.51857879194E-01  0.51564214878E-01  0.73378940736E-01  0.51100000000E-03 0. -1.
         11    1    4    4    0    0 -0.86792121602E-02  0.45706804566E-01  0.29072450667E-01  0.54862639529E-01  0.51100000000E-03 0.  1.
</event>
<event>
 8    1  0.1312598E+005  0.1043930E+01  0.7957747E-01            NaN
         13   -1    0    0    0    0  0.00000000000E+00  0.00000000000E+00  0.74505805969E-08  0.10566000000E+00  0.10566000000E+00 0.  1.
     999900   -1    0    0    0    0 -0.00000000000E+00 -0.00000000000E+00 -0.74505805969E-08  0.93827000000E+00  0.93827000000E+00 0.  1.
     999902    2    1    2    0    0  0.59464358244E-02  0.18646673246E-01  0.13602232472E-01  0.10200955868E+01  0.10198171047E+01 0.  0.
     999903    2    3    3    0    0 -0.27969194460E-01  0.20927965502E-02 -0.12400452286E+00  0.12860250223E+00  0.19360430118E-01 0.  0.
         14    1    1    2    0    0 -0.59464358244E-02 -0.18646673246E-01 -0.13602232472E-01  0.23834413153E-01  0.00000000000E+00 0. -1.
     999901    1    3    3    0    0  0.33915630284E-01  0.16553876696E-01  0.13760675533E+00  0.89149308462E+00  0.88000000000E+00 0. -1.
        -11    1    4    4    0    0 -0.22230787147E-01  0.15698728501E-03 -0.54920056807E-01  0.59251213514E-01  0.51100000000E-03 0. -1.
         11    1    4    4    0    0 -0.57384073129E-02  0.19358092651E-02 -0.69084466049E-01  0.69351288714E-01  0.51100000000E-03 0.  1.
</event>
<event>
 8    1  0.1109553E+005  0.1043930E+01  0.7957747E-01            NaN
         13   -1    0    0    0    0  0.00000000000E+00  0.00000000000E+00  0.74505805969E-08  0.10566000000E+00  0.10566000000E+00 0. -1.
     999900   -1    0    0    0    0 -0.00000000000E+00 -0.00000000000E+00 -0.74505805969E-08  0.93827000000E+00  0.93827000000E+00 0.  1.
     999902    2    1    2    0    0  0.17190318440E-01 -0.28721188769E-03 -0.16835242656E-01  0.10198672709E+01  0.10195833635E+01 0.  0.
     999903    2    3    3    0    0  0.69973337565E-01 -0.61113403503E-01 -0.92830893915E-01  0.13292803296E+00  0.20522451731E-01 0.  0.
         14    1    1    2    0    0 -0.17190318440E-01  0.28721188769E-03  0.16835242656E-01  0.24062729147E-01  0.00000000000E+00 0. -1.
     999901    1    3    3    0    0 -0.52783019125E-01  0.60826191615E-01  0.75995651260E-01  0.88693923789E+00  0.88000000000E+00 0. -1.
        -11    1    4    4    0    0  0.17689944881E-01 -0.27708652201E-01 -0.36514630753E-01  0.49135353227E-01  0.51100000000E-03 0.  1.
         11    1    4    4    0    0  0.52283392684E-01 -0.33404751302E-01 -0.56316263162E-01  0.83792679738E-01  0.51100000000E-03 0. -1.
</event>
<event>
 8    1  0.1565765E+005  0.1043930E+01  0.7957747E-01            NaN
         13   -1    0    0    0    0  0.00000000000E+00  0.00000000000E+00  0.74505805969E-08  0.10566000000E+00  0.10566000000E+00 0.  1.
     999900   -1    0    0    0    0 -0.00000000000E+00 -0.00000000000E+00 -0.74505805969E-08  0.93827000000E+00  0.93827000000E+00 0. -1.
     999902    2    1    2    0    0 -0.57654151628E-03  0.18905606775E-01 -0.16471140275E-01  0.10188490744E+01  0.10185403200E+01 0.  0.
     999903    2    3    3    0    0 -0.67990830493E-01  0.45654142897E-01 -0.10123473894E+00  0.13180621285E+00  0.20429184599E-01 0.  0.
         14    1    1    2    0    0  0.57654151628E-03 -0.18905606775E-01  0.16471140275E-01  0.25080925613E-01  0.00000000000E+00 0. -1.
     999901    1    3    3    0    0  0.67414288977E-01 -0.26748536122E-01  0.84763598664E-01  0.88704286154E+00  0.88000000000E+00 0.  1.
        -11    1    4    4    0    0 -0.20512229198E-01  0.23022712860E-01 -0.47333352763E-01  0.56493400135E-01  0.51100000000E-03 0. -1.
         11    1    4    4    0    0 -0.47478601295E-01  0.22631430038E-01 -0.53901386176E-01  0.75312812716E-01  0.51100000000E-03 0.  1.
</event>
<event>
 8    1  0.1109553E+005  0.1043930E+01  0.7957747E-01            NaN
         13   -1    0    0    0    0  0.00000000000E+00  0.00000000000E+00  0.74505805969E-08  0.10566000000E+00  0.10566000000E+00 0.  1.
     999900   -1    0    0    0    0 -0.00000000000E+00 -0.00000000000E+00 -0.74505805969E-08  0.93827000000E+00  0.93827000000E+00 0. -1.
     999902    2    1    2    0    0 -0.14201540774E-01  0.16382486660E-01  0.89393251943E-02  0.10204783228E+01  0.10202088149E+01 0.  0.
     999903    2    3    3    0    0 -0.20472047957E-01  0.60613901982E-01  0.11505771246E+00  0.13297798505E+00  0.18754131514E-01 0.  0.
         14    1    1    2    0    0  0.14201540774E-01 -0.16382486660E-01 -0.89393251943E-02  0.23451677221E-01  0.00000000000E+00 0.  1.
     999901    1    3    3    0    0  0.62705071830E-02 -0.44231415322E-01 -0.10611838727E+00  0.88750033773E+00  0.88000000000E+00 0. -1.
        -11    1    4    4    0    0  0.99182451208E-03  0.22936131496E-01  0.46407932712E-01  0.51778443231E-01  0.51100000000E-03 0. -1.
         11    1    4    4    0    0 -0.21463872469E-01  0.37677770486E-01  0.68649779750E-01  0.81199541814E-01  0.51100000000E-03 0.  1.
</event>
<event>
 8    1  0.1109553E+005  0.1043930E+01  0.7957747E-01            NaN
         13   -1    0    0    0    0  0.00000000000E+00  0.00000000000E+00  0.74505805969E-08  0.10566000000E+00  0.10566000000E+00 0. -1.
     999900   -1    0    0    0    0 -0.00000000000E+00 -0.00000000000E+00 -0.74505805969E-08  0.93827000000E+00  0.93827000000E+00 0. -1.
     999902    2    1    2    0    0 -0.16876030199E-01 -0.10183606760E-01  0.12992464730E-01  0.10203225778E+01  0.10200494363E+01 0.  0.
     999903    2    3    3    0    0  0.56053782745E-01 -0.39545886001E-02  0.11688531605E+00  0.13119306935E+00  0.19793408149E-01 0.  0.
         14    1    1    2    0    0  0.16876030199E-01  0.10183606760E-01 -0.12992464730E-01  0.23607422173E-01  0.00000000000E+00 0. -1.
     999901    1    3    3    0    0 -0.72929812944E-01 -0.62290181596E-02 -0.10389285132E+00  0.88912950847E+00  0.88000000000E+00 0. -1.
        -11    1    4    4    0    0  0.23331486273E-01  0.71851179917E-02  0.57647381942E-01  0.62605638229E-01  0.51100000000E-03 0.  1.
         11    1    4    4    0    0  0.32722296472E-01 -0.11139706592E-01  0.59237934112E-01  0.68587431124E-01  0.51100000000E-03 0. -1.
</event>
<event>
 8    1  0.1109553E+005  0.1043930E+01  0.7957747E-01            NaN
         13   -1    0    0    0    0  0.00000000000E+00  0.00000000000E+00  0.74505805969E-08  0.10566000000E+00  0.10566000000E+00 0. -1.
     999900   -1    0    0    0    0 -0.00000000000E+00 -0.00000000000E+00 -0.74505805969E-08  0.93827000000E+00  0.93827000000E+00 0. -1.
     999902    2    1    2    0    0  0.42252299131E-03  0.23369201755E-01 -0.27945597134E-02  0.10203905081E+01  0.10201189545E+01 0.  0.
     999903    2    3    3    0    0 -0.12104480550E+00  0.20677781370E-02 -0.45129510974E-01  0.13078367883E+00  0.20287366536E-01 0.  0.
         14    1    1    2    0    0 -0.42252299131E-03 -0.23369201755E-01  0.27945597134E-02  0.23539491930E-01  0.00000000000E+00 0. -1.
     999901    1    3    3    0    0  0.12146732849E+00  0.21301423618E-01  0.42334951261E-01  0.88960682924E+00  0.88000000000E+00 0.  1.
        -11    1    4    4    0    0 -0.11673964503E+00  0.50814332042E-02 -0.40235586452E-01  0.12358450236E+00  0.51100000000E-03 0. -1.
         11    1    4    4    0    0 -0.43051604682E-02 -0.30136550672E-02 -0.48939245220E-02  0.71991764632E-02  0.51100000000E-03 0.  1.
</event>
<event>
 8    1  0.1109553E+005  0.1043930E+01  0.7957747E-01            NaN
         13   -1    0    0    0    0  0.00000000000E+00  0.00000000000E+00  0.74505805969E-08  0.10566000000E+00  0.10566000000E+00 0.  1.
     999900   -1    0    0    0    0 -0.00000000000E+00 -0.00000000000E+00 -0.74505805969E-08  0.93827000000E+00  0.93827000000E+00 0.  1.
     999902    2    1    2    0    0 -0.14451649887E-01 -0.57070752038E-03 -0.18096576399E-01  0.10207640343E+01  0.10205011277E+01 0.  0.
     999903    2    3    3    0    0 -0.87993880449E-01 -0.80954022915E-01  0.50576722638E-01  0.13139012016E+00  0.20220830362E-01 0.  0.
         14    1    1    2    0    0  0.14451649887E-01  0.57070752038E-03  0.18096576399E-01  0.23165965745E-01  0.00000000000E+00 0.  1.
     999901    1    3    3    0    0  0.73542230563E-01  0.80383315395E-01 -0.68673299037E-01  0.88937391409E+00  0.88000000000E+00 0. -1.
        -11    1    4    4    0    0 -0.15405374107E-01 -0.56380034127E-02  0.40429303477E-02  0.16903225747E-01  0.51100000000E-03 0.  1.
         11    1    4    4    0    0 -0.72588506342E-01 -0.75316019502E-01  0.46533792290E-01  0.11448689441E+00  0.51100000000E-03 0. -1.
</event>
<event>
 8    1  0.1109553E+005  0.1043930E+01  0.7957747E-01            NaN
         13   -1    0    0    0    0  0.00000000000E+00  0.00000000000E+00  0.74505805969E-08  0.10566000000E+00  0.10566000000E+00 0.  1.
     999900   -1    0    0    0    0 -0.00000000000E+00 -0.00000000000E+00 -0.74505805969E-08  0.93827000000E+00  0.93827000000E+00 0. -1.
     999902    2    1    2    0    0 -0.17050828440E-01 -0.79943205376E-02  0.15295388366E-01  0.10196691505E+01  0.10193804921E+01 0.  0.
     999903    2    3    3    0    0  0.93295332785E-01  0.76068124869E-01 -0.36105318981E-01  0.12732123479E+00  0.20413819564E-01 0.  0.
         14    1    1    2    0    0  0.17050828440E-01  0.79943205376E-02 -0.15295388366E-01  0.24260849462E-01  0.00000000000E+00 0. -1.
     999901    1    3    3    0    0 -0.11034616122E+00 -0.84062445407E-01  0.51400707347E-01  0.89234791575E+00  0.88000000000E+00 0.  1.
        -11    1    4    4    0    0  0.77124990491E-01  0.61409111022E-01 -0.21074099970E-01  0.10081528597E+00  0.51100000000E-03 0.  1.
         11    1    4    4    0    0  0.16170342294E-01  0.14659013847E-01 -0.15031219011E-01  0.26505948820E-01  0.51100000000E-03 0. -1.
</event>
<event>
 8    1  0.1109553E+005  0.1043930E+01  0.7957747E-01            NaN
         13   -1    0    0    0    0  0.00000000000E+00  0.00000000000E+00  0.74505805969E-08  0.10566000000E+00  0.10566000000E+00 0. -1.
     999900   -1    0    0    0    0 -0.00000000000E+00 -0.00000000000E+00 -0.74505805969E-08  0.93827000000E+00  0.93827000000E+00 0.  1.
     999902    2    1    2    0    0 -0.56644142444E-02  0.23279379500E-02 -0.22550865379E-01  0.10205623640E+01  0.10202948066E+01 0.  0.
     999903    2    3    3    0    0 -0.56780934954E-01  0.24358902218E-01  0.11119757567E+00  0.12871769838E+00  0.19644702813E-01 0.  0.
         14    1    1    2    0    0  0.56644142444E-02 -0.23279379500E-02  0.22550865379E-01  0.23367636020E-01  0.00000000000E+00 0. -1.
     999901    1    3    3    0    0  0.51116520710E-01 -0.22030964268E-01 -0.13374844105E+00  0.89184466560E+00  0.88000000000E+00 0.  1.
        -11    1    4    4    0    0 -0.10973461003E-01 -0.11714040980E-02  0.10809282230E-01  0.15456090621E-01  0.51100000000E-03 0. -1.
         11    1    4    4    0    0 -0.45807473951E-01  0.25530306316E-01  0.10038829344E+00  0.11326160776E+00  0.51100000000E-03 0.  1.
</event>
<event>
 8    1  0.1109553E+005  0.1043930E+01  0.7957747E-01            NaN
         13   -1    0    0    0    0  0.00000000000E+00  0.00000000000E+00  0.74505805969E-08  0.10566000000E+00  0.10566000000E+00 0.  1.
     999900   -1    0    0    0    0 -0.00000000000E+00 -0.00000000000E+00 -0.74505805969E-08  0.93827000000E+00  0.93827000000E+00 0.  1.
     999902    2    1    2    0    0  0.92052399589E-02 -0.97195815305E-02  0.19555598927E-01  0.10202313047E+01  0.10199560221E+01 0.  0.
     999903    2    3    3    0    0 -0.17991894901E-02 -0.75641820595E-01  0.10784849720E+00  0.13329135471E+00  0.20257462452E-01 0.  0.
         14    1    1    2    0    0 -0.92052399589E-02  0.97195815305E-02 -0.19555598927E-01  0.23698695264E-01  0.00000000000E+00 0.  1.
     999901    1    3    3    0    0  0.11004429449E-01  0.65922239065E-01 -0.88292898276E-01  0.88693995003E+00  0.88000000000E+00 0.  1.
        -11    1    4    4    0    0 -0.25403942606E-02 -0.41234455074E-01  0.41574500609E-01  0.58612576382E-01  0.51100000000E-03 0. -1.
         11    1    4    4    0    0  0.74120477045E-03 -0.34407365521E-01  0.66273996594E-01  0.74678778325E-01  0.51100000000E-03 0.  1.
</event>
<event>
 7    1  0.1109553E+005  0.1043930E+01  0.7957747E-01            NaN
         13   -1    0    0    0    0  0.00000000000E+00  0.00000000000E+00  0.74505805969E-08  0.10566000000E+00  0.10566000000E+00 0. -1.
     999900   -1    0    0    0    0 -0.00000000000E+00 -0.00000000000E+00 -0.74505805969E-08  0.93827000000E+00  0.93827000000E+00 0.  1.
     999903    2    1    2    0    0  0.93824063836E-01  0.94836679957E-02  0.45075091697E-04  0.96312371523E-01  0.19574880928E-01 0.  0.
         14    1    1    2    0    0  0.37695405185E-01  0.41788962173E-01  0.30745230815E-02  0.56362342249E-01  0.00000000000E+00 0. -1.
     999901    1    1    2    0    0 -0.13151946902E+00 -0.51272630169E-01 -0.31195981732E-02  0.89125528623E+00  0.88000000000E+00 0. -1.
        -11    1    3    3    0    0  0.20556399473E-01  0.70328589760E-02  0.65926204700E-02  0.22710139372E-01  0.51100000000E-03 0.  1.
         11    1    3    3    0    0  0.73267664363E-01  0.24508090197E-02 -0.65475453783E-02  0.73602232151E-01  0.51100000000E-03 0. -1.
</event>
<event>
 8    1  0.1109553E+005  0.1043930E+01  0.7957747E-01            NaN
         13   -1    0    0    0    0  0.00000000000E+00  0.00000000000E+00  0.74505805969E-08  0.10566000000E+00  0.10566000000E+00 0.  1.
     999900   -1    0    0    0    0 -0.00000000000E+00 -0.00000000000E+00 -0.74505805969E-08  0.93827000000E+00  0.93827000000E+00 0. -1.
     999902    2    1    2    0    0  0.14280349284E-02 -0.21647725260E-01  0.10602572581E-01  0.10197829953E+01  0.10194970719E+01 0.  0.
     999903    2    3    3    0    0  0.20685903553E-01  0.12408207404E+00  0.18586912064E-02  0.12754732271E+00  0.20990404759E-01 0.  0.
         14    1    1    2    0    0 -0.14280349284E-02  0.21647725260E-01 -0.10602572581E-01  0.24147004742E-01  0.00000000000E+00 0. -1.
     999901    1    3    3    0    0 -0.19257868625E-01 -0.14572979930E+00  0.87438813743E-02  0.89223567255E+00  0.88000000000E+00 0.  1.
        -11    1    4    4    0    0  0.31385850722E-02  0.39942080920E-01 -0.85410862284E-02  0.40968668754E-01  0.51100000000E-03 0. -1.
         11    1    4    4    0    0  0.17547318481E-01  0.84139993125E-01  0.10399777435E-01  0.86578653955E-01  0.51100000000E-03 0.  1.
</event>
<event>
 8    1  0.1109553E+005  0.1043930E+01  0.7957747E-01            NaN
         13   -1    0    0    0    0  0.00000000000E+00  0.00000000000E+00  0.74505805969E-08  0.10566000000E+00  0.10566000000E+00 0.  1.
     999900   -1    0    0    0    0 -0.00000000000E+00 -0.00000000000E+00 -0.74505805969E-08  0.93827000000E+00  0.93827000000E+00 0. -1.
     999902    2    1    2    0    0  0.12573737222E-01 -0.19173591609E-01  0.81132298955E-02  0.10196081994E+01  0.10193180713E+01 0.  0.
     999903    2    3    3    0    0  0.67451973664E-01 -0.10165691006E+00  0.49521094919E-01  0.13308142041E+00  0.19350180938E-01 0.  0.
         14    1    1    2    0    0 -0.12573737222E-01  0.19173591609E-01 -0.81132298955E-02  0.24321800556E-01  0.00000000000E+00 0. -1.
     999901    1    3    3    0    0 -0.54878236442E-01  0.82483318451E-01 -0.41407865024E-01  0.88652677903E+00  0.88000000000E+00 0. -1.
        -11    1    4    4    0    0  0.41957226827E-01 -0.69132991129E-01  0.23391330663E-01  0.84185478657E-01  0.51100000000E-03 0.  1.
         11    1    4    4    0    0  0.25494746837E-01 -0.32523918932E-01  0.26129764256E-01  0.48895941754E-01  0.51100000000E-03 0. -1.
</event>
<event>
 8    1  0.1109553E+005  0.1043930E+01  0.7957747E-01            NaN
         13   -1    0    0    0    0  0.00000000000E+00  0.00000000000E+00  0.74505805969E-08  0.10566000000E+00  0.10566000000E+00 0.  1.
     999900   -1    0    0    0    0 -0.00000000000E+00 -0.00000000000E+00 -0.74505805969E-08  0.93827000000E+00  0.93827000000E+00 0.  1.
     999902    2    1    2    0    0  0.12443249326E-01  0.16054633605E-01  0.12187455674E-01  0.10202420328E+01  0.10199670023E+01 0.  0.
     999903    2    3    3    0    0 -0.10401429604E+00  0.59425534702E-01 -0.45399737086E-01  0.12964690611E+00  0.19920245499E-01 0.  0.
         14    1    1    2    0    0 -0.12443249326E-01 -0.16054633605E-01 -0.12187455674E-01  0.23687967194E-01  0.00000000000E+00 0. -1.
     999901    1    3    3    0    0  0.11645754536E+00 -0.43370901098E-01  0.57587192761E-01  0.89059512670E+00  0.88000000000E+00 0. -1.
        -11    1    4    4    0    0 -0.73358764454E-02  0.57412445836E-02  0.16413058428E-02  0.94726964725E-02  0.51100000000E-03 0. -1.
         11    1    4    4    0    0 -0.96678419590E-01  0.53684290119E-01 -0.47041042929E-01  0.12017420963E+00  0.51100000000E-03 0.  1.
</event>
<event>
 8    1  0.1109553E+005  0.1043930E+01  0.7957747E-01            NaN
         13   -1    0    0    0    0  0.00000000000E+00  0.00000000000E+00  0.74505805969E-08  0.10566000000E+00  0.10566000000E+00 0.  1.
     999900   -1    0    0    0    0 -0.00000000000E+00 -0.00000000000E+00 -0.74505805969E-08  0.93827000000E+00  0.93827000000E+00 0.  1.
     999902    2    1    2    0    0 -0.73363573669E-02  0.14441451045E-01 -0.17282838510E-01  0.10202429961E+01  0.10199679882E+01 0.  0.
     999903    2    3    3    0    0  0.72699801405E-01 -0.57422564437E-01  0.86799599089E-01  0.12760456018E+00  0.12889582835E-01 0.  0.
         14    1    1    2    0    0  0.73363573669E-02 -0.14441451045E-01  0.17282838510E-01  0.23687003919E-01  0.00000000000E+00 0.  1.
     999901    1    3    3    0    0 -0.80036158772E-01  0.71864015483E-01 -0.10408243760E+00  0.89263843590E+00  0.88000000000E+00 0.  1.
        -11    1    4    4    0    0  0.36604949430E-01 -0.35078460020E-01  0.52924282132E-01  0.73291619168E-01  0.51100000000E-03 0. -1.
         11    1    4    4    0    0  0.36094851975E-01 -0.22344104418E-01  0.33875316957E-01  0.54312941011E-01  0.51100000000E-03 0.  1.
</event>
<event>
 8    1  0.1109553E+005  0.1043930E+01  0.7957747E-01            NaN
         13   -1    0    0    0    0  0.00000000000E+00  0.00000000000E+00  0.74505805969E-08  0.10566000000E+00  0.10566000000E+00 0.  1.
     999900   -1    0    0    0    0 -0.00000000000E+00 -0.00000000000E+00 -0.74505805969E-08  0.93827000000E+00  0.93827000000E+00 0.  1.
     999902    2    1    2    0    0 -0.17500349381E-01  0.13849890525E-02  0.17313020849E-01  0.10192739437E+01  0.10189756872E+01 0.  0.
     999903    2    3    3    0    0  0.70261564897E-01 -0.84734036577E-01 -0.60686376687E-01  0.12730839153E+00  0.20200143135E-01 0.  0.
         14    1    1    2    0    0  0.17500349381E-01 -0.13849890525E-02 -0.17313020849E-01  0.24656056336E-01  0.00000000000E+00 0. -1.
     999901    1    3    3    0    0 -0.87761914278E-01  0.86119025630E-01  0.77999397536E-01  0.89196555213E+00  0.88000000000E+00 0.  1.
        -11    1    4    4    0    0  0.25230192210E-01 -0.42725810189E-01 -0.34217852202E-01  0.60275865697E-01  0.51100000000E-03 0.  1.
         11    1    4    4    0    0  0.45031372688E-01 -0.42008226388E-01 -0.26468524485E-01  0.67032525835E-01  0.51100000000E-03 0. -1.
</event>
<event>
 8    1  0.1109553E+005  0.1043930E+01  0.7957747E-01            NaN
         13   -1    0    0    0    0  0.00000000000E+00  0.00000000000E+00  0.74505805969E-08  0.10566000000E+00  0.10566000000E+00 0.  1.
     999900   -1    0    0    0    0 -0.00000000000E+00 -0.00000000000E+00 -0.74505805969E-08  0.93827000000E+00  0.93827000000E+00 0.  1.
     999902    2    1    2    0    0 -0.23042749811E-01 -0.40883041543E-02 -0.21917051600E-02  0.10204249767E+01  0.10201542270E+01 0.  0.
     999903    2    3    3    0    0 -0.54530097289E-01 -0.65691802706E-01 -0.99093124305E-01  0.13240677354E+00  0.20570900331E-01 0.  0.
         14    1    1    2    0    0  0.23042749811E-01  0.40883041543E-02  0.21917051600E-02  0.23505023319E-01  0.00000000000E+00 0.  1.
     999901    1    3    3    0    0  0.31487347478E-01  0.61603498552E-01  0.96901419145E-01  0.88801820315E+00  0.88000000000E+00 0. -1.
        -11    1    4    4    0    0 -0.28574298717E-01 -0.30434641710E-01 -0.33428199864E-01  0.53483302351E-01  0.51100000000E-03 0.  1.
         11    1    4    4    0    0 -0.25955798572E-01 -0.35257160996E-01 -0.65664924441E-01  0.78923471185E-01  0.51100000000E-03 0. -1.
</event>
<event>
 8    1  0.1109553E+005  0.1043930E+01  0.7957747E-01            NaN
         13   -1    0    0    0    0  0.00000000000E+00  0.00000000000E+00  0.74505805969E-08  0.10566000000E+00  0.10566000000E+00 0. -1.
     999900   -1    0    0    0    0 -0.00000000000E+00 -0.00000000000E+00 -0.74505805969E-08  0.93827000000E+00  0.93827000000E+00 0.  1.
     999902    2    1    2    0    0 -0.15957133693E-01 -0.53003029054E-02  0.17458859405E-01  0.10196908767E+01  0.10194027413E+01 0.  0.
     999903    2    3    3    0    0  0.55110701071E-01  0.50977320709E-01  0.10501993625E+00  0.13071126488E+00  0.20502954843E-01 0.  0.
         14    1    1    2    0    0  0.15957133693E-01  0.53003029054E-02 -0.17458859405E-01  0.24239123299E-01  0.00000000000E+00 0.  1.
     999901    1    3    3    0    0 -0.71067834764E-01 -0.56277623615E-01 -0.87561076844E-01  0.88897961182E+00  0.88000000000E+00 0.  1.
        -11    1    4    4    0    0  0.24413568367E-01  0.32543147751E-01  0.43756117253E-01  0.59748955673E-01  0.51100000000E-03 0. -1.
         11    1    4    4    0    0  0.30697132704E-01  0.18434172959E-01  0.61263818996E-01  0.70962309206E-01  0.51100000000E-03 0.  1.
</event>
<event>
 8    1  0.1109553E+005  0.1043930E+01  0.7957747E-01            NaN
         13   -1    0    0    0    0  0.00000000000E+00  0.00000000000E+00  0.74505805969E-08  0.10566000000E+00  0.10566000000E+00 0.  1.
     999900   -1    0    0    0    0 -0.00000000000E+00 -0.00000000000E+00 -0.74505805969E-08  0.93827000000E+00  0.93827000000E+00 0. -1.
     999902    2    1    2    0    0 -0.21462106788E-01 -0.69031432162E-02 -0.36520768088E-02  0.10210911498E+01  0.10208356984E+01 0.  0.
     999903    2    3    3    0    0  0.26971952622E-01 -0.85720610542E-01  0.93142513727E-01  0.13096349376E+00  0.20009985870E-01 0.  0.
         14    1    1    2    0    0  0.21462106788E-01  0.69031432162E-02  0.36520768088E-02  0.22838850213E-01  0.00000000000E+00 0.  1.
     999901    1    3    3    0    0 -0.48434059410E-01  0.78817467326E-01 -0.96794590536E-01  0.89012765603E+00  0.88000000000E+00 0. -1.
        -11    1    4    4    0    0  0.22838825881E-01 -0.42773173176E-01  0.55530970160E-01  0.73723171928E-01  0.51100000000E-03 0. -1.
         11    1    4    4    0    0  0.41331267401E-02 -0.42947437366E-01  0.37611543567E-01  0.57240321832E-01  0.51100000000E-03 0.  1.
</event>
<event>
 8    1  0.1109553E+005  0.1043930E+01  0.7957747E-01            NaN
         13   -1    0    0    0    0  0.00000000000E+00  0.00000000000E+00  0.74505805969E-08  0.10566000000E+00  0.10566000000E+00 0. -1.
     999900   -1    0    0    0    0 -0.00000000000E+00 -0.00000000000E+00 -0.74505805969E-08  0.93827000000E+00  0.93827000000E+00 0. -1.
     999902    2    1    2    0    0 -0.10532892225E-01  0.20395320128E-01 -0.41043395246E-02  0.10206114129E+01  0.10203449905E+01 0.  0.
     999903    2    3    3    0    0 -0.11874350529E+00  0.50997492114E-01  0.25361645206E-01  0.13296605918E+00  0.18330182649E-01 0.  0.
         14    1    1    2    0    0  0.10532892225E-01 -0.20395320128E-01  0.41043395246E-02  0.23318587107E-01  0.00000000000E+00 0.  1.
     999901    1    3    3    0    0  0.10821061307E+00 -0.30602171986E-01 -0.29465984730E-01  0.88764535371E+00  0.88000000000E+00 0.  1.
        -11    1    4    4    0    0 -0.43252583557E-01  0.14383880808E-01  0.99019648434E-03  0.45595214897E-01  0.51100000000E-03 0.  1.
         11    1    4    4    0    0 -0.75490921734E-01  0.36613611306E-01  0.24371448721E-01  0.87370844284E-01  0.51100000000E-03 0. -1.
</event>
<event>
 8    1  0.1109553E+005  0.1043930E+01  0.7957747E-01            NaN
         13   -1    0    0    0    0  0.00000000000E+00  0.00000000000E+00  0.74505805969E-08  0.10566000000E+00  0.10566000000E+00 0.  1.
     999900   -1    0    0    0    0 -0.00000000000E+00 -0.00000000000E+00 -0.74505805969E-08  0.93827000000E+00  0.93827000000E+00 0.  1.
     999902    2    1    2    0    0 -0.35948220854E-02 -0.54775861883E-02  0.30241275780E-01  0.10129871259E+01  0.10125144225E+01 0.  0.
     999903    2    3    3    0    0  0.93070697198E-01 -0.30457384021E-01  0.77058372069E-01  0.12610491647E+00  0.19355886262E-01 0.  0.
         14    1    1    2    0    0  0.35948220854E-02  0.54775861883E-02 -0.30241275780E-01  0.30942874092E-01  0.00000000000E+00 0. -1.
     999901    1    3    3    0    0 -0.96665519284E-01  0.24979797832E-01 -0.46817096289E-01  0.88688220944E+00  0.88000000000E+00 0. -1.
        -11    1    4    4    0    0  0.32295555649E-01 -0.70753977650E-02  0.15590592072E-01  0.36556693647E-01  0.51100000000E-03 0.  1.
         11    1    4    4    0    0  0.60775141549E-01 -0.23381986256E-01  0.61467779997E-01  0.89548222820E-01  0.51100000000E-03 0. -1.
</event>
<event>
 8    1  0.1109553E+005  0.1043930E+01  0.7957747E-01            NaN
         13   -1    0    0    0    0  0.00000000000E+00  0.00000000000E+00  0.74505805969E-08  0.10566000000E+00  0.10566000000E+00 0. -1.
     999900   -1    0    0    0    0 -0.00000000000E+00 -0.00000000000E+00 -0.74505805969E-08  0.93827000000E+00  0.93827000000E+00 0. -1.
     999902    2    1    2    0    0 -0.27356766745E-02  0.20618250220E-01  0.11643774884E-01  0.10200936063E+01  0.10198150774E+01 0.  0.
     999903    2    3    3    0    0  0.45597113233E-02 -0.74707596114E-01  0.10393170290E+00  0.13011759469E+00  0.22951551059E-01 0.  0.
         14    1    1    2    0    0  0.27356766745E-02 -0.20618250220E-01 -0.11643774884E-01  0.23836393657E-01  0.00000000000E+00 0.  1.
     999901    1    3    3    0    0 -0.72953879979E-02  0.95325846334E-01 -0.92287928012E-01  0.88997601166E+00  0.88000000000E+00 0. -1.
        -11    1    4    4    0    0  0.76922667860E-02 -0.68253236218E-01  0.10143698026E+00  0.12250468280E+00  0.51100000000E-03 0. -1.
         11    1    4    4    0    0 -0.31325554627E-02 -0.64543598957E-02  0.24947226366E-02  0.76129118886E-02  0.51100000000E-03 0.  1.
</event>
<event>
 8    1  0.1109553E+005  0.1043930E+01  0.7957747E-01            NaN
         13   -1    0    0    0    0  0.00000000000E+00  0.00000000000E+00  0.74505805969E-08  0.10566000000E+00  0.10566000000E+00 0. -1.
     999900   -1    0    0    0    0 -0.00000000000E+00 -0.00000000000E+00 -0.74505805969E-08  0.93827000000E+00  0.93827000000E+00 0. -1.
     999902    2    1    2    0    0  0.64708058737E-02  0.11116843321E-01  0.22782359751E-01  0.10177672125E+01  0.10174308858E+01 0.  0.
     999903    2    3    3    0    0 -0.12107355867E-01  0.77490500332E-01 -0.97601018882E-01  0.12690091036E+00  0.20652274813E-01 0.  0.
         14    1    1    2    0    0 -0.64708058737E-02 -0.11116843321E-01 -0.22782359751E-01  0.26162787502E-01  0.00000000000E+00 0.  1.
     999901    1    3    3    0    0  0.18578161741E-01 -0.66373657011E-01  0.12038337863E+00  0.89086630214E+00  0.88000000000E+00 0.  1.
        -11    1    4    4    0    0 -0.10730922762E-01  0.19222855063E-01 -0.35130257076E-01  0.41461632184E-01  0.51100000000E-03 0.  1.
         11    1    4    4    0    0 -0.13764331052E-02  0.58267645268E-01 -0.62470761806E-01  0.85439278174E-01  0.51100000000E-03 0. -1.
</event>
<event>
 8    1  0.1109553E+005  0.1043930E+01  0.7957747E-01            NaN
         13   -1    0    0    0    0  0.00000000000E+00  0.00000000000E+00  0.74505805969E-08  0.10566000000E+00  0.10566000000E+00 0. -1.
     999900   -1    0    0    0    0 -0.00000000000E+00 -0.00000000000E+00 -0.74505805969E-08  0.93827000000E+00  0.93827000000E+00 0. -1.
     999902    2    1    2    0    0 -0.48379169979E-03  0.21912146584E-01  0.87087609874E-02  0.10203457099E+01  0.10200731096E+01 0.  0.
     999903    2    3    3    0    0  0.55374435942E-01  0.10825646671E+00  0.50872315165E-01  0.13335458901E+00  0.20240138822E-01 0.  0.
         14    1    1    2    0    0  0.48379169979E-03 -0.21912146584E-01 -0.87087609874E-02  0.23584290116E-01  0.00000000000E+00 0.  1.
     999901    1    3    3    0    0 -0.55858227642E-01 -0.86344320122E-01 -0.42163554178E-01  0.88699112088E+00  0.88000000000E+00 0.  1.
        -11    1    4    4    0    0  0.39006002914E-01  0.80288795913E-01  0.46506758236E-01  0.10065236557E+00  0.51100000000E-03 0.  1.
         11    1    4    4    0    0  0.16368433028E-01  0.27967670794E-01  0.43655569298E-02  0.32702223437E-01  0.51100000000E-03 0. -1.
</event>
<event>
 8    1  0.1109553E+005  0.1043930E+01  0.7957747E-01            NaN
         13   -1    0    0    0    0  0.00000000000E+00  0.00000000000E+00  0.74505805969E-08  0.10566000000E+00  0.10566000000E+00 0. -1.
     999900   -1    0    0    0    0 -0.00000000000E+00 -0.00000000000E+00 -0.74505805969E-08  0.93827000000E+00  0.93827000000E+00 0. -1.
     999902    2    1    2    0    0 -0.22637872761E-01 -0.47717425204E-02  0.14198985534E-03  0.10207942491E+01  0.10205320357E+01 0.  0.
     999903    2    3    3    0    0 -0.99327854014E-02 -0.10739151612E+00 -0.73026223123E-01  0.13172404680E+00  0.19667162495E-01 0.  0.
         14    1    1    2    0    0  0.22637872761E-01  0.47717425204E-02 -0.14198985534E-03  0.23135750927E-01  0.00000000000E+00 0.  1.
     999901    1    3    3    0    0 -0.12705087360E-01  0.10261977360E+00  0.73168212978E-01  0.88907020227E+00  0.88000000000E+00 0.  1.
        -11    1    4    4    0    0 -0.98341385308E-02 -0.42817927264E-01 -0.38919160371E-01  0.58694525646E-01  0.51100000000E-03 0.  1.
         11    1    4    4    0    0 -0.98646870639E-04 -0.64573588860E-01 -0.34107062752E-01  0.73029521154E-01  0.51100000000E-03 0. -1.
</event>
<event>
 8    1  0.1109553E+005  0.1043930E+01  0.7957747E-01            NaN
         13   -1    0    0    0    0  0.00000000000E+00  0.00000000000E+00  0.74505805969E-08  0.10566000000E+00  0.10566000000E+00 0. -1.
     999900   -1    0    0    0    0 -0.00000000000E+00 -0.00000000000E+00 -0.74505805969E-08  0.93827000000E+00  0.93827000000E+00 0. -1.
     999902    2    1    2    0    0  0.22247753128E-01  0.12771167295E-01  0.84344550235E-02  0.10169261991E+01  0.10165676018E+01 0.  0.
     999903    2    3    3    0    0  0.27464816294E-01  0.11535082847E+00  0.49486881581E-01  0.13000167784E+00  0.19782695210E-01 0.  0.
         14    1    1    2    0    0 -0.22247753128E-01 -0.12771167295E-01 -0.84344550235E-02  0.27003800934E-01  0.00000000000E+00 0. -1.
     999901    1    3    3    0    0 -0.52170631655E-02 -0.10257966117E+00 -0.41052426557E-01  0.88692452123E+00  0.88000000000E+00 0. -1.
        -11    1    4    4    0    0  0.10188921161E-02  0.45357289835E-01  0.19771584022E-01  0.49492408893E-01  0.51100000000E-03 0.  1.
         11    1    4    4    0    0  0.26445924178E-01  0.69993538630E-01  0.29715297559E-01  0.80509268942E-01  0.51100000000E-03 0. -1.
</event>
<event>
 8    1  0.1109553E+005  0.1043930E+01  0.7957747E-01            NaN
         13   -1    0    0    0    0  0.00000000000E+00  0.00000000000E+00  0.74505805969E-08  0.10566000000E+00  0.10566000000E+00 0. -1.
     999900   -1    0    0    0    0 -0.00000000000E+00 -0.00000000000E+00 -0.74505805969E-08  0.93827000000E+00  0.93827000000E+00 0. -1.
     999902    2    1    2    0    0  0.19763811568E-01 -0.14745083988E-01 -0.84528094532E-02  0.10178632446E+01  0.10175294143E+01 0.  0.
     999903    2    3    3    0    0 -0.23980060858E-01  0.11983374873E+00  0.22849846896E-01  0.12600852275E+00  0.20514912859E-01 0.  0.
         14    1    1    2    0    0 -0.19763811568E-01  0.14745083988E-01  0.84528094532E-02  0.26066755401E-01  0.00000000000E+00 0. -1.
     999901    1    3    3    0    0  0.43743872425E-01 -0.13457883272E+00 -0.31302656349E-01  0.89185472185E+00  0.88000000000E+00 0. -1.
        -11    1    4    4    0    0 -0.63028225542E-02  0.70191916710E-01  0.62250439231E-02  0.70750569160E-01  0.51100000000E-03 0.  1.
         11    1    4    4    0    0 -0.17677238303E-01  0.49641832017E-01  0.16624802973E-01  0.55257953590E-01  0.51100000000E-03 0. -1.
</event>
<event>
 8    1  0.1109553E+005  0.1043930E+01  0.7957747E-01            NaN
         13   -1    0    0    0    0  0.00000000000E+00  0.00000000000E+00  0.74505805969E-08  0.10566000000E+00  0.10566000000E+00 0. -1.
     999900   -1    0    0    0    0 -0.00000000000E+00 -0.00000000000E+00 -0.74505805969E-08  0.93827000000E+00  0.93827000000E+00 0. -1.
     999902    2    1    2    0    0  0.18477142114E-01  0.13715368174E-01  0.42987693706E-02  0.10205206958E+01  0.10202521723E+01 0.  0.
     999903    2    3    3    0    0 -0.42887943102E-01 -0.21952739546E-02  0.12019320731E+00  0.13066096362E+00  0.27958638003E-01 0.  0.
         14    1    1    2    0    0 -0.18477142114E-01 -0.13715368174E-01 -0.42987693706E-02  0.23409304196E-01  0.00000000000E+00 0.  1.
     999901    1    3    3    0    0  0.61365085216E-01  0.15910642128E-01 -0.11589443794E+00  0.88985973218E+00  0.88000000000E+00 0. -1.
        -11    1    4    4    0    0 -0.41323106419E-01 -0.54349836519E-02  0.79126492203E-01  0.89433780311E-01  0.51100000000E-03 0. -1.
         11    1    4    4    0    0 -0.15648366835E-02  0.32397096973E-02  0.41066715109E-01  0.41227183309E-01  0.51100000000E-03 0.  1.
</event>
<event>
 8    1  0.1109553E+005  0.1043930E+01  0.7957747E-01            NaN
         13   -1    0    0    0    0  0.00000000000E+00  0.00000000000E+00  0.74505805969E-08  0.10566000000E+00  0.10566000000E+00 0.  1.
     999900   -1    0    0    0    0 -0.00000000000E+00 -0.00000000000E+00 -0.74505805969E-08  0.93827000000E+00  0.93827000000E+00 0. -1.
     999902    2    1    2    0    0  0.64400846262E-02 -0.22809575076E-01  0.40647388538E-02  0.10198826819E+01  0.10195991425E+01 0.  0.
     999903    2    3    3    0    0 -0.80713039095E-01  0.95877931340E-01 -0.11967908646E-01  0.12750415408E+00  0.20171912962E-01 0.  0.
         14    1    1    2    0    0 -0.64400846262E-02  0.22809575076E-01 -0.40647388538E-02  0.24047318085E-01  0.00000000000E+00 0. -1.
     999901    1    3    3    0    0  0.87153123721E-01 -0.11868750642E+00  0.16032647500E-01  0.89237852783E+00  0.88000000000E+00 0. -1.
        -11    1    4    4    0    0 -0.39098247628E-01  0.61160035170E-01 -0.99398802684E-02  0.73268582696E-01  0.51100000000E-03 0. -1.
         11    1    4    4    0    0 -0.41614791467E-01  0.34717896170E-01 -0.20280283779E-02  0.54235571385E-01  0.51100000000E-03 0.  1.
</event>
<event>
 8    1  0.1109553E+005  0.1043930E+01  0.7957747E-01            NaN
         13   -1    0    0    0    0  0.00000000000E+00  0.00000000000E+00  0.74505805969E-08  0.10566000000E+00  0.10566000000E+00 0. -1.
     999900   -1    0    0    0    0 -0.00000000000E+00 -0.00000000000E+00 -0.74505805969E-08  0.93827000000E+00  0.93827000000E+00 0.  1.
     999902    2    1    2    0    0  0.31597478614E-02 -0.10179042741E-01 -0.20558558447E-01  0.10207729008E+01  0.10205101978E+01 0.  0.
     999903    2    3    3    0    0  0.80653605506E-01  0.67742281774E-01  0.73344909803E-01  0.12897982383E+00  0.12739636612E-01 0.  0.
         14    1    1    2    0    0 -0.31597478614E-02  0.10179042741E-01  0.20558558447E-01  0.23157099195E-01  0.00000000000E+00 0. -1.
     999901    1    3    3    0    0 -0.77493857644E-01 -0.77921324515E-01 -0.93903468250E-01  0.89179307697E+00  0.88000000000E+00 0.  1.
        -11    1    4    4    0    0  0.24866380667E-01  0.27776928931E-01  0.29481787891E-01  0.47532426896E-01  0.51100000000E-03 0. -1.
         11    1    4    4    0    0  0.55787224838E-01  0.39965352842E-01  0.43863121912E-01  0.81447396937E-01  0.51100000000E-03 0.  1.
</event>
<event>
 8    1  0.1109553E+005  0.1043930E+01  0.7957747E-01            NaN
         13   -1    0    0    0    0  0.00000000000E+00  0.00000000000E+00  0.74505805969E-08  0.10566000000E+00  0.10566000000E+00 0. -1.
     999900   -1    0    0    0    0 -0.00000000000E+00 -0.00000000000E+00 -0.74505805969E-08  0.93827000000E+00  0.93827000000E+00 0. -1.
     999902    2    1    2    0    0 -0.20121074170E-01 -0.70886166229E-02  0.25187206603E-02  0.10224486112E+01  0.10222229270E+01 0.  0.
     999903    2    3    3    0    0 -0.98302680979E-01 -0.89929863921E-01  0.99645374936E-02  0.13507581688E+00  0.19884335183E-01 0.  0.
         14    1    1    2    0    0  0.20121074170E-01  0.70886166229E-02 -0.25187206603E-02  0.21481388808E-01  0.00000000000E+00 0.  1.
     999901    1    3    3    0    0  0.78181606809E-01  0.82841247298E-01 -0.74458168332E-02  0.88737279431E+00  0.88000000000E+00 0. -1.
        -11    1    4    4    0    0 -0.46787937516E-01 -0.34178368641E-01 -0.32030365961E-02  0.58032685139E-01  0.51100000000E-03 0. -1.
         11    1    4    4    0    0 -0.51514743463E-01 -0.55751495280E-01  0.13167574090E-01  0.77043131741E-01  0.51100000000E-03 0.  1.
</event>
<event>
 8    1  0.1109553E+005  0.1043930E+01  0.7957747E-01            NaN
         13   -1    0    0    0    0  0.00000000000E+00  0.00000000000E+00  0.74505805969E-08  0.10566000000E+00  0.10566000000E+00 0.  1.
     999900   -1    0    0    0    0 -0.00000000000E+00 -0.00000000000E+00 -0.74505805969E-08  0.93827000000E+00  0.93827000000E+00 0.  1.
     999902    2    1    2    0    0 -0.14860929032E-03  0.23313402889E-01 -0.19927262560E-02  0.10205311155E+01  0.10202628337E+01 0.  0.
     999903    2    3    3    0    0  0.60189440754E-01 -0.11140940150E+00  0.91405405021E-02  0.12816635601E+00  0.17556816680E-01 0.  0.
         14    1    1    2    0    0  0.14860929032E-03 -0.23313402889E-01  0.19927262560E-02  0.23398884523E-01  0.00000000000E+00 0. -1.
     999901    1    3    3    0    0 -0.60338050045E-01  0.13472280439E+00 -0.11133266758E-01  0.89236475946E+00  0.88000000000E+00 0. -1.
        -11    1    4    4    0    0  0.45653307491E-01 -0.87820555473E-01 -0.18075369623E-04  0.98979472095E-01  0.51100000000E-03 0. -1.
         11    1    4    4    0    0  0.14536133263E-01 -0.23588846027E-01  0.91586158718E-02  0.29186883917E-01  0.51100000000E-03 0.  1.
</event>
<event>
 8    1  0.1109553E+005  0.1043930E+01  0.7957747E-01            NaN
         13   -1    0    0    0    0  0.00000000000E+00  0.00000000000E+00  0.74505805969E-08  0.10566000000E+00  0.10566000000E+00 0. -1.
     999900   -1    0    0    0    0 -0.00000000000E+00 -0.00000000000E+00 -0.74505805969E-08  0.93827000000E+00  0.93827000000E+00 0. -1.
     999902    2    1    2    0    0 -0.93674294933E-02 -0.25764195631E-02 -0.21094252288E-01  0.10207060005E+01  0.10204417599E+01 0.  0.
     999903    2    3    3    0    0  0.62590480453E-01 -0.92588351631E-01  0.62108921572E-01  0.12930101013E+00  0.19262969164E-01 0.  0.
         14    1    1    2    0    0  0.93674294933E-02  0.25764195631E-02  0.21094252288E-01  0.23223999498E-01  0.00000000000E+00 0. -1.
     999901    1    3    3    0    0 -0.71957909947E-01  0.90011932068E-01 -0.83203173860E-01  0.89140499037E+00  0.88000000000E+00 0. -1.
        -11    1    4    4    0    0  0.50822648155E-01 -0.82694732416E-01  0.47410222898E-01  0.10802476888E+00  0.51100000000E-03 0.  1.
         11    1    4    4    0    0  0.11767832298E-01 -0.98936192150E-02  0.14698698674E-01  0.21276241254E-01  0.51100000000E-03 0. -1.
</event>
<event>
 8    1  0.1109553E+005  0.1043930E+01  0.7957747E-01            NaN
         13   -1    0    0    0    0  0.00000000000E+00  0.00000000000E+00  0.74505805969E-08  0.10566000000E+00  0.10566000000E+00 0.  1.
     999900   -1    0    0    0    0 -0.00000000000E+00 -0.00000000000E+00 -0.74505805969E-08  0.93827000000E+00  0.93827000000E+00 0. -1.
     999902    2    1    2    0    0 -0.10664691064E-02 -0.12296333316E-01  0.22153223202E-01  0.10185705350E+01  0.10182547973E+01 0.  0.
     999903    2    3    3    0    0  0.10897444368E+00  0.40200807672E-01 -0.48294200301E-01  0.12737594802E+00  0.20019191770E-01 0.  0.
         14    1    1    2    0    0  0.10664691064E-02  0.12296333316E-01 -0.22153223202E-01  0.25359465050E-01  0.00000000000E+00 0. -1.
     999901    1    3    3    0    0 -0.11004091278E+00 -0.52497140988E-01  0.70447423503E-01  0.89119458693E+00  0.88000000000E+00 0.  1.
        -11    1    4    4    0    0  0.88718886318E-01  0.38334959365E-01 -0.33777346749E-01  0.10238056541E+00  0.51100000000E-03 0. -1.
         11    1    4    4    0    0  0.20255557357E-01  0.18658483067E-02 -0.14516853552E-01  0.24995382609E-01  0.51100000000E-03 0.  1.
</event>
<event>
 8    1  0.1109553E+005  0.1043930E+01  0.7957747E-01            NaN
         13   -1    0    0    0    0  0.00000000000E+00  0.00000000000E+00  0.74505805969E-08  0.10566000000E+00  0.10566000000E+00 0.  1.
     999900   -1    0    0    0    0 -0.00000000000E+00 -0.00000000000E+00 -0.74505805969E-08  0.93827000000E+00  0.93827000000E+00 0.  1.
     999902    2    1    2    0    0 -0.14937002654E-01  0.82126567774E-02 -0.18667317499E-01  0.10186509470E+01  0.10183372336E+01 0.  0.
     999903    2    3    3    0    0 -0.11362895691E+00 -0.71530180355E-02 -0.63336167815E-01  0.13187503842E+00  0.20416906922E-01 0.  0.
         14    1    1    2    0    0  0.14937002654E-01 -0.82126567774E-02  0.18667317499E-01  0.25279053033E-01  0.00000000000E+00 0.  1.
     999901    1    3    3    0    0  0.98691954257E-01  0.15365674813E-01  0.44668850316E-01  0.88677590855E+00  0.88000000000E+00 0. -1.
        -11    1    4    4    0    0 -0.87305350664E-01 -0.33489590349E-02 -0.38486125159E-01  0.95471894985E-01  0.51100000000E-03 0. -1.
         11    1    4    4    0    0 -0.26323606246E-01 -0.38040590006E-02 -0.24850042657E-01  0.36403143432E-01  0.51100000000E-03 0.  1.
</event>
<event>
 8    1  0.1109553E+005  0.1043930E+01  0.7957747E-01            NaN
         13   -1    0    0    0    0  0.00000000000E+00  0.00000000000E+00  0.74505805969E-08  0.10566000000E+00  0.10566000000E+00 0. -1.
     999900   -1    0    0    0    0 -0.00000000000E+00 -0.00000000000E+00 -0.74505805969E-08  0.93827000000E+00  0.93827000000E+00 0.  1.
     999902    2    1    2    0    0 -0.29036147778E-02  0.18130899859E-01 -0.14805406936E-01  0.10203427029E+01  0.10200700323E+01 0.  0.
     999903    2    3    3    0    0 -0.98081626047E-01  0.95364998952E-02 -0.85927432376E-01  0.13231620556E+00  0.20324970344E-01 0.  0.
         14    1    1    2    0    0  0.29036147778E-02 -0.18130899859E-01  0.14805406936E-01  0.23587297069E-01  0.00000000000E+00 0. -1.
     999901    1    3    3    0    0  0.95178011269E-01  0.85943999633E-02  0.71122025440E-01  0.88802649738E+00  0.88000000000E+00 0. -1.
        -11    1    4    4    0    0 -0.53967688998E-01  0.14832745966E-01 -0.43601420941E-01  0.70949748680E-01  0.51100000000E-03 0.  1.
         11    1    4    4    0    0 -0.44113937049E-01 -0.52962460710E-02 -0.42326011435E-01  0.61366456875E-01  0.51100000000E-03 0. -1.
</event>
<event>
 8    1  0.1109553E+005  0.1043930E+01  0.7957747E-01            NaN
         13   -1    0    0    0    0  0.00000000000E+00  0.00000000000E+00  0.74505805969E-08  0.10566000000E+00  0.10566000000E+00 0.  1.
     999900   -1    0    0    0    0 -0.00000000000E+00 -0.00000000000E+00 -0.74505805969E-08  0.93827000000E+00  0.93827000000E+00 0. -1.
     999902    2    1    2    0    0 -0.96068730007E-02  0.17293209751E-01  0.11021671692E-01  0.10212843744E+01  0.10210332752E+01 0.  0.
     999903    2    3    3    0    0  0.78725647108E-01  0.49193321615E-01 -0.89003368333E-01  0.13065243028E+00  0.23037959074E-01 0.  0.
         14    1    1    2    0    0  0.96068730007E-02 -0.17293209751E-01 -0.11021671692E-01  0.22645625609E-01  0.00000000000E+00 0.  1.
     999901    1    3    3    0    0 -0.88332520109E-01 -0.31900111864E-01  0.10002504003E+00  0.89063194411E+00  0.88000000000E+00 0.  1.
        -11    1    4    4    0    0  0.37694168007E-01  0.10442738998E-01 -0.39243575591E-01  0.55409569983E-01  0.51100000000E-03 0. -1.
         11    1    4    4    0    0  0.41031479101E-01  0.38750582616E-01 -0.49759792742E-01  0.75242860293E-01  0.51100000000E-03 0.  1.
</event>
<event>
 8    1  0.1109553E+005  0.1043930E+01  0.7957747E-01            NaN
         13   -1    0    0    0    0  0.00000000000E+00  0.00000000000E+00  0.74505805969E-08  0.10566000000E+00  0.10566000000E+00 0. -1.
     999900   -1    0    0    0    0 -0.00000000000E+00 -0.00000000000E+00 -0.74505805969E-08  0.93827000000E+00  0.93827000000E+00 0. -1.
     999902    2    1    2    0    0 -0.21150407664E-01  0.75207583715E-02  0.16473533231E-01  0.10160861704E+01  0.10157045962E+01 0.  0.
     999903    2    3    3    0    0 -0.89169657286E-01 -0.89270228017E-01  0.69143738930E-02  0.12811855222E+00  0.21122345208E-01 0.  0.
         14    1    1    2    0    0  0.21150407664E-01 -0.75207583715E-02 -0.16473533231E-01  0.27843829621E-01  0.00000000000E+00 0. -1.
     999901    1    3    3    0    0  0.68019249622E-01  0.96790986388E-01  0.95591593381E-02  0.88796761816E+00  0.88000000000E+00 0.  1.
        -11    1    4    4    0    0 -0.75559578245E-01 -0.74618552386E-01  0.13518859479E-01  0.10705231855E+00  0.51100000000E-03 0.  1.
         11    1    4    4    0    0 -0.13610079041E-01 -0.14651675630E-01 -0.66044855859E-02  0.21066233672E-01  0.51100000000E-03 0. -1.
</event>
<event>
 8    1  0.1109553E+005  0.1043930E+01  0.7957747E-01            NaN
         13   -1    0    0    0    0  0.00000000000E+00  0.00000000000E+00  0.74505805969E-08  0.10566000000E+00  0.10566000000E+00 0. -1.
     999900   -1    0    0    0    0 -0.00000000000E+00 -0.00000000000E+00 -0.74505805969E-08  0.93827000000E+00  0.93827000000E+00 0. -1.
     999902    2    1    2    0    0  0.11950568947E-01  0.22089328681E-01 -0.35102050621E-02  0.10185710552E+01  0.10182553307E+01 0.  0.
     999903    2    3    3    0    0  0.10973570876E+00  0.17209022633E-01 -0.66425958535E-01  0.13090887683E+00  0.19663413447E-01 0.  0.
         14    1    1    2    0    0 -0.11950568947E-01 -0.22089328681E-01  0.35102050621E-02  0.25358944759E-01  0.00000000000E+00 0. -1.
     999901    1    3    3    0    0 -0.97785139808E-01  0.48803060479E-02  0.62915753473E-01  0.88766217842E+00  0.88000000000E+00 0.  1.
        -11    1    4    4    0    0  0.77383520779E-01  0.29646428091E-02 -0.44834991554E-01  0.89484277858E-01  0.51100000000E-03 0.  1.
         11    1    4    4    0    0  0.32352187976E-01  0.14244379824E-01 -0.21590966981E-01  0.41424598967E-01  0.51100000000E-03 0. -1.
</event>
<event>
 8    1  0.1109553E+005  0.1043930E+01  0.7957747E-01            NaN
         13   -1    0    0    0    0  0.00000000000E+00  0.00000000000E+00  0.74505805969E-08  0.10566000000E+00  0.10566000000E+00 0.  1.
     999900   -1    0    0    0    0 -0.00000000000E+00 -0.00000000000E+00 -0.74505805969E-08  0.93827000000E+00  0.93827000000E+00 0. -1.
     999902    2    1    2    0    0  0.77500331826E-02 -0.14378678847E-01  0.26305230323E-02  0.10273852404E+01  0.10272520154E+01 0.  0.
     999903    2    3    3    0    0 -0.12473535120E+00 -0.30220393252E-01  0.41957163644E-01  0.13645880028E+00  0.19708388712E-01 0.  0.
         14    1    1    2    0    0 -0.77500331826E-02  0.14378678847E-01 -0.26305230323E-02  0.16544759628E-01  0.00000000000E+00 0. -1.
     999901    1    3    3    0    0  0.13248538438E+00  0.15841714404E-01 -0.39326640612E-01  0.89092644009E+00  0.88000000000E+00 0.  1.
        -11    1    4    4    0    0 -0.55432080099E-01 -0.41471290622E-02  0.14147134422E-01  0.57361282386E-01  0.51100000000E-03 0. -1.
         11    1    4    4    0    0 -0.69303271102E-01 -0.26073264189E-01  0.27810029223E-01  0.79097517896E-01  0.51100000000E-03 0.  1.
</event>
<event>
 8    1  0.1862269E+005  0.1043930E+01  0.7957747E-01            NaN
         13   -1    0    0    0    0  0.00000000000E+00  0.00000000000E+00  0.74505805969E-08  0.10566000000E+00  0.10566000000E+00 0. -1.
     999900   -1    0    0    0    0 -0.00000000000E+00 -0.00000000000E+00 -0.74505805969E-08  0.93827000000E+00  0.93827000000E+00 0. -1.
     999902    2    1    2    0    0 -0.10934809216E-01  0.30620811203E-02  0.21270751174E-01  0.10198179439E+01  0.10195328575E+01 0.  0.
     999903    2    3    3    0    0 -0.60408700882E-02  0.10372280544E-01 -0.12542631163E+00  0.12763107005E+00  0.20343403801E-01 0.  0.
         14    1    1    2    0    0  0.10934809216E-01 -0.30620811203E-02 -0.21270751174E-01  0.24112056090E-01  0.00000000000E+00 0.  1.
     999901    1    3    3    0    0 -0.48939391276E-02 -0.73101994235E-02  0.14669706280E+00  0.89218687386E+00  0.88000000000E+00 0.  1.
        -11    1    4    4    0    0  0.70308860687E-02  0.66766833054E-02 -0.62823564414E-01  0.63569433107E-01  0.51100000000E-03 0.  1.
         11    1    4    4    0    0 -0.13071756157E-01  0.36955972383E-02 -0.62602747213E-01  0.64061636941E-01  0.51100000000E-03 0. -1.
</event>
<event>
 8    1  0.1109553E+005  0.1043930E+01  0.7957747E-01            NaN
         13   -1    0    0    0    0  0.00000000000E+00  0.00000000000E+00  0.74505805969E-08  0.10566000000E+00  0.10566000000E+00 0.  1.
     999900   -1    0    0    0    0 -0.00000000000E+00 -0.00000000000E+00 -0.74505805969E-08  0.93827000000E+00  0.93827000000E+00 0. -1.
     999902    2    1    2    0    0  0.82478910314E-03 -0.20559663495E-01  0.12319508461E-01  0.10199477080E+01  0.10196657181E+01 0.  0.
     999903    2    3    3    0    0  0.28166516324E-01 -0.12543441957E+00  0.29927629375E-01  0.13312397670E+00  0.17296933716E-01 0.  0.
         14    1    1    2    0    0 -0.82478910314E-03  0.20559663495E-01 -0.12319508461E-01  0.23982291984E-01  0.00000000000E+00 0. -1.
     999901    1    3    3    0    0 -0.27341727220E-01  0.10487475608E+00 -0.17608120915E-01  0.88682373132E+00  0.88000000000E+00 0. -1.
        -11    1    4    4    0    0  0.84213926544E-02 -0.31472633339E-01  0.15313065433E-01  0.36002744305E-01  0.51100000000E-03 0. -1.
         11    1    4    4    0    0  0.19745123669E-01 -0.93961786234E-01  0.14614563943E-01  0.97121232392E-01  0.51100000000E-03 0.  1.
</event>
<event>
 8    1  0.1109553E+005  0.1043930E+01  0.7957747E-01            NaN
         13   -1    0    0    0    0  0.00000000000E+00  0.00000000000E+00  0.74505805969E-08  0.10566000000E+00  0.10566000000E+00 0. -1.
     999900   -1    0    0    0    0 -0.00000000000E+00 -0.00000000000E+00 -0.74505805969E-08  0.93827000000E+00  0.93827000000E+00 0. -1.
     999902    2    1    2    0    0  0.26507622540E-01  0.13513527637E-01 -0.90622275506E-02  0.10128270508E+01  0.10123493672E+01 0.  0.
     999903    2    3    3    0    0  0.71904555555E-01 -0.24584752442E-01  0.96590046509E-01  0.12452824774E+00  0.20074168429E-01 0.  0.
         14    1    1    2    0    0 -0.26507622540E-01 -0.13513527637E-01  0.90622275506E-02  0.31102949218E-01  0.00000000000E+00 0. -1.
     999901    1    3    3    0    0 -0.45396933015E-01  0.38098280079E-01 -0.10565227406E+00  0.88829880304E+00  0.88000000000E+00 0. -1.
        -11    1    4    4    0    0  0.48933094445E-01 -0.88837929558E-02  0.51915155927E-01  0.71894464635E-01  0.51100000000E-03 0. -1.
         11    1    4    4    0    0  0.22971461110E-01 -0.15700959487E-01  0.44674890582E-01  0.52633783104E-01  0.51100000000E-03 0.  1.
</event>
<event>
 8    1  0.1109553E+005  0.1043930E+01  0.7957747E-01            NaN
         13   -1    0    0    0    0  0.00000000000E+00  0.00000000000E+00  0.74505805969E-08  0.10566000000E+00  0.10566000000E+00 0. -1.
     999900   -1    0    0    0    0 -0.00000000000E+00 -0.00000000000E+00 -0.74505805969E-08  0.93827000000E+00  0.93827000000E+00 0.  1.
     999902    2    1    2    0    0 -0.13324853386E-01 -0.16623928497E-01  0.97935294805E-02  0.10204817605E+01  0.10202123326E+01 0.  0.
     999903    2    3    3    0    0  0.74408523802E-01 -0.96646384179E-01  0.45797929345E-01  0.13177649118E+00  0.19759587713E-01 0.  0.
         14    1    1    2    0    0  0.13324853386E-01  0.16623928497E-01 -0.97935294805E-02  0.23448239510E-01  0.00000000000E+00 0.  1.
     999901    1    3    3    0    0 -0.87733377188E-01  0.80022455683E-01 -0.36004399864E-01  0.88870526931E+00  0.88000000000E+00 0. -1.
        -11    1    4    4    0    0  0.31221842442E-01 -0.53098985025E-01  0.16307781210E-01  0.63722135127E-01  0.51100000000E-03 0. -1.
         11    1    4    4    0    0  0.43186681361E-01 -0.43547399154E-01  0.29490148135E-01  0.68054356055E-01  0.51100000000E-03 0.  1.
</event>
<event>
 8    1  0.1109553E+005  0.1043930E+01  0.7957747E-01            NaN
         13   -1    0    0    0    0  0.00000000000E+00  0.00000000000E+00  0.74505805969E-08  0.10566000000E+00  0.10566000000E+00 0.  1.
     999900   -1    0    0    0    0 -0.00000000000E+00 -0.00000000000E+00 -0.74505805969E-08  0.93827000000E+00  0.93827000000E+00 0.  1.
     999902    2    1    2    0    0 -0.58327879814E-02 -0.21815512938E-01  0.35640404594E-02  0.10210686701E+01  0.10208127099E+01 0.  0.
     999903    2    3    3    0    0  0.52912799023E-01 -0.92187733735E-01  0.77713370776E-01  0.13320527034E+00  0.20147791358E-01 0.  0.
         14    1    1    2    0    0  0.58327879814E-02  0.21815512938E-01 -0.35640404594E-02  0.22861329900E-01  0.00000000000E+00 0. -1.
     999901    1    3    3    0    0 -0.58745587004E-01  0.70372220797E-01 -0.74149330316E-01  0.88786339976E+00  0.88000000000E+00 0.  1.
        -11    1    4    4    0    0  0.17209865573E-01 -0.36936381164E-01  0.18732500840E-01  0.44851348199E-01  0.51100000000E-03 0.  1.
         11    1    4    4    0    0  0.35702933450E-01 -0.55251352571E-01  0.58980869935E-01  0.88353922138E-01  0.51100000000E-03 0. -1.
</event>
<event>
 8    1  0.1109553E+005  0.1043930E+01  0.7957747E-01            NaN
         13   -1    0    0    0    0  0.00000000000E+00  0.00000000000E+00  0.74505805969E-08  0.10566000000E+00  0.10566000000E+00 0.  1.
     999900   -1    0    0    0    0 -0.00000000000E+00 -0.00000000000E+00 -0.74505805969E-08  0.93827000000E+00  0.93827000000E+00 0. -1.
     999902    2    1    2    0    0 -0.26691315900E-02 -0.21668702001E-01  0.99125742020E-02  0.10199525932E+01  0.10196707196E+01 0.  0.
     999903    2    3    3    0    0 -0.91244691615E-01  0.99375630948E-02  0.91185468106E-01  0.13121761070E+00  0.21884306146E-01 0.  0.
         14    1    1    2    0    0  0.26691315900E-02  0.21668702001E-01 -0.99125742020E-02  0.23977406807E-01  0.00000000000E+00 0.  1.
     999901    1    3    3    0    0  0.88575560025E-01 -0.31606265096E-01 -0.81272893904E-01  0.88873498250E+00  0.88000000000E+00 0. -1.
        -11    1    4    4    0    0 -0.75381974097E-01  0.62227680165E-02  0.62059007755E-01  0.97840413047E-01  0.51100000000E-03 0. -1.
         11    1    4    4    0    0 -0.15862717518E-01  0.37147950783E-02  0.29126460350E-01  0.33377197651E-01  0.51100000000E-03 0.  1.
</event>
<event>
 8    1  0.1109553E+005  0.1043930E+01  0.7957747E-01            NaN
         13   -1    0    0    0    0  0.00000000000E+00  0.00000000000E+00  0.74505805969E-08  0.10566000000E+00  0.10566000000E+00 0.  1.
     999900   -1    0    0    0    0 -0.00000000000E+00 -0.00000000000E+00 -0.74505805969E-08  0.93827000000E+00  0.93827000000E+00 0.  1.
     999902    2    1    2    0    0  0.15793263574E-01  0.12868635855E-01  0.12132235734E-01  0.10202188189E+01  0.10199432427E+01 0.  0.
     999903    2    3    3    0    0  0.13937308691E-01 -0.99884634836E-01  0.80553462940E-01  0.13038838063E+00  0.18468366519E-01 0.  0.
         14    1    1    2    0    0 -0.15793263574E-01 -0.12868635855E-01 -0.12132235734E-01  0.23711181055E-01  0.00000000000E+00 0.  1.
     999901    1    3    3    0    0  0.18559548829E-02  0.11275327069E+00 -0.68421227205E-01  0.88983043832E+00  0.88000000000E+00 0. -1.
        -11    1    4    4    0    0  0.26838598730E-02 -0.16343219002E-01  0.53257372564E-02  0.17404841553E-01  0.51100000000E-03 0.  1.
         11    1    4    4    0    0  0.11253448818E-01 -0.83541415833E-01  0.75227725683E-01  0.11298353908E+00  0.51100000000E-03 0. -1.
</event>
<event>
 8    1  0.1109553E+005  0.1043930E+01  0.7957747E-01            NaN
         13   -1    0    0    0    0  0.00000000000E+00  0.00000000000E+00  0.74505805969E-08  0.10566000000E+00  0.10566000000E+00 0.  1.
     999900   -1    0    0    0    0 -0.00000000000E+00 -0.00000000000E+00 -0.74505805969E-08  0.93827000000E+00  0.93827000000E+00 0. -1.
     999902    2    1    2    0    0  0.16045736728E-01  0.17627843043E-01  0.64071083743E-02  0.10192468569E+01  0.10189479367E+01 0.  0.
     999903    2    3    3    0    0  0.84144747884E-01 -0.31042304759E-01  0.93334647494E-01  0.13101115860E+00  0.20213954922E-01 0.  0.
         14    1    1    2    0    0 -0.16045736728E-01 -0.17627843043E-01 -0.64071083743E-02  0.24683143139E-01  0.00000000000E+00 0.  1.
     999901    1    3    3    0    0 -0.68099011156E-01  0.48670147802E-01 -0.86927539120E-01  0.88823569826E+00  0.88000000000E+00 0. -1.
        -11    1    4    4    0    0  0.16618271543E-01  0.49984437902E-03  0.24107244194E-01  0.29288856876E-01  0.51100000000E-03 0. -1.
         11    1    4    4    0    0  0.67526476341E-01 -0.31542149138E-01  0.69227403300E-01  0.10172230172E+00  0.51100000000E-03 0.  1.
</event>
<event>
 8    1  0.1109553E+005  0.1043930E+01  0.7957747E-01            NaN
         13   -1    0    0    0    0  0.00000000000E+00  0.00000000000E+00  0.74505805969E-08  0.10566000000E+00  0.10566000000E+00 0.  1.
     999900   -1    0    0    0    0 -0.00000000000E+00 -0.00000000000E+00 -0.74505805969E-08  0.93827000000E+00  0.93827000000E+00 0.  1.
     999902    2    1    2    0    0  0.20496207406E-02 -0.10319526395E-01 -0.42036742751E-02  0.10326001965E+01  0.10325380387E+01 0.  0.
     999903    2    3    3    0    0  0.11062143221E-01  0.98899007389E-01  0.96487640304E-01  0.14010445167E+00  0.20396273482E-01 0.  0.
         14    1    1    2    0    0 -0.20496207406E-02  0.10319526395E-01  0.42036742751E-02  0.11329803511E-01  0.00000000000E+00 0.  1.
     999901    1    3    3    0    0 -0.90125224807E-02 -0.10921853378E+00 -0.10069131458E+00  0.89249574482E+00  0.88000000000E+00 0.  1.
        -11    1    4    4    0    0 -0.17478562153E-02  0.55101722905E-01  0.61548369858E-01  0.82630005577E-01  0.51100000000E-03 0. -1.
         11    1    4    4    0    0  0.12809999437E-01  0.43797284484E-01  0.34939270445E-01  0.57474446096E-01  0.51100000000E-03 0.  1.
</event>
<event>
 8    1  0.1109553E+005  0.1043930E+01  0.7957747E-01            NaN
         13   -1    0    0    0    0  0.00000000000E+00  0.00000000000E+00  0.74505805969E-08  0.10566000000E+00  0.10566000000E+00 0.  1.
     999900   -1    0    0    0    0 -0.00000000000E+00 -0.00000000000E+00 -0.74505805969E-08  0.93827000000E+00  0.93827000000E+00 0.  1.
     999902    2    1    2    0    0  0.23428358161E-01 -0.36067932186E-03  0.49275562640E-02  0.10199863397E+01  0.10197052684E+01 0.  0.
     999903    2    3    3    0    0 -0.21657350111E-01 -0.12040761550E+00  0.39248476838E-01  0.13003020961E+00  0.20009442621E-01 0.  0.
         14    1    1    2    0    0 -0.23428358161E-01  0.36067932186E-03 -0.49275562640E-02  0.23943660255E-01  0.00000000000E+00 0. -1.
     999901    1    3    3    0    0  0.45085708271E-01  0.12004693617E+00 -0.34320920574E-01  0.88995613013E+00  0.88000000000E+00 0. -1.
        -11    1    4    4    0    0 -0.13105305346E-02 -0.23951020933E-01  0.18755063743E-03  0.23993023783E-01  0.51100000000E-03 0. -1.
         11    1    4    4    0    0 -0.20346819576E-01 -0.96456594563E-01  0.39060926200E-01  0.10603718583E+00  0.51100000000E-03 0.  1.
</event>
<event>
 8    1  0.1109553E+005  0.1043930E+01  0.7957747E-01            NaN
         13   -1    0    0    0    0  0.00000000000E+00  0.00000000000E+00  0.74505805969E-08  0.10566000000E+00  0.10566000000E+00 0. -1.
     999900   -1    0    0    0    0 -0.00000000000E+00 -0.00000000000E+00 -0.74505805969E-08  0.93827000000E+00  0.93827000000E+00 0. -1.
     999902    2    1    2    0    0  0.73807956805E-02  0.22995803597E-01  0.99965952542E-02  0.10177916174E+01  0.10174559260E+01 0.  0.
     999903    2    3    3    0    0 -0.93646080500E-01 -0.21880866499E-01  0.82108248857E-01  0.12794868980E+00  0.19512610764E-01 0.  0.
         14    1    1    2    0    0 -0.73807956805E-02 -0.22995803597E-01 -0.99965952542E-02  0.26138382594E-01  0.00000000000E+00 0.  1.
     999901    1    3    3    0    0  0.10102687618E+00  0.44876670096E-01 -0.72111653603E-01  0.88984292761E+00  0.88000000000E+00 0. -1.
        -11    1    4    4    0    0 -0.56826576208E-02 -0.58953070092E-02  0.10947591103E-01  0.13680574342E-01  0.51100000000E-03 0. -1.
         11    1    4    4    0    0 -0.87963422879E-01 -0.15985559490E-01  0.71160657754E-01  0.11426811546E+00  0.51100000000E-03 0.  1.
</event>
<event>
 8    1  0.1109553E+005  0.1043930E+01  0.7957747E-01            NaN
         13   -1    0    0    0    0  0.00000000000E+00  0.00000000000E+00  0.74505805969E-08  0.10566000000E+00  0.10566000000E+00 0. -1.
     999900   -1    0    0    0    0 -0.00000000000E+00 -0.00000000000E+00 -0.74505805969E-08  0.93827000000E+00  0.93827000000E+00 0. -1.
     999902    2    1    2    0    0  0.19348121120E-01 -0.12447508530E-01 -0.50078282304E-02  0.10203849665E+01  0.10201132835E+01 0.  0.
     999903    2    3    3    0    0  0.36261947768E-02  0.44440348427E-01 -0.12153301251E+00  0.13074373217E+00  0.18318201736E-01 0.  0.
         14    1    1    2    0    0 -0.19348121120E-01  0.12447508530E-01  0.50078282304E-02  0.23545033512E-01  0.00000000000E+00 0.  1.
     999901    1    3    3    0    0  0.15721926343E-01 -0.56887856958E-01  0.11652518428E+00  0.88964123432E+00  0.88000000000E+00 0.  1.
        -11    1    4    4    0    0 -0.38743382329E-02  0.11085685122E-01 -0.16304698798E-01  0.20099931226E-01  0.51100000000E-03 0. -1.
         11    1    4    4    0    0  0.75005330097E-02  0.33354663305E-01 -0.10522831371E+00  0.11064380094E+00  0.51100000000E-03 0.  1.
</event>
<event>
 8    1  0.1109553E+005  0.1043930E+01  0.7957747E-01            NaN
         13   -1    0    0    0    0  0.00000000000E+00  0.00000000000E+00  0.74505805969E-08  0.10566000000E+00  0.10566000000E+00 0.  1.
     999900   -1    0    0    0    0 -0.00000000000E+00 -0.00000000000E+00 -0.74505805969E-08  0.93827000000E+00  0.93827000000E+00 0. -1.
     999902    2    1    2    0    0  0.98213101389E-02 -0.11412024325E-01 -0.18216555781E-01  0.10202966478E+01  0.10200228988E+01 0.  0.
     999903    2    3    3    0    0 -0.86167260972E-01  0.38356214643E-01 -0.88264400984E-01  0.13091631070E+00  0.21271573995E-01 0.  0.
         14    1    1    2    0    0 -0.98213101389E-02  0.11412024325E-01  0.18216555781E-01  0.23633352208E-01  0.00000000000E+00 0.  1.
     999901    1    3    3    0    0  0.95988571110E-01 -0.49768238969E-01  0.70047845203E-01  0.88938033710E+00  0.88000000000E+00 0. -1.
        -11    1    4    4    0    0 -0.60303412295E-01  0.19137322529E-01 -0.48424483151E-01  0.79673899977E-01  0.51100000000E-03 0.  1.
         11    1    4    4    0    0 -0.25863848676E-01  0.19218892115E-01 -0.39839917833E-01  0.51242410720E-01  0.51100000000E-03 0. -1.
</event>
<event>
 8    1  0.1109553E+005  0.1043930E+01  0.7957747E-01            NaN
         13   -1    0    0    0    0  0.00000000000E+00  0.00000000000E+00  0.74505805969E-08  0.10566000000E+00  0.10566000000E+00 0.  1.
     999900   -1    0    0    0    0 -0.00000000000E+00 -0.00000000000E+00 -0.74505805969E-08  0.93827000000E+00  0.93827000000E+00 0. -1.
     999902    2    1    2    0    0  0.12055965300E-01  0.16975066593E-01  0.14344548607E-01  0.10186463045E+01  0.10183324744E+01 0.  0.
     999903    2    3    3    0    0  0.10601586990E+00 -0.69343797388E-01 -0.13679128283E-01  0.12900326570E+00  0.20169211828E-01 0.  0.
         14    1    1    2    0    0 -0.12055965300E-01 -0.16975066593E-01 -0.14344548607E-01  0.25283695534E-01  0.00000000000E+00 0. -1.
     999901    1    3    3    0    0 -0.93959904596E-01  0.86318863981E-01  0.28023676890E-01  0.88964303876E+00  0.88000000000E+00 0.  1.
        -11    1    4    4    0    0  0.55687047607E-01 -0.30207321255E-01 -0.15490883089E-01  0.65220841059E-01  0.51100000000E-03 0. -1.
         11    1    4    4    0    0  0.50328822289E-01 -0.39136476133E-01  0.18117548064E-02  0.63782424645E-01  0.51100000000E-03 0.  1.
</event>
<event>
 8    1  0.1109553E+005  0.1043930E+01  0.7957747E-01            NaN
         13   -1    0    0    0    0  0.00000000000E+00  0.00000000000E+00  0.74505805969E-08  0.10566000000E+00  0.10566000000E+00 0. -1.
     999900   -1    0    0    0    0 -0.00000000000E+00 -0.00000000000E+00 -0.74505805969E-08  0.93827000000E+00  0.93827000000E+00 0.  1.
     999902    2    1    2    0    0 -0.65989626792E-02  0.21512617424E-01 -0.51851941659E-02  0.10208383293E+01  0.10205771256E+01 0.  0.
     999903    2    3    3    0    0 -0.11241197573E+00  0.44593556341E-01  0.49840024357E-01  0.13249329603E+00  0.21104689310E-01 0.  0.
         14    1    1    2    0    0  0.65989626792E-02 -0.21512617424E-01  0.51851941659E-02  0.23091670693E-01  0.00000000000E+00 0.  1.
     999901    1    3    3    0    0  0.10581301305E+00 -0.23080938917E-01 -0.55025218522E-01  0.88834503328E+00  0.88000000000E+00 0.  1.
        -11    1    4    4    0    0 -0.54436830089E-01  0.19406053013E-01  0.12685806589E-01  0.59170551573E-01  0.51100000000E-03 0.  1.
         11    1    4    4    0    0 -0.57975145640E-01  0.25187503329E-01  0.37154217768E-01  0.73322744458E-01  0.51100000000E-03 0. -1.
</event>
<event>
 8    1  0.1109553E+005  0.1043930E+01  0.7957747E-01            NaN
         13   -1    0    0    0    0  0.00000000000E+00  0.00000000000E+00  0.74505805969E-08  0.10566000000E+00  0.10566000000E+00 0. -1.
     999900   -1    0    0    0    0 -0.00000000000E+00 -0.00000000000E+00 -0.74505805969E-08  0.93827000000E+00  0.93827000000E+00 0.  1.
     999902    2    1    2    0    0  0.34943238062E-03  0.17694418553E-01  0.16660159344E-01  0.10196241270E+01  0.10193343833E+01 0.  0.
     999903    2    3    3    0    0  0.57616715047E-01  0.61958754267E-01  0.10105606271E+00  0.13262833134E+00  0.14811258592E-01 0.  0.
         14    1    1    2    0    0 -0.34943238062E-03 -0.17694418553E-01 -0.16660159344E-01  0.24305872959E-01  0.00000000000E+00 0. -1.
     999901    1    3    3    0    0 -0.57267282666E-01 -0.44264335714E-01 -0.84395903368E-01  0.88699579570E+00  0.88000000000E+00 0.  1.
        -11    1    4    4    0    0  0.22759382199E-01  0.15142136257E-01  0.36354907707E-01  0.45488616202E-01  0.51100000000E-03 0. -1.
         11    1    4    4    0    0  0.34857332848E-01  0.46816618010E-01  0.64701155004E-01  0.87139715142E-01  0.51100000000E-03 0.  1.
</event>
<event>
 8    1  0.1109553E+005  0.1043930E+01  0.7957747E-01            NaN
         13   -1    0    0    0    0  0.00000000000E+00  0.00000000000E+00  0.74505805969E-08  0.10566000000E+00  0.10566000000E+00 0. -1.
     999900   -1    0    0    0    0 -0.00000000000E+00 -0.00000000000E+00 -0.74505805969E-08  0.93827000000E+00  0.93827000000E+00 0.  1.
     999902    2    1    2    0    0 -0.21558759125E-02 -0.21799320635E-01  0.60193014671E-02  0.10212123819E+01  0.10209596656E+01 0.  0.
     999903    2    3    3    0    0  0.13147867481E-02  0.53301635235E-01  0.11794716675E+00  0.13094273395E+00  0.19790716162E-01 0.  0.
         14    1    1    2    0    0  0.21558759125E-02  0.21799320635E-01 -0.60193014671E-02  0.22717618081E-01  0.00000000000E+00 0.  1.
     999901    1    3    3    0    0 -0.34706626606E-02 -0.75100955870E-01 -0.11192786528E+00  0.89026964797E+00  0.88000000000E+00 0.  1.
        -11    1    4    4    0    0  0.63597299041E-02  0.20470339275E-01  0.64916813812E-01  0.68366181633E-01  0.51100000000E-03 0.  1.
         11    1    4    4    0    0 -0.50449431560E-02  0.32831295959E-01  0.53030352939E-01  0.62576552315E-01  0.51100000000E-03 0. -1.
</event>
<event>
 8    1  0.1109553E+005  0.1043930E+01  0.7957747E-01            NaN
         13   -1    0    0    0    0  0.00000000000E+00  0.00000000000E+00  0.74505805969E-08  0.10566000000E+00  0.10566000000E+00 0.  1.
     999900   -1    0    0    0    0 -0.00000000000E+00 -0.00000000000E+00 -0.74505805969E-08  0.93827000000E+00  0.93827000000E+00 0. -1.
     999902    2    1    2    0    0  0.37781524153E-02 -0.22490108323E-01 -0.52667914960E-02  0.10205244771E+01  0.10202560414E+01 0.  0.
     999903    2    3    3    0    0  0.10774979211E+00 -0.43471742442E-01 -0.58139210339E-01  0.13257975841E+00  0.26408605994E-01 0.  0.
         14    1    1    2    0    0 -0.37781524153E-02  0.22490108323E-01  0.52667914960E-02  0.23405522868E-01  0.00000000000E+00 0.  1.
     999901    1    3    3    0    0 -0.10397163970E+00  0.20981634119E-01  0.52872418843E-01  0.88794471872E+00  0.88000000000E+00 0.  1.
        -11    1    4    4    0    0  0.63623518228E-01 -0.24204456452E-01 -0.48205740347E-01  0.83413801659E-01  0.51100000000E-03 0. -1.
         11    1    4    4    0    0  0.44126273883E-01 -0.19267285990E-01 -0.99334699917E-02  0.49165956752E-01  0.51100000000E-03 0.  1.
</event>
<event>
 8    1  0.1109553E+005  0.1043930E+01  0.7957747E-01            NaN
         13   -1    0    0    0    0  0.00000000000E+00  0.00000000000E+00  0.74505805969E-08  0.10566000000E+00  0.10566000000E+00 0.  1.
     999900   -1    0    0    0    0 -0.00000000000E+00 -0.00000000000E+00 -0.74505805969E-08  0.93827000000E+00  0.93827000000E+00 0.  1.
     999902    2    1    2    0    0 -0.53149052019E-02  0.65666687304E-02 -0.18741385542E-01  0.10233725467E+01  0.10231660473E+01 0.  0.
     999903    2    3    3    0    0  0.83801109299E-01 -0.95340739833E-01  0.24728351826E-01  0.13195995868E+00  0.26257507846E-01 0.  0.
         14    1    1    2    0    0  0.53149052019E-02 -0.65666687304E-02  0.18741385542E-01  0.20557453334E-01  0.00000000000E+00 0.  1.
     999901    1    3    3    0    0 -0.89116014501E-01  0.10190740856E+00 -0.43469737368E-01  0.89141258799E+00  0.88000000000E+00 0.  1.
        -11    1    4    4    0    0  0.60808527809E-01 -0.61828779653E-01  0.28137797894E-01  0.91172758206E-01  0.51100000000E-03 0. -1.
         11    1    4    4    0    0  0.22992581489E-01 -0.33511960180E-01 -0.34094460684E-02  0.40787200470E-01  0.51100000000E-03 0.  1.
</event>
<event>
 8    1  0.1109553E+005  0.1043930E+01  0.7957747E-01            NaN
         13   -1    0    0    0    0  0.00000000000E+00  0.00000000000E+00  0.74505805969E-08  0.10566000000E+00  0.10566000000E+00 0. -1.
     999900   -1    0    0    0    0 -0.00000000000E+00 -0.00000000000E+00 -0.74505805969E-08  0.93827000000E+00  0.93827000000E+00 0.  1.
     999902    2    1    2    0    0  0.16527855492E-01  0.13399741937E-01  0.88992012717E-02  0.10208666335E+01  0.10206060771E+01 0.  0.
     999903    2    3    3    0    0 -0.37603261091E-01  0.10107126540E+00 -0.71827062024E-01  0.13118511554E+00  0.20518327542E-01 0.  0.
         14    1    1    2    0    0 -0.16527855492E-01 -0.13399741937E-01 -0.88992012717E-02  0.23063366502E-01  0.00000000000E+00 0.  1.
     999901    1    3    3    0    0  0.54131116583E-01 -0.87671523468E-01  0.80726263296E-01  0.88968151796E+00  0.88000000000E+00 0. -1.
        -11    1    4    4    0    0 -0.14101253603E-02  0.26848824866E-01 -0.13532278225E-01  0.30103679595E-01  0.51100000000E-03 0. -1.
         11    1    4    4    0    0 -0.36193135731E-01  0.74222440539E-01 -0.58294783799E-01  0.10108143595E+00  0.51100000000E-03 0.  1.
</event>
<event>
 8    1  0.1109553E+005  0.1043930E+01  0.7957747E-01            NaN
         13   -1    0    0    0    0  0.00000000000E+00  0.00000000000E+00  0.74505805969E-08  0.10566000000E+00  0.10566000000E+00 0. -1.
     999900   -1    0    0    0    0 -0.00000000000E+00 -0.00000000000E+00 -0.74505805969E-08  0.93827000000E+00  0.93827000000E+00 0. -1.
     999902    2    1    2    0    0 -0.14208783239E-01  0.10707191291E-02  0.20084499365E-01  0.10193043411E+01  0.10190068286E+01 0.  0.
     999903    2    3    3    0    0 -0.85790133752E-01  0.94966084982E-01 -0.17115391755E-01  0.13064014055E+00  0.19884801795E-01 0.  0.
         14    1    1    2    0    0  0.14208783239E-01 -0.10707191291E-02 -0.20084499365E-01  0.24625658881E-01  0.00000000000E+00 0. -1.
     999901    1    3    3    0    0  0.71581350513E-01 -0.93895365853E-01  0.37199891121E-01  0.88866420057E+00  0.88000000000E+00 0.  1.
        -11    1    4    4    0    0 -0.50144506544E-01  0.64182555126E-01 -0.18476521678E-01  0.83519547971E-01  0.51100000000E-03 0.  1.
         11    1    4    4    0    0 -0.35645627208E-01  0.30783529856E-01  0.13611299224E-02  0.47120592580E-01  0.51100000000E-03 0. -1.
</event>
<event>
 8    1  0.1109553E+005  0.1043930E+01  0.7957747E-01            NaN
         13   -1    0    0    0    0  0.00000000000E+00  0.00000000000E+00  0.74505805969E-08  0.10566000000E+00  0.10566000000E+00 0.  1.
     999900   -1    0    0    0    0 -0.00000000000E+00 -0.00000000000E+00 -0.74505805969E-08  0.93827000000E+00  0.93827000000E+00 0.  1.
     999902    2    1    2    0    0  0.11702525696E-01 -0.11092664327E-01  0.19522367415E-01  0.10186096695E+01  0.10182949178E+01 0.  0.
     999903    2    3    3    0    0 -0.97469792143E-01  0.28610701000E-01  0.77184493997E-01  0.12910426023E+00  0.19787149943E-01 0.  0.
         14    1    1    2    0    0 -0.11702525696E-01  0.11092664327E-01 -0.19522367415E-01  0.25320330548E-01  0.00000000000E+00 0. -1.
     999901    1    3    3    0    0  0.10917231784E+00 -0.39703365327E-01 -0.57662126582E-01  0.88950540923E+00  0.88000000000E+00 0. -1.
        -11    1    4    4    0    0 -0.46080343326E-01  0.17281842698E-01  0.48810696142E-01  0.69316702943E-01  0.51100000000E-03 0. -1.
         11    1    4    4    0    0 -0.51389448817E-01  0.11328858302E-01  0.28373797856E-01  0.59787557283E-01  0.51100000000E-03 0.  1.
</event>
<event>
 8    1  0.1109553E+005  0.1043930E+01  0.7957747E-01            NaN
         13   -1    0    0    0    0  0.00000000000E+00  0.00000000000E+00  0.74505805969E-08  0.10566000000E+00  0.10566000000E+00 0. -1.
     999900   -1    0    0    0    0 -0.00000000000E+00 -0.00000000000E+00 -0.74505805969E-08  0.93827000000E+00  0.93827000000E+00 0.  1.
     999902    2    1    2    0    0 -0.33460874248E-02 -0.13057574985E-01  0.20446104633E-01  0.10194404153E+01  0.10191462214E+01 0.  0.
     999903    2    3    3    0    0  0.32067686843E-01  0.11937929392E+00  0.16309236662E-01  0.12881660393E+00  0.32372424842E-01 0.  0.
         14    1    1    2    0    0  0.33460874248E-02  0.13057574985E-01 -0.20446104633E-01  0.24489584729E-01  0.00000000000E+00 0.  1.
     999901    1    3    3    0    0 -0.35413774268E-01 -0.13243686891E+00  0.41368679714E-02  0.89062381134E+00  0.88000000000E+00 0.  1.
        -11    1    4    4    0    0  0.36231684885E-02  0.60227712974E-01  0.18596267243E-01  0.63139425373E-01  0.51100000000E-03 0.  1.
         11    1    4    4    0    0  0.28444518355E-01  0.59151580948E-01 -0.22870305818E-02  0.65677178556E-01  0.51100000000E-03 0. -1.
</event>
<event>
 8    1  0.1109553E+005  0.1043930E+01  0.7957747E-01            NaN
         13   -1    0    0    0    0  0.00000000000E+00  0.00000000000E+00  0.74505805969E-08  0.10566000000E+00  0.10566000000E+00 0. -1.
     999900   -1    0    0    0    0 -0.00000000000E+00 -0.00000000000E+00 -0.74505805969E-08  0.93827000000E+00  0.93827000000E+00 0.  1.
     999902    2    1    2    0    0  0.10666138510E-01 -0.88960356498E-02  0.18953501217E-01  0.10204323157E+01  0.10201617370E+01 0.  0.
     999903    2    3    3    0    0  0.10048730304E+00  0.45877007373E-01  0.70611102714E-01  0.13266182976E+00  0.20269074264E-01 0.  0.
         14    1    1    2    0    0 -0.10666138510E-01  0.88960356498E-02 -0.18953501217E-01  0.23497684341E-01  0.00000000000E+00 0.  1.
     999901    1    3    3    0    0 -0.89821164529E-01 -0.54773043023E-01 -0.51657601497E-01  0.88777048590E+00  0.88000000000E+00 0. -1.
        -11    1    4    4    0    0  0.54730380141E-01  0.27918716702E-01  0.50567266994E-01  0.79574988941E-01  0.51100000000E-03 0.  1.
         11    1    4    4    0    0  0.45756922898E-01  0.17958290671E-01  0.20043835720E-01  0.53086840820E-01  0.51100000000E-03 0. -1.
</event>
<event>
 8    1  0.1109553E+005  0.1043930E+01  0.7957747E-01            NaN
         13   -1    0    0    0    0  0.00000000000E+00  0.00000000000E+00  0.74505805969E-08  0.10566000000E+00  0.10566000000E+00 0. -1.
     999900   -1    0    0    0    0 -0.00000000000E+00 -0.00000000000E+00 -0.74505805969E-08  0.93827000000E+00  0.93827000000E+00 0. -1.
     999902    2    1    2    0    0  0.14704995943E-01 -0.43313947835E-02  0.16806373037E-01  0.10211824274E+01  0.10209290367E+01 0.  0.
     999903    2    3    3    0    0  0.74086481481E-01 -0.10447029815E+00 -0.27168390350E-01  0.13242613871E+00  0.19892482177E-01 0.  0.
         14    1    1    2    0    0 -0.14704995943E-01  0.43313947835E-02 -0.16806373037E-01  0.22747572642E-01  0.00000000000E+00 0.  1.
     999901    1    3    3    0    0 -0.59381485537E-01  0.10013890336E+00  0.43974763386E-01  0.88875628865E+00  0.88000000000E+00 0. -1.
        -11    1    4    4    0    0  0.66111196105E-01 -0.99515399578E-01 -0.21347313911E-01  0.12136710401E+00  0.51100000000E-03 0. -1.
         11    1    4    4    0    0  0.79752853756E-02 -0.49548985686E-02 -0.58210764386E-02  0.11059034703E-01  0.51100000000E-03 0.  1.
</event>
<event>
 8    1  0.1109553E+005  0.1043930E+01  0.7957747E-01            NaN
         13   -1    0    0    0    0  0.00000000000E+00  0.00000000000E+00  0.74505805969E-08  0.10566000000E+00  0.10566000000E+00 0. -1.
     999900   -1    0    0    0    0 -0.00000000000E+00 -0.00000000000E+00 -0.74505805969E-08  0.93827000000E+00  0.93827000000E+00 0.  1.
     999902    2    1    2    0    0  0.22133319344E-03  0.22936177242E-01  0.27181042499E-02  0.10208322662E+01  0.10205709238E+01 0.  0.
     999903    2    3    3    0    0  0.67169161921E-01  0.11317450323E+00 -0.10287387636E-01  0.13359266495E+00  0.20518413430E-01 0.  0.
         14    1    1    2    0    0 -0.22133319344E-03 -0.22936177242E-01 -0.27181042499E-02  0.23097733776E-01  0.00000000000E+00 0. -1.
     999901    1    3    3    0    0 -0.66947828727E-01 -0.90238325988E-01  0.13005491886E-01  0.88723960127E+00  0.88000000000E+00 0. -1.
        -11    1    4    4    0    0  0.33020666297E-01  0.44067859349E-01  0.39233625464E-02  0.55208645382E-01  0.51100000000E-03 0.  1.
         11    1    4    4    0    0  0.34148495624E-01  0.69106643882E-01 -0.14210750183E-01  0.78384019569E-01  0.51100000000E-03 0. -1.
</event>
<event>
 8    1  0.1109553E+005  0.1043930E+01  0.7957747E-01            NaN
         13   -1    0    0    0    0  0.00000000000E+00  0.00000000000E+00  0.74505805969E-08  0.10566000000E+00  0.10566000000E+00 0. -1.
     999900   -1    0    0    0    0 -0.00000000000E+00 -0.00000000000E+00 -0.74505805969E-08  0.93827000000E+00  0.93827000000E+00 0. -1.
     999902    2    1    2    0    0 -0.10262582618E-01  0.56513917402E-02  0.27672251642E-02  0.10318918786E+01  0.10318216575E+01 0.  0.
     999903    2    3    3    0    0  0.24846385078E-01  0.10680451428E+00  0.88126422696E-01  0.14130174485E+00  0.13242718748E-01 0.  0.
         14    1    1    2    0    0  0.10262582618E-01 -0.56513917402E-02 -0.27672251642E-02  0.12038121352E-01  0.00000000000E+00 0. -1.
     999901    1    3    3    0    0 -0.35108967695E-01 -0.10115312254E+00 -0.85359197532E-01  0.89059013380E+00  0.88000000000E+00 0.  1.
        -11    1    4    4    0    0  0.15929101352E-01  0.55022853992E-01  0.38459943446E-01  0.68997674614E-01  0.51100000000E-03 0. -1.
         11    1    4    4    0    0  0.89172837255E-02  0.51781660283E-01  0.49666479251E-01  0.72304070237E-01  0.51100000000E-03 0.  1.
</event>
<event>
 8    1  0.1109553E+005  0.1043930E+01  0.7957747E-01            NaN
         13   -1    0    0    0    0  0.00000000000E+00  0.00000000000E+00  0.74505805969E-08  0.10566000000E+00  0.10566000000E+00 0.  1.
     999900   -1    0    0    0    0 -0.00000000000E+00 -0.00000000000E+00 -0.74505805969E-08  0.93827000000E+00  0.93827000000E+00 0. -1.
     999902    2    1    2    0    0 -0.18371809121E-01 -0.77390322178E-02 -0.12278032195E-01  0.10205170535E+01  0.10202484454E+01 0.  0.
     999903    2    3    3    0    0  0.12446548907E+00 -0.14771436946E-01  0.18667881061E-01  0.12843544398E+00  0.20912201376E-01 0.  0.
         14    1    1    2    0    0  0.18371809121E-01  0.77390322178E-02  0.12278032195E-01  0.23412946517E-01  0.00000000000E+00 0. -1.
     999901    1    3    3    0    0 -0.14283729819E+00  0.70324047281E-02 -0.30945913257E-01  0.89208160951E+00  0.88000000000E+00 0. -1.
        -11    1    4    4    0    0  0.68389855987E-01 -0.18219942443E-01  0.77448815733E-02  0.71199599831E-01  0.51100000000E-03 0. -1.
         11    1    4    4    0    0  0.56075633087E-01  0.34485054968E-02  0.10922999488E-01  0.57235844146E-01  0.51100000000E-03 0.  1.
</event>
<event>
 8    1  0.1109553E+005  0.1043930E+01  0.7957747E-01            NaN
         13   -1    0    0    0    0  0.00000000000E+00  0.00000000000E+00  0.74505805969E-08  0.10566000000E+00  0.10566000000E+00 0.  1.
     999900   -1    0    0    0    0 -0.00000000000E+00 -0.00000000000E+00 -0.74505805969E-08  0.93827000000E+00  0.93827000000E+00 0. -1.
     999902    2    1    2    0    0 -0.15697430452E-01 -0.17064796395E-01 -0.51415013105E-02  0.10201802287E+01  0.10199037442E+01 0.  0.
     999903    2    3    3    0    0 -0.12826520443E+00  0.23930627246E-01 -0.62040367067E-02  0.13206241141E+00  0.19425571980E-01 0.  0.
         14    1    1    2    0    0  0.15697430452E-01  0.17064796395E-01  0.51415013105E-02  0.23749771252E-01  0.00000000000E+00 0.  1.
     999901    1    3    3    0    0  0.11256777398E+00 -0.40995423641E-01  0.10625353963E-02  0.88811781734E+00  0.88000000000E+00 0. -1.
        -11    1    4    4    0    0 -0.11935234779E+00  0.19153486638E-01 -0.98962845813E-02  0.12128493948E+00  0.51100000000E-03 0. -1.
         11    1    4    4    0    0 -0.89128566374E-02  0.47771406080E-02  0.36922478745E-02  0.10777471930E-01  0.51100000000E-03 0.  1.
</event>
<event>
 8    1  0.1109553E+005  0.1043930E+01  0.7957747E-01            NaN
         13   -1    0    0    0    0  0.00000000000E+00  0.00000000000E+00  0.74505805969E-08  0.10566000000E+00  0.10566000000E+00 0.  1.
     999900   -1    0    0    0    0 -0.00000000000E+00 -0.00000000000E+00 -0.74505805969E-08  0.93827000000E+00  0.93827000000E+00 0.  1.
     999902    2    1    2    0    0  0.11741148429E-01 -0.15780641207E-01  0.12351810706E-01  0.10207039278E+01  0.10204396394E+01 0.  0.
     999903    2    3    3    0    0 -0.60646086418E-01  0.62700507466E-01 -0.91723875636E-01  0.12816207948E+00  0.20073560246E-01 0.  0.
         14    1    1    2    0    0 -0.11741148429E-01  0.15780641207E-01 -0.12351810706E-01  0.23226072226E-01  0.00000000000E+00 0. -1.
     999901    1    3    3    0    0  0.72387234848E-01 -0.78481148673E-01  0.10407568634E+00  0.89254184829E+00  0.88000000000E+00 0. -1.
        -11    1    4    4    0    0 -0.33481982272E-02  0.18436116883E-03 -0.21245004781E-03  0.33986286105E-02  0.51100000000E-03 0. -1.
         11    1    4    4    0    0 -0.57297888191E-01  0.62516146298E-01 -0.91511425588E-01  0.12476345087E+00  0.51100000000E-03 0.  1.
</event>
<event>
 8    1  0.1109553E+005  0.1043930E+01  0.7957747E-01            NaN
         13   -1    0    0    0    0  0.00000000000E+00  0.00000000000E+00  0.74505805969E-08  0.10566000000E+00  0.10566000000E+00 0.  1.
     999900   -1    0    0    0    0 -0.00000000000E+00 -0.00000000000E+00 -0.74505805969E-08  0.93827000000E+00  0.93827000000E+00 0. -1.
     999902    2    1    2    0    0 -0.36050136502E-02 -0.97646158410E-02 -0.23759968747E-01  0.10179900701E+01  0.10176595221E+01 0.  0.
     999903    2    3    3    0    0  0.11024285755E+00  0.14606544173E-01  0.57206610856E-01  0.12663667321E+00  0.19935192548E-01 0.  0.
         14    1    1    2    0    0  0.36050136502E-02  0.97646158410E-02  0.23759968747E-01  0.25939929853E-01  0.00000000000E+00 0.  1.
     999901    1    3    3    0    0 -0.11384787120E+00 -0.24371160014E-01 -0.80966579603E-01  0.89135339694E+00  0.88000000000E+00 0.  1.
        -11    1    4    4    0    0  0.59283346255E-01  0.17843768205E-01  0.31679263790E-01  0.69546761839E-01  0.51100000000E-03 0. -1.
         11    1    4    4    0    0  0.50959511298E-01 -0.32372240324E-02  0.25527347066E-01  0.57089911371E-01  0.51100000000E-03 0.  1.
</event>
<event>
 8    1  0.1109553E+005  0.1043930E+01  0.7957747E-01            NaN
         13   -1    0    0    0    0  0.00000000000E+00  0.00000000000E+00  0.74505805969E-08  0.10566000000E+00  0.10566000000E+00 0. -1.
     999900   -1    0    0    0    0 -0.00000000000E+00 -0.00000000000E+00 -0.74505805969E-08  0.93827000000E+00  0.93827000000E+00 0. -1.
     999902    2    1    2    0    0 -0.19904992341E-01  0.11731634889E-01  0.69957165039E-02  0.10197891627E+01  0.10195033871E+01 0.  0.
     999903    2    3    3    0    0 -0.98297712162E-01  0.86955196315E-01  0.33130507889E-02  0.13310006004E+00  0.21931787288E-01 0.  0.
         14    1    1    2    0    0  0.19904992341E-01 -0.11731634889E-01 -0.69957165039E-02  0.24140837323E-01  0.00000000000E+00 0.  1.
     999901    1    3    3    0    0  0.78392719821E-01 -0.75223561426E-01  0.36826657149E-02  0.88668910264E+00  0.88000000000E+00 0.  1.
        -11    1    4    4    0    0 -0.45440670053E-01  0.32647075146E-01  0.10651716672E-01  0.56959689251E-01  0.51100000000E-03 0. -1.
         11    1    4    4    0    0 -0.52857042109E-01  0.54308121169E-01 -0.73386658834E-02  0.76140370785E-01  0.51100000000E-03 0.  1.
</event>
<event>
 8    1  0.1109553E+005  0.1043930E+01  0.7957747E-01            NaN
         13   -1    0    0    0    0  0.00000000000E+00  0.00000000000E+00  0.74505805969E-08  0.10566000000E+00  0.10566000000E+00 0. -1.
     999900   -1    0    0    0    0 -0.00000000000E+00 -0.00000000000E+00 -0.74505805969E-08  0.93827000000E+00  0.93827000000E+00 0. -1.
     999902    2    1    2    0    0  0.15839637389E-01 -0.16235108822E-01  0.13971675416E-02  0.10212050149E+01  0.10209521328E+01 0.  0.
     999903    2    3    3    0    0  0.11463892302E+00  0.36285011316E-02  0.65832425145E-01  0.13311281007E+00  0.15161243778E-01 0.  0.
         14    1    1    2    0    0 -0.15839637389E-01  0.16235108822E-01 -0.13971675416E-02  0.22724985109E-01  0.00000000000E+00 0. -1.
     999901    1    3    3    0    0 -0.98799285629E-01 -0.19863609953E-01 -0.64435257603E-01  0.88809220482E+00  0.88000000000E+00 0. -1.
        -11    1    4    4    0    0  0.60182279199E-01  0.25680932877E-02  0.25886112340E-01  0.65565644707E-01  0.51100000000E-03 0.  1.
         11    1    4    4    0    0  0.54456643819E-01  0.10604078439E-02  0.39946312805E-01  0.67547165363E-01  0.51100000000E-03 0. -1.
</event>
<event>
 8    1  0.1109553E+005  0.1043930E+01  0.7957747E-01            NaN
         13   -1    0    0    0    0  0.00000000000E+00  0.00000000000E+00  0.74505805969E-08  0.10566000000E+00  0.10566000000E+00 0. -1.
     999900   -1    0    0    0    0 -0.00000000000E+00 -0.00000000000E+00 -0.74505805969E-08  0.93827000000E+00  0.93827000000E+00 0.  1.
     999902    2    1    2    0    0 -0.12889588103E-01  0.58700072481E-02  0.17491767621E-01  0.10214231033E+01  0.10211751052E+01 0.  0.
     999903    2    3    3    0    0  0.64553998013E-01 -0.79388682082E-01 -0.76026252656E-01  0.12900382217E+00  0.19804381818E-01 0.  0.
         14    1    1    2    0    0  0.12889588103E-01 -0.58700072481E-02 -0.17491767621E-01  0.22506896744E-01  0.00000000000E+00 0.  1.
     999901    1    3    3    0    0 -0.77443586117E-01  0.85258689331E-01  0.93518020277E-01  0.89241928109E+00  0.88000000000E+00 0. -1.
        -11    1    4    4    0    0  0.38134823426E-01 -0.49876121971E-01 -0.58021570693E-01  0.85490678364E-01  0.51100000000E-03 0. -1.
         11    1    4    4    0    0  0.26419174587E-01 -0.29512560112E-01 -0.18004681963E-01  0.43513143805E-01  0.51100000000E-03 0.  1.
</event>
<event>
 8    1  0.1109553E+005  0.1043930E+01  0.7957747E-01            NaN
         13   -1    0    0    0    0  0.00000000000E+00  0.00000000000E+00  0.74505805969E-08  0.10566000000E+00  0.10566000000E+00 0.  1.
     999900   -1    0    0    0    0 -0.00000000000E+00 -0.00000000000E+00 -0.74505805969E-08  0.93827000000E+00  0.93827000000E+00 0. -1.
     999902    2    1    2    0    0 -0.13374856880E-01  0.22709170034E-01  0.11352964067E-01  0.10152336066E+01  0.10148279623E+01 0.  0.
     999903    2    3    3    0    0  0.13146202988E-02  0.79248741130E-01  0.99717178459E-01  0.12888111566E+00  0.19614665338E-01 0.  0.
         14    1    1    2    0    0  0.13374856880E-01 -0.22709170034E-01 -0.11352964067E-01  0.28696393385E-01  0.00000000000E+00 0. -1.
     999901    1    3    3    0    0 -0.14689477179E-01 -0.56539571096E-01 -0.88364214392E-01  0.88635249096E+00  0.88000000000E+00 0. -1.
        -11    1    4    4    0    0 -0.35909804235E-02  0.58108178179E-01  0.59912771005E-01  0.83541946124E-01  0.51100000000E-03 0. -1.
         11    1    4    4    0    0  0.49056007223E-02  0.21140562952E-01  0.39804407453E-01  0.45339169534E-01  0.51100000000E-03 0.  1.
</event>
<event>
 8    1  0.1109553E+005  0.1043930E+01  0.7957747E-01            NaN
         13   -1    0    0    0    0  0.00000000000E+00  0.00000000000E+00  0.74505805969E-08  0.10566000000E+00  0.10566000000E+00 0.  1.
     999900   -1    0    0    0    0 -0.00000000000E+00 -0.00000000000E+00 -0.74505805969E-08  0.93827000000E+00  0.93827000000E+00 0.  1.
     999902    2    1    2    0    0  0.28421771931E-04 -0.16583319888E-01  0.16303139909E-01  0.10206749000E+01  0.10204099430E+01 0.  0.
     999903    2    3    3    0    0 -0.15525106925E-02 -0.17297847842E-01  0.13058404017E+00  0.13328370436E+00  0.20266437015E-01 0.  0.
         14    1    1    2    0    0 -0.28421771931E-04  0.16583319888E-01 -0.16303139909E-01  0.23255100025E-01  0.00000000000E+00 0.  1.
     999901    1    3    3    0    0  0.15809324644E-02  0.71452795424E-03 -0.11428090026E+00  0.88739119562E+00  0.88000000000E+00 0.  1.
        -11    1    4    4    0    0 -0.77050420951E-02 -0.46633622974E-02  0.87479085040E-01  0.87942970509E-01  0.51100000000E-03 0.  1.
         11    1    4    4    0    0  0.61525314027E-02 -0.12634485544E-01  0.43104955134E-01  0.45340733846E-01  0.51100000000E-03 0. -1.
</event>
<event>
 8    1  0.1109553E+005  0.1043930E+01  0.7957747E-01            NaN
         13   -1    0    0    0    0  0.00000000000E+00  0.00000000000E+00  0.74505805969E-08  0.10566000000E+00  0.10566000000E+00 0.  1.
     999900   -1    0    0    0    0 -0.00000000000E+00 -0.00000000000E+00 -0.74505805969E-08  0.93827000000E+00  0.93827000000E+00 0. -1.
     999902    2    1    2    0    0  0.61272735745E-02 -0.19919379485E-01 -0.53957847166E-02  0.10224023514E+01  0.10221756838E+01 0.  0.
     999903    2    3    3    0    0  0.37912532297E-02 -0.13120904821E+00 -0.25684144471E-01  0.13515804183E+00  0.19437928439E-01 0.  0.
         14    1    1    2    0    0 -0.61272735745E-02  0.19919379485E-01  0.53957847166E-02  0.21527648576E-01  0.00000000000E+00 0.  1.
     999901    1    3    3    0    0  0.23360203447E-02  0.11128966873E+00  0.20288359755E-01  0.88724430959E+00  0.88000000000E+00 0.  1.
        -11    1    4    4    0    0 -0.32982986150E-02 -0.98986504507E-01 -0.13384542226E-01  0.99943053485E-01  0.51100000000E-03 0.  1.
         11    1    4    4    0    0  0.70895518448E-02 -0.32222543703E-01 -0.12299602245E-01  0.35214988350E-01  0.51100000000E-03 0. -1.
</event>
<event>
 8    1  0.1109553E+005  0.1043930E+01  0.7957747E-01            NaN
         13   -1    0    0    0    0  0.00000000000E+00  0.00000000000E+00  0.74505805969E-08  0.10566000000E+00  0.10566000000E+00 0. -1.
     999900   -1    0    0    0    0 -0.00000000000E+00 -0.00000000000E+00 -0.74505805969E-08  0.93827000000E+00  0.93827000000E+00 0.  1.
     999902    2    1    2    0    0  0.16391861230E-01  0.11871727847E-03 -0.16172157262E-01  0.10209029316E+01  0.10206432040E+01 0.  0.
     999903    2    3    3    0    0  0.85821080562E-01  0.40552980553E-01 -0.92282112986E-01  0.13397110136E+00  0.20553966075E-01 0.  0.
         14    1    1    2    0    0 -0.16391861230E-01 -0.11871727847E-03  0.16172157262E-01  0.23027068396E-01  0.00000000000E+00 0. -1.
     999901    1    3    3    0    0 -0.69429219331E-01 -0.40434263275E-01  0.76109955724E-01  0.88693183025E+00  0.88000000000E+00 0. -1.
        -11    1    4    4    0    0  0.52193642887E-01  0.13384871630E-01 -0.50906595184E-01  0.74128764327E-01  0.51100000000E-03 0. -1.
         11    1    4    4    0    0  0.33627437675E-01  0.27168108923E-01 -0.41375517802E-01  0.59842337031E-01  0.51100000000E-03 0.  1.
</event>
<event>
 8    1  0.1109553E+005  0.1043930E+01  0.7957747E-01            NaN
         13   -1    0    0    0    0  0.00000000000E+00  0.00000000000E+00  0.74505805969E-08  0.10566000000E+00  0.10566000000E+00 0. -1.
     999900   -1    0    0    0    0 -0.00000000000E+00 -0.00000000000E+00 -0.74505805969E-08  0.93827000000E+00  0.93827000000E+00 0. -1.
     999902    2    1    2    0    0 -0.10450780150E-01  0.19520458457E-01  0.25987531003E-02  0.10216360407E+01  0.10213927643E+01 0.  0.
     999903    2    3    3    0    0  0.17201068522E-01  0.11817025206E+00 -0.56646622070E-01  0.13371350972E+00  0.20257780246E-01 0.  0.
         14    1    1    2    0    0  0.10450780150E-01 -0.19520458457E-01 -0.25987531003E-02  0.22293959312E-01  0.00000000000E+00 0.  1.
     999901    1    3    3    0    0 -0.27651848673E-01 -0.98649793604E-01  0.59245375170E-01  0.88792253096E+00  0.88000000000E+00 0. -1.
        -11    1    4    4    0    0 -0.21785861672E-02  0.26188560396E-01 -0.60986218214E-02  0.26982239389E-01  0.51100000000E-03 0. -1.
         11    1    4    4    0    0  0.19379654689E-01  0.91981691665E-01 -0.50548000248E-01  0.10673127034E+00  0.51100000000E-03 0.  1.
</event>
<event>
 8    1  0.1109553E+005  0.1043930E+01  0.7957747E-01            NaN
         13   -1    0    0    0    0  0.00000000000E+00  0.00000000000E+00  0.74505805969E-08  0.10566000000E+00  0.10566000000E+00 0.  1.
     999900   -1    0    0    0    0 -0.00000000000E+00 -0.00000000000E+00 -0.74505805969E-08  0.93827000000E+00  0.93827000000E+00 0.  1.
     999902    2    1    2    0    0 -0.22209896964E-01 -0.20684861897E-02  0.93351611575E-02  0.10197493591E+01  0.10194626291E+01 0.  0.
     999903    2    3    3    0    0  0.11620378315E+00  0.47104638823E-01 -0.10870376283E-01  0.12734552298E+00  0.19404920119E-01 0.  0.
         14    1    1    2    0    0  0.22209896964E-01  0.20684861897E-02 -0.93351611575E-02  0.24180640853E-01  0.00000000000E+00 0.  1.
     999901    1    3    3    0    0 -0.13841368011E+00 -0.49173125013E-01  0.20205537441E-01  0.89240383617E+00  0.88000000000E+00 0. -1.
        -11    1    4    4    0    0  0.15681774865E-01 -0.36174499621E-03 -0.60256425630E-03  0.15705830989E-01  0.51100000000E-03 0. -1.
         11    1    4    4    0    0  0.10052200828E+00  0.47466383820E-01 -0.10267812027E-01  0.11163969199E+00  0.51100000000E-03 0.  1.
</event>
<event>
 8    1  0.1109553E+005  0.1043930E+01  0.7957747E-01            NaN
         13   -1    0    0    0    0  0.00000000000E+00  0.00000000000E+00  0.74505805969E-08  0.10566000000E+00  0.10566000000E+00 0.  1.
     999900   -1    0    0    0    0 -0.00000000000E+00 -0.00000000000E+00 -0.74505805969E-08  0.93827000000E+00  0.93827000000E+00 0. -1.
     999902    2    1    2    0    0  0.15934559338E-01  0.10771622054E-01  0.11975951013E-01  0.10212725194E+01  0.10210211543E+01 0.  0.
     999903    2    3    3    0    0 -0.26319438370E-01 -0.37574741141E-01  0.12205680364E+00  0.13209280460E+00  0.21120409656E-01 0.  0.
         14    1    1    2    0    0 -0.15934559338E-01 -0.10771622054E-01 -0.11975951013E-01  0.22657480567E-01  0.00000000000E+00 0. -1.
     999901    1    3    3    0    0  0.42253997708E-01  0.48346363195E-01 -0.11008085263E+00  0.88917971483E+00  0.88000000000E+00 0. -1.
        -11    1    4    4    0    0 -0.14148429413E-01 -0.33870011707E-01  0.10124795240E+00  0.10769756141E+00  0.51100000000E-03 0.  1.
         11    1    4    4    0    0 -0.12171008957E-01 -0.37047294335E-02  0.20808851240E-01  0.24395243187E-01  0.51100000000E-03 0. -1.
</event>
<event>
 8    1  0.1109553E+005  0.1043930E+01  0.7957747E-01            NaN
         13   -1    0    0    0    0  0.00000000000E+00  0.00000000000E+00  0.74505805969E-08  0.10566000000E+00  0.10566000000E+00 0. -1.
     999900   -1    0    0    0    0 -0.00000000000E+00 -0.00000000000E+00 -0.74505805969E-08  0.93827000000E+00  0.93827000000E+00 0.  1.
     999902    2    1    2    0    0 -0.13179022436E-01 -0.13465941989E-01  0.12872683395E-01  0.10211106178E+01  0.10208556066E+01 0.  0.
     999903    2    3    3    0    0  0.94867393059E-01 -0.82784473051E-01 -0.30838086531E-01  0.13072322006E+00  0.16866577556E-01 0.  0.
         14    1    1    2    0    0  0.13179022436E-01  0.13465941989E-01 -0.12872683395E-01  0.22819382196E-01  0.00000000000E+00 0.  1.
     999901    1    3    3    0    0 -0.10804641549E+00  0.69318531063E-01  0.43710769926E-01  0.89038739774E+00  0.88000000000E+00 0. -1.
        -11    1    4    4    0    0  0.96093724452E-02 -0.15120609261E-01 -0.14640095334E-02  0.17982694685E-01  0.51100000000E-03 0. -1.
         11    1    4    4    0    0  0.85258020613E-01 -0.67663863791E-01 -0.29374076997E-01  0.11274052538E+00  0.51100000000E-03 0.  1.
</event>
<event>
 8    1  0.1109553E+005  0.1043930E+01  0.7957747E-01            NaN
         13   -1    0    0    0    0  0.00000000000E+00  0.00000000000E+00  0.74505805969E-08  0.10566000000E+00  0.10566000000E+00 0.  1.
     999900   -1    0    0    0    0 -0.00000000000E+00 -0.00000000000E+00 -0.74505805969E-08  0.93827000000E+00  0.93827000000E+00 0. -1.
     999902    2    1    2    0    0  0.97286998662E-02 -0.12161271196E-02 -0.21389197041E-01  0.10204007774E+01  0.10201294634E+01 0.  0.
     999903    2    3    3    0    0  0.79639545412E-01 -0.41206657968E-02  0.99384793424E-01  0.12940003697E+00  0.22529876243E-01 0.  0.
         14    1    1    2    0    0 -0.97286998662E-02  0.12161271196E-02  0.21389197041E-01  0.23529222604E-01  0.00000000000E+00 0.  1.
     999901    1    3    3    0    0 -0.69910845546E-01  0.29045386771E-02 -0.12077399047E+00  0.89100074043E+00  0.88000000000E+00 0.  1.
        -11    1    4    4    0    0  0.77191896767E-02  0.10106831224E-02  0.23321381889E-01  0.24591773906E-01  0.51100000000E-03 0.  1.
         11    1    4    4    0    0  0.71920355735E-01 -0.51313489191E-02  0.76063411535E-01  0.10480826306E+00  0.51100000000E-03 0. -1.
</event>
<event>
 8    1  0.1109553E+005  0.1043930E+01  0.7957747E-01            NaN
         13   -1    0    0    0    0  0.00000000000E+00  0.00000000000E+00  0.74505805969E-08  0.10566000000E+00  0.10566000000E+00 0. -1.
     999900   -1    0    0    0    0 -0.00000000000E+00 -0.00000000000E+00 -0.74505805969E-08  0.93827000000E+00  0.93827000000E+00 0.  1.
     999902    2    1    2    0    0  0.49230424503E-02 -0.25593392317E-02 -0.23844443114E-01  0.10194484961E+01  0.10191544987E+01 0.  0.
     999903    2    3    3    0    0 -0.46345293667E-01 -0.11517533734E+00 -0.38442114139E-01  0.13067186653E+00  0.13568197629E-01 0.  0.
         14    1    1    2    0    0 -0.49230424503E-02  0.25593392317E-02  0.23844443114E-01  0.24481503869E-01  0.00000000000E+00 0. -1.
     999901    1    3    3    0    0  0.51268336118E-01  0.11261599811E+00  0.14597671025E-01  0.88877662960E+00  0.88000000000E+00 0.  1.
        -11    1    4    4    0    0 -0.70517882343E-02 -0.78055969502E-02 -0.25570855613E-02  0.10837659739E-01  0.51100000000E-03 0.  1.
         11    1    4    4    0    0 -0.39293505433E-01 -0.10736974039E+00 -0.35885028578E-01  0.11983420679E+00  0.51100000000E-03 0. -1.
</event>
<event>
 8    1  0.1109553E+005  0.1043930E+01  0.7957747E-01            NaN
         13   -1    0    0    0    0  0.00000000000E+00  0.00000000000E+00  0.74505805969E-08  0.10566000000E+00  0.10566000000E+00 0. -1.
     999900   -1    0    0    0    0 -0.00000000000E+00 -0.00000000000E+00 -0.74505805969E-08  0.93827000000E+00  0.93827000000E+00 0. -1.
     999902    2    1    2    0    0  0.20729946383E-02 -0.13690365015E-01 -0.18957267105E-01  0.10204544515E+01  0.10201843883E+01 0.  0.
     999903    2    3    3    0    0 -0.10655751528E-01  0.12587750812E+00 -0.19996266950E-01  0.12936394448E+00  0.19403281896E-01 0.  0.
         14    1    1    2    0    0 -0.20729946383E-02  0.13690365015E-01  0.18957267105E-01  0.23475548494E-01  0.00000000000E+00 0. -1.
     999901    1    3    3    0    0  0.12728746166E-01 -0.13956787314E+00  0.10389998451E-02  0.89109050703E+00  0.88000000000E+00 0. -1.
        -11    1    4    4    0    0 -0.84228772438E-03  0.68969764939E-01 -0.25011921313E-02  0.69022134185E-01  0.51100000000E-03 0.  1.
         11    1    4    4    0    0 -0.98134638037E-02  0.56907743181E-01 -0.17495074819E-01  0.60341810296E-01  0.51100000000E-03 0. -1.
</event>
<event>
 8    1  0.1109553E+005  0.1043930E+01  0.7957747E-01            NaN
         13   -1    0    0    0    0  0.00000000000E+00  0.00000000000E+00  0.74505805969E-08  0.10566000000E+00  0.10566000000E+00 0. -1.
     999900   -1    0    0    0    0 -0.00000000000E+00 -0.00000000000E+00 -0.74505805969E-08  0.93827000000E+00  0.93827000000E+00 0. -1.
     999902    2    1    2    0    0  0.51641826505E-03 -0.27291011185E-01 -0.23775560086E-01  0.10077313365E+01  0.10070809815E+01 0.  0.
     999903    2    3    3    0    0  0.79573715223E-01 -0.85663396922E-02  0.83654973204E-01  0.11748306273E+00  0.19968904748E-01 0.  0.
         14    1    1    2    0    0 -0.51641826505E-03  0.27291011185E-01  0.23775560086E-01  0.36198663466E-01  0.00000000000E+00 0. -1.
     999901    1    3    3    0    0 -0.79057296958E-01 -0.18724671493E-01 -0.10743053329E+00  0.89024827380E+00  0.88000000000E+00 0. -1.
        -11    1    4    4    0    0  0.40263839758E-02 -0.45931539629E-02  0.27524961624E-02  0.67190912609E-02  0.51100000000E-03 0.  1.
         11    1    4    4    0    0  0.75547331248E-01 -0.39731857293E-02  0.80902477041E-01  0.11076397147E+00  0.51100000000E-03 0. -1.
</event>
<event>
 8    1  0.1109553E+005  0.1043930E+01  0.7957747E-01            NaN
         13   -1    0    0    0    0  0.00000000000E+00  0.00000000000E+00  0.74505805969E-08  0.10566000000E+00  0.10566000000E+00 0.  1.
     999900   -1    0    0    0    0 -0.00000000000E+00 -0.00000000000E+00 -0.74505805969E-08  0.93827000000E+00  0.93827000000E+00 0. -1.
     999902    2    1    2    0    0 -0.79924320576E-02  0.53512793874E-02  0.21582007892E-01  0.10203016648E+01  0.10200280334E+01 0.  0.
     999903    2    3    3    0    0  0.12752564038E+00 -0.98182436866E-02 -0.26617958620E-02  0.12946889460E+00  0.19897805101E-01 0.  0.
         14    1    1    2    0    0  0.79924320576E-02 -0.53512793874E-02 -0.21582007892E-01  0.23628335234E-01  0.00000000000E+00 0. -1.
     999901    1    3    3    0    0 -0.13551807244E+00  0.15169523074E-01  0.24243803754E-01  0.89083277017E+00  0.88000000000E+00 0. -1.
        -11    1    4    4    0    0  0.81103655742E-02 -0.37669030107E-02  0.37888263766E-02  0.97254261784E-02  0.51100000000E-03 0. -1.
         11    1    4    4    0    0  0.11941527480E+00 -0.60513406760E-02 -0.64506222386E-02  0.11974346842E+00  0.51100000000E-03 0.  1.
</event>
<event>
 8    1  0.1109553E+005  0.1043930E+01  0.7957747E-01            NaN
         13   -1    0    0    0    0  0.00000000000E+00  0.00000000000E+00  0.74505805969E-08  0.10566000000E+00  0.10566000000E+00 0. -1.
     999900   -1    0    0    0    0 -0.00000000000E+00 -0.00000000000E+00 -0.74505805969E-08  0.93827000000E+00  0.93827000000E+00 0. -1.
     999902    2    1    2    0    0  0.19703736953E-01 -0.12074011494E-01  0.15665394446E-02  0.10207681121E+01  0.10205052992E+01 0.  0.
     999903    2    3    3    0    0 -0.28047176071E-01 -0.13734560158E-01  0.12544437263E+00  0.13080821154E+00  0.19980374234E-01 0.  0.
         14    1    1    2    0    0 -0.19703736953E-01  0.12074011494E-01 -0.15665394446E-02  0.23161887862E-01  0.00000000000E+00 0. -1.
     999901    1    3    3    0    0  0.47750913025E-01  0.16605486635E-02 -0.12387783318E+00  0.88995990060E+00  0.88000000000E+00 0. -1.
        -11    1    4    4    0    0 -0.20856455834E-01 -0.98271282378E-02  0.51710362337E-01  0.56619668786E-01  0.51100000000E-03 0. -1.
         11    1    4    4    0    0 -0.71907202369E-02 -0.39074319199E-02  0.73734010290E-01  0.74188542756E-01  0.51100000000E-03 0.  1.
</event>
<event>
 8    1  0.1109553E+005  0.1043930E+01  0.7957747E-01            NaN
         13   -1    0    0    0    0  0.00000000000E+00  0.00000000000E+00  0.74505805969E-08  0.10566000000E+00  0.10566000000E+00 0. -1.
     999900   -1    0    0    0    0 -0.00000000000E+00 -0.00000000000E+00 -0.74505805969E-08  0.93827000000E+00  0.93827000000E+00 0. -1.
     999902    2    1    2    0    0 -0.17800475058E-01  0.14827514768E-01  0.69875920821E-02  0.10197320962E+01  0.10194449516E+01 0.  0.
     999903    2    3    3    0    0 -0.11524927809E+00  0.48522028780E-01 -0.39767428332E-01  0.13247924528E+00  0.18235095171E-01 0.  0.
         14    1    1    2    0    0  0.17800475058E-01 -0.14827514768E-01 -0.69875920821E-02  0.24197903826E-01  0.00000000000E+00 0.  1.
     999901    1    3    3    0    0  0.97448803034E-01 -0.33694514012E-01  0.46755020414E-01  0.88725285089E+00  0.88000000000E+00 0.  1.
        -11    1    4    4    0    0 -0.56948856964E-01  0.26342476241E-01 -0.10675831004E-01  0.63650081325E-01  0.51100000000E-03 0.  1.
         11    1    4    4    0    0 -0.58300421128E-01  0.22179552539E-01 -0.29091597328E-01  0.68829163954E-01  0.51100000000E-03 0. -1.
</event>
<event>
 8    1  0.1109553E+005  0.1043930E+01  0.7957747E-01            NaN
         13   -1    0    0    0    0  0.00000000000E+00  0.00000000000E+00  0.74505805969E-08  0.10566000000E+00  0.10566000000E+00 0.  1.
     999900   -1    0    0    0    0 -0.00000000000E+00 -0.00000000000E+00 -0.74505805969E-08  0.93827000000E+00  0.93827000000E+00 0. -1.
     999902    2    1    2    0    0  0.84445389701E-02 -0.76583976843E-02  0.21094575862E-01  0.10199520429E+01  0.10196701562E+01 0.  0.
     999903    2    3    3    0    0 -0.71964922950E-01 -0.59712341099E-01  0.91013363038E-01  0.13199712777E+00  0.19882043994E-01 0.  0.
         14    1    1    2    0    0 -0.84445389701E-02  0.76583976843E-02 -0.21094575862E-01  0.23977957050E-01  0.00000000000E+00 0. -1.
     999901    1    3    3    0    0  0.80409461920E-01  0.52053943415E-01 -0.69918787176E-01  0.88795491518E+00  0.88000000000E+00 0. -1.
        -11    1    4    4    0    0 -0.31035921208E-01 -0.38642723614E-01  0.47094823516E-01  0.68371573161E-01  0.51100000000E-03 0.  1.
         11    1    4    4    0    0 -0.40929001742E-01 -0.21069617485E-01  0.43918539522E-01  0.63625554609E-01  0.51100000000E-03 0. -1.
</event>
<event>
 8    1  0.1175300E+005  0.1043930E+01  0.7957747E-01            NaN
         13   -1    0    0    0    0  0.00000000000E+00  0.00000000000E+00  0.74505805969E-08  0.10566000000E+00  0.10566000000E+00 0.  1.
     999900   -1    0    0    0    0 -0.00000000000E+00 -0.00000000000E+00 -0.74505805969E-08  0.93827000000E+00  0.93827000000E+00 0. -1.
     999902    2    1    2    0    0 -0.63531803049E-02  0.21656172023E-01 -0.56983220721E-02  0.10206528962E+01  0.10203874318E+01 0.  0.
     999903    2    3    3    0    0  0.83387500781E-01 -0.78545273505E-01 -0.55734394559E-01  0.12902666954E+00  0.20462732930E-01 0.  0.
         14    1    1    2    0    0  0.63531803049E-02 -0.21656172023E-01  0.56983220721E-02  0.23277103796E-01  0.00000000000E+00 0. -1.
     999901    1    3    3    0    0 -0.89740681086E-01  0.10020144553E+00  0.50036072486E-01  0.89162622667E+00  0.88000000000E+00 0. -1.
        -11    1    4    4    0    0  0.34182427835E-01 -0.28345897959E-01 -0.11158579304E-01  0.45789773060E-01  0.51100000000E-03 0. -1.
         11    1    4    4    0    0  0.49205072946E-01 -0.50199375545E-01 -0.44575815254E-01  0.83236896479E-01  0.51100000000E-03 0.  1.
</event>
<event>
 7    1  0.1321491E+005  0.1043930E+01  0.7957747E-01            NaN
         13   -1    0    0    0    0  0.00000000000E+00  0.00000000000E+00  0.74505805969E-08  0.10566000000E+00  0.10566000000E+00 0.  1.
     999900   -1    0    0    0    0 -0.00000000000E+00 -0.00000000000E+00 -0.74505805969E-08  0.93827000000E+00  0.93827000000E+00 0. -1.
     999903    2    1    2    0    0  0.59272716005E-01 -0.32647663584E-01 -0.75513091250E-01  0.10426453350E+00  0.24284587615E-01 0.  0.
         14    1    1    2    0    0 -0.24480966987E-01 -0.23810459960E-01 -0.36622221057E-01  0.50074372919E-01  0.00000000000E+00 0. -1.
     999901    1    1    2    0    0 -0.34791749018E-01  0.56458123544E-01  0.11213531231E+00  0.88959109358E+00  0.88000000000E+00 0.  1.
        -11    1    3    3    0    0  0.39265054043E-01 -0.79980755351E-02 -0.44383483933E-01  0.59798565604E-01  0.51100000000E-03 0.  1.
         11    1    3    3    0    0  0.20007661961E-01 -0.24649588049E-01 -0.31129607317E-01  0.44465967895E-01  0.51100000000E-03 0. -1.
</event>
<event>
 8    1  0.1109553E+005  0.1043930E+01  0.7957747E-01            NaN
         13   -1    0    0    0    0  0.00000000000E+00  0.00000000000E+00  0.74505805969E-08  0.10566000000E+00  0.10566000000E+00 0. -1.
     999900   -1    0    0    0    0 -0.00000000000E+00 -0.00000000000E+00 -0.74505805969E-08  0.93827000000E+00  0.93827000000E+00 0.  1.
     999902    2    1    2    0    0  0.55117178243E-02 -0.21669258187E-01  0.76032164232E-02  0.10203133812E+01  0.10200400243E+01 0.  0.
     999903    2    3    3    0    0 -0.12748159432E+00 -0.20027849371E-01  0.91501521438E-02  0.13031770238E+00  0.15694159057E-01 0.  0.
         14    1    1    2    0    0 -0.55117178243E-02  0.21669258187E-01 -0.76032164232E-02  0.23616618804E-01  0.00000000000E+00 0. -1.
     999901    1    3    3    0    0  0.13299331215E+00 -0.16414088166E-02 -0.15469357206E-02  0.88999567881E+00  0.88000000000E+00 0. -1.
        -11    1    4    4    0    0 -0.86554989332E-01 -0.11419925285E-01 -0.86206881482E-03  0.87310853594E-01  0.51100000000E-03 0. -1.
         11    1    4    4    0    0 -0.40926604990E-01 -0.86079240862E-02  0.10012220959E-01  0.43006848787E-01  0.51100000000E-03 0.  1.
</event>
<event>
 8    1  0.1109553E+005  0.1043930E+01  0.7957747E-01            NaN
         13   -1    0    0    0    0  0.00000000000E+00  0.00000000000E+00  0.74505805969E-08  0.10566000000E+00  0.10566000000E+00 0. -1.
     999900   -1    0    0    0    0 -0.00000000000E+00 -0.00000000000E+00 -0.74505805969E-08  0.93827000000E+00  0.93827000000E+00 0.  1.
     999902    2    1    2    0    0  0.16573274223E-01 -0.88044871484E-02  0.14730320390E-01  0.10200726164E+01  0.10197935909E+01 0.  0.
     999903    2    3    3    0    0 -0.40299387677E-01  0.11812591469E+00 -0.22735858060E-01  0.12836103687E+00  0.19541345310E-01 0.  0.
         14    1    1    2    0    0 -0.16573274223E-01  0.88044871484E-02 -0.14730320390E-01  0.23857383579E-01  0.00000000000E+00 0.  1.
     999901    1    3    3    0    0  0.56872661900E-01 -0.12693040183E+00  0.37466178450E-01  0.89171157955E+00  0.88000000000E+00 0. -1.
        -11    1    4    4    0    0 -0.37130969866E-01  0.96131187261E-01 -0.12235635999E-01  0.10377806125E+00  0.51100000000E-03 0.  1.
         11    1    4    4    0    0 -0.31684178111E-02  0.21994727426E-01 -0.10500222061E-01  0.24582975619E-01  0.51100000000E-03 0. -1.
</event>
<event>
 8    1  0.1109553E+005  0.1043930E+01  0.7957747E-01            NaN
         13   -1    0    0    0    0  0.00000000000E+00  0.00000000000E+00  0.74505805969E-08  0.10566000000E+00  0.10566000000E+00 0.  1.
     999900   -1    0    0    0    0 -0.00000000000E+00 -0.00000000000E+00 -0.74505805969E-08  0.93827000000E+00  0.93827000000E+00 0. -1.
     999902    2    1    2    0    0  0.46295663050E-02  0.21067142893E-01 -0.76625173983E-02  0.10210395748E+01  0.10207829552E+01 0.  0.
     999903    2    3    3    0    0  0.48721988169E-01  0.13969516716E-01 -0.12102719822E+00  0.13264435371E+00  0.19441253386E-01 0.  0.
         14    1    1    2    0    0 -0.46295663050E-02 -0.21067142893E-01  0.76625173983E-02  0.22890425219E-01  0.00000000000E+00 0. -1.
     999901    1    3    3    0    0 -0.44092421864E-01  0.70976261769E-02  0.11336468082E+00  0.88839522107E+00  0.88000000000E+00 0. -1.
        -11    1    4    4    0    0  0.36166032734E-01  0.47599910609E-02 -0.10020082437E+00  0.10663538701E+00  0.51100000000E-03 0.  1.
         11    1    4    4    0    0  0.12555955435E-01  0.92095256550E-02 -0.20826373854E-01  0.26008966695E-01  0.51100000000E-03 0. -1.
</event>
<event>
 8    1  0.1109553E+005  0.1043930E+01  0.7957747E-01            NaN
         13   -1    0    0    0    0  0.00000000000E+00  0.00000000000E+00  0.74505805969E-08  0.10566000000E+00  0.10566000000E+00 0.  1.
     999900   -1    0    0    0    0 -0.00000000000E+00 -0.00000000000E+00 -0.74505805969E-08  0.93827000000E+00  0.93827000000E+00 0.  1.
     999902    2    1    2    0    0  0.47916829182E-02 -0.64209134683E-02  0.21508505506E-01  0.10209777852E+01  0.10207197626E+01 0.  0.
     999903    2    3    3    0    0  0.32139640768E-01  0.73724462857E-01  0.10422629531E+00  0.13305131027E+00  0.19268564991E-01 0.  0.
         14    1    1    2    0    0 -0.47916829182E-02  0.64209134683E-02 -0.21508505506E-01  0.22952214796E-01  0.00000000000E+00 0. -1.
     999901    1    3    3    0    0 -0.27347957850E-01 -0.80145376326E-01 -0.82717789806E-01  0.88792647494E+00  0.88000000000E+00 0.  1.
        -11    1    4    4    0    0  0.13695692659E-01  0.52709247901E-01  0.73878487990E-01  0.91783053557E-01  0.51100000000E-03 0.  1.
         11    1    4    4    0    0  0.18443948109E-01  0.21015214957E-01  0.30347807322E-01  0.41268256709E-01  0.51100000000E-03 0. -1.
</event>
<event>
 8    1  0.1109553E+005  0.1043930E+01  0.7957747E-01            NaN
         13   -1    0    0    0    0  0.00000000000E+00  0.00000000000E+00  0.74505805969E-08  0.10566000000E+00  0.10566000000E+00 0. -1.
     999900   -1    0    0    0    0 -0.00000000000E+00 -0.00000000000E+00 -0.74505805969E-08  0.93827000000E+00  0.93827000000E+00 0.  1.
     999902    2    1    2    0    0  0.22948487815E-01 -0.33899428977E-02 -0.48975526586E-02  0.10202211234E+01  0.10199456014E+01 0.  0.
     999903    2    3    3    0    0  0.83540800509E-01  0.71230826328E-01 -0.71366915148E-01  0.13249489103E+00  0.20217902997E-01 0.  0.
         14    1    1    2    0    0 -0.22948487815E-01  0.33899428977E-02  0.48975526586E-02  0.23708876563E-01  0.00000000000E+00 0.  1.
     999901    1    3    3    0    0 -0.60592312694E-01 -0.74620769226E-01  0.66469362489E-01  0.88772623241E+00  0.88000000000E+00 0. -1.
        -11    1    4    4    0    0  0.36393302418E-01  0.37720156204E-01 -0.44301195068E-01  0.68630457163E-01  0.51100000000E-03 0.  1.
         11    1    4    4    0    0  0.47147498090E-01  0.33510670124E-01 -0.27065720080E-01  0.63864433864E-01  0.51100000000E-03 0. -1.
</event>
<event>
 8    1  0.1109553E+005  0.1043930E+01  0.7957747E-01            NaN
         13   -1    0    0    0    0  0.00000000000E+00  0.00000000000E+00  0.74505805969E-08  0.10566000000E+00  0.10566000000E+00 0.  1.
     999900   -1    0    0    0    0 -0.00000000000E+00 -0.00000000000E+00 -0.74505805969E-08  0.93827000000E+00  0.93827000000E+00 0.  1.
     999902    2    1    2    0    0 -0.69946418917E-02 -0.45929810139E-02 -0.21399252440E-01  0.10209528702E+01  0.10206942807E+01 0.  0.
     999903    2    3    3    0    0 -0.45714516547E-01  0.10475040610E-01 -0.12412735988E+00  0.13400341388E+00  0.18702137897E-01 0.  0.
         14    1    1    2    0    0  0.69946418917E-02  0.45929810139E-02  0.21399252440E-01  0.22977129820E-01  0.00000000000E+00 0.  1.
     999901    1    3    3    0    0  0.38719874655E-01 -0.15068021624E-01  0.10272810744E+00  0.88694945630E+00  0.88000000000E+00 0. -1.
        -11    1    4    4    0    0 -0.24899316087E-01  0.14878588127E-01 -0.77387127676E-01  0.82646094748E-01  0.51100000000E-03 0. -1.
         11    1    4    4    0    0 -0.20815200460E-01 -0.44035475169E-02 -0.46740232206E-01  0.51357319133E-01  0.51100000000E-03 0.  1.
</event>
<event>
 8    1  0.1109553E+005  0.1043930E+01  0.7957747E-01            NaN
         13   -1    0    0    0    0  0.00000000000E+00  0.00000000000E+00  0.74505805969E-08  0.10566000000E+00  0.10566000000E+00 0.  1.
     999900   -1    0    0    0    0 -0.00000000000E+00 -0.00000000000E+00 -0.74505805969E-08  0.93827000000E+00  0.93827000000E+00 0. -1.
     999902    2    1    2    0    0  0.18121745035E-02 -0.14387573320E-01  0.18433193368E-01  0.10204764531E+01  0.10202069018E+01 0.  0.
     999903    2    3    3    0    0  0.54773026841E-01  0.27306805521E-01  0.11587224060E+00  0.13253634197E+00  0.19843379320E-01 0.  0.
         14    1    1    2    0    0 -0.18121745035E-02  0.14387573320E-01 -0.18433193368E-01  0.23453546858E-01  0.00000000000E+00 0. -1.
     999901    1    3    3    0    0 -0.52960852338E-01 -0.41694378841E-01 -0.97439047234E-01  0.88794011117E+00  0.88000000000E+00 0. -1.
        -11    1    4    4    0    0  0.12610078999E-01  0.12095234368E-01  0.49047960726E-01  0.52069879577E-01  0.51100000000E-03 0. -1.
         11    1    4    4    0    0  0.42162947842E-01  0.15211571153E-01  0.66824279876E-01  0.80466462390E-01  0.51100000000E-03 0.  1.
</event>
<event>
 8    1  0.1109553E+005  0.1043930E+01  0.7957747E-01            NaN
         13   -1    0    0    0    0  0.00000000000E+00  0.00000000000E+00  0.74505805969E-08  0.10566000000E+00  0.10566000000E+00 0. -1.
     999900   -1    0    0    0    0 -0.00000000000E+00 -0.00000000000E+00 -0.74505805969E-08  0.93827000000E+00  0.93827000000E+00 0. -1.
     999902    2    1    2    0    0 -0.17488005204E-01 -0.77880168874E-02 -0.14002534388E-01  0.10202117686E+01  0.10199360265E+01 0.  0.
     999903    2    3    3    0    0  0.11155731855E+00  0.38460880151E-01  0.45103968272E-01  0.12763951115E+00  0.18253827778E-01 0.  0.
         14    1    1    2    0    0  0.17488005204E-01  0.77880168874E-02  0.14002534388E-01  0.23718231434E-01  0.00000000000E+00 0. -1.
     999901    1    3    3    0    0 -0.12904532375E+00 -0.46248897038E-01 -0.59106502660E-01  0.89257225742E+00  0.88000000000E+00 0. -1.
        -11    1    4    4    0    0  0.97928920385E-01  0.27412186431E-01  0.36091648336E-01  0.10790908031E+00  0.51100000000E-03 0. -1.
         11    1    4    4    0    0  0.13628398161E-01  0.11048693720E-01  0.90123199364E-02  0.19730430836E-01  0.51100000000E-03 0.  1.
</event>
<event>
 8    1  0.1109553E+005  0.1043930E+01  0.7957747E-01            NaN
         13   -1    0    0    0    0  0.00000000000E+00  0.00000000000E+00  0.74505805969E-08  0.10566000000E+00  0.10566000000E+00 0. -1.
     999900   -1    0    0    0    0 -0.00000000000E+00 -0.00000000000E+00 -0.74505805969E-08  0.93827000000E+00  0.93827000000E+00 0.  1.
     999902    2    1    2    0    0 -0.77886658467E-02 -0.21530265900E-01 -0.66500725251E-02  0.10200880385E+01  0.10198093778E+01 0.  0.
     999903    2    3    3    0    0 -0.79555502038E-01 -0.10273586996E+00 -0.23619216295E-01  0.13327758479E+00  0.17925131712E-01 0.  0.
         14    1    1    2    0    0  0.77886658467E-02  0.21530265900E-01  0.66500725251E-02  0.23841961538E-01  0.00000000000E+00 0. -1.
     999901    1    3    3    0    0  0.71766836191E-01  0.81205604061E-01  0.16969143770E-01  0.88681045368E+00  0.88000000000E+00 0.  1.
        -11    1    4    4    0    0 -0.25627976667E-01 -0.47411275969E-01 -0.10520784522E-01  0.54914208589E-01  0.51100000000E-03 0. -1.
         11    1    4    4    0    0 -0.53927525371E-01 -0.55324593992E-01 -0.13098431773E-01  0.78363376197E-01  0.51100000000E-03 0.  1.
</event>
<event>
 8    1  0.1109553E+005  0.1043930E+01  0.7957747E-01            NaN
         13   -1    0    0    0    0  0.00000000000E+00  0.00000000000E+00  0.74505805969E-08  0.10566000000E+00  0.10566000000E+00 0.  1.
     999900   -1    0    0    0    0 -0.00000000000E+00 -0.00000000000E+00 -0.74505805969E-08  0.93827000000E+00  0.93827000000E+00 0.  1.
     999902    2    1    2    0    0 -0.20854153647E-01 -0.11822504518E-01  0.13366084707E-02  0.10199205465E+01  0.10196379099E+01 0.  0.
     999903    2    3    3    0    0 -0.69930309688E-01  0.10611500910E+00 -0.21846909165E-01  0.13039527885E+00  0.19364863456E-01 0.  0.
         14    1    1    2    0    0  0.20854153647E-01  0.11822504518E-01 -0.13366084707E-02  0.24009453546E-01  0.00000000000E+00 0.  1.
     999901    1    3    3    0    0  0.49076156041E-01 -0.11793751362E+00  0.23183517636E-01  0.88952526760E+00  0.88000000000E+00 0.  1.
        -11    1    4    4    0    0 -0.56113963394E-01  0.86256636853E-01 -0.25258607506E-01  0.10595868376E+00  0.51100000000E-03 0.  1.
         11    1    4    4    0    0 -0.13816346294E-01  0.19858372251E-01  0.34116983407E-02  0.24436595097E-01  0.51100000000E-03 0. -1.
</event>
<event>
 8    1  0.1109553E+005  0.1043930E+01  0.7957747E-01            NaN
         13   -1    0    0    0    0  0.00000000000E+00  0.00000000000E+00  0.74505805969E-08  0.10566000000E+00  0.10566000000E+00 0. -1.
     999900   -1    0    0    0    0 -0.00000000000E+00 -0.00000000000E+00 -0.74505805969E-08  0.93827000000E+00  0.93827000000E+00 0.  1.
     999902    2    1    2    0    0  0.74667120598E-02 -0.21359293545E-01 -0.74262395137E-02  0.10201157135E+01  0.10198377070E+01 0.  0.
     999903    2    3    3    0    0  0.88070782570E-01 -0.97403403459E-01 -0.11987657948E-01  0.13315431105E+00  0.18506238436E-01 0.  0.
         14    1    1    2    0    0 -0.74667120598E-02  0.21359293545E-01  0.74262395137E-02  0.23814286532E-01  0.00000000000E+00 0. -1.
     999901    1    3    3    0    0 -0.80604070511E-01  0.76044109914E-01  0.45614184347E-02  0.88696140241E+00  0.88000000000E+00 0. -1.
        -11    1    4    4    0    0  0.19295501525E-01 -0.18091556300E-01  0.46617215433E-02  0.26862865767E-01  0.51100000000E-03 0.  1.
         11    1    4    4    0    0  0.68775281045E-01 -0.79311847159E-01 -0.16649379492E-01  0.10629144529E+00  0.51100000000E-03 0. -1.
</event>
<event>
 8    1  0.1109553E+005  0.1043930E+01  0.7957747E-01            NaN
         13   -1    0    0    0    0  0.00000000000E+00  0.00000000000E+00  0.74505805969E-08  0.10566000000E+00  0.10566000000E+00 0.  1.
     999900   -1    0    0    0    0 -0.00000000000E+00 -0.00000000000E+00 -0.74505805969E-08  0.93827000000E+00  0.93827000000E+00 0. -1.
     999902    2    1    2    0    0 -0.12932047883E-01  0.13876874420E-01 -0.14636798516E-01  0.10199708394E+01  0.10196893997E+01 0.  0.
     999903    2    3    3    0    0 -0.96273118518E-01 -0.61907400351E-01  0.58416264375E-01  0.12978785801E+00  0.18204081263E-01 0.  0.
         14    1    1    2    0    0  0.12932047883E-01 -0.13876874420E-01  0.14636798516E-01  0.23959160606E-01  0.00000000000E+00 0.  1.
     999901    1    3    3    0    0  0.83341070635E-01  0.75784274771E-01 -0.73053062891E-01  0.89018298139E+00  0.88000000000E+00 0.  1.
        -11    1    4    4    0    0 -0.52748793999E-01 -0.25995424353E-01  0.36719044007E-01  0.69330705098E-01  0.51100000000E-03 0.  1.
         11    1    4    4    0    0 -0.43524324519E-01 -0.35911975998E-01  0.21697220368E-01  0.60457152907E-01  0.51100000000E-03 0. -1.
</event>
<event>
 8    1  0.1109553E+005  0.1043930E+01  0.7957747E-01            NaN
         13   -1    0    0    0    0  0.00000000000E+00  0.00000000000E+00  0.74505805969E-08  0.10566000000E+00  0.10566000000E+00 0.  1.
     999900   -1    0    0    0    0 -0.00000000000E+00 -0.00000000000E+00 -0.74505805969E-08  0.93827000000E+00  0.93827000000E+00 0. -1.
     999902    2    1    2    0    0 -0.21099418085E-01  0.11974742278E-02 -0.11335841169E-01  0.10199483261E+01  0.10196663509E+01 0.  0.
     999903    2    3    3    0    0  0.62384633565E-01  0.11062950630E+00 -0.12502660743E-01  0.12924842266E+00  0.20447690925E-01 0.  0.
         14    1    1    2    0    0  0.21099418085E-01 -0.11974742278E-02  0.11335841169E-01  0.23981673900E-01  0.00000000000E+00 0.  1.
     999901    1    3    3    0    0 -0.83484051650E-01 -0.10943203207E+00  0.11668195743E-02  0.89069990344E+00  0.88000000000E+00 0.  1.
        -11    1    4    4    0    0  0.53509052401E-01  0.10106541716E+00 -0.56394632114E-02  0.11449673315E+00  0.51100000000E-03 0. -1.
         11    1    4    4    0    0  0.88755811641E-02  0.95640891420E-02 -0.68631975318E-02  0.14751689513E-01  0.51100000000E-03 0.  1.
</event>
<event>
 8    1  0.1109553E+005  0.1043930E+01  0.7957747E-01            NaN
         13   -1    0    0    0    0  0.00000000000E+00  0.00000000000E+00  0.74505805969E-08  0.10566000000E+00  0.10566000000E+00 0.  1.
     999900   -1    0    0    0    0 -0.00000000000E+00 -0.00000000000E+00 -0.74505805969E-08  0.93827000000E+00  0.93827000000E+00 0. -1.
     999902    2    1    2    0    0  0.40384575667E-02 -0.97548105802E-02  0.20697651297E-01  0.10206951504E+01  0.10204306599E+01 0.  0.
     999903    2    3    3    0    0 -0.85260595718E-01  0.88375504190E-01 -0.34107314544E-01  0.12906323982E+00  0.20357112882E-01 0.  0.
         14    1    1    2    0    0 -0.40384575667E-02  0.97548105802E-02 -0.20697651297E-01  0.23234849649E-01  0.00000000000E+00 0. -1.
     999901    1    3    3    0    0  0.89299053284E-01 -0.98130314770E-01  0.54804965841E-01  0.89163191053E+00  0.88000000000E+00 0.  1.
        -11    1    4    4    0    0 -0.33000640262E-01  0.46496113993E-01 -0.21360793321E-01  0.60889042417E-01  0.51100000000E-03 0. -1.
         11    1    4    4    0    0 -0.52259955455E-01  0.41879390197E-01 -0.12746521223E-01  0.68174197405E-01  0.51100000000E-03 0.  1.
</event>
<event>
 8    1  0.1109553E+005  0.1043930E+01  0.7957747E-01            NaN
         13   -1    0    0    0    0  0.00000000000E+00  0.00000000000E+00  0.74505805969E-08  0.10566000000E+00  0.10566000000E+00 0.  1.
     999900   -1    0    0    0    0 -0.00000000000E+00 -0.00000000000E+00 -0.74505805969E-08  0.93827000000E+00  0.93827000000E+00 0.  1.
     999902    2    1    2    0    0 -0.65337597216E-02 -0.21622221043E-01  0.71409793909E-02  0.10202402544E+01  0.10199651821E+01 0.  0.
     999903    2    3    3    0    0 -0.63519990617E-01  0.85583927855E-01 -0.69579785354E-01  0.12859757677E+00  0.18346452106E-01 0.  0.
         14    1    1    2    0    0  0.65337597216E-02  0.21622221043E-01 -0.71409793909E-02  0.23689745579E-01  0.00000000000E+00 0.  1.
     999901    1    3    3    0    0  0.56986230896E-01 -0.10720614890E+00  0.76720764745E-01  0.89164267766E+00  0.88000000000E+00 0. -1.
        -11    1    4    4    0    0 -0.34491292578E-01  0.44732360443E-01 -0.47611676763E-01  0.73876696053E-01  0.51100000000E-03 0. -1.
         11    1    4    4    0    0 -0.29028698039E-01  0.40851567413E-01 -0.21968108591E-01  0.54720880713E-01  0.51100000000E-03 0.  1.
</event>
<event>
 8    1  0.1109553E+005  0.1043930E+01  0.7957747E-01            NaN
         13   -1    0    0    0    0  0.00000000000E+00  0.00000000000E+00  0.74505805969E-08  0.10566000000E+00  0.10566000000E+00 0.  1.
     999900   -1    0    0    0    0 -0.00000000000E+00 -0.00000000000E+00 -0.74505805969E-08  0.93827000000E+00  0.93827000000E+00 0.  1.
     999902    2    1    2    0    0 -0.23475885168E-01 -0.15670149887E-02 -0.33367583059E-02  0.10201664423E+01  0.10198896329E+01 0.  0.
     999903    2    3    3    0    0  0.23023238589E-01 -0.89619098558E-01  0.88838697772E-01  0.12976672717E+00  0.19632547398E-01 0.  0.
         14    1    1    2    0    0  0.23475885168E-01  0.15670149887E-02  0.33367583059E-02  0.23763557738E-01  0.00000000000E+00 0.  1.
     999901    1    3    3    0    0 -0.46499123757E-01  0.88052083570E-01 -0.92175456078E-01  0.89039971509E+00  0.88000000000E+00 0. -1.
        -11    1    4    4    0    0  0.24549493208E-01 -0.75773528973E-01  0.68193869928E-01  0.10485690405E+00  0.51100000000E-03 0.  1.
         11    1    4    4    0    0 -0.15262546193E-02 -0.13845569585E-01  0.20644827844E-01  0.24909823123E-01  0.51100000000E-03 0. -1.
</event>
<event>
 8    1  0.1109553E+005  0.1043930E+01  0.7957747E-01            NaN
         13   -1    0    0    0    0  0.00000000000E+00  0.00000000000E+00  0.74505805969E-08  0.10566000000E+00  0.10566000000E+00 0. -1.
     999900   -1    0    0    0    0 -0.00000000000E+00 -0.00000000000E+00 -0.74505805969E-08  0.93827000000E+00  0.93827000000E+00 0.  1.
     999902    2    1    2    0    0 -0.31672156964E-02  0.23072122146E-01 -0.60834252732E-04  0.10206414239E+01  0.10203756947E+01 0.  0.
     999903    2    3    3    0    0 -0.25266265673E-01 -0.11741654992E+00  0.40183875043E-01  0.12831577056E+00  0.20619475897E-01 0.  0.
         14    1    1    2    0    0  0.31672156964E-02 -0.23072122146E-01  0.60834252732E-04  0.23288576092E-01  0.00000000000E+00 0.  1.
     999901    1    3    3    0    0  0.22099049977E-01  0.14048867206E+00 -0.40244709296E-01  0.89232565334E+00  0.88000000000E+00 0. -1.
        -11    1    4    4    0    0 -0.53078018354E-02 -0.72075039553E-01  0.25586635602E-01  0.76667601562E-01  0.51100000000E-03 0. -1.
         11    1    4    4    0    0 -0.19958463838E-01 -0.45341510366E-01  0.14597239441E-01  0.51648169002E-01  0.51100000000E-03 0.  1.
</event>
<event>
 8    1  0.1109553E+005  0.1043930E+01  0.7957747E-01            NaN
         13   -1    0    0    0    0  0.00000000000E+00  0.00000000000E+00  0.74505805969E-08  0.10566000000E+00  0.10566000000E+00 0. -1.
     999900   -1    0    0    0    0 -0.00000000000E+00 -0.00000000000E+00 -0.74505805969E-08  0.93827000000E+00  0.93827000000E+00 0. -1.
     999902    2    1    2    0    0  0.12369976986E-01 -0.18458290645E-01 -0.10070477019E-01  0.10195345223E+01  0.10192426124E+01 0.  0.
     999903    2    3    3    0    0  0.10960509738E+00 -0.62005334824E-01 -0.35683662668E-01  0.13273857680E+00  0.22096766071E-01 0.  0.
         14    1    1    2    0    0 -0.12369976986E-01  0.18458290645E-01  0.10070477019E-01  0.24395477687E-01  0.00000000000E+00 0. -1.
     999901    1    3    3    0    0 -0.97235120398E-01  0.43547044180E-01  0.25613185649E-01  0.88679594551E+00  0.88000000000E+00 0.  1.
        -11    1    4    4    0    0  0.80212434864E-01 -0.49755883438E-01 -0.35624881404E-01  0.10089140667E+00  0.51100000000E-03 0.  1.
         11    1    4    4    0    0  0.29392662520E-01 -0.12249451387E-01 -0.58781264315E-04  0.31847170134E-01  0.51100000000E-03 0. -1.
</event>
<event>
 8    1  0.1109553E+005  0.1043930E+01  0.7957747E-01            NaN
         13   -1    0    0    0    0  0.00000000000E+00  0.00000000000E+00  0.74505805969E-08  0.10566000000E+00  0.10566000000E+00 0.  1.
     999900   -1    0    0    0    0 -0.00000000000E+00 -0.00000000000E+00 -0.74505805969E-08  0.93827000000E+00  0.93827000000E+00 0.  1.
     999902    2    1    2    0    0  0.18951326354E-02  0.23808825259E-01  0.41528222896E-02  0.10196875244E+01  0.10193993084E+01 0.  0.
     999903    2    3    3    0    0 -0.10536513841E+00 -0.24540536359E-01 -0.67136267023E-01  0.12899983464E+00  0.20727485917E-01 0.  0.
         14    1    1    2    0    0 -0.18951326354E-02 -0.23808825259E-01 -0.41528222896E-02  0.24242475552E-01  0.00000000000E+00 0. -1.
     999901    1    3    3    0    0  0.10726027104E+00  0.48349361618E-01  0.71289089313E-01  0.89068768980E+00  0.88000000000E+00 0. -1.
        -11    1    4    4    0    0 -0.83560468551E-01 -0.10513114318E-01 -0.51410658129E-01  0.98672155989E-01  0.51100000000E-03 0.  1.
         11    1    4    4    0    0 -0.21804669854E-01 -0.14027422040E-01 -0.15725608894E-01  0.30327678655E-01  0.51100000000E-03 0. -1.
</event>
<event>
 8    1  0.1109553E+005  0.1043930E+01  0.7957747E-01            NaN
         13   -1    0    0    0    0  0.00000000000E+00  0.00000000000E+00  0.74505805969E-08  0.10566000000E+00  0.10566000000E+00 0. -1.
     999900   -1    0    0    0    0 -0.00000000000E+00 -0.00000000000E+00 -0.74505805969E-08  0.93827000000E+00  0.93827000000E+00 0. -1.
     999902    2    1    2    0    0 -0.18167526475E-01  0.15273194356E-01 -0.63106963148E-02  0.10193707986E+01  0.10190749093E+01 0.  0.
     999903    2    3    3    0    0  0.71666354430E-01  0.92543874829E-01  0.51810444556E-01  0.12952870520E+00  0.19822416100E-01 0.  0.
         14    1    1    2    0    0  0.18167526475E-01 -0.15273194356E-01  0.63106963148E-02  0.24559201372E-01  0.00000000000E+00 0. -1.
     999901    1    3    3    0    0 -0.89833880905E-01 -0.77270680473E-01 -0.58121140871E-01  0.88984209343E+00  0.88000000000E+00 0. -1.
        -11    1    4    4    0    0  0.11341539557E-01  0.18106400941E-01  0.17959636565E-02  0.21446651977E-01  0.51100000000E-03 0. -1.
         11    1    4    4    0    0  0.60324814872E-01  0.74437473888E-01  0.50014480900E-01  0.10808205322E+00  0.51100000000E-03 0.  1.
</event>
<event>
 8    1  0.1109553E+005  0.1043930E+01  0.7957747E-01            NaN
         13   -1    0    0    0    0  0.00000000000E+00  0.00000000000E+00  0.74505805969E-08  0.10566000000E+00  0.10566000000E+00 0. -1.
     999900   -1    0    0    0    0 -0.00000000000E+00 -0.00000000000E+00 -0.74505805969E-08  0.93827000000E+00  0.93827000000E+00 0. -1.
     999902    2    1    2    0    0 -0.24042368267E-02 -0.17688364919E-01  0.16899852466E-01  0.10193482258E+01  0.10190517857E+01 0.  0.
     999903    2    3    3    0    0  0.93500103057E-01  0.61807450094E-01 -0.57321178896E-01  0.12748165032E+00  0.20085404119E-01 0.  0.
         14    1    1    2    0    0  0.24042368267E-02  0.17688364919E-01 -0.16899852466E-01  0.24581774175E-01  0.00000000000E+00 0.  1.
     999901    1    3    3    0    0 -0.95904339884E-01 -0.79495815013E-01  0.74221031361E-01  0.89186657551E+00  0.88000000000E+00 0.  1.
        -11    1    4    4    0    0  0.55552373729E-01  0.48066304454E-01 -0.35307957192E-01  0.81506740904E-01  0.51100000000E-03 0. -1.
         11    1    4    4    0    0  0.37947729329E-01  0.13741145640E-01 -0.22013221704E-01  0.45974909412E-01  0.51100000000E-03 0.  1.
</event>
<event>
 8    1  0.1109553E+005  0.1043930E+01  0.7957747E-01            NaN
         13   -1    0    0    0    0  0.00000000000E+00  0.00000000000E+00  0.74505805969E-08  0.10566000000E+00  0.10566000000E+00 0.  1.
     999900   -1    0    0    0    0 -0.00000000000E+00 -0.00000000000E+00 -0.74505805969E-08  0.93827000000E+00  0.93827000000E+00 0. -1.
     999902    2    1    2    0    0 -0.23134713923E-01 -0.84334085188E-02  0.16569134921E-02  0.10192503985E+01  0.10189515652E+01 0.  0.
     999903    2    3    3    0    0 -0.95667775701E-01 -0.85741729320E-01  0.25839621350E-01  0.13255855526E+00  0.20002926972E-01 0.  0.
         14    1    1    2    0    0  0.23134713923E-01  0.84334085188E-02 -0.16569134921E-02  0.24679601493E-01  0.00000000000E+00 0. -1.
     999901    1    3    3    0    0  0.72533061778E-01  0.77308320802E-01 -0.24182707857E-01  0.88669184324E+00  0.88000000000E+00 0.  1.
        -11    1    4    4    0    0 -0.15033149451E-01 -0.62646615969E-02 -0.55016034126E-03  0.16303538411E-01  0.51100000000E-03 0.  1.
         11    1    4    4    0    0 -0.80634626250E-01 -0.79477067724E-01  0.26389781691E-01  0.11625501685E+00  0.51100000000E-03 0. -1.
</event>
<event>
 8    1  0.1109553E+005  0.1043930E+01  0.7957747E-01            NaN
         13   -1    0    0    0    0  0.00000000000E+00  0.00000000000E+00  0.74505805969E-08  0.10566000000E+00  0.10566000000E+00 0.  1.
     999900   -1    0    0    0    0 -0.00000000000E+00 -0.00000000000E+00 -0.74505805969E-08  0.93827000000E+00  0.93827000000E+00 0.  1.
     999902    2    1    2    0    0  0.21394288964E-01 -0.11077683630E-01  0.12918898011E-02  0.10198032585E+01  0.10195178206E+01 0.  0.
     999903    2    3    3    0    0 -0.44852222952E-01  0.72128864885E-01 -0.93819480026E-01  0.12831119309E+00  0.21151179342E-01 0.  0.
         14    1    1    2    0    0 -0.21394288964E-01  0.11077683630E-01 -0.12918898011E-02  0.24126741474E-01  0.00000000000E+00 0. -1.
     999901    1    3    3    0    0  0.66246511916E-01 -0.83206548515E-01  0.95111369827E-01  0.89149206543E+00  0.88000000000E+00 0. -1.
        -11    1    4    4    0    0 -0.24787773438E-01  0.55333922118E-01 -0.72804343551E-01  0.94747085496E-01  0.51100000000E-03 0. -1.
         11    1    4    4    0    0 -0.20064449513E-01  0.16794942767E-01 -0.21015136475E-01  0.33564107599E-01  0.51100000000E-03 0.  1.
</event>
<event>
 8    1  0.1109553E+005  0.1043930E+01  0.7957747E-01            NaN
         13   -1    0    0    0    0  0.00000000000E+00  0.00000000000E+00  0.74505805969E-08  0.10566000000E+00  0.10566000000E+00 0. -1.
     999900   -1    0    0    0    0 -0.00000000000E+00 -0.00000000000E+00 -0.74505805969E-08  0.93827000000E+00  0.93827000000E+00 0.  1.
     999902    2    1    2    0    0  0.19566670349E-01 -0.10404856927E-01  0.89363734413E-02  0.10200349292E+01  0.10197550110E+01 0.  0.
     999903    2    3    3    0    0 -0.28114297955E-01  0.57515900740E-01  0.11154151205E+00  0.13019532655E+00  0.20268733482E-01 0.  0.
         14    1    1    2    0    0 -0.19566670349E-01  0.10404856927E-01 -0.89363734413E-02  0.23895070757E-01  0.00000000000E+00 0.  1.
     999901    1    3    3    0    0  0.47680968304E-01 -0.67920757666E-01 -0.10260513861E+00  0.88983960270E+00  0.88000000000E+00 0.  1.
        -11    1    4    4    0    0  0.23720081864E-02  0.67888532160E-02  0.19259903450E-01  0.20565017693E-01  0.51100000000E-03 0. -1.
         11    1    4    4    0    0 -0.30486306141E-01  0.50727047524E-01  0.92281608598E-01  0.10963030885E+00  0.51100000000E-03 0.  1.
</event>
<event>
 8    1  0.1109553E+005  0.1043930E+01  0.7957747E-01            NaN
         13   -1    0    0    0    0  0.00000000000E+00  0.00000000000E+00  0.74505805969E-08  0.10566000000E+00  0.10566000000E+00 0. -1.
     999900   -1    0    0    0    0 -0.00000000000E+00 -0.00000000000E+00 -0.74505805969E-08  0.93827000000E+00  0.93827000000E+00 0. -1.
     999902    2    1    2    0    0  0.18954944017E-01 -0.13858022520E-01 -0.15602718694E-02  0.10203977001E+01  0.10201263143E+01 0.  0.
     999903    2    3    3    0    0 -0.50654484318E-01 -0.99219704982E-01 -0.66160464344E-01  0.13118159912E+00  0.20517754950E-01 0.  0.
         14    1    1    2    0    0 -0.18954944017E-01  0.13858022520E-01  0.15602718694E-02  0.23532299912E-01  0.00000000000E+00 0. -1.
     999901    1    3    3    0    0  0.69609428335E-01  0.85361682462E-01  0.64600192475E-01  0.88921610096E+00  0.88000000000E+00 0.  1.
        -11    1    4    4    0    0 -0.56464881319E-02 -0.16794893180E-01 -0.19371248947E-01  0.26257526006E-01  0.51100000000E-03 0. -1.
         11    1    4    4    0    0 -0.45007996186E-01 -0.82424811801E-01 -0.46789215397E-01  0.10492407312E+00  0.51100000000E-03 0.  1.
</event>
<event>
 8    1  0.1109553E+005  0.1043930E+01  0.7957747E-01            NaN
         13   -1    0    0    0    0  0.00000000000E+00  0.00000000000E+00  0.74505805969E-08  0.10566000000E+00  0.10566000000E+00 0. -1.
     999900   -1    0    0    0    0 -0.00000000000E+00 -0.00000000000E+00 -0.74505805969E-08  0.93827000000E+00  0.93827000000E+00 0.  1.
     999902    2    1    2    0    0  0.10124276755E-01 -0.19184929907E-01  0.10157884814E-01  0.10199770223E+01  0.10196957296E+01 0.  0.
     999903    2    3    3    0    0 -0.96454941508E-01 -0.84347199998E-01  0.17878600914E-01  0.13112109437E+00  0.21332865018E-01 0.  0.
         14    1    1    2    0    0 -0.10124276755E-01  0.19184929907E-01 -0.10157884814E-01  0.23952977670E-01  0.00000000000E+00 0.  1.
     999901    1    3    3    0    0  0.10657921826E+00  0.65162270091E-01 -0.77207161001E-02  0.88885592796E+00  0.88000000000E+00 0.  1.
        -11    1    4    4    0    0 -0.65931768562E-01 -0.43911613205E-01  0.11819535037E-01  0.80094883791E-01  0.51100000000E-03 0. -1.
         11    1    4    4    0    0 -0.30523172946E-01 -0.40435586793E-01  0.60590658774E-02  0.51026210581E-01  0.51100000000E-03 0.  1.
</event>
<event>
 8    1  0.1109553E+005  0.1043930E+01  0.7957747E-01            NaN
         13   -1    0    0    0    0  0.00000000000E+00  0.00000000000E+00  0.74505805969E-08  0.10566000000E+00  0.10566000000E+00 0.  1.
     999900   -1    0    0    0    0 -0.00000000000E+00 -0.00000000000E+00 -0.74505805969E-08  0.93827000000E+00  0.93827000000E+00 0. -1.
     999902    2    1    2    0    0  0.15019248334E-01  0.62686597988E-02 -0.16951961477E-01  0.10204301508E+01  0.10201595217E+01 0.  0.
     999903    2    3    3    0    0 -0.63991304415E-01 -0.29426361767E-01  0.10465432660E+00  0.12784688221E+00  0.20772563772E-01 0.  0.
         14    1    1    2    0    0 -0.15019248334E-01 -0.62686597988E-02  0.16951961477E-01  0.23499849236E-01  0.00000000000E+00 0.  1.
     999901    1    3    3    0    0  0.79010552749E-01  0.35695021566E-01 -0.12160628808E+00  0.89258326856E+00  0.88000000000E+00 0. -1.
        -11    1    4    4    0    0 -0.24728263312E-01 -0.20485110502E-01  0.35915787236E-01  0.48180199797E-01  0.51100000000E-03 0. -1.
         11    1    4    4    0    0 -0.39263041103E-01 -0.89412512649E-02  0.68738539365E-01  0.79666682408E-01  0.51100000000E-03 0.  1.
</event>
<event>
 8    1  0.1109553E+005  0.1043930E+01  0.7957747E-01            NaN
         13   -1    0    0    0    0  0.00000000000E+00  0.00000000000E+00  0.74505805969E-08  0.10566000000E+00  0.10566000000E+00 0.  1.
     999900   -1    0    0    0    0 -0.00000000000E+00 -0.00000000000E+00 -0.74505805969E-08  0.93827000000E+00  0.93827000000E+00 0.  1.
     999902    2    1    2    0    0  0.93551621859E-02  0.19120399161E-01 -0.10220257411E-01  0.10203172411E+01  0.10200439745E+01 0.  0.
     999903    2    3    3    0    0  0.12508421424E+00  0.52889404067E-02  0.35003698323E-01  0.13148107566E+00  0.19697228651E-01 0.  0.
         14    1    1    2    0    0 -0.93551621859E-02 -0.19120399161E-01  0.10220257411E-01  0.23612758948E-01  0.00000000000E+00 0.  1.
     999901    1    3    3    0    0 -0.11572905206E+00  0.13831458755E-01 -0.45223955733E-01  0.88883616539E+00  0.88000000000E+00 0.  1.
        -11    1    4    4    0    0  0.89029399419E-01 -0.47822259606E-02  0.27439792414E-01  0.93286156394E-01  0.51100000000E-03 0.  1.
         11    1    4    4    0    0  0.36054814823E-01  0.10071166367E-01  0.75639059082E-02  0.38194919263E-01  0.51100000000E-03 0. -1.
</event>
<event>
 8    1  0.1109553E+005  0.1043930E+01  0.7957747E-01            NaN
         13   -1    0    0    0    0  0.00000000000E+00  0.00000000000E+00  0.74505805969E-08  0.10566000000E+00  0.10566000000E+00 0. -1.
     999900   -1    0    0    0    0 -0.00000000000E+00 -0.00000000000E+00 -0.74505805969E-08  0.93827000000E+00  0.93827000000E+00 0. -1.
     999902    2    1    2    0    0 -0.17974603748E-01 -0.14317618903E-01 -0.40678843906E-02  0.10205927278E+01  0.10203258733E+01 0.  0.
     999903    2    3    3    0    0  0.20109272000E-01  0.12494747545E+00 -0.13932045106E-01  0.12877298716E+00  0.19290565096E-01 0.  0.
         14    1    1    2    0    0  0.17974603748E-01  0.14317618903E-01  0.40678843906E-02  0.23337272214E-01  0.00000000000E+00 0. -1.
     999901    1    3    3    0    0 -0.38083875748E-01 -0.13926509435E+00  0.98641607151E-02  0.89181974062E+00  0.88000000000E+00 0. -1.
        -11    1    4    4    0    0  0.12897529596E-01  0.64918677190E-01 -0.16642520033E-01  0.68249655763E-01  0.51100000000E-03 0.  1.
         11    1    4    4    0    0  0.72117424049E-02  0.60028798256E-01  0.27104749271E-02  0.60523331401E-01  0.51100000000E-03 0. -1.
</event>
<event>
 8    1  0.1109553E+005  0.1043930E+01  0.7957747E-01            NaN
         13   -1    0    0    0    0  0.00000000000E+00  0.00000000000E+00  0.74505805969E-08  0.10566000000E+00  0.10566000000E+00 0.  1.
     999900   -1    0    0    0    0 -0.00000000000E+00 -0.00000000000E+00 -0.74505805969E-08  0.93827000000E+00  0.93827000000E+00 0. -1.
     999902    2    1    2    0    0  0.10369231569E-01 -0.23383998628E-01 -0.10544178600E-01  0.10162621114E+01  0.10158854104E+01 0.  0.
     999903    2    3    3    0    0 -0.26558068859E-02 -0.12787685363E+00 -0.10828569554E-01  0.12998422654E+00  0.20471888705E-01 0.  0.
         14    1    1    2    0    0 -0.10369231569E-01  0.23383998628E-01  0.10544178600E-01  0.27667888562E-01  0.00000000000E+00 0. -1.
     999901    1    3    3    0    0  0.13025038455E-01  0.10449285500E+00  0.28439095390E-03  0.88627788489E+00  0.88000000000E+00 0. -1.
        -11    1    4    4    0    0  0.47358116119E-02 -0.65550972102E-01  0.26952009420E-02  0.65779047456E-01  0.51100000000E-03 0.  1.
         11    1    4    4    0    0 -0.73916184977E-02 -0.62325881528E-01 -0.13523770496E-01  0.64205179088E-01  0.51100000000E-03 0. -1.
</event>
<event>
 8    1  0.1109553E+005  0.1043930E+01  0.7957747E-01            NaN
         13   -1    0    0    0    0  0.00000000000E+00  0.00000000000E+00  0.74505805969E-08  0.10566000000E+00  0.10566000000E+00 0.  1.
     999900   -1    0    0    0    0 -0.00000000000E+00 -0.00000000000E+00 -0.74505805969E-08  0.93827000000E+00  0.93827000000E+00 0.  1.
     999902    2    1    2    0    0 -0.80221244741E-02  0.20187786526E-01  0.69315120672E-02  0.10211276522E+01  0.10208730259E+01 0.  0.
     999903    2    3    3    0    0  0.35413544534E-01  0.54182995546E-01  0.11427312862E+00  0.13289088521E+00  0.20290966053E-01 0.  0.
         14    1    1    2    0    0  0.80221244741E-02 -0.20187786526E-01 -0.69315120672E-02  0.22802347805E-01  0.00000000000E+00 0. -1.
     999901    1    3    3    0    0 -0.43435669009E-01 -0.33995209020E-01 -0.10734161656E+00  0.88823676698E+00  0.88000000000E+00 0.  1.
        -11    1    4    4    0    0  0.11815954441E-01  0.33329598039E-01  0.49148511774E-01  0.60550113256E-01  0.51100000000E-03 0. -1.
         11    1    4    4    0    0  0.23597590094E-01  0.20853397506E-01  0.65124616851E-01  0.72340771953E-01  0.51100000000E-03 0.  1.
</event>
<event>
 8    1  0.1109553E+005  0.1043930E+01  0.7957747E-01            NaN
         13   -1    0    0    0    0  0.00000000000E+00  0.00000000000E+00  0.74505805969E-08  0.10566000000E+00  0.10566000000E+00 0.  1.
     999900   -1    0    0    0    0 -0.00000000000E+00 -0.00000000000E+00 -0.74505805969E-08  0.93827000000E+00  0.93827000000E+00 0.  1.
     999902    2    1    2    0    0 -0.14515802296E-01 -0.17155101588E-01 -0.85139039406E-02  0.10198989246E+01  0.10196157726E+01 0.  0.
     999903    2    3    3    0    0 -0.10972895640E+00 -0.39858982339E-01 -0.60532752714E-01  0.13294516502E+00  0.19519743994E-01 0.  0.
         14    1    1    2    0    0  0.14515802296E-01  0.17155101588E-01  0.85139039406E-02  0.24031075446E-01  0.00000000000E+00 0.  1.
     999901    1    3    3    0    0  0.95213154108E-01  0.22703880750E-01  0.52018848773E-01  0.88695375953E+00  0.88000000000E+00 0. -1.
        -11    1    4    4    0    0 -0.27995390935E-01 -0.81198403518E-02 -0.62349313885E-02  0.29812903437E-01  0.51100000000E-03 0. -1.
         11    1    4    4    0    0 -0.81733565468E-01 -0.31739141987E-01 -0.54297821326E-01  0.10313226159E+00  0.51100000000E-03 0.  1.
</event>
<event>
 8    1  0.1109553E+005  0.1043930E+01  0.7957747E-01            NaN
         13   -1    0    0    0    0  0.00000000000E+00  0.00000000000E+00  0.74505805969E-08  0.10566000000E+00  0.10566000000E+00 0.  1.
     999900   -1    0    0    0    0 -0.00000000000E+00 -0.00000000000E+00 -0.74505805969E-08  0.93827000000E+00  0.93827000000E+00 0.  1.
     999902    2    1    2    0    0 -0.89732730928E-02  0.11927222742E-01  0.19562932118E-01  0.10193233630E+01  0.10190263155E+01 0.  0.
     999903    2    3    3    0    0  0.11212298923E+00 -0.57671523131E-01  0.14112927603E-01  0.12829138111E+00  0.19024574800E-01 0.  0.
         14    1    1    2    0    0  0.89732730928E-02 -0.11927222742E-01 -0.19562932118E-01  0.24606637019E-01  0.00000000000E+00 0. -1.
     999901    1    3    3    0    0 -0.12109626232E+00  0.69598745874E-01  0.54500045143E-02  0.89103198188E+00  0.88000000000E+00 0. -1.
        -11    1    4    4    0    0  0.26329202878E-01 -0.18771527659E-01  0.10567650957E-01  0.34022544622E-01  0.51100000000E-03 0. -1.
         11    1    4    4    0    0  0.85793786352E-01 -0.38899995472E-01  0.35452766459E-02  0.94268836483E-01  0.51100000000E-03 0.  1.
</event>
<event>
 8    1  0.1109553E+005  0.1043930E+01  0.7957747E-01            NaN
         13   -1    0    0    0    0  0.00000000000E+00  0.00000000000E+00  0.74505805969E-08  0.10566000000E+00  0.10566000000E+00 0. -1.
     999900   -1    0    0    0    0 -0.00000000000E+00 -0.00000000000E+00 -0.74505805969E-08  0.93827000000E+00  0.93827000000E+00 0.  1.
     999902    2    1    2    0    0  0.10448761945E-01  0.19823845609E-01 -0.62871132192E-02  0.10206557809E+01  0.10203903831E+01 0.  0.
     999903    2    3    3    0    0  0.73898440765E-01 -0.69643286111E-01  0.80092074572E-01  0.12964983623E+00  0.91199110293E-02 0.  0.
         14    1    1    2    0    0 -0.10448761945E-01 -0.19823845609E-01  0.62871132192E-02  0.23274219075E-01  0.00000000000E+00 0.  1.
     999901    1    3    3    0    0 -0.63449678820E-01  0.89467131720E-01 -0.86379187791E-01  0.89100594470E+00  0.88000000000E+00 0.  1.
        -11    1    4    4    0    0  0.44662443813E-01 -0.38236819966E-01  0.41836376658E-01  0.72161844636E-01  0.51100000000E-03 0. -1.
         11    1    4    4    0    0  0.29235996952E-01 -0.31406466145E-01  0.38255697913E-01  0.57487991593E-01  0.51100000000E-03 0.  1.
</event>
<event>
 8    1  0.1109553E+005  0.1043930E+01  0.7957747E-01            NaN
         13   -1    0    0    0    0  0.00000000000E+00  0.00000000000E+00  0.74505805969E-08  0.10566000000E+00  0.10566000000E+00 0. -1.
     999900   -1    0    0    0    0 -0.00000000000E+00 -0.00000000000E+00 -0.74505805969E-08  0.93827000000E+00  0.93827000000E+00 0.  1.
     999902    2    1    2    0    0  0.56563613409E-02 -0.22946384092E-01  0.64082550338E-03  0.10202880537E+01  0.10200141033E+01 0.  0.
     999903    2    3    3    0    0 -0.38592698260E-01 -0.11454147417E+00 -0.50773158573E-01  0.13293748176E+00  0.22029860643E-01 0.  0.
         14    1    1    2    0    0 -0.56563613409E-02  0.22946384092E-01 -0.64082550338E-03  0.23641946278E-01  0.00000000000E+00 0.  1.
     999901    1    3    3    0    0  0.44249059600E-01  0.91595090083E-01  0.51413984077E-01  0.88735057196E+00  0.88000000000E+00 0. -1.
        -11    1    4    4    0    0 -0.33476100287E-01 -0.65713381951E-01 -0.31341995256E-01  0.80134135333E-01  0.51100000000E-03 0.  1.
         11    1    4    4    0    0 -0.51165979726E-02 -0.48828092224E-01 -0.19431163317E-01  0.52803346427E-01  0.51100000000E-03 0. -1.
</event>
<event>
 8    1  0.1109553E+005  0.1043930E+01  0.7957747E-01            NaN
         13   -1    0    0    0    0  0.00000000000E+00  0.00000000000E+00  0.74505805969E-08  0.10566000000E+00  0.10566000000E+00 0. -1.
     999900   -1    0    0    0    0 -0.00000000000E+00 -0.00000000000E+00 -0.74505805969E-08  0.93827000000E+00  0.93827000000E+00 0. -1.
     999902    2    1    2    0    0 -0.78356860255E-02  0.44332492190E-02 -0.21822297151E-01  0.10203235533E+01  0.10200504346E+01 0.  0.
     999903    2    3    3    0    0 -0.75467936102E-01  0.72137427337E-01 -0.80146256676E-01  0.13321608445E+00  0.20588465095E-01 0.  0.
         14    1    1    2    0    0  0.78356860255E-02 -0.44332492190E-02  0.21822297151E-01  0.23606446727E-01  0.00000000000E+00 0. -1.
     999901    1    3    3    0    0  0.67632250076E-01 -0.67704178118E-01  0.58323959525E-01  0.88710746882E+00  0.88000000000E+00 0.  1.
        -11    1    4    4    0    0 -0.38411170845E-01  0.49354120255E-01 -0.52638905715E-01  0.81745720057E-01  0.51100000000E-03 0. -1.
         11    1    4    4    0    0 -0.37056765257E-01  0.22783307082E-01 -0.27507350961E-01  0.51470364393E-01  0.51100000000E-03 0.  1.
</event>
<event>
 8    1  0.1109553E+005  0.1043930E+01  0.7957747E-01            NaN
         13   -1    0    0    0    0  0.00000000000E+00  0.00000000000E+00  0.74505805969E-08  0.10566000000E+00  0.10566000000E+00 0.  1.
     999900   -1    0    0    0    0 -0.00000000000E+00 -0.00000000000E+00 -0.74505805969E-08  0.93827000000E+00  0.93827000000E+00 0. -1.
     999902    2    1    2    0    0  0.46352411243E-02  0.19601534210E-01  0.82399347011E-02  0.10221675983E+01  0.10219359065E+01 0.  0.
     999903    2    3    3    0    0 -0.10941334180E+00  0.42532150595E-01 -0.57163998542E-01  0.13210548423E+00  0.20096592637E-01 0.  0.
         14    1    1    2    0    0 -0.46352411243E-02 -0.19601534210E-01 -0.82399347011E-02  0.21762401696E-01  0.00000000000E+00 0.  1.
     999901    1    3    3    0    0  0.11404858292E+00 -0.22930616384E-01  0.65403933243E-01  0.89006211408E+00  0.88000000000E+00 0. -1.
        -11    1    4    4    0    0 -0.41137094582E-01  0.25076599335E-01 -0.28840177721E-01  0.56152589939E-01  0.51100000000E-03 0.  1.
         11    1    4    4    0    0 -0.68276247216E-01  0.17455551260E-01 -0.28323820820E-01  0.75952894287E-01  0.51100000000E-03 0. -1.
</event>
<event>
 8    1  0.1109553E+005  0.1043930E+01  0.7957747E-01            NaN
         13   -1    0    0    0    0  0.00000000000E+00  0.00000000000E+00  0.74505805969E-08  0.10566000000E+00  0.10566000000E+00 0.  1.
     999900   -1    0    0    0    0 -0.00000000000E+00 -0.00000000000E+00 -0.74505805969E-08  0.93827000000E+00  0.93827000000E+00 0.  1.
     999902    2    1    2    0    0 -0.13042382921E-02 -0.23115980048E-01 -0.47010807237E-02  0.10203048073E+01  0.10200312495E+01 0.  0.
     999903    2    3    3    0    0 -0.47098919218E-01 -0.11161837854E+00  0.51070336403E-01  0.13292648981E+00  0.19603617382E-01 0.  0.
         14    1    1    2    0    0  0.13042382921E-02  0.23115980048E-01  0.47010807237E-02  0.23625192721E-01  0.00000000000E+00 0. -1.
     999901    1    3    3    0    0  0.45794680926E-01  0.88502398492E-01 -0.55771417126E-01  0.88737831747E+00  0.88000000000E+00 0.  1.
        -11    1    4    4    0    0 -0.33575575015E-01 -0.54545663012E-01  0.27728985209E-01  0.69797609793E-01  0.51100000000E-03 0.  1.
         11    1    4    4    0    0 -0.13523344203E-01 -0.57072715528E-01  0.23341351194E-01  0.63128880021E-01  0.51100000000E-03 0. -1.
</event>
<event>
 8    1  0.1109553E+005  0.1043930E+01  0.7957747E-01            NaN
         13   -1    0    0    0    0  0.00000000000E+00  0.00000000000E+00  0.74505805969E-08  0.10566000000E+00  0.10566000000E+00 0.  1.
     999900   -1    0    0    0    0 -0.00000000000E+00 -0.00000000000E+00 -0.74505805969E-08  0.93827000000E+00  0.93827000000E+00 0. -1.
     999902    2    1    2    0    0  0.21011023967E-01  0.19034991157E-01 -0.11518210549E-01  0.10133283139E+01  0.10128661356E+01 0.  0.
     999903    2    3    3    0    0 -0.34862373072E-02  0.61702269114E-01 -0.10882911313E+00  0.12659835267E+00  0.19079915381E-01 0.  0.
         14    1    1    2    0    0 -0.21011023967E-01 -0.19034991157E-01  0.11518210549E-01  0.30601686077E-01  0.00000000000E+00 0.  1.
     999901    1    3    3    0    0  0.24497261274E-01 -0.42667277957E-01  0.97310902579E-01  0.88672996125E+00  0.88000000000E+00 0.  1.
        -11    1    4    4    0    0 -0.18988713451E-02  0.21728791524E-01 -0.57628263821E-01  0.61619996798E-01  0.51100000000E-03 0.  1.
         11    1    4    4    0    0 -0.15873659621E-02  0.39973477591E-01 -0.51200849307E-01  0.64978355875E-01  0.51100000000E-03 0. -1.
</event>
<event>
 8    1  0.1109553E+005  0.1043930E+01  0.7957747E-01            NaN
         13   -1    0    0    0    0  0.00000000000E+00  0.00000000000E+00  0.74505805969E-08  0.10566000000E+00  0.10566000000E+00 0. -1.
     999900   -1    0    0    0    0 -0.00000000000E+00 -0.00000000000E+00 -0.74505805969E-08  0.93827000000E+00  0.93827000000E+00 0. -1.
     999902    2    1    2    0    0  0.18975307517E-01  0.14163670501E-01  0.57723508396E-02  0.10195580511E+01  0.10192667108E+01 0.  0.
     999903    2    3    3    0    0  0.40566619457E-01 -0.11874499278E+00  0.23592650167E-01  0.12913766693E+00  0.19336492821E-01 0.  0.
         14    1    1    2    0    0 -0.18975307517E-01 -0.14163670501E-01 -0.57723508396E-02  0.24371948868E-01  0.00000000000E+00 0. -1.
     999901    1    3    3    0    0 -0.21591311940E-01  0.13290866328E+00 -0.17820299328E-01  0.89042038420E+00  0.88000000000E+00 0.  1.
        -11    1    4    4    0    0  0.14792470837E-01 -0.51773940523E-01  0.19463167144E-01  0.57257611783E-01  0.51100000000E-03 0.  1.
         11    1    4    4    0    0  0.25774148620E-01 -0.66971052257E-01  0.41294830235E-02  0.71880055151E-01  0.51100000000E-03 0. -1.
</event>
<event>
 8    1  0.1109553E+005  0.1043930E+01  0.7957747E-01            NaN
         13   -1    0    0    0    0  0.00000000000E+00  0.00000000000E+00  0.74505805969E-08  0.10566000000E+00  0.10566000000E+00 0.  1.
     999900   -1    0    0    0    0 -0.00000000000E+00 -0.00000000000E+00 -0.74505805969E-08  0.93827000000E+00  0.93827000000E+00 0.  1.
     999902    2    1    2    0    0 -0.81179569958E-02 -0.19828236193E-01  0.99363338248E-02  0.10203124026E+01  0.10200390228E+01 0.  0.
     999903    2    3    3    0    0  0.15175582936E-01 -0.32050886657E-02  0.12967640094E+00  0.13174242692E+00  0.17306853521E-01 0.  0.
         14    1    1    2    0    0  0.81179569958E-02  0.19828236193E-01 -0.99363338248E-02  0.23617597384E-01  0.00000000000E+00 0.  1.
     999901    1    3    3    0    0 -0.23293539932E-01 -0.16623147527E-01 -0.11974006712E+00  0.88856997570E+00  0.88000000000E+00 0.  1.
        -11    1    4    4    0    0  0.53524926839E-03 -0.76309340152E-02  0.34323634281E-01  0.35169456024E-01  0.51100000000E-03 0. -1.
         11    1    4    4    0    0  0.14640333668E-01  0.44258453495E-02  0.95352766660E-01  0.96572970896E-01  0.51100000000E-03 0.  1.
</event>
<event>
 8    1  0.1109553E+005  0.1043930E+01  0.7957747E-01            NaN
         13   -1    0    0    0    0  0.00000000000E+00  0.00000000000E+00  0.74505805969E-08  0.10566000000E+00  0.10566000000E+00 0. -1.
     999900   -1    0    0    0    0 -0.00000000000E+00 -0.00000000000E+00 -0.74505805969E-08  0.93827000000E+00  0.93827000000E+00 0.  1.
     999902    2    1    2    0    0  0.20185403970E-01  0.75841689084E-02  0.78342766908E-02  0.10209877673E+01  0.10207299716E+01 0.  0.
     999903    2    3    3    0    0  0.87064985142E-01  0.92815582707E-01 -0.34731789608E-01  0.13332277287E+00  0.19329266041E-01 0.  0.
         14    1    1    2    0    0 -0.20185403970E-01 -0.75841689084E-02 -0.78342766908E-02  0.22942232732E-01  0.00000000000E+00 0. -1.
     999901    1    3    3    0    0 -0.66879581172E-01 -0.85231413799E-01  0.42566066299E-01  0.88766499440E+00  0.88000000000E+00 0. -1.
        -11    1    4    4    0    0  0.10908365243E-01  0.11322847384E-01 -0.11245269767E-01  0.19336921117E-01  0.51100000000E-03 0. -1.
         11    1    4    4    0    0  0.76156619899E-01  0.81492735324E-01 -0.23486519841E-01  0.11398585175E+00  0.51100000000E-03 0.  1.
</event>
<event>
 8    1  0.1109553E+005  0.1043930E+01  0.7957747E-01            NaN
         13   -1    0    0    0    0  0.00000000000E+00  0.00000000000E+00  0.74505805969E-08  0.10566000000E+00  0.10566000000E+00 0.  1.
     999900   -1    0    0    0    0 -0.00000000000E+00 -0.00000000000E+00 -0.74505805969E-08  0.93827000000E+00  0.93827000000E+00 0.  1.
     999902    2    1    2    0    0  0.15731515484E-01 -0.15496383938E-01  0.72536624650E-02  0.10206870631E+01  0.10204223864E+01 0.  0.
     999903    2    3    3    0    0 -0.10178633522E+00 -0.45317411829E-01 -0.63156601857E-01  0.12958811002E+00  0.19753380667E-01 0.  0.
         14    1    1    2    0    0 -0.15731515484E-01  0.15496383938E-01 -0.72536624650E-02  0.23242936857E-01  0.00000000000E+00 0.  1.
     999901    1    3    3    0    0  0.11751785070E+00  0.29821027890E-01  0.70410264322E-01  0.89109895312E+00  0.88000000000E+00 0. -1.
        -11    1    4    4    0    0 -0.66717555986E-01 -0.39688380185E-01 -0.43786146589E-01  0.89128489006E-01  0.51100000000E-03 0.  1.
         11    1    4    4    0    0 -0.35068779232E-01 -0.56290316440E-02 -0.19370455268E-01  0.40459621012E-01  0.51100000000E-03 0. -1.
</event>
<event>
 8    1  0.1109553E+005  0.1043930E+01  0.7957747E-01            NaN
         13   -1    0    0    0    0  0.00000000000E+00  0.00000000000E+00  0.74505805969E-08  0.10566000000E+00  0.10566000000E+00 0. -1.
     999900   -1    0    0    0    0 -0.00000000000E+00 -0.00000000000E+00 -0.74505805969E-08  0.93827000000E+00  0.93827000000E+00 0.  1.
     999902    2    1    2    0    0 -0.19082076650E-01 -0.12403168557E-01 -0.61216464069E-02  0.10203622510E+01  0.10200900374E+01 0.  0.
     999903    2    3    3    0    0  0.12117861612E+00 -0.55849265506E-02  0.35446304679E-01  0.12825942903E+00  0.21876750449E-01 0.  0.
         14    1    1    2    0    0  0.19082076650E-01  0.12403168557E-01  0.61216464069E-02  0.23567749028E-01  0.00000000000E+00 0. -1.
     999901    1    3    3    0    0 -0.14026069277E+00 -0.68182420069E-02 -0.41567951086E-01  0.89210282194E+00  0.88000000000E+00 0.  1.
        -11    1    4    4    0    0  0.96796942005E-01 -0.12481990608E-01  0.24339254350E-01  0.10058880899E+00  0.51100000000E-03 0. -1.
         11    1    4    4    0    0  0.24381674115E-01  0.68970640570E-02  0.11107050329E-01  0.27670620038E-01  0.51100000000E-03 0.  1.
</event>
<event>
 8    1  0.1109553E+005  0.1043930E+01  0.7957747E-01            NaN
         13   -1    0    0    0    0  0.00000000000E+00  0.00000000000E+00  0.74505805969E-08  0.10566000000E+00  0.10566000000E+00 0. -1.
     999900   -1    0    0    0    0 -0.00000000000E+00 -0.00000000000E+00 -0.74505805969E-08  0.93827000000E+00  0.93827000000E+00 0.  1.
     999902    2    1    2    0    0 -0.30434902921E-02 -0.40674497698E-02 -0.23917468801E-01  0.10194789817E+01  0.10191857249E+01 0.  0.
     999903    2    3    3    0    0  0.33145984158E-01  0.32286157927E-01  0.11650200688E+00  0.12687106556E+00  0.19557541012E-01 0.  0.
         14    1    1    2    0    0  0.30434902921E-02  0.40674497698E-02  0.23917468801E-01  0.24451018274E-01  0.00000000000E+00 0. -1.
     999901    1    3    3    0    0 -0.36189474450E-01 -0.36353607697E-01 -0.14041947568E+00  0.89260791617E+00  0.88000000000E+00 0.  1.
        -11    1    4    4    0    0 -0.30199574570E-03  0.71626250434E-02  0.90139601686E-02  0.11528529736E-01  0.51100000000E-03 0. -1.
         11    1    4    4    0    0  0.33447979904E-01  0.25123532883E-01  0.10748804671E+00  0.11534253582E+00  0.51100000000E-03 0.  1.
</event>
<event>
 8    1  0.1109553E+005  0.1043930E+01  0.7957747E-01            NaN
         13   -1    0    0    0    0  0.00000000000E+00  0.00000000000E+00  0.74505805969E-08  0.10566000000E+00  0.10566000000E+00 0. -1.
     999900   -1    0    0    0    0 -0.00000000000E+00 -0.00000000000E+00 -0.74505805969E-08  0.93827000000E+00  0.93827000000E+00 0.  1.
     999902    2    1    2    0    0  0.21137535321E-01 -0.18503413101E-02 -0.10196043095E-01  0.10203890048E+01  0.10201174161E+01 0.  0.
     999903    2    3    3    0    0 -0.42115852985E-01 -0.89247410377E-01  0.81059413264E-01  0.12911643302E+00  0.19015242953E-01 0.  0.
         14    1    1    2    0    0 -0.21137535321E-01  0.18503413101E-02  0.10196043095E-01  0.23540995247E-01  0.00000000000E+00 0. -1.
     999901    1    3    3    0    0  0.63253388307E-01  0.87397069067E-01 -0.91255456360E-01  0.89127257174E+00  0.88000000000E+00 0.  1.
        -11    1    4    4    0    0 -0.36328283454E-01 -0.68460817258E-01  0.71728827836E-01  0.10560262091E+00  0.51100000000E-03 0. -1.
         11    1    4    4    0    0 -0.57875695306E-02 -0.20786593119E-01  0.93305854283E-02  0.23513812111E-01  0.51100000000E-03 0.  1.
</event>
<event>
 8    1  0.1109553E+005  0.1043930E+01  0.7957747E-01            NaN
         13   -1    0    0    0    0  0.00000000000E+00  0.00000000000E+00  0.74505805969E-08  0.10566000000E+00  0.10566000000E+00 0.  1.
     999900   -1    0    0    0    0 -0.00000000000E+00 -0.00000000000E+00 -0.74505805969E-08  0.93827000000E+00  0.93827000000E+00 0. -1.
     999902    2    1    2    0    0  0.47114512385E-03  0.23079169865E-01  0.68612748720E-02  0.10198479081E+01  0.10195635382E+01 0.  0.
     999903    2    3    3    0    0  0.56228453432E-01 -0.37942121408E-01 -0.10729999461E+00  0.12863229393E+00  0.20778225290E-01 0.  0.
         14    1    1    2    0    0 -0.47114512385E-03 -0.23079169865E-01 -0.68612748720E-02  0.24082091941E-01  0.00000000000E+00 0.  1.
     999901    1    3    3    0    0 -0.55757308308E-01  0.61021291273E-01  0.11416126948E+00  0.89121561413E+00  0.88000000000E+00 0.  1.
        -11    1    4    4    0    0  0.20355455549E-01 -0.25503872838E-01 -0.43392345123E-01  0.54295016684E-01  0.51100000000E-03 0.  1.
         11    1    4    4    0    0  0.35872997883E-01 -0.12438248570E-01 -0.63907649485E-01  0.74337277246E-01  0.51100000000E-03 0. -1.
</event>
<event>
 8    1  0.1109553E+005  0.1043930E+01  0.7957747E-01            NaN
         13   -1    0    0    0    0  0.00000000000E+00  0.00000000000E+00  0.74505805969E-08  0.10566000000E+00  0.10566000000E+00 0.  1.
     999900   -1    0    0    0    0 -0.00000000000E+00 -0.00000000000E+00 -0.74505805969E-08  0.93827000000E+00  0.93827000000E+00 0.  1.
     999902    2    1    2    0    0 -0.12231707947E-01 -0.21390642611E-01  0.87299391828E-02  0.10177883453E+01  0.10174525688E+01 0.  0.
     999903    2    3    3    0    0  0.98286989258E-01 -0.77259573709E-01  0.24386427524E-01  0.12897967890E+00  0.20290040294E-01 0.  0.
         14    1    1    2    0    0  0.12231707947E-01  0.21390642611E-01 -0.87299391828E-02  0.26141654668E-01  0.00000000000E+00 0. -1.
     999901    1    3    3    0    0 -0.11051869721E+00  0.55868931098E-01 -0.15656488341E-01  0.88880866643E+00  0.88000000000E+00 0. -1.
        -11    1    4    4    0    0  0.43512111859E-01 -0.32291106760E-01  0.20720101659E-01  0.58013818939E-01  0.51100000000E-03 0.  1.
         11    1    4    4    0    0  0.54774877399E-01 -0.44968466950E-01  0.36663258650E-02  0.70965859963E-01  0.51100000000E-03 0. -1.
</event>
<event>
 8    1  0.1109553E+005  0.1043930E+01  0.7957747E-01            NaN
         13   -1    0    0    0    0  0.00000000000E+00  0.00000000000E+00  0.74505805969E-08  0.10566000000E+00  0.10566000000E+00 0. -1.
     999900   -1    0    0    0    0 -0.00000000000E+00 -0.00000000000E+00 -0.74505805969E-08  0.93827000000E+00  0.93827000000E+00 0.  1.
     999902    2    1    2    0    0  0.11623624920E-01 -0.39053301254E-02 -0.68810360333E-02  0.10298690997E+01  0.10297731079E+01 0.  0.
     999903    2    3    3    0    0  0.19825509509E-01 -0.48669958505E-01 -0.12851682678E+00  0.14033753286E+00  0.20401781190E-01 0.  0.
         14    1    1    2    0    0 -0.11623624920E-01  0.39053301254E-02  0.68810360333E-02  0.14060900275E-01  0.00000000000E+00 0. -1.
     999901    1    3    3    0    0 -0.82018845894E-02  0.44764628379E-01  0.12163579074E+00  0.88953156687E+00  0.88000000000E+00 0. -1.
        -11    1    4    4    0    0  0.21842850699E-01 -0.40590672035E-01 -0.11934781087E+00  0.12794089989E+00  0.51100000000E-03 0. -1.
         11    1    4    4    0    0 -0.20173411898E-02 -0.80792864701E-02 -0.91690159010E-02  0.12396632968E-01  0.51100000000E-03 0.  1.
</event>
<event>
 7    1  0.1109553E+005  0.1043930E+01  0.7957747E-01            NaN
         13   -1    0    0    0    0  0.00000000000E+00  0.00000000000E+00  0.74505805969E-08  0.10566000000E+00  0.10566000000E+00 0. -1.
     999900   -1    0    0    0    0 -0.00000000000E+00 -0.00000000000E+00 -0.74505805969E-08  0.93827000000E+00  0.93827000000E+00 0.  1.
     999903    2    1    2    0    0 -0.89867671059E-01  0.52690440512E-01  0.17998202168E-01  0.10757382964E+00  0.19892529214E-01 0.  0.
         14    1    1    2    0    0  0.39440184300E-01  0.11750638875E-02 -0.35525892399E-01  0.53094236444E-01  0.00000000000E+00 0.  1.
     999901    1    1    2    0    0  0.50427486759E-01 -0.53865504400E-01  0.17527690231E-01  0.88326193392E+00  0.88000000000E+00 0. -1.
        -11    1    3    3    0    0 -0.62633770200E-01  0.28628230476E-01  0.52885043809E-02  0.69070935633E-01  0.51100000000E-03 0.  1.
         11    1    3    3    0    0 -0.27233900859E-01  0.24062210037E-01  0.12709697787E-01  0.38502894004E-01  0.51100000000E-03 0. -1.
</event>
<event>
 8    1  0.1109553E+005  0.1043930E+01  0.7957747E-01            NaN
         13   -1    0    0    0    0  0.00000000000E+00  0.00000000000E+00  0.74505805969E-08  0.10566000000E+00  0.10566000000E+00 0.  1.
     999900   -1    0    0    0    0 -0.00000000000E+00 -0.00000000000E+00 -0.74505805969E-08  0.93827000000E+00  0.93827000000E+00 0.  1.
     999902    2    1    2    0    0 -0.19497046091E-01 -0.11171100039E-01 -0.73375048302E-02  0.10202917416E+01  0.10200178777E+01 0.  0.
     999903    2    3    3    0    0  0.51851927171E-01  0.84832750915E-01  0.78424631338E-01  0.12806836186E+00  0.19127585563E-01 0.  0.
         14    1    1    2    0    0  0.19497046091E-01  0.11171100039E-01  0.73375048302E-02  0.23638258386E-01  0.00000000000E+00 0.  1.
     999901    1    3    3    0    0 -0.71348973262E-01 -0.96003850954E-01 -0.85762136168E-01  0.89222337976E+00  0.88000000000E+00 0.  1.
        -11    1    4    4    0    0  0.31502556621E-01  0.52725909102E-01  0.59841028712E-01  0.85753381289E-01  0.51100000000E-03 0. -1.
         11    1    4    4    0    0  0.20349370550E-01  0.32106841813E-01  0.18583602626E-01  0.42314980569E-01  0.51100000000E-03 0.  1.
</event>
<event>
 8    1  0.1109553E+005  0.1043930E+01  0.7957747E-01            NaN
         13   -1    0    0    0    0  0.00000000000E+00  0.00000000000E+00  0.74505805969E-08  0.10566000000E+00  0.10566000000E+00 0.  1.
     999900   -1    0    0    0    0 -0.00000000000E+00 -0.00000000000E+00 -0.74505805969E-08  0.93827000000E+00  0.93827000000E+00 0.  1.
     999902    2    1    2    0    0 -0.14974455930E-01 -0.65882170224E-02 -0.16655586665E-01  0.10205837476E+01  0.10203166853E+01 0.  0.
     999903    2    3    3    0    0  0.74852623186E-01  0.76155637995E-01 -0.72290214448E-01  0.13040923578E+00  0.19444723594E-01 0.  0.
         14    1    1    2    0    0  0.14974455930E-01  0.65882170224E-02  0.16655586665E-01  0.23346252399E-01  0.00000000000E+00 0.  1.
     999901    1    3    3    0    0 -0.89827079116E-01 -0.82743855018E-01  0.55634627782E-01  0.89017451182E+00  0.88000000000E+00 0. -1.
        -11    1    4    4    0    0  0.18383458116E-01  0.23087115971E-01 -0.30174123744E-01  0.42210251372E-01  0.51100000000E-03 0. -1.
         11    1    4    4    0    0  0.56469165070E-01  0.53068522024E-01 -0.42116090703E-01  0.88198984408E-01  0.51100000000E-03 0.  1.
</event>
<event>
 8    1  0.1109553E+005  0.1043930E+01  0.7957747E-01            NaN
         13   -1    0    0    0    0  0.00000000000E+00  0.00000000000E+00  0.74505805969E-08  0.10566000000E+00  0.10566000000E+00 0.  1.
     999900   -1    0    0    0    0 -0.00000000000E+00 -0.00000000000E+00 -0.74505805969E-08  0.93827000000E+00  0.93827000000E+00 0. -1.
     999902    2    1    2    0    0 -0.35491004479E-02  0.24322589213E-01 -0.25322281973E-02  0.10192197463E+01  0.10189201610E+01 0.  0.
     999903    2    3    3    0    0  0.30354097612E-01  0.68179908929E-01 -0.10648058355E+00  0.13136944812E+00  0.18706843733E-01 0.  0.
         14    1    1    2    0    0  0.35491004479E-02 -0.24322589213E-01  0.25322281973E-02  0.24710253735E-01  0.00000000000E+00 0. -1.
     999901    1    3    3    0    0 -0.33903198060E-01 -0.43857319716E-01  0.10394835536E+00  0.88785029814E+00  0.88000000000E+00 0.  1.
        -11    1    4    4    0    0  0.15662551452E-01  0.52287380691E-01 -0.83846485645E-01  0.10004888792E+00  0.51100000000E-03 0.  1.
         11    1    4    4    0    0  0.14691546160E-01  0.15892528238E-01 -0.22634097909E-01  0.31320560204E-01  0.51100000000E-03 0. -1.
</event>
<event>
 8    1  0.1109553E+005  0.1043930E+01  0.7957747E-01            NaN
         13   -1    0    0    0    0  0.00000000000E+00  0.00000000000E+00  0.74505805969E-08  0.10566000000E+00  0.10566000000E+00 0. -1.
     999900   -1    0    0    0    0 -0.00000000000E+00 -0.00000000000E+00 -0.74505805969E-08  0.93827000000E+00  0.93827000000E+00 0. -1.
     999902    2    1    2    0    0  0.20307350165E-01  0.26802175170E-02 -0.11866534020E-01  0.10202575125E+01  0.10199828455E+01 0.  0.
     999903    2    3    3    0    0 -0.91340629065E-01 -0.54385086251E-01  0.68037621800E-01  0.12778544327E+00  0.19978823995E-01 0.  0.
         14    1    1    2    0    0 -0.20307350165E-01 -0.26802175170E-02  0.11866534020E-01  0.23672487539E-01  0.00000000000E+00 0. -1.
     999901    1    3    3    0    0  0.11164797923E+00  0.57065303768E-01 -0.79904155820E-01  0.89247206919E+00  0.88000000000E+00 0. -1.
        -11    1    4    4    0    0 -0.13770792320E-01 -0.10273140702E-01  0.20241357446E-01  0.26554581775E-01  0.51100000000E-03 0. -1.
         11    1    4    4    0    0 -0.77569836745E-01 -0.44111945548E-01  0.47796264354E-01  0.10123086150E+00  0.51100000000E-03 0.  1.
</event>
<event>
 8    1  0.1109553E+005  0.1043930E+01  0.7957747E-01            NaN
         13   -1    0    0    0    0  0.00000000000E+00  0.00000000000E+00  0.74505805969E-08  0.10566000000E+00  0.10566000000E+00 0. -1.
     999900   -1    0    0    0    0 -0.00000000000E+00 -0.00000000000E+00 -0.74505805969E-08  0.93827000000E+00  0.93827000000E+00 0. -1.
     999902    2    1    2    0    0  0.28409104360E-02  0.90776169599E-02  0.24156409130E-01  0.10179683744E+01  0.10176372661E+01 0.  0.
     999903    2    3    3    0    0  0.20238499917E-01  0.70542783672E-01  0.10762939500E+00  0.13171311647E+00  0.19451919559E-01 0.  0.
         14    1    1    2    0    0 -0.28409104360E-02 -0.90776169599E-02 -0.24156409130E-01  0.25961625601E-01  0.00000000000E+00 0.  1.
     999901    1    3    3    0    0 -0.17397589481E-01 -0.61465166712E-01 -0.83472985872E-01  0.88625525793E+00  0.88000000000E+00 0.  1.
        -11    1    4    4    0    0  0.69066089454E-02  0.44588279126E-01  0.51654490934E-01  0.68587633267E-01  0.51100000000E-03 0.  1.
         11    1    4    4    0    0  0.13331890972E-01  0.25954504546E-01  0.55974904068E-01  0.63125483202E-01  0.51100000000E-03 0. -1.
</event>
<event>
 8    1  0.1109553E+005  0.1043930E+01  0.7957747E-01            NaN
         13   -1    0    0    0    0  0.00000000000E+00  0.00000000000E+00  0.74505805969E-08  0.10566000000E+00  0.10566000000E+00 0. -1.
     999900   -1    0    0    0    0 -0.00000000000E+00 -0.00000000000E+00 -0.74505805969E-08  0.93827000000E+00  0.93827000000E+00 0. -1.
     999902    2    1    2    0    0  0.32908036600E-03  0.20590074237E-01  0.12314978639E-01  0.10199358726E+01  0.10196536010E+01 0.  0.
     999903    2    3    3    0    0  0.97096228033E-01  0.23877920627E-01 -0.80157176032E-01  0.12980903321E+00  0.20673162372E-01 0.  0.
         14    1    1    2    0    0 -0.32908036600E-03 -0.20590074237E-01 -0.12314978639E-01  0.23994127404E-01  0.00000000000E+00 0.  1.
     999901    1    3    3    0    0 -0.96767147667E-01 -0.32878463899E-02  0.92472154672E-01  0.89012683938E+00  0.88000000000E+00 0.  1.
        -11    1    4    4    0    0  0.44352290617E-01  0.75080557775E-02 -0.48498699783E-01  0.66150446606E-01  0.51100000000E-03 0.  1.
         11    1    4    4    0    0  0.52743937416E-01  0.16369864849E-01 -0.31658476249E-01  0.63658586607E-01  0.51100000000E-03 0. -1.
</event>
<event>
 8    1  0.1109553E+005  0.1043930E+01  0.7957747E-01            NaN
         13   -1    0    0    0    0  0.00000000000E+00  0.00000000000E+00  0.74505805969E-08  0.10566000000E+00  0.10566000000E+00 0.  1.
     999900   -1    0    0    0    0 -0.00000000000E+00 -0.00000000000E+00 -0.74505805969E-08  0.93827000000E+00  0.93827000000E+00 0.  1.
     999902    2    1    2    0    0  0.86269162195E-02 -0.74765591537E-02  0.17445790951E-01  0.10230810614E+01  0.10228686034E+01 0.  0.
     999903    2    3    3    0    0  0.44792668818E-01 -0.10727985899E+00  0.66057464183E-01  0.13536953441E+00  0.21118024208E-01 0.  0.
         14    1    1    2    0    0 -0.86269162195E-02  0.74765591537E-02 -0.17445790951E-01  0.20848938634E-01  0.00000000000E+00 0. -1.
     999901    1    3    3    0    0 -0.36165752598E-01  0.99803299838E-01 -0.48611673232E-01  0.88771152696E+00  0.88000000000E+00 0.  1.
        -11    1    4    4    0    0  0.35703655635E-01 -0.78045041497E-01  0.58389888834E-01  0.10380471939E+00  0.51100000000E-03 0.  1.
         11    1    4    4    0    0  0.90890131829E-02 -0.29234817495E-01  0.76675753498E-02  0.31564815021E-01  0.51100000000E-03 0. -1.
</event>
<event>
 8    1  0.1109553E+005  0.1043930E+01  0.7957747E-01            NaN
         13   -1    0    0    0    0  0.00000000000E+00  0.00000000000E+00  0.74505805969E-08  0.10566000000E+00  0.10566000000E+00 0. -1.
     999900   -1    0    0    0    0 -0.00000000000E+00 -0.00000000000E+00 -0.74505805969E-08  0.93827000000E+00  0.93827000000E+00 0. -1.
     999902    2    1    2    0    0 -0.16308513852E-01  0.17185930512E-01 -0.15694257707E-01  0.10155111056E+01  0.10151133790E+01 0.  0.
     999903    2    3    3    0    0 -0.11598573344E+00  0.44383411336E-01  0.30263108755E-01  0.12827532492E+00  0.10776162004E-01 0.  0.
         14    1    1    2    0    0  0.16308513852E-01 -0.17185930512E-01  0.15694257707E-01  0.28418894359E-01  0.00000000000E+00 0. -1.
     999901    1    3    3    0    0  0.99677219587E-01 -0.27197480824E-01 -0.45957366462E-01  0.88723578073E+00  0.88000000000E+00 0.  1.
        -11    1    4    4    0    0 -0.55360462625E-01  0.17556845187E-01  0.18399746299E-01  0.60924834180E-01  0.51100000000E-03 0.  1.
         11    1    4    4    0    0 -0.60625270814E-01  0.26826566149E-01  0.11863362456E-01  0.67350490736E-01  0.51100000000E-03 0. -1.
</event>
<event>
 8    1  0.1109553E+005  0.1043930E+01  0.7957747E-01            NaN
         13   -1    0    0    0    0  0.00000000000E+00  0.00000000000E+00  0.74505805969E-08  0.10566000000E+00  0.10566000000E+00 0.  1.
     999900   -1    0    0    0    0 -0.00000000000E+00 -0.00000000000E+00 -0.74505805969E-08  0.93827000000E+00  0.93827000000E+00 0. -1.
     999902    2    1    2    0    0 -0.85216449878E-02 -0.13193421305E-01 -0.18102284666E-01  0.10199638257E+01  0.10196822193E+01 0.  0.
     999903    2    3    3    0    0 -0.11669217683E+00  0.27432585537E-01 -0.51069040177E-01  0.13179821991E+00  0.19827078057E-01 0.  0.
         14    1    1    2    0    0  0.85216449878E-02  0.13193421305E-01  0.18102284666E-01  0.23966174271E-01  0.00000000000E+00 0.  1.
     999901    1    3    3    0    0  0.10817053184E+00 -0.40626006843E-01  0.32966755511E-01  0.88816560582E+00  0.88000000000E+00 0.  1.
        -11    1    4    4    0    0 -0.41098006562E-01  0.79907340029E-02 -0.79312704264E-02  0.42615304115E-01  0.51100000000E-03 0.  1.
         11    1    4    4    0    0 -0.75594170268E-01  0.19441851534E-01 -0.43137769751E-01  0.89182915795E-01  0.51100000000E-03 0. -1.
</event>
<event>
 8    1  0.1109553E+005  0.1043930E+01  0.7957747E-01            NaN
         13   -1    0    0    0    0  0.00000000000E+00  0.00000000000E+00  0.74505805969E-08  0.10566000000E+00  0.10566000000E+00 0. -1.
     999900   -1    0    0    0    0 -0.00000000000E+00 -0.00000000000E+00 -0.74505805969E-08  0.93827000000E+00  0.93827000000E+00 0. -1.
     999902    2    1    2    0    0 -0.14480715467E-01 -0.47351501324E-02  0.14584071693E-01  0.10228395302E+01  0.10226220694E+01 0.  0.
     999903    2    3    3    0    0 -0.10612040180E+00  0.41692713773E-01 -0.65977537792E-01  0.13320839794E+00  0.19789384236E-01 0.  0.
         14    1    1    2    0    0  0.14480715467E-01  0.47351501324E-02 -0.14584071693E-01  0.21090469752E-01  0.00000000000E+00 0.  1.
     999901    1    3    3    0    0  0.91639686329E-01 -0.46427863905E-01  0.80561609485E-01  0.88963113231E+00  0.88000000000E+00 0.  1.
        -11    1    4    4    0    0 -0.39978732793E-01  0.13574701651E-01 -0.13902066062E-01  0.44453348157E-01  0.51100000000E-03 0.  1.
         11    1    4    4    0    0 -0.66141669003E-01  0.28118012122E-01 -0.52075471731E-01  0.88755049779E-01  0.51100000000E-03 0. -1.
</event>
<event>
 8    1  0.1109553E+005  0.1043930E+01  0.7957747E-01            NaN
         13   -1    0    0    0    0  0.00000000000E+00  0.00000000000E+00  0.74505805969E-08  0.10566000000E+00  0.10566000000E+00 0.  1.
     999900   -1    0    0    0    0 -0.00000000000E+00 -0.00000000000E+00 -0.74505805969E-08  0.93827000000E+00  0.93827000000E+00 0.  1.
     999902    2    1    2    0    0 -0.70612042727E-02 -0.15065529523E-01 -0.16181436614E-01  0.10207207416E+01  0.10204568402E+01 0.  0.
     999903    2    3    3    0    0 -0.48052186728E-01 -0.11805043888E+00 -0.34897973214E-01  0.13356998723E+00  0.19446186905E-01 0.  0.
         14    1    1    2    0    0  0.70612042727E-02  0.15065529523E-01  0.16181436614E-01  0.23209258421E-01  0.00000000000E+00 0.  1.
     999901    1    3    3    0    0  0.40990982455E-01  0.10298490936E+00  0.18716536600E-01  0.88715075435E+00  0.88000000000E+00 0.  1.
        -11    1    4    4    0    0 -0.49034502677E-01 -0.10901016748E+00 -0.34673946956E-01  0.12445940216E+00  0.51100000000E-03 0. -1.
         11    1    4    4    0    0  0.98231594919E-03 -0.90402713986E-02 -0.22402625741E-03  0.91105850717E-02  0.51100000000E-03 0.  1.
</event>
<event>
 7    1  0.1109553E+005  0.1043930E+01  0.7957747E-01            NaN
         13   -1    0    0    0    0  0.00000000000E+00  0.00000000000E+00  0.74505805969E-08  0.10566000000E+00  0.10566000000E+00 0.  1.
     999900   -1    0    0    0    0 -0.00000000000E+00 -0.00000000000E+00 -0.74505805969E-08  0.93827000000E+00  0.93827000000E+00 0.  1.
     999903    2    1    2    0    0  0.10266418628E+00 -0.60645553291E-02  0.26671770070E-01  0.10793966398E+00  0.19049245813E-01 0.  0.
         14    1    1    2    0    0  0.28762030108E-01  0.14309620287E-01 -0.33158860960E-01  0.46168492165E-01  0.00000000000E+00 0. -1.
     999901    1    1    2    0    0 -0.13142621639E+00 -0.82450649576E-02  0.64870908901E-02  0.88982184385E+00  0.88000000000E+00 0.  1.
        -11    1    3    3    0    0  0.80815400291E-01 -0.11972286799E-01  0.23952218078E-01  0.85137738091E-01  0.51100000000E-03 0. -1.
         11    1    3    3    0    0  0.21848785989E-01  0.59077314696E-02  0.27195519919E-02  0.22801925891E-01  0.51100000000E-03 0.  1.
</event>
<event>
 8    1  0.1109553E+005  0.1043930E+01  0.7957747E-01            NaN
         13   -1    0    0    0    0  0.00000000000E+00  0.00000000000E+00  0.74505805969E-08  0.10566000000E+00  0.10566000000E+00 0.  1.
     999900   -1    0    0    0    0 -0.00000000000E+00 -0.00000000000E+00 -0.74505805969E-08  0.93827000000E+00  0.93827000000E+00 0.  1.
     999902    2    1    2    0    0  0.34252166409E-03 -0.24799337109E-01  0.50430704135E-02  0.10186207724E+01  0.10183063002E+01 0.  0.
     999903    2    3    3    0    0 -0.34285646027E-01 -0.15795856058E-01  0.12230560543E+00  0.13012165885E+00  0.23408767420E-01 0.  0.
         14    1    1    2    0    0 -0.34252166409E-03  0.24799337109E-01 -0.50430704135E-02  0.25309227593E-01  0.00000000000E+00 0.  1.
     999901    1    3    3    0    0  0.34628167691E-01 -0.90034810514E-02 -0.11726253501E+00  0.88849911355E+00  0.88000000000E+00 0.  1.
        -11    1    4    4    0    0 -0.11887890369E-01 -0.49686583302E-02  0.80067353168E-01  0.81099023837E-01  0.51100000000E-03 0. -1.
         11    1    4    4    0    0 -0.22397755658E-01 -0.10827197728E-01  0.42238252258E-01  0.49022635016E-01  0.51100000000E-03 0.  1.
</event>
<event>
 8    1  0.1109553E+005  0.1043930E+01  0.7957747E-01            NaN
         13   -1    0    0    0    0  0.00000000000E+00  0.00000000000E+00  0.74505805969E-08  0.10566000000E+00  0.10566000000E+00 0. -1.
     999900   -1    0    0    0    0 -0.00000000000E+00 -0.00000000000E+00 -0.74505805969E-08  0.93827000000E+00  0.93827000000E+00 0.  1.
     999902    2    1    2    0    0 -0.20414659271E-01  0.69118993342E-02  0.10827054206E-01  0.10198103448E+01  0.10195250765E+01 0.  0.
     999903    2    3    3    0    0 -0.34724871606E-01  0.11411230735E+00 -0.49540930005E-01  0.13113661208E+00  0.22695195210E-01 0.  0.
         14    1    1    2    0    0  0.20414659271E-01 -0.69118993342E-02 -0.10827054206E-01  0.24119655228E-01  0.00000000000E+00 0.  1.
     999901    1    3    3    0    0  0.14310212335E-01 -0.10720040802E+00  0.60367984211E-01  0.88867373269E+00  0.88000000000E+00 0. -1.
        -11    1    4    4    0    0 -0.66882473005E-02  0.60888620461E-01 -0.25455606143E-01  0.66335554257E-01  0.51100000000E-03 0.  1.
         11    1    4    4    0    0 -0.28036624305E-01  0.53223686890E-01 -0.24085323863E-01  0.64801057824E-01  0.51100000000E-03 0. -1.
</event>
<event>
 8    1  0.1109553E+005  0.1043930E+01  0.7957747E-01            NaN
         13   -1    0    0    0    0  0.00000000000E+00  0.00000000000E+00  0.74505805969E-08  0.10566000000E+00  0.10566000000E+00 0. -1.
     999900   -1    0    0    0    0 -0.00000000000E+00 -0.00000000000E+00 -0.74505805969E-08  0.93827000000E+00  0.93827000000E+00 0. -1.
     999902    2    1    2    0    0  0.12571138149E-01 -0.52661191017E-02 -0.19583575495E-01  0.10200703698E+01  0.10197912911E+01 0.  0.
     999903    2    3    3    0    0  0.21475874092E-01  0.11924712196E+00  0.40228751049E-01  0.12925032290E+00  0.20154510556E-01 0.  0.
         14    1    1    2    0    0 -0.12571138149E-01  0.52661191017E-02  0.19583575495E-01  0.23859630214E-01  0.00000000000E+00 0. -1.
     999901    1    3    3    0    0 -0.89047359431E-02 -0.12451324106E+00 -0.59812326544E-01  0.89082004688E+00  0.88000000000E+00 0.  1.
        -11    1    4    4    0    0  0.58759232859E-02  0.19912490894E-01 -0.46955758477E-03  0.20772948115E-01  0.51100000000E-03 0. -1.
         11    1    4    4    0    0  0.15599950806E-01  0.99334631066E-01  0.40698308634E-01  0.10847737479E+00  0.51100000000E-03 0.  1.
</event>
<event>
 8    1  0.1109553E+005  0.1043930E+01  0.7957747E-01            NaN
         13   -1    0    0    0    0  0.00000000000E+00  0.00000000000E+00  0.74505805969E-08  0.10566000000E+00  0.10566000000E+00 0.  1.
     999900   -1    0    0    0    0 -0.00000000000E+00 -0.00000000000E+00 -0.74505805969E-08  0.93827000000E+00  0.93827000000E+00 0. -1.
     999902    2    1    2    0    0 -0.13730095229E-01  0.54921881102E-02  0.17293789899E-01  0.10211757737E+01  0.10209222331E+01 0.  0.
     999903    2    3    3    0    0  0.86981619072E-01  0.87701551141E-01 -0.35295261993E-01  0.13007149409E+00  0.20383177550E-01 0.  0.
         14    1    1    2    0    0  0.13730095229E-01 -0.54921881102E-02 -0.17293789899E-01  0.22754226295E-01  0.00000000000E+00 0.  1.
     999901    1    3    3    0    0 -0.10071171430E+00 -0.82209363031E-01  0.52589051892E-01  0.89110427961E+00  0.88000000000E+00 0.  1.
        -11    1    4    4    0    0  0.11945294611E-01  0.22850173696E-01 -0.10466548734E-01  0.27832180380E-01  0.51100000000E-03 0. -1.
         11    1    4    4    0    0  0.75036324460E-01  0.64851377444E-01 -0.24828713259E-01  0.10223931371E+00  0.51100000000E-03 0.  1.
</event>
<event>
 8    1  0.1109553E+005  0.1043930E+01  0.7957747E-01            NaN
         13   -1    0    0    0    0  0.00000000000E+00  0.00000000000E+00  0.74505805969E-08  0.10566000000E+00  0.10566000000E+00 0.  1.
     999900   -1    0    0    0    0 -0.00000000000E+00 -0.00000000000E+00 -0.74505805969E-08  0.93827000000E+00  0.93827000000E+00 0. -1.
     999902    2    1    2    0    0 -0.11778830628E-01 -0.17358104428E-02 -0.20367526051E-01  0.10203378402E+01  0.10200650558E+01 0.  0.
     999903    2    3    3    0    0 -0.74012882274E-01  0.33153129106E-01  0.98891028418E-01  0.12943216720E+00  0.19905117231E-01 0.  0.
         14    1    1    2    0    0  0.11778830628E-01  0.17358104428E-02  0.20367526051E-01  0.23592159848E-01  0.00000000000E+00 0.  1.
     999901    1    3    3    0    0  0.62234051646E-01 -0.34888939549E-01 -0.11925855447E+00  0.89090567295E+00  0.88000000000E+00 0. -1.
        -11    1    4    4    0    0 -0.39214323492E-01  0.25282187408E-01  0.66530774448E-01  0.81262274376E-01  0.51100000000E-03 0. -1.
         11    1    4    4    0    0 -0.34798558782E-01  0.78709416983E-02  0.32360253970E-01  0.48169892822E-01  0.51100000000E-03 0.  1.
</event>
<event>
 8    1  0.1109553E+005  0.1043930E+01  0.7957747E-01            NaN
         13   -1    0    0    0    0  0.00000000000E+00  0.00000000000E+00  0.74505805969E-08  0.10566000000E+00  0.10566000000E+00 0. -1.
     999900   -1    0    0    0    0 -0.00000000000E+00 -0.00000000000E+00 -0.74505805969E-08  0.93827000000E+00  0.93827000000E+00 0. -1.
     999902    2    1    2    0    0 -0.11511198725E-01  0.19207508284E-01 -0.56787314413E-02  0.10208283970E+01  0.10205669660E+01 0.  0.
     999903    2    3    3    0    0  0.99463229003E-01  0.72150840210E-01 -0.42061172917E-01  0.13153541825E+00  0.20826577239E-01 0.  0.
         14    1    1    2    0    0  0.11511198725E-01 -0.19207508284E-01  0.56787314413E-02  0.23101603004E-01  0.00000000000E+00 0. -1.
     999901    1    3    3    0    0 -0.11097442773E+00 -0.52943331926E-01  0.36382441475E-01  0.88929297875E+00  0.88000000000E+00 0.  1.
        -11    1    4    4    0    0  0.35832784785E-01  0.30804871214E-01 -0.26116166695E-01  0.53992998063E-01  0.51100000000E-03 0.  1.
         11    1    4    4    0    0  0.63630444218E-01  0.41345968995E-01 -0.15945006222E-01  0.77542420184E-01  0.51100000000E-03 0. -1.
</event>
<event>
 8    1  0.1109553E+005  0.1043930E+01  0.7957747E-01            NaN
         13   -1    0    0    0    0  0.00000000000E+00  0.00000000000E+00  0.74505805969E-08  0.10566000000E+00  0.10566000000E+00 0. -1.
     999900   -1    0    0    0    0 -0.00000000000E+00 -0.00000000000E+00 -0.74505805969E-08  0.93827000000E+00  0.93827000000E+00 0.  1.
     999902    2    1    2    0    0  0.18725382843E-01 -0.13336687662E-01 -0.14926656035E-02  0.10208923080E+01  0.10206323380E+01 0.  0.
     999903    2    3    3    0    0 -0.65505924687E-01 -0.26564749631E-01  0.10595472729E+00  0.13026621532E+00  0.27316122102E-01 0.  0.
         14    1    1    2    0    0 -0.18725382843E-01  0.13336687662E-01  0.14926656035E-02  0.23037691964E-01  0.00000000000E+00 0.  1.
     999901    1    3    3    0    0  0.84231307531E-01  0.13228061969E-01 -0.10744739289E+00  0.89062609272E+00  0.88000000000E+00 0. -1.
        -11    1    4    4    0    0 -0.33223884987E-01 -0.27452224797E-01  0.54023561433E-01  0.69110473091E-01  0.51100000000E-03 0. -1.
         11    1    4    4    0    0 -0.32282039700E-01  0.88747516584E-03  0.51931165853E-01  0.61155742227E-01  0.51100000000E-03 0.  1.
</event>
<event>
 8    1  0.1109553E+005  0.1043930E+01  0.7957747E-01            NaN
         13   -1    0    0    0    0  0.00000000000E+00  0.00000000000E+00  0.74505805969E-08  0.10566000000E+00  0.10566000000E+00 0.  1.
     999900   -1    0    0    0    0 -0.00000000000E+00 -0.00000000000E+00 -0.74505805969E-08  0.93827000000E+00  0.93827000000E+00 0. -1.
     999902    2    1    2    0    0  0.15576700347E-01  0.15118345108E-01 -0.10236938316E-01  0.10199301488E+01  0.10196477409E+01 0.  0.
     999903    2    3    3    0    0 -0.74011465135E-01 -0.94249361512E-01 -0.40580535474E-01  0.12812968425E+00  0.20243443627E-01 0.  0.
         14    1    1    2    0    0 -0.15576700347E-01 -0.15118345108E-01  0.10236938316E-01  0.23999851221E-01  0.00000000000E+00 0.  1.
     999901    1    3    3    0    0  0.89588165483E-01  0.10936770662E+00  0.30343597158E-01  0.89180046453E+00  0.88000000000E+00 0. -1.
        -11    1    4    4    0    0 -0.13878915477E-01 -0.31810341956E-01 -0.14357528366E-01  0.37562240241E-01  0.51100000000E-03 0.  1.
         11    1    4    4    0    0 -0.60132549659E-01 -0.62439019556E-01 -0.26223007108E-01  0.90567444009E-01  0.51100000000E-03 0. -1.
</event>
<event>
 8    1  0.1109553E+005  0.1043930E+01  0.7957747E-01            NaN
         13   -1    0    0    0    0  0.00000000000E+00  0.00000000000E+00  0.74505805969E-08  0.10566000000E+00  0.10566000000E+00 0. -1.
     999900   -1    0    0    0    0 -0.00000000000E+00 -0.00000000000E+00 -0.74505805969E-08  0.93827000000E+00  0.93827000000E+00 0.  1.
     999902    2    1    2    0    0  0.10482742293E-01  0.18786129314E-01  0.93644313577E-02  0.10204672824E+01  0.10201975178E+01 0.  0.
     999903    2    3    3    0    0 -0.56012399426E-01 -0.70398484363E-01  0.91324208925E-01  0.12968509564E+00  0.19615743794E-01 0.  0.
         14    1    1    2    0    0 -0.10482742293E-01 -0.18786129314E-01 -0.93644313577E-02  0.23462717559E-01  0.00000000000E+00 0. -1.
     999901    1    3    3    0    0  0.66495141719E-01  0.89184613677E-01 -0.81959777567E-01  0.89078218680E+00  0.88000000000E+00 0.  1.
        -11    1    4    4    0    0 -0.31934996650E-01 -0.53945606117E-01  0.58088486086E-01  0.85466401393E-01  0.51100000000E-03 0.  1.
         11    1    4    4    0    0 -0.24077402776E-01 -0.16452878246E-01  0.33235722839E-01  0.44218694244E-01  0.51100000000E-03 0. -1.
</event>
<event>
 8    1  0.1109553E+005  0.1043930E+01  0.7957747E-01            NaN
         13   -1    0    0    0    0  0.00000000000E+00  0.00000000000E+00  0.74505805969E-08  0.10566000000E+00  0.10566000000E+00 0. -1.
     999900   -1    0    0    0    0 -0.00000000000E+00 -0.00000000000E+00 -0.74505805969E-08  0.93827000000E+00  0.93827000000E+00 0. -1.
     999902    2    1    2    0    0  0.58340950687E-02 -0.21744274072E-01 -0.67213233910E-02  0.10204347599E+01  0.10201642382E+01 0.  0.
     999903    2    3    3    0    0  0.71936516747E-01 -0.94251393118E-01 -0.57487005615E-01  0.13352779353E+00  0.21603895124E-01 0.  0.
         14    1    1    2    0    0 -0.58340950687E-02  0.21744274072E-01  0.67213233910E-02  0.23495240120E-01  0.00000000000E+00 0. -1.
     999901    1    3    3    0    0 -0.66102421678E-01  0.72507119047E-01  0.50765682224E-01  0.88690696635E+00  0.88000000000E+00 0.  1.
        -11    1    4    4    0    0  0.12112126401E-01 -0.20325896822E-01 -0.21089105940E-01  0.31699482613E-01  0.51100000000E-03 0.  1.
         11    1    4    4    0    0  0.59824390345E-01 -0.73925496296E-01 -0.36397899675E-01  0.10182831092E+00  0.51100000000E-03 0. -1.
</event>
<event>
 8    1  0.1109553E+005  0.1043930E+01  0.7957747E-01            NaN
         13   -1    0    0    0    0  0.00000000000E+00  0.00000000000E+00  0.74505805969E-08  0.10566000000E+00  0.10566000000E+00 0.  1.
     999900   -1    0    0    0    0 -0.00000000000E+00 -0.00000000000E+00 -0.74505805969E-08  0.93827000000E+00  0.93827000000E+00 0.  1.
     999902    2    1    2    0    0  0.22667681773E-01 -0.56440747912E-03  0.69718963195E-02  0.10202076542E+01  0.10199318153E+01 0.  0.
     999903    2    3    3    0    0 -0.44810027000E-01 -0.47807589004E-01 -0.10889211906E+00  0.12879886499E+00  0.20932031524E-01 0.  0.
         14    1    1    2    0    0 -0.22667681773E-01  0.56440747912E-03 -0.69718963195E-02  0.23722345817E-01  0.00000000000E+00 0. -1.
     999901    1    3    3    0    0  0.67477708773E-01  0.47243181525E-01  0.11586401538E+00  0.89140878919E+00  0.88000000000E+00 0. -1.
        -11    1    4    4    0    0 -0.44325325229E-01 -0.36725346719E-01 -0.88385828637E-01  0.10547891435E+00  0.51100000000E-03 0.  1.
         11    1    4    4    0    0 -0.48470177107E-03 -0.11082242286E-01 -0.20506290427E-01  0.23319950642E-01  0.51100000000E-03 0. -1.
</event>
<event>
 8    1  0.1109553E+005  0.1043930E+01  0.7957747E-01            NaN
         13   -1    0    0    0    0  0.00000000000E+00  0.00000000000E+00  0.74505805969E-08  0.10566000000E+00  0.10566000000E+00 0.  1.
     999900   -1    0    0    0    0 -0.00000000000E+00 -0.00000000000E+00 -0.74505805969E-08  0.93827000000E+00  0.93827000000E+00 0. -1.
     999902    2    1    2    0    0  0.17483944991E-01 -0.10328889075E-01  0.12207918686E-01  0.10202359594E+01  0.10199607861E+01 0.  0.
     999903    2    3    3    0    0  0.18471218972E-01 -0.12254289693E+00 -0.39790547378E-01  0.13158709806E+00  0.19337248947E-01 0.  0.
         14    1    1    2    0    0 -0.17483944991E-01  0.10328889075E-01 -0.12207918686E-01  0.23694040614E-01  0.00000000000E+00 0. -1.
     999901    1    3    3    0    0 -0.98727398136E-03  0.11221400785E+00  0.51998466064E-01  0.88864886133E+00  0.88000000000E+00 0. -1.
        -11    1    4    4    0    0 -0.15236386774E-02 -0.36688134639E-01 -0.17384784658E-01  0.40630438796E-01  0.51100000000E-03 0.  1.
         11    1    4    4    0    0  0.19994857650E-01 -0.85854762288E-01 -0.22405762720E-01  0.90956659262E-01  0.51100000000E-03 0. -1.
</event>
<event>
 8    1  0.1109553E+005  0.1043930E+01  0.7957747E-01            NaN
         13   -1    0    0    0    0  0.00000000000E+00  0.00000000000E+00  0.74505805969E-08  0.10566000000E+00  0.10566000000E+00 0. -1.
     999900   -1    0    0    0    0 -0.00000000000E+00 -0.00000000000E+00 -0.74505805969E-08  0.93827000000E+00  0.93827000000E+00 0.  1.
     999902    2    1    2    0    0 -0.10659871084E-01 -0.46457236497E-02 -0.21571606628E-01  0.10194238821E+01  0.10191292860E+01 0.  0.
     999903    2    3    3    0    0  0.82996934991E-01 -0.47855815530E-01  0.81306017778E-01  0.12744713639E+00  0.21293983882E-01 0.  0.
         14    1    1    2    0    0  0.10659871084E-01  0.46457236497E-02  0.21571606628E-01  0.24506117854E-01  0.00000000000E+00 0. -1.
     999901    1    3    3    0    0 -0.93656806074E-01  0.43210091881E-01 -0.10287762441E+00  0.89197674576E+00  0.88000000000E+00 0. -1.
        -11    1    4    4    0    0  0.44203618227E-01 -0.15187771090E-01  0.31525442718E-01  0.56380341562E-01  0.51100000000E-03 0.  1.
         11    1    4    4    0    0  0.38793316764E-01 -0.32668044441E-01  0.49780575060E-01  0.71066794830E-01  0.51100000000E-03 0. -1.
</event>
<event>
 8    1  0.1109553E+005  0.1043930E+01  0.7957747E-01            NaN
         13   -1    0    0    0    0  0.00000000000E+00  0.00000000000E+00  0.74505805969E-08  0.10566000000E+00  0.10566000000E+00 0.  1.
     999900   -1    0    0    0    0 -0.00000000000E+00 -0.00000000000E+00 -0.74505805969E-08  0.93827000000E+00  0.93827000000E+00 0. -1.
     999902    2    1    2    0    0 -0.17601153917E-02  0.93518793813E-02 -0.21224007739E-01  0.10206702889E+01  0.10204052257E+01 0.  0.
     999903    2    3    3    0    0  0.20728847981E-01 -0.93205701652E-01  0.83322518961E-01  0.12828372072E+00  0.19926938434E-01 0.  0.
         14    1    1    2    0    0  0.17601153917E-02 -0.93518793813E-02  0.21224007739E-01  0.23259711061E-01  0.00000000000E+00 0.  1.
     999901    1    3    3    0    0 -0.22488963373E-01  0.10255758103E+00 -0.10454652670E+00  0.89238656822E+00  0.88000000000E+00 0. -1.
        -11    1    4    4    0    0  0.22402477268E-02 -0.49876071178E-01  0.36380783674E-01  0.61777534167E-01  0.51100000000E-03 0. -1.
         11    1    4    4    0    0  0.18488600254E-01 -0.43329630475E-01  0.46941735287E-01  0.66506186548E-01  0.51100000000E-03 0.  1.
</event>
<event>
 8    1  0.1109553E+005  0.1043930E+01  0.7957747E-01            NaN
         13   -1    0    0    0    0  0.00000000000E+00  0.00000000000E+00  0.74505805969E-08  0.10566000000E+00  0.10566000000E+00 0.  1.
     999900   -1    0    0    0    0 -0.00000000000E+00 -0.00000000000E+00 -0.74505805969E-08  0.93827000000E+00  0.93827000000E+00 0.  1.
     999902    2    1    2    0    0  0.15782033825E-01  0.16444407454E-01 -0.20159448380E-02  0.10210486722E+01  0.10207922589E+01 0.  0.
     999903    2    3    3    0    0 -0.11920267597E+00 -0.43988456805E-01 -0.37543851863E-02  0.12870567473E+00  0.20169110290E-01 0.  0.
         14    1    1    2    0    0 -0.15782033825E-01 -0.16444407454E-01  0.20159448380E-02  0.22881327798E-01  0.00000000000E+00 0. -1.
     999901    1    3    3    0    0  0.13498470979E+00  0.60432864259E-01  0.17384403483E-02  0.89234299747E+00  0.88000000000E+00 0.  1.
        -11    1    4    4    0    0 -0.10629186050E+00 -0.34874120281E-01 -0.85177817196E-02  0.11219170023E+00  0.51100000000E-03 0. -1.
         11    1    4    4    0    0 -0.12910815468E-01 -0.91143365237E-02  0.47633965332E-02  0.16513974502E-01  0.51100000000E-03 0.  1.
</event>
<event>
 8    1  0.1109553E+005  0.1043930E+01  0.7957747E-01            NaN
         13   -1    0    0    0    0  0.00000000000E+00  0.00000000000E+00  0.74505805969E-08  0.10566000000E+00  0.10566000000E+00 0.  1.
     999900   -1    0    0    0    0 -0.00000000000E+00 -0.00000000000E+00 -0.74505805969E-08  0.93827000000E+00  0.93827000000E+00 0.  1.
     999902    2    1    2    0    0  0.18585866429E-01  0.13601568555E-01  0.28986893544E-02  0.10207170834E+01  0.10204530978E+01 0.  0.
     999903    2    3    3    0    0 -0.65773003015E-01  0.10509008327E+00 -0.36626786955E-01  0.13108298418E+00  0.21707457066E-01 0.  0.
         14    1    1    2    0    0 -0.18585866429E-01 -0.13601568555E-01 -0.28986893544E-02  0.23212916621E-01  0.00000000000E+00 0.  1.
     999901    1    3    3    0    0  0.84358869444E-01 -0.91488514713E-01  0.39525476310E-01  0.88963409920E+00  0.88000000000E+00 0.  1.
        -11    1    4    4    0    0 -0.55497683689E-01  0.99412875139E-01 -0.35580605187E-01  0.11928601437E+00  0.51100000000E-03 0.  1.
         11    1    4    4    0    0 -0.10275319326E-01  0.56772081291E-02 -0.10461817682E-02  0.11796969809E-01  0.51100000000E-03 0. -1.
</event>
<event>
 8    1  0.1109553E+005  0.1043930E+01  0.7957747E-01            NaN
         13   -1    0    0    0    0  0.00000000000E+00  0.00000000000E+00  0.74505805969E-08  0.10566000000E+00  0.10566000000E+00 0. -1.
     999900   -1    0    0    0    0 -0.00000000000E+00 -0.00000000000E+00 -0.74505805969E-08  0.93827000000E+00  0.93827000000E+00 0. -1.
     999902    2    1    2    0    0  0.65559848327E-02 -0.23891735766E-01 -0.16287382705E-03  0.10191545585E+01  0.10188533710E+01 0.  0.
     999903    2    3    3    0    0  0.57826561413E-02 -0.34126741734E-01 -0.12430241381E+00  0.13038238363E+00  0.18719034918E-01 0.  0.
         14    1    1    2    0    0 -0.65559848327E-02  0.23891735766E-01  0.16287382705E-03  0.24775441528E-01  0.00000000000E+00 0. -1.
     999901    1    3    3    0    0  0.77332869149E-03  0.10235005968E-01  0.12413953998E+00  0.88877217484E+00  0.88000000000E+00 0.  1.
        -11    1    4    4    0    0 -0.54933000666E-02 -0.11834119443E-01 -0.59807542118E-01  0.61216222881E-01  0.51100000000E-03 0.  1.
         11    1    4    4    0    0  0.11275956208E-01 -0.22292622291E-01 -0.64494871694E-01  0.69166160750E-01  0.51100000000E-03 0. -1.
</event>
<event>
 8    1  0.1109553E+005  0.1043930E+01  0.7957747E-01            NaN
         13   -1    0    0    0    0  0.00000000000E+00  0.00000000000E+00  0.74505805969E-08  0.10566000000E+00  0.10566000000E+00 0.  1.
     999900   -1    0    0    0    0 -0.00000000000E+00 -0.00000000000E+00 -0.74505805969E-08  0.93827000000E+00  0.93827000000E+00 0.  1.
     999902    2    1    2    0    0  0.17481584261E-01 -0.14391443754E-01 -0.64784304786E-02  0.10203781529E+01  0.10201063108E+01 0.  0.
     999903    2    3    3    0    0  0.60940647953E-01  0.10137202223E+00  0.49886262593E-01  0.12994744311E+00  0.20190327159E-01 0.  0.
         14    1    1    2    0    0 -0.17481584261E-01  0.14391443754E-01  0.64784304786E-02  0.23551847126E-01  0.00000000000E+00 0.  1.
     999901    1    3    3    0    0 -0.43459063692E-01 -0.11576346598E+00 -0.56364693072E-01  0.89043070977E+00  0.88000000000E+00 0. -1.
        -11    1    4    4    0    0  0.49766372844E-01  0.88748196986E-01  0.35459245808E-01  0.10775227872E+00  0.51100000000E-03 0. -1.
         11    1    4    4    0    0  0.11174275109E-01  0.12623825241E-01  0.14427016786E-01  0.22195164389E-01  0.51100000000E-03 0.  1.
</event>
<event>
 8    1  0.1109553E+005  0.1043930E+01  0.7957747E-01            NaN
         13   -1    0    0    0    0  0.00000000000E+00  0.00000000000E+00  0.74505805969E-08  0.10566000000E+00  0.10566000000E+00 0. -1.
     999900   -1    0    0    0    0 -0.00000000000E+00 -0.00000000000E+00 -0.74505805969E-08  0.93827000000E+00  0.93827000000E+00 0. -1.
     999902    2    1    2    0    0 -0.91618256162E-02 -0.24322732981E-01  0.50442137457E-03  0.10179340613E+01  0.10176020658E+01 0.  0.
     999903    2    3    3    0    0  0.53968457358E-01  0.68236002161E-01 -0.89466885409E-01  0.12627976274E+00  0.19326368342E-01 0.  0.
         14    1    1    2    0    0  0.91618256162E-02  0.24322732981E-01 -0.50442137457E-03  0.25995938706E-01  0.00000000000E+00 0. -1.
     999901    1    3    3    0    0 -0.63130282974E-01 -0.92558735141E-01  0.89971306784E-01  0.89165429855E+00  0.88000000000E+00 0.  1.
        -11    1    4    4    0    0  0.42848595775E-01  0.39411077232E-01 -0.58292463884E-01  0.82386331604E-01  0.51100000000E-03 0.  1.
         11    1    4    4    0    0  0.11119861582E-01  0.28824924929E-01 -0.31174421525E-01  0.43893431140E-01  0.51100000000E-03 0. -1.
</event>
<event>
 8    1  0.1109553E+005  0.1043930E+01  0.7957747E-01            NaN
         13   -1    0    0    0    0  0.00000000000E+00  0.00000000000E+00  0.74505805969E-08  0.10566000000E+00  0.10566000000E+00 0.  1.
     999900   -1    0    0    0    0 -0.00000000000E+00 -0.00000000000E+00 -0.74505805969E-08  0.93827000000E+00  0.93827000000E+00 0. -1.
     999902    2    1    2    0    0 -0.46562956523E-02  0.14604714305E-01 -0.18196723805E-01  0.10201371539E+01  0.10198596537E+01 0.  0.
     999903    2    3    3    0    0  0.59090032842E-01 -0.10781605184E+00 -0.35695726122E-01  0.12920693582E+00  0.17444609038E-01 0.  0.
         14    1    1    2    0    0  0.46562956523E-02 -0.14604714305E-01  0.18196723805E-01  0.23792846117E-01  0.00000000000E+00 0.  1.
     999901    1    3    3    0    0 -0.63746328494E-01  0.12242076614E+00  0.17499002317E-01  0.89093021807E+00  0.88000000000E+00 0.  1.
        -11    1    4    4    0    0  0.86944577323E-02 -0.28223624241E-01 -0.13195416227E-01  0.32350373892E-01  0.51100000000E-03 0. -1.
         11    1    4    4    0    0  0.50395575110E-01 -0.79592427598E-01 -0.22500309895E-01  0.96856561925E-01  0.51100000000E-03 0.  1.
</event>
<event>
 8    1  0.1109553E+005  0.1043930E+01  0.7957747E-01            NaN
         13   -1    0    0    0    0  0.00000000000E+00  0.00000000000E+00  0.74505805969E-08  0.10566000000E+00  0.10566000000E+00 0. -1.
     999900   -1    0    0    0    0 -0.00000000000E+00 -0.00000000000E+00 -0.74505805969E-08  0.93827000000E+00  0.93827000000E+00 0. -1.
     999902    2    1    2    0    0  0.14552099316E-01  0.52216661470E-02 -0.19109761493E-01  0.10193492682E+01  0.10190528535E+01 0.  0.
     999903    2    3    3    0    0  0.26353470036E-01 -0.88416275833E-01 -0.91398701567E-01  0.13135544649E+00  0.19712621808E-01 0.  0.
         14    1    1    2    0    0 -0.14552099316E-01 -0.52216661470E-02  0.19109761493E-01  0.24580731808E-01  0.00000000000E+00 0. -1.
     999901    1    3    3    0    0 -0.11801370719E-01  0.93637941981E-01  0.72288940074E-01  0.88799382170E+00  0.88000000000E+00 0.  1.
        -11    1    4    4    0    0  0.16461085765E-01 -0.35719081702E-01 -0.27779248197E-01  0.48153586508E-01  0.51100000000E-03 0. -1.
         11    1    4    4    0    0  0.98923842701E-02 -0.52697194132E-01 -0.63619453370E-01  0.83201859979E-01  0.51100000000E-03 0.  1.
</event>
<event>
 8    1  0.1109553E+005  0.1043930E+01  0.7957747E-01            NaN
         13   -1    0    0    0    0  0.00000000000E+00  0.00000000000E+00  0.74505805969E-08  0.10566000000E+00  0.10566000000E+00 0.  1.
     999900   -1    0    0    0    0 -0.00000000000E+00 -0.00000000000E+00 -0.74505805969E-08  0.93827000000E+00  0.93827000000E+00 0.  1.
     999902    2    1    2    0    0  0.59562740959E-02  0.13374206710E-01 -0.18532402988E-01  0.10203122828E+01  0.10200389002E+01 0.  0.
     999903    2    3    3    0    0  0.83286178925E-01  0.93745847749E-01  0.34915173772E-01  0.13166378178E+00  0.19784097232E-01 0.  0.
         14    1    1    2    0    0 -0.59562740959E-02 -0.13374206710E-01  0.18532402988E-01  0.23617717221E-01  0.00000000000E+00 0.  1.
     999901    1    3    3    0    0 -0.77329904829E-01 -0.80371641039E-01 -0.53447576760E-01  0.88864850100E+00  0.88000000000E+00 0. -1.
        -11    1    4    4    0    0  0.83408521045E-01  0.89787806121E-01  0.31831511770E-01  0.12661886816E+00  0.51100000000E-03 0. -1.
         11    1    4    4    0    0 -0.12234212037E-03  0.39580416277E-02  0.30836620024E-02  0.50449136233E-02  0.51100000000E-03 0.  1.
</event>
<event>
 8    1  0.1109553E+005  0.1043930E+01  0.7957747E-01            NaN
         13   -1    0    0    0    0  0.00000000000E+00  0.00000000000E+00  0.74505805969E-08  0.10566000000E+00  0.10566000000E+00 0. -1.
     999900   -1    0    0    0    0 -0.00000000000E+00 -0.00000000000E+00 -0.74505805969E-08  0.93827000000E+00  0.93827000000E+00 0.  1.
     999902    2    1    2    0    0 -0.26142309101E-02  0.44334166149E-02  0.19791977892E-01  0.10234797732E+01  0.10232754441E+01 0.  0.
     999903    2    3    3    0    0 -0.42628396416E-01  0.12544077780E+00  0.11330749370E-01  0.13425791830E+00  0.18553539508E-01 0.  0.
         14    1    1    2    0    0  0.26142309101E-02 -0.44334166149E-02 -0.19791977892E-01  0.20450226771E-01  0.00000000000E+00 0.  1.
     999901    1    3    3    0    0  0.40014165506E-01 -0.12100736118E+00  0.84612285214E-02  0.88922185493E+00  0.88000000000E+00 0. -1.
        -11    1    4    4    0    0 -0.22069034830E-01  0.63449651755E-01  0.15026111741E-01  0.68840001171E-01  0.51100000000E-03 0. -1.
         11    1    4    4    0    0 -0.20559361586E-01  0.61991126043E-01 -0.36953623711E-02  0.65417917125E-01  0.51100000000E-03 0.  1.
</event>
<event>
 8    1  0.1109553E+005  0.1043930E+01  0.7957747E-01            NaN
         13   -1    0    0    0    0  0.00000000000E+00  0.00000000000E+00  0.74505805969E-08  0.10566000000E+00  0.10566000000E+00 0.  1.
     999900   -1    0    0    0    0 -0.00000000000E+00 -0.00000000000E+00 -0.74505805969E-08  0.93827000000E+00  0.93827000000E+00 0.  1.
     999902    2    1    2    0    0  0.53939503765E-02  0.95166667764E-02  0.20720427308E-01  0.10204992989E+01  0.10202302785E+01 0.  0.
     999903    2    3    3    0    0 -0.10325869670E+00 -0.68065235014E-01  0.35864157703E-01  0.13030062343E+00  0.19919337284E-01 0.  0.
         14    1    1    2    0    0 -0.53939503765E-02 -0.95166667764E-02 -0.20720427308E-01  0.23430701121E-01  0.00000000000E+00 0. -1.
     999901    1    3    3    0    0  0.10865264707E+00  0.77581901790E-01 -0.15143730395E-01  0.89019867545E+00  0.88000000000E+00 0.  1.
        -11    1    4    4    0    0 -0.19773266342E-01 -0.23199563287E-01  0.84166809402E-02  0.31627574007E-01  0.51100000000E-03 0. -1.
         11    1    4    4    0    0 -0.83485430353E-01 -0.44865671727E-01  0.27447476762E-01  0.98673049423E-01  0.51100000000E-03 0.  1.
</event>
<event>
 8    1  0.1109553E+005  0.1043930E+01  0.7957747E-01            NaN
         13   -1    0    0    0    0  0.00000000000E+00  0.00000000000E+00  0.74505805969E-08  0.10566000000E+00  0.10566000000E+00 0.  1.
     999900   -1    0    0    0    0 -0.00000000000E+00 -0.00000000000E+00 -0.74505805969E-08  0.93827000000E+00  0.93827000000E+00 0.  1.
     999902    2    1    2    0    0 -0.16455679682E-01  0.16483243480E-01  0.50255395331E-02  0.10201026469E+01  0.10198243316E+01 0.  0.
     999903    2    3    3    0    0 -0.10131784609E+00 -0.76113679084E-01  0.25182600190E-01  0.13095581735E+00  0.21369713768E-01 0.  0.
         14    1    1    2    0    0  0.16455679682E-01 -0.16483243480E-01 -0.50255395331E-02  0.23827353127E-01  0.00000000000E+00 0.  1.
     999901    1    3    3    0    0  0.84862166404E-01  0.92596922563E-01 -0.20157060657E-01  0.88914682952E+00  0.88000000000E+00 0.  1.
        -11    1    4    4    0    0 -0.30546072264E-01 -0.24687265870E-01 -0.20464460408E-02  0.39331573695E-01  0.51100000000E-03 0. -1.
         11    1    4    4    0    0 -0.70771773823E-01 -0.51426413213E-01  0.27229046231E-01  0.91624243657E-01  0.51100000000E-03 0.  1.
</event>
<event>
 8    1  0.1109553E+005  0.1043930E+01  0.7957747E-01            NaN
         13   -1    0    0    0    0  0.00000000000E+00  0.00000000000E+00  0.74505805969E-08  0.10566000000E+00  0.10566000000E+00 0. -1.
     999900   -1    0    0    0    0 -0.00000000000E+00 -0.00000000000E+00 -0.74505805969E-08  0.93827000000E+00  0.93827000000E+00 0. -1.
     999902    2    1    2    0    0  0.69691580563E-02 -0.21558387095E-01 -0.10249152557E-01  0.10190627857E+01  0.10187593351E+01 0.  0.
     999903    2    3    3    0    0 -0.83412101741E-01  0.33127671005E-01 -0.90598433387E-01  0.12911034653E+00  0.20158971878E-01 0.  0.
         14    1    1    2    0    0 -0.69691580563E-02  0.21558387095E-01  0.10249152557E-01  0.24867214285E-01  0.00000000000E+00 0. -1.
     999901    1    3    3    0    0  0.90381259797E-01 -0.54686058100E-01  0.80349280830E-01  0.88995243918E+00  0.88000000000E+00 0.  1.
        -11    1    4    4    0    0 -0.79520183725E-01  0.34459147021E-01 -0.80877116533E-01  0.11854223523E+00  0.51100000000E-03 0.  1.
         11    1    4    4    0    0 -0.38919180156E-02 -0.13314760165E-02 -0.97213168540E-02  0.10568111307E-01  0.51100000000E-03 0. -1.
</event>
<event>
 8    1  0.1109553E+005  0.1043930E+01  0.7957747E-01            NaN
         13   -1    0    0    0    0  0.00000000000E+00  0.00000000000E+00  0.74505805969E-08  0.10566000000E+00  0.10566000000E+00 0. -1.
     999900   -1    0    0    0    0 -0.00000000000E+00 -0.00000000000E+00 -0.74505805969E-08  0.93827000000E+00  0.93827000000E+00 0.  1.
     999902    2    1    2    0    0 -0.69058609041E-02  0.21188454986E-01 -0.93702661582E-02  0.10197547352E+01  0.10194681342E+01 0.  0.
     999903    2    3    3    0    0 -0.71706847932E-03  0.18263876097E-01  0.12647931881E+00  0.12930430760E+00  0.19710467269E-01 0.  0.
         14    1    1    2    0    0  0.69058609041E-02 -0.21188454986E-01  0.93702661582E-02  0.24175264785E-01  0.00000000000E+00 0. -1.
     999901    1    3    3    0    0 -0.61887924248E-02  0.29245788896E-02 -0.13584958496E+00  0.89045042762E+00  0.88000000000E+00 0.  1.
        -11    1    4    4    0    0 -0.36075634979E-02  0.19226602001E-01  0.12340194916E+00  0.12494390308E+00  0.51100000000E-03 0.  1.
         11    1    4    4    0    0  0.28904950186E-02 -0.96272590421E-03  0.30773696450E-02  0.43604045169E-02  0.51100000000E-03 0. -1.
</event>
<event>
 8    1  0.1109553E+005  0.1043930E+01  0.7957747E-01            NaN
         13   -1    0    0    0    0  0.00000000000E+00  0.00000000000E+00  0.74505805969E-08  0.10566000000E+00  0.10566000000E+00 0.  1.
     999900   -1    0    0    0    0 -0.00000000000E+00 -0.00000000000E+00 -0.74505805969E-08  0.93827000000E+00  0.93827000000E+00 0. -1.
     999902    2    1    2    0    0 -0.78866993094E-02 -0.15499077567E-01 -0.16607732543E-01  0.10198834158E+01  0.10195998939E+01 0.  0.
     999903    2    3    3    0    0 -0.22022497914E-02  0.87403516801E-01 -0.94663065204E-01  0.13043758167E+00  0.20214899085E-01 0.  0.
         14    1    1    2    0    0  0.78866993094E-02  0.15499077567E-01  0.16607732543E-01  0.24046584199E-01  0.00000000000E+00 0.  1.
     999901    1    3    3    0    0 -0.56844495181E-02 -0.10290259437E+00  0.78055332660E-01  0.88944583413E+00  0.88000000000E+00 0. -1.
        -11    1    4    4    0    0 -0.29547716560E-02  0.47498585783E-01 -0.36886696014E-01  0.60214082994E-01  0.51100000000E-03 0.  1.
         11    1    4    4    0    0  0.75252186463E-03  0.39904931018E-01 -0.57776369189E-01  0.70223498677E-01  0.51100000000E-03 0. -1.
</event>
<event>
 8    1  0.1109553E+005  0.1043930E+01  0.7957747E-01            NaN
         13   -1    0    0    0    0  0.00000000000E+00  0.00000000000E+00  0.74505805969E-08  0.10566000000E+00  0.10566000000E+00 0.  1.
     999900   -1    0    0    0    0 -0.00000000000E+00 -0.00000000000E+00 -0.74505805969E-08  0.93827000000E+00  0.93827000000E+00 0.  1.
     999902    2    1    2    0    0 -0.35692257484E-02 -0.12263740191E-01  0.20355655636E-01  0.10198989490E+01  0.10196157976E+01 0.  0.
     999903    2    3    3    0    0 -0.18948168219E-01  0.26756112676E-01 -0.12149257376E+00  0.12755373498E+00  0.20846754802E-01 0.  0.
         14    1    1    2    0    0  0.35692257484E-02  0.12263740191E-01 -0.20355655636E-01  0.24031051002E-01  0.00000000000E+00 0. -1.
     999901    1    3    3    0    0  0.15378942471E-01 -0.39019852867E-01  0.14184822939E+00  0.89234521401E+00  0.88000000000E+00 0. -1.
        -11    1    4    4    0    0  0.25165392376E-02 -0.50360929558E-03 -0.22579498174E-01  0.22730628034E-01  0.51100000000E-03 0. -1.
         11    1    4    4    0    0 -0.21464707457E-01  0.27259721971E-01 -0.98913075585E-01  0.10482310695E+00  0.51100000000E-03 0.  1.
</event>
<event>
 8    1  0.1260483E+005  0.1043930E+01  0.7957747E-01            NaN
         13   -1    0    0    0    0  0.00000000000E+00  0.00000000000E+00  0.74505805969E-08  0.10566000000E+00  0.10566000000E+00 0.  1.
     999900   -1    0    0    0    0 -0.00000000000E+00 -0.00000000000E+00 -0.74505805969E-08  0.93827000000E+00  0.93827000000E+00 0. -1.
     999902    2    1    2    0    0  0.17643024116E-02 -0.46780130950E-02 -0.23384191301E-01  0.10200173052E+01  0.10197369690E+01 0.  0.
     999903    2    3    3    0    0  0.59263963624E-01 -0.45581635925E-01  0.10215345093E+00  0.12831162673E+00  0.20943808140E-01 0.  0.
         14    1    1    2    0    0 -0.17643024116E-02  0.46780130950E-02  0.23384191301E-01  0.23912694794E-01  0.00000000000E+00 0.  1.
     999901    1    3    3    0    0 -0.57499661213E-01  0.40903622830E-01 -0.12553764224E+00  0.89170567847E+00  0.88000000000E+00 0. -1.
        -11    1    4    4    0    0  0.17589897405E-01 -0.26486330281E-01  0.41509523117E-01  0.52289882510E-01  0.51100000000E-03 0.  1.
         11    1    4    4    0    0  0.41674066220E-01 -0.19095305644E-01  0.60643927817E-01  0.76021744225E-01  0.51100000000E-03 0. -1.
</event>
<event>
 8    1  0.1109553E+005  0.1043930E+01  0.7957747E-01            NaN
         13   -1    0    0    0    0  0.00000000000E+00  0.00000000000E+00  0.74505805969E-08  0.10566000000E+00  0.10566000000E+00 0.  1.
     999900   -1    0    0    0    0 -0.00000000000E+00 -0.00000000000E+00 -0.74505805969E-08  0.93827000000E+00  0.93827000000E+00 0.  1.
     999902    2    1    2    0    0 -0.11976868225E-01  0.89027387863E-03  0.20367163872E-01  0.10202855646E+01  0.10200115558E+01 0.  0.
     999903    2    3    3    0    0  0.11415233241E+00  0.41785394343E-01 -0.36462312696E-01  0.12853976254E+00  0.20400885546E-01 0.  0.
         14    1    1    2    0    0  0.11976868225E-01 -0.89027387863E-03 -0.20367163872E-01  0.23644435376E-01  0.00000000000E+00 0. -1.
     999901    1    3    3    0    0 -0.12612920064E+00 -0.40895120464E-01  0.56829476568E-01  0.89174580209E+00  0.88000000000E+00 0. -1.
        -11    1    4    4    0    0  0.82138849200E-01  0.20059886292E-01 -0.24158027567E-01  0.87937824643E-01  0.51100000000E-03 0. -1.
         11    1    4    4    0    0  0.32013483210E-01  0.21725508050E-01 -0.12304285129E-01  0.40601937895E-01  0.51100000000E-03 0.  1.
</event>
<event>
 8    1  0.1109553E+005  0.1043930E+01  0.7957747E-01            NaN
         13   -1    0    0    0    0  0.00000000000E+00  0.00000000000E+00  0.74505805969E-08  0.10566000000E+00  0.10566000000E+00 0. -1.
     999900   -1    0    0    0    0 -0.00000000000E+00 -0.00000000000E+00 -0.74505805969E-08  0.93827000000E+00  0.93827000000E+00 0. -1.
     999902    2    1    2    0    0  0.86702079195E-02  0.96362024547E-02 -0.19503009189E-01  0.10205121378E+01  0.10202434156E+01 0.  0.
     999903    2    3    3    0    0  0.12647059559E+00 -0.24778611929E-01  0.15011272031E-01  0.13132568580E+00  0.20305327061E-01 0.  0.
         14    1    1    2    0    0 -0.86702079195E-02 -0.96362024547E-02  0.19503009189E-01  0.23417862211E-01  0.00000000000E+00 0. -1.
     999901    1    3    3    0    0 -0.11780038767E+00  0.34414814384E-01 -0.34514281220E-01  0.88918645198E+00  0.88000000000E+00 0.  1.
        -11    1    4    4    0    0  0.76700494420E-01 -0.89055695197E-02  0.16915394972E-01  0.79048508656E-01  0.51100000000E-03 0.  1.
         11    1    4    4    0    0  0.49770101166E-01 -0.15873042409E-01 -0.19041229409E-02  0.52277177148E-01  0.51100000000E-03 0. -1.
</event>
<event>
 8    1  0.1109553E+005  0.1043930E+01  0.7957747E-01            NaN
         13   -1    0    0    0    0  0.00000000000E+00  0.00000000000E+00  0.74505805969E-08  0.10566000000E+00  0.10566000000E+00 0. -1.
     999900   -1    0    0    0    0 -0.00000000000E+00 -0.00000000000E+00 -0.74505805969E-08  0.93827000000E+00  0.93827000000E+00 0. -1.
     999902    2    1    2    0    0  0.20808095701E-01  0.54914139480E-02  0.91976150011E-02  0.10205263978E+01  0.10202580066E+01 0.  0.
     999903    2    3    3    0    0 -0.41717880621E-01 -0.11556860947E+00 -0.33861334418E-01  0.12900012219E+00  0.19948847047E-01 0.  0.
         14    1    1    2    0    0 -0.20808095701E-01 -0.54914139480E-02 -0.91976150011E-02  0.23403602192E-01  0.00000000000E+00 0. -1.
     999901    1    3    3    0    0  0.62525976322E-01  0.12106002342E+00  0.43058949420E-01  0.89152627561E+00  0.88000000000E+00 0. -1.
        -11    1    4    4    0    0 -0.27248387706E-01 -0.97919919620E-01 -0.27112150846E-01  0.10519560416E+00  0.51100000000E-03 0. -1.
         11    1    4    4    0    0 -0.14469492915E-01 -0.17648689852E-01 -0.67491835725E-02  0.23804518029E-01  0.51100000000E-03 0.  1.
</event>
<event>
 8    1  0.1109553E+005  0.1043930E+01  0.7957747E-01            NaN
         13   -1    0    0    0    0  0.00000000000E+00  0.00000000000E+00  0.74505805969E-08  0.10566000000E+00  0.10566000000E+00 0.  1.
     999900   -1    0    0    0    0 -0.00000000000E+00 -0.00000000000E+00 -0.74505805969E-08  0.93827000000E+00  0.93827000000E+00 0. -1.
     999902    2    1    2    0    0 -0.23097250440E-01 -0.36011685235E-02 -0.34728240135E-02  0.10202971437E+01  0.10200234063E+01 0.  0.
     999903    2    3    3    0    0  0.38627868931E-01 -0.11374475336E-01  0.12124784157E+00  0.12932819970E+00  0.20081165426E-01 0.  0.
         14    1    1    2    0    0  0.23097250440E-01  0.36011685235E-02  0.34728240135E-02  0.23632856350E-01  0.00000000000E+00 0. -1.
     999901    1    3    3    0    0 -0.61725119371E-01  0.77733068121E-02 -0.12472066558E+00  0.89096894395E+00  0.88000000000E+00 0. -1.
        -11    1    4    4    0    0  0.10778580831E-01 -0.12862706711E-01  0.53157016965E-01  0.55745462616E-01  0.51100000000E-03 0.  1.
         11    1    4    4    0    0  0.27849288100E-01  0.14882313759E-02  0.68090824606E-01  0.73582737084E-01  0.51100000000E-03 0. -1.
</event>
<event>
 8    1  0.1109553E+005  0.1043930E+01  0.7957747E-01            NaN
         13   -1    0    0    0    0  0.00000000000E+00  0.00000000000E+00  0.74505805969E-08  0.10566000000E+00  0.10566000000E+00 0. -1.
     999900   -1    0    0    0    0 -0.00000000000E+00 -0.00000000000E+00 -0.74505805969E-08  0.93827000000E+00  0.93827000000E+00 0. -1.
     999902    2    1    2    0    0  0.19458878391E-01  0.72812479728E-02 -0.13480091651E-01  0.10191635430E+01  0.10188625766E+01 0.  0.
     999903    2    3    3    0    0 -0.68802302398E-01  0.78838548160E-01  0.70462222757E-01  0.12789658224E+00  0.21055579317E-01 0.  0.
         14    1    1    2    0    0 -0.19458878391E-01 -0.72812479728E-02  0.13480091651E-01  0.24766456977E-01  0.00000000000E+00 0. -1.
     999901    1    3    3    0    0  0.88261180789E-01 -0.71557300187E-01 -0.83942314408E-01  0.89126696079E+00  0.88000000000E+00 0.  1.
        -11    1    4    4    0    0 -0.42833758114E-01  0.52286628644E-01  0.56900939227E-01  0.88354968027E-01  0.51100000000E-03 0. -1.
         11    1    4    4    0    0 -0.25968544284E-01  0.26551919516E-01  0.13561283530E-01  0.39541614208E-01  0.51100000000E-03 0.  1.
</event>
<event>
 8    1  0.1109553E+005  0.1043930E+01  0.7957747E-01            NaN
         13   -1    0    0    0    0  0.00000000000E+00  0.00000000000E+00  0.74505805969E-08  0.10566000000E+00  0.10566000000E+00 0. -1.
     999900   -1    0    0    0    0 -0.00000000000E+00 -0.00000000000E+00 -0.74505805969E-08  0.93827000000E+00  0.93827000000E+00 0. -1.
     999902    2    1    2    0    0 -0.13885764948E-01 -0.20584445447E-01 -0.93971604469E-03  0.10190821243E+01  0.10187791513E+01 0.  0.
     999903    2    3    3    0    0  0.20099642194E-01 -0.71655177681E-01  0.10521797464E+00  0.13058188066E+00  0.21032005708E-01 0.  0.
         14    1    1    2    0    0  0.13885764948E-01  0.20584445447E-01  0.93971604469E-03  0.24847875740E-01  0.00000000000E+00 0.  1.
     999901    1    3    3    0    0 -0.33985407142E-01  0.51070732235E-01 -0.10615769068E+00  0.88850024360E+00  0.88000000000E+00 0. -1.
        -11    1    4    4    0    0  0.23007628779E-01 -0.60192915465E-01  0.95791540201E-01  0.11545050173E+00  0.51100000000E-03 0. -1.
         11    1    4    4    0    0 -0.29079865851E-02 -0.11462262216E-01  0.94264344379E-02  0.15131378930E-01  0.51100000000E-03 0.  1.
</event>
<event>
 8    1  0.1109553E+005  0.1043930E+01  0.7957747E-01            NaN
         13   -1    0    0    0    0  0.00000000000E+00  0.00000000000E+00  0.74505805969E-08  0.10566000000E+00  0.10566000000E+00 0.  1.
     999900   -1    0    0    0    0 -0.00000000000E+00 -0.00000000000E+00 -0.74505805969E-08  0.93827000000E+00  0.93827000000E+00 0. -1.
     999902    2    1    2    0    0  0.93550530942E-02 -0.12129263974E-01 -0.16653400362E-01  0.10213032060E+01  0.10210525289E+01 0.  0.
     999903    2    3    3    0    0  0.10458087819E+00 -0.62028508253E-01  0.48354338529E-01  0.13238031932E+00  0.20042728608E-01 0.  0.
         14    1    1    2    0    0 -0.93550530942E-02  0.12129263974E-01  0.16653400362E-01  0.22626793997E-01  0.00000000000E+00 0. -1.
     999901    1    3    3    0    0 -0.95225825100E-01  0.49899244278E-01 -0.65007738891E-01  0.88892288668E+00  0.88000000000E+00 0.  1.
        -11    1    4    4    0    0  0.12970473990E-01 -0.13566175597E-01  0.13154764165E-01  0.22925602655E-01  0.51100000000E-03 0. -1.
         11    1    4    4    0    0  0.91610404204E-01 -0.48462332656E-01  0.35199574364E-01  0.10945471667E+00  0.51100000000E-03 0.  1.
</event>
<event>
 8    1  0.1109553E+005  0.1043930E+01  0.7957747E-01            NaN
         13   -1    0    0    0    0  0.00000000000E+00  0.00000000000E+00  0.74505805969E-08  0.10566000000E+00  0.10566000000E+00 0.  1.
     999900   -1    0    0    0    0 -0.00000000000E+00 -0.00000000000E+00 -0.74505805969E-08  0.93827000000E+00  0.93827000000E+00 0.  1.
     999902    2    1    2    0    0  0.14462348934E-01 -0.18786167505E-01  0.15267514497E-02  0.10201726728E+01  0.10198960102E+01 0.  0.
     999903    2    3    3    0    0  0.45211489506E-02 -0.11606218073E+00  0.61543133199E-01  0.13272497502E+00  0.18370932630E-01 0.  0.
         14    1    1    2    0    0 -0.14462348934E-01  0.18786167505E-01 -0.15267514497E-02  0.23757327211E-01  0.00000000000E+00 0.  1.
     999901    1    3    3    0    0  0.99411999838E-02  0.97276013223E-01 -0.60016381749E-01  0.88744769777E+00  0.88000000000E+00 0. -1.
        -11    1    4    4    0    0 -0.46581110610E-02 -0.14736986900E-01  0.11932091014E-01  0.19532350051E-01  0.51100000000E-03 0. -1.
         11    1    4    4    0    0  0.91792600115E-02 -0.10132519383E+00  0.49611042185E-01  0.11319262496E+00  0.51100000000E-03 0.  1.
</event>
<event>
 8    1  0.1109553E+005  0.1043930E+01  0.7957747E-01            NaN
         13   -1    0    0    0    0  0.00000000000E+00  0.00000000000E+00  0.74505805969E-08  0.10566000000E+00  0.10566000000E+00 0.  1.
     999900   -1    0    0    0    0 -0.00000000000E+00 -0.00000000000E+00 -0.74505805969E-08  0.93827000000E+00  0.93827000000E+00 0. -1.
     999902    2    1    2    0    0  0.27232040856E-02 -0.48942961241E-02 -0.23695698731E-01  0.10195813632E+01  0.10192905867E+01 0.  0.
     999903    2    3    3    0    0 -0.78374913840E-01  0.49926663694E-01 -0.91401290821E-01  0.13156881287E+00  0.17912500912E-01 0.  0.
         14    1    1    2    0    0 -0.27232040856E-02  0.48942961241E-02  0.23695698731E-01  0.24348636788E-01  0.00000000000E+00 0.  1.
     999901    1    3    3    0    0  0.81098117926E-01 -0.54820959819E-01  0.67705592090E-01  0.88801255034E+00  0.88000000000E+00 0.  1.
        -11    1    4    4    0    0 -0.39174004496E-01  0.34855735097E-01 -0.54950219415E-01  0.75955991417E-01  0.51100000000E-03 0.  1.
         11    1    4    4    0    0 -0.39200909344E-01  0.15070928597E-01 -0.36451071406E-01  0.55612821452E-01  0.51100000000E-03 0. -1.
</event>
<event>
 8    1  0.1109553E+005  0.1043930E+01  0.7957747E-01            NaN
         13   -1    0    0    0    0  0.00000000000E+00  0.00000000000E+00  0.74505805969E-08  0.10566000000E+00  0.10566000000E+00 0. -1.
     999900   -1    0    0    0    0 -0.00000000000E+00 -0.00000000000E+00 -0.74505805969E-08  0.93827000000E+00  0.93827000000E+00 0.  1.
     999902    2    1    2    0    0  0.13747426782E-01  0.13387282115E-01  0.13771674357E-01  0.10203107265E+01  0.10200373074E+01 0.  0.
     999903    2    3    3    0    0  0.21245821305E-01 -0.12462933891E+00  0.19517852240E-01  0.12950332187E+00  0.20157052866E-01 0.  0.
         14    1    1    2    0    0 -0.13747426782E-01 -0.13387282115E-01 -0.13771674357E-01  0.23619273489E-01  0.00000000000E+00 0.  1.
     999901    1    3    3    0    0 -0.74983945230E-02  0.13801662102E+00 -0.57461778823E-02  0.89080740464E+00  0.88000000000E+00 0. -1.
        -11    1    4    4    0    0  0.61426570648E-02 -0.80218910913E-01  0.59772913038E-02  0.80677103544E-01  0.51100000000E-03 0. -1.
         11    1    4    4    0    0  0.15103164240E-01 -0.44410427995E-01  0.13540560936E-01  0.48826218328E-01  0.51100000000E-03 0.  1.
</event>
<event>
 8    1  0.1109553E+005  0.1043930E+01  0.7957747E-01            NaN
         13   -1    0    0    0    0  0.00000000000E+00  0.00000000000E+00  0.74505805969E-08  0.10566000000E+00  0.10566000000E+00 0. -1.
     999900   -1    0    0    0    0 -0.00000000000E+00 -0.00000000000E+00 -0.74505805969E-08  0.93827000000E+00  0.93827000000E+00 0.  1.
     999902    2    1    2    0    0 -0.29729704888E-01  0.16382694525E-01  0.32491603753E-02  0.10098300722E+01  0.10092541650E+01 0.  0.
     999903    2    3    3    0    0  0.62259974293E-01 -0.90773271911E-01 -0.36509019607E-01  0.11768366320E+00  0.20011116394E-01 0.  0.
         14    1    1    2    0    0  0.29729704888E-01 -0.16382694525E-01 -0.32491603753E-02  0.34099927797E-01  0.00000000000E+00 0.  1.
     999901    1    3    3    0    0 -0.91989679182E-01  0.10715596644E+00  0.39758179983E-01  0.89214640900E+00  0.88000000000E+00 0. -1.
        -11    1    4    4    0    0  0.36594281156E-01 -0.68027956609E-01 -0.29423387296E-01  0.82661606171E-01  0.51100000000E-03 0. -1.
         11    1    4    4    0    0  0.25665693137E-01 -0.22745315302E-01 -0.70856323109E-02  0.35022057030E-01  0.51100000000E-03 0.  1.
</event>
<event>
 8    1  0.1109553E+005  0.1043930E+01  0.7957747E-01            NaN
         13   -1    0    0    0    0  0.00000000000E+00  0.00000000000E+00  0.74505805969E-08  0.10566000000E+00  0.10566000000E+00 0. -1.
     999900   -1    0    0    0    0 -0.00000000000E+00 -0.00000000000E+00 -0.74505805969E-08  0.93827000000E+00  0.93827000000E+00 0. -1.
     999902    2    1    2    0    0 -0.10911452105E-01 -0.99141294201E-02  0.18054807978E-01  0.10206206491E+01  0.10203544401E+01 0.  0.
     999903    2    3    3    0    0  0.30016833071E-01  0.42855397454E-01  0.11980708039E+00  0.13224388642E+00  0.19927709949E-01 0.  0.
         14    1    1    2    0    0  0.10911452105E-01  0.99141294201E-02 -0.18054807978E-01  0.23309350920E-01  0.00000000000E+00 0.  1.
     999901    1    3    3    0    0 -0.40928285176E-01 -0.52769526874E-01 -0.10175227242E+00  0.88837676266E+00  0.88000000000E+00 0. -1.
        -11    1    4    4    0    0  0.15624988578E-01  0.22838425724E-01  0.86379755010E-01  0.90705331454E-01  0.51100000000E-03 0.  1.
         11    1    4    4    0    0  0.14391844493E-01  0.20016971730E-01  0.33427325385E-01  0.41538554965E-01  0.51100000000E-03 0. -1.
</event>
<event>
 8    1  0.1109553E+005  0.1043930E+01  0.7957747E-01            NaN
         13   -1    0    0    0    0  0.00000000000E+00  0.00000000000E+00  0.74505805969E-08  0.10566000000E+00  0.10566000000E+00 0.  1.
     999900   -1    0    0    0    0 -0.00000000000E+00 -0.00000000000E+00 -0.74505805969E-08  0.93827000000E+00  0.93827000000E+00 0.  1.
     999902    2    1    2    0    0  0.13648160173E-01 -0.16511375250E-01  0.88297752272E-02  0.10207597018E+01  0.10204966958E+01 0.  0.
     999903    2    3    3    0    0 -0.98112382839E-01 -0.54474335940E-01  0.64421147978E-01  0.13114067879E+00  0.21314323429E-01 0.  0.
         14    1    1    2    0    0 -0.13648160173E-01  0.16511375250E-01 -0.88297752272E-02  0.23170298214E-01  0.00000000000E+00 0. -1.
     999901    1    3    3    0    0  0.11176054301E+00  0.37962960690E-01 -0.55591372751E-01  0.88961902300E+00  0.88000000000E+00 0.  1.
        -11    1    4    4    0    0 -0.81901921437E-01 -0.38420282364E-01  0.57891210922E-01  0.10740435864E+00  0.51100000000E-03 0. -1.
         11    1    4    4    0    0 -0.16210461402E-01 -0.16054053576E-01  0.65299370559E-02  0.23736320146E-01  0.51100000000E-03 0.  1.
</event>
<event>
 8    1  0.1109553E+005  0.1043930E+01  0.7957747E-01            NaN
         13   -1    0    0    0    0  0.00000000000E+00  0.00000000000E+00  0.74505805969E-08  0.10566000000E+00  0.10566000000E+00 0.  1.
     999900   -1    0    0    0    0 -0.00000000000E+00 -0.00000000000E+00 -0.74505805969E-08  0.93827000000E+00  0.93827000000E+00 0. -1.
     999902    2    1    2    0    0  0.18855208001E-01 -0.18007522392E-01 -0.65944271907E-02  0.10170362051E+01  0.10166805626E+01 0.  0.
     999903    2    3    3    0    0  0.13693472371E-01  0.12124286859E+00 -0.27423048901E-01  0.12582851534E+00  0.13908533044E-01 0.  0.
         14    1    1    2    0    0 -0.18855208001E-01  0.18007522392E-01  0.65944271907E-02  0.26893794850E-01  0.00000000000E+00 0. -1.
     999901    1    3    3    0    0  0.51617356298E-02 -0.13925039098E+00  0.20828621711E-01  0.89120768981E+00  0.88000000000E+00 0. -1.
        -11    1    4    4    0    0  0.71192070898E-02  0.29142591164E-01 -0.11485603915E-01  0.32127152809E-01  0.51100000000E-03 0. -1.
         11    1    4    4    0    0  0.65742652810E-02  0.92100277424E-01 -0.15937444987E-01  0.93701362526E-01  0.51100000000E-03 0.  1.
</event>
<event>
 8    1  0.1109553E+005  0.1043930E+01  0.7957747E-01            NaN
         13   -1    0    0    0    0  0.00000000000E+00  0.00000000000E+00  0.74505805969E-08  0.10566000000E+00  0.10566000000E+00 0. -1.
     999900   -1    0    0    0    0 -0.00000000000E+00 -0.00000000000E+00 -0.74505805969E-08  0.93827000000E+00  0.93827000000E+00 0. -1.
     999902    2    1    2    0    0  0.10033399370E-02 -0.23357086103E-01  0.29139542556E-02  0.10203704734E+01  0.10200984520E+01 0.  0.
     999903    2    3    3    0    0  0.32466595774E-01 -0.11573808750E+00 -0.54106974282E-01  0.13314131918E+00  0.18699237043E-01 0.  0.
         14    1    1    2    0    0 -0.10033399370E-02  0.23357086103E-01 -0.29139542556E-02  0.23559526559E-01  0.00000000000E+00 0. -1.
     999901    1    3    3    0    0 -0.31463255837E-01  0.92381001399E-01  0.57020928538E-01  0.88722915427E+00  0.88000000000E+00 0.  1.
        -11    1    4    4    0    0  0.23273806286E-01 -0.68649523191E-01 -0.23383816850E-01  0.76167520013E-01  0.51100000000E-03 0. -1.
         11    1    4    4    0    0  0.91927894878E-02 -0.47088564312E-01 -0.30723157432E-01  0.56973799163E-01  0.51100000000E-03 0.  1.
</event>
<event>
 8    1  0.1109553E+005  0.1043930E+01  0.7957747E-01            NaN
         13   -1    0    0    0    0  0.00000000000E+00  0.00000000000E+00  0.74505805969E-08  0.10566000000E+00  0.10566000000E+00 0.  1.
     999900   -1    0    0    0    0 -0.00000000000E+00 -0.00000000000E+00 -0.74505805969E-08  0.93827000000E+00  0.93827000000E+00 0. -1.
     999902    2    1    2    0    0  0.19962929947E-01 -0.75916294622E-02  0.11383805417E-01  0.10197278837E+01  0.10194406379E+01 0.  0.
     999903    2    3    3    0    0 -0.47248101747E-01 -0.77976316217E-01 -0.88683257766E-01  0.12872578262E+00  0.19822156627E-01 0.  0.
         14    1    1    2    0    0 -0.19962929947E-01  0.75916294622E-02 -0.11383805417E-01  0.24202116349E-01  0.00000000000E+00 0. -1.
     999901    1    3    3    0    0  0.67211031695E-01  0.70384686755E-01  0.10006706318E+00  0.89100210103E+00  0.88000000000E+00 0.  1.
        -11    1    4    4    0    0 -0.11792267817E-01 -0.38055039324E-01 -0.40278202513E-01  0.56655435017E-01  0.51100000000E-03 0. -1.
         11    1    4    4    0    0 -0.35455833931E-01 -0.39921276893E-01 -0.48405055252E-01  0.72070347602E-01  0.51100000000E-03 0.  1.
</event>
<event>
 8    1  0.1109553E+005  0.1043930E+01  0.7957747E-01            NaN
         13   -1    0    0    0    0  0.00000000000E+00  0.00000000000E+00  0.74505805969E-08  0.10566000000E+00  0.10566000000E+00 0. -1.
     999900   -1    0    0    0    0 -0.00000000000E+00 -0.00000000000E+00 -0.74505805969E-08  0.93827000000E+00  0.93827000000E+00 0.  1.
     999902    2    1    2    0    0  0.92851311663E-02  0.66500405748E-02  0.21431937400E-01  0.10196449297E+01  0.10193556877E+01 0.  0.
     999903    2    3    3    0    0  0.68572649312E-01 -0.51631294906E-01 -0.93308860095E-01  0.12831043887E+00  0.19723754797E-01 0.  0.
         14    1    1    2    0    0 -0.92851311663E-02 -0.66500405748E-02 -0.21431937400E-01  0.24285070334E-01  0.00000000000E+00 0.  1.
     999901    1    3    3    0    0 -0.59287518145E-01  0.58281335480E-01  0.11474079750E+00  0.89133449080E+00  0.88000000000E+00 0. -1.
        -11    1    4    4    0    0  0.24376759335E-01 -0.99701642589E-02 -0.19793529951E-01  0.32949590589E-01  0.51100000000E-03 0. -1.
         11    1    4    4    0    0  0.44195889976E-01 -0.41661130647E-01 -0.73515330144E-01  0.95360848281E-01  0.51100000000E-03 0.  1.
</event>
<event>
 8    1  0.1109553E+005  0.1043930E+01  0.7957747E-01            NaN
         13   -1    0    0    0    0  0.00000000000E+00  0.00000000000E+00  0.74505805969E-08  0.10566000000E+00  0.10566000000E+00 0.  1.
     999900   -1    0    0    0    0 -0.00000000000E+00 -0.00000000000E+00 -0.74505805969E-08  0.93827000000E+00  0.93827000000E+00 0.  1.
     999902    2    1    2    0    0 -0.21252884763E-01 -0.10361359468E-01 -0.71485113183E-02  0.10192289050E+01  0.10189295445E+01 0.  0.
     999903    2    3    3    0    0 -0.28568085768E-01 -0.11023839209E+00 -0.62967555416E-01  0.13179175257E+00  0.20868981626E-01 0.  0.
         14    1    1    2    0    0  0.21252884763E-01  0.10361359468E-01  0.71485113183E-02  0.24701095013E-01  0.00000000000E+00 0.  1.
     999901    1    3    3    0    0  0.73152010050E-02  0.99877032623E-01  0.55819044098E-01  0.88743715242E+00  0.88000000000E+00 0. -1.
        -11    1    4    4    0    0 -0.16469044551E-01 -0.54993955788E-01 -0.20103192389E-01  0.60827329934E-01  0.51100000000E-03 0.  1.
         11    1    4    4    0    0 -0.12099041217E-01 -0.55244436303E-01 -0.42864363027E-01  0.70964422632E-01  0.51100000000E-03 0. -1.
</event>
<event>
 8    1  0.1109553E+005  0.1043930E+01  0.7957747E-01            NaN
         13   -1    0    0    0    0  0.00000000000E+00  0.00000000000E+00  0.74505805969E-08  0.10566000000E+00  0.10566000000E+00 0.  1.
     999900   -1    0    0    0    0 -0.00000000000E+00 -0.00000000000E+00 -0.74505805969E-08  0.93827000000E+00  0.93827000000E+00 0. -1.
     999902    2    1    2    0    0  0.11760162462E-02  0.23482094468E-01 -0.92579113596E-02  0.10186614287E+01  0.10183479786E+01 0.  0.
     999903    2    3    3    0    0 -0.40422566762E-01  0.52426780099E-01 -0.11156457899E+00  0.13128614662E+00  0.20170419761E-01 0.  0.
         14    1    1    2    0    0 -0.11760162462E-02 -0.23482094468E-01  0.92579113596E-02  0.25268571340E-01  0.00000000000E+00 0. -1.
     999901    1    3    3    0    0  0.41598583008E-01 -0.28944685632E-01  0.10230666763E+00  0.88737528204E+00  0.88000000000E+00 0.  1.
        -11    1    4    4    0    0 -0.26737781845E-01  0.18261107602E-01 -0.50861211192E-01  0.60295115505E-01  0.51100000000E-03 0. -1.
         11    1    4    4    0    0 -0.13684784916E-01  0.34165672498E-01 -0.60703367800E-01  0.70991031115E-01  0.51100000000E-03 0.  1.
</event>
<event>
 8    1  0.1109553E+005  0.1043930E+01  0.7957747E-01            NaN
         13   -1    0    0    0    0  0.00000000000E+00  0.00000000000E+00  0.74505805969E-08  0.10566000000E+00  0.10566000000E+00 0.  1.
     999900   -1    0    0    0    0 -0.00000000000E+00 -0.00000000000E+00 -0.74505805969E-08  0.93827000000E+00  0.93827000000E+00 0. -1.
     999902    2    1    2    0    0 -0.49953159294E-02 -0.21469161747E-01 -0.87510350272E-02  0.10202137882E+01  0.10199380937E+01 0.  0.
     999903    2    3    3    0    0 -0.53322914455E-01 -0.85930565740E-01 -0.84504215242E-01  0.13329249876E+00  0.19963278708E-01 0.  0.
         14    1    1    2    0    0  0.49953159294E-02  0.21469161747E-01  0.87510350272E-02  0.23716211784E-01  0.00000000000E+00 0.  1.
     999901    1    3    3    0    0  0.48327598525E-01  0.64461403993E-01  0.75753180215E-01  0.88692128946E+00  0.88000000000E+00 0.  1.
        -11    1    4    4    0    0 -0.33921872377E-01 -0.39586252262E-01 -0.50793367343E-01  0.72787307140E-01  0.51100000000E-03 0.  1.
         11    1    4    4    0    0 -0.19401042077E-01 -0.46344313478E-01 -0.33710847899E-01  0.60505191616E-01  0.51100000000E-03 0. -1.
</event>
<event>
 8    1  0.1109553E+005  0.1043930E+01  0.7957747E-01            NaN
         13   -1    0    0    0    0  0.00000000000E+00  0.00000000000E+00  0.74505805969E-08  0.10566000000E+00  0.10566000000E+00 0.  1.
     999900   -1    0    0    0    0 -0.00000000000E+00 -0.00000000000E+00 -0.74505805969E-08  0.93827000000E+00  0.93827000000E+00 0.  1.
     999902    2    1    2    0    0 -0.13965314866E-01 -0.13474201516E-01 -0.11788378609E-01  0.10212242739E+01  0.10209718251E+01 0.  0.
     999903    2    3    3    0    0 -0.10152030673E+00  0.73315082142E-01  0.34788514682E-01  0.13141099951E+00  0.19419992025E-01 0.  0.
         14    1    1    2    0    0  0.13965314866E-01  0.13474201516E-01  0.11788378609E-01  0.22705726062E-01  0.00000000000E+00 0.  1.
     999901    1    3    3    0    0  0.87554991866E-01 -0.86789283657E-01 -0.46576893290E-01  0.88981327443E+00  0.88000000000E+00 0. -1.
        -11    1    4    4    0    0 -0.57394512122E-01  0.29517197233E-01  0.18395548049E-01  0.67112236316E-01  0.51100000000E-03 0. -1.
         11    1    4    4    0    0 -0.44125794610E-01  0.43797884909E-01  0.16392966632E-01  0.64298763195E-01  0.51100000000E-03 0.  1.
</event>
<event>
 8    1  0.1109553E+005  0.1043930E+01  0.7957747E-01            NaN
         13   -1    0    0    0    0  0.00000000000E+00  0.00000000000E+00  0.74505805969E-08  0.10566000000E+00  0.10566000000E+00 0. -1.
     999900   -1    0    0    0    0 -0.00000000000E+00 -0.00000000000E+00 -0.74505805969E-08  0.93827000000E+00  0.93827000000E+00 0. -1.
     999902    2    1    2    0    0 -0.39143509184E-02 -0.89342521008E-03  0.25743874172E-01  0.10178749159E+01  0.10175413883E+01 0.  0.
     999903    2    3    3    0    0  0.95094104621E-01 -0.67887425566E-02 -0.79956669071E-01  0.12601728492E+00  0.19957740627E-01 0.  0.
         14    1    1    2    0    0  0.39143509184E-02  0.89342521008E-03 -0.25743874172E-01  0.26055084132E-01  0.00000000000E+00 0.  1.
     999901    1    3    3    0    0 -0.99008455540E-01  0.58953173465E-02  0.10570054324E+00  0.89185763095E+00  0.88000000000E+00 0.  1.
        -11    1    4    4    0    0  0.82350765434E-01 -0.51998314938E-02 -0.76927252308E-01  0.11281289857E+00  0.51100000000E-03 0. -1.
         11    1    4    4    0    0  0.12743339188E-01 -0.15889110628E-02 -0.30294167636E-02  0.13204386352E-01  0.51100000000E-03 0.  1.
</event>
<event>
 8    1  0.1109553E+005  0.1043930E+01  0.7957747E-01            NaN
         13   -1    0    0    0    0  0.00000000000E+00  0.00000000000E+00  0.74505805969E-08  0.10566000000E+00  0.10566000000E+00 0. -1.
     999900   -1    0    0    0    0 -0.00000000000E+00 -0.00000000000E+00 -0.74505805969E-08  0.93827000000E+00  0.93827000000E+00 0. -1.
     999902    2    1    2    0    0 -0.40942541798E-02  0.21152745282E-01 -0.12267189227E-01  0.10191371486E+01  0.10188355324E+01 0.  0.
     999903    2    3    3    0    0 -0.57471428766E-01  0.73833367450E-01  0.88263853031E-01  0.13024409473E+00  0.20461798224E-01 0.  0.
         14    1    1    2    0    0  0.40942541798E-02 -0.21152745282E-01  0.12267189227E-01  0.24792851425E-01  0.00000000000E+00 0.  1.
     999901    1    3    3    0    0  0.53377174586E-01 -0.52680622168E-01 -0.10053104226E+00  0.88889305385E+00  0.88000000000E+00 0. -1.
        -11    1    4    4    0    0 -0.43817411710E-01  0.53763175464E-01  0.76509812014E-01  0.10326885813E+00  0.51100000000E-03 0. -1.
         11    1    4    4    0    0 -0.13654017056E-01  0.20070191986E-01  0.11754041016E-01  0.26975236594E-01  0.51100000000E-03 0.  1.
</event>
<event>
 8    1  0.1109553E+005  0.1043930E+01  0.7957747E-01            NaN
         13   -1    0    0    0    0  0.00000000000E+00  0.00000000000E+00  0.74505805969E-08  0.10566000000E+00  0.10566000000E+00 0. -1.
     999900   -1    0    0    0    0 -0.00000000000E+00 -0.00000000000E+00 -0.74505805969E-08  0.93827000000E+00  0.93827000000E+00 0. -1.
     999902    2    1    2    0    0  0.16756270570E-01 -0.14284939686E-01  0.97213153757E-02  0.10198605987E+01  0.10195765321E+01 0.  0.
     999903    2    3    3    0    0  0.63589179915E-01  0.78271044084E-01 -0.78355743961E-01  0.12940144755E+00  0.20860773506E-01 0.  0.
         14    1    1    2    0    0 -0.16756270570E-01  0.14284939686E-01 -0.97213153757E-02  0.24069401278E-01  0.00000000000E+00 0. -1.
     999901    1    3    3    0    0 -0.46832909345E-01 -0.92555983771E-01  0.88077059336E-01  0.89045915117E+00  0.88000000000E+00 0.  1.
        -11    1    4    4    0    0  0.78146212408E-02  0.75364158034E-02 -0.17810840019E-01  0.20865114701E-01  0.51100000000E-03 0. -1.
         11    1    4    4    0    0  0.55774558674E-01  0.70734628281E-01 -0.60544903942E-01  0.10853633285E+00  0.51100000000E-03 0.  1.
</event>
<event>
 8    1  0.1109553E+005  0.1043930E+01  0.7957747E-01            NaN
         13   -1    0    0    0    0  0.00000000000E+00  0.00000000000E+00  0.74505805969E-08  0.10566000000E+00  0.10566000000E+00 0.  1.
     999900   -1    0    0    0    0 -0.00000000000E+00 -0.00000000000E+00 -0.74505805969E-08  0.93827000000E+00  0.93827000000E+00 0.  1.
     999902    2    1    2    0    0 -0.23993875007E-01 -0.50160997349E-02  0.54169498102E-02  0.10188260035E+01  0.10185166738E+01 0.  0.
     999903    2    3    3    0    0 -0.50191169418E-01 -0.78029438004E-01 -0.89356504840E-01  0.13034457236E+00  0.19934289641E-01 0.  0.
         14    1    1    2    0    0  0.23993875007E-01  0.50160997349E-02 -0.54169498102E-02  0.25103996487E-01  0.00000000000E+00 0.  1.
     999901    1    3    3    0    0  0.26197294411E-01  0.73013338269E-01  0.94773454650E-01  0.88848143115E+00  0.88000000000E+00 0. -1.
        -11    1    4    4    0    0 -0.44100589206E-01 -0.56160328844E-01 -0.60261182825E-01  0.93437229093E-01  0.51100000000E-03 0. -1.
         11    1    4    4    0    0 -0.60905802116E-02 -0.21869109159E-01 -0.29095322015E-01  0.36907343265E-01  0.51100000000E-03 0.  1.
</event>
<event>
 8    1  0.1109553E+005  0.1043930E+01  0.7957747E-01            NaN
         13   -1    0    0    0    0  0.00000000000E+00  0.00000000000E+00  0.74505805969E-08  0.10566000000E+00  0.10566000000E+00 0.  1.
     999900   -1    0    0    0    0 -0.00000000000E+00 -0.00000000000E+00 -0.74505805969E-08  0.93827000000E+00  0.93827000000E+00 0.  1.
     999902    2    1    2    0    0 -0.26356056985E-01 -0.12585002325E-02  0.83491305376E-02  0.10162544956E+01  0.10158775843E+01 0.  0.
     999903    2    3    3    0    0 -0.47021999812E-01 -0.10288688036E+00 -0.57390723643E-01  0.12772923583E+00  0.14976111268E-01 0.  0.
         14    1    1    2    0    0  0.26356056985E-01  0.12585002325E-02 -0.83491305376E-02  0.27675504392E-01  0.00000000000E+00 0. -1.
     999901    1    3    3    0    0  0.20665942828E-01  0.10162838013E+00  0.65739854180E-01  0.88852525978E+00  0.88000000000E+00 0. -1.
        -11    1    4    4    0    0 -0.22351787790E-01 -0.53521925134E-01 -0.37476865068E-01  0.69057768743E-01  0.51100000000E-03 0.  1.
         11    1    4    4    0    0 -0.24670212022E-01 -0.49364955225E-01 -0.19913858575E-01  0.58671467085E-01  0.51100000000E-03 0. -1.
</event>
<event>
 8    1  0.1109553E+005  0.1043930E+01  0.7957747E-01            NaN
         13   -1    0    0    0    0  0.00000000000E+00  0.00000000000E+00  0.74505805969E-08  0.10566000000E+00  0.10566000000E+00 0.  1.
     999900   -1    0    0    0    0 -0.00000000000E+00 -0.00000000000E+00 -0.74505805969E-08  0.93827000000E+00  0.93827000000E+00 0. -1.
     999902    2    1    2    0    0 -0.80342273769E-03 -0.18198173661E-01  0.15969480714E-01  0.10197051506E+01  0.10194173585E+01 0.  0.
     999903    2    3    3    0    0 -0.28131813947E-01 -0.12552981038E+00  0.26145432675E-01  0.13270432132E+00  0.19435045553E-01 0.  0.
         14    1    1    2    0    0  0.80342273769E-03  0.18198173661E-01 -0.15969480714E-01  0.24224849369E-01  0.00000000000E+00 0. -1.
     999901    1    3    3    0    0  0.27328391210E-01  0.10733163672E+00 -0.10175951961E-01  0.88700082932E+00  0.88000000000E+00 0.  1.
        -11    1    4    4    0    0 -0.21971818039E-01 -0.70603605432E-01  0.72894559935E-02  0.74303614835E-01  0.51100000000E-03 0.  1.
         11    1    4    4    0    0 -0.61599959084E-02 -0.54926204950E-01  0.18855976681E-01  0.58400706480E-01  0.51100000000E-03 0. -1.
</event>
<event>
 8    1  0.1109553E+005  0.1043930E+01  0.7957747E-01            NaN
         13   -1    0    0    0    0  0.00000000000E+00  0.00000000000E+00  0.74505805969E-08  0.10566000000E+00  0.10566000000E+00 0.  1.
     999900   -1    0    0    0    0 -0.00000000000E+00 -0.00000000000E+00 -0.74505805969E-08  0.93827000000E+00  0.93827000000E+00 0. -1.
     999902    2    1    2    0    0 -0.39589247364E-02 -0.23844659498E-01 -0.57263274269E-02  0.10190898773E+01  0.10187870956E+01 0.  0.
     999903    2    3    3    0    0 -0.88062713831E-01  0.71667482417E-01  0.55259527151E-01  0.12784620068E+00  0.19994151255E-01 0.  0.
         14    1    1    2    0    0  0.39589247364E-02  0.23844659498E-01  0.57263274269E-02  0.24840122734E-01  0.00000000000E+00 0.  1.
     999901    1    3    3    0    0  0.84103789094E-01 -0.95512141915E-01 -0.60985854578E-01  0.89124367658E+00  0.88000000000E+00 0.  1.
        -11    1    4    4    0    0 -0.16900223026E-01  0.15500125716E-01  0.20461954446E-01  0.30737991742E-01  0.51100000000E-03 0.  1.
         11    1    4    4    0    0 -0.71162490805E-01  0.56167356701E-01  0.34797572705E-01  0.97108208940E-01  0.51100000000E-03 0. -1.
</event>
<event>
 8    1  0.1109553E+005  0.1043930E+01  0.7957747E-01            NaN
         13   -1    0    0    0    0  0.00000000000E+00  0.00000000000E+00  0.74505805969E-08  0.10566000000E+00  0.10566000000E+00 0. -1.
     999900   -1    0    0    0    0 -0.00000000000E+00 -0.00000000000E+00 -0.74505805969E-08  0.93827000000E+00  0.93827000000E+00 0. -1.
     999902    2    1    2    0    0  0.25684550863E-01 -0.86510463644E-03  0.10544535074E-02  0.10182092607E+01  0.10178843461E+01 0.  0.
     999903    2    3    3    0    0 -0.90150995002E-02 -0.91577263902E-01 -0.87432758766E-01  0.12845494161E+00  0.19710845607E-01 0.  0.
         14    1    1    2    0    0 -0.25684550863E-01  0.86510463644E-03 -0.10544535074E-02  0.25720739321E-01  0.00000000000E+00 0.  1.
     999901    1    3    3    0    0  0.34699650363E-01  0.90712159266E-01  0.88487212273E-01  0.88975431907E+00  0.88000000000E+00 0.  1.
        -11    1    4    4    0    0 -0.77133656538E-02 -0.52969475445E-01 -0.63316156072E-01  0.82912351790E-01  0.51100000000E-03 0. -1.
         11    1    4    4    0    0 -0.13017338464E-02 -0.38607788458E-01 -0.24116602694E-01  0.45542589815E-01  0.51100000000E-03 0.  1.
</event>
<event>
 8    1  0.1109553E+005  0.1043930E+01  0.7957747E-01            NaN
         13   -1    0    0    0    0  0.00000000000E+00  0.00000000000E+00  0.74505805969E-08  0.10566000000E+00  0.10566000000E+00 0. -1.
     999900   -1    0    0    0    0 -0.00000000000E+00 -0.00000000000E+00 -0.74505805969E-08  0.93827000000E+00  0.93827000000E+00 0.  1.
     999902    2    1    2    0    0 -0.20169042464E-01 -0.17531954452E-02  0.70868415861E-02  0.10224803545E+01  0.10222553439E+01 0.  0.
     999903    2    3    3    0    0 -0.58339977638E-01 -0.72291842954E-01  0.95179067053E-01  0.13445278665E+00  0.19718861132E-01 0.  0.
         14    1    1    2    0    0  0.20169042464E-01  0.17531954452E-02 -0.70868415861E-02  0.21449645495E-01  0.00000000000E+00 0.  1.
     999901    1    3    3    0    0  0.38170935173E-01  0.70538647509E-01 -0.88092225466E-01  0.88802756786E+00  0.88000000000E+00 0.  1.
        -11    1    4    4    0    0 -0.99297278328E-02 -0.39319617520E-02  0.67356883760E-02  0.12636868162E-01  0.51100000000E-03 0.  1.
         11    1    4    4    0    0 -0.48410249805E-01 -0.68359881202E-01  0.88443378677E-01  0.12181591849E+00  0.51100000000E-03 0. -1.
</event>
<event>
 8    1  0.1109553E+005  0.1043930E+01  0.7957747E-01            NaN
         13   -1    0    0    0    0  0.00000000000E+00  0.00000000000E+00  0.74505805969E-08  0.10566000000E+00  0.10566000000E+00 0.  1.
     999900   -1    0    0    0    0 -0.00000000000E+00 -0.00000000000E+00 -0.74505805969E-08  0.93827000000E+00  0.93827000000E+00 0. -1.
     999902    2    1    2    0    0  0.16322824123E-01 -0.14994909504E-01 -0.36351240312E-02  0.10214690110E+01  0.10212220349E+01 0.  0.
     999903    2    3    3    0    0 -0.71782802888E-01 -0.94589712243E-01 -0.54824429683E-01  0.13202071060E+00  0.17993484531E-01 0.  0.
         14    1    1    2    0    0 -0.16322824123E-01  0.14994909504E-01  0.36351240312E-02  0.22460988961E-01  0.00000000000E+00 0.  1.
     999901    1    3    3    0    0  0.88105627012E-01  0.79594802740E-01  0.51189305651E-01  0.88944830044E+00  0.88000000000E+00 0.  1.
        -11    1    4    4    0    0 -0.60986987016E-01 -0.67967045246E-01 -0.43265723037E-01  0.10105006549E+00  0.51100000000E-03 0. -1.
         11    1    4    4    0    0 -0.10795815872E-01 -0.26622666997E-01 -0.11558706645E-01  0.30970645113E-01  0.51100000000E-03 0.  1.
</event>
<event>
 8    1  0.1109553E+005  0.1043930E+01  0.7957747E-01            NaN
         13   -1    0    0    0    0  0.00000000000E+00  0.00000000000E+00  0.74505805969E-08  0.10566000000E+00  0.10566000000E+00 0. -1.
     999900   -1    0    0    0    0 -0.00000000000E+00 -0.00000000000E+00 -0.74505805969E-08  0.93827000000E+00  0.93827000000E+00 0.  1.
     999902    2    1    2    0    0 -0.10894952701E-01  0.24650353463E-02 -0.21162633693E-01  0.10200002391E+01  0.10197194978E+01 0.  0.
     999903    2    3    3    0    0  0.11345935744E-01 -0.30910061197E-01 -0.12715060653E+00  0.13273364746E+00  0.19151560913E-01 0.  0.
         14    1    1    2    0    0  0.10894952701E-01 -0.24650353463E-02  0.21162633693E-01  0.23929760936E-01  0.00000000000E+00 0.  1.
     999901    1    3    3    0    0 -0.22240888445E-01  0.33375096543E-01  0.10598797284E+00  0.88726659160E+00  0.88000000000E+00 0. -1.
        -11    1    4    4    0    0 -0.10214217373E-02 -0.23481960982E-01 -0.84297203439E-01  0.87514144129E-01  0.51100000000E-03 0. -1.
         11    1    4    4    0    0  0.12367357481E-01 -0.74281002150E-02 -0.42853403094E-01  0.45219503332E-01  0.51100000000E-03 0.  1.
</event>
<event>
 8    1  0.1109553E+005  0.1043930E+01  0.7957747E-01            NaN
         13   -1    0    0    0    0  0.00000000000E+00  0.00000000000E+00  0.74505805969E-08  0.10566000000E+00  0.10566000000E+00 0. -1.
     999900   -1    0    0    0    0 -0.00000000000E+00 -0.00000000000E+00 -0.74505805969E-08  0.93827000000E+00  0.93827000000E+00 0.  1.
     999902    2    1    2    0    0 -0.51061322264E-02  0.85841206699E-02 -0.20682546249E-01  0.10209620346E+01  0.10207036537E+01 0.  0.
     999903    2    3    3    0    0  0.53680488066E-01  0.83898020161E-01  0.81277624215E-01  0.12993794598E+00  0.18903571692E-01 0.  0.
         14    1    1    2    0    0  0.51061322264E-02 -0.85841206699E-02  0.20682546249E-01  0.22967965372E-01  0.00000000000E+00 0. -1.
     999901    1    3    3    0    0 -0.58786620293E-01 -0.75313899491E-01 -0.10196017046E+00  0.89102408864E+00  0.88000000000E+00 0.  1.
        -11    1    4    4    0    0  0.45492370664E-02  0.60620673129E-03  0.28293300312E-02  0.54156508300E-02  0.51100000000E-03 0. -1.
         11    1    4    4    0    0  0.49131251000E-01  0.83291813430E-01  0.78448294184E-01  0.12452229515E+00  0.51100000000E-03 0.  1.
</event>
<event>
 8    1  0.1109553E+005  0.1043930E+01  0.7957747E-01            NaN
         13   -1    0    0    0    0  0.00000000000E+00  0.00000000000E+00  0.74505805969E-08  0.10566000000E+00  0.10566000000E+00 0.  1.
     999900   -1    0    0    0    0 -0.00000000000E+00 -0.00000000000E+00 -0.74505805969E-08  0.93827000000E+00  0.93827000000E+00 0. -1.
     999902    2    1    2    0    0 -0.18503546290E-01  0.66756029343E-03  0.13681050141E-01  0.10209083147E+01  0.10206487099E+01 0.  0.
     999903    2    3    3    0    0 -0.57574360402E-01  0.11389446634E+00  0.29700819510E-01  0.13264962838E+00  0.20664674995E-01 0.  0.
         14    1    1    2    0    0  0.18503546290E-01 -0.66756029343E-03 -0.13681050141E-01  0.23021685321E-01  0.00000000000E+00 0.  1.
     999901    1    3    3    0    0  0.39070814112E-01 -0.11322690604E+00 -0.16019769369E-01  0.88825868629E+00  0.88000000000E+00 0. -1.
        -11    1    4    4    0    0 -0.24568744069E-01  0.28818933979E-01  0.11664915812E-01  0.39629351783E-01  0.51100000000E-03 0.  1.
         11    1    4    4    0    0 -0.33005616333E-01  0.85075532359E-01  0.18035903698E-01  0.93020276601E-01  0.51100000000E-03 0. -1.
</event>
<event>
 8    1  0.1109553E+005  0.1043930E+01  0.7957747E-01            NaN
         13   -1    0    0    0    0  0.00000000000E+00  0.00000000000E+00  0.74505805969E-08  0.10566000000E+00  0.10566000000E+00 0. -1.
     999900   -1    0    0    0    0 -0.00000000000E+00 -0.00000000000E+00 -0.74505805969E-08  0.93827000000E+00  0.93827000000E+00 0. -1.
     999902    2    1    2    0    0  0.17284800642E-01  0.16211485733E-01  0.25499123772E-02  0.10200955993E+01  0.10198171175E+01 0.  0.
     999903    2    3    3    0    0  0.43650796411E-01  0.91099544206E-01 -0.83280190706E-01  0.13236242227E+00  0.19485935510E-01 0.  0.
         14    1    1    2    0    0 -0.17284800642E-01 -0.16211485733E-01 -0.25499123772E-02  0.23834400686E-01  0.00000000000E+00 0.  1.
     999901    1    3    3    0    0 -0.26365995769E-01 -0.74888058472E-01  0.85830103083E-01  0.88773317705E+00  0.88000000000E+00 0.  1.
        -11    1    4    4    0    0  0.25450133431E-01  0.32464677117E-01 -0.37827746560E-01  0.55971993736E-01  0.51100000000E-03 0.  1.
         11    1    4    4    0    0  0.18200662980E-01  0.58634867088E-01 -0.45452444146E-01  0.76390428531E-01  0.51100000000E-03 0. -1.
</event>
<event>
 8    1  0.1109553E+005  0.1043930E+01  0.7957747E-01            NaN
         13   -1    0    0    0    0  0.00000000000E+00  0.00000000000E+00  0.74505805969E-08  0.10566000000E+00  0.10566000000E+00 0. -1.
     999900   -1    0    0    0    0 -0.00000000000E+00 -0.00000000000E+00 -0.74505805969E-08  0.93827000000E+00  0.93827000000E+00 0.  1.
     999902    2    1    2    0    0  0.93597395060E-02  0.19945655675E-01 -0.17580111998E-01  0.10157432258E+01  0.10153520603E+01 0.  0.
     999903    2    3    3    0    0  0.13933712326E-01 -0.86144558978E-01  0.84815154586E-01  0.12346476839E+00  0.20854380978E-01 0.  0.
         14    1    1    2    0    0 -0.93597395060E-02 -0.19945655675E-01  0.17580111998E-01  0.28186774235E-01  0.00000000000E+00 0. -1.
     999901    1    3    3    0    0 -0.45739728201E-02  0.10609021465E+00 -0.10239526658E+00  0.89227845737E+00  0.88000000000E+00 0.  1.
        -11    1    4    4    0    0  0.30425349907E-02 -0.60583642313E-01  0.67355967875E-01  0.90646137614E-01  0.51100000000E-03 0. -1.
         11    1    4    4    0    0  0.10891177335E-01 -0.25560916665E-01  0.17459186712E-01  0.32818630778E-01  0.51100000000E-03 0.  1.
</event>
<event>
 8    1  0.1109553E+005  0.1043930E+01  0.7957747E-01            NaN
         13   -1    0    0    0    0  0.00000000000E+00  0.00000000000E+00  0.74505805969E-08  0.10566000000E+00  0.10566000000E+00 0.  1.
     999900   -1    0    0    0    0 -0.00000000000E+00 -0.00000000000E+00 -0.74505805969E-08  0.93827000000E+00  0.93827000000E+00 0.  1.
     999902    2    1    2    0    0 -0.58714149789E-02 -0.21572940917E-01  0.69463281166E-02  0.10205181063E+01  0.10202495226E+01 0.  0.
     999903    2    3    3    0    0 -0.66979130593E-01  0.10617603608E+00 -0.21384595668E-01  0.12874650139E+00  0.18942178216E-01 0.  0.
         14    1    1    2    0    0  0.58714149789E-02  0.21572940917E-01 -0.69463281166E-02  0.23411893729E-01  0.00000000000E+00 0. -1.
     999901    1    3    3    0    0  0.61107715614E-01 -0.12774897700E+00  0.28330923785E-01  0.89177160488E+00  0.88000000000E+00 0.  1.
        -11    1    4    4    0    0 -0.49761518693E-01  0.83933861272E-01 -0.24022102653E-01  0.10049091674E+00  0.51100000000E-03 0.  1.
         11    1    4    4    0    0 -0.17217611900E-01  0.22242174808E-01  0.26375069848E-02  0.28255584648E-01  0.51100000000E-03 0. -1.
</event>
<event>
 8    1  0.1109553E+005  0.1043930E+01  0.7957747E-01            NaN
         13   -1    0    0    0    0  0.00000000000E+00  0.00000000000E+00  0.74505805969E-08  0.10566000000E+00  0.10566000000E+00 0. -1.
     999900   -1    0    0    0    0 -0.00000000000E+00 -0.00000000000E+00 -0.74505805969E-08  0.93827000000E+00  0.93827000000E+00 0. -1.
     999902    2    1    2    0    0  0.20996951741E-01 -0.77232652028E-02 -0.13704614699E-02  0.10215157418E+01  0.10212698036E+01 0.  0.
     999903    2    3    3    0    0  0.10078676119E+00  0.67258544851E-01 -0.51967906113E-01  0.13328785043E+00  0.19578169470E-01 0.  0.
         14    1    1    2    0    0 -0.20996951741E-01  0.77232652028E-02  0.13704614699E-02  0.22414258240E-01  0.00000000000E+00 0. -1.
     999901    1    3    3    0    0 -0.79789809450E-01 -0.74981810054E-01  0.50597444644E-01  0.88822789133E+00  0.88000000000E+00 0.  1.
        -11    1    4    4    0    0  0.22953300632E-01  0.17829592253E-01 -0.39691513982E-02  0.29338773894E-01  0.51100000000E-03 0.  1.
         11    1    4    4    0    0  0.77833460559E-01  0.49428952598E-01 -0.47998754715E-01  0.10394907654E+00  0.51100000000E-03 0. -1.
</event>
<event>
 8    1  0.1109553E+005  0.1043930E+01  0.7957747E-01            NaN
         13   -1    0    0    0    0  0.00000000000E+00  0.00000000000E+00  0.74505805969E-08  0.10566000000E+00  0.10566000000E+00 0.  1.
     999900   -1    0    0    0    0 -0.00000000000E+00 -0.00000000000E+00 -0.74505805969E-08  0.93827000000E+00  0.93827000000E+00 0.  1.
     999902    2    1    2    0    0  0.69851950106E-02 -0.23651853210E-02  0.19332386639E-01  0.10232387404E+01  0.10230295165E+01 0.  0.
     999903    2    3    3    0    0  0.73081488467E-01 -0.60956827090E-01  0.94407758896E-01  0.13563634517E+00  0.20682225818E-01 0.  0.
         14    1    1    2    0    0 -0.69851950106E-02  0.23651853210E-02 -0.19332386639E-01  0.20691259606E-01  0.00000000000E+00 0. -1.
     999901    1    3    3    0    0 -0.66096293457E-01  0.58591641769E-01 -0.75075372257E-01  0.88760239523E+00  0.88000000000E+00 0.  1.
        -11    1    4    4    0    0  0.40599821687E-01 -0.31506253327E-01  0.64898397632E-01  0.82783166501E-01  0.51100000000E-03 0.  1.
         11    1    4    4    0    0  0.32481666780E-01 -0.29450573764E-01  0.29509361264E-01  0.52853178665E-01  0.51100000000E-03 0. -1.
</event>
<event>
 8    1  0.1109553E+005  0.1043930E+01  0.7957747E-01            NaN
         13   -1    0    0    0    0  0.00000000000E+00  0.00000000000E+00  0.74505805969E-08  0.10566000000E+00  0.10566000000E+00 0.  1.
     999900   -1    0    0    0    0 -0.00000000000E+00 -0.00000000000E+00 -0.74505805969E-08  0.93827000000E+00  0.93827000000E+00 0. -1.
     999902    2    1    2    0    0 -0.10865688834E-01  0.29365702616E-02 -0.21102572979E-01  0.10200133693E+01  0.10197329397E+01 0.  0.
     999903    2    3    3    0    0  0.36512557621E-01 -0.12273474709E+00  0.25748076259E-02  0.12950868283E+00  0.19206360556E-01 0.  0.
         14    1    1    2    0    0  0.10865688834E-01 -0.29365702616E-02  0.21102572979E-01  0.23916630721E-01  0.00000000000E+00 0.  1.
     999901    1    3    3    0    0 -0.47378246455E-01  0.12567131735E+00 -0.23677380605E-01  0.89050468645E+00  0.88000000000E+00 0. -1.
        -11    1    4    4    0    0  0.28256114482E-02 -0.23916292196E-01  0.67676590887E-02  0.25020700290E-01  0.51100000000E-03 0. -1.
         11    1    4    4    0    0  0.33686946173E-01 -0.98818454893E-01 -0.41928514629E-02  0.10448798254E+00  0.51100000000E-03 0.  1.
</event>
<event>
 8    1  0.1109553E+005  0.1043930E+01  0.7957747E-01            NaN
         13   -1    0    0    0    0  0.00000000000E+00  0.00000000000E+00  0.74505805969E-08  0.10566000000E+00  0.10566000000E+00 0.  1.
     999900   -1    0    0    0    0 -0.00000000000E+00 -0.00000000000E+00 -0.74505805969E-08  0.93827000000E+00  0.93827000000E+00 0. -1.
     999902    2    1    2    0    0  0.18494391502E-01  0.94364456735E-02  0.11465611146E-01  0.10202118790E+01  0.10199361396E+01 0.  0.
     999903    2    3    3    0    0  0.11736676361E+00 -0.23333451420E-01  0.54126030485E-01  0.13304249074E+00  0.21243116788E-01 0.  0.
         14    1    1    2    0    0 -0.18494391502E-01 -0.94364456735E-02 -0.11465611146E-01  0.23718120982E-01  0.00000000000E+00 0. -1.
     999901    1    3    3    0    0 -0.98872372106E-01  0.32769897094E-01 -0.42660419339E-01  0.88716938828E+00  0.88000000000E+00 0. -1.
        -11    1    4    4    0    0  0.38185330767E-01  0.24291039649E-02  0.16967462916E-01  0.41859000832E-01  0.51100000000E-03 0. -1.
         11    1    4    4    0    0  0.79181432841E-01 -0.25762555385E-01  0.37158567569E-01  0.91183489906E-01  0.51100000000E-03 0.  1.
</event>
<event>
 8    1  0.1109553E+005  0.1043930E+01  0.7957747E-01            NaN
         13   -1    0    0    0    0  0.00000000000E+00  0.00000000000E+00  0.74505805969E-08  0.10566000000E+00  0.10566000000E+00 0.  1.
     999900   -1    0    0    0    0 -0.00000000000E+00 -0.00000000000E+00 -0.74505805969E-08  0.93827000000E+00  0.93827000000E+00 0. -1.
     999902    2    1    2    0    0 -0.15771061351E-01 -0.14109642112E-01 -0.11137199673E-01  0.10200167068E+01  0.10197363564E+01 0.  0.
     999903    2    3    3    0    0  0.71945657893E-01  0.71363112165E-01  0.74837225492E-01  0.12738497064E+00  0.18906320591E-01 0.  0.
         14    1    1    2    0    0  0.15771061351E-01  0.14109642112E-01  0.11137199673E-01  0.23913293233E-01  0.00000000000E+00 0.  1.
     999901    1    3    3    0    0 -0.87716719244E-01 -0.85472754277E-01 -0.85974425165E-01  0.89263173613E+00  0.88000000000E+00 0. -1.
        -11    1    4    4    0    0  0.54249071025E-01  0.41563085279E-01  0.47276003485E-01  0.83100742424E-01  0.51100000000E-03 0. -1.
         11    1    4    4    0    0  0.17696586868E-01  0.29800026887E-01  0.27561222007E-01  0.44284228216E-01  0.51100000000E-03 0.  1.
</event>
<event>
 8    1  0.1109553E+005  0.1043930E+01  0.7957747E-01            NaN
         13   -1    0    0    0    0  0.00000000000E+00  0.00000000000E+00  0.74505805969E-08  0.10566000000E+00  0.10566000000E+00 0. -1.
     999900   -1    0    0    0    0 -0.00000000000E+00 -0.00000000000E+00 -0.74505805969E-08  0.93827000000E+00  0.93827000000E+00 0.  1.
     999902    2    1    2    0    0 -0.21532288618E-01  0.83724213216E-02 -0.57044848184E-02  0.10201334028E+01  0.10198558140E+01 0.  0.
     999903    2    3    3    0    0  0.54895160923E-01  0.10534434972E+00  0.48608099157E-01  0.12985559967E+00  0.19718487580E-01 0.  0.
         14    1    1    2    0    0  0.21532288618E-01 -0.83724213216E-02  0.57044848184E-02  0.23796597214E-01  0.00000000000E+00 0. -1.
     999901    1    3    3    0    0 -0.76427449541E-01 -0.96971928395E-01 -0.54312583975E-01  0.89027780311E+00  0.88000000000E+00 0.  1.
        -11    1    4    4    0    0  0.53760936729E-01  0.89634601124E-01  0.40131758828E-01  0.11196168641E+00  0.51100000000E-03 0.  1.
         11    1    4    4    0    0  0.11342241943E-02  0.15709748592E-01  0.84763403289E-02  0.17893913259E-01  0.51100000000E-03 0. -1.
</event>
<event>
 8    1  0.1109553E+005  0.1043930E+01  0.7957747E-01            NaN
         13   -1    0    0    0    0  0.00000000000E+00  0.00000000000E+00  0.74505805969E-08  0.10566000000E+00  0.10566000000E+00 0.  1.
     999900   -1    0    0    0    0 -0.00000000000E+00 -0.00000000000E+00 -0.74505805969E-08  0.93827000000E+00  0.93827000000E+00 0. -1.
     999902    2    1    2    0    0  0.74073095708E-02  0.14120348268E-01  0.16911232462E-01  0.10206868880E+01  0.10204222073E+01 0.  0.
     999903    2    3    3    0    0 -0.41165987317E-01  0.12400795541E+00  0.10170771277E-01  0.13249767104E+00  0.19482728936E-01 0.  0.
         14    1    1    2    0    0 -0.74073095708E-02 -0.14120348268E-01 -0.16911232462E-01  0.23243111962E-01  0.00000000000E+00 0. -1.
     999901    1    3    3    0    0  0.48573296888E-01 -0.10988760714E+00  0.67404611853E-02  0.88818921700E+00  0.88000000000E+00 0. -1.
        -11    1    4    4    0    0 -0.20014121524E-01  0.66348438275E-01 -0.41635903231E-02  0.69428214202E-01  0.51100000000E-03 0. -1.
         11    1    4    4    0    0 -0.21151865793E-01  0.57659517133E-01  0.14334361600E-01  0.63069456839E-01  0.51100000000E-03 0.  1.
</event>
<event>
 8    1  0.1109553E+005  0.1043930E+01  0.7957747E-01            NaN
         13   -1    0    0    0    0  0.00000000000E+00  0.00000000000E+00  0.74505805969E-08  0.10566000000E+00  0.10566000000E+00 0.  1.
     999900   -1    0    0    0    0 -0.00000000000E+00 -0.00000000000E+00 -0.74505805969E-08  0.93827000000E+00  0.93827000000E+00 0.  1.
     999902    2    1    2    0    0 -0.36340711994E-02  0.22698668408E-01 -0.38645746826E-02  0.10206196813E+01  0.10203534500E+01 0.  0.
     999903    2    3    3    0    0  0.61439069958E-01  0.81304035715E-01 -0.82732831493E-01  0.13276310238E+00  0.19905135166E-01 0.  0.
         14    1    1    2    0    0  0.36340711994E-02 -0.22698668408E-01  0.38645746826E-02  0.23310318712E-01  0.00000000000E+00 0. -1.
     999901    1    3    3    0    0 -0.65073141157E-01 -0.58605367308E-01  0.78868256811E-01  0.88785657891E+00  0.88000000000E+00 0. -1.
        -11    1    4    4    0    0  0.50450037371E-01  0.65369688984E-01 -0.56074843911E-01  0.99815087784E-01  0.51100000000E-03 0. -1.
         11    1    4    4    0    0  0.10989032587E-01  0.15934346731E-01 -0.26657987582E-01  0.32948014597E-01  0.51100000000E-03 0.  1.
</event>
<event>
 8    1  0.1109553E+005  0.1043930E+01  0.7957747E-01            NaN
         13   -1    0    0    0    0  0.00000000000E+00  0.00000000000E+00  0.74505805969E-08  0.10566000000E+00  0.10566000000E+00 0.  1.
     999900   -1    0    0    0    0 -0.00000000000E+00 -0.00000000000E+00 -0.74505805969E-08  0.93827000000E+00  0.93827000000E+00 0. -1.
     999902    2    1    2    0    0 -0.14695394270E-01 -0.18077816235E-01  0.58362372696E-02  0.10199128453E+01  0.10196300252E+01 0.  0.
     999903    2    3    3    0    0  0.79786503244E-01  0.95180137745E-01  0.20753297200E-01  0.12751343265E+00  0.20095557703E-01 0.  0.
         14    1    1    2    0    0  0.14695394270E-01  0.18077816235E-01 -0.58362372696E-02  0.24017154661E-01  0.00000000000E+00 0. -1.
     999901    1    3    3    0    0 -0.94481897514E-01 -0.11325795398E+00 -0.14917059931E-01  0.89239941269E+00  0.88000000000E+00 0.  1.
        -11    1    4    4    0    0  0.49743414618E-01  0.70592348612E-01  0.20170588530E-01  0.88683711825E-01  0.51100000000E-03 0. -1.
         11    1    4    4    0    0  0.30043088626E-01  0.24587789133E-01  0.58270867010E-03  0.38829720821E-01  0.51100000000E-03 0.  1.
</event>
<event>
 8    1  0.1109553E+005  0.1043930E+01  0.7957747E-01            NaN
         13   -1    0    0    0    0  0.00000000000E+00  0.00000000000E+00  0.74505805969E-08  0.10566000000E+00  0.10566000000E+00 0. -1.
     999900   -1    0    0    0    0 -0.00000000000E+00 -0.00000000000E+00 -0.74505805969E-08  0.93827000000E+00  0.93827000000E+00 0. -1.
     999902    2    1    2    0    0 -0.22810833491E-02  0.21559023937E-01  0.17100505035E-01  0.10163180076E+01  0.10159428480E+01 0.  0.
     999903    2    3    3    0    0 -0.59412062992E-02 -0.34147767990E-01 -0.11772242302E+00  0.12430126719E+00  0.19770385698E-01 0.  0.
         14    1    1    2    0    0  0.22810833491E-02 -0.21559023937E-01 -0.17100505035E-01  0.27611992446E-01  0.00000000000E+00 0.  1.
     999901    1    3    3    0    0  0.36601229502E-02  0.55706791926E-01  0.13482292806E+00  0.89201674037E+00  0.88000000000E+00 0.  1.
        -11    1    4    4    0    0 -0.49910861780E-03 -0.13339864437E-01 -0.77917521117E-01  0.79054426256E-01  0.51100000000E-03 0.  1.
         11    1    4    4    0    0 -0.54420976814E-02 -0.20807903552E-01 -0.39804901906E-01  0.45246840931E-01  0.51100000000E-03 0. -1.
</event>
<event>
 8    1  0.1109553E+005  0.1043930E+01  0.7957747E-01            NaN
         13   -1    0    0    0    0  0.00000000000E+00  0.00000000000E+00  0.74505805969E-08  0.10566000000E+00  0.10566000000E+00 0. -1.
     999900   -1    0    0    0    0 -0.00000000000E+00 -0.00000000000E+00 -0.74505805969E-08  0.93827000000E+00  0.93827000000E+00 0. -1.
     999902    2    1    2    0    0  0.34969446823E-02  0.82365453565E-02  0.21273684079E-01  0.10208510283E+01  0.10205901151E+01 0.  0.
     999903    2    3    3    0    0  0.17312347123E-01  0.38308742157E-01 -0.12023881567E+00  0.12893119446E+00  0.19965045021E-01 0.  0.
         14    1    1    2    0    0 -0.34969446823E-02 -0.82365453565E-02 -0.21273684079E-01  0.23078971723E-01  0.00000000000E+00 0.  1.
     999901    1    3    3    0    0 -0.13815402440E-01 -0.30072196800E-01  0.14151249975E+00  0.89191983381E+00  0.88000000000E+00 0.  1.
        -11    1    4    4    0    0  0.46051104692E-04 -0.22405825877E-02 -0.39525262172E-02  0.45722987144E-02  0.51100000000E-03 0.  1.
         11    1    4    4    0    0  0.17266296018E-01  0.40549324745E-01 -0.11628628946E+00  0.12435889575E+00  0.51100000000E-03 0. -1.
</event>
<event>
 8    1  0.1109553E+005  0.1043930E+01  0.7957747E-01            NaN
         13   -1    0    0    0    0  0.00000000000E+00  0.00000000000E+00  0.74505805969E-08  0.10566000000E+00  0.10566000000E+00 0.  1.
     999900   -1    0    0    0    0 -0.00000000000E+00 -0.00000000000E+00 -0.74505805969E-08  0.93827000000E+00  0.93827000000E+00 0.  1.
     999902    2    1    2    0    0 -0.84596095182E-02 -0.21727368630E-01  0.73180598237E-03  0.10206023537E+01  0.10203357219E+01 0.  0.
     999903    2    3    3    0    0 -0.59820036386E-01 -0.81617996816E-01 -0.83805081295E-01  0.13303755828E+00  0.20875011525E-01 0.  0.
         14    1    1    2    0    0  0.84596095182E-02  0.21727368630E-01 -0.73180598237E-03  0.23327646276E-01  0.00000000000E+00 0.  1.
     999901    1    3    3    0    0  0.51360426868E-01  0.59890628186E-01  0.84536887277E-01  0.88756479544E+00  0.88000000000E+00 0. -1.
        -11    1    4    4    0    0 -0.38710515396E-01 -0.63099077340E-01 -0.69402685136E-01  0.10147409220E+00  0.51100000000E-03 0. -1.
         11    1    4    4    0    0 -0.21109520990E-01 -0.18518919475E-01 -0.14402396159E-01  0.31563466082E-01  0.51100000000E-03 0.  1.
</event>
<event>
 8    1  0.1109553E+005  0.1043930E+01  0.7957747E-01            NaN
         13   -1    0    0    0    0  0.00000000000E+00  0.00000000000E+00  0.74505805969E-08  0.10566000000E+00  0.10566000000E+00 0.  1.
     999900   -1    0    0    0    0 -0.00000000000E+00 -0.00000000000E+00 -0.74505805969E-08  0.93827000000E+00  0.93827000000E+00 0.  1.
     999902    2    1    2    0    0  0.32304454248E-02 -0.93328462326E-02  0.19558617373E-01  0.10220193334E+01  0.10217844394E+01 0.  0.
     999903    2    3    3    0    0 -0.12223347930E+00  0.35484376928E-01  0.26503851479E-01  0.13196426986E+00  0.22626310087E-01 0.  0.
         14    1    1    2    0    0 -0.32304454248E-02  0.93328462326E-02 -0.19558617373E-01  0.21910666580E-01  0.00000000000E+00 0. -1.
     999901    1    3    3    0    0  0.12546392472E+00 -0.44817223161E-01 -0.69452341054E-02  0.89005506356E+00  0.88000000000E+00 0. -1.
        -11    1    4    4    0    0 -0.85478941199E-01  0.32808293104E-01  0.25705291886E-01  0.95100245199E-01  0.51100000000E-03 0.  1.
         11    1    4    4    0    0 -0.36754538099E-01  0.26760838240E-02  0.79855959227E-03  0.36864024657E-01  0.51100000000E-03 0. -1.
</event>
<event>
 8    1  0.1109553E+005  0.1043930E+01  0.7957747E-01            NaN
         13   -1    0    0    0    0  0.00000000000E+00  0.00000000000E+00  0.74505805969E-08  0.10566000000E+00  0.10566000000E+00 0.  1.
     999900   -1    0    0    0    0 -0.00000000000E+00 -0.00000000000E+00 -0.74505805969E-08  0.93827000000E+00  0.93827000000E+00 0. -1.
     999902    2    1    2    0    0 -0.22358153706E-01  0.11979996488E-01  0.20391872892E-02  0.10184826890E+01  0.10181647323E+01 0.  0.
     999903    2    3    3    0    0  0.92651702867E-01 -0.80438146153E-01  0.20460899923E-01  0.12600986604E+00  0.20129692340E-01 0.  0.
         14    1    1    2    0    0  0.22358153706E-01 -0.11979996488E-01 -0.20391872892E-02  0.25447311013E-01  0.00000000000E+00 0.  1.
     999901    1    3    3    0    0 -0.11500985657E+00  0.92418142641E-01 -0.18421712633E-01  0.89247282294E+00  0.88000000000E+00 0. -1.
        -11    1    4    4    0    0  0.39008720168E-01 -0.23051129208E-01  0.12767723980E-01  0.47077709200E-01  0.51100000000E-03 0. -1.
         11    1    4    4    0    0  0.53642982699E-01 -0.57387016945E-01  0.76931759425E-02  0.78932156843E-01  0.51100000000E-03 0.  1.
</event>
<event>
 8    1  0.1109553E+005  0.1043930E+01  0.7957747E-01            NaN
         13   -1    0    0    0    0  0.00000000000E+00  0.00000000000E+00  0.74505805969E-08  0.10566000000E+00  0.10566000000E+00 0.  1.
     999900   -1    0    0    0    0 -0.00000000000E+00 -0.00000000000E+00 -0.74505805969E-08  0.93827000000E+00  0.93827000000E+00 0. -1.
     999902    2    1    2    0    0  0.16029767136E-01  0.15499328656E-01  0.88890393163E-02  0.10199258828E+01  0.10196433733E+01 0.  0.
     999903    2    3    3    0    0 -0.91160888108E-01 -0.35709299043E-01 -0.79255342575E-01  0.12757976598E+00  0.20241684760E-01 0.  0.
         14    1    1    2    0    0 -0.16029767136E-01 -0.15499328656E-01 -0.88890393163E-02  0.24004117213E-01  0.00000000000E+00 0.  1.
     999901    1    3    3    0    0  0.10719065524E+00  0.51208627698E-01  0.88144381891E-01  0.89234611681E+00  0.88000000000E+00 0.  1.
        -11    1    4    4    0    0 -0.27009184902E-01 -0.62737045727E-02 -0.33378793416E-01  0.43396548354E-01  0.51100000000E-03 0. -1.
         11    1    4    4    0    0 -0.64151703207E-01 -0.29435594470E-01 -0.45876549159E-01  0.84183217626E-01  0.51100000000E-03 0.  1.
</event>
<event>
 8    1  0.1109553E+005  0.1043930E+01  0.7957747E-01            NaN
         13   -1    0    0    0    0  0.00000000000E+00  0.00000000000E+00  0.74505805969E-08  0.10566000000E+00  0.10566000000E+00 0. -1.
     999900   -1    0    0    0    0 -0.00000000000E+00 -0.00000000000E+00 -0.74505805969E-08  0.93827000000E+00  0.93827000000E+00 0. -1.
     999902    2    1    2    0    0  0.10123108948E-01  0.12544637861E-01 -0.17564959091E-01  0.10200894240E+01  0.10198107962E+01 0.  0.
     999903    2    3    3    0    0  0.57084177083E-01 -0.14783776894E-01  0.11311944809E+00  0.12878106077E+00  0.17646210465E-01 0.  0.
         14    1    1    2    0    0 -0.10123108948E-01 -0.12544637861E-01  0.17564959091E-01  0.23840575951E-01  0.00000000000E+00 0. -1.
     999901    1    3    3    0    0 -0.46961068135E-01  0.27328414756E-01 -0.13068440718E+00  0.89130836328E+00  0.88000000000E+00 0. -1.
        -11    1    4    4    0    0  0.42800125193E-01 -0.84515314952E-02  0.65837822725E-01  0.78982017721E-01  0.51100000000E-03 0.  1.
         11    1    4    4    0    0  0.14284051890E-01 -0.63322453992E-02  0.47281625366E-01  0.49799043047E-01  0.51100000000E-03 0. -1.
</event>
<event>
 8    1  0.1109553E+005  0.1043930E+01  0.7957747E-01            NaN
         13   -1    0    0    0    0  0.00000000000E+00  0.00000000000E+00  0.74505805969E-08  0.10566000000E+00  0.10566000000E+00 0.  1.
     999900   -1    0    0    0    0 -0.00000000000E+00 -0.00000000000E+00 -0.74505805969E-08  0.93827000000E+00  0.93827000000E+00 0. -1.
     999902    2    1    2    0    0 -0.10878928526E-01 -0.14711674856E-01 -0.15308311033E-01  0.10200735784E+01  0.10197945757E+01 0.  0.
     999903    2    3    3    0    0  0.10204105944E+00 -0.38261752827E-01  0.65223003963E-01  0.12889973314E+00  0.22017298113E-01 0.  0.
         14    1    1    2    0    0  0.10878928526E-01  0.14711674856E-01  0.15308311033E-01  0.23856421560E-01  0.00000000000E+00 0.  1.
     999901    1    3    3    0    0 -0.11291998797E+00  0.23550077971E-01 -0.80531314997E-01  0.89117384530E+00  0.88000000000E+00 0. -1.
        -11    1    4    4    0    0  0.47135233645E-01 -0.29103064112E-01  0.35467497478E-01  0.65779351546E-01  0.51100000000E-03 0.  1.
         11    1    4    4    0    0  0.54905825795E-01 -0.91586887149E-02  0.29755506486E-01  0.63120381593E-01  0.51100000000E-03 0. -1.
</event>
<event>
 8    1  0.1109553E+005  0.1043930E+01  0.7957747E-01            NaN
         13   -1    0    0    0    0  0.00000000000E+00  0.00000000000E+00  0.74505805969E-08  0.10566000000E+00  0.10566000000E+00 0. -1.
     999900   -1    0    0    0    0 -0.00000000000E+00 -0.00000000000E+00 -0.74505805969E-08  0.93827000000E+00  0.93827000000E+00 0.  1.
     999902    2    1    2    0    0 -0.10075965189E-01 -0.21393006335E-01 -0.16359360987E-01  0.10151756180E+01  0.10147683089E+01 0.  0.
     999903    2    3    3    0    0  0.87320457359E-01  0.67523543960E-01  0.49918749348E-01  0.12288362318E+00  0.20596408591E-01 0.  0.
         14    1    1    2    0    0  0.10075965189E-01  0.21393006335E-01  0.16359360987E-01  0.28754382040E-01  0.00000000000E+00 0. -1.
     999901    1    3    3    0    0 -0.97396422548E-01 -0.88916550295E-01 -0.66278110335E-01  0.89229199478E+00  0.88000000000E+00 0. -1.
        -11    1    4    4    0    0  0.38136800101E-01  0.26349458447E-01  0.10292808150E-01  0.47485918998E-01  0.51100000000E-03 0.  1.
         11    1    4    4    0    0  0.49183657258E-01  0.41174085512E-01  0.39625941197E-01  0.75397704181E-01  0.51100000000E-03 0. -1.
</event>
<event>
 8    1  0.1109553E+005  0.1043930E+01  0.7957747E-01            NaN
         13   -1    0    0    0    0  0.00000000000E+00  0.00000000000E+00  0.74505805969E-08  0.10566000000E+00  0.10566000000E+00 0. -1.
     999900   -1    0    0    0    0 -0.00000000000E+00 -0.00000000000E+00 -0.74505805969E-08  0.93827000000E+00  0.93827000000E+00 0.  1.
     999902    2    1    2    0    0  0.21657860990E-02  0.22914802263E-02 -0.22206688456E-01  0.10215005880E+01  0.10212543134E+01 0.  0.
     999903    2    3    3    0    0  0.11575028228E+00  0.59796743944E-01  0.10316074870E-01  0.13174442855E+00  0.16625120068E-01 0.  0.
         14    1    1    2    0    0 -0.21657860990E-02 -0.22914802263E-02  0.22206688456E-01  0.22429412012E-01  0.00000000000E+00 0. -1.
     999901    1    3    3    0    0 -0.11358449618E+00 -0.57505263718E-01 -0.32522763326E-01  0.88975615944E+00  0.88000000000E+00 0.  1.
        -11    1    4    4    0    0  0.54824591870E-01  0.36108437670E-01  0.57378244990E-03  0.65651698318E-01  0.51100000000E-03 0.  1.
         11    1    4    4    0    0  0.60925690413E-01  0.23688306274E-01  0.97422924204E-02  0.66092730229E-01  0.51100000000E-03 0. -1.
</event>
<event>
 8    1  0.1109553E+005  0.1043930E+01  0.7957747E-01            NaN
         13   -1    0    0    0    0  0.00000000000E+00  0.00000000000E+00  0.74505805969E-08  0.10566000000E+00  0.10566000000E+00 0.  1.
     999900   -1    0    0    0    0 -0.00000000000E+00 -0.00000000000E+00 -0.74505805969E-08  0.93827000000E+00  0.93827000000E+00 0. -1.
     999902    2    1    2    0    0 -0.11107775573E-01  0.29190731955E-02 -0.20339295951E-01  0.10205721185E+01  0.10203047871E+01 0.  0.
     999903    2    3    3    0    0 -0.85658258286E-02 -0.11866143430E+00  0.47372363234E-01  0.12963264242E+00  0.20163626196E-01 0.  0.
         14    1    1    2    0    0  0.11107775573E-01 -0.29190731955E-02  0.20339295951E-01  0.23357881459E-01  0.00000000000E+00 0.  1.
     999901    1    3    3    0    0 -0.25419497444E-02  0.12158050750E+00 -0.67711659185E-01  0.89093947612E+00  0.88000000000E+00 0.  1.
        -11    1    4    4    0    0 -0.12683941250E-02 -0.61804844309E-01  0.34811005932E-01  0.70947268155E-01  0.51100000000E-03 0. -1.
         11    1    4    4    0    0 -0.72974317036E-02 -0.56856589992E-01  0.12561357302E-01  0.58685374270E-01  0.51100000000E-03 0.  1.
</event>
<event>
 8    1  0.1109553E+005  0.1043930E+01  0.7957747E-01            NaN
         13   -1    0    0    0    0  0.00000000000E+00  0.00000000000E+00  0.74505805969E-08  0.10566000000E+00  0.10566000000E+00 0. -1.
     999900   -1    0    0    0    0 -0.00000000000E+00 -0.00000000000E+00 -0.74505805969E-08  0.93827000000E+00  0.93827000000E+00 0.  1.
     999902    2    1    2    0    0 -0.14894147710E-01  0.12382963511E-01  0.11599841838E-01  0.10213528046E+01  0.10211032375E+01 0.  0.
     999903    2    3    3    0    0 -0.12265193989E+00  0.50663852241E-01  0.54862641219E-02  0.13393264253E+00  0.17249039392E-01 0.  0.
         14    1    1    2    0    0  0.14894147710E-01 -0.12382963511E-01 -0.11599841838E-01  0.22577195396E-01  0.00000000000E+00 0.  1.
     999901    1    3    3    0    0  0.10775779218E+00 -0.38280888730E-01  0.61135777158E-02  0.88742016207E+00  0.88000000000E+00 0. -1.
        -11    1    4    4    0    0 -0.86374268169E-02  0.18252423448E-02 -0.36381040811E-02  0.95620904586E-02  0.51100000000E-03 0. -1.
         11    1    4    4    0    0 -0.11401451307E+00  0.48838609896E-01  0.91243682031E-02  0.12437055207E+00  0.51100000000E-03 0.  1.
</event>
<event>
 8    1  0.1109553E+005  0.1043930E+01  0.7957747E-01            NaN
         13   -1    0    0    0    0  0.00000000000E+00  0.00000000000E+00  0.74505805969E-08  0.10566000000E+00  0.10566000000E+00 0. -1.
     999900   -1    0    0    0    0 -0.00000000000E+00 -0.00000000000E+00 -0.74505805969E-08  0.93827000000E+00  0.93827000000E+00 0. -1.
     999902    2    1    2    0    0  0.22092725146E-01  0.99605150341E-02  0.72960634840E-02  0.10186212484E+01  0.10183067882E+01 0.  0.
     999903    2    3    3    0    0 -0.87336191373E-03 -0.12594260551E+00  0.95961180707E-02  0.12788986940E+00  0.20035732297E-01 0.  0.
         14    1    1    2    0    0 -0.22092725146E-01 -0.99605150341E-02 -0.72960634840E-02  0.25308751579E-01  0.00000000000E+00 0.  1.
     999901    1    3    3    0    0  0.22966087060E-01  0.13590312054E+00 -0.23000545867E-02  0.89073137902E+00  0.88000000000E+00 0.  1.
        -11    1    4    4    0    0  0.48052324254E-02 -0.19330539395E-01  0.69169946991E-02  0.21091845549E-01  0.51100000000E-03 0. -1.
         11    1    4    4    0    0 -0.56785943391E-02 -0.10661206611E+00  0.26791233716E-02  0.10679802385E+00  0.51100000000E-03 0.  1.
</event>
<event>
 8    1  0.1109553E+005  0.1043930E+01  0.7957747E-01            NaN
         13   -1    0    0    0    0  0.00000000000E+00  0.00000000000E+00  0.74505805969E-08  0.10566000000E+00  0.10566000000E+00 0.  1.
     999900   -1    0    0    0    0 -0.00000000000E+00 -0.00000000000E+00 -0.74505805969E-08  0.93827000000E+00  0.93827000000E+00 0. -1.
     999902    2    1    2    0    0  0.21722545942E-01 -0.43449270852E-02 -0.75520768566E-02  0.10205252727E+01  0.10202568554E+01 0.  0.
     999903    2    3    3    0    0 -0.10960969580E+00 -0.57192642368E-01 -0.30513566430E-01  0.12891534191E+00  0.20069974850E-01 0.  0.
         14    1    1    2    0    0 -0.21722545942E-01  0.43449270852E-02  0.75520768566E-02  0.23404727267E-01  0.00000000000E+00 0. -1.
     999901    1    3    3    0    0  0.13133224174E+00  0.52847715283E-01  0.22961489573E-01  0.89160993082E+00  0.88000000000E+00 0. -1.
        -11    1    4    4    0    0 -0.79751911073E-01 -0.31121732320E-01 -0.20846785434E-01  0.88112309732E-01  0.51100000000E-03 0. -1.
         11    1    4    4    0    0 -0.29857784726E-01 -0.26070910047E-01 -0.96667809955E-02  0.40803032182E-01  0.51100000000E-03 0.  1.
</event>
<event>
 8    1  0.1109553E+005  0.1043930E+01  0.7957747E-01            NaN
         13   -1    0    0    0    0  0.00000000000E+00  0.00000000000E+00  0.74505805969E-08  0.10566000000E+00  0.10566000000E+00 0. -1.
     999900   -1    0    0    0    0 -0.00000000000E+00 -0.00000000000E+00 -0.74505805969E-08  0.93827000000E+00  0.93827000000E+00 0. -1.
     999902    2    1    2    0    0  0.16477296410E-01 -0.13808715425E-01 -0.23520003375E-01  0.10120650902E+01  0.10115633318E+01 0.  0.
     999903    2    3    3    0    0  0.45178273361E-01 -0.11539957587E+00 -0.14664742529E-02  0.12548130557E+00  0.19628270540E-01 0.  0.
         14    1    1    2    0    0 -0.16477296410E-01  0.13808715425E-01  0.23520003375E-01  0.31864909814E-01  0.00000000000E+00 0. -1.
     999901    1    3    3    0    0 -0.28700976951E-01  0.10159086045E+00 -0.22053529122E-01  0.88658378462E+00  0.88000000000E+00 0. -1.
        -11    1    4    4    0    0  0.14964951281E-02 -0.24156801497E-01  0.17232401907E-02  0.24269759660E-01  0.51100000000E-03 0. -1.
         11    1    4    4    0    0  0.43681778233E-01 -0.91242774376E-01 -0.31897144436E-02  0.10121154591E+00  0.51100000000E-03 0.  1.
</event>
<event>
 8    1  0.1109553E+005  0.1043930E+01  0.7957747E-01            NaN
         13   -1    0    0    0    0  0.00000000000E+00  0.00000000000E+00  0.74505805969E-08  0.10566000000E+00  0.10566000000E+00 0.  1.
     999900   -1    0    0    0    0 -0.00000000000E+00 -0.00000000000E+00 -0.74505805969E-08  0.93827000000E+00  0.93827000000E+00 0.  1.
     999902    2    1    2    0    0  0.15147562962E-01  0.19202305197E-01  0.90239117617E-02  0.10178607044E+01  0.10175268082E+01 0.  0.
     999903    2    3    3    0    0  0.42446990618E-03  0.47112867046E-01  0.11990603311E+00  0.13034134476E+00  0.19789061692E-01 0.  0.
         14    1    1    2    0    0 -0.15147562962E-01 -0.19202305197E-01 -0.90239117617E-02  0.26069295580E-01  0.00000000000E+00 0. -1.
     999901    1    3    3    0    0  0.14723093056E-01 -0.27910561849E-01 -0.11088212135E+00  0.88751935966E+00  0.88000000000E+00 0.  1.
        -11    1    4    4    0    0 -0.55911242410E-02  0.38310659733E-01  0.77788211073E-01  0.86892083773E-01  0.51100000000E-03 0. -1.
         11    1    4    4    0    0  0.60155941471E-02  0.88022073131E-02  0.42117822035E-01  0.43449260989E-01  0.51100000000E-03 0.  1.
</event>
<event>
 8    1  0.1109553E+005  0.1043930E+01  0.7957747E-01            NaN
         13   -1    0    0    0    0  0.00000000000E+00  0.00000000000E+00  0.74505805969E-08  0.10566000000E+00  0.10566000000E+00 0. -1.
     999900   -1    0    0    0    0 -0.00000000000E+00 -0.00000000000E+00 -0.74505805969E-08  0.93827000000E+00  0.93827000000E+00 0.  1.
     999902    2    1    2    0    0  0.22563398315E-01 -0.49022442914E-02  0.17584500645E-02  0.10207733360E+01  0.10205106429E+01 0.  0.
     999903    2    3    3    0    0 -0.32951057181E-01 -0.75104757112E-01  0.99805060657E-01  0.13081637890E+00  0.20624697478E-01 0.  0.
         14    1    1    2    0    0 -0.22563398315E-01  0.49022442914E-02 -0.17584500645E-02  0.23156664036E-01  0.00000000000E+00 0.  1.
     999901    1    3    3    0    0  0.55514455496E-01  0.70202512821E-01 -0.98046610593E-01  0.88995695706E+00  0.88000000000E+00 0. -1.
        -11    1    4    4    0    0 -0.90153232208E-02 -0.28883358978E-01  0.51876909521E-01  0.60058299519E-01  0.51100000000E-03 0.  1.
         11    1    4    4    0    0 -0.23935733960E-01 -0.46221398134E-01  0.47928151136E-01  0.70758079383E-01  0.51100000000E-03 0. -1.
</event>
<event>
 8    1  0.1109553E+005  0.1043930E+01  0.7957747E-01            NaN
         13   -1    0    0    0    0  0.00000000000E+00  0.00000000000E+00  0.74505805969E-08  0.10566000000E+00  0.10566000000E+00 0.  1.
     999900   -1    0    0    0    0 -0.00000000000E+00 -0.00000000000E+00 -0.74505805969E-08  0.93827000000E+00  0.93827000000E+00 0. -1.
     999902    2    1    2    0    0 -0.86733712071E-02 -0.20421192281E-01 -0.83231693399E-02  0.10202334262E+01  0.10199581934E+01 0.  0.
     999903    2    3    3    0    0  0.61175031113E-02 -0.13138544445E+00  0.35129584768E-02  0.13306268212E+00  0.19843831210E-01 0.  0.
         14    1    1    2    0    0  0.86733712071E-02  0.20421192281E-01  0.83231693399E-02  0.23696573806E-01  0.00000000000E+00 0.  1.
     999901    1    3    3    0    0 -0.14790874318E-01  0.11096425217E+00 -0.11836127817E-01  0.88717074408E+00  0.88000000000E+00 0.  1.
        -11    1    4    4    0    0  0.82925919603E-02 -0.20807201888E-01  0.12280358711E-02  0.22438269205E-01  0.51100000000E-03 0.  1.
         11    1    4    4    0    0 -0.21750888490E-02 -0.11057824256E+00  0.22849226057E-02  0.11062441291E+00  0.51100000000E-03 0. -1.
</event>
<event>
 8    1  0.1144259E+005  0.1043930E+01  0.7957747E-01            NaN
         13   -1    0    0    0    0  0.00000000000E+00  0.00000000000E+00  0.74505805969E-08  0.10566000000E+00  0.10566000000E+00 0.  1.
     999900   -1    0    0    0    0 -0.00000000000E+00 -0.00000000000E+00 -0.74505805969E-08  0.93827000000E+00  0.93827000000E+00 0.  1.
     999902    2    1    2    0    0  0.19720177312E-01 -0.59933788021E-02  0.14357626899E-01  0.10188113330E+01  0.10185016371E+01 0.  0.
     999903    2    3    3    0    0  0.54630448004E-02  0.43752725233E-01  0.12151654707E+00  0.13080177511E+00  0.19967156421E-01 0.  0.
         14    1    1    2    0    0 -0.19720177312E-01  0.59933788021E-02 -0.14357626899E-01  0.25118667020E-01  0.00000000000E+00 0.  1.
     999901    1    3    3    0    0  0.14257132511E-01 -0.49746104035E-01 -0.10715892018E+00  0.88800955787E+00  0.88000000000E+00 0.  1.
        -11    1    4    4    0    0  0.81261708978E-02  0.17229696128E-01  0.72954235091E-01  0.75402112841E-01  0.51100000000E-03 0.  1.
         11    1    4    4    0    0 -0.26631260974E-02  0.26523029105E-01  0.48562311983E-01  0.55399662270E-01  0.51100000000E-03 0. -1.
</event>
<event>
 8    1  0.1109553E+005  0.1043930E+01  0.7957747E-01            NaN
         13   -1    0    0    0    0  0.00000000000E+00  0.00000000000E+00  0.74505805969E-08  0.10566000000E+00  0.10566000000E+00 0.  1.
     999900   -1    0    0    0    0 -0.00000000000E+00 -0.00000000000E+00 -0.74505805969E-08  0.93827000000E+00  0.93827000000E+00 0. -1.
     999902    2    1    2    0    0 -0.63546488960E-02 -0.22243053744E-01  0.46532633148E-02  0.10203336473E+01  0.10200607648E+01 0.  0.
     999903    2    3    3    0    0  0.11473210443E+00  0.14493542469E-01 -0.54387674752E-01  0.12932443761E+00  0.19831097755E-01 0.  0.
         14    1    1    2    0    0  0.63546488960E-02  0.22243053744E-01 -0.46532633148E-02  0.23596352725E-01  0.00000000000E+00 0. -1.
     999901    1    3    3    0    0 -0.12108675333E+00 -0.36736596213E-01  0.59040938066E-01  0.89100920966E+00  0.88000000000E+00 0. -1.
        -11    1    4    4    0    0  0.72996683172E-01  0.18280714409E-01 -0.31581158052E-01  0.81610850616E-01  0.51100000000E-03 0.  1.
         11    1    4    4    0    0  0.41735421261E-01 -0.37871719402E-02 -0.22806516700E-01  0.47713586997E-01  0.51100000000E-03 0. -1.
</event>
<event>
 8    1  0.1109553E+005  0.1043930E+01  0.7957747E-01            NaN
         13   -1    0    0    0    0  0.00000000000E+00  0.00000000000E+00  0.74505805969E-08  0.10566000000E+00  0.10566000000E+00 0.  1.
     999900   -1    0    0    0    0 -0.00000000000E+00 -0.00000000000E+00 -0.74505805969E-08  0.93827000000E+00  0.93827000000E+00 0.  1.
     999902    2    1    2    0    0  0.61636849197E-02 -0.36998951650E-02 -0.22741728284E-01  0.10200790788E+01  0.10198002062E+01 0.  0.
     999903    2    3    3    0    0 -0.10727973881E+00 -0.24320625082E-01 -0.68934866415E-01  0.13135615748E+00  0.20049666746E-01 0.  0.
         14    1    1    2    0    0 -0.61636849197E-02  0.36998951650E-02  0.22741728284E-01  0.23850921185E-01  0.00000000000E+00 0. -1.
     999901    1    3    3    0    0  0.11344342373E+00  0.20620729917E-01  0.46193138130E-01  0.88872292133E+00  0.88000000000E+00 0. -1.
        -11    1    4    4    0    0 -0.39602972779E-01 -0.18672493816E-01 -0.29921136661E-01  0.53033885567E-01  0.51100000000E-03 0.  1.
         11    1    4    4    0    0 -0.67676766035E-01 -0.56481312660E-02 -0.39013729753E-01  0.78322271916E-01  0.51100000000E-03 0. -1.
</event>
<event>
 8    1  0.1109553E+005  0.1043930E+01  0.7957747E-01            NaN
         13   -1    0    0    0    0  0.00000000000E+00  0.00000000000E+00  0.74505805969E-08  0.10566000000E+00  0.10566000000E+00 0.  1.
     999900   -1    0    0    0    0 -0.00000000000E+00 -0.00000000000E+00 -0.74505805969E-08  0.93827000000E+00  0.93827000000E+00 0.  1.
     999902    2    1    2    0    0  0.18572254052E-02  0.12558376264E-01  0.16991593744E-01  0.10227197110E+01  0.10224997462E+01 0.  0.
     999903    2    3    3    0    0  0.58825069399E-01 -0.80535468154E-02 -0.11495620031E+00  0.13082262785E+00  0.19348993784E-01 0.  0.
         14    1    1    2    0    0 -0.18572254052E-02 -0.12558376264E-01 -0.16991593744E-01  0.21210288979E-01  0.00000000000E+00 0.  1.
     999901    1    3    3    0    0 -0.56967843994E-01  0.20611923079E-01  0.13194779405E+00  0.89189708318E+00  0.88000000000E+00 0. -1.
        -11    1    4    4    0    0  0.13370060511E-01 -0.49993139326E-02 -0.46066506622E-01  0.48230030181E-01  0.51100000000E-03 0.  1.
         11    1    4    4    0    0  0.45455008889E-01 -0.30542328828E-02 -0.68889693687E-01  0.82592597664E-01  0.51100000000E-03 0. -1.
</event>
<event>
 8    1  0.1109553E+005  0.1043930E+01  0.7957747E-01            NaN
         13   -1    0    0    0    0  0.00000000000E+00  0.00000000000E+00  0.74505805969E-08  0.10566000000E+00  0.10566000000E+00 0. -1.
     999900   -1    0    0    0    0 -0.00000000000E+00 -0.00000000000E+00 -0.74505805969E-08  0.93827000000E+00  0.93827000000E+00 0. -1.
     999902    2    1    2    0    0  0.28379306469E-02 -0.11651227598E-03  0.20573770133E-01  0.10231610943E+01  0.10229502810E+01 0.  0.
     999903    2    3    3    0    0  0.26510472267E-01  0.12654810319E+00 -0.22685058098E-01  0.13272544799E+00  0.19601151063E-01 0.  0.
         14    1    1    2    0    0 -0.28379306469E-02  0.11651227598E-03 -0.20573770133E-01  0.20768905675E-01  0.00000000000E+00 0.  1.
     999901    1    3    3    0    0 -0.23672541620E-01 -0.12666461547E+00  0.43258828230E-01  0.89043564633E+00  0.88000000000E+00 0.  1.
        -11    1    4    4    0    0  0.29110465494E-02  0.42360496875E-01 -0.14663569026E-01  0.44924016573E-01  0.51100000000E-03 0. -1.
         11    1    4    4    0    0  0.23599425718E-01  0.84187606316E-01 -0.80214890720E-02  0.87801431420E-01  0.51100000000E-03 0.  1.
</event>
<event>
 8    1  0.1109553E+005  0.1043930E+01  0.7957747E-01            NaN
         13   -1    0    0    0    0  0.00000000000E+00  0.00000000000E+00  0.74505805969E-08  0.10566000000E+00  0.10566000000E+00 0.  1.
     999900   -1    0    0    0    0 -0.00000000000E+00 -0.00000000000E+00 -0.74505805969E-08  0.93827000000E+00  0.93827000000E+00 0. -1.
     999902    2    1    2    0    0  0.94455445946E-02  0.97627918008E-02  0.17996252693E-01  0.10213823720E+01  0.10211334655E+01 0.  0.
     999903    2    3    3    0    0 -0.13812126421E-02 -0.12872394542E+00  0.45523293439E-02  0.13038487812E+00  0.20192346740E-01 0.  0.
         14    1    1    2    0    0 -0.94455445946E-02 -0.97627918008E-02 -0.17996252693E-01  0.22547627978E-01  0.00000000000E+00 0. -1.
     999901    1    3    3    0    0  0.10826757237E-01  0.13848673722E+00  0.13443923350E-01  0.89099749390E+00  0.88000000000E+00 0. -1.
        -11    1    4    4    0    0  0.81053690848E-02 -0.89561765609E-01  0.52292234339E-02  0.90081145451E-01  0.51100000000E-03 0. -1.
         11    1    4    4    0    0 -0.94865817269E-02 -0.39162179815E-01 -0.67689409005E-03  0.40303732672E-01  0.51100000000E-03 0.  1.
</event>
<event>
 8    1  0.1109553E+005  0.1043930E+01  0.7957747E-01            NaN
         13   -1    0    0    0    0  0.00000000000E+00  0.00000000000E+00  0.74505805969E-08  0.10566000000E+00  0.10566000000E+00 0.  1.
     999900   -1    0    0    0    0 -0.00000000000E+00 -0.00000000000E+00 -0.74505805969E-08  0.93827000000E+00  0.93827000000E+00 0.  1.
     999902    2    1    2    0    0 -0.16965094086E-01 -0.53222982652E-02  0.13877682633E-01  0.10213749263E+01  0.10211258535E+01 0.  0.
     999903    2    3    3    0    0 -0.99727191175E-01  0.80024571391E-01 -0.27484128438E-01  0.13241798001E+00  0.20729192639E-01 0.  0.
         14    1    1    2    0    0  0.16965094086E-01  0.53222982652E-02 -0.13877682633E-01  0.22555073740E-01  0.00000000000E+00 0.  1.
     999901    1    3    3    0    0  0.82762097089E-01 -0.85346869656E-01  0.41361811071E-01  0.88895694625E+00  0.88000000000E+00 0.  1.
        -11    1    4    4    0    0 -0.48205792014E-01  0.26035164991E-01 -0.14398769813E-01  0.56649924033E-01  0.51100000000E-03 0. -1.
         11    1    4    4    0    0 -0.51521399161E-01  0.53989406400E-01 -0.13085358625E-01  0.75768055975E-01  0.51100000000E-03 0.  1.
</event>
<event>
 8    1  0.1109553E+005  0.1043930E+01  0.7957747E-01            NaN
         13   -1    0    0    0    0  0.00000000000E+00  0.00000000000E+00  0.74505805969E-08  0.10566000000E+00  0.10566000000E+00 0.  1.
     999900   -1    0    0    0    0 -0.00000000000E+00 -0.00000000000E+00 -0.74505805969E-08  0.93827000000E+00  0.93827000000E+00 0. -1.
     999902    2    1    2    0    0  0.22571053750E-01  0.77260946071E-02 -0.21468211142E-03  0.10200722739E+01  0.10197932403E+01 0.  0.
     999903    2    3    3    0    0  0.53480314228E-01 -0.11684353180E+00 -0.11844035453E-01  0.13068584718E+00  0.20638666235E-01 0.  0.
         14    1    1    2    0    0 -0.22571053750E-01 -0.77260946071E-02  0.21468211142E-03  0.23857726080E-01  0.00000000000E+00 0.  1.
     999901    1    3    3    0    0 -0.30909260478E-01  0.12456962641E+00  0.11629353341E-01  0.88938642674E+00  0.88000000000E+00 0.  1.
        -11    1    4    4    0    0  0.39535921469E-01 -0.77610286111E-01 -0.16942237104E-01  0.88734131627E-01  0.51100000000E-03 0. -1.
         11    1    4    4    0    0  0.13944392759E-01 -0.39233245692E-01  0.50982016512E-02  0.41951715555E-01  0.51100000000E-03 0.  1.
</event>
<event>
 8    1  0.1109553E+005  0.1043930E+01  0.7957747E-01            NaN
         13   -1    0    0    0    0  0.00000000000E+00  0.00000000000E+00  0.74505805969E-08  0.10566000000E+00  0.10566000000E+00 0.  1.
     999900   -1    0    0    0    0 -0.00000000000E+00 -0.00000000000E+00 -0.74505805969E-08  0.93827000000E+00  0.93827000000E+00 0.  1.
     999902    2    1    2    0    0  0.14787727386E-01  0.14183091755E-01 -0.15875009724E-01  0.10180098745E+01  0.10176798375E+01 0.  0.
     999903    2    3    3    0    0  0.41698902929E-01 -0.62250311887E-01  0.99664958659E-01  0.12676593433E+00  0.22860408739E-01 0.  0.
         14    1    1    2    0    0 -0.14787727386E-01 -0.14183091755E-01  0.15875009724E-01  0.25920125515E-01  0.00000000000E+00 0. -1.
     999901    1    3    3    0    0 -0.26911175543E-01  0.76433403643E-01 -0.11553996838E+00  0.89124394015E+00  0.88000000000E+00 0.  1.
        -11    1    4    4    0    0  0.41523314910E-01 -0.49439906570E-01  0.89731996176E-01  0.11054674261E+00  0.51100000000E-03 0.  1.
         11    1    4    4    0    0  0.17558801856E-03 -0.12810405317E-01  0.99329624831E-02  0.16219191725E-01  0.51100000000E-03 0. -1.
</event>
<event>
 8    1  0.1109553E+005  0.1043930E+01  0.7957747E-01            NaN
         13   -1    0    0    0    0  0.00000000000E+00  0.00000000000E+00  0.74505805969E-08  0.10566000000E+00  0.10566000000E+00 0.  1.
     999900   -1    0    0    0    0 -0.00000000000E+00 -0.00000000000E+00 -0.74505805969E-08  0.93827000000E+00  0.93827000000E+00 0. -1.
     999902    2    1    2    0    0  0.11929787533E-01 -0.49933635048E-02 -0.19579210881E-01  0.10204651538E+01  0.10201953397E+01 0.  0.
     999903    2    3    3    0    0  0.95283653976E-01  0.27033753816E-01 -0.87295372528E-01  0.13335801152E+00  0.18816976659E-01 0.  0.
         14    1    1    2    0    0 -0.11929787533E-01  0.49933635048E-02  0.19579210881E-01  0.23464846226E-01  0.00000000000E+00 0.  1.
     999901    1    3    3    0    0 -0.83353866443E-01 -0.32027117321E-01  0.67716161647E-01  0.88710714226E+00  0.88000000000E+00 0.  1.
        -11    1    4    4    0    0  0.67490365206E-01  0.27459745424E-01 -0.59873593676E-01  0.94308511572E-01  0.51100000000E-03 0.  1.
         11    1    4    4    0    0  0.27793288770E-01 -0.42599160727E-03 -0.27421778853E-01  0.39049499945E-01  0.51100000000E-03 0. -1.
</event>
<event>
 8    1  0.1109553E+005  0.1043930E+01  0.7957747E-01            NaN
         13   -1    0    0    0    0  0.00000000000E+00  0.00000000000E+00  0.74505805969E-08  0.10566000000E+00  0.10566000000E+00 0. -1.
     999900   -1    0    0    0    0 -0.00000000000E+00 -0.00000000000E+00 -0.74505805969E-08  0.93827000000E+00  0.93827000000E+00 0.  1.
     999902    2    1    2    0    0 -0.11634545734E-02  0.10184932832E-01  0.21647248782E-01  0.10199781762E+01  0.10196969109E+01 0.  0.
     999903    2    3    3    0    0 -0.11742235099E+00  0.51964841462E-01 -0.13634250470E-01  0.13064894810E+00  0.19872131091E-01 0.  0.
         14    1    1    2    0    0  0.11634545734E-02 -0.10184932832E-01 -0.21647248782E-01  0.23951823796E-01  0.00000000000E+00 0.  1.
     999901    1    3    3    0    0  0.11625889642E+00 -0.41779908630E-01  0.35281499252E-01  0.88932922810E+00  0.88000000000E+00 0. -1.
        -11    1    4    4    0    0 -0.42955855039E-01  0.28420130477E-01 -0.90605704218E-03  0.51516903622E-01  0.51100000000E-03 0. -1.
         11    1    4    4    0    0 -0.74466495954E-01  0.23544710985E-01 -0.12728193428E-01  0.79132044483E-01  0.51100000000E-03 0.  1.
</event>
<event>
 8    1  0.1109553E+005  0.1043930E+01  0.7957747E-01            NaN
         13   -1    0    0    0    0  0.00000000000E+00  0.00000000000E+00  0.74505805969E-08  0.10566000000E+00  0.10566000000E+00 0. -1.
     999900   -1    0    0    0    0 -0.00000000000E+00 -0.00000000000E+00 -0.74505805969E-08  0.93827000000E+00  0.93827000000E+00 0. -1.
     999902    2    1    2    0    0  0.21831768648E-01  0.96981222737E-02  0.53106284240E-03  0.10200351946E+01  0.10197552826E+01 0.  0.
     999903    2    3    3    0    0  0.67186950927E-02 -0.29131385860E-01 -0.12507035857E+00  0.13014090156E+00  0.20007027772E-01 0.  0.
         14    1    1    2    0    0 -0.21831768648E-01 -0.96981222737E-02 -0.53106284240E-03  0.23894805412E-01  0.00000000000E+00 0. -1.
     999901    1    3    3    0    0  0.15113073555E-01  0.38829508133E-01  0.12560142142E+00  0.88989429302E+00  0.88000000000E+00 0.  1.
        -11    1    4    4    0    0  0.10295814176E-01 -0.83172872747E-02 -0.68183585859E-01  0.69458214480E-01  0.51100000000E-03 0. -1.
         11    1    4    4    0    0 -0.35771190831E-02 -0.20814098585E-01 -0.56886772715E-01  0.60682687084E-01  0.51100000000E-03 0.  1.
</event>
<event>
 8    1  0.1109553E+005  0.1043930E+01  0.7957747E-01            NaN
         13   -1    0    0    0    0  0.00000000000E+00  0.00000000000E+00  0.74505805969E-08  0.10566000000E+00  0.10566000000E+00 0. -1.
     999900   -1    0    0    0    0 -0.00000000000E+00 -0.00000000000E+00 -0.74505805969E-08  0.93827000000E+00  0.93827000000E+00 0.  1.
     999902    2    1    2    0    0  0.10859779952E-01 -0.82692926641E-02  0.20278957779E-01  0.10194851202E+01  0.10191920124E+01 0.  0.
     999903    2    3    3    0    0  0.83558174929E-01  0.45977646603E-01 -0.83774483564E-01  0.12872426241E+00  0.21350855972E-01 0.  0.
         14    1    1    2    0    0 -0.10859779952E-01  0.82692926641E-02 -0.20278957779E-01  0.24444879840E-01  0.00000000000E+00 0.  1.
     999901    1    3    3    0    0 -0.72698394977E-01 -0.54246939267E-01  0.10405344134E+00  0.89076085775E+00  0.88000000000E+00 0.  1.
        -11    1    4    4    0    0  0.38877308253E-01  0.33270205771E-01 -0.46888810840E-01  0.69405859926E-01  0.51100000000E-03 0.  1.
         11    1    4    4    0    0  0.44680866676E-01  0.12707440832E-01 -0.36885672724E-01  0.59318402480E-01  0.51100000000E-03 0. -1.
</event>
<event>
 8    1  0.1109553E+005  0.1043930E+01  0.7957747E-01            NaN
         13   -1    0    0    0    0  0.00000000000E+00  0.00000000000E+00  0.74505805969E-08  0.10566000000E+00  0.10566000000E+00 0.  1.
     999900   -1    0    0    0    0 -0.00000000000E+00 -0.00000000000E+00 -0.74505805969E-08  0.93827000000E+00  0.93827000000E+00 0.  1.
     999902    2    1    2    0    0 -0.98915741217E-02 -0.90203335094E-02  0.19765857192E-01  0.10200574474E+01  0.10197780628E+01 0.  0.
     999903    2    3    3    0    0 -0.16215224756E-01 -0.12552584792E+00 -0.27913708396E-01  0.13107664651E+00  0.19550962482E-01 0.  0.
         14    1    1    2    0    0  0.98915741217E-02  0.90203335094E-02 -0.19765857192E-01  0.23872552561E-01  0.00000000000E+00 0.  1.
     999901    1    3    3    0    0  0.63236506342E-02  0.11650551441E+00  0.47679565588E-01  0.88898080093E+00  0.88000000000E+00 0. -1.
        -11    1    4    4    0    0 -0.16926282707E-01 -0.62449336804E-01 -0.18485880375E-01  0.67293444017E-01  0.51100000000E-03 0.  1.
         11    1    4    4    0    0  0.71105795080E-03 -0.63076511117E-01 -0.94278280213E-02  0.63783202493E-01  0.51100000000E-03 0. -1.
</event>
<event>
 8    1  0.1109553E+005  0.1043930E+01  0.7957747E-01            NaN
         13   -1    0    0    0    0  0.00000000000E+00  0.00000000000E+00  0.74505805969E-08  0.10566000000E+00  0.10566000000E+00 0.  1.
     999900   -1    0    0    0    0 -0.00000000000E+00 -0.00000000000E+00 -0.74505805969E-08  0.93827000000E+00  0.93827000000E+00 0.  1.
     999902    2    1    2    0    0 -0.18192220413E-02  0.14228372442E-01 -0.19678192641E-01  0.10195786670E+01  0.10192878253E+01 0.  0.
     999903    2    3    3    0    0  0.73425989197E-01  0.63362830702E-01 -0.87215793997E-01  0.13242740350E+00  0.22895376654E-01 0.  0.
         14    1    1    2    0    0  0.18192220413E-02 -0.14228372442E-01  0.19678192641E-01  0.24351332957E-01  0.00000000000E+00 0.  1.
     999901    1    3    3    0    0 -0.75245211238E-01 -0.49134458260E-01  0.67537601356E-01  0.88715126354E+00  0.88000000000E+00 0. -1.
        -11    1    4    4    0    0  0.54968483593E-01  0.33976280053E-01 -0.51583796029E-01  0.82686582518E-01  0.51100000000E-03 0. -1.
         11    1    4    4    0    0  0.18457505604E-01  0.29386550648E-01 -0.35631997968E-01  0.49740820985E-01  0.51100000000E-03 0.  1.
</event>
<event>
 8    1  0.1109553E+005  0.1043930E+01  0.7957747E-01            NaN
         13   -1    0    0    0    0  0.00000000000E+00  0.00000000000E+00  0.74505805969E-08  0.10566000000E+00  0.10566000000E+00 0.  1.
     999900   -1    0    0    0    0 -0.00000000000E+00 -0.00000000000E+00 -0.74505805969E-08  0.93827000000E+00  0.93827000000E+00 0. -1.
     999902    2    1    2    0    0 -0.10480022600E-01 -0.25814415398E-02 -0.21132681270E-01  0.10202005893E+01  0.10199245842E+01 0.  0.
     999903    2    3    3    0    0 -0.47883944709E-01 -0.83082924195E-01  0.84687114405E-01  0.12942712133E+00  0.19591527136E-01 0.  0.
         14    1    1    2    0    0  0.10480022600E-01  0.25814415398E-02  0.21132681270E-01  0.23729410692E-01  0.00000000000E+00 0.  1.
     999901    1    3    3    0    0  0.37403922109E-01  0.80501482656E-01 -0.10581979568E+00  0.89077346798E+00  0.88000000000E+00 0. -1.
        -11    1    4    4    0    0 -0.48904404857E-01 -0.75703989820E-01  0.75381402081E-01  0.11749617777E+00  0.51100000000E-03 0. -1.
         11    1    4    4    0    0  0.10204601483E-02 -0.73789343753E-02  0.93057123235E-02  0.11930943562E-01  0.51100000000E-03 0.  1.
</event>
<event>
 8    1  0.1109553E+005  0.1043930E+01  0.7957747E-01            NaN
         13   -1    0    0    0    0  0.00000000000E+00  0.00000000000E+00  0.74505805969E-08  0.10566000000E+00  0.10566000000E+00 0.  1.
     999900   -1    0    0    0    0 -0.00000000000E+00 -0.00000000000E+00 -0.74505805969E-08  0.93827000000E+00  0.93827000000E+00 0. -1.
     999902    2    1    2    0    0  0.23066082010E-01  0.13384873612E-03  0.54639976103E-03  0.10208570590E+01  0.10205962837E+01 0.  0.
     999903    2    3    3    0    0  0.14660126753E-01  0.67865843435E-01 -0.10967451150E+00  0.13135892381E+00  0.20148855281E-01 0.  0.
         14    1    1    2    0    0 -0.23066082010E-01 -0.13384873612E-03 -0.54639976103E-03  0.23072941024E-01  0.00000000000E+00 0. -1.
     999901    1    3    3    0    0  0.84059552571E-02 -0.67731994698E-01  0.11022091126E+00  0.88949813517E+00  0.88000000000E+00 0.  1.
        -11    1    4    4    0    0  0.11262277741E-01  0.26774986958E-01 -0.30694668822E-01  0.42263017422E-01  0.51100000000E-03 0.  1.
         11    1    4    4    0    0  0.33978490125E-02  0.41090856476E-01 -0.78979842679E-01  0.89095906385E-01  0.51100000000E-03 0. -1.
</event>
<event>
 8    1  0.1109553E+005  0.1043930E+01  0.7957747E-01            NaN
         13   -1    0    0    0    0  0.00000000000E+00  0.00000000000E+00  0.74505805969E-08  0.10566000000E+00  0.10566000000E+00 0.  1.
     999900   -1    0    0    0    0 -0.00000000000E+00 -0.00000000000E+00 -0.74505805969E-08  0.93827000000E+00  0.93827000000E+00 0. -1.
     999902    2    1    2    0    0  0.46785603452E-02  0.20640723894E-01  0.12178332055E-01  0.10195119702E+01  0.10192195137E+01 0.  0.
     999903    2    3    3    0    0  0.81226999668E-02 -0.10479131594E+00 -0.68377256660E-01  0.12696826726E+00  0.19957292155E-01 0.  0.
         14    1    1    2    0    0 -0.46785603452E-02 -0.20640723894E-01 -0.12178332055E-01  0.24418029843E-01  0.00000000000E+00 0. -1.
     999901    1    3    3    0    0 -0.34441396216E-02  0.12543203984E+00  0.80555588714E-01  0.89254370290E+00  0.88000000000E+00 0. -1.
        -11    1    4    4    0    0  0.76271603464E-02 -0.43397428688E-01 -0.18205703969E-01  0.47678288242E-01  0.51100000000E-03 0. -1.
         11    1    4    4    0    0  0.49553962045E-03 -0.61393887254E-01 -0.50171552691E-01  0.79289979014E-01  0.51100000000E-03 0.  1.
</event>
<event>
 8    1  0.1109553E+005  0.1043930E+01  0.7957747E-01            NaN
         13   -1    0    0    0    0  0.00000000000E+00  0.00000000000E+00  0.74505805969E-08  0.10566000000E+00  0.10566000000E+00 0. -1.
     999900   -1    0    0    0    0 -0.00000000000E+00 -0.00000000000E+00 -0.74505805969E-08  0.93827000000E+00  0.93827000000E+00 0. -1.
     999902    2    1    2    0    0 -0.37959399852E-02 -0.20988198221E-01  0.97865816168E-02  0.10204631978E+01  0.10201933382E+01 0.  0.
     999903    2    3    3    0    0 -0.58404457479E-01 -0.11884155676E+00 -0.48103645283E-02  0.13323693536E+00  0.13947941427E-01 0.  0.
         14    1    1    2    0    0  0.37959399852E-02  0.20988198221E-01 -0.97865816168E-02  0.23466802183E-01  0.00000000000E+00 0.  1.
     999901    1    3    3    0    0  0.54608517494E-01  0.97853358539E-01  0.14596946145E-01  0.88722626246E+00  0.88000000000E+00 0. -1.
        -11    1    4    4    0    0 -0.30165369889E-01 -0.54906514515E-01  0.40598960568E-02  0.62780719602E-01  0.51100000000E-03 0. -1.
         11    1    4    4    0    0 -0.28239087590E-01 -0.63935042245E-01 -0.88702605851E-02  0.70456215756E-01  0.51100000000E-03 0.  1.
</event>
<event>
 8    1  0.1109553E+005  0.1043930E+01  0.7957747E-01            NaN
         13   -1    0    0    0    0  0.00000000000E+00  0.00000000000E+00  0.74505805969E-08  0.10566000000E+00  0.10566000000E+00 0.  1.
     999900   -1    0    0    0    0 -0.00000000000E+00 -0.00000000000E+00 -0.74505805969E-08  0.93827000000E+00  0.93827000000E+00 0. -1.
     999902    2    1    2    0    0  0.70813868406E-02 -0.69531602855E-02  0.21398087148E-01  0.10203424904E+01  0.10200698148E+01 0.  0.
     999903    2    3    3    0    0  0.53399813815E-01  0.11718273217E+00  0.19025672638E-02  0.13021036996E+00  0.19177795693E-01 0.  0.
         14    1    1    2    0    0 -0.70813868406E-02  0.69531602855E-02 -0.21398087148E-01  0.23587509643E-01  0.00000000000E+00 0. -1.
     999901    1    3    3    0    0 -0.46318426974E-01 -0.12413589246E+00  0.19495519884E-01  0.89013212040E+00  0.88000000000E+00 0. -1.
        -11    1    4    4    0    0  0.85167068141E-02  0.36404813834E-01 -0.40367338413E-02  0.37608524385E-01  0.51100000000E-03 0. -1.
         11    1    4    4    0    0  0.44883107000E-01  0.80777918336E-01  0.59393011051E-02  0.92601845572E-01  0.51100000000E-03 0.  1.
</event>
<event>
 8    1  0.1109553E+005  0.1043930E+01  0.7957747E-01            NaN
         13   -1    0    0    0    0  0.00000000000E+00  0.00000000000E+00  0.74505805969E-08  0.10566000000E+00  0.10566000000E+00 0. -1.
     999900   -1    0    0    0    0 -0.00000000000E+00 -0.00000000000E+00 -0.74505805969E-08  0.93827000000E+00  0.93827000000E+00 0. -1.
     999902    2    1    2    0    0 -0.59676424832E-02  0.19913808496E-01 -0.11509866729E-01  0.10201676441E+01  0.10198908630E+01 0.  0.
     999903    2    3    3    0    0  0.10437369854E+00  0.55102208538E-01 -0.54494958031E-01  0.13153883908E+00  0.20065976277E-01 0.  0.
         14    1    1    2    0    0  0.59676424832E-02 -0.19913808496E-01  0.11509866729E-01  0.23762355896E-01  0.00000000000E+00 0. -1.
     999901    1    3    3    0    0 -0.11034134102E+00 -0.35188400043E-01  0.42985091302E-01  0.88862880502E+00  0.88000000000E+00 0.  1.
        -11    1    4    4    0    0  0.42120637930E-01  0.30851181165E-01 -0.30966118566E-01  0.60705066831E-01  0.51100000000E-03 0. -1.
         11    1    4    4    0    0  0.62253060610E-01  0.24251027374E-01 -0.23528839465E-01  0.70833772253E-01  0.51100000000E-03 0.  1.
</event>
<event>
 8    1  0.1109553E+005  0.1043930E+01  0.7957747E-01            NaN
         13   -1    0    0    0    0  0.00000000000E+00  0.00000000000E+00  0.74505805969E-08  0.10566000000E+00  0.10566000000E+00 0. -1.
     999900   -1    0    0    0    0 -0.00000000000E+00 -0.00000000000E+00 -0.74505805969E-08  0.93827000000E+00  0.93827000000E+00 0.  1.
     999902    2    1    2    0    0  0.69917726332E-02  0.69666557546E-02 -0.21440139131E-01  0.10203270607E+01  0.10200540241E+01 0.  0.
     999903    2    3    3    0    0  0.10057438573E+00 -0.77314734519E-03 -0.84817698801E-01  0.13306479673E+00  0.19909627751E-01 0.  0.
         14    1    1    2    0    0 -0.69917726332E-02 -0.69666557546E-02  0.21440139131E-01  0.23602939286E-01  0.00000000000E+00 0. -1.
     999901    1    3    3    0    0 -0.93582613093E-01  0.77398030998E-02  0.63377559669E-01  0.88726226399E+00  0.88000000000E+00 0. -1.
        -11    1    4    4    0    0  0.35185164259E-01 -0.20486749120E-02 -0.18052554325E-01  0.39602382396E-01  0.51100000000E-03 0. -1.
         11    1    4    4    0    0  0.65389221468E-01  0.12755275668E-02 -0.66765144476E-01  0.93462414331E-01  0.51100000000E-03 0.  1.
</event>
<event>
 8    1  0.1109553E+005  0.1043930E+01  0.7957747E-01            NaN
         13   -1    0    0    0    0  0.00000000000E+00  0.00000000000E+00  0.74505805969E-08  0.10566000000E+00  0.10566000000E+00 0.  1.
     999900   -1    0    0    0    0 -0.00000000000E+00 -0.00000000000E+00 -0.74505805969E-08  0.93827000000E+00  0.93827000000E+00 0. -1.
     999902    2    1    2    0    0 -0.40707983445E-02 -0.18686648619E-01  0.14349548384E-01  0.10200203414E+01  0.10197400772E+01 0.  0.
     999903    2    3    3    0    0 -0.47382681827E-02 -0.12761622105E+00 -0.17094503034E-01  0.13274652479E+00  0.31954135074E-01 0.  0.
         14    1    1    2    0    0  0.40707983445E-02  0.18686648619E-01 -0.14349548384E-01  0.23909658605E-01  0.00000000000E+00 0. -1.
     999901    1    3    3    0    0  0.66746983817E-03  0.10892957243E+00  0.31444051418E-01  0.88727381661E+00  0.88000000000E+00 0.  1.
        -11    1    4    4    0    0 -0.22922235045E-02 -0.59191014606E-01  0.80973236819E-02  0.59788445961E-01  0.51100000000E-03 0. -1.
         11    1    4    4    0    0 -0.24460446782E-02 -0.68425206447E-01 -0.25191826716E-01  0.72958078827E-01  0.51100000000E-03 0.  1.
</event>
<event>
 8    1  0.1109553E+005  0.1043930E+01  0.7957747E-01            NaN
         13   -1    0    0    0    0  0.00000000000E+00  0.00000000000E+00  0.74505805969E-08  0.10566000000E+00  0.10566000000E+00 0. -1.
     999900   -1    0    0    0    0 -0.00000000000E+00 -0.00000000000E+00 -0.74505805969E-08  0.93827000000E+00  0.93827000000E+00 0. -1.
     999902    2    1    2    0    0  0.62781412049E-02  0.12237556626E-01 -0.18681972400E-01  0.10207311004E+01  0.10204674372E+01 0.  0.
     999903    2    3    3    0    0  0.10862998997E+00  0.72825278461E-01 -0.10836062317E-01  0.13269487858E+00  0.19659975869E-01 0.  0.
         14    1    1    2    0    0 -0.62781412049E-02 -0.12237556626E-01  0.18681972400E-01  0.23198899584E-01  0.00000000000E+00 0. -1.
     999901    1    3    3    0    0 -0.10235184877E+00 -0.60587721835E-01 -0.78459100830E-02  0.88803622183E+00  0.88000000000E+00 0. -1.
        -11    1    4    4    0    0  0.36389125159E-01  0.35239647361E-01 -0.10029627412E-02  0.50668217170E-01  0.51100000000E-03 0.  1.
         11    1    4    4    0    0  0.72240864813E-01  0.37585631100E-01 -0.98330995762E-02  0.82026661412E-01  0.51100000000E-03 0. -1.
</event>
<event>
 8    1  0.1109553E+005  0.1043930E+01  0.7957747E-01            NaN
         13   -1    0    0    0    0  0.00000000000E+00  0.00000000000E+00  0.74505805969E-08  0.10566000000E+00  0.10566000000E+00 0. -1.
     999900   -1    0    0    0    0 -0.00000000000E+00 -0.00000000000E+00 -0.74505805969E-08  0.93827000000E+00  0.93827000000E+00 0.  1.
     999902    2    1    2    0    0  0.19412726140E-01  0.90872972335E-02  0.10516288288E-01  0.10200547989E+01  0.10197753515E+01 0.  0.
     999903    2    3    3    0    0  0.10440754825E+00  0.53587209652E-01  0.60192028939E-01  0.13344776015E+00  0.20314998649E-01 0.  0.
         14    1    1    2    0    0 -0.19412726140E-01 -0.90872972335E-02 -0.10516288288E-01  0.23875201079E-01  0.00000000000E+00 0.  1.
     999901    1    3    3    0    0 -0.84994822115E-01 -0.44499912418E-01 -0.49675740651E-01  0.88660703877E+00  0.88000000000E+00 0.  1.
        -11    1    4    4    0    0  0.41056273750E-02  0.77534480455E-02  0.36179047975E-02  0.95038144374E-02  0.51100000000E-03 0.  1.
         11    1    4    4    0    0  0.10030192088E+00  0.45833761606E-01  0.56574124141E-01  0.12394394571E+00  0.51100000000E-03 0. -1.
</event>
<event>
 8    1  0.1109553E+005  0.1043930E+01  0.7957747E-01            NaN
         13   -1    0    0    0    0  0.00000000000E+00  0.00000000000E+00  0.74505805969E-08  0.10566000000E+00  0.10566000000E+00 0.  1.
     999900   -1    0    0    0    0 -0.00000000000E+00 -0.00000000000E+00 -0.74505805969E-08  0.93827000000E+00  0.93827000000E+00 0. -1.
     999902    2    1    2    0    0 -0.24076167697E-01  0.17206751824E-02  0.11449704023E-02  0.10197652833E+01  0.10194789353E+01 0.  0.
     999903    2    3    3    0    0 -0.49022150426E-01 -0.10631161457E+00 -0.55516827946E-01  0.13099993913E+00  0.19327059793E-01 0.  0.
         14    1    1    2    0    0  0.24076167697E-01 -0.17206751824E-02 -0.11449704023E-02  0.24164716660E-01  0.00000000000E+00 0.  1.
     999901    1    3    3    0    0  0.24945982729E-01  0.10803228976E+00  0.56661798348E-01  0.88876534421E+00  0.88000000000E+00 0.  1.
        -11    1    4    4    0    0 -0.66916543558E-02 -0.37388824750E-02 -0.32537110665E-02  0.83429753017E-02  0.51100000000E-03 0. -1.
         11    1    4    4    0    0 -0.42330496070E-01 -0.10257273210E+00 -0.52263116879E-01  0.12265696382E+00  0.51100000000E-03 0.  1.
</event>
<event>
 8    1  0.1109553E+005  0.1043930E+01  0.7957747E-01            NaN
         13   -1    0    0    0    0  0.00000000000E+00  0.00000000000E+00  0.74505805969E-08  0.10566000000E+00  0.10566000000E+00 0. -1.
     999900   -1    0    0    0    0 -0.00000000000E+00 -0.00000000000E+00 -0.74505805969E-08  0.93827000000E+00  0.93827000000E+00 0.  1.
     999902    2    1    2    0    0 -0.16261397591E-01  0.63828468408E-02  0.17882781972E-01  0.10189306465E+01  0.10186239221E+01 0.  0.
     999903    2    3    3    0    0 -0.63790017038E-01 -0.33502380665E-01  0.10881680711E+00  0.13207169604E+00  0.20254866146E-01 0.  0.
         14    1    1    2    0    0  0.16261397591E-01 -0.63828468408E-02 -0.17882781972E-01  0.24999353521E-01  0.00000000000E+00 0.  1.
     999901    1    3    3    0    0  0.47528619447E-01  0.39885227505E-01 -0.90934025137E-01  0.88685895044E+00  0.88000000000E+00 0.  1.
        -11    1    4    4    0    0 -0.32222450736E-01 -0.18125263641E-01  0.37964964662E-01  0.52994444768E-01  0.51100000000E-03 0. -1.
         11    1    4    4    0    0 -0.31567566302E-01 -0.15377117024E-01  0.70851842447E-01  0.79077251276E-01  0.51100000000E-03 0.  1.
</event>
<event>
 8    1  0.1109553E+005  0.1043930E+01  0.7957747E-01            NaN
         13   -1    0    0    0    0  0.00000000000E+00  0.00000000000E+00  0.74505805969E-08  0.10566000000E+00  0.10566000000E+00 0.  1.
     999900   -1    0    0    0    0 -0.00000000000E+00 -0.00000000000E+00 -0.74505805969E-08  0.93827000000E+00  0.93827000000E+00 0.  1.
     999902    2    1    2    0    0 -0.23922248630E-01  0.67787240850E-03 -0.49307021528E-02  0.10194954893E+01  0.10192026331E+01 0.  0.
     999903    2    3    3    0    0 -0.10643572116E+00 -0.43123186042E-01  0.61888666586E-01  0.13203178078E+00  0.20347289001E-01 0.  0.
         14    1    1    2    0    0  0.23922248630E-01 -0.67787240850E-03  0.49307021528E-02  0.24434510722E-01  0.00000000000E+00 0.  1.
     999901    1    3    3    0    0  0.82513472530E-01  0.43801058451E-01 -0.66819368739E-01  0.88746370850E+00  0.88000000000E+00 0.  1.
        -11    1    4    4    0    0 -0.16840304923E-01 -0.20279880551E-02  0.15919129342E-01  0.23267754629E-01  0.51100000000E-03 0.  1.
         11    1    4    4    0    0 -0.89595416237E-01 -0.41095197987E-01  0.45969537245E-01  0.10876402615E+00  0.51100000000E-03 0. -1.
</event>
<event>
 8    1  0.1109553E+005  0.1043930E+01  0.7957747E-01            NaN
         13   -1    0    0    0    0  0.00000000000E+00  0.00000000000E+00  0.74505805969E-08  0.10566000000E+00  0.10566000000E+00 0. -1.
     999900   -1    0    0    0    0 -0.00000000000E+00 -0.00000000000E+00 -0.74505805969E-08  0.93827000000E+00  0.93827000000E+00 0.  1.
     999902    2    1    2    0    0 -0.36898180400E-02 -0.20155083205E-01  0.33706365242E-02  0.10231645641E+01  0.10229538220E+01 0.  0.
     999903    2    3    3    0    0 -0.10899717085E+00  0.79013144280E-03  0.74796627483E-01  0.13376588370E+00  0.20439388404E-01 0.  0.
         14    1    1    2    0    0  0.36898180400E-02  0.20155083205E-01 -0.33706365242E-02  0.20765435867E-01  0.00000000000E+00 0.  1.
     999901    1    3    3    0    0  0.10530735281E+00 -0.20945214648E-01 -0.71425990959E-01  0.88939868043E+00  0.88000000000E+00 0. -1.
        -11    1    4    4    0    0 -0.95352578863E-01 -0.58459536963E-02  0.67114836951E-01  0.11675166778E+00  0.51100000000E-03 0. -1.
         11    1    4    4    0    0 -0.13644591985E-01  0.66360851391E-02  0.76817905322E-02  0.17014215915E-01  0.51100000000E-03 0.  1.
</event>
<event>
 8    1  0.1109553E+005  0.1043930E+01  0.7957747E-01            NaN
         13   -1    0    0    0    0  0.00000000000E+00  0.00000000000E+00  0.74505805969E-08  0.10566000000E+00  0.10566000000E+00 0. -1.
     999900   -1    0    0    0    0 -0.00000000000E+00 -0.00000000000E+00 -0.74505805969E-08  0.93827000000E+00  0.93827000000E+00 0.  1.
     999902    2    1    2    0    0  0.26560875882E-02  0.12079866470E-01  0.20041993435E-01  0.10203787903E+01  0.10201069632E+01 0.  0.
     999903    2    3    3    0    0 -0.91725278982E-01 -0.88890451767E-01 -0.19180296623E-02  0.12932038029E+00  0.20125672690E-01 0.  0.
         14    1    1    2    0    0 -0.26560875882E-02 -0.12079866470E-01 -0.20041993435E-01  0.23551209651E-01  0.00000000000E+00 0.  1.
     999901    1    3    3    0    0  0.94381366570E-01  0.10097031824E+00  0.21960023097E-01  0.89105841006E+00  0.88000000000E+00 0.  1.
        -11    1    4    4    0    0 -0.80160382746E-02 -0.15386296315E-01 -0.43443788671E-02  0.17892169590E-01  0.51100000000E-03 0.  1.
         11    1    4    4    0    0 -0.83709240707E-01 -0.73504155452E-01  0.24263492048E-02  0.11142821070E+00  0.51100000000E-03 0. -1.
</event>
<event>
 8    1  0.1109553E+005  0.1043930E+01  0.7957747E-01            NaN
         13   -1    0    0    0    0  0.00000000000E+00  0.00000000000E+00  0.74505805969E-08  0.10566000000E+00  0.10566000000E+00 0. -1.
     999900   -1    0    0    0    0 -0.00000000000E+00 -0.00000000000E+00 -0.74505805969E-08  0.93827000000E+00  0.93827000000E+00 0.  1.
     999902    2    1    2    0    0 -0.31530136694E-02  0.84035063990E-02  0.21825637214E-01  0.10203308717E+01  0.10200579243E+01 0.  0.
     999903    2    3    3    0    0 -0.92165078935E-01  0.57746165690E-01  0.73885716691E-01  0.13293687938E+00  0.19598299477E-01 0.  0.
         14    1    1    2    0    0  0.31530136694E-02 -0.84035063990E-02 -0.21825637214E-01  0.23599128263E-01  0.00000000000E+00 0.  1.
     999901    1    3    3    0    0  0.89012065266E-01 -0.49342659291E-01 -0.52060079477E-01  0.88739399235E+00  0.88000000000E+00 0.  1.
        -11    1    4    4    0    0 -0.44888961828E-01  0.37542935096E-01  0.32537044844E-01  0.66958280129E-01  0.51100000000E-03 0.  1.
         11    1    4    4    0    0 -0.47276117107E-01  0.20203230593E-01  0.41348671847E-01  0.65978599255E-01  0.51100000000E-03 0. -1.
</event>
<event>
 8    1  0.1109553E+005  0.1043930E+01  0.7957747E-01            NaN
         13   -1    0    0    0    0  0.00000000000E+00  0.00000000000E+00  0.74505805969E-08  0.10566000000E+00  0.10566000000E+00 0. -1.
     999900   -1    0    0    0    0 -0.00000000000E+00 -0.00000000000E+00 -0.74505805969E-08  0.93827000000E+00  0.93827000000E+00 0. -1.
     999902    2    1    2    0    0 -0.12521658121E-01  0.18546593430E-01  0.62009325213E-02  0.10207088972E+01  0.10204447233E+01 0.  0.
     999903    2    3    3    0    0 -0.25810652412E-01  0.89125615786E-01 -0.92162133569E-01  0.13232086909E+00  0.20134258492E-01 0.  0.
         14    1    1    2    0    0  0.12521658121E-01 -0.18546593430E-01 -0.62009325213E-02  0.23221102775E-01  0.00000000000E+00 0.  1.
     999901    1    3    3    0    0  0.13288994291E-01 -0.70579022356E-01  0.98363066090E-01  0.88838802814E+00  0.88000000000E+00 0.  1.
        -11    1    4    4    0    0 -0.13207506644E-01  0.69175682429E-01 -0.76566985500E-01  0.10403113794E+00  0.51100000000E-03 0.  1.
         11    1    4    4    0    0 -0.12603145768E-01  0.19949933357E-01 -0.15595148068E-01  0.28289731149E-01  0.51100000000E-03 0. -1.
</event>
<event>
 8    1  0.1109553E+005  0.1043930E+01  0.7957747E-01            NaN
         13   -1    0    0    0    0  0.00000000000E+00  0.00000000000E+00  0.74505805969E-08  0.10566000000E+00  0.10566000000E+00 0.  1.
     999900   -1    0    0    0    0 -0.00000000000E+00 -0.00000000000E+00 -0.74505805969E-08  0.93827000000E+00  0.93827000000E+00 0.  1.
     999902    2    1    2    0    0  0.82677190428E-02 -0.73430617118E-02 -0.20249049288E-01  0.10208583782E+01  0.10205976331E+01 0.  0.
     999903    2    3    3    0    0 -0.10914661345E+00 -0.31681213817E-02  0.65689045527E-01  0.12890046907E+00  0.19423182120E-01 0.  0.
         14    1    1    2    0    0 -0.82677190428E-02  0.73430617118E-02  0.20249049288E-01  0.23071621758E-01  0.00000000000E+00 0.  1.
     999901    1    3    3    0    0  0.11741433249E+00 -0.41749403301E-02 -0.85938094815E-01  0.89195790918E+00  0.88000000000E+00 0.  1.
        -11    1    4    4    0    0 -0.74790203178E-01 -0.11123023372E-01  0.43565819444E-01  0.87267049252E-01  0.51100000000E-03 0.  1.
         11    1    4    4    0    0 -0.34356410267E-01  0.79549019902E-02  0.22123226083E-01  0.41633419814E-01  0.51100000000E-03 0. -1.
</event>
<event>
 8    1  0.1109553E+005  0.1043930E+01  0.7957747E-01            NaN
         13   -1    0    0    0    0  0.00000000000E+00  0.00000000000E+00  0.74505805969E-08  0.10566000000E+00  0.10566000000E+00 0. -1.
     999900   -1    0    0    0    0 -0.00000000000E+00 -0.00000000000E+00 -0.74505805969E-08  0.93827000000E+00  0.93827000000E+00 0.  1.
     999902    2    1    2    0    0  0.22108057872E-01 -0.60761701240E-02  0.72979887981E-02  0.10198686886E+01  0.10195848151E+01 0.  0.
     999903    2    3    3    0    0 -0.47633577520E-02 -0.11527265423E+00 -0.57925690483E-01  0.13031819904E+00  0.17803735333E-01 0.  0.
         14    1    1    2    0    0 -0.22108057872E-01  0.60761701240E-02 -0.72979887981E-02  0.24061311409E-01  0.00000000000E+00 0.  1.
     999901    1    3    3    0    0  0.26871415624E-01  0.10919648411E+00  0.65223679281E-01  0.88955048955E+00  0.88000000000E+00 0. -1.
        -11    1    4    4    0    0 -0.67734801963E-02 -0.27891676773E-01 -0.86608547675E-02  0.29984949450E-01  0.51100000000E-03 0.  1.
         11    1    4    4    0    0  0.20101224443E-02 -0.87380977461E-01 -0.49264835716E-01  0.10033324959E+00  0.51100000000E-03 0. -1.
</event>
<event>
 8    1  0.1109553E+005  0.1043930E+01  0.7957747E-01            NaN
         13   -1    0    0    0    0  0.00000000000E+00  0.00000000000E+00  0.74505805969E-08  0.10566000000E+00  0.10566000000E+00 0. -1.
     999900   -1    0    0    0    0 -0.00000000000E+00 -0.00000000000E+00 -0.74505805969E-08  0.93827000000E+00  0.93827000000E+00 0. -1.
     999902    2    1    2    0    0  0.10485816215E-01  0.18910416294E-01 -0.10250443432E-01  0.10200003578E+01  0.10197196194E+01 0.  0.
     999903    2    3    3    0    0 -0.12446132146E+00  0.97230279193E-03  0.26073420249E-01  0.12879222892E+00  0.20397281022E-01 0.  0.
         14    1    1    2    0    0 -0.10485816215E-01 -0.18910416294E-01  0.10250443432E-01  0.23929642218E-01  0.00000000000E+00 0. -1.
     999901    1    3    3    0    0  0.13494713768E+00  0.17938113502E-01 -0.36323863681E-01  0.89120812887E+00  0.88000000000E+00 0. -1.
        -11    1    4    4    0    0 -0.78428452591E-01 -0.62502270357E-02  0.91214782240E-02  0.79205744740E-01  0.51100000000E-03 0.  1.
         11    1    4    4    0    0 -0.46032868871E-01  0.72225298276E-02  0.16951942025E-01  0.49586484177E-01  0.51100000000E-03 0. -1.
</event>
<event>
 8    1  0.1109553E+005  0.1043930E+01  0.7957747E-01            NaN
         13   -1    0    0    0    0  0.00000000000E+00  0.00000000000E+00  0.74505805969E-08  0.10566000000E+00  0.10566000000E+00 0.  1.
     999900   -1    0    0    0    0 -0.00000000000E+00 -0.00000000000E+00 -0.74505805969E-08  0.93827000000E+00  0.93827000000E+00 0. -1.
     999902    2    1    2    0    0  0.14751203231E-02 -0.23750848973E-01  0.38704817810E-02  0.10198206774E+01  0.10195356564E+01 0.  0.
     999903    2    3    3    0    0  0.70083266548E-01 -0.11085603102E+00  0.89615662669E-02  0.13284812450E+00  0.19172653677E-01 0.  0.
         14    1    1    2    0    0 -0.14751203231E-02  0.23750848973E-01 -0.38704817810E-02  0.24109322598E-01  0.00000000000E+00 0. -1.
     999901    1    3    3    0    0 -0.68608146225E-01  0.87105182046E-01 -0.50910844859E-02  0.88697255291E+00  0.88000000000E+00 0. -1.
        -11    1    4    4    0    0  0.28688754476E-01 -0.30669612187E-01 -0.13361280425E-02  0.42020424846E-01  0.51100000000E-03 0. -1.
         11    1    4    4    0    0  0.41394512072E-01 -0.80186418832E-01  0.10297694309E-01  0.90827699651E-01  0.51100000000E-03 0.  1.
</event>
<event>
 8    1  0.1109553E+005  0.1043930E+01  0.7957747E-01            NaN
         13   -1    0    0    0    0  0.00000000000E+00  0.00000000000E+00  0.74505805969E-08  0.10566000000E+00  0.10566000000E+00 0. -1.
     999900   -1    0    0    0    0 -0.00000000000E+00 -0.00000000000E+00 -0.74505805969E-08  0.93827000000E+00  0.93827000000E+00 0. -1.
     999902    2    1    2    0    0  0.14398672591E-01 -0.13257582117E-01 -0.14219727929E-01  0.10197373168E+01  0.10194502977E+01 0.  0.
     999903    2    3    3    0    0  0.11134713884E+00 -0.59025324740E-01  0.32780641072E-01  0.13198581667E+00  0.21529307580E-01 0.  0.
         14    1    1    2    0    0 -0.14398672591E-01  0.13257582117E-01  0.14219727929E-01  0.24192683157E-01  0.00000000000E+00 0. -1.
     999901    1    3    3    0    0 -0.96948466248E-01  0.45767742623E-01 -0.47000369001E-01  0.88775150017E+00  0.88000000000E+00 0. -1.
        -11    1    4    4    0    0  0.10242573570E+00 -0.59461197676E-01  0.27461558196E-01  0.12157739783E+00  0.51100000000E-03 0. -1.
         11    1    4    4    0    0  0.89214031370E-02  0.43587293644E-03  0.53190828767E-02  0.10408418842E-01  0.51100000000E-03 0.  1.
</event>
<event>
 8    1  0.1143837E+005  0.1043930E+01  0.7957747E-01            NaN
         13   -1    0    0    0    0  0.00000000000E+00  0.00000000000E+00  0.74505805969E-08  0.10566000000E+00  0.10566000000E+00 0. -1.
     999900   -1    0    0    0    0 -0.00000000000E+00 -0.00000000000E+00 -0.74505805969E-08  0.93827000000E+00  0.93827000000E+00 0. -1.
     999902    2    1    2    0    0 -0.17089533767E-01  0.15395078005E-01  0.49741791714E-02  0.10203969796E+01  0.10201255770E+01 0.  0.
     999903    2    3    3    0    0  0.12027118009E+00 -0.16758259951E-01  0.38459308356E-01  0.12853204771E+00  0.17186414764E-01 0.  0.
         14    1    1    2    0    0  0.17089533767E-01 -0.15395078005E-01 -0.49741791714E-02  0.23533020409E-01  0.00000000000E+00 0. -1.
     999901    1    3    3    0    0 -0.13736071385E+00  0.32153337955E-01 -0.33485129185E-01  0.89186493189E+00  0.88000000000E+00 0. -1.
        -11    1    4    4    0    0  0.39294742072E-01 -0.45094734719E-02  0.21029897207E-01  0.44798770106E-01  0.51100000000E-03 0.  1.
         11    1    4    4    0    0  0.80976438013E-01 -0.12248786479E-01  0.17429411150E-01  0.83733277599E-01  0.51100000000E-03 0. -1.
</event>
<event>
 8    1  0.1109553E+005  0.1043930E+01  0.7957747E-01            NaN
         13   -1    0    0    0    0  0.00000000000E+00  0.00000000000E+00  0.74505805969E-08  0.10566000000E+00  0.10566000000E+00 0. -1.
     999900   -1    0    0    0    0 -0.00000000000E+00 -0.00000000000E+00 -0.74505805969E-08  0.93827000000E+00  0.93827000000E+00 0.  1.
     999902    2    1    2    0    0  0.19946155230E-01  0.94474631705E-02 -0.89578862973E-02  0.10201109447E+01  0.10198328256E+01 0.  0.
     999903    2    3    3    0    0  0.83685239517E-01 -0.48625230162E-01  0.85820029089E-01  0.13083148253E+00  0.19600181302E-01 0.  0.
         14    1    1    2    0    0 -0.19946155230E-01 -0.94474631705E-02  0.89578862973E-02  0.23819055308E-01  0.00000000000E+00 0.  1.
     999901    1    3    3    0    0 -0.63739084287E-01  0.58072693333E-01 -0.94777915386E-01  0.88927946216E+00  0.88000000000E+00 0.  1.
        -11    1    4    4    0    0  0.34558426663E-01 -0.28742433108E-01  0.31164037061E-01  0.54697994857E-01  0.51100000000E-03 0.  1.
         11    1    4    4    0    0  0.49126812854E-01 -0.19882797054E-01  0.54655992028E-01  0.76133487674E-01  0.51100000000E-03 0. -1.
</event>
<event>
 8    1  0.1109553E+005  0.1043930E+01  0.7957747E-01            NaN
         13   -1    0    0    0    0  0.00000000000E+00  0.00000000000E+00  0.74505805969E-08  0.10566000000E+00  0.10566000000E+00 0. -1.
     999900   -1    0    0    0    0 -0.00000000000E+00 -0.00000000000E+00 -0.74505805969E-08  0.93827000000E+00  0.93827000000E+00 0. -1.
     999902    2    1    2    0    0 -0.66624929129E-02  0.16682473662E-01 -0.15995502532E-01  0.10198769370E+01  0.10195932604E+01 0.  0.
     999903    2    3    3    0    0  0.81112976155E-01  0.64537953681E-01 -0.79186007293E-01  0.13196493693E+00  0.19996461256E-01 0.  0.
         14    1    1    2    0    0  0.66624929129E-02 -0.16682473662E-01  0.15995502532E-01  0.24053063018E-01  0.00000000000E+00 0. -1.
     999901    1    3    3    0    0 -0.87775469068E-01 -0.47855480019E-01  0.63190504761E-01  0.88791200005E+00  0.88000000000E+00 0.  1.
        -11    1    4    4    0    0  0.10827544173E-01  0.16179413282E-01 -0.21321121092E-01  0.28876641989E-01  0.51100000000E-03 0.  1.
         11    1    4    4    0    0  0.70285431981E-01  0.48358540400E-01 -0.57864886201E-01  0.10308829494E+00  0.51100000000E-03 0. -1.
</event>
<event>
 8    1  0.1109553E+005  0.1043930E+01  0.7957747E-01            NaN
         13   -1    0    0    0    0  0.00000000000E+00  0.00000000000E+00  0.74505805969E-08  0.10566000000E+00  0.10566000000E+00 0. -1.
     999900   -1    0    0    0    0 -0.00000000000E+00 -0.00000000000E+00 -0.74505805969E-08  0.93827000000E+00  0.93827000000E+00 0. -1.
     999902    2    1    2    0    0 -0.29223871792E-02  0.23605295637E-01 -0.66363630716E-02  0.10192360403E+01  0.10189368549E+01 0.  0.
     999903    2    3    3    0    0  0.11331995296E+00  0.15843952094E-01  0.56667249161E-01  0.12930353311E+00  0.20390781993E-01 0.  0.
         14    1    1    2    0    0  0.29223871792E-02 -0.23605295637E-01  0.66363630716E-02  0.24693959661E-01  0.00000000000E+00 0. -1.
     999901    1    3    3    0    0 -0.11624234014E+00  0.77613435430E-02 -0.63303612233E-01  0.88993250723E+00  0.88000000000E+00 0. -1.
        -11    1    4    4    0    0  0.85784034280E-01  0.61067873436E-02  0.49481712769E-01  0.99221441275E-01  0.51100000000E-03 0.  1.
         11    1    4    4    0    0  0.27535918684E-01  0.97371647503E-02  0.71855363926E-02  0.30082091838E-01  0.51100000000E-03 0. -1.
</event>
<event>
 8    1  0.1109553E+005  0.1043930E+01  0.7957747E-01            NaN
         13   -1    0    0    0    0  0.00000000000E+00  0.00000000000E+00  0.74505805969E-08  0.10566000000E+00  0.10566000000E+00 0.  1.
     999900   -1    0    0    0    0 -0.00000000000E+00 -0.00000000000E+00 -0.74505805969E-08  0.93827000000E+00  0.93827000000E+00 0.  1.
     999902    2    1    2    0    0 -0.12761818824E-01 -0.55802574282E-02  0.18930465583E-01  0.10204275359E+01  0.10201568459E+01 0.  0.
     999903    2    3    3    0    0 -0.68174551438E-01  0.81999750957E-01  0.76142096646E-01  0.13250073735E+00  0.19674803613E-01 0.  0.
         14    1    1    2    0    0  0.12761818824E-01  0.55802574282E-02 -0.18930465583E-01  0.23502464123E-01  0.00000000000E+00 0. -1.
     999901    1    3    3    0    0  0.55412732614E-01 -0.87580008385E-01 -0.57211631063E-01  0.88792679852E+00  0.88000000000E+00 0.  1.
        -11    1    4    4    0    0 -0.20179434074E-01  0.38887017434E-01  0.27926235841E-01  0.51957150169E-01  0.51100000000E-03 0. -1.
         11    1    4    4    0    0 -0.47995117364E-01  0.43112733523E-01  0.48215860805E-01  0.80543587186E-01  0.51100000000E-03 0.  1.
</event>
<event>
 8    1  0.1109553E+005  0.1043930E+01  0.7957747E-01            NaN
         13   -1    0    0    0    0  0.00000000000E+00  0.00000000000E+00  0.74505805969E-08  0.10566000000E+00  0.10566000000E+00 0.  1.
     999900   -1    0    0    0    0 -0.00000000000E+00 -0.00000000000E+00 -0.74505805969E-08  0.93827000000E+00  0.93827000000E+00 0. -1.
     999902    2    1    2    0    0 -0.20877282428E-01 -0.86024576133E-02 -0.72807322197E-02  0.10202050709E+01  0.10199291713E+01 0.  0.
     999903    2    3    3    0    0  0.17680685512E-01 -0.12745515589E+00  0.80283614682E-02  0.13124666405E+00  0.24572521944E-01 0.  0.
         14    1    1    2    0    0  0.20877282428E-01  0.86024576133E-02  0.72807322197E-02  0.23724929088E-01  0.00000000000E+00 0. -1.
     999901    1    3    3    0    0 -0.38557967940E-01  0.11885269827E+00 -0.15309093688E-01  0.88895840686E+00  0.88000000000E+00 0. -1.
        -11    1    4    4    0    0  0.65792959146E-03 -0.83948874154E-01  0.95955663156E-02  0.84499599745E-01  0.51100000000E-03 0.  1.
         11    1    4    4    0    0  0.17022755921E-01 -0.43506281732E-01 -0.15672048474E-02  0.46747064307E-01  0.51100000000E-03 0. -1.
</event>
<event>
 8    1  0.1109553E+005  0.1043930E+01  0.7957747E-01            NaN
         13   -1    0    0    0    0  0.00000000000E+00  0.00000000000E+00  0.74505805969E-08  0.10566000000E+00  0.10566000000E+00 0. -1.
     999900   -1    0    0    0    0 -0.00000000000E+00 -0.00000000000E+00 -0.74505805969E-08  0.93827000000E+00  0.93827000000E+00 0.  1.
     999902    2    1    2    0    0  0.13920470725E-01  0.17190201935E-01  0.74995131779E-02  0.10205735181E+01  0.10203062191E+01 0.  0.
     999903    2    3    3    0    0  0.85004213359E-01 -0.96239799336E-01  0.11548235683E-01  0.13044113706E+00  0.19842208197E-01 0.  0.
         14    1    1    2    0    0 -0.13920470725E-01 -0.17190201935E-01 -0.74995131779E-02  0.23356481877E-01  0.00000000000E+00 0.  1.
     999901    1    3    3    0    0 -0.71083742634E-01  0.11343000127E+00 -0.40487225051E-02  0.89013238106E+00  0.88000000000E+00 0. -1.
        -11    1    4    4    0    0  0.77815211465E-01 -0.81757873879E-01  0.49748983141E-02  0.11298038684E+00  0.51100000000E-03 0.  1.
         11    1    4    4    0    0  0.71890018942E-02 -0.14481925457E-01  0.65733373690E-02  0.17460750223E-01  0.51100000000E-03 0. -1.
</event>
<event>
 8    1  0.1109553E+005  0.1043930E+01  0.7957747E-01            NaN
         13   -1    0    0    0    0  0.00000000000E+00  0.00000000000E+00  0.74505805969E-08  0.10566000000E+00  0.10566000000E+00 0.  1.
     999900   -1    0    0    0    0 -0.00000000000E+00 -0.00000000000E+00 -0.74505805969E-08  0.93827000000E+00  0.93827000000E+00 0.  1.
     999902    2    1    2    0    0  0.86298693878E-03  0.23618463306E-01  0.35410521645E-02  0.10200319749E+01  0.10197519866E+01 0.  0.
     999903    2    3    3    0    0 -0.72581616949E-02 -0.11275001507E+00  0.56416715124E-01  0.12792315263E+00  0.20401971095E-01 0.  0.
         14    1    1    2    0    0 -0.86298693878E-03 -0.23618463306E-01 -0.35410521645E-02  0.23898025145E-01  0.00000000000E+00 0.  1.
     999901    1    3    3    0    0  0.81211486337E-02  0.13636847838E+00 -0.52875662960E-01  0.89210882222E+00  0.88000000000E+00 0.  1.
        -11    1    4    4    0    0 -0.37330782554E-02 -0.10205112767E-01  0.11759458143E-01  0.16019556069E-01  0.51100000000E-03 0.  1.
         11    1    4    4    0    0 -0.35250834394E-02 -0.10254490231E+00  0.44657256981E-01  0.11190359657E+00  0.51100000000E-03 0. -1.
</event>
<event>
 8    1  0.1109553E+005  0.1043930E+01  0.7957747E-01            NaN
         13   -1    0    0    0    0  0.00000000000E+00  0.00000000000E+00  0.74505805969E-08  0.10566000000E+00  0.10566000000E+00 0.  1.
     999900   -1    0    0    0    0 -0.00000000000E+00 -0.00000000000E+00 -0.74505805969E-08  0.93827000000E+00  0.93827000000E+00 0.  1.
     999902    2    1    2    0    0  0.23325875491E-01  0.54078334564E-02 -0.10963753851E-02  0.10199603699E+01  0.10196786812E+01 0.  0.
     999903    2    3    3    0    0 -0.25456985790E-01  0.10696866777E+00  0.66650061578E-01  0.13019413632E+00  0.20443297563E-01 0.  0.
         14    1    1    2    0    0 -0.23325875491E-01 -0.54078334564E-02  0.10963753851E-02  0.23969630141E-01  0.00000000000E+00 0.  1.
     999901    1    3    3    0    0  0.48782861281E-01 -0.10156083431E+00 -0.67746436963E-01  0.88976623354E+00  0.88000000000E+00 0.  1.
        -11    1    4    4    0    0 -0.11150403302E-01  0.70807065383E-01  0.33643851694E-01  0.79184227469E-01  0.51100000000E-03 0. -1.
         11    1    4    4    0    0 -0.14306582488E-01  0.36161602383E-01  0.33006209884E-01  0.51009908854E-01  0.51100000000E-03 0.  1.
</event>
<event>
 8    1  0.1109553E+005  0.1043930E+01  0.7957747E-01            NaN
         13   -1    0    0    0    0  0.00000000000E+00  0.00000000000E+00  0.74505805969E-08  0.10566000000E+00  0.10566000000E+00 0. -1.
     999900   -1    0    0    0    0 -0.00000000000E+00 -0.00000000000E+00 -0.74505805969E-08  0.93827000000E+00  0.93827000000E+00 0.  1.
     999902    2    1    2    0    0 -0.17767203761E-01  0.11837073366E-02  0.15263846508E-01  0.10204766484E+01  0.10202071016E+01 0.  0.
     999903    2    3    3    0    0  0.69533641350E-01 -0.10701419257E+00 -0.74378483101E-02  0.12927319794E+00  0.19216488431E-01 0.  0.
         14    1    1    2    0    0  0.17767203761E-01 -0.11837073366E-02 -0.15263846508E-01  0.23453351631E-01  0.00000000000E+00 0. -1.
     999901    1    3    3    0    0 -0.87300845111E-01  0.10819789991E+00  0.22701694818E-01  0.89120345043E+00  0.88000000000E+00 0. -1.
        -11    1    4    4    0    0  0.39866665630E-01 -0.43816145534E-01 -0.37257540945E-02  0.59357796476E-01  0.51100000000E-03 0.  1.
         11    1    4    4    0    0  0.29666975720E-01 -0.63198047039E-01 -0.37120942156E-02  0.69915401468E-01  0.51100000000E-03 0. -1.
</event>
<event>
 8    1  0.1109553E+005  0.1043930E+01  0.7957747E-01            NaN
         13   -1    0    0    0    0  0.00000000000E+00  0.00000000000E+00  0.74505805969E-08  0.10566000000E+00  0.10566000000E+00 0. -1.
     999900   -1    0    0    0    0 -0.00000000000E+00 -0.00000000000E+00 -0.74505805969E-08  0.93827000000E+00  0.93827000000E+00 0. -1.
     999902    2    1    2    0    0 -0.20117362949E-01 -0.15193701936E-01  0.90113235219E-02  0.10171576108E+01  0.10168052146E+01 0.  0.
     999903    2    3    3    0    0  0.83349358259E-01 -0.60138757205E-01 -0.70773587634E-01  0.12637646349E+00  0.19958060490E-01 0.  0.
         14    1    1    2    0    0  0.20117362949E-01  0.15193701936E-01 -0.90113235219E-02  0.26772389175E-01  0.00000000000E+00 0. -1.
     999901    1    3    3    0    0 -0.10346672121E+00  0.44945055269E-01  0.79784911156E-01  0.89078114733E+00  0.88000000000E+00 0.  1.
        -11    1    4    4    0    0  0.54979580118E-01 -0.28746999112E-01 -0.47042155016E-01  0.77861220498E-01  0.51100000000E-03 0. -1.
         11    1    4    4    0    0  0.28369778141E-01 -0.31391758093E-01 -0.23731432619E-01  0.48515242997E-01  0.51100000000E-03 0.  1.
</event>
<event>
 8    1  0.1109553E+005  0.1043930E+01  0.7957747E-01            NaN
         13   -1    0    0    0    0  0.00000000000E+00  0.00000000000E+00  0.74505805969E-08  0.10566000000E+00  0.10566000000E+00 0. -1.
     999900   -1    0    0    0    0 -0.00000000000E+00 -0.00000000000E+00 -0.74505805969E-08  0.93827000000E+00  0.93827000000E+00 0. -1.
     999902    2    1    2    0    0  0.22235311673E-03  0.97293869374E-02 -0.20979748348E-01  0.10208029541E+01  0.10205409403E+01 0.  0.
     999903    2    3    3    0    0  0.59273402901E-01 -0.10569841913E+00 -0.45503962055E-01  0.13096474299E+00  0.19891235455E-01 0.  0.
         14    1    1    2    0    0 -0.22235311673E-03 -0.97293869374E-02  0.20979748348E-01  0.23127045895E-01  0.00000000000E+00 0. -1.
     999901    1    3    3    0    0 -0.59051049784E-01  0.11542780606E+00  0.24524213707E-01  0.88983821111E+00  0.88000000000E+00 0. -1.
        -11    1    4    4    0    0  0.20930248982E-01 -0.52078622784E-01 -0.28176681991E-01  0.62804815123E-01  0.51100000000E-03 0. -1.
         11    1    4    4    0    0  0.38343153919E-01 -0.53619796341E-01 -0.17327280064E-01  0.68159927872E-01  0.51100000000E-03 0.  1.
</event>
<event>
 8    1  0.1109553E+005  0.1043930E+01  0.7957747E-01            NaN
         13   -1    0    0    0    0  0.00000000000E+00  0.00000000000E+00  0.74505805969E-08  0.10566000000E+00  0.10566000000E+00 0.  1.
     999900   -1    0    0    0    0 -0.00000000000E+00 -0.00000000000E+00 -0.74505805969E-08  0.93827000000E+00  0.93827000000E+00 0. -1.
     999902    2    1    2    0    0  0.17933141761E-01 -0.89690397256E-02 -0.12394005364E-01  0.10203577151E+01  0.10200853955E+01 0.  0.
     999903    2    3    3    0    0 -0.99889030207E-01 -0.13881985116E-01  0.76347353210E-01  0.12806783508E+00  0.20048046641E-01 0.  0.
         14    1    1    2    0    0 -0.17933141761E-01  0.89690397256E-02  0.12394005364E-01  0.23572284912E-01  0.00000000000E+00 0.  1.
     999901    1    3    3    0    0  0.11782217197E+00  0.49129453908E-02 -0.88741358573E-01  0.89228988001E+00  0.88000000000E+00 0. -1.
        -11    1    4    4    0    0 -0.11489699560E-01  0.20654898177E-03  0.19409731821E-02  0.11665519978E-01  0.51100000000E-03 0. -1.
         11    1    4    4    0    0 -0.88399330646E-01 -0.14088534098E-01  0.74406380028E-01  0.11640231510E+00  0.51100000000E-03 0.  1.
</event>
<event>
 8    1  0.1109553E+005  0.1043930E+01  0.7957747E-01            NaN
         13   -1    0    0    0    0  0.00000000000E+00  0.00000000000E+00  0.74505805969E-08  0.10566000000E+00  0.10566000000E+00 0. -1.
     999900   -1    0    0    0    0 -0.00000000000E+00 -0.00000000000E+00 -0.74505805969E-08  0.93827000000E+00  0.93827000000E+00 0. -1.
     999902    2    1    2    0    0 -0.10773198092E-01 -0.23402542108E-02  0.22116138592E-01  0.10192184203E+01  0.10189188025E+01 0.  0.
     999903    2    3    3    0    0 -0.11759301546E+00 -0.11233094170E-01 -0.50093839948E-01  0.12977823847E+00  0.19460182181E-01 0.  0.
         14    1    1    2    0    0  0.10773198092E-01  0.23402542108E-02 -0.22116138592E-01  0.24711579737E-01  0.00000000000E+00 0.  1.
     999901    1    3    3    0    0  0.10681981737E+00  0.88928399588E-02  0.72209978540E-01  0.88944018179E+00  0.88000000000E+00 0.  1.
        -11    1    4    4    0    0 -0.23735449344E-01 -0.89813625094E-02 -0.61518328274E-02  0.26117859718E-01  0.51100000000E-03 0. -1.
         11    1    4    4    0    0 -0.93857566115E-01 -0.22517316602E-02 -0.43942007121E-01  0.10366037875E+00  0.51100000000E-03 0.  1.
</event>
<event>
 8    1  0.1109553E+005  0.1043930E+01  0.7957747E-01            NaN
         13   -1    0    0    0    0  0.00000000000E+00  0.00000000000E+00  0.74505805969E-08  0.10566000000E+00  0.10566000000E+00 0. -1.
     999900   -1    0    0    0    0 -0.00000000000E+00 -0.00000000000E+00 -0.74505805969E-08  0.93827000000E+00  0.93827000000E+00 0. -1.
     999902    2    1    2    0    0 -0.24814318139E-02  0.19613858299E-01 -0.12600200415E-01  0.10204858964E+01  0.10202165647E+01 0.  0.
     999903    2    3    3    0    0 -0.21331616626E-01  0.18089375078E-01 -0.12824165894E+00  0.13271869697E+00  0.19648564345E-01 0.  0.
         14    1    1    2    0    0  0.24814318139E-02 -0.19613858299E-01  0.12600200415E-01  0.23444103560E-01  0.00000000000E+00 0. -1.
     999901    1    3    3    0    0  0.18850184812E-01  0.15244832208E-02  0.11564145852E+00  0.88776719946E+00  0.88000000000E+00 0.  1.
        -11    1    4    4    0    0 -0.22727032453E-01  0.89142554781E-02 -0.10191748460E+00  0.10480179742E+00  0.51100000000E-03 0.  1.
         11    1    4    4    0    0  0.13954158269E-02  0.91751196003E-02 -0.26324174342E-01  0.27916899556E-01  0.51100000000E-03 0. -1.
</event>
<event>
 8    1  0.1109553E+005  0.1043930E+01  0.7957747E-01            NaN
         13   -1    0    0    0    0  0.00000000000E+00  0.00000000000E+00  0.74505805969E-08  0.10566000000E+00  0.10566000000E+00 0.  1.
     999900   -1    0    0    0    0 -0.00000000000E+00 -0.00000000000E+00 -0.74505805969E-08  0.93827000000E+00  0.93827000000E+00 0.  1.
     999902    2    1    2    0    0 -0.13289030092E-01  0.11460536063E-01  0.15036660873E-01  0.10208206214E+01  0.10205590124E+01 0.  0.
     999903    2    3    3    0    0 -0.35769712325E-01 -0.70649603187E-01  0.10392987276E+00  0.13225466487E+00  0.20470446412E-01 0.  0.
         14    1    1    2    0    0  0.13289030092E-01 -0.11460536063E-01 -0.15036660873E-01  0.23109378569E-01  0.00000000000E+00 0.  1.
     999901    1    3    3    0    0  0.22480682233E-01  0.82110139250E-01 -0.88893211891E-01  0.88856595656E+00  0.88000000000E+00 0.  1.
        -11    1    4    4    0    0 -0.19608555994E-01 -0.57232430252E-01  0.81756704052E-01  0.10170774955E+00  0.51100000000E-03 0. -1.
         11    1    4    4    0    0 -0.16161156331E-01 -0.13417172935E-01  0.22173168712E-01  0.30546915315E-01  0.51100000000E-03 0.  1.
</event>
<event>
 8    1  0.1109553E+005  0.1043930E+01  0.7957747E-01            NaN
         13   -1    0    0    0    0  0.00000000000E+00  0.00000000000E+00  0.74505805969E-08  0.10566000000E+00  0.10566000000E+00 0.  1.
     999900   -1    0    0    0    0 -0.00000000000E+00 -0.00000000000E+00 -0.74505805969E-08  0.93827000000E+00  0.93827000000E+00 0. -1.
     999902    2    1    2    0    0  0.21607209649E-02  0.10862254852E-01  0.20756173998E-01  0.10204039282E+01  0.10201326878E+01 0.  0.
     999903    2    3    3    0    0  0.10949544218E+00  0.59078977940E-01  0.41152021574E-01  0.13233772269E+00  0.18444686902E-01 0.  0.
         14    1    1    2    0    0 -0.21607209649E-02 -0.10862254852E-01 -0.20756173998E-01  0.23526071805E-01  0.00000000000E+00 0. -1.
     999901    1    3    3    0    0 -0.10733472121E+00 -0.48216723089E-01 -0.20395847576E-01  0.88806620551E+00  0.88000000000E+00 0. -1.
        -11    1    4    4    0    0  0.82871808967E-01  0.43148455970E-01  0.38958828188E-01  0.10123031853E+00  0.51100000000E-03 0.  1.
         11    1    4    4    0    0  0.26623633210E-01  0.15930521971E-01  0.21931933857E-02  0.31107404164E-01  0.51100000000E-03 0. -1.
</event>
<event>
 8    1  0.1109553E+005  0.1043930E+01  0.7957747E-01            NaN
         13   -1    0    0    0    0  0.00000000000E+00  0.00000000000E+00  0.74505805969E-08  0.10566000000E+00  0.10566000000E+00 0. -1.
     999900   -1    0    0    0    0 -0.00000000000E+00 -0.00000000000E+00 -0.74505805969E-08  0.93827000000E+00  0.93827000000E+00 0. -1.
     999902    2    1    2    0    0 -0.18028050878E-01 -0.15538917759E-01  0.87693706331E-03  0.10201132495E+01  0.10198351849E+01 0.  0.
     999903    2    3    3    0    0  0.58195801136E-01 -0.59067935905E-01 -0.98345714618E-01  0.13019753126E+00  0.20093412897E-01 0.  0.
         14    1    1    2    0    0  0.18028050878E-01  0.15538917759E-01 -0.87693706331E-03  0.23816750454E-01  0.00000000000E+00 0.  1.
     999901    1    3    3    0    0 -0.76223852015E-01  0.43529018146E-01  0.99222651681E-01  0.88991571828E+00  0.88000000000E+00 0. -1.
        -11    1    4    4    0    0  0.13297675835E-01 -0.92588969691E-02 -0.31956881080E-01  0.35833765154E-01  0.51100000000E-03 0. -1.
         11    1    4    4    0    0  0.44898125301E-01 -0.49809038936E-01 -0.66388833538E-01  0.94363766111E-01  0.51100000000E-03 0.  1.
</event>
<event>
 7    1  0.1109553E+005  0.1043930E+01  0.7957747E-01            NaN
         13   -1    0    0    0    0  0.00000000000E+00  0.00000000000E+00  0.74505805969E-08  0.10566000000E+00  0.10566000000E+00 0. -1.
     999900   -1    0    0    0    0 -0.00000000000E+00 -0.00000000000E+00 -0.74505805969E-08  0.93827000000E+00  0.93827000000E+00 0.  1.
     999903    2    1    2    0    0 -0.10243805549E-01 -0.14237947703E+00  0.24535147859E-01  0.14563585589E+00  0.15197960637E-01 0.  0.
         14    1    1    2    0    0  0.44240328433E-02 -0.45518111666E-03 -0.47951689184E-02  0.65400994949E-02  0.00000000000E+00 0.  1.
     999901    1    1    2    0    0  0.58197727055E-02  0.14283465815E+00 -0.19739978941E-01  0.89175404462E+00  0.88000000000E+00 0.  1.
        -11    1    3    3    0    0 -0.42157391588E-03 -0.23397097231E-01  0.96717380375E-02  0.25325985096E-01  0.51100000000E-03 0.  1.
         11    1    3    3    0    0 -0.98222316329E-02 -0.11898237980E+00  0.14863409822E-01  0.12030987079E+00  0.51100000000E-03 0. -1.
</event>
<event>
 8    1  0.1109553E+005  0.1043930E+01  0.7957747E-01            NaN
         13   -1    0    0    0    0  0.00000000000E+00  0.00000000000E+00  0.74505805969E-08  0.10566000000E+00  0.10566000000E+00 0.  1.
     999900   -1    0    0    0    0 -0.00000000000E+00 -0.00000000000E+00 -0.74505805969E-08  0.93827000000E+00  0.93827000000E+00 0.  1.
     999902    2    1    2    0    0  0.11115214666E-01  0.35910197788E-02 -0.20954289767E-01  0.10199398837E+01  0.10196577076E+01 0.  0.
     999903    2    3    3    0    0  0.94096918003E-01  0.49264104017E-01  0.72458719598E-01  0.12994101627E+00  0.18794141176E-01 0.  0.
         14    1    1    2    0    0 -0.11115214666E-01 -0.35910197788E-02  0.20954289767E-01  0.23990116293E-01  0.00000000000E+00 0.  1.
     999901    1    3    3    0    0 -0.82981703336E-01 -0.45673084238E-01 -0.93413009364E-01  0.88999886743E+00  0.88000000000E+00 0. -1.
        -11    1    4    4    0    0  0.36919077985E-01  0.93237277282E-02  0.27135453185E-01  0.46760497843E-01  0.51100000000E-03 0.  1.
         11    1    4    4    0    0  0.57177840018E-01  0.39940376288E-01  0.45323266413E-01  0.83180518431E-01  0.51100000000E-03 0. -1.
</event>
<event>
 7    1  0.1109553E+005  0.1043930E+01  0.7957747E-01            NaN
         13   -1    0    0    0    0  0.00000000000E+00  0.00000000000E+00  0.74505805969E-08  0.10566000000E+00  0.10566000000E+00 0.  1.
     999900   -1    0    0    0    0 -0.00000000000E+00 -0.00000000000E+00 -0.74505805969E-08  0.93827000000E+00  0.93827000000E+00 0. -1.
     999903    2    1    2    0    0 -0.82135375395E-01 -0.45680081822E-01 -0.25200167953E-01  0.99387556040E-01  0.20247174230E-01 0.  0.
         14    1    1    2    0    0  0.53173488595E-01 -0.23733899304E-01 -0.15953526133E-01  0.60375763860E-01  0.00000000000E+00 0.  1.
     999901    1    1    2    0    0  0.28961886800E-01  0.69413981126E-01  0.41153694086E-01  0.88416668010E+00  0.88000000000E+00 0. -1.
        -11    1    3    3    0    0 -0.44118753708E-01 -0.15103807919E-01 -0.62732364527E-02  0.47055329762E-01  0.51100000000E-03 0. -1.
         11    1    3    3    0    0 -0.38016621686E-01 -0.30576273902E-01 -0.18926931500E-01  0.52332226278E-01  0.51100000000E-03 0.  1.
</event>
<event>
 8    1  0.1109553E+005  0.1043930E+01  0.7957747E-01            NaN
         13   -1    0    0    0    0  0.00000000000E+00  0.00000000000E+00  0.74505805969E-08  0.10566000000E+00  0.10566000000E+00 0.  1.
     999900   -1    0    0    0    0 -0.00000000000E+00 -0.00000000000E+00 -0.74505805969E-08  0.93827000000E+00  0.93827000000E+00 0.  1.
     999902    2    1    2    0    0  0.19069237943E-01  0.19882740188E-02 -0.13903081523E-01  0.10202469946E+01  0.10199720806E+01 0.  0.
     999903    2    3    3    0    0  0.55758143070E-01  0.43157792763E-02  0.11553282095E+00  0.13001941364E+00  0.20727246240E-01 0.  0.
         14    1    1    2    0    0 -0.19069237943E-01 -0.19882740188E-02  0.13903081523E-01  0.23683005407E-01  0.00000000000E+00 0.  1.
     999901    1    3    3    0    0 -0.36688905128E-01 -0.23275052574E-02 -0.12943590247E+00  0.89022758095E+00  0.88000000000E+00 0.  1.
        -11    1    4    4    0    0  0.40778670053E-01  0.11627471810E-01  0.90463635916E-01  0.99910102473E-01  0.51100000000E-03 0. -1.
         11    1    4    4    0    0  0.14979473018E-01 -0.73116925334E-02  0.25069185036E-01  0.30109311167E-01  0.51100000000E-03 0.  1.
</event>
<event>
 8    1  0.1109553E+005  0.1043930E+01  0.7957747E-01            NaN
         13   -1    0    0    0    0  0.00000000000E+00  0.00000000000E+00  0.74505805969E-08  0.10566000000E+00  0.10566000000E+00 0. -1.
     999900   -1    0    0    0    0 -0.00000000000E+00 -0.00000000000E+00 -0.74505805969E-08  0.93827000000E+00  0.93827000000E+00 0.  1.
     999902    2    1    2    0    0 -0.19054029368E-01 -0.12496156054E-01 -0.36521940143E-02  0.10208529882E+01  0.10205921198E+01 0.  0.
     999903    2    3    3    0    0 -0.13184302697E+00 -0.53588654880E-02 -0.10066461871E-01  0.13360249275E+00  0.18357320433E-01 0.  0.
         14    1    1    2    0    0  0.19054029368E-01  0.12496156054E-01  0.36521940143E-02  0.23077011774E-01  0.00000000000E+00 0.  1.
     999901    1    3    3    0    0  0.11278899760E+00 -0.71372905664E-02  0.64142678572E-02  0.88725049548E+00  0.88000000000E+00 0.  1.
        -11    1    4    4    0    0 -0.88843543799E-01  0.34233629997E-02 -0.11726838119E-01  0.89680959753E-01  0.51100000000E-03 0. -1.
         11    1    4    4    0    0 -0.42999483172E-01 -0.87822284877E-02  0.16603762474E-02  0.43921532994E-01  0.51100000000E-03 0.  1.
</event>
<event>
 8    1  0.1109553E+005  0.1043930E+01  0.7957747E-01            NaN
         13   -1    0    0    0    0  0.00000000000E+00  0.00000000000E+00  0.74505805969E-08  0.10566000000E+00  0.10566000000E+00 0.  1.
     999900   -1    0    0    0    0 -0.00000000000E+00 -0.00000000000E+00 -0.74505805969E-08  0.93827000000E+00  0.93827000000E+00 0. -1.
     999902    2    1    2    0    0  0.20732924102E-01 -0.15614570533E-02  0.12480247516E-01  0.10196802811E+01  0.10193918907E+01 0.  0.
     999903    2    3    3    0    0  0.47605453661E-02  0.12284373034E+00 -0.35611698297E-01  0.12948670505E+00  0.19630813895E-01 0.  0.
         14    1    1    2    0    0 -0.20732924102E-01  0.15614570533E-02 -0.12480247516E-01  0.24249718927E-01  0.00000000000E+00 0. -1.
     999901    1    3    3    0    0  0.15972378736E-01 -0.12440518739E+00  0.48091945813E-01  0.89019357602E+00  0.88000000000E+00 0.  1.
        -11    1    4    4    0    0 -0.70216174257E-02  0.47187710542E-01 -0.17374334700E-01  0.50775109697E-01  0.51100000000E-03 0. -1.
         11    1    4    4    0    0  0.11782162792E-01  0.75656019798E-01 -0.18237363597E-01  0.78711595358E-01  0.51100000000E-03 0.  1.
</event>
<event>
 8    1  0.1109553E+005  0.1043930E+01  0.7957747E-01            NaN
         13   -1    0    0    0    0  0.00000000000E+00  0.00000000000E+00  0.74505805969E-08  0.10566000000E+00  0.10566000000E+00 0.  1.
     999900   -1    0    0    0    0 -0.00000000000E+00 -0.00000000000E+00 -0.74505805969E-08  0.93827000000E+00  0.93827000000E+00 0. -1.
     999902    2    1    2    0    0  0.87483610276E-02  0.55294919597E-02 -0.21241545820E-01  0.10203013654E+01  0.10200277271E+01 0.  0.
     999903    2    3    3    0    0 -0.28046239170E-01 -0.19308663293E-01 -0.12701362035E+00  0.13285643290E+00  0.18946134136E-01 0.  0.
         14    1    1    2    0    0 -0.87483610276E-02 -0.55294919597E-02  0.21241545820E-01  0.23628634552E-01  0.00000000000E+00 0.  1.
     999901    1    3    3    0    0  0.36794600198E-01  0.24838155253E-01  0.10577207453E+00  0.88744493255E+00  0.88000000000E+00 0.  1.
        -11    1    4    4    0    0 -0.11400058810E-01 -0.11016683548E-01 -0.90467824011E-01  0.91847792350E-01  0.51100000000E-03 0. -1.
         11    1    4    4    0    0 -0.16646180361E-01 -0.82919797456E-02 -0.36545796336E-01  0.41008640547E-01  0.51100000000E-03 0.  1.
</event>
<event>
 8    1  0.1109553E+005  0.1043930E+01  0.7957747E-01            NaN
         13   -1    0    0    0    0  0.00000000000E+00  0.00000000000E+00  0.74505805969E-08  0.10566000000E+00  0.10566000000E+00 0.  1.
     999900   -1    0    0    0    0 -0.00000000000E+00 -0.00000000000E+00 -0.74505805969E-08  0.93827000000E+00  0.93827000000E+00 0.  1.
     999902    2    1    2    0    0  0.76467770267E-02  0.17600802812E-02  0.22537347110E-01  0.10200657360E+01  0.10197865476E+01 0.  0.
     999903    2    3    3    0    0 -0.12102558450E-02  0.72102149737E-01  0.10976324943E+00  0.13291591111E+00  0.20456876207E-01 0.  0.
         14    1    1    2    0    0 -0.76467770267E-02 -0.17600802812E-02 -0.22537347110E-01  0.23864264000E-01  0.00000000000E+00 0. -1.
     999901    1    3    3    0    0  0.88570328717E-02 -0.70342069456E-01 -0.87225902324E-01  0.88714982489E+00  0.88000000000E+00 0.  1.
        -11    1    4    4    0    0 -0.95253946151E-02  0.53506534703E-01  0.75030782999E-01  0.92647514359E-01  0.51100000000E-03 0.  1.
         11    1    4    4    0    0  0.83151387702E-02  0.18595615033E-01  0.34732466435E-01  0.40268396751E-01  0.51100000000E-03 0. -1.
</event>
<event>
 8    1  0.1109553E+005  0.1043930E+01  0.7957747E-01            NaN
         13   -1    0    0    0    0  0.00000000000E+00  0.00000000000E+00  0.74505805969E-08  0.10566000000E+00  0.10566000000E+00 0.  1.
     999900   -1    0    0    0    0 -0.00000000000E+00 -0.00000000000E+00 -0.74505805969E-08  0.93827000000E+00  0.93827000000E+00 0.  1.
     999902    2    1    2    0    0  0.18180882269E-01 -0.21035439657E-01 -0.25412778278E-01  0.10062624609E+01  0.10055572071E+01 0.  0.
     999903    2    3    3    0    0 -0.92587996710E-01  0.26384491343E-01  0.57969010697E-01  0.11414648350E+00  0.20008372654E-01 0.  0.
         14    1    1    2    0    0 -0.18180882269E-01  0.21035439657E-01  0.25412778278E-01  0.37667539095E-01  0.00000000000E+00 0.  1.
     999901    1    3    3    0    0  0.11076887898E+00 -0.47419930999E-01 -0.83381788976E-01  0.89211597740E+00  0.88000000000E+00 0.  1.
        -11    1    4    4    0    0 -0.26573028530E-01  0.17178785415E-01  0.17372966862E-01  0.36101490443E-01  0.51100000000E-03 0. -1.
         11    1    4    4    0    0 -0.66014968180E-01  0.92057059279E-02  0.40596043835E-01  0.78044993059E-01  0.51100000000E-03 0.  1.
</event>
<event>
 8    1  0.1109553E+005  0.1043930E+01  0.7957747E-01            NaN
         13   -1    0    0    0    0  0.00000000000E+00  0.00000000000E+00  0.74505805969E-08  0.10566000000E+00  0.10566000000E+00 0. -1.
     999900   -1    0    0    0    0 -0.00000000000E+00 -0.00000000000E+00 -0.74505805969E-08  0.93827000000E+00  0.93827000000E+00 0. -1.
     999902    2    1    2    0    0  0.11382738149E-01  0.19398064686E-01  0.98549564773E-02  0.10193745157E+01  0.10190787170E+01 0.  0.
     999903    2    3    3    0    0  0.44182243748E-01  0.75490470917E-01  0.97739748711E-01  0.13261304705E+00  0.19551979628E-01 0.  0.
         14    1    1    2    0    0 -0.11382738149E-01 -0.19398064686E-01 -0.98549564773E-02  0.24555484286E-01  0.00000000000E+00 0.  1.
     999901    1    3    3    0    0 -0.32799505600E-01 -0.56092406231E-01 -0.87884792234E-01  0.88676146867E+00  0.88000000000E+00 0. -1.
        -11    1    4    4    0    0  0.25259433917E-01  0.24671354377E-01  0.41389180987E-01  0.54406251042E-01  0.51100000000E-03 0.  1.
         11    1    4    4    0    0  0.18922809831E-01  0.50819116540E-01  0.56350567724E-01  0.78206796006E-01  0.51100000000E-03 0. -1.
</event>
<event>
 7    1  0.1109553E+005  0.1043930E+01  0.7957747E-01            NaN
         13   -1    0    0    0    0  0.00000000000E+00  0.00000000000E+00  0.74505805969E-08  0.10566000000E+00  0.10566000000E+00 0.  1.
     999900   -1    0    0    0    0 -0.00000000000E+00 -0.00000000000E+00 -0.74505805969E-08  0.93827000000E+00  0.93827000000E+00 0.  1.
     999902    2    1    2    0    0 -0.69876150470E-02 -0.12512635778E-01 -0.16037823633E-01  0.10224217550E+01  0.10221955001E+01 0.  0.
         14    1    1    2    0    0  0.69876150470E-02  0.12512635778E-01  0.16037823633E-01  0.21508245048E-01  0.00000000000E+00 0. -1.
     999901    1    3    3    0    0  0.28039700612E-03 -0.11626421045E-01  0.11409594721E+00  0.88744190653E+00  0.88000000000E+00 0. -1.
        -11    1    3    3    0    0 -0.14227660109E-01  0.88973299438E-02 -0.32221274654E-01  0.36332636205E-01  0.51100000000E-03 0.  1.
         11    1    3    3    0    0  0.69596480556E-02 -0.97835446766E-02 -0.97912496191E-01  0.98647212220E-01  0.51100000000E-03 0. -1.
</event>
<event>
 8    1  0.1109553E+005  0.1043930E+01  0.7957747E-01            NaN
         13   -1    0    0    0    0  0.00000000000E+00  0.00000000000E+00  0.74505805969E-08  0.10566000000E+00  0.10566000000E+00 0. -1.
     999900   -1    0    0    0    0 -0.00000000000E+00 -0.00000000000E+00 -0.74505805969E-08  0.93827000000E+00  0.93827000000E+00 0. -1.
     999902    2    1    2    0    0  0.56390275332E-02 -0.18054410250E-01  0.13904857536E-01  0.10204543653E+01  0.10201843001E+01 0.  0.
     999903    2    3    3    0    0 -0.38253792870E-01  0.13469823926E-01 -0.12054442444E+00  0.12860406036E+00  0.19059308784E-01 0.  0.
         14    1    1    2    0    0 -0.56390275332E-02  0.18054410250E-01 -0.13904857536E-01  0.23475634690E-01  0.00000000000E+00 0.  1.
     999901    1    3    3    0    0  0.43892820403E-01 -0.31524234176E-01  0.13444928197E+00  0.89185030495E+00  0.88000000000E+00 0.  1.
        -11    1    4    4    0    0 -0.31963848353E-01  0.73259921688E-02 -0.70051667804E-01  0.77348917548E-01  0.51100000000E-03 0. -1.
         11    1    4    4    0    0 -0.62899445171E-02  0.61438317568E-02 -0.50492756634E-01  0.51255142807E-01  0.51100000000E-03 0.  1.
</event>
<event>
 8    1  0.1109553E+005  0.1043930E+01  0.7957747E-01            NaN
         13   -1    0    0    0    0  0.00000000000E+00  0.00000000000E+00  0.74505805969E-08  0.10566000000E+00  0.10566000000E+00 0.  1.
     999900   -1    0    0    0    0 -0.00000000000E+00 -0.00000000000E+00 -0.74505805969E-08  0.93827000000E+00  0.93827000000E+00 0. -1.
     999902    2    1    2    0    0  0.19722535118E-02 -0.20845916212E-01  0.86364702791E-02  0.10212798206E+01  0.10210286193E+01 0.  0.
     999903    2    3    3    0    0 -0.87052354881E-01 -0.86096727871E-01 -0.46773159663E-01  0.13265544756E+00  0.20469007357E-01 0.  0.
         14    1    1    2    0    0 -0.19722535118E-02  0.20845916212E-01 -0.86364702791E-02  0.22650179371E-01  0.00000000000E+00 0.  1.
     999901    1    3    3    0    0  0.89024608393E-01  0.65250811659E-01  0.55409629942E-01  0.88862437307E+00  0.88000000000E+00 0. -1.
        -11    1    4    4    0    0 -0.16459669184E-01 -0.19790525170E-01 -0.16215941216E-02  0.25796827027E-01  0.51100000000E-03 0.  1.
         11    1    4    4    0    0 -0.70592685697E-01 -0.66306202701E-01 -0.45151565542E-01  0.10685862053E+00  0.51100000000E-03 0. -1.
</event>
<event>
 8    1  0.1109553E+005  0.1043930E+01  0.7957747E-01            NaN
         13   -1    0    0    0    0  0.00000000000E+00  0.00000000000E+00  0.74505805969E-08  0.10566000000E+00  0.10566000000E+00 0. -1.
     999900   -1    0    0    0    0 -0.00000000000E+00 -0.00000000000E+00 -0.74505805969E-08  0.93827000000E+00  0.93827000000E+00 0.  1.
     999902    2    1    2    0    0 -0.10746340707E-01  0.10243826040E-01  0.15769789043E-01  0.10222711437E+01  0.10220416749E+01 0.  0.
     999903    2    3    3    0    0 -0.11180884138E+00 -0.55779550162E-01  0.42356111990E-01  0.13363198867E+00  0.21234239981E-01 0.  0.
         14    1    1    2    0    0  0.10746340707E-01 -0.10243826040E-01 -0.15769789043E-01  0.21658856317E-01  0.00000000000E+00 0.  1.
     999901    1    3    3    0    0  0.10106250067E+00  0.66023376201E-01 -0.26586322947E-01  0.88863915501E+00  0.88000000000E+00 0. -1.
        -11    1    4    4    0    0 -0.24077066104E-01 -0.13703392514E-01  0.18909194866E-01  0.33545593601E-01  0.51100000000E-03 0.  1.
         11    1    4    4    0    0 -0.87731775274E-01 -0.42076157648E-01  0.23446917124E-01  0.10008639507E+00  0.51100000000E-03 0. -1.
</event>
<event>
 8    1  0.1109553E+005  0.1043930E+01  0.7957747E-01            NaN
         13   -1    0    0    0    0  0.00000000000E+00  0.00000000000E+00  0.74505805969E-08  0.10566000000E+00  0.10566000000E+00 0.  1.
     999900   -1    0    0    0    0 -0.00000000000E+00 -0.00000000000E+00 -0.74505805969E-08  0.93827000000E+00  0.93827000000E+00 0.  1.
     999902    2    1    2    0    0 -0.14747831892E-01 -0.17181624787E-01 -0.73571584089E-02  0.10201217125E+01  0.10198438477E+01 0.  0.
     999903    2    3    3    0    0  0.89348761131E-01 -0.50093256840E-01  0.76739927732E-01  0.12939639223E+00  0.19022994409E-01 0.  0.
         14    1    1    2    0    0  0.14747831892E-01  0.17181624787E-01  0.73571584089E-02  0.23808287543E-01  0.00000000000E+00 0. -1.
     999901    1    3    3    0    0 -0.10409659302E+00  0.32911632053E-01 -0.84097086141E-01  0.89072532023E+00  0.88000000000E+00 0.  1.
        -11    1    4    4    0    0  0.79870090764E-01 -0.47622091629E-01  0.74927646355E-01  0.11942155718E+00  0.51100000000E-03 0. -1.
         11    1    4    4    0    0  0.94786703672E-02 -0.24711652111E-02  0.18122813775E-02  0.99748350473E-02  0.51100000000E-03 0.  1.
</event>
<event>
 8    1  0.1109553E+005  0.1043930E+01  0.7957747E-01            NaN
         13   -1    0    0    0    0  0.00000000000E+00  0.00000000000E+00  0.74505805969E-08  0.10566000000E+00  0.10566000000E+00 0. -1.
     999900   -1    0    0    0    0 -0.00000000000E+00 -0.00000000000E+00 -0.74505805969E-08  0.93827000000E+00  0.93827000000E+00 0.  1.
     999902    2    1    2    0    0 -0.10089727662E-01  0.16732017808E-01  0.12309980862E-01  0.10208367401E+01  0.10205755000E+01 0.  0.
     999903    2    3    3    0    0 -0.35689174846E-01  0.35253351284E-01  0.12203625567E+00  0.13345957853E+00  0.20052317155E-01 0.  0.
         14    1    1    2    0    0  0.10089727662E-01 -0.16732017808E-01 -0.12309980862E-01  0.23093259905E-01  0.00000000000E+00 0.  1.
     999901    1    3    3    0    0  0.25599447184E-01 -0.18521333476E-01 -0.10972627481E+00  0.88737716157E+00  0.88000000000E+00 0.  1.
        -11    1    4    4    0    0 -0.74348645402E-02  0.11118431213E-01  0.14743016705E-01  0.19912668981E-01  0.51100000000E-03 0. -1.
         11    1    4    4    0    0 -0.28254310305E-01  0.24134920071E-01  0.10729323897E+00  0.11354690955E+00  0.51100000000E-03 0.  1.
</event>
<event>
 8    1  0.1109553E+005  0.1043930E+01  0.7957747E-01            NaN
         13   -1    0    0    0    0  0.00000000000E+00  0.00000000000E+00  0.74505805969E-08  0.10566000000E+00  0.10566000000E+00 0.  1.
     999900   -1    0    0    0    0 -0.00000000000E+00 -0.00000000000E+00 -0.74505805969E-08  0.93827000000E+00  0.93827000000E+00 0.  1.
     999902    2    1    2    0    0  0.22535651718E-01  0.39485476521E-02  0.62863235465E-02  0.10202031272E+01  0.10199271819E+01 0.  0.
     999903    2    3    3    0    0 -0.40346216187E-02  0.59919505417E-01  0.11515316739E+00  0.13133265455E+00  0.19529180470E-01 0.  0.
         14    1    1    2    0    0 -0.22535651718E-01 -0.39485476521E-02 -0.62863235465E-02  0.23726872753E-01  0.00000000000E+00 0.  1.
     999901    1    3    3    0    0  0.26570273336E-01 -0.55970957765E-01 -0.10886684385E+00  0.88887047269E+00  0.88000000000E+00 0.  1.
        -11    1    4    4    0    0 -0.56725043346E-02  0.37688689764E-02  0.15456627302E-01  0.16898228527E-01  0.51100000000E-03 0. -1.
         11    1    4    4    0    0  0.16378827159E-02  0.56150636441E-01  0.99696540092E-01  0.11443442603E+00  0.51100000000E-03 0.  1.
</event>
<event>
 8    1  0.1109553E+005  0.1043930E+01  0.7957747E-01            NaN
         13   -1    0    0    0    0  0.00000000000E+00  0.00000000000E+00  0.74505805969E-08  0.10566000000E+00  0.10566000000E+00 0. -1.
     999900   -1    0    0    0    0 -0.00000000000E+00 -0.00000000000E+00 -0.74505805969E-08  0.93827000000E+00  0.93827000000E+00 0.  1.
     999902    2    1    2    0    0 -0.64883597335E-02  0.22219203028E-01 -0.10005922524E-01  0.10187127384E+01  0.10184005760E+01 0.  0.
     999903    2    3    3    0    0 -0.48111833330E-01  0.73786858131E-01 -0.96256717153E-01  0.13201609573E+00  0.20090918253E-01 0.  0.
         14    1    1    2    0    0  0.64883597335E-02 -0.22219203028E-01  0.10005922524E-01  0.25217261564E-01  0.00000000000E+00 0. -1.
     999901    1    3    3    0    0  0.41623473597E-01 -0.51567655103E-01  0.86250794629E-01  0.88669664270E+00  0.88000000000E+00 0. -1.
        -11    1    4    4    0    0 -0.28388560450E-01  0.50369579984E-01 -0.49447855862E-01  0.76081249481E-01  0.51100000000E-03 0. -1.
         11    1    4    4    0    0 -0.19723272880E-01  0.23417278147E-01 -0.46808861290E-01  0.55934846252E-01  0.51100000000E-03 0.  1.
</event>
<event>
 8    1  0.1109553E+005  0.1043930E+01  0.7957747E-01            NaN
         13   -1    0    0    0    0  0.00000000000E+00  0.00000000000E+00  0.74505805969E-08  0.10566000000E+00  0.10566000000E+00 0. -1.
     999900   -1    0    0    0    0 -0.00000000000E+00 -0.00000000000E+00 -0.74505805969E-08  0.93827000000E+00  0.93827000000E+00 0.  1.
     999902    2    1    2    0    0 -0.19724920672E-01  0.12378445123E-01  0.48807175148E-04  0.10206426476E+01  0.10203769467E+01 0.  0.
     999903    2    3    3    0    0 -0.24314826423E-01  0.54774263703E-01 -0.11524360971E+00  0.13209843708E+00  0.24030746004E-01 0.  0.
         14    1    1    2    0    0  0.19724920672E-01 -0.12378445123E-01 -0.48807175148E-04  0.23287352390E-01  0.00000000000E+00 0.  1.
     999901    1    3    3    0    0  0.45899057508E-02 -0.42395818580E-01  0.11529241688E+00  0.88854421053E+00  0.88000000000E+00 0. -1.
        -11    1    4    4    0    0 -0.70215756125E-02  0.25639281191E-01 -0.74520476402E-01  0.79121664468E-01  0.51100000000E-03 0.  1.
         11    1    4    4    0    0 -0.17293250811E-01  0.29134982512E-01 -0.40723133306E-01  0.52976772616E-01  0.51100000000E-03 0. -1.
</event>
<event>
 8    1  0.1109553E+005  0.1043930E+01  0.7957747E-01            NaN
         13   -1    0    0    0    0  0.00000000000E+00  0.00000000000E+00  0.74505805969E-08  0.10566000000E+00  0.10566000000E+00 0.  1.
     999900   -1    0    0    0    0 -0.00000000000E+00 -0.00000000000E+00 -0.74505805969E-08  0.93827000000E+00  0.93827000000E+00 0.  1.
     999902    2    1    2    0    0  0.13517373915E-01  0.12578144287E-01 -0.18402253426E-01  0.10178613974E+01  0.10175275192E+01 0.  0.
     999903    2    3    3    0    0 -0.22791659407E-01  0.10266949580E+00 -0.74641660909E-01  0.13073250682E+00  0.21427218418E-01 0.  0.
         14    1    1    2    0    0 -0.13517373915E-01 -0.12578144287E-01  0.18402253426E-01  0.26068602617E-01  0.00000000000E+00 0.  1.
     999901    1    3    3    0    0  0.36309033323E-01 -0.90091351515E-01  0.56239407483E-01  0.88712889056E+00  0.88000000000E+00 0. -1.
        -11    1    4    4    0    0 -0.94041153794E-02  0.52147211825E-01 -0.24791094075E-01  0.58503235412E-01  0.51100000000E-03 0.  1.
         11    1    4    4    0    0 -0.13387544028E-01  0.50522283977E-01 -0.49850566834E-01  0.72229271407E-01  0.51100000000E-03 0. -1.
</event>
<event>
 8    1  0.1109553E+005  0.1043930E+01  0.7957747E-01            NaN
         13   -1    0    0    0    0  0.00000000000E+00  0.00000000000E+00  0.74505805969E-08  0.10566000000E+00  0.10566000000E+00 0.  1.
     999900   -1    0    0    0    0 -0.00000000000E+00 -0.00000000000E+00 -0.74505805969E-08  0.93827000000E+00  0.93827000000E+00 0. -1.
     999902    2    1    2    0    0 -0.69597885137E-02  0.25321440837E-02  0.22323236561E-01  0.10204102785E+01  0.10201391862E+01 0.  0.
     999903    2    3    3    0    0 -0.94708985951E-01  0.73584939051E-01  0.53524672672E-01  0.13264795052E+00  0.18602497634E-01 0.  0.
         14    1    1    2    0    0  0.69597885137E-02 -0.25321440837E-02 -0.22323236561E-01  0.23519721520E-01  0.00000000000E+00 0. -1.
     999901    1    3    3    0    0  0.87749197438E-01 -0.71052794967E-01 -0.31201436111E-01  0.88776232796E+00  0.88000000000E+00 0. -1.
        -11    1    4    4    0    0 -0.31425008001E-01  0.35874042837E-01  0.21659540760E-01  0.52382009357E-01  0.51100000000E-03 0.  1.
         11    1    4    4    0    0 -0.63283977950E-01  0.37710896214E-01  0.31865131912E-01  0.80265941166E-01  0.51100000000E-03 0. -1.
</event>
<event>
 8    1  0.1109553E+005  0.1043930E+01  0.7957747E-01            NaN
         13   -1    0    0    0    0  0.00000000000E+00  0.00000000000E+00  0.74505805969E-08  0.10566000000E+00  0.10566000000E+00 0.  1.
     999900   -1    0    0    0    0 -0.00000000000E+00 -0.00000000000E+00 -0.74505805969E-08  0.93827000000E+00  0.93827000000E+00 0. -1.
     999902    2    1    2    0    0  0.30374428409E-02  0.14566925260E-01  0.18293998582E-01  0.10203484022E+01  0.10200758649E+01 0.  0.
     999903    2    3    3    0    0  0.56723382799E-01  0.10744643244E+00 -0.45654639801E-01  0.13152996666E+00  0.21295727166E-01 0.  0.
         14    1    1    2    0    0 -0.30374428409E-02 -0.14566925260E-01 -0.18293998582E-01  0.23581597797E-01  0.00000000000E+00 0. -1.
     999901    1    3    3    0    0 -0.53685939958E-01 -0.92879507177E-01  0.63948638384E-01  0.88881843554E+00  0.88000000000E+00 0. -1.
        -11    1    4    4    0    0  0.21344587202E-01  0.60772645514E-01 -0.18828645656E-01  0.67109499058E-01  0.51100000000E-03 0. -1.
         11    1    4    4    0    0  0.35378795597E-01  0.46673786924E-01 -0.26825994145E-01  0.64420467606E-01  0.51100000000E-03 0.  1.
</event>
<event>
 8    1  0.1109553E+005  0.1043930E+01  0.7957747E-01            NaN
         13   -1    0    0    0    0  0.00000000000E+00  0.00000000000E+00  0.74505805969E-08  0.10566000000E+00  0.10566000000E+00 0. -1.
     999900   -1    0    0    0    0 -0.00000000000E+00 -0.00000000000E+00 -0.74505805969E-08  0.93827000000E+00  0.93827000000E+00 0.  1.
     999902    2    1    2    0    0 -0.11429306532E-01  0.19006073507E-01 -0.16492911812E-02  0.10216908445E+01  0.10214487758E+01 0.  0.
     999903    2    3    3    0    0 -0.32090366897E-01 -0.85865571385E-01 -0.91105797365E-01  0.13072091914E+00  0.19621528744E-01 0.  0.
         14    1    1    2    0    0  0.11429306532E-01 -0.19006073507E-01  0.16492911812E-02  0.22239155545E-01  0.00000000000E+00 0. -1.
     999901    1    3    3    0    0  0.20661060365E-01  0.10487164489E+00  0.89456506183E-01  0.89096992532E+00  0.88000000000E+00 0. -1.
        -11    1    4    4    0    0 -0.32534182866E-01 -0.73292779055E-01 -0.71598438291E-01  0.10750303253E+00  0.51100000000E-03 0. -1.
         11    1    4    4    0    0  0.44381596834E-03 -0.12572792330E-01 -0.19507359074E-01  0.23217886610E-01  0.51100000000E-03 0.  1.
</event>
<event>
 8    1  0.1109553E+005  0.1043930E+01  0.7957747E-01            NaN
         13   -1    0    0    0    0  0.00000000000E+00  0.00000000000E+00  0.74505805969E-08  0.10566000000E+00  0.10566000000E+00 0. -1.
     999900   -1    0    0    0    0 -0.00000000000E+00 -0.00000000000E+00 -0.74505805969E-08  0.93827000000E+00  0.93827000000E+00 0. -1.
     999902    2    1    2    0    0 -0.25681030116E-02  0.12520412839E-01 -0.19006746719E-01  0.10210255831E+01  0.10207686462E+01 0.  0.
     999903    2    3    3    0    0 -0.46061375608E-01 -0.17060215670E-02  0.11898522208E+00  0.12909742480E+00  0.19598499499E-01 0.  0.
         14    1    1    2    0    0  0.25681030116E-02 -0.12520412839E-01  0.19006746719E-01  0.22904416857E-01  0.00000000000E+00 0. -1.
     999901    1    3    3    0    0  0.43493272596E-01  0.14226434406E-01 -0.13799196880E+00  0.89192815835E+00  0.88000000000E+00 0. -1.
        -11    1    4    4    0    0 -0.14148607329E-01 -0.18748589475E-02  0.63508374413E-01  0.65094338671E-01  0.51100000000E-03 0.  1.
         11    1    4    4    0    0 -0.31912768278E-01  0.16883738048E-03  0.55476847670E-01  0.64003086126E-01  0.51100000000E-03 0. -1.
</event>
<event>
 8    1  0.1109553E+005  0.1043930E+01  0.7957747E-01            NaN
         13   -1    0    0    0    0  0.00000000000E+00  0.00000000000E+00  0.74505805969E-08  0.10566000000E+00  0.10566000000E+00 0. -1.
     999900   -1    0    0    0    0 -0.00000000000E+00 -0.00000000000E+00 -0.74505805969E-08  0.93827000000E+00  0.93827000000E+00 0. -1.
     999902    2    1    2    0    0  0.11813771870E-01  0.19684438016E-01  0.36424412021E-02  0.10206854375E+01  0.10204207234E+01 0.  0.
     999903    2    3    3    0    0 -0.10299125296E+00  0.77417088140E-01 -0.14375484726E-01  0.13116989621E+00  0.19957038600E-01 0.  0.
         14    1    1    2    0    0 -0.11813771870E-01 -0.19684438016E-01 -0.36424412021E-02  0.23244562454E-01  0.00000000000E+00 0. -1.
     999901    1    3    3    0    0  0.11480502483E+00 -0.57732650124E-01  0.18017925929E-01  0.88951554133E+00  0.88000000000E+00 0. -1.
        -11    1    4    4    0    0 -0.75429614581E-02  0.12295979512E-01  0.15992807755E-02  0.14522609949E-01  0.51100000000E-03 0. -1.
         11    1    4    4    0    0 -0.95448291500E-01  0.65121108627E-01 -0.15974765502E-01  0.11664728627E+00  0.51100000000E-03 0.  1.
</event>
<event>
 8    1  0.1109553E+005  0.1043930E+01  0.7957747E-01            NaN
         13   -1    0    0    0    0  0.00000000000E+00  0.00000000000E+00  0.74505805969E-08  0.10566000000E+00  0.10566000000E+00 0. -1.
     999900   -1    0    0    0    0 -0.00000000000E+00 -0.00000000000E+00 -0.74505805969E-08  0.93827000000E+00  0.93827000000E+00 0. -1.
     999902    2    1    2    0    0 -0.70659999447E-02 -0.21359738587E-01 -0.43487364864E-02  0.10210154130E+01  0.10207582453E+01 0.  0.
     999903    2    3    3    0    0 -0.45457256701E-01 -0.69404291994E-01 -0.10264224826E+00  0.13340976738E+00  0.19478628532E-01 0.  0.
         14    1    1    2    0    0  0.70659999447E-02  0.21359738587E-01  0.43487364864E-02  0.22914586987E-01  0.00000000000E+00 0. -1.
     999901    1    3    3    0    0  0.38391256756E-01  0.48044553406E-01  0.98293511776E-01  0.88760564564E+00  0.88000000000E+00 0.  1.
        -11    1    4    4    0    0 -0.41609834579E-01 -0.49619222080E-01 -0.82853537693E-01  0.10515900039E+00  0.51100000000E-03 0.  1.
         11    1    4    4    0    0 -0.38474221221E-02 -0.19785069914E-01 -0.19788710570E-01  0.28250766989E-01  0.51100000000E-03 0. -1.
</event>
<event>
 8    1  0.1109553E+005  0.1043930E+01  0.7957747E-01            NaN
         13   -1    0    0    0    0  0.00000000000E+00  0.00000000000E+00  0.74505805969E-08  0.10566000000E+00  0.10566000000E+00 0. -1.
     999900   -1    0    0    0    0 -0.00000000000E+00 -0.00000000000E+00 -0.74505805969E-08  0.93827000000E+00  0.93827000000E+00 0.  1.
     999902    2    1    2    0    0  0.16386412536E-02  0.21750345567E-01  0.13147933714E-01  0.10184617681E+01  0.10181432817E+01 0.  0.
     999903    2    3    3    0    0  0.90131079606E-01  0.62373329853E-02 -0.88522451155E-01  0.12806386129E+00  0.20040268894E-01 0.  0.
         14    1    1    2    0    0 -0.16386412536E-02 -0.21750345567E-01 -0.13147933714E-01  0.25468231945E-01  0.00000000000E+00 0.  1.
     999901    1    3    3    0    0 -0.88492438353E-01  0.15513012582E-01  0.10167038487E+00  0.89039790676E+00  0.88000000000E+00 0. -1.
        -11    1    4    4    0    0  0.24716040543E-01  0.99918636954E-02 -0.30821742717E-01  0.40754888606E-01  0.51100000000E-03 0.  1.
         11    1    4    4    0    0  0.65415039063E-01 -0.37545307101E-02 -0.57700708438E-01  0.87308972688E-01  0.51100000000E-03 0. -1.
</event>
<event>
 8    1  0.1109553E+005  0.1043930E+01  0.7957747E-01            NaN
         13   -1    0    0    0    0  0.00000000000E+00  0.00000000000E+00  0.74505805969E-08  0.10566000000E+00  0.10566000000E+00 0. -1.
     999900   -1    0    0    0    0 -0.00000000000E+00 -0.00000000000E+00 -0.74505805969E-08  0.93827000000E+00  0.93827000000E+00 0.  1.
     999902    2    1    2    0    0  0.18206434407E-01 -0.72782425802E-02 -0.12624630631E-01  0.10206098721E+01  0.10203434140E+01 0.  0.
     999903    2    3    3    0    0  0.96991676668E-01 -0.48705141579E-01 -0.75785345703E-01  0.13386719332E+00  0.19935663138E-01 0.  0.
         14    1    1    2    0    0 -0.18206434407E-01  0.72782425802E-02  0.12624630631E-01  0.23320127947E-01  0.00000000000E+00 0. -1.
     999901    1    3    3    0    0 -0.78785242261E-01  0.41426898999E-01  0.63160715072E-01  0.88674267873E+00  0.88000000000E+00 0.  1.
        -11    1    4    4    0    0  0.53029256847E-01 -0.23737120379E-01 -0.52075499761E-01  0.78023533386E-01  0.51100000000E-03 0.  1.
         11    1    4    4    0    0  0.43962419821E-01 -0.24968021201E-01 -0.23709845942E-01  0.55843659934E-01  0.51100000000E-03 0. -1.
</event>
<event>
 8    1  0.1109553E+005  0.1043930E+01  0.7957747E-01            NaN
         13   -1    0    0    0    0  0.00000000000E+00  0.00000000000E+00  0.74505805969E-08  0.10566000000E+00  0.10566000000E+00 0.  1.
     999900   -1    0    0    0    0 -0.00000000000E+00 -0.00000000000E+00 -0.74505805969E-08  0.93827000000E+00  0.93827000000E+00 0.  1.
     999902    2    1    2    0    0 -0.15137062650E-01 -0.14079359071E-01  0.11844893726E-01  0.10201043725E+01  0.10198260981E+01 0.  0.
     999903    2    3    3    0    0  0.12556736946E+00 -0.56953070988E-02 -0.14738612620E-01  0.12849082823E+00  0.22205076921E-01 0.  0.
         14    1    1    2    0    0  0.15137062650E-01  0.14079359071E-01 -0.11844893726E-01  0.23825627482E-01  0.00000000000E+00 0. -1.
     999901    1    3    3    0    0 -0.14070443211E+00 -0.83840519724E-02  0.26583506345E-01  0.89161354429E+00  0.88000000000E+00 0.  1.
        -11    1    4    4    0    0  0.41729455242E-01 -0.10803186304E-01  0.57145203272E-03  0.43111993082E-01  0.51100000000E-03 0. -1.
         11    1    4    4    0    0  0.83837914221E-01  0.51078792051E-02 -0.15310064652E-01  0.85378835150E-01  0.51100000000E-03 0.  1.
</event>
<event>
 8    1  0.1109553E+005  0.1043930E+01  0.7957747E-01            NaN
         13   -1    0    0    0    0  0.00000000000E+00  0.00000000000E+00  0.74505805969E-08  0.10566000000E+00  0.10566000000E+00 0. -1.
     999900   -1    0    0    0    0 -0.00000000000E+00 -0.00000000000E+00 -0.74505805969E-08  0.93827000000E+00  0.93827000000E+00 0.  1.
     999902    2    1    2    0    0 -0.22925589904E-01 -0.12465533596E-02  0.74162638084E-02  0.10198024735E+01  0.10195170167E+01 0.  0.
     999903    2    3    3    0    0  0.33242709093E-01 -0.11876559781E+00 -0.33432676894E-01  0.12927777444E+00  0.19612601781E-01 0.  0.
         14    1    1    2    0    0  0.22925589904E-01  0.12465533596E-02 -0.74162638084E-02  0.24127526533E-01  0.00000000000E+00 0. -1.
     999901    1    3    3    0    0 -0.56168298997E-01  0.11751904445E+00  0.40848940702E-01  0.89052469903E+00  0.88000000000E+00 0.  1.
        -11    1    4    4    0    0  0.63753467372E-02 -0.50322695374E-01 -0.73381247833E-02  0.51255515918E-01  0.51100000000E-03 0.  1.
         11    1    4    4    0    0  0.26867362356E-01 -0.68442902437E-01 -0.26094552110E-01  0.78022258521E-01  0.51100000000E-03 0. -1.
</event>
<event>
 8    1  0.1109553E+005  0.1043930E+01  0.7957747E-01            NaN
         13   -1    0    0    0    0  0.00000000000E+00  0.00000000000E+00  0.74505805969E-08  0.10566000000E+00  0.10566000000E+00 0.  1.
     999900   -1    0    0    0    0 -0.00000000000E+00 -0.00000000000E+00 -0.74505805969E-08  0.93827000000E+00  0.93827000000E+00 0. -1.
     999902    2    1    2    0    0  0.21616361634E-01 -0.76605249687E-02  0.78860908979E-02  0.10196783781E+01  0.10193899419E+01 0.  0.
     999903    2    3    3    0    0 -0.10729879923E+00  0.64698132357E-01  0.95324394385E-02  0.12734570226E+00  0.20668329257E-01 0.  0.
         14    1    1    2    0    0 -0.21616361634E-01  0.76605249687E-02 -0.78860908979E-02  0.24251621858E-01  0.00000000000E+00 0. -1.
     999901    1    3    3    0    0  0.12891516087E+00 -0.72358657325E-01 -0.16463485405E-02  0.89233267589E+00  0.88000000000E+00 0. -1.
        -11    1    4    4    0    0 -0.50945616600E-01  0.41842960473E-01  0.99650212618E-03  0.65935903189E-01  0.51100000000E-03 0.  1.
         11    1    4    4    0    0 -0.56353182632E-01  0.22855171884E-01  0.85359373123E-02  0.61409799066E-01  0.51100000000E-03 0. -1.
</event>
<event>
 8    1  0.1109553E+005  0.1043930E+01  0.7957747E-01            NaN
         13   -1    0    0    0    0  0.00000000000E+00  0.00000000000E+00  0.74505805969E-08  0.10566000000E+00  0.10566000000E+00 0.  1.
     999900   -1    0    0    0    0 -0.00000000000E+00 -0.00000000000E+00 -0.74505805969E-08  0.93827000000E+00  0.93827000000E+00 0.  1.
     999902    2    1    2    0    0 -0.14704139979E-01  0.17952110727E-01 -0.64366993487E-02  0.10198484488E+01  0.10195640918E+01 0.  0.
     999903    2    3    3    0    0 -0.76161764978E-01  0.95514628516E-01 -0.49130324806E-01  0.13327316741E+00  0.20598291916E-01 0.  0.
         14    1    1    2    0    0  0.14704139979E-01 -0.17952110727E-01  0.64366993487E-02  0.24081551249E-01  0.00000000000E+00 0.  1.
     999901    1    3    3    0    0  0.61457624999E-01 -0.77562517789E-01  0.42693625458E-01  0.88657528134E+00  0.88000000000E+00 0. -1.
        -11    1    4    4    0    0 -0.67160816928E-01  0.78290232798E-01 -0.33908026193E-01  0.10858154191E+00  0.51100000000E-03 0.  1.
         11    1    4    4    0    0 -0.90009480503E-02  0.17224395717E-01 -0.15222298613E-01  0.24691625497E-01  0.51100000000E-03 0. -1.
</event>
<event>
 8    1  0.1109553E+005  0.1043930E+01  0.7957747E-01            NaN
         13   -1    0    0    0    0  0.00000000000E+00  0.00000000000E+00  0.74505805969E-08  0.10566000000E+00  0.10566000000E+00 0.  1.
     999900   -1    0    0    0    0 -0.00000000000E+00 -0.00000000000E+00 -0.74505805969E-08  0.93827000000E+00  0.93827000000E+00 0. -1.
     999902    2    1    2    0    0  0.55180894043E-03 -0.49523803062E-02 -0.23449578070E-01  0.10199568217E+01  0.10196750487E+01 0.  0.
     999903    2    3    3    0    0  0.86409903604E-01  0.72652667685E-01  0.57595952189E-01  0.12868664169E+00  0.22313145842E-01 0.  0.
         14    1    1    2    0    0 -0.55180894043E-03  0.49523803062E-02  0.23449578070E-01  0.23973178251E-01  0.00000000000E+00 0.  1.
     999901    1    3    3    0    0 -0.85858094663E-01 -0.77605047991E-01 -0.81045530259E-01  0.89127018006E+00  0.88000000000E+00 0.  1.
        -11    1    4    4    0    0  0.62615038959E-01  0.64398434787E-01  0.43179082068E-01  0.99661907247E-01  0.51100000000E-03 0.  1.
         11    1    4    4    0    0  0.23794864645E-01  0.82542328982E-02  0.14416870121E-01  0.29024734440E-01  0.51100000000E-03 0. -1.
</event>
<event>
 8    1  0.1109553E+005  0.1043930E+01  0.7957747E-01            NaN
         13   -1    0    0    0    0  0.00000000000E+00  0.00000000000E+00  0.74505805969E-08  0.10566000000E+00  0.10566000000E+00 0.  1.
     999900   -1    0    0    0    0 -0.00000000000E+00 -0.00000000000E+00 -0.74505805969E-08  0.93827000000E+00  0.93827000000E+00 0. -1.
     999902    2    1    2    0    0 -0.12126382946E-02 -0.19865198122E-02 -0.24313791611E-01  0.10195050698E+01  0.10192124460E+01 0.  0.
     999903    2    3    3    0    0  0.90270823071E-02 -0.10037722433E+00 -0.82832160857E-01  0.13203113658E+00  0.20346468374E-01 0.  0.
         14    1    1    2    0    0  0.12126382946E-02  0.19865198122E-02  0.24313791611E-01  0.24424930197E-01  0.00000000000E+00 0.  1.
     999901    1    3    3    0    0 -0.10239720602E-01  0.98390704516E-01  0.58518369245E-01  0.88747393322E+00  0.88000000000E+00 0. -1.
        -11    1    4    4    0    0  0.13322706346E-01 -0.85915501759E-01 -0.64345286242E-01  0.10816443468E+00  0.51100000000E-03 0.  1.
         11    1    4    4    0    0 -0.42956240386E-02 -0.14461722569E-01 -0.18486874615E-01  0.23866701900E-01  0.51100000000E-03 0. -1.
</event>
<event>
 8    1  0.1109553E+005  0.1043930E+01  0.7957747E-01            NaN
         13   -1    0    0    0    0  0.00000000000E+00  0.00000000000E+00  0.74505805969E-08  0.10566000000E+00  0.10566000000E+00 0.  1.
     999900   -1    0    0    0    0 -0.00000000000E+00 -0.00000000000E+00 -0.74505805969E-08  0.93827000000E+00  0.93827000000E+00 0.  1.
     999902    2    1    2    0    0 -0.16955840129E-01 -0.27978188990E-01 -0.75359721712E-02  0.10103581301E+01  0.10098002181E+01 0.  0.
     999903    2    3    3    0    0  0.37986258894E-01 -0.73546152849E-01  0.87823347563E-01  0.12233308908E+00  0.20011292888E-01 0.  0.
         14    1    1    2    0    0  0.16955840129E-01  0.27978188990E-01  0.75359721712E-02  0.33571869924E-01  0.00000000000E+00 0. -1.
     999901    1    3    3    0    0 -0.54942099024E-01  0.45567963859E-01 -0.95359319734E-01  0.88802504100E+00  0.88000000000E+00 0.  1.
        -11    1    4    4    0    0  0.22903263723E-01 -0.32019060278E-01  0.29671028883E-01  0.49299196608E-01  0.51100000000E-03 0.  1.
         11    1    4    4    0    0  0.15082995172E-01 -0.41527092571E-01  0.58152318680E-01  0.73033892472E-01  0.51100000000E-03 0. -1.
</event>
<event>
 8    1  0.1109553E+005  0.1043930E+01  0.7957747E-01            NaN
         13   -1    0    0    0    0  0.00000000000E+00  0.00000000000E+00  0.74505805969E-08  0.10566000000E+00  0.10566000000E+00 0.  1.
     999900   -1    0    0    0    0 -0.00000000000E+00 -0.00000000000E+00 -0.74505805969E-08  0.93827000000E+00  0.93827000000E+00 0. -1.
     999902    2    1    2    0    0  0.66831273599E-02  0.73626584577E-02 -0.21849140397E-01  0.10199246284E+01  0.10196420890E+01 0.  0.
     999903    2    3    3    0    0 -0.62851334768E-01 -0.39247544974E-01 -0.10734791220E+00  0.13182689025E+00  0.19081264911E-01 0.  0.
         14    1    1    2    0    0 -0.66831273599E-02 -0.73626584577E-02  0.21849140397E-01  0.24005371627E-01  0.00000000000E+00 0.  1.
     999901    1    3    3    0    0  0.69534462128E-01  0.46610203432E-01  0.85498771798E-01  0.88809773813E+00  0.88000000000E+00 0.  1.
        -11    1    4    4    0    0 -0.12283420709E-01 -0.17407837307E-01 -0.26708321063E-01  0.34168856566E-01  0.51100000000E-03 0.  1.
         11    1    4    4    0    0 -0.50567914059E-01 -0.21839707668E-01 -0.80639591132E-01  0.97658033680E-01  0.51100000000E-03 0. -1.
</event>
<event>
 8    1  0.1109553E+005  0.1043930E+01  0.7957747E-01            NaN
         13   -1    0    0    0    0  0.00000000000E+00  0.00000000000E+00  0.74505805969E-08  0.10566000000E+00  0.10566000000E+00 0.  1.
     999900   -1    0    0    0    0 -0.00000000000E+00 -0.00000000000E+00 -0.74505805969E-08  0.93827000000E+00  0.93827000000E+00 0.  1.
     999902    2    1    2    0    0 -0.18016843537E-01  0.10560011145E-01  0.10418559914E-01  0.10205919007E+01  0.10203250271E+01 0.  0.
     999903    2    3    3    0    0 -0.11731818889E+00 -0.42051635124E-02  0.60179318302E-01  0.13348711513E+00  0.20396536705E-01 0.  0.
         14    1    1    2    0    0  0.18016843537E-01 -0.10560011145E-01 -0.10418559914E-01  0.23338099260E-01  0.00000000000E+00 0.  1.
     999901    1    3    3    0    0  0.99301345357E-01  0.14765174657E-01 -0.49760758388E-01  0.88710478561E+00  0.88000000000E+00 0.  1.
        -11    1    4    4    0    0 -0.86020482876E-01  0.37591220573E-02  0.36925088020E-01  0.93687660442E-01  0.51100000000E-03 0. -1.
         11    1    4    4    0    0 -0.31297706018E-01 -0.79642855697E-02  0.23254230282E-01  0.39799454690E-01  0.51100000000E-03 0.  1.
</event>
<event>
 8    1  0.1109553E+005  0.1043930E+01  0.7957747E-01            NaN
         13   -1    0    0    0    0  0.00000000000E+00  0.00000000000E+00  0.74505805969E-08  0.10566000000E+00  0.10566000000E+00 0.  1.
     999900   -1    0    0    0    0 -0.00000000000E+00 -0.00000000000E+00 -0.74505805969E-08  0.93827000000E+00  0.93827000000E+00 0. -1.
     999902    2    1    2    0    0 -0.14044655915E-01 -0.16684927137E-01  0.92738507854E-02  0.10202309818E+01  0.10199556916E+01 0.  0.
     999903    2    3    3    0    0  0.99963513491E-01 -0.77970061672E-01 -0.22545552114E-01  0.13019378891E+00  0.19237624672E-01 0.  0.
         14    1    1    2    0    0  0.14044655915E-01  0.16684927137E-01 -0.92738507854E-02  0.23699018159E-01  0.00000000000E+00 0. -1.
     999901    1    3    3    0    0 -0.11400816941E+00  0.61285134535E-01  0.31819402899E-01  0.89003719293E+00  0.88000000000E+00 0. -1.
        -11    1    4    4    0    0  0.41080391640E-01 -0.43162761009E-01 -0.65768720176E-02  0.59951137452E-01  0.51100000000E-03 0. -1.
         11    1    4    4    0    0  0.58883121850E-01 -0.34807300663E-01 -0.15968680096E-01  0.70242651454E-01  0.51100000000E-03 0.  1.
</event>
<event>
 8    1  0.1109553E+005  0.1043930E+01  0.7957747E-01            NaN
         13   -1    0    0    0    0  0.00000000000E+00  0.00000000000E+00  0.74505805969E-08  0.10566000000E+00  0.10566000000E+00 0. -1.
     999900   -1    0    0    0    0 -0.00000000000E+00 -0.00000000000E+00 -0.74505805969E-08  0.93827000000E+00  0.93827000000E+00 0. -1.
     999902    2    1    2    0    0  0.19325152109E-01  0.16600161047E-02 -0.13465787777E-01  0.10203176177E+01  0.10200443600E+01 0.  0.
     999903    2    3    3    0    0 -0.94605927133E-01  0.13338686670E-01  0.82218113442E-01  0.12775272307E+00  0.20802357177E-01 0.  0.
         14    1    1    2    0    0 -0.19325152109E-01 -0.16600161047E-02  0.13465787777E-01  0.23612382301E-01  0.00000000000E+00 0. -1.
     999901    1    3    3    0    0  0.11393107924E+00 -0.11678670566E-01 -0.95683901219E-01  0.89256489462E+00  0.88000000000E+00 0.  1.
        -11    1    4    4    0    0 -0.59574777792E-01  0.92209434193E-02  0.64462624627E-01  0.88260246098E-01  0.51100000000E-03 0. -1.
         11    1    4    4    0    0 -0.35031149341E-01  0.41177432510E-02  0.17755488815E-01  0.39492476976E-01  0.51100000000E-03 0.  1.
</event>
<event>
 8    1  0.1109553E+005  0.1043930E+01  0.7957747E-01            NaN
         13   -1    0    0    0    0  0.00000000000E+00  0.00000000000E+00  0.74505805969E-08  0.10566000000E+00  0.10566000000E+00 0. -1.
     999900   -1    0    0    0    0 -0.00000000000E+00 -0.00000000000E+00 -0.74505805969E-08  0.93827000000E+00  0.93827000000E+00 0. -1.
     999902    2    1    2    0    0 -0.64561222053E-04  0.18060591176E-01 -0.31806783771E-01  0.10073532230E+01  0.10066889566E+01 0.  0.
     999903    2    3    3    0    0 -0.26248528208E-01  0.11148227787E+00  0.28784001012E-01  0.11995001427E+00  0.21028639895E-01 0.  0.
         14    1    1    2    0    0  0.64561222053E-04 -0.18060591176E-01  0.31806783771E-01  0.36576776999E-01  0.00000000000E+00 0. -1.
     999901    1    3    3    0    0  0.26183966986E-01 -0.93421686695E-01 -0.60590784784E-01  0.88740320873E+00  0.88000000000E+00 0. -1.
        -11    1    4    4    0    0 -0.65300815665E-02  0.59440754302E-01  0.70995606800E-02  0.60220512453E-01  0.51100000000E-03 0.  1.
         11    1    4    4    0    0 -0.19718446641E-01  0.52041523569E-01  0.21684440332E-01  0.59729501813E-01  0.51100000000E-03 0. -1.
</event>
<event>
 8    1  0.1109553E+005  0.1043930E+01  0.7957747E-01            NaN
         13   -1    0    0    0    0  0.00000000000E+00  0.00000000000E+00  0.74505805969E-08  0.10566000000E+00  0.10566000000E+00 0.  1.
     999900   -1    0    0    0    0 -0.00000000000E+00 -0.00000000000E+00 -0.74505805969E-08  0.93827000000E+00  0.93827000000E+00 0.  1.
     999902    2    1    2    0    0 -0.19693156759E-01  0.68316134665E-02 -0.73913475760E-02  0.10218138660E+01  0.10215744972E+01 0.  0.
     999903    2    3    3    0    0  0.84229738178E-01  0.19963914284E-01 -0.96574946615E-01  0.13112528978E+00  0.19336872495E-01 0.  0.
         14    1    1    2    0    0  0.19693156759E-01 -0.68316134665E-02  0.73913475760E-02  0.22116134035E-01  0.00000000000E+00 0.  1.
     999901    1    3    3    0    0 -0.10392289494E+00 -0.13132300817E-01  0.89183599039E-01  0.89068857619E+00  0.88000000000E+00 0. -1.
        -11    1    4    4    0    0  0.17888848755E-01  0.24664848365E-02 -0.32828674539E-01  0.37471021473E-01  0.51100000000E-03 0. -1.
         11    1    4    4    0    0  0.66340889422E-01  0.17497429447E-01 -0.63746272077E-01  0.93654268303E-01  0.51100000000E-03 0.  1.
</event>
<event>
 8    1  0.1109553E+005  0.1043930E+01  0.7957747E-01            NaN
         13   -1    0    0    0    0  0.00000000000E+00  0.00000000000E+00  0.74505805969E-08  0.10566000000E+00  0.10566000000E+00 0.  1.
     999900   -1    0    0    0    0 -0.00000000000E+00 -0.00000000000E+00 -0.74505805969E-08  0.93827000000E+00  0.93827000000E+00 0.  1.
     999902    2    1    2    0    0  0.21113456092E-01 -0.93885284536E-02 -0.53230139341E-03  0.10208171066E+01  0.10205554171E+01 0.  0.
     999903    2    3    3    0    0 -0.54621471039E-01 -0.42260860182E-01  0.10878186784E+00  0.13021845575E+00  0.18811327576E-01 0.  0.
         14    1    1    2    0    0 -0.21113456092E-01  0.93885284536E-02  0.53230139341E-03  0.23112893360E-01  0.00000000000E+00 0.  1.
     999901    1    3    3    0    0  0.75734927132E-01  0.32872331728E-01 -0.10931416923E+00  0.89059865089E+00  0.88000000000E+00 0. -1.
        -11    1    4    4    0    0 -0.36534103607E-02 -0.11392286544E-01  0.17264478153E-01  0.21010828800E-01  0.51100000000E-03 0.  1.
         11    1    4    4    0    0 -0.50968060679E-01 -0.30868573637E-01  0.91517389683E-01  0.10920762695E+00  0.51100000000E-03 0. -1.
</event>
<event>
 8    1  0.1109553E+005  0.1043930E+01  0.7957747E-01            NaN
         13   -1    0    0    0    0  0.00000000000E+00  0.00000000000E+00  0.74505805969E-08  0.10566000000E+00  0.10566000000E+00 0.  1.
     999900   -1    0    0    0    0 -0.00000000000E+00 -0.00000000000E+00 -0.74505805969E-08  0.93827000000E+00  0.93827000000E+00 0.  1.
     999902    2    1    2    0    0  0.56643174807E-02 -0.71729847694E-02 -0.21894548545E-01  0.10202043291E+01  0.10199284120E+01 0.  0.
     999903    2    3    3    0    0  0.68247398935E-01 -0.99702003877E-01  0.43962107295E-01  0.13070145639E+00  0.23494824683E-01 0.  0.
         14    1    1    2    0    0 -0.56643174807E-02  0.71729847694E-02  0.21894548545E-01  0.23725670886E-01  0.00000000000E+00 0.  1.
     999901    1    3    3    0    0 -0.62583081454E-01  0.92529019107E-01 -0.65856655840E-01  0.88950287272E+00  0.88000000000E+00 0.  1.
        -11    1    4    4    0    0  0.33891973930E-01 -0.56730449659E-01  0.35557517901E-01  0.75044040507E-01  0.51100000000E-03 0.  1.
         11    1    4    4    0    0  0.34355425004E-01 -0.42971554218E-01  0.84045893946E-02  0.55657415885E-01  0.51100000000E-03 0. -1.
</event>
<event>
 8    1  0.1109553E+005  0.1043930E+01  0.7957747E-01            NaN
         13   -1    0    0    0    0  0.00000000000E+00  0.00000000000E+00  0.74505805969E-08  0.10566000000E+00  0.10566000000E+00 0.  1.
     999900   -1    0    0    0    0 -0.00000000000E+00 -0.00000000000E+00 -0.74505805969E-08  0.93827000000E+00  0.93827000000E+00 0. -1.
     999902    2    1    2    0    0  0.15255052890E-01 -0.17737250905E-01  0.87348799997E-03  0.10205186846E+01  0.10202501144E+01 0.  0.
     999903    2    3    3    0    0 -0.89166522650E-01 -0.82174023096E-01 -0.45024539289E-01  0.13082065044E+00  0.19585571468E-01 0.  0.
         14    1    1    2    0    0 -0.15255052890E-01  0.17737250905E-01 -0.87348799997E-03  0.23411315418E-01  0.00000000000E+00 0.  1.
     999901    1    3    3    0    0  0.10442157554E+00  0.64436772191E-01  0.45898027289E-01  0.88969803414E+00  0.88000000000E+00 0. -1.
        -11    1    4    4    0    0 -0.78605024221E-01 -0.66695051095E-01 -0.31807904561E-01  0.10788412111E+00  0.51100000000E-03 0. -1.
         11    1    4    4    0    0 -0.10561498429E-01 -0.15478972002E-01 -0.13216634728E-01  0.22936529333E-01  0.51100000000E-03 0.  1.
</event>
<event>
 8    1  0.1109553E+005  0.1043930E+01  0.7957747E-01            NaN
         13   -1    0    0    0    0  0.00000000000E+00  0.00000000000E+00  0.74505805969E-08  0.10566000000E+00  0.10566000000E+00 0. -1.
     999900   -1    0    0    0    0 -0.00000000000E+00 -0.00000000000E+00 -0.74505805969E-08  0.93827000000E+00  0.93827000000E+00 0.  1.
     999902    2    1    2    0    0  0.56381164319E-02 -0.34226796669E-02  0.19385198815E-01  0.10234534518E+01  0.10232485910E+01 0.  0.
     999903    2    3    3    0    0 -0.71694994672E-01 -0.10202651574E+00  0.45399851446E-01  0.13419539662E+00  0.19941809998E-01 0.  0.
         14    1    1    2    0    0 -0.56381164319E-02  0.34226796669E-02 -0.19385198815E-01  0.20476548198E-01  0.00000000000E+00 0.  1.
     999901    1    3    3    0    0  0.77333111104E-01  0.98603836076E-01 -0.26014652631E-01  0.88925805519E+00  0.88000000000E+00 0.  1.
        -11    1    4    4    0    0 -0.39809379412E-01 -0.53158935646E-01  0.13789516077E-01  0.67831194909E-01  0.51100000000E-03 0.  1.
         11    1    4    4    0    0 -0.31885615260E-01 -0.48867580096E-01  0.31610335369E-01  0.66364201707E-01  0.51100000000E-03 0. -1.
</event>
<event>
 8    1  0.1109553E+005  0.1043930E+01  0.7957747E-01            NaN
         13   -1    0    0    0    0  0.00000000000E+00  0.00000000000E+00  0.74505805969E-08  0.10566000000E+00  0.10566000000E+00 0. -1.
     999900   -1    0    0    0    0 -0.00000000000E+00 -0.00000000000E+00 -0.74505805969E-08  0.93827000000E+00  0.93827000000E+00 0.  1.
     999902    2    1    2    0    0 -0.19993901831E-02  0.21599506923E-01  0.99513806412E-02  0.10200644131E+01  0.10197851934E+01 0.  0.
     999903    2    3    3    0    0 -0.55995128045E-01  0.36300204840E-01 -0.10997166658E+00  0.13016937016E+00  0.19928327638E-01 0.  0.
         14    1    1    2    0    0  0.19993901831E-02 -0.21599506923E-01 -0.99513806412E-02  0.23865586880E-01  0.00000000000E+00 0. -1.
     999901    1    3    3    0    0  0.53995737861E-01 -0.14700697917E-01  0.11992304722E+00  0.88989504296E+00  0.88000000000E+00 0. -1.
        -11    1    4    4    0    0 -0.50839964467E-02  0.83146123425E-02 -0.28345073749E-01  0.29978060730E-01  0.51100000000E-03 0. -1.
         11    1    4    4    0    0 -0.50911131598E-01  0.27985592498E-01 -0.81626592829E-01  0.10019130943E+00  0.51100000000E-03 0.  1.
</event>
<event>
 8    1  0.1109553E+005  0.1043930E+01  0.7957747E-01            NaN
         13   -1    0    0    0    0  0.00000000000E+00  0.00000000000E+00  0.74505805969E-08  0.10566000000E+00  0.10566000000E+00 0.  1.
     999900   -1    0    0    0    0 -0.00000000000E+00 -0.00000000000E+00 -0.74505805969E-08  0.93827000000E+00  0.93827000000E+00 0.  1.
     999902    2    1    2    0    0  0.57414820867E-02 -0.86413273935E-02 -0.22066405966E-01  0.10195463287E+01  0.10192547046E+01 0.  0.
     999903    2    3    3    0    0 -0.20155157074E-01 -0.10925996558E+00  0.63437452404E-01  0.12931846117E+00  0.18841008334E-01 0.  0.
         14    1    1    2    0    0 -0.57414820867E-02  0.86413273935E-02  0.22066405966E-01  0.24383671339E-01  0.00000000000E+00 0.  1.
     999901    1    3    3    0    0  0.25896639161E-01  0.10061863819E+00 -0.85503858370E-01  0.89022786750E+00  0.88000000000E+00 0.  1.
        -11    1    4    4    0    0 -0.15361132626E-01 -0.38605326346E-01  0.28194554579E-01  0.50214834927E-01  0.51100000000E-03 0.  1.
         11    1    4    4    0    0 -0.47940244482E-02 -0.70654639236E-01  0.35242897825E-01  0.79103626238E-01  0.51100000000E-03 0. -1.
</event>
<event>
 8    1  0.1109553E+005  0.1043930E+01  0.7957747E-01            NaN
         13   -1    0    0    0    0  0.00000000000E+00  0.00000000000E+00  0.74505805969E-08  0.10566000000E+00  0.10566000000E+00 0. -1.
     999900   -1    0    0    0    0 -0.00000000000E+00 -0.00000000000E+00 -0.74505805969E-08  0.93827000000E+00  0.93827000000E+00 0. -1.
     999902    2    1    2    0    0 -0.14341803912E-01  0.65001231186E-03  0.21444146852E-02  0.10294142027E+01  0.10293118538E+01 0.  0.
     999903    2    3    3    0    0  0.15987673782E-01  0.13462871181E+00 -0.19893452811E-01  0.13848444304E+00  0.20042348688E-01 0.  0.
         14    1    1    2    0    0  0.14341803912E-01 -0.65001231186E-03 -0.21444146852E-02  0.14515797250E-01  0.00000000000E+00 0. -1.
     999901    1    3    3    0    0 -0.30329477694E-01 -0.13397869950E+00  0.22037867496E-01  0.89092975971E+00  0.88000000000E+00 0.  1.
        -11    1    4    4    0    0 -0.16001867650E-02  0.36934409839E-01 -0.12145404343E-01  0.38916361539E-01  0.51100000000E-03 0.  1.
         11    1    4    4    0    0  0.17587860547E-01  0.97694301976E-01 -0.77480484676E-02  0.99568081498E-01  0.51100000000E-03 0. -1.
</event>
<event>
 8    1  0.1109553E+005  0.1043930E+01  0.7957747E-01            NaN
         13   -1    0    0    0    0  0.00000000000E+00  0.00000000000E+00  0.74505805969E-08  0.10566000000E+00  0.10566000000E+00 0. -1.
     999900   -1    0    0    0    0 -0.00000000000E+00 -0.00000000000E+00 -0.74505805969E-08  0.93827000000E+00  0.93827000000E+00 0. -1.
     999902    2    1    2    0    0 -0.12506337702E-01  0.91466114028E-02  0.19061597762E-01  0.10193655238E+01  0.10190695058E+01 0.  0.
     999903    2    3    3    0    0  0.41909784396E-01  0.89982094789E-01  0.84005592186E-01  0.13160811765E+00  0.20262026123E-01 0.  0.
         14    1    1    2    0    0  0.12506337702E-01 -0.91466114028E-02 -0.19061597762E-01  0.24564476223E-01  0.00000000000E+00 0.  1.
     999901    1    3    3    0    0 -0.54416122098E-01 -0.80835483387E-01 -0.64943994423E-01  0.88775740613E+00  0.88000000000E+00 0. -1.
        -11    1    4    4    0    0  0.36709566142E-01  0.71106652442E-01  0.57006907510E-01  0.98253737296E-01  0.51100000000E-03 0.  1.
         11    1    4    4    0    0  0.52002182547E-02  0.18875442347E-01  0.26998684675E-01  0.33354380355E-01  0.51100000000E-03 0. -1.
</event>
<event>
 8    1  0.1109553E+005  0.1043930E+01  0.7957747E-01            NaN
         13   -1    0    0    0    0  0.00000000000E+00  0.00000000000E+00  0.74505805969E-08  0.10566000000E+00  0.10566000000E+00 0.  1.
     999900   -1    0    0    0    0 -0.00000000000E+00 -0.00000000000E+00 -0.74505805969E-08  0.93827000000E+00  0.93827000000E+00 0.  1.
     999902    2    1    2    0    0  0.12852929635E-01 -0.88634814922E-02  0.16167989071E-01  0.10214541691E+01  0.10212068628E+01 0.  0.
     999903    2    3    3    0    0 -0.12117744687E+00  0.41421202889E-01  0.10841391480E-04  0.12974023249E+00  0.20804762218E-01 0.  0.
         14    1    1    2    0    0 -0.12852929635E-01  0.88634814922E-02 -0.16167989071E-01  0.22475830907E-01  0.00000000000E+00 0. -1.
     999901    1    3    3    0    0  0.13403037650E+00 -0.50284684381E-01  0.16157147680E-01  0.89171393660E+00  0.88000000000E+00 0. -1.
        -11    1    4    4    0    0 -0.67059630882E-01  0.12230314796E-01  0.23061393442E-02  0.68206701238E-01  0.51100000000E-03 0.  1.
         11    1    4    4    0    0 -0.54117815986E-01  0.29190888093E-01 -0.22952979527E-02  0.61533531253E-01  0.51100000000E-03 0. -1.
</event>
<event>
 8    1  0.1109553E+005  0.1043930E+01  0.7957747E-01            NaN
         13   -1    0    0    0    0  0.00000000000E+00  0.00000000000E+00  0.74505805969E-08  0.10566000000E+00  0.10566000000E+00 0.  1.
     999900   -1    0    0    0    0 -0.00000000000E+00 -0.00000000000E+00 -0.74505805969E-08  0.93827000000E+00  0.93827000000E+00 0.  1.
     999902    2    1    2    0    0 -0.73769748530E-03 -0.23188115969E-01 -0.31012508609E-02  0.10205237898E+01  0.10202553381E+01 0.  0.
     999903    2    3    3    0    0  0.50771220603E-01  0.18259071323E-01  0.11652787674E+00  0.12997218199E+00  0.20072655688E-01 0.  0.
         14    1    1    2    0    0  0.73769748530E-03  0.23188115969E-01  0.31012508609E-02  0.23406210216E-01  0.00000000000E+00 0.  1.
     999901    1    3    3    0    0 -0.51508918088E-01 -0.41447187291E-01 -0.11962912760E+00  0.89055160780E+00  0.88000000000E+00 0.  1.
        -11    1    4    4    0    0  0.14802125396E-01 -0.35447216346E-02  0.25634342227E-01  0.29816917851E-01  0.51100000000E-03 0.  1.
         11    1    4    4    0    0  0.35969095207E-01  0.21803792957E-01  0.90893534513E-01  0.10015526414E+00  0.51100000000E-03 0. -1.
</event>
<event>
 8    1  0.1109553E+005  0.1043930E+01  0.7957747E-01            NaN
         13   -1    0    0    0    0  0.00000000000E+00  0.00000000000E+00  0.74505805969E-08  0.10566000000E+00  0.10566000000E+00 0. -1.
     999900   -1    0    0    0    0 -0.00000000000E+00 -0.00000000000E+00 -0.74505805969E-08  0.93827000000E+00  0.93827000000E+00 0. -1.
     999902    2    1    2    0    0 -0.16421314457E-01 -0.88281368000E-02 -0.14227989481E-01  0.10204772549E+01  0.10202077222E+01 0.  0.
     999903    2    3    3    0    0 -0.11666751939E+00 -0.48199528345E-01  0.35043281377E-01  0.13254309845E+00  0.20128009418E-01 0.  0.
         14    1    1    2    0    0  0.16421314457E-01  0.88281368000E-02  0.14227989481E-01  0.23452745096E-01  0.00000000000E+00 0. -1.
     999901    1    3    3    0    0  0.10024620493E+00  0.39371391545E-01 -0.49271270857E-01  0.88793415646E+00  0.88000000000E+00 0.  1.
        -11    1    4    4    0    0 -0.49531307259E-01 -0.20207470099E-01  0.46168994830E-02  0.53696081128E-01  0.51100000000E-03 0.  1.
         11    1    4    4    0    0 -0.67136212128E-01 -0.27992058246E-01  0.30426381894E-01  0.78847017318E-01  0.51100000000E-03 0. -1.
</event>
<event>
 8    1  0.1109553E+005  0.1043930E+01  0.7957747E-01            NaN
         13   -1    0    0    0    0  0.00000000000E+00  0.00000000000E+00  0.74505805969E-08  0.10566000000E+00  0.10566000000E+00 0.  1.
     999900   -1    0    0    0    0 -0.00000000000E+00 -0.00000000000E+00 -0.74505805969E-08  0.93827000000E+00  0.93827000000E+00 0.  1.
     999902    2    1    2    0    0 -0.11159584190E-01 -0.18125819614E-01 -0.51705847051E-02  0.10220252836E+01  0.10217905185E+01 0.  0.
     999903    2    3    3    0    0  0.82451578830E-01  0.87441451703E-01 -0.45053578258E-01  0.12989404222E+00  0.19959132284E-01 0.  0.
         14    1    1    2    0    0  0.11159584190E-01  0.18125819614E-01  0.51705847051E-02  0.21904716436E-01  0.00000000000E+00 0. -1.
     999901    1    3    3    0    0 -0.93611163020E-01 -0.10556727132E+00  0.39882993553E-01  0.89213124135E+00  0.88000000000E+00 0.  1.
        -11    1    4    4    0    0  0.39389385539E-01  0.27914922769E-01 -0.15592461315E-01  0.50736107234E-01  0.51100000000E-03 0.  1.
         11    1    4    4    0    0  0.43062193291E-01  0.59526528934E-01 -0.29461116943E-01  0.79157934981E-01  0.51100000000E-03 0. -1.
</event>
<event>
 8    1  0.1109553E+005  0.1043930E+01  0.7957747E-01            NaN
         13   -1    0    0    0    0  0.00000000000E+00  0.00000000000E+00  0.74505805969E-08  0.10566000000E+00  0.10566000000E+00 0. -1.
     999900   -1    0    0    0    0 -0.00000000000E+00 -0.00000000000E+00 -0.74505805969E-08  0.93827000000E+00  0.93827000000E+00 0.  1.
     999902    2    1    2    0    0  0.39938845809E-03 -0.23303018427E-01  0.20880115814E-02  0.10205302143E+01  0.10202619116E+01 0.  0.
     999903    2    3    3    0    0 -0.52835577762E-02  0.44623776064E-01  0.12042109449E+00  0.12999719199E+00  0.19463621319E-01 0.  0.
         14    1    1    2    0    0 -0.39938845809E-03  0.23303018427E-01 -0.20880115814E-02  0.23399785711E-01  0.00000000000E+00 0.  1.
     999901    1    3    3    0    0  0.56829462343E-02 -0.67926794491E-01 -0.11833308291E+00  0.89053302230E+00  0.88000000000E+00 0.  1.
        -11    1    4    4    0    0 -0.12303146985E-01  0.22535950780E-01  0.67563711258E-01  0.72279683890E-01  0.51100000000E-03 0.  1.
         11    1    4    4    0    0  0.70195892089E-02  0.22087825285E-01  0.52857383233E-01  0.57717508104E-01  0.51100000000E-03 0. -1.
</event>
<event>
 8    1  0.1109553E+005  0.1043930E+01  0.7957747E-01            NaN
         13   -1    0    0    0    0  0.00000000000E+00  0.00000000000E+00  0.74505805969E-08  0.10566000000E+00  0.10566000000E+00 0.  1.
     999900   -1    0    0    0    0 -0.00000000000E+00 -0.00000000000E+00 -0.74505805969E-08  0.93827000000E+00  0.93827000000E+00 0.  1.
     999902    2    1    2    0    0  0.84608278573E-02 -0.21071332245E-01 -0.77837739453E-02  0.10199263797E+01  0.10196438821E+01 0.  0.
     999903    2    3    3    0    0 -0.67293218656E-01  0.29471924925E-01 -0.10512814326E+00  0.12988749142E+00  0.20539286443E-01 0.  0.
         14    1    1    2    0    0 -0.84608278573E-02  0.21071332245E-01  0.77837739453E-02  0.24003620298E-01  0.00000000000E+00 0.  1.
     999901    1    3    3    0    0  0.75754046513E-01 -0.50543257169E-01  0.97344369314E-01  0.89003888828E+00  0.88000000000E+00 0. -1.
        -11    1    4    4    0    0 -0.56372941958E-01  0.26003256318E-01 -0.99072997897E-01  0.11691791119E+00  0.51100000000E-03 0.  1.
         11    1    4    4    0    0 -0.10920276698E-01  0.34686686070E-02 -0.60551453623E-02  0.12969580233E-01  0.51100000000E-03 0. -1.
</event>
<event>
 8    1  0.1109553E+005  0.1043930E+01  0.7957747E-01            NaN
         13   -1    0    0    0    0  0.00000000000E+00  0.00000000000E+00  0.74505805969E-08  0.10566000000E+00  0.10566000000E+00 0.  1.
     999900   -1    0    0    0    0 -0.00000000000E+00 -0.00000000000E+00 -0.74505805969E-08  0.93827000000E+00  0.93827000000E+00 0. -1.
     999902    2    1    2    0    0 -0.11898512548E-01 -0.13341085715E-01  0.15261579571E-01  0.10204252137E+01  0.10201544695E+01 0.  0.
     999903    2    3    3    0    0  0.30734735502E-01  0.24143004759E-01  0.12435706790E+00  0.13187331511E+00  0.19959515449E-01 0.  0.
         14    1    1    2    0    0  0.11898512548E-01  0.13341085715E-01 -0.15261579571E-01  0.23504786319E-01  0.00000000000E+00 0. -1.
     999901    1    3    3    0    0 -0.42633248050E-01 -0.37484090474E-01 -0.10909548833E+00  0.88855189857E+00  0.88000000000E+00 0. -1.
        -11    1    4    4    0    0  0.50320079002E-02  0.12721648219E-01  0.61551354688E-01  0.63055466233E-01  0.51100000000E-03 0.  1.
         11    1    4    4    0    0  0.25702727601E-01  0.11421356540E-01  0.62805713211E-01  0.68817848879E-01  0.51100000000E-03 0. -1.
</event>
<event>
 8    1  0.1109553E+005  0.1043930E+01  0.7957747E-01            NaN
         13   -1    0    0    0    0  0.00000000000E+00  0.00000000000E+00  0.74505805969E-08  0.10566000000E+00  0.10566000000E+00 0.  1.
     999900   -1    0    0    0    0 -0.00000000000E+00 -0.00000000000E+00 -0.74505805969E-08  0.93827000000E+00  0.93827000000E+00 0. -1.
     999902    2    1    2    0    0 -0.62714712563E-02  0.15023851428E-01 -0.20503801275E-01  0.10177488363E+01  0.10174120309E+01 0.  0.
     999903    2    3    3    0    0 -0.51981871868E-01 -0.71790123370E-01  0.86712230494E-01  0.12582878140E+00  0.21399404104E-01 0.  0.
         14    1    1    2    0    0  0.62714712563E-02 -0.15023851428E-01  0.20503801275E-01  0.26181163652E-01  0.00000000000E+00 0.  1.
     999901    1    3    3    0    0  0.45710400612E-01  0.86813974798E-01 -0.10721603177E+00  0.89192005494E+00  0.88000000000E+00 0. -1.
        -11    1    4    4    0    0 -0.27830825834E-01 -0.22458061122E-01  0.40634011560E-01  0.54132276808E-01  0.51100000000E-03 0.  1.
         11    1    4    4    0    0 -0.24151046034E-01 -0.49332062248E-01  0.46078218934E-01  0.71696504596E-01  0.51100000000E-03 0. -1.
</event>
<event>
 8    1  0.1109553E+005  0.1043930E+01  0.7957747E-01            NaN
         13   -1    0    0    0    0  0.00000000000E+00  0.00000000000E+00  0.74505805969E-08  0.10566000000E+00  0.10566000000E+00 0.  1.
     999900   -1    0    0    0    0 -0.00000000000E+00 -0.00000000000E+00 -0.74505805969E-08  0.93827000000E+00  0.93827000000E+00 0.  1.
     999902    2    1    2    0    0 -0.14953588136E-01  0.11975210578E-01 -0.14486189726E-01  0.10199119826E+01  0.10196291420E+01 0.  0.
     999903    2    3    3    0    0  0.10029707299E+00 -0.66317917508E-01 -0.40947047083E-01  0.12855756053E+00  0.19819603180E-01 0.  0.
         14    1    1    2    0    0  0.14953588136E-01 -0.11975210578E-01  0.14486189726E-01  0.24018017389E-01  0.00000000000E+00 0.  1.
     999901    1    3    3    0    0 -0.11525066113E+00  0.78293128086E-01  0.26460857357E-01  0.89135442208E+00  0.88000000000E+00 0. -1.
        -11    1    4    4    0    0  0.56257901036E-01 -0.28281013361E-01 -0.28145115762E-01  0.68972282896E-01  0.51100000000E-03 0. -1.
         11    1    4    4    0    0  0.44039171958E-01 -0.38036904147E-01 -0.12801931322E-01  0.59585277631E-01  0.51100000000E-03 0.  1.
</event>
<event>
 8    1  0.1109553E+005  0.1043930E+01  0.7957747E-01            NaN
         13   -1    0    0    0    0  0.00000000000E+00  0.00000000000E+00  0.74505805969E-08  0.10566000000E+00  0.10566000000E+00 0.  1.
     999900   -1    0    0    0    0 -0.00000000000E+00 -0.00000000000E+00 -0.74505805969E-08  0.93827000000E+00  0.93827000000E+00 0. -1.
     999902    2    1    2    0    0  0.13108476653E-02  0.22650462843E-01  0.66347673670E-02  0.10202914314E+01  0.10200175601E+01 0.  0.
     999903    2    3    3    0    0  0.28750911996E-01  0.64045332597E-01 -0.10837988062E+00  0.13141862741E+00  0.24417975749E-01 0.  0.
         14    1    1    2    0    0 -0.13108476653E-02 -0.22650462843E-01 -0.66347673670E-02  0.23638568624E-01  0.00000000000E+00 0.  1.
     999901    1    3    3    0    0 -0.27440064331E-01 -0.41394869755E-01  0.11501464799E+00  0.88887280396E+00  0.88000000000E+00 0.  1.
        -11    1    4    4    0    0  0.15744511122E-01  0.17235096385E-01 -0.51937153835E-01  0.56944422443E-01  0.51100000000E-03 0. -1.
         11    1    4    4    0    0  0.13006400874E-01  0.46810236212E-01 -0.56442726786E-01  0.74474204970E-01  0.51100000000E-03 0.  1.
</event>
<event>
 8    1  0.1109553E+005  0.1043930E+01  0.7957747E-01            NaN
         13   -1    0    0    0    0  0.00000000000E+00  0.00000000000E+00  0.74505805969E-08  0.10566000000E+00  0.10566000000E+00 0.  1.
     999900   -1    0    0    0    0 -0.00000000000E+00 -0.00000000000E+00 -0.74505805969E-08  0.93827000000E+00  0.93827000000E+00 0. -1.
     999902    2    1    2    0    0  0.18974343930E-01 -0.89996534061E-03  0.13761044404E-01  0.10204736148E+01  0.10202039975E+01 0.  0.
     999903    2    3    3    0    0 -0.18848195678E-01 -0.11863991015E+00 -0.41260170098E-01  0.13012504642E+00  0.28274428525E-01 0.  0.
         14    1    1    2    0    0 -0.18974343930E-01  0.89996534061E-03 -0.13761044404E-01  0.23456385235E-01  0.00000000000E+00 0.  1.
     999901    1    3    3    0    0  0.37822539608E-01  0.11773994481E+00  0.55021214502E-01  0.89034856834E+00  0.88000000000E+00 0.  1.
        -11    1    4    4    0    0 -0.25918023811E-01 -0.79390481282E-01 -0.27130792517E-01  0.87811921172E-01  0.51100000000E-03 0.  1.
         11    1    4    4    0    0  0.70698281334E-02 -0.39249428871E-01 -0.14129377581E-01  0.42313125249E-01  0.51100000000E-03 0. -1.
</event>
<event>
 8    1  0.1109553E+005  0.1043930E+01  0.7957747E-01            NaN
         13   -1    0    0    0    0  0.00000000000E+00  0.00000000000E+00  0.74505805969E-08  0.10566000000E+00  0.10566000000E+00 0. -1.
     999900   -1    0    0    0    0 -0.00000000000E+00 -0.00000000000E+00 -0.74505805969E-08  0.93827000000E+00  0.93827000000E+00 0. -1.
     999902    2    1    2    0    0  0.19907346087E-01  0.15910409033E-01 -0.43444994968E-02  0.10180781486E+01  0.10177498703E+01 0.  0.
     999903    2    3    3    0    0 -0.69707653096E-01  0.90684455165E-01  0.54756146116E-01  0.12840692150E+00  0.20181046633E-01 0.  0.
         14    1    1    2    0    0 -0.19907346087E-01 -0.15910409033E-01  0.43444994968E-02  0.25851851379E-01  0.00000000000E+00 0.  1.
     999901    1    3    3    0    0  0.89614999183E-01 -0.74774046132E-01 -0.59100645613E-01  0.88967122712E+00  0.88000000000E+00 0. -1.
        -11    1    4    4    0    0 -0.11109687212E-01  0.21452495479E-01  0.19657044788E-01  0.31149562485E-01  0.51100000000E-03 0. -1.
         11    1    4    4    0    0 -0.58597965884E-01  0.69231959686E-01  0.35099101328E-01  0.97257359016E-01  0.51100000000E-03 0.  1.
</event>
<event>
 8    1  0.1109553E+005  0.1043930E+01  0.7957747E-01            NaN
         13   -1    0    0    0    0  0.00000000000E+00  0.00000000000E+00  0.74505805969E-08  0.10566000000E+00  0.10566000000E+00 0.  1.
     999900   -1    0    0    0    0 -0.00000000000E+00 -0.00000000000E+00 -0.74505805969E-08  0.93827000000E+00  0.93827000000E+00 0.  1.
     999902    2    1    2    0    0 -0.58118214676E-02  0.36871259472E-02  0.22845902787E-01  0.10200698357E+01  0.10197907443E+01 0.  0.
     999903    2    3    3    0    0  0.10698316307E+00  0.61439238397E-01 -0.32970230694E-01  0.12924243615E+00  0.19909645726E-01 0.  0.
         14    1    1    2    0    0  0.58118214676E-02 -0.36871259472E-02 -0.22845902787E-01  0.23860164306E-01  0.00000000000E+00 0. -1.
     999901    1    3    3    0    0 -0.11279498454E+00 -0.57752112450E-01  0.55816133481E-01  0.89082739955E+00  0.88000000000E+00 0.  1.
        -11    1    4    4    0    0  0.54261966888E-01  0.19740287414E-01 -0.14833288333E-01  0.59618181468E-01  0.51100000000E-03 0.  1.
         11    1    4    4    0    0  0.52721196185E-01  0.41698950983E-01 -0.18136942361E-01  0.69624254678E-01  0.51100000000E-03 0. -1.
</event>
<event>
 8    1  0.1109553E+005  0.1043930E+01  0.7957747E-01            NaN
         13   -1    0    0    0    0  0.00000000000E+00  0.00000000000E+00  0.74505805969E-08  0.10566000000E+00  0.10566000000E+00 0.  1.
     999900   -1    0    0    0    0 -0.00000000000E+00 -0.00000000000E+00 -0.74505805969E-08  0.93827000000E+00  0.93827000000E+00 0. -1.
     999902    2    1    2    0    0 -0.94564328119E-02 -0.16907198679E-01  0.85060398192E-02  0.10227727270E+01  0.10225538718E+01 0.  0.
     999903    2    3    3    0    0  0.75531056224E-01 -0.56888892092E-01  0.92867632266E-01  0.13376300409E+00  0.18079204667E-01 0.  0.
         14    1    1    2    0    0  0.94564328119E-02  0.16907198679E-01 -0.85060398192E-02  0.21157273031E-01  0.00000000000E+00 0. -1.
     999901    1    3    3    0    0 -0.84987489036E-01  0.39981693413E-01 -0.84361592447E-01  0.88900972288E+00  0.88000000000E+00 0.  1.
        -11    1    4    4    0    0  0.40171660950E-01 -0.34711403378E-01  0.40399206800E-01  0.66715821954E-01  0.51100000000E-03 0.  1.
         11    1    4    4    0    0  0.35359395274E-01 -0.22177488714E-01  0.52468425466E-01  0.67047182131E-01  0.51100000000E-03 0. -1.
</event>
<event>
 8    1  0.1109553E+005  0.1043930E+01  0.7957747E-01            NaN
         13   -1    0    0    0    0  0.00000000000E+00  0.00000000000E+00  0.74505805969E-08  0.10566000000E+00  0.10566000000E+00 0.  1.
     999900   -1    0    0    0    0 -0.00000000000E+00 -0.00000000000E+00 -0.74505805969E-08  0.93827000000E+00  0.93827000000E+00 0. -1.
     999902    2    1    2    0    0  0.19408098797E-01 -0.11475761556E-01  0.69249478622E-02  0.10203435144E+01  0.10200708627E+01 0.  0.
     999903    2    3    3    0    0  0.10535643027E+00 -0.15834260077E-01  0.77838432719E-01  0.13330640435E+00  0.19001964116E-01 0.  0.
         14    1    1    2    0    0 -0.19408098797E-01  0.11475761556E-01 -0.69249478622E-02  0.23586485646E-01  0.00000000000E+00 0.  1.
     999901    1    3    3    0    0 -0.85948331475E-01  0.43584985213E-02 -0.70913484857E-01  0.88703711001E+00  0.88000000000E+00 0. -1.
        -11    1    4    4    0    0  0.25515273132E-01 -0.12184488257E-01  0.21320389397E-01  0.35416253926E-01  0.51100000000E-03 0.  1.
         11    1    4    4    0    0  0.79841157141E-01 -0.36497718197E-02  0.56518043322E-01  0.97890150423E-01  0.51100000000E-03 0. -1.
</event>
<event>
 8    1  0.1109553E+005  0.1043930E+01  0.7957747E-01            NaN
         13   -1    0    0    0    0  0.00000000000E+00  0.00000000000E+00  0.74505805969E-08  0.10566000000E+00  0.10566000000E+00 0.  1.
     999900   -1    0    0    0    0 -0.00000000000E+00 -0.00000000000E+00 -0.74505805969E-08  0.93827000000E+00  0.93827000000E+00 0.  1.
     999902    2    1    2    0    0  0.39278784820E-02  0.16978979349E-02  0.23741005962E-01  0.10198064337E+01  0.10195210718E+01 0.  0.
     999903    2    3    3    0    0  0.40141502181E-01 -0.82511475058E-01 -0.87250850371E-01  0.12811038840E+00  0.19495563892E-01 0.  0.
         14    1    1    2    0    0 -0.39278784820E-02 -0.16978979349E-02 -0.23741005962E-01  0.24123566296E-01  0.00000000000E+00 0. -1.
     999901    1    3    3    0    0 -0.36213623699E-01  0.84209372993E-01  0.11099185633E+00  0.89169604531E+00  0.88000000000E+00 0. -1.
        -11    1    4    4    0    0  0.30040283439E-01 -0.61113620648E-01 -0.52142671130E-01  0.85769531486E-01  0.51100000000E-03 0. -1.
         11    1    4    4    0    0  0.10101218742E-01 -0.21397854411E-01 -0.35108179240E-01  0.42340856912E-01  0.51100000000E-03 0.  1.
</event>
<event>
 8    1  0.1109553E+005  0.1043930E+01  0.7957747E-01            NaN
         13   -1    0    0    0    0  0.00000000000E+00  0.00000000000E+00  0.74505805969E-08  0.10566000000E+00  0.10566000000E+00 0. -1.
     999900   -1    0    0    0    0 -0.00000000000E+00 -0.00000000000E+00 -0.74505805969E-08  0.93827000000E+00  0.93827000000E+00 0. -1.
     999902    2    1    2    0    0  0.15042649763E-01  0.11883544520E-01  0.16228666150E-01  0.10188128834E+01  0.10185032262E+01 0.  0.
     999903    2    3    3    0    0 -0.19125067608E-01  0.69513711237E-01  0.10773419339E+00  0.13153506300E+00  0.22291076935E-01 0.  0.
         14    1    1    2    0    0 -0.15042649763E-01 -0.11883544520E-01 -0.16228666150E-01  0.25117116619E-01  0.00000000000E+00 0.  1.
     999901    1    3    3    0    0  0.34167717371E-01 -0.57630166717E-01 -0.91505527243E-01  0.88727782038E+00  0.88000000000E+00 0. -1.
        -11    1    4    4    0    0 -0.34433930225E-03  0.15519517066E-01  0.10527974324E-01  0.18763617559E-01  0.51100000000E-03 0. -1.
         11    1    4    4    0    0 -0.18780728306E-01  0.53994194171E-01  0.97206219069E-01  0.11277144544E+00  0.51100000000E-03 0.  1.
</event>
<event>
 8    1  0.1109553E+005  0.1043930E+01  0.7957747E-01            NaN
         13   -1    0    0    0    0  0.00000000000E+00  0.00000000000E+00  0.74505805969E-08  0.10566000000E+00  0.10566000000E+00 0. -1.
     999900   -1    0    0    0    0 -0.00000000000E+00 -0.00000000000E+00 -0.74505805969E-08  0.93827000000E+00  0.93827000000E+00 0.  1.
     999902    2    1    2    0    0  0.29531955515E-03  0.75989447920E-02 -0.22318360227E-01  0.10203516120E+01  0.10200791498E+01 0.  0.
     999903    2    3    3    0    0  0.54616135307E-01 -0.95485257413E-01  0.61747124693E-01  0.12869915198E+00  0.25503091866E-01 0.  0.
         14    1    1    2    0    0 -0.29531955515E-03 -0.75989447920E-02  0.22318360227E-01  0.23578387960E-01  0.00000000000E+00 0. -1.
     999901    1    3    3    0    0 -0.54320815752E-01  0.10308420220E+00 -0.84065484919E-01  0.89165246006E+00  0.88000000000E+00 0. -1.
        -11    1    4    4    0    0  0.19131851950E-01 -0.17758726273E-01  0.63567772041E-02  0.26871357526E-01  0.51100000000E-03 0. -1.
         11    1    4    4    0    0  0.35484283357E-01 -0.77726531140E-01  0.55390347489E-01  0.10182779446E+00  0.51100000000E-03 0.  1.
</event>
<event>
 8    1  0.1109553E+005  0.1043930E+01  0.7957747E-01            NaN
         13   -1    0    0    0    0  0.00000000000E+00  0.00000000000E+00  0.74505805969E-08  0.10566000000E+00  0.10566000000E+00 0.  1.
     999900   -1    0    0    0    0 -0.00000000000E+00 -0.00000000000E+00 -0.74505805969E-08  0.93827000000E+00  0.93827000000E+00 0. -1.
     999902    2    1    2    0    0 -0.14604128740E-01  0.13180998425E-01 -0.13051257358E-01  0.10203216410E+01  0.10200484775E+01 0.  0.
     999903    2    3    3    0    0  0.12104239839E+00 -0.15108520742E-01  0.33508660057E-01  0.12826328914E+00  0.21192249431E-01 0.  0.
         14    1    1    2    0    0  0.14604128740E-01 -0.13180998425E-01  0.13051257358E-01  0.23608358994E-01  0.00000000000E+00 0.  1.
     999901    1    3    3    0    0 -0.13564652713E+00  0.28289519167E-01 -0.46559917415E-01  0.89205835186E+00  0.88000000000E+00 0. -1.
        -11    1    4    4    0    0  0.52541959484E-01 -0.89121916616E-02  0.25293434154E-01  0.58992402891E-01  0.51100000000E-03 0.  1.
         11    1    4    4    0    0  0.68500438908E-01 -0.61963290805E-02  0.82152259027E-02  0.69270886253E-01  0.51100000000E-03 0. -1.
</event>
<event>
 8    1  0.1109553E+005  0.1043930E+01  0.7957747E-01            NaN
         13   -1    0    0    0    0  0.00000000000E+00  0.00000000000E+00  0.74505805969E-08  0.10566000000E+00  0.10566000000E+00 0.  1.
     999900   -1    0    0    0    0 -0.00000000000E+00 -0.00000000000E+00 -0.74505805969E-08  0.93827000000E+00  0.93827000000E+00 0. -1.
     999902    2    1    2    0    0  0.54228206910E-02 -0.18664872660E-01 -0.14907210160E-01  0.10194349113E+01  0.10191405835E+01 0.  0.
     999903    2    3    3    0    0  0.58928399154E-01  0.45339599848E-01  0.10222726101E+00  0.12776237961E+00  0.18562790971E-01 0.  0.
         14    1    1    2    0    0 -0.54228206910E-02  0.18664872660E-01  0.14907210160E-01  0.24495088700E-01  0.00000000000E+00 0.  1.
     999901    1    3    3    0    0 -0.53505578463E-01 -0.64004472509E-01 -0.11713447117E+00  0.89167253169E+00  0.88000000000E+00 0. -1.
        -11    1    4    4    0    0  0.31004784838E-01  0.14385320340E-01  0.37225525022E-01  0.50539439632E-01  0.51100000000E-03 0.  1.
         11    1    4    4    0    0  0.27923614316E-01  0.30954279509E-01  0.65001735991E-01  0.77222939981E-01  0.51100000000E-03 0. -1.
</event>
<event>
 8    1  0.1109553E+005  0.1043930E+01  0.7957747E-01            NaN
         13   -1    0    0    0    0  0.00000000000E+00  0.00000000000E+00  0.74505805969E-08  0.10566000000E+00  0.10566000000E+00 0.  1.
     999900   -1    0    0    0    0 -0.00000000000E+00 -0.00000000000E+00 -0.74505805969E-08  0.93827000000E+00  0.93827000000E+00 0.  1.
     999902    2    1    2    0    0 -0.17659152212E-01 -0.16475703381E-01 -0.85147267384E-02  0.10183215047E+01  0.10179994558E+01 0.  0.
     999903    2    3    3    0    0  0.14686495991E-01  0.88816251804E-01 -0.88105798274E-01  0.12789049928E+00  0.22120767814E-01 0.  0.
         14    1    1    2    0    0  0.17659152212E-01  0.16475703381E-01  0.85147267384E-02  0.25608495274E-01  0.00000000000E+00 0.  1.
     999901    1    3    3    0    0 -0.32345648203E-01 -0.10529195518E+00  0.79591071536E-01  0.89043100544E+00  0.88000000000E+00 0. -1.
        -11    1    4    4    0    0  0.15130302469E-01  0.29894852317E-01 -0.36660206895E-01  0.49667495794E-01  0.51100000000E-03 0.  1.
         11    1    4    4    0    0 -0.44380647878E-03  0.58921399487E-01 -0.51445591379E-01  0.78223003490E-01  0.51100000000E-03 0. -1.
</event>
<event>
 8    1  0.1109553E+005  0.1043930E+01  0.7957747E-01            NaN
         13   -1    0    0    0    0  0.00000000000E+00  0.00000000000E+00  0.74505805969E-08  0.10566000000E+00  0.10566000000E+00 0. -1.
     999900   -1    0    0    0    0 -0.00000000000E+00 -0.00000000000E+00 -0.74505805969E-08  0.93827000000E+00  0.93827000000E+00 0.  1.
     999902    2    1    2    0    0 -0.16723789267E-01 -0.12663078621E-01 -0.51478300325E-03  0.10229465854E+01  0.10227313493E+01 0.  0.
     999903    2    3    3    0    0  0.55899694839E-01  0.48735230950E-01 -0.10691065455E+00  0.13145120999E+00  0.18698500821E-01 0.  0.
         14    1    1    2    0    0  0.16723789267E-01  0.12663078621E-01  0.51478300325E-03  0.20983414621E-01  0.00000000000E+00 0.  1.
     999901    1    3    3    0    0 -0.72623484106E-01 -0.61398309571E-01  0.10639587154E+00  0.89149537539E+00  0.88000000000E+00 0. -1.
        -11    1    4    4    0    0  0.72453034099E-02  0.39400833577E-02 -0.24064460800E-01  0.25443625390E-01  0.51100000000E-03 0.  1.
         11    1    4    4    0    0  0.48654391429E-01  0.44795147592E-01 -0.82846193746E-01  0.10600758460E+00  0.51100000000E-03 0. -1.
</event>
<event>
 8    1  0.1109553E+005  0.1043930E+01  0.7957747E-01            NaN
         13   -1    0    0    0    0  0.00000000000E+00  0.00000000000E+00  0.74505805969E-08  0.10566000000E+00  0.10566000000E+00 0. -1.
     999900   -1    0    0    0    0 -0.00000000000E+00 -0.00000000000E+00 -0.74505805969E-08  0.93827000000E+00  0.93827000000E+00 0. -1.
     999902    2    1    2    0    0 -0.17379701334E-01  0.17314567473E-02  0.16991079178E-01  0.10195630401E+01  0.10192718205E+01 0.  0.
     999903    2    3    3    0    0  0.64784348582E-01 -0.10597645156E+00  0.29771515215E-01  0.12910514437E+00  0.18808909511E-01 0.  0.
         14    1    1    2    0    0  0.17379701334E-01 -0.17314567473E-02 -0.16991079178E-01  0.24366959855E-01  0.00000000000E+00 0.  1.
     999901    1    3    3    0    0 -0.82164049917E-01  0.10770790831E+00 -0.12780436036E-01  0.89045789578E+00  0.88000000000E+00 0. -1.
        -11    1    4    4    0    0  0.43062540291E-01 -0.84296093052E-01  0.18797526338E-01  0.96508143686E-01  0.51100000000E-03 0. -1.
         11    1    4    4    0    0  0.21721808291E-01 -0.21680358507E-01  0.10973988877E-01  0.32597000680E-01  0.51100000000E-03 0.  1.
</event>
<event>
 8    1  0.1109553E+005  0.1043930E+01  0.7957747E-01            NaN
         13   -1    0    0    0    0  0.00000000000E+00  0.00000000000E+00  0.74505805969E-08  0.10566000000E+00  0.10566000000E+00 0.  1.
     999900   -1    0    0    0    0 -0.00000000000E+00 -0.00000000000E+00 -0.74505805969E-08  0.93827000000E+00  0.93827000000E+00 0. -1.
     999902    2    1    2    0    0 -0.10114991348E-01  0.13076910982E-01  0.17476517892E-01  0.10198728321E+01  0.10195890576E+01 0.  0.
     999903    2    3    3    0    0 -0.42244695026E-01 -0.21670778788E-01 -0.11738578193E+00  0.12834181203E+00  0.20927541767E-01 0.  0.
         14    1    1    2    0    0  0.10114991348E-01 -0.13076910982E-01 -0.17476517892E-01  0.24057167922E-01  0.00000000000E+00 0.  1.
     999901    1    3    3    0    0  0.32129703677E-01  0.34747689771E-01  0.13486229982E+00  0.89153102005E+00  0.88000000000E+00 0.  1.
        -11    1    4    4    0    0 -0.20520496753E-01 -0.20908903495E-01 -0.55711209976E-01  0.62946589028E-01  0.51100000000E-03 0.  1.
         11    1    4    4    0    0 -0.21724198273E-01 -0.76187529371E-03 -0.61674571951E-01  0.65395222997E-01  0.51100000000E-03 0. -1.
</event>
<event>
 8    1  0.1109553E+005  0.1043930E+01  0.7957747E-01            NaN
         13   -1    0    0    0    0  0.00000000000E+00  0.00000000000E+00  0.74505805969E-08  0.10566000000E+00  0.10566000000E+00 0. -1.
     999900   -1    0    0    0    0 -0.00000000000E+00 -0.00000000000E+00 -0.74505805969E-08  0.93827000000E+00  0.93827000000E+00 0. -1.
     999902    2    1    2    0    0 -0.18564904335E-03  0.10543884020E-01 -0.52253598870E-02  0.10321608734E+01  0.10320937730E+01 0.  0.
     999903    2    3    3    0    0  0.42034858032E-03 -0.11705149481E+00  0.73331587630E-01  0.13949512297E+00  0.19497139741E-01 0.  0.
         14    1    1    2    0    0  0.18564904335E-03 -0.10543884020E-01  0.52253598870E-02  0.11769126635E-01  0.00000000000E+00 0.  1.
     999901    1    3    3    0    0 -0.60599762366E-03  0.12759537883E+00 -0.78556947517E-01  0.89266575040E+00  0.88000000000E+00 0.  1.
        -11    1    4    4    0    0 -0.55074895019E-02 -0.10117988815E+00  0.58712909724E-01  0.11711178035E+00  0.51100000000E-03 0. -1.
         11    1    4    4    0    0  0.59278380822E-02 -0.15871606656E-01  0.14618677906E-01  0.22383342621E-01  0.51100000000E-03 0.  1.
</event>
<event>
 8    1  0.1121461E+005  0.1043930E+01  0.7957747E-01            NaN
         13   -1    0    0    0    0  0.00000000000E+00  0.00000000000E+00  0.74505805969E-08  0.10566000000E+00  0.10566000000E+00 0. -1.
     999900   -1    0    0    0    0 -0.00000000000E+00 -0.00000000000E+00 -0.74505805969E-08  0.93827000000E+00  0.93827000000E+00 0.  1.
     999902    2    1    2    0    0 -0.42728315642E-02  0.24942020865E-01  0.16113351406E-01  0.10139299735E+01  0.10134860579E+01 0.  0.
     999903    2    3    3    0    0 -0.11733118316E+00 -0.36057509366E-01 -0.21528803633E-02  0.12441505585E+00  0.20192095158E-01 0.  0.
         14    1    1    2    0    0  0.42728315642E-02 -0.24942020865E-01 -0.16113351406E-01  0.30000026466E-01  0.00000000000E+00 0.  1.
     999901    1    3    3    0    0  0.11305835159E+00  0.60999530232E-01  0.18266231769E-01  0.88951491768E+00  0.88000000000E+00 0.  1.
        -11    1    4    4    0    0 -0.71148021760E-01 -0.25609438660E-01  0.78250647442E-02  0.76022214570E-01  0.51100000000E-03 0. -1.
         11    1    4    4    0    0 -0.46183161395E-01 -0.10448070706E-01 -0.99779451075E-02  0.48392841284E-01  0.51100000000E-03 0.  1.
</event>
<event>
 8    1  0.1109553E+005  0.1043930E+01  0.7957747E-01            NaN
         13   -1    0    0    0    0  0.00000000000E+00  0.00000000000E+00  0.74505805969E-08  0.10566000000E+00  0.10566000000E+00 0. -1.
     999900   -1    0    0    0    0 -0.00000000000E+00 -0.00000000000E+00 -0.74505805969E-08  0.93827000000E+00  0.93827000000E+00 0. -1.
     999902    2    1    2    0    0 -0.16970991025E-01 -0.11747979374E-01  0.90352684607E-02  0.10213985635E+01  0.10211500183E+01 0.  0.
     999903    2    3    3    0    0 -0.87838587658E-01 -0.89358394860E-01 -0.42218468244E-01  0.13366406579E+00  0.19574044298E-01 0.  0.
         14    1    1    2    0    0  0.16970991025E-01  0.11747979374E-01 -0.90352684607E-02  0.22531436526E-01  0.00000000000E+00 0.  1.
     999901    1    3    3    0    0  0.70867596633E-01  0.77610415485E-01  0.51253736704E-01  0.88773449768E+00  0.88000000000E+00 0.  1.
        -11    1    4    4    0    0 -0.36818216409E-01 -0.27341946479E-01 -0.88999379060E-02  0.46718659147E-01  0.51100000000E-03 0.  1.
         11    1    4    4    0    0 -0.51020371250E-01 -0.62016448381E-01 -0.33318530337E-01  0.86945406647E-01  0.51100000000E-03 0. -1.
</event>
<event>
 8    1  0.1109553E+005  0.1043930E+01  0.7957747E-01            NaN
         13   -1    0    0    0    0  0.00000000000E+00  0.00000000000E+00  0.74505805969E-08  0.10566000000E+00  0.10566000000E+00 0.  1.
     999900   -1    0    0    0    0 -0.00000000000E+00 -0.00000000000E+00 -0.74505805969E-08  0.93827000000E+00  0.93827000000E+00 0. -1.
     999902    2    1    2    0    0  0.29224224347E-02  0.42556085064E-02 -0.22473893088E-01  0.10208708017E+01  0.10206103405E+01 0.  0.
     999903    2    3    3    0    0 -0.72224141093E-01  0.99595381431E-01 -0.43944183490E-01  0.13227772739E+00  0.20754260791E-01 0.  0.
         14    1    1    2    0    0 -0.29224224347E-02 -0.42556085064E-02  0.22473893088E-01  0.23059198320E-01  0.00000000000E+00 0.  1.
     999901    1    3    3    0    0  0.75146563528E-01 -0.95339772925E-01  0.21470290403E-01  0.88859307429E+00  0.88000000000E+00 0. -1.
        -11    1    4    4    0    0 -0.33951154212E-01  0.49179768376E-01 -0.32243157130E-01  0.67905911323E-01  0.51100000000E-03 0.  1.
         11    1    4    4    0    0 -0.38272986881E-01  0.50415613055E-01 -0.11701026360E-01  0.64371816064E-01  0.51100000000E-03 0. -1.
</event>
<event>
 8    1  0.1109553E+005  0.1043930E+01  0.7957747E-01            NaN
         13   -1    0    0    0    0  0.00000000000E+00  0.00000000000E+00  0.74505805969E-08  0.10566000000E+00  0.10566000000E+00 0. -1.
     999900   -1    0    0    0    0 -0.00000000000E+00 -0.00000000000E+00 -0.74505805969E-08  0.93827000000E+00  0.93827000000E+00 0.  1.
     999902    2    1    2    0    0 -0.16553740547E-01  0.18496383684E-01  0.69471377306E-02  0.10181539402E+01  0.10178276085E+01 0.  0.
     999903    2    3    3    0    0 -0.71316806285E-01  0.85956259931E-01 -0.65371026854E-01  0.13092243423E+00  0.19817849380E-01 0.  0.
         14    1    1    2    0    0  0.16553740547E-01 -0.18496383684E-01 -0.69471377306E-02  0.25776059787E-01  0.00000000000E+00 0.  1.
     999901    1    3    3    0    0  0.54763065738E-01 -0.67459876247E-01  0.72318164584E-01  0.88723150598E+00  0.88000000000E+00 0. -1.
        -11    1    4    4    0    0 -0.51169399213E-01  0.57750993547E-01 -0.34573678183E-01  0.84552262037E-01  0.51100000000E-03 0. -1.
         11    1    4    4    0    0 -0.20147407072E-01  0.28205266384E-01 -0.30797348670E-01  0.46370172197E-01  0.51100000000E-03 0.  1.
</event>
<event>
 8    1  0.1109553E+005  0.1043930E+01  0.7957747E-01            NaN
         13   -1    0    0    0    0  0.00000000000E+00  0.00000000000E+00  0.74505805969E-08  0.10566000000E+00  0.10566000000E+00 0. -1.
     999900   -1    0    0    0    0 -0.00000000000E+00 -0.00000000000E+00 -0.74505805969E-08  0.93827000000E+00  0.93827000000E+00 0. -1.
     999902    2    1    2    0    0  0.20885605797E-01  0.96121650817E-02 -0.35778185704E-02  0.10206619310E+01  0.10203966751E+01 0.  0.
     999903    2    3    3    0    0 -0.45696095940E-01 -0.10323240996E+00  0.58618054049E-01  0.12879010859E+00  0.20143290675E-01 0.  0.
         14    1    1    2    0    0 -0.20885605797E-01 -0.96121650817E-02  0.35778185704E-02  0.23268068953E-01  0.00000000000E+00 0.  1.
     999901    1    3    3    0    0  0.66581701737E-01  0.11284457504E+00 -0.62195872620E-01  0.89187182246E+00  0.88000000000E+00 0. -1.
        -11    1    4    4    0    0 -0.22741256999E-01 -0.58847968813E-01  0.43310387589E-01  0.76526459459E-01  0.51100000000E-03 0.  1.
         11    1    4    4    0    0 -0.22954838941E-01 -0.44384441150E-01  0.15307666461E-01  0.52263649130E-01  0.51100000000E-03 0. -1.
</event>
<event>
 8    1  0.1109553E+005  0.1043930E+01  0.7957747E-01            NaN
         13   -1    0    0    0    0  0.00000000000E+00  0.00000000000E+00  0.74505805969E-08  0.10566000000E+00  0.10566000000E+00 0. -1.
     999900   -1    0    0    0    0 -0.00000000000E+00 -0.00000000000E+00 -0.74505805969E-08  0.93827000000E+00  0.93827000000E+00 0.  1.
     999902    2    1    2    0    0 -0.14489833332E-01 -0.15756888266E-02 -0.18666785022E-01  0.10202469485E+01  0.10199720334E+01 0.  0.
     999903    2    3    3    0    0 -0.11955677324E-01  0.99266875485E-01 -0.83780254680E-01  0.13209414146E+00  0.20805776720E-01 0.  0.
         14    1    1    2    0    0  0.14489833332E-01  0.15756888266E-02  0.18666785022E-01  0.23683051499E-01  0.00000000000E+00 0. -1.
     999901    1    3    3    0    0 -0.25341560079E-02 -0.10084256431E+00  0.65113469658E-01  0.88815280704E+00  0.88000000000E+00 0. -1.
        -11    1    4    4    0    0 -0.97870600678E-02  0.79945315190E-01 -0.55666898976E-01  0.97908655022E-01  0.51100000000E-03 0.  1.
         11    1    4    4    0    0 -0.21686172558E-02  0.19321560295E-01 -0.28113355705E-01  0.34185486438E-01  0.51100000000E-03 0. -1.
</event>
<event>
 8    1  0.1109553E+005  0.1043930E+01  0.7957747E-01            NaN
         13   -1    0    0    0    0  0.00000000000E+00  0.00000000000E+00  0.74505805969E-08  0.10566000000E+00  0.10566000000E+00 0.  1.
     999900   -1    0    0    0    0 -0.00000000000E+00 -0.00000000000E+00 -0.74505805969E-08  0.93827000000E+00  0.93827000000E+00 0.  1.
     999902    2    1    2    0    0 -0.10305552613E-01  0.10656311065E-01  0.13734622504E-01  0.10237210605E+01  0.10235215721E+01 0.  0.
     999903    2    3    3    0    0  0.99216741229E-01 -0.84345201803E-01  0.44953681919E-02  0.13180975095E+00  0.19887868228E-01 0.  0.
         14    1    1    2    0    0  0.10305552613E-01 -0.10656311065E-01 -0.13734622504E-01  0.20208939495E-01  0.00000000000E+00 0. -1.
     999901    1    3    3    0    0 -0.10952229384E+00  0.95001512868E-01  0.92392543121E-02  0.89191130956E+00  0.88000000000E+00 0.  1.
        -11    1    4    4    0    0  0.62952125824E-01 -0.56196869383E-01  0.12176267122E-01  0.85261837162E-01  0.51100000000E-03 0. -1.
         11    1    4    4    0    0  0.36264615404E-01 -0.28148332420E-01 -0.76808989304E-02  0.46547913786E-01  0.51100000000E-03 0.  1.
</event>
<event>
 8    1  0.1109553E+005  0.1043930E+01  0.7957747E-01            NaN
         13   -1    0    0    0    0  0.00000000000E+00  0.00000000000E+00  0.74505805969E-08  0.10566000000E+00  0.10566000000E+00 0.  1.
     999900   -1    0    0    0    0 -0.00000000000E+00 -0.00000000000E+00 -0.74505805969E-08  0.93827000000E+00  0.93827000000E+00 0. -1.
     999902    2    1    2    0    0  0.15365435620E-01  0.17910230358E-01  0.24646996533E-02  0.10202034809E+01  0.10199275439E+01 0.  0.
     999903    2    3    3    0    0  0.75630430633E-02 -0.11744329626E+00  0.48163601768E-01  0.12864874668E+00  0.19509998174E-01 0.  0.
         14    1    1    2    0    0 -0.15365435620E-01 -0.17910230358E-01 -0.24646996533E-02  0.23726519080E-01  0.00000000000E+00 0.  1.
     999901    1    3    3    0    0  0.78023925571E-02  0.13535352662E+00 -0.45698902115E-01  0.89155473424E+00  0.88000000000E+00 0.  1.
        -11    1    4    4    0    0 -0.16786368674E-02 -0.17366396925E-01  0.14390237467E-01  0.22621883636E-01  0.51100000000E-03 0.  1.
         11    1    4    4    0    0  0.92416799307E-02 -0.10007689934E+00  0.33773364301E-01  0.10602686304E+00  0.51100000000E-03 0. -1.
</event>
<event>
 8    1  0.1109553E+005  0.1043930E+01  0.7957747E-01            NaN
         13   -1    0    0    0    0  0.00000000000E+00  0.00000000000E+00  0.74505805969E-08  0.10566000000E+00  0.10566000000E+00 0. -1.
     999900   -1    0    0    0    0 -0.00000000000E+00 -0.00000000000E+00 -0.74505805969E-08  0.93827000000E+00  0.93827000000E+00 0.  1.
     999902    2    1    2    0    0 -0.19057208863E-01  0.87952044143E-03 -0.27548234544E-01  0.10104209566E+01  0.10098651660E+01 0.  0.
     999903    2    3    3    0    0  0.83550270483E-01  0.83691341883E-01 -0.98850833974E-02  0.12042203549E+00  0.20466151443E-01 0.  0.
         14    1    1    2    0    0  0.19057208863E-01 -0.87952044143E-03  0.27548234544E-01  0.33509043441E-01  0.00000000000E+00 0. -1.
     999901    1    3    3    0    0 -0.10260747935E+00 -0.82811821441E-01 -0.17663151146E-01  0.88999892106E+00  0.88000000000E+00 0. -1.
        -11    1    4    4    0    0  0.53446407788E-01  0.40565870229E-01 -0.11750510628E-02  0.67109985836E-01  0.51100000000E-03 0.  1.
         11    1    4    4    0    0  0.30103862695E-01  0.43125471653E-01 -0.87100323347E-02  0.53312049658E-01  0.51100000000E-03 0. -1.
</event>
<event>
 8    1  0.1109553E+005  0.1043930E+01  0.7957747E-01            NaN
         13   -1    0    0    0    0  0.00000000000E+00  0.00000000000E+00  0.74505805969E-08  0.10566000000E+00  0.10566000000E+00 0. -1.
     999900   -1    0    0    0    0 -0.00000000000E+00 -0.00000000000E+00 -0.74505805969E-08  0.93827000000E+00  0.93827000000E+00 0. -1.
     999902    2    1    2    0    0 -0.36135765227E-02 -0.20684456550E-01 -0.75091866655E-02  0.10216299425E+01  0.10213865316E+01 0.  0.
     999903    2    3    3    0    0  0.20124726589E-01  0.63987477724E-01  0.10958179210E+00  0.12952953295E+00  0.16441679424E-01 0.  0.
         14    1    1    2    0    0  0.36135765227E-02  0.20684456550E-01  0.75091866655E-02  0.22300057453E-01  0.00000000000E+00 0. -1.
     999901    1    3    3    0    0 -0.23738303111E-01 -0.84671934273E-01 -0.11709097876E+00  0.89210040959E+00  0.88000000000E+00 0. -1.
        -11    1    4    4    0    0  0.17411258594E-01  0.29546375746E-01  0.59672511203E-01  0.68827392511E-01  0.51100000000E-03 0. -1.
         11    1    4    4    0    0  0.27134679950E-02  0.34441101978E-01  0.49909280894E-01  0.60702140443E-01  0.51100000000E-03 0.  1.
</event>
<event>
 8    1  0.1109553E+005  0.1043930E+01  0.7957747E-01            NaN
         13   -1    0    0    0    0  0.00000000000E+00  0.00000000000E+00  0.74505805969E-08  0.10566000000E+00  0.10566000000E+00 0. -1.
     999900   -1    0    0    0    0 -0.00000000000E+00 -0.00000000000E+00 -0.74505805969E-08  0.93827000000E+00  0.93827000000E+00 0. -1.
     999902    2    1    2    0    0  0.17974655912E-01  0.21927386689E-02 -0.13193466562E-01  0.10215254487E+01  0.10212797259E+01 0.  0.
     999903    2    3    3    0    0  0.54362333745E-02 -0.12830098124E+00  0.18670456678E-01  0.13124395808E+00  0.19639148637E-01 0.  0.
         14    1    1    2    0    0 -0.17974655912E-01 -0.21927386689E-02  0.13193466562E-01  0.22404551277E-01  0.00000000000E+00 0. -1.
     999901    1    3    3    0    0  0.12538422537E-01  0.13049371991E+00 -0.31863923239E-01  0.89028149064E+00  0.88000000000E+00 0. -1.
        -11    1    4    4    0    0 -0.23672191360E-02 -0.84608105534E-01  0.19455023471E-01  0.86849837696E-01  0.51100000000E-03 0. -1.
         11    1    4    4    0    0  0.78034525105E-02 -0.43692875707E-01 -0.78456679354E-03  0.44394120385E-01  0.51100000000E-03 0.  1.
</event>
<event>
 8    1  0.1109553E+005  0.1043930E+01  0.7957747E-01            NaN
         13   -1    0    0    0    0  0.00000000000E+00  0.00000000000E+00  0.74505805969E-08  0.10566000000E+00  0.10566000000E+00 0.  1.
     999900   -1    0    0    0    0 -0.00000000000E+00 -0.00000000000E+00 -0.74505805969E-08  0.93827000000E+00  0.93827000000E+00 0. -1.
     999902    2    1    2    0    0  0.19490805475E-01 -0.23062473132E-02 -0.12136250685E-01  0.10208540633E+01  0.10205932195E+01 0.  0.
     999903    2    3    3    0    0  0.26060474194E-01 -0.12686852396E+00 -0.16969473093E-01  0.13204458913E+00  0.19314238586E-01 0.  0.
         14    1    1    2    0    0 -0.19490805475E-01  0.23062473132E-02  0.12136250685E-01  0.23075936718E-01  0.00000000000E+00 0. -1.
     999901    1    3    3    0    0 -0.65696687187E-02  0.12456227665E+00  0.48332224076E-02  0.88880947416E+00  0.88000000000E+00 0.  1.
        -11    1    4    4    0    0  0.11775328948E-01 -0.68634347924E-01  0.31691492020E-03  0.69639741835E-01  0.51100000000E-03 0.  1.
         11    1    4    4    0    0  0.14285145245E-01 -0.58234176040E-01 -0.17286388013E-01  0.62404847290E-01  0.51100000000E-03 0. -1.
</event>
<event>
 8    1  0.1109553E+005  0.1043930E+01  0.7957747E-01            NaN
         13   -1    0    0    0    0  0.00000000000E+00  0.00000000000E+00  0.74505805969E-08  0.10566000000E+00  0.10566000000E+00 0.  1.
     999900   -1    0    0    0    0 -0.00000000000E+00 -0.00000000000E+00 -0.74505805969E-08  0.93827000000E+00  0.93827000000E+00 0. -1.
     999902    2    1    2    0    0  0.58236752423E-02  0.22064610200E-01 -0.68261195108E-03  0.10210995778E+01  0.10208443171E+01 0.  0.
     999903    2    3    3    0    0 -0.59742466320E-01 -0.10827904652E+00  0.29120765145E-01  0.12858816108E+00  0.19833860224E-01 0.  0.
         14    1    1    2    0    0 -0.58236752423E-02 -0.22064610200E-01  0.68261195108E-03  0.22830422153E-01  0.00000000000E+00 0.  1.
     999901    1    3    3    0    0  0.65566141562E-01  0.13034365672E+00 -0.29803377096E-01  0.89251141676E+00  0.88000000000E+00 0. -1.
        -11    1    4    4    0    0 -0.56494990197E-01 -0.10082015129E+00  0.32039918364E-01  0.11992999756E+00  0.51100000000E-03 0. -1.
         11    1    4    4    0    0 -0.32474761221E-02 -0.74588952243E-02 -0.29191532190E-02  0.86581635262E-02  0.51100000000E-03 0.  1.
</event>
<event>
 8    1  0.1109553E+005  0.1043930E+01  0.7957747E-01            NaN
         13   -1    0    0    0    0  0.00000000000E+00  0.00000000000E+00  0.74505805969E-08  0.10566000000E+00  0.10566000000E+00 0. -1.
     999900   -1    0    0    0    0 -0.00000000000E+00 -0.00000000000E+00 -0.74505805969E-08  0.93827000000E+00  0.93827000000E+00 0. -1.
     999902    2    1    2    0    0 -0.12266939527E-01 -0.13055937698E-01  0.18458832942E-01  0.10182071730E+01  0.10178822050E+01 0.  0.
     999903    2    3    3    0    0  0.38928414140E-01  0.18117133053E-01 -0.11648604835E+00  0.12590518066E+00  0.20963375662E-01 0.  0.
         14    1    1    2    0    0  0.12266939527E-01  0.13055937698E-01 -0.18458832942E-01  0.25722826985E-01  0.00000000000E+00 0.  1.
     999901    1    3    3    0    0 -0.51195353666E-01 -0.31173070750E-01  0.13494488129E+00  0.89230199236E+00  0.88000000000E+00 0.  1.
        -11    1    4    4    0    0  0.30004460164E-01  0.15379929534E-01 -0.10847038265E+00  0.11359091027E+00  0.51100000000E-03 0.  1.
         11    1    4    4    0    0  0.89239539754E-02  0.27372035185E-02 -0.80156656998E-02  0.12314270391E-01  0.51100000000E-03 0. -1.
</event>
<event>
 8    1  0.1109553E+005  0.1043930E+01  0.7957747E-01            NaN
         13   -1    0    0    0    0  0.00000000000E+00  0.00000000000E+00  0.74505805969E-08  0.10566000000E+00  0.10566000000E+00 0. -1.
     999900   -1    0    0    0    0 -0.00000000000E+00 -0.00000000000E+00 -0.74505805969E-08  0.93827000000E+00  0.93827000000E+00 0. -1.
     999902    2    1    2    0    0 -0.54540991011E-02  0.15371197138E-01  0.18086218595E-01  0.10195756944E+01  0.10192847808E+01 0.  0.
     999903    2    3    3    0    0  0.11645550127E+00 -0.19704743702E-02 -0.52947569741E-01  0.12816754808E+00  0.75966238692E-02 0.  0.
         14    1    1    2    0    0  0.54540991011E-02 -0.15371197138E-01 -0.18086218595E-01  0.24354305606E-01  0.00000000000E+00 0.  1.
     999901    1    3    3    0    0 -0.12190960037E+00  0.17341671508E-01  0.71033788337E-01  0.89140814632E+00  0.88000000000E+00 0.  1.
        -11    1    4    4    0    0  0.83958950265E-01 -0.46901966738E-02 -0.39041283583E-01  0.92712384389E-01  0.51100000000E-03 0. -1.
         11    1    4    4    0    0  0.32496551003E-01  0.27197223036E-02 -0.13906286159E-01  0.35455163689E-01  0.51100000000E-03 0.  1.
</event>
<event>
 8    1  0.1109553E+005  0.1043930E+01  0.7957747E-01            NaN
         13   -1    0    0    0    0  0.00000000000E+00  0.00000000000E+00  0.74505805969E-08  0.10566000000E+00  0.10566000000E+00 0. -1.
     999900   -1    0    0    0    0 -0.00000000000E+00 -0.00000000000E+00 -0.74505805969E-08  0.93827000000E+00  0.93827000000E+00 0. -1.
     999902    2    1    2    0    0 -0.11118659438E-01  0.76030580921E-02 -0.20803820789E-01  0.10191463352E+01  0.10188449453E+01 0.  0.
     999903    2    3    3    0    0 -0.15137044043E-03 -0.12604675929E+00  0.15262866333E-01  0.12825725064E+00  0.18142734469E-01 0.  0.
         14    1    1    2    0    0  0.11118659438E-01 -0.76030580921E-02  0.20803820789E-01  0.24783664770E-01  0.00000000000E+00 0. -1.
     999901    1    3    3    0    0 -0.10967288997E-01  0.13364981738E+00 -0.36066687121E-01  0.89088908459E+00  0.88000000000E+00 0.  1.
        -11    1    4    4    0    0 -0.69680380547E-02 -0.77543642035E-01  0.37945960850E-02  0.77950176747E-01  0.51100000000E-03 0. -1.
         11    1    4    4    0    0  0.68166676143E-02 -0.48503117253E-01  0.11468270248E-01  0.50307073897E-01  0.51100000000E-03 0.  1.
</event>
<event>
 8    1  0.1109553E+005  0.1043930E+01  0.7957747E-01            NaN
         13   -1    0    0    0    0  0.00000000000E+00  0.00000000000E+00  0.74505805969E-08  0.10566000000E+00  0.10566000000E+00 0.  1.
     999900   -1    0    0    0    0 -0.00000000000E+00 -0.00000000000E+00 -0.74505805969E-08  0.93827000000E+00  0.93827000000E+00 0.  1.
     999902    2    1    2    0    0  0.81461774024E-02  0.12159793881E-01 -0.19750478190E-01  0.10193474415E+01  0.10190509822E+01 0.  0.
     999903    2    3    3    0    0 -0.94960683747E-01 -0.20142173854E-01 -0.84430678442E-01  0.13038289202E+00  0.21164131067E-01 0.  0.
         14    1    1    2    0    0 -0.81461774024E-02 -0.12159793881E-01  0.19750478190E-01  0.24582558496E-01  0.00000000000E+00 0.  1.
     999901    1    3    3    0    0  0.10310686115E+00  0.32301967735E-01  0.64680200252E-01  0.88896454948E+00  0.88000000000E+00 0. -1.
        -11    1    4    4    0    0 -0.27007690807E-01 -0.54539418160E-02 -0.12227273600E-01  0.30148435859E-01  0.51100000000E-03 0. -1.
         11    1    4    4    0    0 -0.67952992940E-01 -0.14688232038E-01 -0.72203404842E-01  0.10023445616E+00  0.51100000000E-03 0.  1.
</event>
<event>
 8    1  0.1109553E+005  0.1043930E+01  0.7957747E-01            NaN
         13   -1    0    0    0    0  0.00000000000E+00  0.00000000000E+00  0.74505805969E-08  0.10566000000E+00  0.10566000000E+00 0.  1.
     999900   -1    0    0    0    0 -0.00000000000E+00 -0.00000000000E+00 -0.74505805969E-08  0.93827000000E+00  0.93827000000E+00 0. -1.
     999902    2    1    2    0    0 -0.22740571641E-01 -0.33472323015E-02 -0.63331880620E-02  0.10200878769E+01  0.10198092124E+01 0.  0.
     999903    2    3    3    0    0  0.82379016887E-01  0.21362890665E-01  0.93315990578E-01  0.12790478086E+00  0.20225808951E-01 0.  0.
         14    1    1    2    0    0  0.22740571641E-01  0.33472323015E-02  0.63331880620E-02  0.23842123095E-01  0.00000000000E+00 0.  1.
     999901    1    3    3    0    0 -0.10511958853E+00 -0.24710122967E-01 -0.99649178640E-01  0.89218309605E+00  0.88000000000E+00 0.  1.
        -11    1    4    4    0    0  0.35039619985E-01  0.13519679647E-02  0.28541765940E-01  0.45216106755E-01  0.51100000000E-03 0.  1.
         11    1    4    4    0    0  0.47339396902E-01  0.20010922701E-01  0.64774224638E-01  0.82688674103E-01  0.51100000000E-03 0. -1.
</event>
<event>
 8    1  0.1109553E+005  0.1043930E+01  0.7957747E-01            NaN
         13   -1    0    0    0    0  0.00000000000E+00  0.00000000000E+00  0.74505805969E-08  0.10566000000E+00  0.10566000000E+00 0. -1.
     999900   -1    0    0    0    0 -0.00000000000E+00 -0.00000000000E+00 -0.74505805969E-08  0.93827000000E+00  0.93827000000E+00 0. -1.
     999902    2    1    2    0    0  0.10979558419E-01 -0.12554792160E-01 -0.16734547730E-01  0.10203033499E+01  0.10200297580E+01 0.  0.
     999903    2    3    3    0    0 -0.48837547371E-01 -0.75761013096E-01  0.90937172932E-01  0.12947995999E+00  0.19252362934E-01 0.  0.
         14    1    1    2    0    0 -0.10979558419E-01  0.12554792160E-01  0.16734547730E-01  0.23626650143E-01  0.00000000000E+00 0. -1.
     999901    1    3    3    0    0  0.59817105791E-01  0.63206220936E-01 -0.10767172066E+00  0.89082338987E+00  0.88000000000E+00 0. -1.
        -11    1    4    4    0    0 -0.19914222458E-01 -0.20155434430E-01  0.38209229550E-01  0.47571253263E-01  0.51100000000E-03 0.  1.
         11    1    4    4    0    0 -0.28923324913E-01 -0.55605578666E-01  0.52727943382E-01  0.81908706723E-01  0.51100000000E-03 0. -1.
</event>
<event>
 8    1  0.1109553E+005  0.1043930E+01  0.7957747E-01            NaN
         13   -1    0    0    0    0  0.00000000000E+00  0.00000000000E+00  0.74505805969E-08  0.10566000000E+00  0.10566000000E+00 0.  1.
     999900   -1    0    0    0    0 -0.00000000000E+00 -0.00000000000E+00 -0.74505805969E-08  0.93827000000E+00  0.93827000000E+00 0. -1.
     999902    2    1    2    0    0 -0.24444112585E-02  0.23671169783E-01 -0.68154239084E-03  0.10201231958E+01  0.10198453661E+01 0.  0.
     999903    2    3    3    0    0  0.23897154037E-01  0.38361563056E-01 -0.12166948021E+00  0.13133313804E+00  0.20056102349E-01 0.  0.
         14    1    1    2    0    0  0.24444112585E-02 -0.23671169783E-01  0.68154239084E-03  0.23806804181E-01  0.00000000000E+00 0. -1.
     999901    1    3    3    0    0 -0.26341565295E-01 -0.14690393273E-01  0.12098793782E+00  0.88879005778E+00  0.88000000000E+00 0.  1.
        -11    1    4    4    0    0  0.64657469543E-02  0.86404670772E-02 -0.10981222710E-01  0.15404931944E-01  0.51100000000E-03 0.  1.
         11    1    4    4    0    0  0.17431407083E-01  0.29721095978E-01 -0.11068825750E+00  0.11592820609E+00  0.51100000000E-03 0. -1.
</event>
<event>
 8    1  0.1109553E+005  0.1043930E+01  0.7957747E-01            NaN
         13   -1    0    0    0    0  0.00000000000E+00  0.00000000000E+00  0.74505805969E-08  0.10566000000E+00  0.10566000000E+00 0.  1.
     999900   -1    0    0    0    0 -0.00000000000E+00 -0.00000000000E+00 -0.74505805969E-08  0.93827000000E+00  0.93827000000E+00 0. -1.
     999902    2    1    2    0    0  0.21587606322E-01 -0.10296060407E-02 -0.89609350573E-02  0.10205337782E+01  0.10202655582E+01 0.  0.
     999903    2    3    3    0    0  0.75132428406E-01  0.96429105927E-01  0.46104175059E-01  0.13182830686E+00  0.17596967489E-01 0.  0.
         14    1    1    2    0    0 -0.21587606322E-01  0.10296060407E-02  0.89609350573E-02  0.23396221755E-01  0.00000000000E+00 0. -1.
     999901    1    3    3    0    0 -0.53544822084E-01 -0.97458711967E-01 -0.55065110116E-01  0.88870547138E+00  0.88000000000E+00 0. -1.
        -11    1    4    4    0    0  0.42509216999E-01  0.43100713505E-01  0.28285622522E-01  0.66820974229E-01  0.51100000000E-03 0.  1.
         11    1    4    4    0    0  0.32623211407E-01  0.53328392421E-01  0.17818552537E-01  0.65007332634E-01  0.51100000000E-03 0. -1.
</event>
<event>
 8    1  0.1109553E+005  0.1043930E+01  0.7957747E-01            NaN
         13   -1    0    0    0    0  0.00000000000E+00  0.00000000000E+00  0.74505805969E-08  0.10566000000E+00  0.10566000000E+00 0. -1.
     999900   -1    0    0    0    0 -0.00000000000E+00 -0.00000000000E+00 -0.74505805969E-08  0.93827000000E+00  0.93827000000E+00 0.  1.
     999902    2    1    2    0    0 -0.15983766181E-01 -0.60733258043E-02 -0.18126132815E-01  0.10190116783E+01  0.10187069636E+01 0.  0.
     999903    2    3    3    0    0 -0.78054100346E-01  0.19788576882E-02  0.10062590059E+00  0.12883214048E+00  0.19385306113E-01 0.  0.
         14    1    1    2    0    0  0.15983766181E-01  0.60733258043E-02  0.18126132815E-01  0.24918321743E-01  0.00000000000E+00 0. -1.
     999901    1    3    3    0    0  0.62070334165E-01 -0.80521834925E-02 -0.11875203340E+00  0.89017953778E+00  0.88000000000E+00 0.  1.
        -11    1    4    4    0    0 -0.46535748142E-01 -0.83409159921E-02  0.58851068555E-01  0.75490768480E-01  0.51100000000E-03 0. -1.
         11    1    4    4    0    0 -0.31518352204E-01  0.10319773680E-01  0.41774832030E-01  0.53341371998E-01  0.51100000000E-03 0.  1.
</event>
<event>
 8    1  0.1109553E+005  0.1043930E+01  0.7957747E-01            NaN
         13   -1    0    0    0    0  0.00000000000E+00  0.00000000000E+00  0.74505805969E-08  0.10566000000E+00  0.10566000000E+00 0.  1.
     999900   -1    0    0    0    0 -0.00000000000E+00 -0.00000000000E+00 -0.74505805969E-08  0.93827000000E+00  0.93827000000E+00 0.  1.
     999902    2    1    2    0    0  0.21704682364E-01  0.17682018338E-02 -0.64707815275E-02  0.10212123683E+01  0.10209596517E+01 0.  0.
     999903    2    3    3    0    0 -0.87698426087E-01 -0.83150520293E-02 -0.92565574400E-01  0.13021123170E+00  0.25028489147E-01 0.  0.
         14    1    1    2    0    0 -0.21704682364E-01 -0.17682018338E-02  0.64707815275E-02  0.22717631651E-01  0.00000000000E+00 0.  1.
     999901    1    3    3    0    0  0.10940310845E+00  0.10083253863E-01  0.86094792873E-01  0.89100113665E+00  0.88000000000E+00 0. -1.
        -11    1    4    4    0    0 -0.42275123482E-01 -0.15997296279E-01 -0.40549589946E-01  0.60725858738E-01  0.51100000000E-03 0. -1.
         11    1    4    4    0    0 -0.45423302605E-01  0.76822442496E-02 -0.52015984454E-01  0.69485372964E-01  0.51100000000E-03 0.  1.
</event>
<event>
 8    1  0.1109553E+005  0.1043930E+01  0.7957747E-01            NaN
         13   -1    0    0    0    0  0.00000000000E+00  0.00000000000E+00  0.74505805969E-08  0.10566000000E+00  0.10566000000E+00 0. -1.
     999900   -1    0    0    0    0 -0.00000000000E+00 -0.00000000000E+00 -0.74505805969E-08  0.93827000000E+00  0.93827000000E+00 0.  1.
     999902    2    1    2    0    0 -0.24602212407E-01  0.24015196493E-02  0.66498871246E-02  0.10183320089E+01  0.10180102274E+01 0.  0.
     999903    2    3    3    0    0 -0.76179298414E-01  0.44717073452E-02 -0.10300210299E+00  0.13002573261E+00  0.21770995542E-01 0.  0.
         14    1    1    2    0    0  0.24602212407E-01 -0.24015196493E-02 -0.66498871246E-02  0.25597991146E-01  0.00000000000E+00 0. -1.
     999901    1    3    3    0    0  0.51577086007E-01 -0.20701876958E-02  0.10965199012E+00  0.88830627624E+00  0.88000000000E+00 0. -1.
        -11    1    4    4    0    0 -0.56312115717E-01  0.75642592086E-02 -0.60464576712E-01  0.82972878412E-01  0.51100000000E-03 0.  1.
         11    1    4    4    0    0 -0.19867182697E-01 -0.30925518634E-02 -0.42537526278E-01  0.47052854198E-01  0.51100000000E-03 0. -1.
</event>
<event>
 8    1  0.1109553E+005  0.1043930E+01  0.7957747E-01            NaN
         13   -1    0    0    0    0  0.00000000000E+00  0.00000000000E+00  0.74505805969E-08  0.10566000000E+00  0.10566000000E+00 0.  1.
     999900   -1    0    0    0    0 -0.00000000000E+00 -0.00000000000E+00 -0.74505805969E-08  0.93827000000E+00  0.93827000000E+00 0.  1.
     999902    2    1    2    0    0 -0.46595722484E-02 -0.28968318697E-02  0.20982361358E-01  0.10222421523E+01  0.10220120622E+01 0.  0.
     999903    2    3    3    0    0 -0.54571891488E-01  0.30863275764E-02  0.12187685642E+00  0.13505179117E+00  0.19934929337E-01 0.  0.
         14    1    1    2    0    0  0.46595722484E-02  0.28968318697E-02 -0.20982361358E-01  0.21687847671E-01  0.00000000000E+00 0. -1.
     999901    1    3    3    0    0  0.49912319240E-01 -0.59831594461E-02 -0.10089449506E+00  0.88719036116E+00  0.88000000000E+00 0.  1.
        -11    1    4    4    0    0 -0.22316699272E-01 -0.75636849644E-02  0.40335590229E-01  0.46716863730E-01  0.51100000000E-03 0.  1.
         11    1    4    4    0    0 -0.32255192216E-01  0.10650012541E-01  0.81541266191E-01  0.88334927436E-01  0.51100000000E-03 0. -1.
</event>
<event>
 8    1  0.1109553E+005  0.1043930E+01  0.7957747E-01            NaN
         13   -1    0    0    0    0  0.00000000000E+00  0.00000000000E+00  0.74505805969E-08  0.10566000000E+00  0.10566000000E+00 0.  1.
     999900   -1    0    0    0    0 -0.00000000000E+00 -0.00000000000E+00 -0.74505805969E-08  0.93827000000E+00  0.93827000000E+00 0.  1.
     999902    2    1    2    0    0  0.16930863351E-01  0.23777359127E-02  0.16714896943E-01  0.10200198444E+01  0.10197395684E+01 0.  0.
     999903    2    3    3    0    0 -0.30361163566E-01 -0.52751762984E-01  0.11483879137E+00  0.13159196542E+00  0.20590012347E-01 0.  0.
         14    1    1    2    0    0 -0.16930863351E-01 -0.23777359127E-02 -0.16714896943E-01  0.23910155619E-01  0.00000000000E+00 0.  1.
     999901    1    3    3    0    0  0.47292026917E-01  0.55129498897E-01 -0.98123894427E-01  0.88842787896E+00  0.88000000000E+00 0.  1.
        -11    1    4    4    0    0 -0.11821734890E-01 -0.12318845419E-01  0.50991133703E-01  0.53776056062E-01  0.51100000000E-03 0. -1.
         11    1    4    4    0    0 -0.18539428676E-01 -0.40432917565E-01  0.63847657668E-01  0.77815909358E-01  0.51100000000E-03 0.  1.
</event>
<event>
 8    1  0.1109553E+005  0.1043930E+01  0.7957747E-01            NaN
         13   -1    0    0    0    0  0.00000000000E+00  0.00000000000E+00  0.74505805969E-08  0.10566000000E+00  0.10566000000E+00 0.  1.
     999900   -1    0    0    0    0 -0.00000000000E+00 -0.00000000000E+00 -0.74505805969E-08  0.93827000000E+00  0.93827000000E+00 0. -1.
     999902    2    1    2    0    0 -0.11216368000E-01 -0.20672535074E-01  0.20656295575E-02  0.10203200986E+01  0.10200468990E+01 0.  0.
     999903    2    3    3    0    0 -0.29950162759E-02  0.10902760861E+00  0.65234276624E-01  0.12853537355E+00  0.19231272591E-01 0.  0.
         14    1    1    2    0    0  0.11216368000E-01  0.20672535074E-01 -0.20656295575E-02  0.23609901376E-01  0.00000000000E+00 0. -1.
     999901    1    3    3    0    0 -0.82213517241E-02 -0.12970014369E+00 -0.63168647067E-01  0.89178472507E+00  0.88000000000E+00 0.  1.
        -11    1    4    4    0    0 -0.74039938336E-02  0.97507322233E-01  0.53333917025E-01  0.11138790257E+00  0.51100000000E-03 0.  1.
         11    1    4    4    0    0  0.44089775578E-02  0.11520286381E-01  0.11900359599E-01  0.17147470979E-01  0.51100000000E-03 0. -1.
</event>
<event>
 8    1  0.1109553E+005  0.1043930E+01  0.7957747E-01            NaN
         13   -1    0    0    0    0  0.00000000000E+00  0.00000000000E+00  0.74505805969E-08  0.10566000000E+00  0.10566000000E+00 0. -1.
     999900   -1    0    0    0    0 -0.00000000000E+00 -0.00000000000E+00 -0.74505805969E-08  0.93827000000E+00  0.93827000000E+00 0. -1.
     999902    2    1    2    0    0 -0.16528232437E-01 -0.94280328431E-02 -0.14121187582E-01  0.10202344686E+01  0.10199592603E+01 0.  0.
     999903    2    3    3    0    0  0.74310128705E-01 -0.36425705969E-01 -0.99099390571E-01  0.13107656517E+00  0.22617458765E-01 0.  0.
         14    1    1    2    0    0  0.16528232437E-01  0.94280328431E-02  0.14121187582E-01  0.23695531425E-01  0.00000000000E+00 0. -1.
     999901    1    3    3    0    0 -0.90838361142E-01  0.26997673125E-01  0.84978202990E-01  0.88915790341E+00  0.88000000000E+00 0.  1.
        -11    1    4    4    0    0  0.31385914408E-01 -0.54671702841E-02 -0.47217159535E-01  0.56962152783E-01  0.51100000000E-03 0. -1.
         11    1    4    4    0    0  0.42924214297E-01 -0.30958535684E-01 -0.51882231036E-01  0.74114412384E-01  0.51100000000E-03 0.  1.
</event>
<event>
 8    1  0.1109553E+005  0.1043930E+01  0.7957747E-01            NaN
         13   -1    0    0    0    0  0.00000000000E+00  0.00000000000E+00  0.74505805969E-08  0.10566000000E+00  0.10566000000E+00 0.  1.
     999900   -1    0    0    0    0 -0.00000000000E+00 -0.00000000000E+00 -0.74505805969E-08  0.93827000000E+00  0.93827000000E+00 0.  1.
     999902    2    1    2    0    0 -0.19583247075E-01 -0.86598683022E-02 -0.10021546564E-01  0.10202883359E+01  0.10200143921E+01 0.  0.
     999903    2    3    3    0    0 -0.12566786058E+00 -0.13787253253E-01 -0.35229512256E-01  0.13354391004E+00  0.24705421257E-01 0.  0.
         14    1    1    2    0    0  0.19583247075E-01  0.86598683022E-02  0.10021546564E-01  0.23641664081E-01  0.00000000000E+00 0.  1.
     999901    1    3    3    0    0  0.10608461350E+00  0.51273849510E-02  0.25207965693E-01  0.88674442588E+00  0.88000000000E+00 0.  1.
        -11    1    4    4    0    0 -0.49277402028E-01  0.37145534451E-02 -0.55074229614E-02  0.49725778894E-01  0.51100000000E-03 0. -1.
         11    1    4    4    0    0 -0.76390458550E-01 -0.17501806698E-01 -0.29722089295E-01  0.83818131143E-01  0.51100000000E-03 0.  1.
</event>
<event>
 8    1  0.1109553E+005  0.1043930E+01  0.7957747E-01            NaN
         13   -1    0    0    0    0  0.00000000000E+00  0.00000000000E+00  0.74505805969E-08  0.10566000000E+00  0.10566000000E+00 0. -1.
     999900   -1    0    0    0    0 -0.00000000000E+00 -0.00000000000E+00 -0.74505805969E-08  0.93827000000E+00  0.93827000000E+00 0. -1.
     999902    2    1    2    0    0  0.11932087819E-01 -0.10093234746E-01  0.17520902560E-01  0.10204517093E+01  0.10201815823E+01 0.  0.
     999903    2    3    3    0    0 -0.55610303004E-01 -0.90878509007E-01  0.75835146976E-01  0.13225759415E+00  0.19740630543E-01 0.  0.
         14    1    1    2    0    0 -0.11932087819E-01  0.10093234746E-01 -0.17520902560E-01  0.23478290694E-01  0.00000000000E+00 0.  1.
     999901    1    3    3    0    0  0.67542390823E-01  0.80785274260E-01 -0.58314244416E-01  0.88819411516E+00  0.88000000000E+00 0.  1.
        -11    1    4    4    0    0 -0.23372156662E-01 -0.53970675620E-01  0.47853987143E-01  0.75824512793E-01  0.51100000000E-03 0. -1.
         11    1    4    4    0    0 -0.32238146342E-01 -0.36907833387E-01  0.27981159833E-01  0.56433081357E-01  0.51100000000E-03 0.  1.
</event>
<event>
 8    1  0.1109553E+005  0.1043930E+01  0.7957747E-01            NaN
         13   -1    0    0    0    0  0.00000000000E+00  0.00000000000E+00  0.74505805969E-08  0.10566000000E+00  0.10566000000E+00 0.  1.
     999900   -1    0    0    0    0 -0.00000000000E+00 -0.00000000000E+00 -0.74505805969E-08  0.93827000000E+00  0.93827000000E+00 0.  1.
     999902    2    1    2    0    0 -0.51237254710E-02 -0.21056225755E-01  0.10214627855E-01  0.10199726248E+01  0.10196912275E+01 0.  0.
     999903    2    3    3    0    0 -0.10877167480E-01 -0.68807116763E-01  0.11135678800E+00  0.13287455452E+00  0.20064419151E-01 0.  0.
         14    1    1    2    0    0  0.51237254710E-02  0.21056225755E-01 -0.10214627855E-01  0.23957375231E-01  0.00000000000E+00 0. -1.
     999901    1    3    3    0    0  0.57534420085E-02  0.47750891008E-01 -0.10114216014E+00  0.88709807025E+00  0.88000000000E+00 0.  1.
        -11    1    4    4    0    0  0.10861699014E-03 -0.42528056770E-01  0.79325402776E-01  0.90007933300E-01  0.51100000000E-03 0.  1.
         11    1    4    4    0    0 -0.10985784470E-01 -0.26279059993E-01  0.32031385219E-01  0.42866621217E-01  0.51100000000E-03 0. -1.
</event>
<event>
 8    1  0.1109553E+005  0.1043930E+01  0.7957747E-01            NaN
         13   -1    0    0    0    0  0.00000000000E+00  0.00000000000E+00  0.74505805969E-08  0.10566000000E+00  0.10566000000E+00 0. -1.
     999900   -1    0    0    0    0 -0.00000000000E+00 -0.00000000000E+00 -0.74505805969E-08  0.93827000000E+00  0.93827000000E+00 0. -1.
     999902    2    1    2    0    0  0.93915964753E-02  0.16206931814E-01  0.14158914460E-01  0.10204493360E+01  0.10201791538E+01 0.  0.
     999903    2    3    3    0    0  0.58497094209E-01  0.86360396670E-01 -0.77781938956E-01  0.13152527903E+00  0.19205229797E-01 0.  0.
         14    1    1    2    0    0 -0.93915964753E-02 -0.16206931814E-01 -0.14158914460E-01  0.23480664000E-01  0.00000000000E+00 0.  1.
     999901    1    3    3    0    0 -0.49105497734E-01 -0.70153464856E-01  0.91940853416E-01  0.88892405697E+00  0.88000000000E+00 0.  1.
        -11    1    4    4    0    0  0.28036543426E-01  0.38686683917E-01 -0.24017451622E-01  0.53477157583E-01  0.51100000000E-03 0.  1.
         11    1    4    4    0    0  0.30460550784E-01  0.47673712752E-01 -0.53764487334E-01  0.78048121444E-01  0.51100000000E-03 0. -1.
</event>
<event>
 8    1  0.1109553E+005  0.1043930E+01  0.7957747E-01            NaN
         13   -1    0    0    0    0  0.00000000000E+00  0.00000000000E+00  0.74505805969E-08  0.10566000000E+00  0.10566000000E+00 0. -1.
     999900   -1    0    0    0    0 -0.00000000000E+00 -0.00000000000E+00 -0.74505805969E-08  0.93827000000E+00  0.93827000000E+00 0.  1.
     999902    2    1    2    0    0  0.15536866568E-01 -0.71070947825E-02 -0.16398175987E-01  0.10202486741E+01  0.10199737996E+01 0.  0.
     999903    2    3    3    0    0  0.64310332428E-01  0.54576108018E-01  0.96250617391E-01  0.12958969387E+00  0.20370002101E-01 0.  0.
         14    1    1    2    0    0 -0.15536866568E-01  0.71070947825E-02  0.16398175987E-01  0.23681325864E-01  0.00000000000E+00 0. -1.
     999901    1    3    3    0    0 -0.48773465860E-01 -0.61683202800E-01 -0.11264879338E+00  0.89065898027E+00  0.88000000000E+00 0.  1.
        -11    1    4    4    0    0  0.24303505577E-01  0.29952294558E-01  0.32770550380E-01  0.50615910797E-01  0.51100000000E-03 0.  1.
         11    1    4    4    0    0  0.40006826851E-01  0.24623813460E-01  0.63480067011E-01  0.78973783072E-01  0.51100000000E-03 0. -1.
</event>
<event>
 8    1  0.1109553E+005  0.1043930E+01  0.7957747E-01            NaN
         13   -1    0    0    0    0  0.00000000000E+00  0.00000000000E+00  0.74505805969E-08  0.10566000000E+00  0.10566000000E+00 0.  1.
     999900   -1    0    0    0    0 -0.00000000000E+00 -0.00000000000E+00 -0.74505805969E-08  0.93827000000E+00  0.93827000000E+00 0. -1.
     999902    2    1    2    0    0 -0.18146504360E-01  0.15582204815E-01  0.49135590718E-02  0.10195118963E+01  0.10192194380E+01 0.  0.
     999903    2    3    3    0    0 -0.11404086868E+00  0.62898411088E-01 -0.16071960104E-01  0.13279043803E+00  0.20333781828E-01 0.  0.
         14    1    1    2    0    0  0.18146504360E-01 -0.15582204815E-01 -0.49135590718E-02  0.24418103737E-01  0.00000000000E+00 0.  1.
     999901    1    3    3    0    0  0.95894364317E-01 -0.47316206273E-01  0.20985519175E-01  0.88672145824E+00  0.88000000000E+00 0.  1.
        -11    1    4    4    0    0 -0.85319510361E-01  0.39007192372E-01 -0.17350689076E-01  0.95405908818E-01  0.51100000000E-03 0. -1.
         11    1    4    4    0    0 -0.28721358316E-01  0.23891218717E-01  0.12787289729E-02  0.37384529207E-01  0.51100000000E-03 0.  1.
</event>
<event>
 8    1  0.1109553E+005  0.1043930E+01  0.7957747E-01            NaN
         13   -1    0    0    0    0  0.00000000000E+00  0.00000000000E+00  0.74505805969E-08  0.10566000000E+00  0.10566000000E+00 0. -1.
     999900   -1    0    0    0    0 -0.00000000000E+00 -0.00000000000E+00 -0.74505805969E-08  0.93827000000E+00  0.93827000000E+00 0. -1.
     999902    2    1    2    0    0 -0.67432086238E-02  0.13202238706E-01 -0.16757660697E-01  0.10215561501E+01  0.10213111076E+01 0.  0.
     999903    2    3    3    0    0 -0.62538048583E-01  0.10419930090E+00  0.49356521504E-01  0.13264411021E+00  0.19745681278E-01 0.  0.
         14    1    1    2    0    0  0.67432086238E-02 -0.13202238706E-01  0.16757660697E-01  0.22373849946E-01  0.00000000000E+00 0. -1.
     999901    1    3    3    0    0  0.55794839959E-01 -0.90997062196E-01 -0.66114182201E-01  0.88891203985E+00  0.88000000000E+00 0. -1.
        -11    1    4    4    0    0 -0.25341019114E-01  0.26254199849E-01  0.18636883842E-01  0.40976149402E-01  0.51100000000E-03 0.  1.
         11    1    4    4    0    0 -0.37197029469E-01  0.77945101052E-01  0.30719637661E-01  0.91667960806E-01  0.51100000000E-03 0. -1.
</event>
<event>
 8    1  0.1109553E+005  0.1043930E+01  0.7957747E-01            NaN
         13   -1    0    0    0    0  0.00000000000E+00  0.00000000000E+00  0.74505805969E-08  0.10566000000E+00  0.10566000000E+00 0.  1.
     999900   -1    0    0    0    0 -0.00000000000E+00 -0.00000000000E+00 -0.74505805969E-08  0.93827000000E+00  0.93827000000E+00 0.  1.
     999902    2    1    2    0    0  0.24358869044E-01 -0.15460178372E-02  0.30399052815E-02  0.10193335430E+01  0.10190367443E+01 0.  0.
     999903    2    3    3    0    0  0.37769102866E-01 -0.16861776866E-01  0.12266161073E+00  0.13100716197E+00  0.20153934817E-01 0.  0.
         14    1    1    2    0    0 -0.24358869044E-01  0.15460178372E-02 -0.30399052815E-02  0.24596456988E-01  0.00000000000E+00 0. -1.
     999901    1    3    3    0    0 -0.13410233822E-01  0.15315759029E-01 -0.11962170545E+00  0.88832638105E+00  0.88000000000E+00 0.  1.
        -11    1    4    4    0    0  0.30362050994E-01 -0.10971794957E-01  0.65061546374E-01  0.72632639789E-01  0.51100000000E-03 0.  1.
         11    1    4    4    0    0  0.74070518717E-02 -0.58899819093E-02  0.57600064358E-01  0.58374522177E-01  0.51100000000E-03 0. -1.
</event>
<event>
 8    1  0.1109553E+005  0.1043930E+01  0.7957747E-01            NaN
         13   -1    0    0    0    0  0.00000000000E+00  0.00000000000E+00  0.74505805969E-08  0.10566000000E+00  0.10566000000E+00 0.  1.
     999900   -1    0    0    0    0 -0.00000000000E+00 -0.00000000000E+00 -0.74505805969E-08  0.93827000000E+00  0.93827000000E+00 0.  1.
     999902    2    1    2    0    0 -0.20156105490E-01 -0.32451865276E-02  0.81130374709E-02  0.10219613587E+01  0.10217252064E+01 0.  0.
     999903    2    3    3    0    0 -0.79282078134E-01 -0.87393466776E-01 -0.59737848561E-01  0.13337790372E+00  0.17256555305E-01 0.  0.
         14    1    1    2    0    0  0.20156105490E-01  0.32451865276E-02 -0.81130374709E-02  0.21968641313E-01  0.00000000000E+00 0.  1.
     999901    1    3    3    0    0  0.59125972644E-01  0.84148280248E-01  0.67850886032E-01  0.88858345497E+00  0.88000000000E+00 0. -1.
        -11    1    4    4    0    0 -0.45039373800E-01 -0.37156252811E-01 -0.31421803436E-01  0.66307791152E-01  0.51100000000E-03 0.  1.
         11    1    4    4    0    0 -0.34242704334E-01 -0.50237213965E-01 -0.28316045125E-01  0.67070112566E-01  0.51100000000E-03 0. -1.
</event>
<event>
 8    1  0.1109553E+005  0.1043930E+01  0.7957747E-01            NaN
         13   -1    0    0    0    0  0.00000000000E+00  0.00000000000E+00  0.74505805969E-08  0.10566000000E+00  0.10566000000E+00 0. -1.
     999900   -1    0    0    0    0 -0.00000000000E+00 -0.00000000000E+00 -0.74505805969E-08  0.93827000000E+00  0.93827000000E+00 0.  1.
     999902    2    1    2    0    0  0.21481710791E-01  0.99432215366E-03 -0.10738724872E-01  0.10198930953E+01  0.10196098043E+01 0.  0.
     999903    2    3    3    0    0  0.19196038508E-01  0.12651950482E+00  0.16161301301E-01  0.13057571260E+00  0.20326240872E-01 0.  0.
         14    1    1    2    0    0 -0.21481710791E-01 -0.99432215366E-03  0.10738724872E-01  0.24036904687E-01  0.00000000000E+00 0. -1.
     999901    1    3    3    0    0  0.22856722823E-02 -0.12552518267E+00 -0.26900026173E-01  0.88931738271E+00  0.88000000000E+00 0.  1.
        -11    1    4    4    0    0  0.89211593695E-02  0.92183777879E-01  0.19263334341E-01  0.94597955366E-01  0.51100000000E-03 0.  1.
         11    1    4    4    0    0  0.10274879139E-01  0.34335726941E-01 -0.31020330397E-02  0.35977757238E-01  0.51100000000E-03 0. -1.
</event>
<event>
 8    1  0.1109553E+005  0.1043930E+01  0.7957747E-01            NaN
         13   -1    0    0    0    0  0.00000000000E+00  0.00000000000E+00  0.74505805969E-08  0.10566000000E+00  0.10566000000E+00 0. -1.
     999900   -1    0    0    0    0 -0.00000000000E+00 -0.00000000000E+00 -0.74505805969E-08  0.93827000000E+00  0.93827000000E+00 0.  1.
     999902    2    1    2    0    0  0.10990548117E-01  0.20446807508E-01 -0.20982633277E-02  0.10206219157E+01  0.10203557360E+01 0.  0.
     999903    2    3    3    0    0 -0.79739697145E-02 -0.97797683667E-01  0.80123186433E-01  0.12871285114E+00  0.22788196948E-01 0.  0.
         14    1    1    2    0    0 -0.10990548117E-01 -0.20446807508E-01  0.20982633277E-02  0.23308084310E-01  0.00000000000E+00 0. -1.
     999901    1    3    3    0    0  0.18964517832E-01  0.11824449118E+00 -0.82221449761E-01  0.89190906455E+00  0.88000000000E+00 0.  1.
        -11    1    4    4    0    0 -0.12301392444E-01 -0.32433013497E-01  0.34162363651E-01  0.48688323362E-01  0.51100000000E-03 0. -1.
         11    1    4    4    0    0  0.43274227299E-02 -0.65364670171E-01  0.45960822782E-01  0.80024527776E-01  0.51100000000E-03 0.  1.
</event>
<event>
 8    1  0.1109553E+005  0.1043930E+01  0.7957747E-01            NaN
         13   -1    0    0    0    0  0.00000000000E+00  0.00000000000E+00  0.74505805969E-08  0.10566000000E+00  0.10566000000E+00 0. -1.
     999900   -1    0    0    0    0 -0.00000000000E+00 -0.00000000000E+00 -0.74505805969E-08  0.93827000000E+00  0.93827000000E+00 0. -1.
     999902    2    1    2    0    0 -0.73480553800E-02 -0.34277446764E-02 -0.22157232752E-01  0.10203357991E+01  0.10200629670E+01 0.  0.
     999903    2    3    3    0    0 -0.10792968701E+00 -0.65231793424E-01  0.29146544719E-01  0.13097171022E+00  0.20001589869E-01 0.  0.
         14    1    1    2    0    0  0.73480553800E-02  0.34277446764E-02  0.22157232752E-01  0.23594200869E-01  0.00000000000E+00 0. -1.
     999901    1    3    3    0    0  0.10058163163E+00  0.61804048748E-01 -0.51303777471E-01  0.88936408891E+00  0.88000000000E+00 0. -1.
        -11    1    4    4    0    0 -0.45765613644E-01 -0.39231215128E-01  0.14965131126E-01  0.62111157639E-01  0.51100000000E-03 0. -1.
         11    1    4    4    0    0 -0.62164073366E-01 -0.26000578297E-01  0.14181413593E-01  0.68860552581E-01  0.51100000000E-03 0.  1.
</event>
<event>
 8    1  0.1109553E+005  0.1043930E+01  0.7957747E-01            NaN
         13   -1    0    0    0    0  0.00000000000E+00  0.00000000000E+00  0.74505805969E-08  0.10566000000E+00  0.10566000000E+00 0.  1.
     999900   -1    0    0    0    0 -0.00000000000E+00 -0.00000000000E+00 -0.74505805969E-08  0.93827000000E+00  0.93827000000E+00 0. -1.
     999902    2    1    2    0    0 -0.20503445275E-01 -0.86454487152E-02  0.81339168485E-02  0.10202383210E+01  0.10199632032E+01 0.  0.
     999903    2    3    3    0    0  0.92138354977E-02  0.79348190104E-01  0.10136594343E+00  0.13045283670E+00  0.19022567588E-01 0.  0.
         14    1    1    2    0    0  0.20503445275E-01  0.86454487152E-02 -0.81339168485E-02  0.23691679023E-01  0.00000000000E+00 0. -1.
     999901    1    3    3    0    0 -0.29717280773E-01 -0.87993638819E-01 -0.93232026585E-01  0.88978548428E+00  0.88000000000E+00 0. -1.
        -11    1    4    4    0    0  0.74500758009E-02  0.28904386091E-01  0.25139735691E-01  0.39028638156E-01  0.51100000000E-03 0.  1.
         11    1    4    4    0    0  0.17637596969E-02  0.50443804013E-01  0.76226207743E-01  0.91424198544E-01  0.51100000000E-03 0. -1.
</event>
<event>
 8    1  0.1109553E+005  0.1043930E+01  0.7957747E-01            NaN
         13   -1    0    0    0    0  0.00000000000E+00  0.00000000000E+00  0.74505805969E-08  0.10566000000E+00  0.10566000000E+00 0. -1.
     999900   -1    0    0    0    0 -0.00000000000E+00 -0.00000000000E+00 -0.74505805969E-08  0.93827000000E+00  0.93827000000E+00 0. -1.
     999902    2    1    2    0    0 -0.19969277993E-01 -0.78159379001E-02  0.11695986183E-01  0.10195034357E+01  0.10192107723E+01 0.  0.
     999903    2    3    3    0    0  0.57012336553E-01  0.10927143717E+00 -0.25942777369E-01  0.12762211017E+00  0.20584504045E-01 0.  0.
         14    1    1    2    0    0  0.19969277993E-01  0.78159379001E-02 -0.11695986183E-01  0.24426564262E-01  0.00000000000E+00 0.  1.
     999901    1    3    3    0    0 -0.76981614547E-01 -0.11708737507E+00  0.37638763553E-01  0.89188132557E+00  0.88000000000E+00 0. -1.
        -11    1    4    4    0    0  0.37343978400E-01  0.49929080456E-01 -0.15331118791E-01  0.64208956714E-01  0.51100000000E-03 0. -1.
         11    1    4    4    0    0  0.19668358154E-01  0.59342356710E-01 -0.10611658578E-01  0.63413153455E-01  0.51100000000E-03 0.  1.
</event>
<event>
 8    1  0.1109553E+005  0.1043930E+01  0.7957747E-01            NaN
         13   -1    0    0    0    0  0.00000000000E+00  0.00000000000E+00  0.74505805969E-08  0.10566000000E+00  0.10566000000E+00 0.  1.
     999900   -1    0    0    0    0 -0.00000000000E+00 -0.00000000000E+00 -0.74505805969E-08  0.93827000000E+00  0.93827000000E+00 0.  1.
     999902    2    1    2    0    0  0.20894317454E-01  0.10806697359E-01  0.15518540385E-02  0.10203553216E+01  0.10200829461E+01 0.  0.
     999903    2    3    3    0    0 -0.76034012053E-01 -0.14757514993E-01 -0.10082573519E+00  0.12876696325E+00  0.20399674269E-01 0.  0.
         14    1    1    2    0    0 -0.20894317454E-01 -0.10806697359E-01 -0.15518540385E-02  0.23574678378E-01  0.00000000000E+00 0. -1.
     999901    1    3    3    0    0  0.96928329507E-01  0.25564212352E-01  0.10237758923E+00  0.89158835837E+00  0.88000000000E+00 0. -1.
        -11    1    4    4    0    0 -0.12599680311E-01 -0.86880093619E-02 -0.12044736166E-01  0.19482562484E-01  0.51100000000E-03 0. -1.
         11    1    4    4    0    0 -0.63434331742E-01 -0.60695056310E-02 -0.88780999020E-01  0.10928440076E+00  0.51100000000E-03 0.  1.
</event>
<event>
 8    1  0.1109553E+005  0.1043930E+01  0.7957747E-01            NaN
         13   -1    0    0    0    0  0.00000000000E+00  0.00000000000E+00  0.74505805969E-08  0.10566000000E+00  0.10566000000E+00 0. -1.
     999900   -1    0    0    0    0 -0.00000000000E+00 -0.00000000000E+00 -0.74505805969E-08  0.93827000000E+00  0.93827000000E+00 0.  1.
     999902    2    1    2    0    0  0.17064856807E-01  0.41207474004E-02 -0.15840613590E-01  0.10202843887E+01  0.10200103523E+01 0.  0.
     999903    2    3    3    0    0  0.66616399508E-01  0.35026388474E-01 -0.10837322646E+00  0.13350775473E+00  0.20370856296E-01 0.  0.
         14    1    1    2    0    0 -0.17064856807E-01 -0.41207474004E-02  0.15840613590E-01  0.23645611345E-01  0.00000000000E+00 0. -1.
     999901    1    3    3    0    0 -0.49551542701E-01 -0.30905641074E-01  0.92532612870E-01  0.88677663393E+00  0.88000000000E+00 0. -1.
        -11    1    4    4    0    0  0.27349393617E-01  0.14778074616E-01 -0.62562404936E-01  0.69861981456E-01  0.51100000000E-03 0. -1.
         11    1    4    4    0    0  0.39267005890E-01  0.20248313858E-01 -0.45810821525E-01  0.63645773272E-01  0.51100000000E-03 0.  1.
</event>
<event>
 8    1  0.1109553E+005  0.1043930E+01  0.7957747E-01            NaN
         13   -1    0    0    0    0  0.00000000000E+00  0.00000000000E+00  0.74505805969E-08  0.10566000000E+00  0.10566000000E+00 0. -1.
     999900   -1    0    0    0    0 -0.00000000000E+00 -0.00000000000E+00 -0.74505805969E-08  0.93827000000E+00  0.93827000000E+00 0. -1.
     999902    2    1    2    0    0 -0.12633533223E-01  0.15212991818E-01 -0.15094709781E-01  0.10190524691E+01  0.10187487635E+01 0.  0.
     999903    2    3    3    0    0  0.37675214012E-01 -0.11524442512E+00  0.30947759565E-01  0.12682491028E+00  0.20642063177E-01 0.  0.
         14    1    1    2    0    0  0.12633533223E-01 -0.15212991818E-01  0.15094709781E-01  0.24877530929E-01  0.00000000000E+00 0. -1.
     999901    1    3    3    0    0 -0.50308747235E-01  0.13045741694E+00 -0.46042469347E-01  0.89222755879E+00  0.88000000000E+00 0. -1.
        -11    1    4    4    0    0  0.19997956259E-01 -0.39094779639E-01  0.18546121294E-01  0.47671163040E-01  0.51100000000E-03 0.  1.
         11    1    4    4    0    0  0.17677257754E-01 -0.76149645485E-01  0.12401638271E-01  0.79153747240E-01  0.51100000000E-03 0. -1.
</event>
<event>
 8    1  0.1138685E+005  0.1043930E+01  0.7957747E-01            NaN
         13   -1    0    0    0    0  0.00000000000E+00  0.00000000000E+00  0.74505805969E-08  0.10566000000E+00  0.10566000000E+00 0. -1.
     999900   -1    0    0    0    0 -0.00000000000E+00 -0.00000000000E+00 -0.74505805969E-08  0.93827000000E+00  0.93827000000E+00 0.  1.
     999902    2    1    2    0    0 -0.22543162436E-01 -0.28598086244E-02 -0.68852951803E-02  0.10201859488E+01  0.10199095990E+01 0.  0.
     999903    2    3    3    0    0 -0.25836498362E-01  0.12644827902E+00 -0.48251408224E-02  0.13072787118E+00  0.20243576907E-01 0.  0.
         14    1    1    2    0    0  0.22543162436E-01  0.28598086244E-02  0.68852951803E-02  0.23744051207E-01  0.00000000000E+00 0. -1.
     999901    1    3    3    0    0  0.32933359255E-02 -0.12930808764E+00 -0.20601543579E-02  0.88945807761E+00  0.88000000000E+00 0. -1.
        -11    1    4    4    0    0 -0.99991055667E-02  0.69169932815E-01  0.66287858378E-02  0.70204441743E-01  0.51100000000E-03 0. -1.
         11    1    4    4    0    0 -0.15837392795E-01  0.57278346202E-01 -0.11453926660E-01  0.60523429439E-01  0.51100000000E-03 0.  1.
</event>
<event>
 8    1  0.1109553E+005  0.1043930E+01  0.7957747E-01            NaN
         13   -1    0    0    0    0  0.00000000000E+00  0.00000000000E+00  0.74505805969E-08  0.10566000000E+00  0.10566000000E+00 0. -1.
     999900   -1    0    0    0    0 -0.00000000000E+00 -0.00000000000E+00 -0.74505805969E-08  0.93827000000E+00  0.93827000000E+00 0. -1.
     999902    2    1    2    0    0 -0.20527967748E-01  0.11099815550E-01 -0.14982422825E-02  0.10205452166E+01  0.10202772618E+01 0.  0.
     999903    2    3    3    0    0  0.93578191990E-01  0.53034253173E-01  0.68855758139E-01  0.12940639569E+00  0.20865996020E-01 0.  0.
         14    1    1    2    0    0  0.20527967748E-01 -0.11099815550E-01  0.14982422825E-02  0.23384783408E-01  0.00000000000E+00 0.  1.
     999901    1    3    3    0    0 -0.11410615974E+00 -0.41934437622E-01 -0.70354000422E-01  0.89113882091E+00  0.88000000000E+00 0. -1.
        -11    1    4    4    0    0  0.15991404710E-01  0.13569077908E-01  0.22581405321E-01  0.30822489957E-01  0.51100000000E-03 0. -1.
         11    1    4    4    0    0  0.77586787281E-01  0.39465175264E-01  0.46274352818E-01  0.98583905730E-01  0.51100000000E-03 0.  1.
</event>
<event>
 8    1  0.1109553E+005  0.1043930E+01  0.7957747E-01            NaN
         13   -1    0    0    0    0  0.00000000000E+00  0.00000000000E+00  0.74505805969E-08  0.10566000000E+00  0.10566000000E+00 0.  1.
     999900   -1    0    0    0    0 -0.00000000000E+00 -0.00000000000E+00 -0.74505805969E-08  0.93827000000E+00  0.93827000000E+00 0.  1.
     999902    2    1    2    0    0  0.63407390988E-02 -0.12510645011E-01  0.13128885604E-01  0.10247183148E+01  0.10245382061E+01 0.  0.
     999903    2    3    3    0    0  0.32401670832E-01 -0.10863561216E+00 -0.70906831296E-01  0.13512223613E+00  0.19459585596E-01 0.  0.
         14    1    1    2    0    0 -0.63407390988E-02  0.12510645011E-01 -0.13128885604E-01  0.19211685197E-01  0.00000000000E+00 0. -1.
     999901    1    3    3    0    0 -0.26060931733E-01  0.96124967146E-01  0.84035716900E-01  0.88959607867E+00  0.88000000000E+00 0. -1.
        -11    1    4    4    0    0  0.12963065283E-01 -0.50839193878E-01 -0.21755762771E-01  0.56799991465E-01  0.51100000000E-03 0.  1.
         11    1    4    4    0    0  0.19438605548E-01 -0.57796418279E-01 -0.49151068525E-01  0.78322244667E-01  0.51100000000E-03 0. -1.
</event>
<event>
 8    1  0.1109553E+005  0.1043930E+01  0.7957747E-01            NaN
         13   -1    0    0    0    0  0.00000000000E+00  0.00000000000E+00  0.74505805969E-08  0.10566000000E+00  0.10566000000E+00 0.  1.
     999900   -1    0    0    0    0 -0.00000000000E+00 -0.00000000000E+00 -0.74505805969E-08  0.93827000000E+00  0.93827000000E+00 0.  1.
     999902    2    1    2    0    0  0.13082018215E-01  0.19085886868E-01  0.98390263999E-02  0.10187860799E+01  0.10184757532E+01 0.  0.
     999903    2    3    3    0    0 -0.96163766264E-01  0.66128269704E-01  0.52359220130E-01  0.12976662336E+00  0.21851100884E-01 0.  0.
         14    1    1    2    0    0 -0.13082018215E-01 -0.19085886868E-01 -0.98390263999E-02  0.25143920112E-01  0.00000000000E+00 0. -1.
     999901    1    3    3    0    0  0.10924578448E+00 -0.47042382836E-01 -0.42520193730E-01  0.88901945653E+00  0.88000000000E+00 0.  1.
        -11    1    4    4    0    0 -0.74901769822E-01  0.40035898819E-01  0.34624300228E-01  0.91718327525E-01  0.51100000000E-03 0. -1.
         11    1    4    4    0    0 -0.21261996442E-01  0.26092370886E-01  0.17734919901E-01  0.38048295836E-01  0.51100000000E-03 0.  1.
</event>
<event>
 8    1  0.1109553E+005  0.1043930E+01  0.7957747E-01            NaN
         13   -1    0    0    0    0  0.00000000000E+00  0.00000000000E+00  0.74505805969E-08  0.10566000000E+00  0.10566000000E+00 0.  1.
     999900   -1    0    0    0    0 -0.00000000000E+00 -0.00000000000E+00 -0.74505805969E-08  0.93827000000E+00  0.93827000000E+00 0.  1.
     999902    2    1    2    0    0  0.40791914506E-02  0.13202475679E-02  0.23034786461E-01  0.10204995872E+01  0.10202305736E+01 0.  0.
     999903    2    3    3    0    0 -0.80604575499E-02 -0.44201209852E-01  0.12289098540E+00  0.13360002433E+00  0.26982480982E-01 0.  0.
         14    1    1    2    0    0 -0.40791914506E-02 -0.13202475679E-02 -0.23034786461E-01  0.23430412796E-01  0.00000000000E+00 0. -1.
     999901    1    3    3    0    0  0.12139649001E-01  0.45521457420E-01 -0.99856198937E-01  0.88689956288E+00  0.88000000000E+00 0.  1.
        -11    1    4    4    0    0  0.39313545593E-02 -0.17965559344E-01  0.78722263477E-01  0.80843507835E-01  0.51100000000E-03 0. -1.
         11    1    4    4    0    0 -0.11991812109E-01 -0.26235650508E-01  0.44168721922E-01  0.52756516492E-01  0.51100000000E-03 0.  1.
</event>
<event>
 8    1  0.1109553E+005  0.1043930E+01  0.7957747E-01            NaN
         13   -1    0    0    0    0  0.00000000000E+00  0.00000000000E+00  0.74505805969E-08  0.10566000000E+00  0.10566000000E+00 0.  1.
     999900   -1    0    0    0    0 -0.00000000000E+00 -0.00000000000E+00 -0.74505805969E-08  0.93827000000E+00  0.93827000000E+00 0. -1.
     999902    2    1    2    0    0 -0.38584692495E-03  0.21427327596E-01 -0.29431546690E-02  0.10222980467E+01  0.10220691536E+01 0.  0.
     999903    2    3    3    0    0 -0.65451165596E-01 -0.17971803889E-01 -0.11167503583E+00  0.13234950364E+00  0.20934103107E-01 0.  0.
         14    1    1    2    0    0  0.38584692495E-03 -0.21427327596E-01  0.29431546690E-02  0.21631953336E-01  0.00000000000E+00 0.  1.
     999901    1    3    3    0    0  0.65065318671E-01  0.39399131485E-01  0.10873188116E+00  0.88994854303E+00  0.88000000000E+00 0.  1.
        -11    1    4    4    0    0 -0.34929730632E-01 -0.19653185178E-01 -0.56550237489E-01  0.69314675579E-01  0.51100000000E-03 0. -1.
         11    1    4    4    0    0 -0.30521434965E-01  0.16813812888E-02 -0.55124798339E-01  0.63034828057E-01  0.51100000000E-03 0.  1.
</event>
<event>
 8    1  0.1109553E+005  0.1043930E+01  0.7957747E-01            NaN
         13   -1    0    0    0    0  0.00000000000E+00  0.00000000000E+00  0.74505805969E-08  0.10566000000E+00  0.10566000000E+00 0.  1.
     999900   -1    0    0    0    0 -0.00000000000E+00 -0.00000000000E+00 -0.74505805969E-08  0.93827000000E+00  0.93827000000E+00 0. -1.
     999902    2    1    2    0    0 -0.91326269604E-02  0.19866673691E-01 -0.84835787834E-04  0.10220645753E+01  0.10218306608E+01 0.  0.
     999903    2    3    3    0    0  0.25239446763E-01  0.33324700152E-01 -0.12445958478E+00  0.13255255399E+00  0.18232553640E-01 0.  0.
         14    1    1    2    0    0  0.91326269604E-02 -0.19866673691E-01  0.84835787834E-04  0.21865424667E-01  0.00000000000E+00 0. -1.
     999901    1    3    3    0    0 -0.34372073724E-01 -0.13458026461E-01  0.12437474899E+00  0.88951202134E+00  0.88000000000E+00 0.  1.
        -11    1    4    4    0    0  0.29860110266E-02  0.25771204793E-02 -0.36968074717E-01  0.37181413113E-01  0.51100000000E-03 0. -1.
         11    1    4    4    0    0  0.22253435737E-01  0.30747579673E-01 -0.87491510064E-01  0.95371140876E-01  0.51100000000E-03 0.  1.
</event>
<event>
 7    1  0.1109553E+005  0.1043930E+01  0.7957747E-01            NaN
         13   -1    0    0    0    0  0.00000000000E+00  0.00000000000E+00  0.74505805969E-08  0.10566000000E+00  0.10566000000E+00 0. -1.
     999900   -1    0    0    0    0 -0.00000000000E+00 -0.00000000000E+00 -0.74505805969E-08  0.93827000000E+00  0.93827000000E+00 0. -1.
     999903    2    1    2    0    0 -0.10130837934E+00 -0.49631664580E-02  0.48942491331E-01  0.11437489249E+00  0.19955646534E-01 0.  0.
         14    1    1    2    0    0  0.52427308433E-02 -0.14343442683E-01  0.36929222202E-01  0.39962332604E-01  0.00000000000E+00 0. -1.
     999901    1    1    2    0    0  0.96065648498E-01  0.19306609141E-01 -0.85871713533E-01  0.88959277490E+00  0.88000000000E+00 0.  1.
        -11    1    3    3    0    0 -0.67574719374E-01  0.23203943048E-02  0.23836731498E-01  0.71695033424E-01  0.51100000000E-03 0. -1.
         11    1    3    3    0    0 -0.33733659968E-01 -0.72835607628E-02  0.25105759833E-01  0.42679859067E-01  0.51100000000E-03 0.  1.
</event>
<event>
 8    1  0.1109553E+005  0.1043930E+01  0.7957747E-01            NaN
         13   -1    0    0    0    0  0.00000000000E+00  0.00000000000E+00  0.74505805969E-08  0.10566000000E+00  0.10566000000E+00 0. -1.
     999900   -1    0    0    0    0 -0.00000000000E+00 -0.00000000000E+00 -0.74505805969E-08  0.93827000000E+00  0.93827000000E+00 0. -1.
     999902    2    1    2    0    0 -0.14610951752E-02  0.20965919418E-01  0.99300009934E-04  0.10229129965E+01  0.10226970636E+01 0.  0.
     999903    2    3    3    0    0  0.84459342470E-01  0.46748952937E-01 -0.90187205932E-01  0.13375680122E+00  0.20935726127E-01 0.  0.
         14    1    1    2    0    0  0.14610951752E-02 -0.20965919418E-01 -0.99300009934E-04  0.21017003512E-01  0.00000000000E+00 0. -1.
     999901    1    3    3    0    0 -0.85920437645E-01 -0.25783033519E-01  0.90286505942E-01  0.88915619526E+00  0.88000000000E+00 0.  1.
        -11    1    4    4    0    0  0.78306839111E-01  0.36077484517E-01 -0.75719207159E-01  0.11474844397E+00  0.51100000000E-03 0.  1.
         11    1    4    4    0    0  0.61525033590E-02  0.10671468421E-01 -0.14467998772E-01  0.19008357249E-01  0.51100000000E-03 0. -1.
</event>
<event>
 8    1  0.1109553E+005  0.1043930E+01  0.7957747E-01            NaN
         13   -1    0    0    0    0  0.00000000000E+00  0.00000000000E+00  0.74505805969E-08  0.10566000000E+00  0.10566000000E+00 0.  1.
     999900   -1    0    0    0    0 -0.00000000000E+00 -0.00000000000E+00 -0.74505805969E-08  0.93827000000E+00  0.93827000000E+00 0.  1.
     999902    2    1    2    0    0  0.53372315624E-02 -0.19800526931E-01 -0.11652952600E-01  0.10203431772E+01  0.10200705176E+01 0.  0.
     999903    2    3    3    0    0  0.24052661002E-01  0.99324192131E-01  0.74389995319E-01  0.12796189381E+00  0.19913543607E-01 0.  0.
         14    1    1    2    0    0 -0.53372315624E-02  0.19800526931E-01  0.11652952600E-01  0.23586822842E-01  0.00000000000E+00 0.  1.
     999901    1    3    3    0    0 -0.18715429440E-01 -0.11912471906E+00 -0.86042947918E-01  0.89238128335E+00  0.88000000000E+00 0.  1.
        -11    1    4    4    0    0  0.50718823528E-02  0.22022193094E-01  0.27424232314E-01  0.35539423438E-01  0.51100000000E-03 0. -1.
         11    1    4    4    0    0  0.18980778649E-01  0.77301999037E-01  0.46965763004E-01  0.92422470368E-01  0.51100000000E-03 0.  1.
</event>
<event>
 8    1  0.1109553E+005  0.1043930E+01  0.7957747E-01            NaN
         13   -1    0    0    0    0  0.00000000000E+00  0.00000000000E+00  0.74505805969E-08  0.10566000000E+00  0.10566000000E+00 0. -1.
     999900   -1    0    0    0    0 -0.00000000000E+00 -0.00000000000E+00 -0.74505805969E-08  0.93827000000E+00  0.93827000000E+00 0. -1.
     999902    2    1    2    0    0  0.16300773611E-01  0.13484702911E-01 -0.98674637981E-02  0.10205864939E+01  0.10203194952E+01 0.  0.
     999903    2    3    3    0    0 -0.52036263561E-01 -0.69471127879E-01 -0.94725345797E-01  0.12999540897E+00  0.19796587639E-01 0.  0.
         14    1    1    2    0    0 -0.16300773611E-01 -0.13484702911E-01  0.98674637981E-02  0.23343506051E-01  0.00000000000E+00 0. -1.
     999901    1    3    3    0    0  0.68337037172E-01  0.82955830790E-01  0.84857881999E-01  0.89059108498E+00  0.88000000000E+00 0.  1.
        -11    1    4    4    0    0 -0.59888700361E-02 -0.18902530096E-01 -0.14483067742E-01  0.24559979246E-01  0.51100000000E-03 0.  1.
         11    1    4    4    0    0 -0.46047393525E-01 -0.50568597783E-01 -0.80242278055E-01  0.10543542972E+00  0.51100000000E-03 0. -1.
</event>
<event>
 8    1  0.1109553E+005  0.1043930E+01  0.7957747E-01            NaN
         13   -1    0    0    0    0  0.00000000000E+00  0.00000000000E+00  0.74505805969E-08  0.10566000000E+00  0.10566000000E+00 0. -1.
     999900   -1    0    0    0    0 -0.00000000000E+00 -0.00000000000E+00 -0.74505805969E-08  0.93827000000E+00  0.93827000000E+00 0. -1.
     999902    2    1    2    0    0 -0.72559983634E-03 -0.26005771968E-01  0.49797656363E-02  0.10174418001E+01  0.10170969431E+01 0.  0.
     999903    2    3    3    0    0 -0.12131020408E+00 -0.37187385457E-01  0.14302426880E-01  0.12909919313E+00  0.19051902809E-01 0.  0.
         14    1    1    2    0    0  0.72559983634E-03  0.26005771968E-01 -0.49797656363E-02  0.26488199950E-01  0.00000000000E+00 0. -1.
     999901    1    3    3    0    0  0.12058460424E+00  0.11181613489E-01 -0.93226612440E-02  0.88834260692E+00  0.88000000000E+00 0. -1.
        -11    1    4    4    0    0 -0.67216425621E-01 -0.12102806031E-01  0.27054873212E-02  0.68352809524E-01  0.51100000000E-03 0. -1.
         11    1    4    4    0    0 -0.54093778459E-01 -0.25084579426E-01  0.11596939559E-01  0.60746383604E-01  0.51100000000E-03 0.  1.
</event>
<event>
 8    1  0.1109553E+005  0.1043930E+01  0.7957747E-01            NaN
         13   -1    0    0    0    0  0.00000000000E+00  0.00000000000E+00  0.74505805969E-08  0.10566000000E+00  0.10566000000E+00 0. -1.
     999900   -1    0    0    0    0 -0.00000000000E+00 -0.00000000000E+00 -0.74505805969E-08  0.93827000000E+00  0.93827000000E+00 0.  1.
     999902    2    1    2    0    0 -0.13834233173E-01  0.12359342372E-01  0.15876689017E-01  0.10195126167E+01  0.10192201760E+01 0.  0.
     999903    2    3    3    0    0  0.17641662034E-01 -0.23654300872E-01 -0.12257360639E+00  0.12740488850E+00  0.18356536739E-01 0.  0.
         14    1    1    2    0    0  0.13834233173E-01 -0.12359342372E-01 -0.15876689017E-01  0.24417383265E-01  0.00000000000E+00 0. -1.
     999901    1    3    3    0    0 -0.31475895207E-01  0.36013643244E-01  0.13845029541E+00  0.89210772824E+00  0.88000000000E+00 0. -1.
        -11    1    4    4    0    0  0.80553348757E-02 -0.13647405224E-01 -0.31331360364E-01  0.35114887904E-01  0.51100000000E-03 0. -1.
         11    1    4    4    0    0  0.95863271580E-02 -0.10006895648E-01 -0.91242246027E-01  0.92290000596E-01  0.51100000000E-03 0.  1.
</event>
<event>
 8    1  0.1109553E+005  0.1043930E+01  0.7957747E-01            NaN
         13   -1    0    0    0    0  0.00000000000E+00  0.00000000000E+00  0.74505805969E-08  0.10566000000E+00  0.10566000000E+00 0.  1.
     999900   -1    0    0    0    0 -0.00000000000E+00 -0.00000000000E+00 -0.74505805969E-08  0.93827000000E+00  0.93827000000E+00 0.  1.
     999902    2    1    2    0    0 -0.65219720870E-02 -0.22508376717E-01 -0.41577128226E-02  0.10201297958E+01  0.10198521219E+01 0.  0.
     999903    2    3    3    0    0  0.77950814789E-01 -0.33712206906E-01 -0.97861213810E-01  0.13106201235E+00  0.19687343463E-01 0.  0.
         14    1    1    2    0    0  0.65219720870E-02  0.22508376717E-01  0.41577128226E-02  0.23800204164E-01  0.00000000000E+00 0.  1.
     999901    1    3    3    0    0 -0.84472786876E-01  0.11203830189E-01  0.93703500987E-01  0.88906778348E+00  0.88000000000E+00 0. -1.
        -11    1    4    4    0    0  0.19310593258E-01 -0.17690379459E-01 -0.25534530249E-01  0.36580348459E-01  0.51100000000E-03 0. -1.
         11    1    4    4    0    0  0.58640221531E-01 -0.16021827447E-01 -0.72326683561E-01  0.94481663893E-01  0.51100000000E-03 0.  1.
</event>
<event>
 8    1  0.1109553E+005  0.1043930E+01  0.7957747E-01            NaN
         13   -1    0    0    0    0  0.00000000000E+00  0.00000000000E+00  0.74505805969E-08  0.10566000000E+00  0.10566000000E+00 0.  1.
     999900   -1    0    0    0    0 -0.00000000000E+00 -0.00000000000E+00 -0.74505805969E-08  0.93827000000E+00  0.93827000000E+00 0.  1.
     999902    2    1    2    0    0  0.13878144487E-01  0.11783641394E-01 -0.13270989117E-01  0.10214005470E+01  0.10211520461E+01 0.  0.
     999903    2    3    3    0    0 -0.87871165132E-01  0.55928038609E-01  0.75261293445E-01  0.13003103057E+00  0.19862513862E-01 0.  0.
         14    1    1    2    0    0 -0.13878144487E-01 -0.11783641394E-01  0.13270989117E-01  0.22529452968E-01  0.00000000000E+00 0.  1.
     999901    1    3    3    0    0  0.10174930962E+00 -0.44144397216E-01 -0.88532282562E-01  0.89136951646E+00  0.88000000000E+00 0.  1.
        -11    1    4    4    0    0 -0.67483050537E-01  0.41921289785E-01  0.46347434926E-01  0.91976641015E-01  0.51100000000E-03 0.  1.
         11    1    4    4    0    0 -0.20388114595E-01  0.14006748824E-01  0.28913858518E-01  0.38054389560E-01  0.51100000000E-03 0. -1.
</event>
<event>
 8    1  0.1109553E+005  0.1043930E+01  0.7957747E-01            NaN
         13   -1    0    0    0    0  0.00000000000E+00  0.00000000000E+00  0.74505805969E-08  0.10566000000E+00  0.10566000000E+00 0.  1.
     999900   -1    0    0    0    0 -0.00000000000E+00 -0.00000000000E+00 -0.74505805969E-08  0.93827000000E+00  0.93827000000E+00 0. -1.
     999902    2    1    2    0    0  0.20329662793E-01  0.11241826803E-01 -0.18545535242E-02  0.10206252102E+01  0.10203591066E+01 0.  0.
     999903    2    3    3    0    0 -0.42275459065E-01  0.11938198259E+00  0.28561617832E-01  0.13127778761E+00  0.19463280830E-01 0.  0.
         14    1    1    2    0    0 -0.20329662793E-01 -0.11241826803E-01  0.18545535242E-02  0.23304789806E-01  0.00000000000E+00 0.  1.
     999901    1    3    3    0    0  0.62605121857E-01 -0.10814015579E+00 -0.30416171356E-01  0.88934742258E+00  0.88000000000E+00 0. -1.
        -11    1    4    4    0    0 -0.16699483354E-01  0.44086929836E-01  0.11385149641E-02  0.47160231806E-01  0.51100000000E-03 0. -1.
         11    1    4    4    0    0 -0.25575975711E-01  0.75295052753E-01  0.27423102868E-01  0.84117555804E-01  0.51100000000E-03 0.  1.
</event>
<event>
 8    1  0.1109553E+005  0.1043930E+01  0.7957747E-01            NaN
         13   -1    0    0    0    0  0.00000000000E+00  0.00000000000E+00  0.74505805969E-08  0.10566000000E+00  0.10566000000E+00 0. -1.
     999900   -1    0    0    0    0 -0.00000000000E+00 -0.00000000000E+00 -0.74505805969E-08  0.93827000000E+00  0.93827000000E+00 0.  1.
     999902    2    1    2    0    0  0.22786472969E-03 -0.22476804197E-01  0.92752233156E-02  0.10196135772E+01  0.10193235789E+01 0.  0.
     999903    2    3    3    0    0  0.62310838150E-01 -0.10528749487E+00  0.47558114940E-01  0.13272153990E+00  0.19624875231E-01 0.  0.
         14    1    1    2    0    0 -0.22786472969E-03  0.22476804197E-01 -0.92752233156E-02  0.24316422780E-01  0.00000000000E+00 0.  1.
     999901    1    3    3    0    0 -0.62082973420E-01  0.82810690676E-01 -0.38282891624E-01  0.88689203732E+00  0.88000000000E+00 0. -1.
        -11    1    4    4    0    0  0.30177735794E-01 -0.35803405458E-01  0.24018158302E-01  0.52628059334E-01  0.51100000000E-03 0. -1.
         11    1    4    4    0    0  0.32133102356E-01 -0.69484089415E-01  0.23539956638E-01  0.80093480561E-01  0.51100000000E-03 0.  1.
</event>
<event>
 8    1  0.1109553E+005  0.1043930E+01  0.7957747E-01            NaN
         13   -1    0    0    0    0  0.00000000000E+00  0.00000000000E+00  0.74505805969E-08  0.10566000000E+00  0.10566000000E+00 0.  1.
     999900   -1    0    0    0    0 -0.00000000000E+00 -0.00000000000E+00 -0.74505805969E-08  0.93827000000E+00  0.93827000000E+00 0.  1.
     999902    2    1    2    0    0 -0.11655535761E-01 -0.14324232610E-01 -0.10507939059E-01  0.10226826016E+01  0.10224618583E+01 0.  0.
     999903    2    3    3    0    0 -0.33017206865E-01  0.14404015556E-01  0.12497933031E+00  0.13159425956E+00  0.19990110814E-01 0.  0.
         14    1    1    2    0    0  0.11655535761E-01  0.14324232610E-01  0.10507939059E-01  0.21247398359E-01  0.00000000000E+00 0.  1.
     999901    1    3    3    0    0  0.21361671103E-01 -0.28728248165E-01 -0.13548726937E+00  0.89108834208E+00  0.88000000000E+00 0.  1.
        -11    1    4    4    0    0 -0.23169318470E-01  0.30347650571E-02  0.51015454485E-01  0.56114747033E-01  0.51100000000E-03 0.  1.
         11    1    4    4    0    0 -0.98478883948E-02  0.11369250498E-01  0.73963875826E-01  0.75479512525E-01  0.51100000000E-03 0. -1.
</event>
<event>
 8    1  0.1109553E+005  0.1043930E+01  0.7957747E-01            NaN
         13   -1    0    0    0    0  0.00000000000E+00  0.00000000000E+00  0.74505805969E-08  0.10566000000E+00  0.10566000000E+00 0. -1.
     999900   -1    0    0    0    0 -0.00000000000E+00 -0.00000000000E+00 -0.74505805969E-08  0.93827000000E+00  0.93827000000E+00 0.  1.
     999902    2    1    2    0    0 -0.13109107900E-01  0.16189450957E-01 -0.12888892619E-01  0.10194336618E+01  0.10191393036E+01 0.  0.
     999903    2    3    3    0    0  0.12443615492E+00  0.24540382659E-01 -0.82921760117E-02  0.12869825373E+00  0.20196368469E-01 0.  0.
         14    1    1    2    0    0  0.13109107900E-01 -0.16189450957E-01  0.12888892619E-01  0.24496338199E-01  0.00000000000E+00 0. -1.
     999901    1    3    3    0    0 -0.13754526282E+00 -0.83509317022E-02 -0.45967166069E-02  0.89073540807E+00  0.88000000000E+00 0. -1.
        -11    1    4    4    0    0  0.94626433234E-02 -0.11133485314E-02 -0.51761339069E-02  0.10855166827E-01  0.51100000000E-03 0.  1.
         11    1    4    4    0    0  0.11497351159E+00  0.25653731191E-01 -0.31160421048E-02  0.11784308691E+00  0.51100000000E-03 0. -1.
</event>
<event>
 8    1  0.1109553E+005  0.1043930E+01  0.7957747E-01            NaN
         13   -1    0    0    0    0  0.00000000000E+00  0.00000000000E+00  0.74505805969E-08  0.10566000000E+00  0.10566000000E+00 0. -1.
     999900   -1    0    0    0    0 -0.00000000000E+00 -0.00000000000E+00 -0.74505805969E-08  0.93827000000E+00  0.93827000000E+00 0. -1.
     999902    2    1    2    0    0  0.11384371377E-01  0.38398623002E-02  0.12220907129E-02  0.10318534955E+01  0.10317828232E+01 0.  0.
     999903    2    3    3    0    0  0.54199049037E-01 -0.12374377539E+00  0.34032674170E-01  0.14101837297E+00  0.21860918067E-01 0.  0.
         14    1    1    2    0    0 -0.11384371377E-01 -0.38398623002E-02 -0.12220907129E-02  0.12076504455E-01  0.00000000000E+00 0.  1.
     999901    1    3    3    0    0 -0.42814677660E-01  0.12758363769E+00 -0.32810583457E-01  0.89083512258E+00  0.88000000000E+00 0. -1.
        -11    1    4    4    0    0  0.21302064867E-01 -0.70743078882E-01  0.11948565370E-01  0.74842437912E-01  0.51100000000E-03 0. -1.
         11    1    4    4    0    0  0.32896984170E-01 -0.53000696510E-01  0.22084108800E-01  0.66175935056E-01  0.51100000000E-03 0.  1.
</event>
<event>
 8    1  0.1109553E+005  0.1043930E+01  0.7957747E-01            NaN
         13   -1    0    0    0    0  0.00000000000E+00  0.00000000000E+00  0.74505805969E-08  0.10566000000E+00  0.10566000000E+00 0.  1.
     999900   -1    0    0    0    0 -0.00000000000E+00 -0.00000000000E+00 -0.74505805969E-08  0.93827000000E+00  0.93827000000E+00 0.  1.
     999902    2    1    2    0    0  0.20181205985E-02 -0.18073634795E-01 -0.14574585022E-01  0.10206244725E+01  0.10203583518E+01 0.  0.
     999903    2    3    3    0    0  0.54828523313E-01  0.21781175224E-01  0.11306275673E+00  0.12895825939E+00  0.19143122600E-01 0.  0.
         14    1    1    2    0    0 -0.20181205985E-02  0.18073634795E-01  0.14574585022E-01  0.23305527542E-01  0.00000000000E+00 0. -1.
     999901    1    3    3    0    0 -0.52810402715E-01 -0.39854810020E-01 -0.12763734175E+00  0.89166621307E+00  0.88000000000E+00 0.  1.
        -11    1    4    4    0    0  0.51223514089E-01  0.21352561405E-01  0.90963970365E-01  0.10655742724E+00  0.51100000000E-03 0.  1.
         11    1    4    4    0    0  0.36050092249E-02  0.42861381907E-03  0.22098786364E-01  0.22400832152E-01  0.51100000000E-03 0. -1.
</event>
<event>
 8    1  0.1109553E+005  0.1043930E+01  0.7957747E-01            NaN
         13   -1    0    0    0    0  0.00000000000E+00  0.00000000000E+00  0.74505805969E-08  0.10566000000E+00  0.10566000000E+00 0.  1.
     999900   -1    0    0    0    0 -0.00000000000E+00 -0.00000000000E+00 -0.74505805969E-08  0.93827000000E+00  0.93827000000E+00 0. -1.
     999902    2    1    2    0    0  0.23537549014E-01 -0.12910894064E-02  0.29066805090E-02  0.10201785386E+01  0.10199020143E+01 0.  0.
     999903    2    3    3    0    0 -0.69659325377E-01 -0.10670196063E+00 -0.21564829290E-02  0.12898678329E+00  0.19879885074E-01 0.  0.
         14    1    1    2    0    0 -0.23537549014E-01  0.12910894064E-02 -0.29066805090E-02  0.23751461367E-01  0.00000000000E+00 0. -1.
     999901    1    3    3    0    0  0.93196874391E-01  0.10541087122E+00  0.50631634380E-02  0.89119175534E+00  0.88000000000E+00 0.  1.
        -11    1    4    4    0    0 -0.13763642174E-01 -0.36059975899E-01 -0.45801419736E-02  0.38871564533E-01  0.51100000000E-03 0. -1.
         11    1    4    4    0    0 -0.55895683202E-01 -0.70641984731E-01  0.24236590447E-02  0.90115218757E-01  0.51100000000E-03 0.  1.
</event>
<event>
 8    1  0.1109553E+005  0.1043930E+01  0.7957747E-01            NaN
         13   -1    0    0    0    0  0.00000000000E+00  0.00000000000E+00  0.74505805969E-08  0.10566000000E+00  0.10566000000E+00 0. -1.
     999900   -1    0    0    0    0 -0.00000000000E+00 -0.00000000000E+00 -0.74505805969E-08  0.93827000000E+00  0.93827000000E+00 0.  1.
     999902    2    1    2    0    0 -0.15851553592E-01 -0.17376453862E-01  0.44783066062E-02  0.10199869816E+01  0.10197059255E+01 0.  0.
     999903    2    3    3    0    0 -0.18844443298E-01  0.48559076819E-01 -0.11673951541E+00  0.12922875853E+00  0.18943616016E-01 0.  0.
         14    1    1    2    0    0  0.15851553592E-01  0.17376453862E-01 -0.44783066062E-02  0.23943018402E-01  0.00000000000E+00 0.  1.
     999901    1    3    3    0    0  0.29928897053E-02 -0.65935530681E-01  0.12121782202E+00  0.89075822307E+00  0.88000000000E+00 0. -1.
        -11    1    4    4    0    0 -0.99905042579E-02  0.12400768784E-01 -0.19986458665E-01  0.25559907917E-01  0.51100000000E-03 0.  1.
         11    1    4    4    0    0 -0.88539390399E-02  0.36158308035E-01 -0.96753056744E-01  0.10366885061E+00  0.51100000000E-03 0. -1.
</event>
<event>
 8    1  0.1109553E+005  0.1043930E+01  0.7957747E-01            NaN
         13   -1    0    0    0    0  0.00000000000E+00  0.00000000000E+00  0.74505805969E-08  0.10566000000E+00  0.10566000000E+00 0. -1.
     999900   -1    0    0    0    0 -0.00000000000E+00 -0.00000000000E+00 -0.74505805969E-08  0.93827000000E+00  0.93827000000E+00 0.  1.
     999902    2    1    2    0    0 -0.39478127074E-02 -0.22784064831E-02  0.21797336926E-01  0.10216611819E+01  0.10214184600E+01 0.  0.
     999903    2    3    3    0    0  0.12887516659E+00 -0.15034877023E-01 -0.46581060313E-03  0.13132398788E+00  0.20271080892E-01 0.  0.
         14    1    1    2    0    0  0.39478127074E-02  0.22784064831E-02 -0.21797336926E-01  0.22268818072E-01  0.00000000000E+00 0.  1.
     999901    1    3    3    0    0 -0.13282297930E+00  0.12756470540E-01  0.22263147529E-01  0.89033719405E+00  0.88000000000E+00 0. -1.
        -11    1    4    4    0    0  0.39033124322E-01 -0.12172217417E-01  0.53922603796E-02  0.41244214918E-01  0.51100000000E-03 0. -1.
         11    1    4    4    0    0  0.89842042273E-01 -0.28626596055E-02 -0.58580709827E-02  0.90079772960E-01  0.51100000000E-03 0.  1.
</event>
<event>
 8    1  0.1109553E+005  0.1043930E+01  0.7957747E-01            NaN
         13   -1    0    0    0    0  0.00000000000E+00  0.00000000000E+00  0.74505805969E-08  0.10566000000E+00  0.10566000000E+00 0.  1.
     999900   -1    0    0    0    0 -0.00000000000E+00 -0.00000000000E+00 -0.74505805969E-08  0.93827000000E+00  0.93827000000E+00 0. -1.
     999902    2    1    2    0    0 -0.91078670373E-02  0.19653191979E-01 -0.11284174552E-01  0.10195059587E+01  0.10192133565E+01 0.  0.
     999903    2    3    3    0    0 -0.10610513006E+00 -0.65568365310E-01  0.29432311129E-01  0.12915264960E+00  0.16019887795E-01 0.  0.
         14    1    1    2    0    0  0.91078670373E-02 -0.19653191979E-01  0.11284174552E-01  0.24424041276E-01  0.00000000000E+00 0. -1.
     999901    1    3    3    0    0  0.96997263027E-01  0.85221557289E-01 -0.40716485682E-01  0.89035330912E+00  0.88000000000E+00 0.  1.
        -11    1    4    4    0    0 -0.81405193054E-01 -0.42202433808E-01  0.19784303242E-01  0.93805813526E-01  0.51100000000E-03 0. -1.
         11    1    4    4    0    0 -0.24699937010E-01 -0.23365931502E-01  0.96480078874E-02  0.35346836074E-01  0.51100000000E-03 0.  1.
</event>
<event>
 8    1  0.1109553E+005  0.1043930E+01  0.7957747E-01            NaN
         13   -1    0    0    0    0  0.00000000000E+00  0.00000000000E+00  0.74505805969E-08  0.10566000000E+00  0.10566000000E+00 0.  1.
     999900   -1    0    0    0    0 -0.00000000000E+00 -0.00000000000E+00 -0.74505805969E-08  0.93827000000E+00  0.93827000000E+00 0. -1.
     999902    2    1    2    0    0 -0.10051227289E-01 -0.53404714648E-02  0.19252367238E-01  0.10215648161E+01  0.10213199656E+01 0.  0.
     999903    2    3    3    0    0  0.47318503516E-01  0.12043411747E+00  0.48885446948E-02  0.13065693501E+00  0.17433283395E-01 0.  0.
         14    1    1    2    0    0  0.10051227289E-01  0.53404714648E-02 -0.19252367238E-01  0.22365183875E-01  0.00000000000E+00 0. -1.
     999901    1    3    3    0    0 -0.57369730806E-01 -0.12577458894E+00  0.14363822543E-01  0.89090788112E+00  0.88000000000E+00 0. -1.
        -11    1    4    4    0    0  0.23950305316E-01  0.80821273280E-01  0.72032672717E-02  0.84604039618E-01  0.51100000000E-03 0. -1.
         11    1    4    4    0    0  0.23368198200E-01  0.39612844195E-01 -0.23147225769E-02  0.46052895392E-01  0.51100000000E-03 0.  1.
</event>
<event>
 8    1  0.1109553E+005  0.1043930E+01  0.7957747E-01            NaN
         13   -1    0    0    0    0  0.00000000000E+00  0.00000000000E+00  0.74505805969E-08  0.10566000000E+00  0.10566000000E+00 0. -1.
     999900   -1    0    0    0    0 -0.00000000000E+00 -0.00000000000E+00 -0.74505805969E-08  0.93827000000E+00  0.93827000000E+00 0. -1.
     999902    2    1    2    0    0  0.43681820800E-02 -0.39780074776E-02  0.19037569558E-01  0.10239967461E+01  0.10238027160E+01 0.  0.
     999903    2    3    3    0    0  0.80963399697E-01 -0.59561211922E-01  0.89666295435E-01  0.13610895084E+00  0.19570178962E-01 0.  0.
         14    1    1    2    0    0 -0.43681820800E-02  0.39780074776E-02 -0.19037569558E-01  0.19933253946E-01  0.00000000000E+00 0.  1.
     999901    1    3    3    0    0 -0.76595217617E-01  0.55583204444E-01 -0.70628725877E-01  0.88788779522E+00  0.88000000000E+00 0. -1.
        -11    1    4    4    0    0  0.63460322010E-01 -0.50121367979E-01  0.61361553026E-01  0.10151288248E+00  0.51100000000E-03 0.  1.
         11    1    4    4    0    0  0.17503077687E-01 -0.94398439427E-02  0.28304742409E-01  0.34596068361E-01  0.51100000000E-03 0. -1.
</event>
<event>
 8    1  0.1109553E+005  0.1043930E+01  0.7957747E-01            NaN
         13   -1    0    0    0    0  0.00000000000E+00  0.00000000000E+00  0.74505805969E-08  0.10566000000E+00  0.10566000000E+00 0. -1.
     999900   -1    0    0    0    0 -0.00000000000E+00 -0.00000000000E+00 -0.74505805969E-08  0.93827000000E+00  0.93827000000E+00 0.  1.
     999902    2    1    2    0    0 -0.84224718201E-02 -0.40288330691E-02  0.21543226803E-01  0.10204506442E+01  0.10201804924E+01 0.  0.
     999903    2    3    3    0    0  0.72708793305E-01 -0.29046227013E-02 -0.10357281490E+00  0.12790508799E+00  0.18367854821E-01 0.  0.
         14    1    1    2    0    0  0.84224718201E-02  0.40288330691E-02 -0.21543226803E-01  0.23479355795E-01  0.00000000000E+00 0.  1.
     999901    1    3    3    0    0 -0.81131265125E-01 -0.11242103678E-02  0.12511604170E+00  0.89254555622E+00  0.88000000000E+00 0. -1.
        -11    1    4    4    0    0  0.49167718625E-01 -0.91185372127E-02 -0.61210086770E-01  0.79041432927E-01  0.51100000000E-03 0.  1.
         11    1    4    4    0    0  0.23541074680E-01  0.62139145114E-02 -0.42362728128E-01  0.48863655062E-01  0.51100000000E-03 0. -1.
</event>
<event>
 8    1  0.1109553E+005  0.1043930E+01  0.7957747E-01            NaN
         13   -1    0    0    0    0  0.00000000000E+00  0.00000000000E+00  0.74505805969E-08  0.10566000000E+00  0.10566000000E+00 0.  1.
     999900   -1    0    0    0    0 -0.00000000000E+00 -0.00000000000E+00 -0.74505805969E-08  0.93827000000E+00  0.93827000000E+00 0. -1.
     999902    2    1    2    0    0 -0.17158031830E-01  0.15135191618E-01 -0.15644341933E-02  0.10209970644E+01  0.10207394800E+01 0.  0.
     999903    2    3    3    0    0  0.59155220332E-01  0.16728022495E-01 -0.11478434818E+00  0.13046632461E+00  0.81760894743E-02 0.  0.
         14    1    1    2    0    0  0.17158031830E-01 -0.15135191618E-01  0.15644341933E-02  0.22932935616E-01  0.00000000000E+00 0.  1.
     999901    1    3    3    0    0 -0.76313252162E-01 -0.15928308764E-02  0.11321991399E+00  0.89053073978E+00  0.88000000000E+00 0.  1.
        -11    1    4    4    0    0  0.42012007224E-01  0.87743423596E-02 -0.74853390898E-01  0.86286088593E-01  0.51100000000E-03 0.  1.
         11    1    4    4    0    0  0.17143213108E-01  0.79536801349E-02 -0.39930957286E-01  0.44180236013E-01  0.51100000000E-03 0. -1.
</event>
<event>
 8    1  0.1109553E+005  0.1043930E+01  0.7957747E-01            NaN
         13   -1    0    0    0    0  0.00000000000E+00  0.00000000000E+00  0.74505805969E-08  0.10566000000E+00  0.10566000000E+00 0. -1.
     999900   -1    0    0    0    0 -0.00000000000E+00 -0.00000000000E+00 -0.74505805969E-08  0.93827000000E+00  0.93827000000E+00 0.  1.
     999902    2    1    2    0    0  0.16953131752E-01  0.21472575423E-02  0.19608913220E-01  0.10179198314E+01  0.10175874677E+01 0.  0.
     999903    2    3    3    0    0  0.19663785672E-01 -0.12489547678E+00  0.13600873965E-01  0.12877231807E+00  0.20292401094E-01 0.  0.
         14    1    1    2    0    0 -0.16953131752E-01 -0.21472575423E-02 -0.19608913220E-01  0.26010168565E-01  0.00000000000E+00 0.  1.
     999901    1    3    3    0    0 -0.27106539198E-02  0.12704273432E+00  0.60080392546E-02  0.88914751337E+00  0.88000000000E+00 0. -1.
        -11    1    4    4    0    0  0.17751445637E-02 -0.57355921579E-01 -0.99272147095E-03  0.57394246187E-01  0.51100000000E-03 0. -1.
         11    1    4    4    0    0  0.17888641108E-01 -0.67539555197E-01  0.14593595436E-01  0.71378071883E-01  0.51100000000E-03 0.  1.
</event>
<event>
 8    1  0.1109553E+005  0.1043930E+01  0.7957747E-01            NaN
         13   -1    0    0    0    0  0.00000000000E+00  0.00000000000E+00  0.74505805969E-08  0.10566000000E+00  0.10566000000E+00 0.  1.
     999900   -1    0    0    0    0 -0.00000000000E+00 -0.00000000000E+00 -0.74505805969E-08  0.93827000000E+00  0.93827000000E+00 0. -1.
     999902    2    1    2    0    0  0.53611499209E-02 -0.24357500142E-01  0.62055359695E-02  0.10182290580E+01  0.10179046499E+01 0.  0.
     999903    2    3    3    0    0  0.86437146981E-01 -0.79392366917E-01 -0.54070174769E-01  0.13074085238E+00  0.19876075516E-01 0.  0.
         14    1    1    2    0    0 -0.53611499209E-02  0.24357500142E-01 -0.62055359695E-02  0.25700941974E-01  0.00000000000E+00 0.  1.
     999901    1    3    3    0    0 -0.81075997060E-01  0.55034866775E-01  0.60275710739E-01  0.88748820565E+00  0.88000000000E+00 0.  1.
        -11    1    4    4    0    0  0.28393999685E-01 -0.16614881346E-01 -0.21197163894E-01  0.39138911308E-01  0.51100000000E-03 0.  1.
         11    1    4    4    0    0  0.58043147296E-01 -0.62777485571E-01 -0.32873010876E-01  0.91601941070E-01  0.51100000000E-03 0. -1.
</event>
<event>
 7    1  0.1109553E+005  0.1043930E+01  0.7957747E-01            NaN
         13   -1    0    0    0    0  0.00000000000E+00  0.00000000000E+00  0.74505805969E-08  0.10566000000E+00  0.10566000000E+00 0. -1.
     999900   -1    0    0    0    0 -0.00000000000E+00 -0.00000000000E+00 -0.74505805969E-08  0.93827000000E+00  0.93827000000E+00 0. -1.
     999902    2    1    2    0    0 -0.14402696156E-01  0.51114775916E-02  0.10935610551E-01  0.10251376495E+01  0.10249653887E+01 0.  0.
         14    1    1    2    0    0  0.14402696156E-01 -0.51114775916E-02 -0.10935610551E-01  0.18792350515E-01  0.00000000000E+00 0.  1.
     999901    1    3    3    0    0 -0.14123859825E+00 -0.91421208555E-02 -0.27602483796E-01  0.89173640563E+00  0.88000000000E+00 0.  1.
        -11    1    3    3    0    0  0.35321758359E-01  0.31832171690E-02  0.12579469263E-01  0.37633278532E-01  0.51100000000E-03 0. -1.
         11    1    3    3    0    0  0.91514143736E-01  0.11070381278E-01  0.25958625084E-01  0.95767965326E-01  0.51100000000E-03 0.  1.
</event>
<event>
 8    1  0.1109553E+005  0.1043930E+01  0.7957747E-01            NaN
         13   -1    0    0    0    0  0.00000000000E+00  0.00000000000E+00  0.74505805969E-08  0.10566000000E+00  0.10566000000E+00 0. -1.
     999900   -1    0    0    0    0 -0.00000000000E+00 -0.00000000000E+00 -0.74505805969E-08  0.93827000000E+00  0.93827000000E+00 0.  1.
     999902    2    1    2    0    0 -0.19361341098E-01 -0.11273555129E-01 -0.59778219746E-02  0.10207418796E+01  0.10204784641E+01 0.  0.
     999903    2    3    3    0    0 -0.56508675980E-01 -0.89238351332E-01  0.77428752175E-01  0.13258925159E+00  0.20687778168E-01 0.  0.
         14    1    1    2    0    0  0.19361341098E-01  0.11273555129E-01  0.59778219746E-02  0.23188120449E-01  0.00000000000E+00 0. -1.
     999901    1    3    3    0    0  0.37147334881E-01  0.77964796202E-01 -0.83406574150E-01  0.88815262796E+00  0.88000000000E+00 0.  1.
        -11    1    4    4    0    0 -0.27047674202E-01 -0.54610181603E-01  0.34364085686E-01  0.69964277460E-01  0.51100000000E-03 0.  1.
         11    1    4    4    0    0 -0.29461001778E-01 -0.34628169729E-01  0.43064666489E-01  0.62624974134E-01  0.51100000000E-03 0. -1.
</event>
<event>
 8    1  0.1109553E+005  0.1043930E+01  0.7957747E-01            NaN
         13   -1    0    0    0    0  0.00000000000E+00  0.00000000000E+00  0.74505805969E-08  0.10566000000E+00  0.10566000000E+00 0. -1.
     999900   -1    0    0    0    0 -0.00000000000E+00 -0.00000000000E+00 -0.74505805969E-08  0.93827000000E+00  0.93827000000E+00 0.  1.
     999902    2    1    2    0    0 -0.70754760080E-02 -0.42018145300E-02  0.22627712865E-01  0.10198523964E+01  0.10195681338E+01 0.  0.
     999903    2    3    3    0    0 -0.12263456704E+00 -0.13227355801E-01  0.42588440740E-01  0.13202707879E+00  0.20079200045E-01 0.  0.
         14    1    1    2    0    0  0.70754760080E-02  0.42018145300E-02 -0.22627712865E-01  0.24077603609E-01  0.00000000000E+00 0.  1.
     999901    1    3    3    0    0  0.11555909103E+00  0.90255412714E-02 -0.19960727875E-01  0.88782531760E+00  0.88000000000E+00 0. -1.
        -11    1    4    4    0    0 -0.42968499502E-01  0.48369280517E-02  0.16263999431E-01  0.46200288105E-01  0.51100000000E-03 0.  1.
         11    1    4    4    0    0 -0.79666067538E-01 -0.18064283853E-01  0.26324441309E-01  0.85826790685E-01  0.51100000000E-03 0. -1.
</event>
<event>
 8    1  0.1109553E+005  0.1043930E+01  0.7957747E-01            NaN
         13   -1    0    0    0    0  0.00000000000E+00  0.00000000000E+00  0.74505805969E-08  0.10566000000E+00  0.10566000000E+00 0.  1.
     999900   -1    0    0    0    0 -0.00000000000E+00 -0.00000000000E+00 -0.74505805969E-08  0.93827000000E+00  0.93827000000E+00 0. -1.
     999902    2    1    2    0    0 -0.39254049237E-03 -0.71199008787E-02  0.57539383719E-02  0.10347673103E+01  0.10347267424E+01 0.  0.
     999903    2    3    3    0    0  0.12711522292E+00  0.61014014634E-01  0.17495058965E-01  0.14289382478E+00  0.15217693450E-01 0.  0.
         14    1    1    2    0    0  0.39254049237E-03  0.71199008787E-02 -0.57539383719E-02  0.91626897442E-02  0.00000000000E+00 0. -1.
     999901    1    3    3    0    0 -0.12750776341E+00 -0.68133915513E-01 -0.11741120593E-01  0.89187348547E+00  0.88000000000E+00 0.  1.
        -11    1    4    4    0    0  0.18355536831E-01  0.10806220132E-01 -0.24769820527E-02  0.21449864498E-01  0.51100000000E-03 0.  1.
         11    1    4    4    0    0  0.10875968609E+00  0.50207794502E-01  0.19972041017E-01  0.12144396029E+00  0.51100000000E-03 0. -1.
</event>
<event>
 8    1  0.1109553E+005  0.1043930E+01  0.7957747E-01            NaN
         13   -1    0    0    0    0  0.00000000000E+00  0.00000000000E+00  0.74505805969E-08  0.10566000000E+00  0.10566000000E+00 0. -1.
     999900   -1    0    0    0    0 -0.00000000000E+00 -0.00000000000E+00 -0.74505805969E-08  0.93827000000E+00  0.93827000000E+00 0. -1.
     999902    2    1    2    0    0 -0.19863533950E-01 -0.13481779083E-01 -0.21752354442E-01  0.10115342708E+01  0.10110153795E+01 0.  0.
     999903    2    3    3    0    0  0.35641831870E-01 -0.11684587443E+00 -0.37746398533E-02  0.12356570148E+00  0.18191649888E-01 0.  0.
         14    1    1    2    0    0  0.19863533950E-01  0.13481779083E-01  0.21752354442E-01  0.32395729225E-01  0.00000000000E+00 0. -1.
     999901    1    3    3    0    0 -0.55505365820E-01  0.10336409534E+00 -0.17977714589E-01  0.88796856930E+00  0.88000000000E+00 0. -1.
        -11    1    4    4    0    0  0.20796968014E-01 -0.93857086641E-01 -0.25735525617E-02  0.96169386424E-01  0.51100000000E-03 0.  1.
         11    1    4    4    0    0  0.14844863856E-01 -0.22988787786E-01 -0.12010872916E-02  0.27396315052E-01  0.51100000000E-03 0. -1.
</event>
<event>
 8    1  0.1109553E+005  0.1043930E+01  0.7957747E-01            NaN
         13   -1    0    0    0    0  0.00000000000E+00  0.00000000000E+00  0.74505805969E-08  0.10566000000E+00  0.10566000000E+00 0.  1.
     999900   -1    0    0    0    0 -0.00000000000E+00 -0.00000000000E+00 -0.74505805969E-08  0.93827000000E+00  0.93827000000E+00 0.  1.
     999902    2    1    2    0    0 -0.38459473202E-02 -0.21947235613E-01 -0.63703062781E-02  0.10207555903E+01  0.10204924899E+01 0.  0.
     999903    2    3    3    0    0  0.51428178838E-02  0.88884501604E-01 -0.92126931082E-01  0.12962222737E+00  0.19688758101E-01 0.  0.
         14    1    1    2    0    0  0.38459473202E-02  0.21947235613E-01  0.63703062781E-02  0.23174409678E-01  0.00000000000E+00 0. -1.
     999901    1    3    3    0    0 -0.89887652039E-02 -0.11083173722E+00  0.85756624804E-01  0.89113336296E+00  0.88000000000E+00 0. -1.
        -11    1    4    4    0    0  0.11795147331E-01  0.51085466824E-01 -0.47377765367E-01  0.70666570550E-01  0.51100000000E-03 0. -1.
         11    1    4    4    0    0 -0.66523294472E-02  0.37799034781E-01 -0.44749165715E-01  0.58955656817E-01  0.51100000000E-03 0.  1.
</event>
<event>
 8    1  0.1109553E+005  0.1043930E+01  0.7957747E-01            NaN
         13   -1    0    0    0    0  0.00000000000E+00  0.00000000000E+00  0.74505805969E-08  0.10566000000E+00  0.10566000000E+00 0. -1.
     999900   -1    0    0    0    0 -0.00000000000E+00 -0.00000000000E+00 -0.74505805969E-08  0.93827000000E+00  0.93827000000E+00 0. -1.
     999902    2    1    2    0    0 -0.68251191882E-02 -0.13224965540E-01 -0.11662030580E-01  0.10250227283E+01  0.10248483345E+01 0.  0.
     999903    2    3    3    0    0  0.12081705351E+00 -0.38980195748E-01  0.38024916047E-01  0.13405435132E+00  0.20210363377E-01 0.  0.
         14    1    1    2    0    0  0.68251191882E-02  0.13224965540E-01  0.11662030580E-01  0.18907271688E-01  0.00000000000E+00 0. -1.
     999901    1    3    3    0    0 -0.12764217270E+00  0.25755230208E-01 -0.49686946626E-01  0.89096837699E+00  0.88000000000E+00 0. -1.
        -11    1    4    4    0    0  0.28102433831E-01 -0.78889237693E-02  0.17808523993E-01  0.34196294437E-01  0.51100000000E-03 0.  1.
         11    1    4    4    0    0  0.92714619680E-01 -0.31091271978E-01  0.20216392054E-01  0.99858056883E-01  0.51100000000E-03 0. -1.
</event>
<event>
 8    1  0.1109553E+005  0.1043930E+01  0.7957747E-01            NaN
         13   -1    0    0    0    0  0.00000000000E+00  0.00000000000E+00  0.74505805969E-08  0.10566000000E+00  0.10566000000E+00 0.  1.
     999900   -1    0    0    0    0 -0.00000000000E+00 -0.00000000000E+00 -0.74505805969E-08  0.93827000000E+00  0.93827000000E+00 0.  1.
     999902    2    1    2    0    0 -0.13358976946E-01 -0.23253365727E-01  0.87457516762E-02  0.10157223866E+01  0.10153306344E+01 0.  0.
     999903    2    3    3    0    0 -0.11779848559E+00  0.14592128913E-01  0.44264458269E-01  0.12802791721E+00  0.18503834333E-01 0.  0.
         14    1    1    2    0    0  0.13358976946E-01  0.23253365727E-01 -0.87457516762E-02  0.28207613424E-01  0.00000000000E+00 0. -1.
     999901    1    3    3    0    0  0.10443950864E+00 -0.37845494641E-01 -0.35518706593E-01  0.88769446937E+00  0.88000000000E+00 0.  1.
        -11    1    4    4    0    0 -0.92551896808E-01  0.37279045184E-02  0.34964495172E-01  0.99007716460E-01  0.51100000000E-03 0.  1.
         11    1    4    4    0    0 -0.25246588781E-01  0.10864224395E-01  0.92999630972E-02  0.29020200747E-01  0.51100000000E-03 0. -1.
</event>
<event>
 8    1  0.1109553E+005  0.1043930E+01  0.7957747E-01            NaN
         13   -1    0    0    0    0  0.00000000000E+00  0.00000000000E+00  0.74505805969E-08  0.10566000000E+00  0.10566000000E+00 0.  1.
     999900   -1    0    0    0    0 -0.00000000000E+00 -0.00000000000E+00 -0.74505805969E-08  0.93827000000E+00  0.93827000000E+00 0. -1.
     999902    2    1    2    0    0 -0.19097002208E-01  0.17664120672E-02 -0.13393649203E-01  0.10205375751E+01  0.10202694431E+01 0.  0.
     999903    2    3    3    0    0 -0.12975223159E+00 -0.10610653119E-01 -0.20988644933E-01  0.13348884164E+00  0.20748977406E-01 0.  0.
         14    1    1    2    0    0  0.19097002208E-01 -0.17664120672E-02  0.13393649203E-01  0.23392424926E-01  0.00000000000E+00 0.  1.
     999901    1    3    3    0    0  0.11065522938E+00  0.12377065186E-01  0.75949957301E-02  0.88704873344E+00  0.88000000000E+00 0. -1.
        -11    1    4    4    0    0 -0.38884924996E-01 -0.43803002276E-02 -0.15973958218E-01  0.42268816924E-01  0.51100000000E-03 0. -1.
         11    1    4    4    0    0 -0.90867306594E-01 -0.62303528910E-02 -0.50146867145E-02  0.91220024713E-01  0.51100000000E-03 0.  1.
</event>
<event>
 8    1  0.1109553E+005  0.1043930E+01  0.7957747E-01            NaN
         13   -1    0    0    0    0  0.00000000000E+00  0.00000000000E+00  0.74505805969E-08  0.10566000000E+00  0.10566000000E+00 0. -1.
     999900   -1    0    0    0    0 -0.00000000000E+00 -0.00000000000E+00 -0.74505805969E-08  0.93827000000E+00  0.93827000000E+00 0.  1.
     999902    2    1    2    0    0 -0.16110406878E-01 -0.10616761361E-01 -0.11526468714E-01  0.10214551182E+01  0.10212078330E+01 0.  0.
     999903    2    3    3    0    0 -0.30150548459E-01 -0.10360892147E+00  0.73893606341E-01  0.13233124794E+00  0.20184893938E-01 0.  0.
         14    1    1    2    0    0  0.16110406878E-01  0.10616761361E-01  0.11526468714E-01  0.22474881815E-01  0.00000000000E+00 0. -1.
     999901    1    3    3    0    0  0.14040141581E-01  0.92992160107E-01 -0.85420075055E-01  0.88912387024E+00  0.88000000000E+00 0.  1.
        -11    1    4    4    0    0 -0.30176524577E-01 -0.84165123919E-01  0.66866496299E-01  0.11165025825E+00  0.51100000000E-03 0.  1.
         11    1    4    4    0    0  0.25976117528E-04 -0.19443797549E-01  0.70271100419E-02  0.20680989687E-01  0.51100000000E-03 0. -1.
</event>
<event>
 8    1  0.1109553E+005  0.1043930E+01  0.7957747E-01            NaN
         13   -1    0    0    0    0  0.00000000000E+00  0.00000000000E+00  0.74505805969E-08  0.10566000000E+00  0.10566000000E+00 0.  1.
     999900   -1    0    0    0    0 -0.00000000000E+00 -0.00000000000E+00 -0.74505805969E-08  0.93827000000E+00  0.93827000000E+00 0. -1.
     999902    2    1    2    0    0  0.40629936737E-02  0.22930499940E-01 -0.24654539006E-02  0.10205121818E+01  0.10202434607E+01 0.  0.
     999903    2    3    3    0    0 -0.12598031364E+00  0.18293347402E-01 -0.21654716239E-01  0.13073637144E+00  0.20430029320E-01 0.  0.
         14    1    1    2    0    0 -0.40629936737E-02 -0.22930499940E-01  0.24654539006E-02  0.23417818174E-01  0.00000000000E+00 0.  1.
     999901    1    3    3    0    0  0.13004330731E+00  0.46371525378E-02  0.19189262339E-01  0.88977581039E+00  0.88000000000E+00 0.  1.
        -11    1    4    4    0    0 -0.18646708699E-01 -0.13684278477E-02 -0.93897026358E-02  0.20928448979E-01  0.51100000000E-03 0. -1.
         11    1    4    4    0    0 -0.10733360494E+00  0.19661775250E-01 -0.12265013603E-01  0.10980792246E+00  0.51100000000E-03 0.  1.
</event>
<event>
 8    1  0.1109553E+005  0.1043930E+01  0.7957747E-01            NaN
         13   -1    0    0    0    0  0.00000000000E+00  0.00000000000E+00  0.74505805969E-08  0.10566000000E+00  0.10566000000E+00 0.  1.
     999900   -1    0    0    0    0 -0.00000000000E+00 -0.00000000000E+00 -0.74505805969E-08  0.93827000000E+00  0.93827000000E+00 0. -1.
     999902    2    1    2    0    0 -0.56990725969E-02  0.11934006164E-01 -0.19124180655E-01  0.10206784577E+01  0.10204135828E+01 0.  0.
     999903    2    3    3    0    0 -0.23162158423E-01  0.27485329696E-01  0.12238201339E+00  0.12906710408E+00  0.19723874449E-01 0.  0.
         14    1    1    2    0    0  0.56990725969E-02 -0.11934006164E-01  0.19124180655E-01  0.23251542257E-01  0.00000000000E+00 0.  1.
     999901    1    3    3    0    0  0.17463085826E-01 -0.15551323532E-01 -0.14150619404E+00  0.89161135366E+00  0.88000000000E+00 0. -1.
        -11    1    4    4    0    0 -0.40074453072E-02  0.12922125105E-01  0.21934129107E-01  0.25776114443E-01  0.51100000000E-03 0.  1.
         11    1    4    4    0    0 -0.19154713116E-01  0.14563204591E-01  0.10044788428E+00  0.10329098964E+00  0.51100000000E-03 0. -1.
</event>
<event>
 8    1  0.1109553E+005  0.1043930E+01  0.7957747E-01            NaN
         13   -1    0    0    0    0  0.00000000000E+00  0.00000000000E+00  0.74505805969E-08  0.10566000000E+00  0.10566000000E+00 0. -1.
     999900   -1    0    0    0    0 -0.00000000000E+00 -0.00000000000E+00 -0.74505805969E-08  0.93827000000E+00  0.93827000000E+00 0.  1.
     999902    2    1    2    0    0 -0.59489393548E-02 -0.11073446316E-01  0.19038736169E-01  0.10211158691E+01  0.10208609766E+01 0.  0.
     999903    2    3    3    0    0  0.22804451977E-01  0.12453079004E+00  0.22478039618E-01  0.13025836355E+00  0.20833106155E-01 0.  0.
         14    1    1    2    0    0  0.59489393548E-02  0.11073446316E-01 -0.19038736169E-01  0.22814130877E-01  0.00000000000E+00 0.  1.
     999901    1    3    3    0    0 -0.28753391332E-01 -0.13560423635E+00 -0.34393034495E-02  0.89085750557E+00  0.88000000000E+00 0.  1.
        -11    1    4    4    0    0 -0.34480302156E-02  0.28137347223E-01  0.64226452594E-02  0.29070787988E-01  0.51100000000E-03 0. -1.
         11    1    4    4    0    0  0.26252482193E-01  0.96393442814E-01  0.16055394359E-01  0.10118757556E+00  0.51100000000E-03 0.  1.
</event>
<event>
 8    1  0.1109553E+005  0.1043930E+01  0.7957747E-01            NaN
         13   -1    0    0    0    0  0.00000000000E+00  0.00000000000E+00  0.74505805969E-08  0.10566000000E+00  0.10566000000E+00 0.  1.
     999900   -1    0    0    0    0 -0.00000000000E+00 -0.00000000000E+00 -0.74505805969E-08  0.93827000000E+00  0.93827000000E+00 0. -1.
     999902    2    1    2    0    0 -0.75590605901E-02  0.75928335029E-03 -0.23036391953E-01  0.10196732223E+01  0.10193846620E+01 0.  0.
     999903    2    3    3    0    0 -0.11676829381E+00 -0.89821131317E-02  0.52245304068E-01  0.12967946664E+00  0.19278990513E-01 0.  0.
         14    1    1    2    0    0  0.75590605901E-02 -0.75928335029E-03  0.23036391953E-01  0.24256777660E-01  0.00000000000E+00 0.  1.
     999901    1    3    3    0    0  0.10920923322E+00  0.97413964820E-02 -0.75281696021E-01  0.88999375570E+00  0.88000000000E+00 0.  1.
        -11    1    4    4    0    0 -0.86536689172E-01 -0.14939243593E-01  0.36945853642E-01  0.95273484214E-01  0.51100000000E-03 0. -1.
         11    1    4    4    0    0 -0.30231604640E-01  0.59571304618E-02  0.15299450426E-01  0.34405982427E-01  0.51100000000E-03 0.  1.
</event>
<event>
 8    1  0.1109553E+005  0.1043930E+01  0.7957747E-01            NaN
         13   -1    0    0    0    0  0.00000000000E+00  0.00000000000E+00  0.74505805969E-08  0.10566000000E+00  0.10566000000E+00 0.  1.
     999900   -1    0    0    0    0 -0.00000000000E+00 -0.00000000000E+00 -0.74505805969E-08  0.93827000000E+00  0.93827000000E+00 0.  1.
     999902    2    1    2    0    0 -0.16032146527E-01  0.10932978285E-01 -0.13704258098E-01  0.10201736024E+01  0.10198969618E+01 0.  0.
     999903    2    3    3    0    0 -0.12452235004E+00  0.68441269358E-02 -0.42531500424E-01  0.13303333567E+00  0.18337997176E-01 0.  0.
         14    1    1    2    0    0  0.16032146527E-01 -0.10932978285E-01  0.13704258098E-01  0.23756397591E-01  0.00000000000E+00 0.  1.
     999901    1    3    3    0    0  0.10849020351E+00  0.40888513491E-02  0.28827242326E-01  0.88714026674E+00  0.88000000000E+00 0. -1.
        -11    1    4    4    0    0 -0.11411104221E+00  0.10108168477E-01 -0.35076043254E-01  0.11980857631E+00  0.51100000000E-03 0.  1.
         11    1    4    4    0    0 -0.10411307822E-01 -0.32640415413E-02 -0.74554571699E-02  0.13224759369E-01  0.51100000000E-03 0. -1.
</event>
<event>
 8    1  0.1109553E+005  0.1043930E+01  0.7957747E-01            NaN
         13   -1    0    0    0    0  0.00000000000E+00  0.00000000000E+00  0.74505805969E-08  0.10566000000E+00  0.10566000000E+00 0. -1.
     999900   -1    0    0    0    0 -0.00000000000E+00 -0.00000000000E+00 -0.74505805969E-08  0.93827000000E+00  0.93827000000E+00 0.  1.
     999902    2    1    2    0    0  0.14578223917E-02 -0.21234522882E-01  0.17051995640E-01  0.10166572890E+01  0.10162914162E+01 0.  0.
     999903    2    3    3    0    0  0.18092293653E-01 -0.42640154769E-01 -0.11586545393E+00  0.12626301956E+00  0.19288151923E-01 0.  0.
         14    1    1    2    0    0 -0.14578223917E-02  0.21234522882E-01 -0.17051995640E-01  0.27272710967E-01  0.00000000000E+00 0.  1.
     999901    1    3    3    0    0 -0.16634471261E-01  0.21405631887E-01  0.13291744957E+00  0.89039426947E+00  0.88000000000E+00 0. -1.
        -11    1    4    4    0    0  0.15134315722E-01 -0.39661514897E-01 -0.84005973633E-01  0.94124109575E-01  0.51100000000E-03 0.  1.
         11    1    4    4    0    0  0.29579779309E-02 -0.29786398720E-02 -0.31859480301E-01  0.32138909984E-01  0.51100000000E-03 0. -1.
</event>
<event>
 7    1  0.1109553E+005  0.1043930E+01  0.7957747E-01            NaN
         13   -1    0    0    0    0  0.00000000000E+00  0.00000000000E+00  0.74505805969E-08  0.10566000000E+00  0.10566000000E+00 0.  1.
     999900   -1    0    0    0    0 -0.00000000000E+00 -0.00000000000E+00 -0.74505805969E-08  0.93827000000E+00  0.93827000000E+00 0. -1.
     999902    2    1    2    0    0 -0.10730297580E-01  0.20437293643E-01  0.25204486564E-02  0.10207098596E+01  0.10204457078E+01 0.  0.
         14    1    1    2    0    0  0.10730297580E-01 -0.20437293643E-01 -0.25204486564E-02  0.23220140375E-01  0.00000000000E+00 0.  1.
     999901    1    3    3    0    0  0.59028463566E-02 -0.10176188387E+00 -0.21680513643E-01  0.88614918003E+00  0.88000000000E+00 0.  1.
        -11    1    3    3    0    0  0.46068281170E-02  0.88045173286E-01  0.10960017679E-02  0.88173906260E-01  0.51100000000E-03 0. -1.
         11    1    3    3    0    0 -0.21239972054E-01  0.34154004230E-01  0.23104960531E-01  0.46386773330E-01  0.51100000000E-03 0.  1.
</event>
<event>
 8    1  0.1109553E+005  0.1043930E+01  0.7957747E-01            NaN
         13   -1    0    0    0    0  0.00000000000E+00  0.00000000000E+00  0.74505805969E-08  0.10566000000E+00  0.10566000000E+00 0. -1.
     999900   -1    0    0    0    0 -0.00000000000E+00 -0.00000000000E+00 -0.74505805969E-08  0.93827000000E+00  0.93827000000E+00 0.  1.
     999902    2    1    2    0    0  0.15597312800E-01  0.18540057940E-01 -0.79781779461E-03  0.10196885803E+01  0.10194003896E+01 0.  0.
     999903    2    3    3    0    0 -0.10819864567E+00 -0.44953701591E-01  0.46216719340E-01  0.12751860574E+00  0.19930565803E-01 0.  0.
         14    1    1    2    0    0 -0.15597312800E-01 -0.18540057940E-01  0.79781779461E-03  0.24241419683E-01  0.00000000000E+00 0. -1.
     999901    1    3    3    0    0  0.12379595847E+00  0.63493759531E-01 -0.47014537135E-01  0.89216997458E+00  0.88000000000E+00 0. -1.
        -11    1    4    4    0    0 -0.16551012713E-01  0.45734037139E-03  0.62647832772E-02  0.17710274209E-01  0.51100000000E-03 0.  1.
         11    1    4    4    0    0 -0.91647632952E-01 -0.45411041963E-01  0.39951936063E-01  0.10980833153E+00  0.51100000000E-03 0. -1.
</event>
<event>
 8    1  0.1109553E+005  0.1043930E+01  0.7957747E-01            NaN
         13   -1    0    0    0    0  0.00000000000E+00  0.00000000000E+00  0.74505805969E-08  0.10566000000E+00  0.10566000000E+00 0.  1.
     999900   -1    0    0    0    0 -0.00000000000E+00 -0.00000000000E+00 -0.74505805969E-08  0.93827000000E+00  0.93827000000E+00 0. -1.
     999902    2    1    2    0    0 -0.72517625582E-02 -0.19545594690E-01 -0.14809590532E-01  0.10183577044E+01  0.10180365768E+01 0.  0.
     999903    2    3    3    0    0 -0.10156362734E+00  0.20737692203E-01 -0.76367150985E-01  0.13026604002E+00  0.19800938300E-01 0.  0.
         14    1    1    2    0    0  0.72517625582E-02  0.19545594690E-01  0.14809590532E-01  0.25572295628E-01  0.00000000000E+00 0. -1.
     999901    1    3    3    0    0  0.94311864778E-01 -0.40283286893E-01  0.61557560453E-01  0.88809166435E+00  0.88000000000E+00 0. -1.
        -11    1    4    4    0    0 -0.41215546437E-01  0.79874779487E-02 -0.19204727464E-01  0.46169294451E-01  0.51100000000E-03 0.  1.
         11    1    4    4    0    0 -0.60348080898E-01  0.12750214255E-01 -0.57162423521E-01  0.84096745570E-01  0.51100000000E-03 0. -1.
</event>
<event>
 8    1  0.1109553E+005  0.1043930E+01  0.7957747E-01            NaN
         13   -1    0    0    0    0  0.00000000000E+00  0.00000000000E+00  0.74505805969E-08  0.10566000000E+00  0.10566000000E+00 0. -1.
     999900   -1    0    0    0    0 -0.00000000000E+00 -0.00000000000E+00 -0.74505805969E-08  0.93827000000E+00  0.93827000000E+00 0. -1.
     999902    2    1    2    0    0 -0.65845371488E-03 -0.22824618026E-01 -0.86130374053E-02  0.10195254684E+01  0.10192333391E+01 0.  0.
     999903    2    3    3    0    0 -0.34225608179E-01 -0.11206989233E+00  0.57216532214E-01  0.13193040021E+00  0.20021136800E-01 0.  0.
         14    1    1    2    0    0  0.65845371488E-03  0.22824618026E-01  0.86130374053E-02  0.24404531601E-01  0.00000000000E+00 0. -1.
     999901    1    3    3    0    0  0.33567154464E-01  0.89245274299E-01 -0.65829569619E-01  0.88759506819E+00  0.88000000000E+00 0. -1.
        -11    1    4    4    0    0 -0.22642423834E-01 -0.40749767241E-01  0.22235081071E-01  0.51651552140E-01  0.51100000000E-03 0.  1.
         11    1    4    4    0    0 -0.11583184345E-01 -0.71320125085E-01  0.34981451143E-01  0.80278848066E-01  0.51100000000E-03 0. -1.
</event>
<event>
 8    1  0.1109553E+005  0.1043930E+01  0.7957747E-01            NaN
         13   -1    0    0    0    0  0.00000000000E+00  0.00000000000E+00  0.74505805969E-08  0.10566000000E+00  0.10566000000E+00 0.  1.
     999900   -1    0    0    0    0 -0.00000000000E+00 -0.00000000000E+00 -0.74505805969E-08  0.93827000000E+00  0.93827000000E+00 0.  1.
     999902    2    1    2    0    0  0.94052121736E-02 -0.50743830978E-03  0.20918824602E-01  0.10209884932E+01  0.10207307140E+01 0.  0.
     999903    2    3    3    0    0  0.43384164304E-01 -0.50642007517E-01  0.11452790201E+00  0.13395371174E+00  0.19497638622E-01 0.  0.
         14    1    1    2    0    0 -0.94052121736E-02  0.50743830978E-03 -0.20918824602E-01  0.22941506760E-01  0.00000000000E+00 0. -1.
     999901    1    3    3    0    0 -0.33978952130E-01  0.50134569207E-01 -0.93609077410E-01  0.88703478150E+00  0.88000000000E+00 0.  1.
        -11    1    4    4    0    0  0.13670996614E-01 -0.27321830310E-01  0.63458593741E-01  0.70431759885E-01  0.51100000000E-03 0. -1.
         11    1    4    4    0    0  0.29713167690E-01 -0.23320177208E-01  0.51069308271E-01  0.63521951855E-01  0.51100000000E-03 0.  1.
</event>
<event>
 8    1  0.1109553E+005  0.1043930E+01  0.7957747E-01            NaN
         13   -1    0    0    0    0  0.00000000000E+00  0.00000000000E+00  0.74505805969E-08  0.10566000000E+00  0.10566000000E+00 0. -1.
     999900   -1    0    0    0    0 -0.00000000000E+00 -0.00000000000E+00 -0.74505805969E-08  0.93827000000E+00  0.93827000000E+00 0. -1.
     999902    2    1    2    0    0  0.53008591125E-02 -0.18839494416E-02  0.23601254756E-01  0.10196675269E+01  0.10193788294E+01 0.  0.
     999903    2    3    3    0    0 -0.38576673750E-01  0.54702183589E-01 -0.10633777709E+00  0.12724869011E+00  0.20100190289E-01 0.  0.
         14    1    1    2    0    0 -0.53008591125E-02  0.18839494416E-02 -0.23601254756E-01  0.24262473058E-01  0.00000000000E+00 0.  1.
     999901    1    3    3    0    0  0.43877532863E-01 -0.56586133031E-01  0.12993903185E+00  0.89241883684E+00  0.88000000000E+00 0.  1.
        -11    1    4    4    0    0 -0.31608223829E-01  0.51090286570E-01 -0.10169207976E+00  0.11811366306E+00  0.51100000000E-03 0. -1.
         11    1    4    4    0    0 -0.69684499213E-02  0.36118970196E-02 -0.46456973367E-02  0.91350270459E-02  0.51100000000E-03 0.  1.
</event>
<event>
 8    1  0.1109553E+005  0.1043930E+01  0.7957747E-01            NaN
         13   -1    0    0    0    0  0.00000000000E+00  0.00000000000E+00  0.74505805969E-08  0.10566000000E+00  0.10566000000E+00 0.  1.
     999900   -1    0    0    0    0 -0.00000000000E+00 -0.00000000000E+00 -0.74505805969E-08  0.93827000000E+00  0.93827000000E+00 0.  1.
     999902    2    1    2    0    0 -0.21246775477E-01 -0.93191473574E-03 -0.94389973603E-02  0.10206622411E+01  0.10203969923E+01 0.  0.
     999903    2    3    3    0    0  0.31388808283E-01  0.12310982130E+00 -0.17871352076E-01  0.13036568288E+00  0.23120135439E-01 0.  0.
         14    1    1    2    0    0  0.21246775477E-01  0.93191473574E-03  0.94389973603E-02  0.23267758904E-01  0.00000000000E+00 0.  1.
     999901    1    3    3    0    0 -0.52635583760E-01 -0.12404173604E+00  0.84323547158E-02  0.89029655821E+00  0.88000000000E+00 0.  1.
        -11    1    4    4    0    0  0.56691706667E-02  0.37353078279E-01  0.45820301062E-02  0.38061109730E-01  0.51100000000E-03 0.  1.
         11    1    4    4    0    0  0.25719637616E-01  0.85756743022E-01 -0.22453382182E-01  0.92304573155E-01  0.51100000000E-03 0. -1.
</event>
<event>
 8    1  0.1109553E+005  0.1043930E+01  0.7957747E-01            NaN
         13   -1    0    0    0    0  0.00000000000E+00  0.00000000000E+00  0.74505805969E-08  0.10566000000E+00  0.10566000000E+00 0. -1.
     999900   -1    0    0    0    0 -0.00000000000E+00 -0.00000000000E+00 -0.74505805969E-08  0.93827000000E+00  0.93827000000E+00 0. -1.
     999902    2    1    2    0    0  0.15554100324E-01 -0.19125285313E-02 -0.17322889942E-01  0.10205704127E+01  0.10203030417E+01 0.  0.
     999903    2    3    3    0    0  0.42972212773E-01 -0.12005522655E+00  0.23787806608E-01  0.13130130870E+00  0.20354494065E-01 0.  0.
         14    1    1    2    0    0 -0.15554100324E-01  0.19125285313E-02  0.17322889942E-01  0.23359587287E-01  0.00000000000E+00 0. -1.
     999901    1    3    3    0    0 -0.27418112449E-01  0.11814269802E+00 -0.41110696550E-01  0.88926910402E+00  0.88000000000E+00 0. -1.
        -11    1    4    4    0    0  0.17654241748E-01 -0.39075089018E-01 -0.10478796597E-02  0.42893985665E-01  0.51100000000E-03 0.  1.
         11    1    4    4    0    0  0.25317971025E-01 -0.80980137537E-01  0.24835686268E-01  0.88407323032E-01  0.51100000000E-03 0. -1.
</event>
<event>
 8    1  0.1109553E+005  0.1043930E+01  0.7957747E-01            NaN
         13   -1    0    0    0    0  0.00000000000E+00  0.00000000000E+00  0.74505805969E-08  0.10566000000E+00  0.10566000000E+00 0. -1.
     999900   -1    0    0    0    0 -0.00000000000E+00 -0.00000000000E+00 -0.74505805969E-08  0.93827000000E+00  0.93827000000E+00 0.  1.
     999902    2    1    2    0    0 -0.80339832378E-04  0.14863524542E-01  0.21026542526E-01  0.10181803144E+01  0.10178546588E+01 0.  0.
     999903    2    3    3    0    0 -0.20318794789E-01 -0.11125281951E+00 -0.51963549829E-01  0.12596818670E+00  0.19435284378E-01 0.  0.
         14    1    1    2    0    0  0.80339832378E-04 -0.14863524542E-01 -0.21026542526E-01  0.25749685568E-01  0.00000000000E+00 0.  1.
     999901    1    3    3    0    0  0.20238454956E-01  0.12611634405E+00  0.72990092354E-01  0.89221212773E+00  0.88000000000E+00 0.  1.
        -11    1    4    4    0    0 -0.13775159789E-01 -0.44086057175E-01 -0.29650305334E-01  0.54888406716E-01  0.51100000000E-03 0. -1.
         11    1    4    4    0    0 -0.65436350001E-02 -0.67166762332E-01 -0.22313244495E-01  0.71079779981E-01  0.51100000000E-03 0.  1.
</event>
<event>
 8    1  0.1109553E+005  0.1043930E+01  0.7957747E-01            NaN
         13   -1    0    0    0    0  0.00000000000E+00  0.00000000000E+00  0.74505805969E-08  0.10566000000E+00  0.10566000000E+00 0.  1.
     999900   -1    0    0    0    0 -0.00000000000E+00 -0.00000000000E+00 -0.74505805969E-08  0.93827000000E+00  0.93827000000E+00 0.  1.
     999902    2    1    2    0    0 -0.21857439446E-02 -0.67428495139E-02  0.23850855798E-01  0.10190481428E+01  0.10187443303E+01 0.  0.
     999903    2    3    3    0    0  0.64070758157E-01  0.43219014854E-01  0.10439581319E+00  0.13148203138E+00  0.20398369219E-01 0.  0.
         14    1    1    2    0    0  0.21857439446E-02  0.67428495139E-02 -0.23850855798E-01  0.24881857214E-01  0.00000000000E+00 0. -1.
     999901    1    3    3    0    0 -0.66256502101E-01 -0.49961864367E-01 -0.80544957395E-01  0.88756611141E+00  0.88000000000E+00 0.  1.
        -11    1    4    4    0    0  0.16703109964E-01  0.22684115329E-01  0.33367219699E-01  0.43671448822E-01  0.51100000000E-03 0.  1.
         11    1    4    4    0    0  0.47367648192E-01  0.20534899524E-01  0.71028593493E-01  0.87810582553E-01  0.51100000000E-03 0. -1.
</event>
<event>
 8    1  0.1109553E+005  0.1043930E+01  0.7957747E-01            NaN
         13   -1    0    0    0    0  0.00000000000E+00  0.00000000000E+00  0.74505805969E-08  0.10566000000E+00  0.10566000000E+00 0.  1.
     999900   -1    0    0    0    0 -0.00000000000E+00 -0.00000000000E+00 -0.74505805969E-08  0.93827000000E+00  0.93827000000E+00 0.  1.
     999902    2    1    2    0    0 -0.15546626765E-01 -0.17337760716E-01  0.52360774506E-02  0.10200613583E+01  0.10197820662E+01 0.  0.
     999903    2    3    3    0    0  0.53887955949E-01 -0.11717453924E+00 -0.22437128859E-02  0.13166702529E+00  0.26408083217E-01 0.  0.
         14    1    1    2    0    0  0.15546626765E-01  0.17337760716E-01 -0.52360774506E-02  0.23868641718E-01  0.00000000000E+00 0. -1.
     999901    1    3    3    0    0 -0.69434582714E-01  0.99836778525E-01  0.74797903366E-02  0.88839433299E+00  0.88000000000E+00 0. -1.
        -11    1    4    4    0    0  0.30960376375E-01 -0.65683803913E-01 -0.14334637494E-01  0.74017902935E-01  0.51100000000E-03 0.  1.
         11    1    4    4    0    0  0.22927579574E-01 -0.51490735329E-01  0.12090924608E-01  0.57649122358E-01  0.51100000000E-03 0. -1.
</event>
<event>
 8    1  0.1109553E+005  0.1043930E+01  0.7957747E-01            NaN
         13   -1    0    0    0    0  0.00000000000E+00  0.00000000000E+00  0.74505805969E-08  0.10566000000E+00  0.10566000000E+00 0.  1.
     999900   -1    0    0    0    0 -0.00000000000E+00 -0.00000000000E+00 -0.74505805969E-08  0.93827000000E+00  0.93827000000E+00 0. -1.
     999902    2    1    2    0    0 -0.45564196838E-02  0.19846672089E-01 -0.11952063696E-01  0.10203184948E+01  0.10200452576E+01 0.  0.
     999903    2    3    3    0    0  0.31771308523E-01 -0.11854613569E+00  0.29886289676E-01  0.12778125694E+00  0.19293962297E-01 0.  0.
         14    1    1    2    0    0  0.45564196838E-02 -0.19846672089E-01  0.11952063696E-01  0.23611505245E-01  0.00000000000E+00 0. -1.
     999901    1    3    3    0    0 -0.36327728207E-01  0.13839280778E+00 -0.41838353373E-01  0.89253723782E+00  0.88000000000E+00 0.  1.
        -11    1    4    4    0    0  0.11824236569E-01 -0.31512357309E-01  0.16512300635E-01  0.37493445118E-01  0.51100000000E-03 0.  1.
         11    1    4    4    0    0  0.19947071954E-01 -0.87033778381E-01  0.13373989042E-01  0.90287811817E-01  0.51100000000E-03 0. -1.
</event>
<event>
 8    1  0.1109553E+005  0.1043930E+01  0.7957747E-01            NaN
         13   -1    0    0    0    0  0.00000000000E+00  0.00000000000E+00  0.74505805969E-08  0.10566000000E+00  0.10566000000E+00 0.  1.
     999900   -1    0    0    0    0 -0.00000000000E+00 -0.00000000000E+00 -0.74505805969E-08  0.93827000000E+00  0.93827000000E+00 0. -1.
     999902    2    1    2    0    0  0.37561329539E-02  0.47102349105E-02 -0.21836811037E-01  0.10212773806E+01  0.10210261246E+01 0.  0.
     999903    2    3    3    0    0 -0.36826814818E-01  0.13312031228E-01 -0.12668494924E+00  0.13408287060E+00  0.19892595629E-01 0.  0.
         14    1    1    2    0    0 -0.37561329539E-02 -0.47102349105E-02  0.21836811037E-01  0.22652619362E-01  0.00000000000E+00 0.  1.
     999901    1    3    3    0    0  0.40582947772E-01 -0.86017963177E-02  0.10484813820E+00  0.88719451003E+00  0.88000000000E+00 0.  1.
        -11    1    4    4    0    0 -0.73095292633E-02 -0.29208735985E-02 -0.45602151839E-01  0.46279348461E-01  0.51100000000E-03 0.  1.
         11    1    4    4    0    0 -0.29517285555E-01  0.16232904827E-01 -0.81082797400E-01  0.87803522144E-01  0.51100000000E-03 0. -1.
</event>
<event>
 8    1  0.1109553E+005  0.1043930E+01  0.7957747E-01            NaN
         13   -1    0    0    0    0  0.00000000000E+00  0.00000000000E+00  0.74505805969E-08  0.10566000000E+00  0.10566000000E+00 0.  1.
     999900   -1    0    0    0    0 -0.00000000000E+00 -0.00000000000E+00 -0.74505805969E-08  0.93827000000E+00  0.93827000000E+00 0.  1.
     999902    2    1    2    0    0  0.32459659215E-02 -0.18902809031E-01 -0.34578200638E-03  0.10247474024E+01  0.10245678439E+01 0.  0.
     999903    2    3    3    0    0 -0.79392364261E-01 -0.10073324793E+00 -0.41070751230E-01  0.13616210126E+00  0.20074273881E-01 0.  0.
         14    1    1    2    0    0 -0.32459659215E-02  0.18902809031E-01  0.34578200638E-03  0.19182597562E-01  0.00000000000E+00 0.  1.
     999901    1    3    3    0    0  0.82638330182E-01  0.81830438902E-01  0.40724969224E-01  0.88858530118E+00  0.88000000000E+00 0. -1.
        -11    1    4    4    0    0 -0.55080117046E-01 -0.82184833806E-01 -0.35253092940E-01  0.10502955719E+00  0.51100000000E-03 0. -1.
         11    1    4    4    0    0 -0.24312247215E-01 -0.18548414126E-01 -0.58176582908E-02  0.31132544069E-01  0.51100000000E-03 0.  1.
</event>
<event>
 8    1  0.1109553E+005  0.1043930E+01  0.7957747E-01            NaN
         13   -1    0    0    0    0  0.00000000000E+00  0.00000000000E+00  0.74505805969E-08  0.10566000000E+00  0.10566000000E+00 0.  1.
     999900   -1    0    0    0    0 -0.00000000000E+00 -0.00000000000E+00 -0.74505805969E-08  0.93827000000E+00  0.93827000000E+00 0. -1.
     999902    2    1    2    0    0  0.20680230261E-01 -0.11078700948E-01  0.42361189718E-02  0.10200898187E+01  0.10198112002E+01 0.  0.
     999903    2    3    3    0    0 -0.11990568039E+00 -0.21676579820E-01  0.35150030378E-01  0.12833178922E+00  0.19653935620E-01 0.  0.
         14    1    1    2    0    0 -0.20680230261E-01  0.11078700948E-01 -0.42361189718E-02  0.23840181255E-01  0.00000000000E+00 0.  1.
     999901    1    3    3    0    0  0.14058591065E+00  0.10597878872E-01 -0.30913911406E-01  0.89175802953E+00  0.88000000000E+00 0.  1.
        -11    1    4    4    0    0 -0.43285919910E-02 -0.32397726960E-02 -0.15941490769E-02  0.56599706736E-02  0.51100000000E-03 0.  1.
         11    1    4    4    0    0 -0.11557708840E+00 -0.18436807124E-01  0.36744179455E-01  0.12267181854E+00  0.51100000000E-03 0. -1.
</event>
<event>
 8    1  0.1109553E+005  0.1043930E+01  0.7957747E-01            NaN
         13   -1    0    0    0    0  0.00000000000E+00  0.00000000000E+00  0.74505805969E-08  0.10566000000E+00  0.10566000000E+00 0. -1.
     999900   -1    0    0    0    0 -0.00000000000E+00 -0.00000000000E+00 -0.74505805969E-08  0.93827000000E+00  0.93827000000E+00 0. -1.
     999902    2    1    2    0    0 -0.58116678597E-02 -0.16724300811E-01  0.15668528567E-01  0.10202872314E+01  0.10200132617E+01 0.  0.
     999903    2    3    3    0    0  0.79619609047E-02 -0.71286543529E-01  0.11064566735E+00  0.13338960026E+00  0.20128528155E-01 0.  0.
         14    1    1    2    0    0  0.58116678597E-02  0.16724300811E-01 -0.15668528567E-01  0.23642768628E-01  0.00000000000E+00 0.  1.
     999901    1    3    3    0    0 -0.13773628764E-01  0.54562242717E-01 -0.94977138780E-01  0.88689763111E+00  0.88000000000E+00 0. -1.
        -11    1    4    4    0    0  0.91307190253E-02 -0.35865630586E-01  0.71966258032E-01  0.80926614308E-01  0.51100000000E-03 0. -1.
         11    1    4    4    0    0 -0.11687581206E-02 -0.35420912942E-01  0.38679409315E-01  0.52462985953E-01  0.51100000000E-03 0.  1.
</event>
<event>
 8    1  0.1109553E+005  0.1043930E+01  0.7957747E-01            NaN
         13   -1    0    0    0    0  0.00000000000E+00  0.00000000000E+00  0.74505805969E-08  0.10566000000E+00  0.10566000000E+00 0.  1.
     999900   -1    0    0    0    0 -0.00000000000E+00 -0.00000000000E+00 -0.74505805969E-08  0.93827000000E+00  0.93827000000E+00 0.  1.
     999902    2    1    2    0    0 -0.10998400411E-01 -0.21510606026E-01  0.52976715115E-02  0.10191966964E+01  0.10188965451E+01 0.  0.
     999903    2    3    3    0    0 -0.41555255563E-01  0.46523673986E-01  0.11232229487E+00  0.12958068112E+00  0.16839343480E-01 0.  0.
         14    1    1    2    0    0  0.10998400411E-01  0.21510606026E-01 -0.52976715115E-02  0.24733303594E-01  0.00000000000E+00 0.  1.
     999901    1    3    3    0    0  0.30556855152E-01 -0.68034280012E-01 -0.10702462335E+00  0.88961601529E+00  0.88000000000E+00 0.  1.
        -11    1    4    4    0    0 -0.95353209337E-02  0.22858271796E-01  0.44693959097E-01  0.51100235182E-01  0.51100000000E-03 0. -1.
         11    1    4    4    0    0 -0.32019934629E-01  0.23665402190E-01  0.67628335769E-01  0.78480445936E-01  0.51100000000E-03 0.  1.
</event>
<event>
 8    1  0.1109553E+005  0.1043930E+01  0.7957747E-01            NaN
         13   -1    0    0    0    0  0.00000000000E+00  0.00000000000E+00  0.74505805969E-08  0.10566000000E+00  0.10566000000E+00 0.  1.
     999900   -1    0    0    0    0 -0.00000000000E+00 -0.00000000000E+00 -0.74505805969E-08  0.93827000000E+00  0.93827000000E+00 0. -1.
     999902    2    1    2    0    0 -0.35123056579E-03  0.23574682341E-01  0.37957615376E-02  0.10200491119E+01  0.10197695298E+01 0.  0.
     999903    2    3    3    0    0  0.87595673142E-01  0.26719292077E-01 -0.91168662128E-01  0.13057579123E+00  0.18745393516E-01 0.  0.
         14    1    1    2    0    0  0.35123056579E-03 -0.23574682341E-01 -0.37957615376E-02  0.23880888091E-01  0.00000000000E+00 0.  1.
     999901    1    3    3    0    0 -0.87946903708E-01 -0.31446097358E-02  0.94964423666E-01  0.88947332068E+00  0.88000000000E+00 0. -1.
        -11    1    4    4    0    0  0.39745599071E-01  0.21455021567E-01 -0.48046562556E-01  0.65945158203E-01  0.51100000000E-03 0.  1.
         11    1    4    4    0    0  0.47850074071E-01  0.52642705094E-02 -0.43122099572E-01  0.64630633024E-01  0.51100000000E-03 0. -1.
</event>
<event>
 8    1  0.1109553E+005  0.1043930E+01  0.7957747E-01            NaN
         13   -1    0    0    0    0  0.00000000000E+00  0.00000000000E+00  0.74505805969E-08  0.10566000000E+00  0.10566000000E+00 0.  1.
     999900   -1    0    0    0    0 -0.00000000000E+00 -0.00000000000E+00 -0.74505805969E-08  0.93827000000E+00  0.93827000000E+00 0. -1.
     999902    2    1    2    0    0 -0.82699365916E-02 -0.73663509574E-02 -0.20455406420E-01  0.10206689031E+01  0.10204038079E+01 0.  0.
     999903    2    3    3    0    0 -0.16964473033E-01  0.12737548745E+00 -0.38485880324E-02  0.13021579124E+00  0.20713099986E-01 0.  0.
         14    1    1    2    0    0  0.82699365916E-02  0.73663509574E-02  0.20455406420E-01  0.23261096910E-01  0.00000000000E+00 0.  1.
     999901    1    3    3    0    0  0.86945364414E-02 -0.13474183841E+00 -0.16606818388E-01  0.89045311185E+00  0.88000000000E+00 0. -1.
        -11    1    4    4    0    0 -0.13960383501E-01  0.64490823164E-01 -0.10837714570E-01  0.66870589634E-01  0.51100000000E-03 0.  1.
         11    1    4    4    0    0 -0.30040895319E-02  0.62884664285E-01  0.69891265375E-02  0.63345201609E-01  0.51100000000E-03 0. -1.
</event>
<event>
 8    1  0.1109553E+005  0.1043930E+01  0.7957747E-01            NaN
         13   -1    0    0    0    0  0.00000000000E+00  0.00000000000E+00  0.74505805969E-08  0.10566000000E+00  0.10566000000E+00 0.  1.
     999900   -1    0    0    0    0 -0.00000000000E+00 -0.00000000000E+00 -0.74505805969E-08  0.93827000000E+00  0.93827000000E+00 0. -1.
     999902    2    1    2    0    0  0.21501213095E-01 -0.88951886649E-02 -0.32462793008E-02  0.10204360673E+01  0.10201655760E+01 0.  0.
     999903    2    3    3    0    0 -0.61059604084E-01  0.53055691762E-01 -0.98840775191E-01  0.12926127646E+00  0.19894649369E-01 0.  0.
         14    1    1    2    0    0 -0.21501213095E-01  0.88951886649E-02  0.32462793008E-02  0.23493932733E-01  0.00000000000E+00 0. -1.
     999901    1    3    3    0    0  0.82560817179E-01 -0.61950880427E-01  0.95594495890E-01  0.89117479080E+00  0.88000000000E+00 0.  1.
        -11    1    4    4    0    0 -0.40364719090E-01  0.40150028192E-01 -0.55403666491E-01  0.79442826566E-01  0.51100000000E-03 0.  1.
         11    1    4    4    0    0 -0.20694884994E-01  0.12905663570E-01 -0.43437108700E-01  0.49818449898E-01  0.51100000000E-03 0. -1.
</event>
<event>
 8    1  0.1109553E+005  0.1043930E+01  0.7957747E-01            NaN
         13   -1    0    0    0    0  0.00000000000E+00  0.00000000000E+00  0.74505805969E-08  0.10566000000E+00  0.10566000000E+00 0. -1.
     999900   -1    0    0    0    0 -0.00000000000E+00 -0.00000000000E+00 -0.74505805969E-08  0.93827000000E+00  0.93827000000E+00 0. -1.
     999902    2    1    2    0    0 -0.11260918814E-01  0.19191641387E-01 -0.86712980618E-02  0.10200486516E+01  0.10197690586E+01 0.  0.
     999903    2    3    3    0    0 -0.11309879965E+00 -0.58409767506E-01  0.18815514769E-01  0.13035856088E+00  0.20887589054E-01 0.  0.
         14    1    1    2    0    0  0.11260918814E-01 -0.19191641387E-01  0.86712980618E-02  0.23881348407E-01  0.00000000000E+00 0.  1.
     999901    1    3    3    0    0  0.10183788083E+00  0.77601408893E-01 -0.27486812830E-01  0.88969009071E+00  0.88000000000E+00 0. -1.
        -11    1    4    4    0    0 -0.87350042286E-01 -0.54370492202E-01  0.16218694012E-01  0.10416087301E+00  0.51100000000E-03 0.  1.
         11    1    4    4    0    0 -0.25748757362E-01 -0.40392753045E-02  0.25968207568E-02  0.26197687869E-01  0.51100000000E-03 0. -1.
</event>
<event>
 8    1  0.1109553E+005  0.1043930E+01  0.7957747E-01            NaN
         13   -1    0    0    0    0  0.00000000000E+00  0.00000000000E+00  0.74505805969E-08  0.10566000000E+00  0.10566000000E+00 0. -1.
     999900   -1    0    0    0    0 -0.00000000000E+00 -0.00000000000E+00 -0.74505805969E-08  0.93827000000E+00  0.93827000000E+00 0. -1.
     999902    2    1    2    0    0 -0.26156115585E-01  0.11850831580E-03 -0.86107850057E-02  0.10163927154E+01  0.10160196109E+01 0.  0.
     999903    2    3    3    0    0 -0.21785802973E-01 -0.65759627612E-01 -0.10610834039E+00  0.12854993551E+00  0.21613796161E-01 0.  0.
         14    1    1    2    0    0  0.26156115585E-01 -0.11850831580E-03  0.86107850057E-02  0.27537284636E-01  0.00000000000E+00 0.  1.
     999901    1    3    3    0    0 -0.43703126124E-02  0.65878135927E-01  0.97497555388E-01  0.88784277985E+00  0.88000000000E+00 0. -1.
        -11    1    4    4    0    0 -0.11898772564E-01 -0.13830316329E-01 -0.17011559723E-01  0.24950204879E-01  0.51100000000E-03 0.  1.
         11    1    4    4    0    0 -0.98870304093E-02 -0.51929311283E-01 -0.89096780671E-01  0.10359973063E+00  0.51100000000E-03 0. -1.
</event>
<event>
 8    1  0.1109553E+005  0.1043930E+01  0.7957747E-01            NaN
         13   -1    0    0    0    0  0.00000000000E+00  0.00000000000E+00  0.74505805969E-08  0.10566000000E+00  0.10566000000E+00 0.  1.
     999900   -1    0    0    0    0 -0.00000000000E+00 -0.00000000000E+00 -0.74505805969E-08  0.93827000000E+00  0.93827000000E+00 0. -1.
     999902    2    1    2    0    0 -0.57359630345E-02 -0.21055562343E-01 -0.95406834477E-02  0.10201127244E+01  0.10198346473E+01 0.  0.
     999903    2    3    3    0    0 -0.10328051006E+00 -0.77017431938E-01  0.22111819146E-01  0.13239173757E+00  0.20978347153E-01 0.  0.
         14    1    1    2    0    0  0.57359630345E-02  0.21055562343E-01  0.95406834477E-02  0.23817275624E-01  0.00000000000E+00 0.  1.
     999901    1    3    3    0    0  0.97544547025E-01  0.55961869595E-01 -0.31652502594E-01  0.88772098681E+00  0.88000000000E+00 0. -1.
        -11    1    4    4    0    0 -0.60861116437E-01 -0.53791506678E-01  0.21496082565E-01  0.84023475121E-01  0.51100000000E-03 0. -1.
         11    1    4    4    0    0 -0.42419393622E-01 -0.23225925260E-01  0.61573658139E-03  0.48368262445E-01  0.51100000000E-03 0.  1.
</event>
<event>
 8    1  0.1109553E+005  0.1043930E+01  0.7957747E-01            NaN
         13   -1    0    0    0    0  0.00000000000E+00  0.00000000000E+00  0.74505805969E-08  0.10566000000E+00  0.10566000000E+00 0.  1.
     999900   -1    0    0    0    0 -0.00000000000E+00 -0.00000000000E+00 -0.74505805969E-08  0.93827000000E+00  0.93827000000E+00 0. -1.
     999902    2    1    2    0    0 -0.68577227406E-02  0.12136581124E-01  0.18890431010E-01  0.10204529187E+01  0.10201828199E+01 0.  0.
     999903    2    3    3    0    0 -0.75251490919E-01  0.65527960082E-01 -0.81583961138E-01  0.13049592516E+00  0.20409393195E-01 0.  0.
         14    1    1    2    0    0  0.68577227406E-02 -0.12136581124E-01 -0.18890431010E-01  0.23477081299E-01  0.00000000000E+00 0. -1.
     999901    1    3    3    0    0  0.68393768178E-01 -0.53391378958E-01  0.10047439215E+00  0.88995699354E+00  0.88000000000E+00 0.  1.
        -11    1    4    4    0    0 -0.28418543662E-01  0.20598775301E-01 -0.40895409623E-01  0.53894515649E-01  0.51100000000E-03 0. -1.
         11    1    4    4    0    0 -0.46832947257E-01  0.44929184782E-01 -0.40688551515E-01  0.76601409512E-01  0.51100000000E-03 0.  1.
</event>
<event>
 8    1  0.1109553E+005  0.1043930E+01  0.7957747E-01            NaN
         13   -1    0    0    0    0  0.00000000000E+00  0.00000000000E+00  0.74505805969E-08  0.10566000000E+00  0.10566000000E+00 0. -1.
     999900   -1    0    0    0    0 -0.00000000000E+00 -0.00000000000E+00 -0.74505805969E-08  0.93827000000E+00  0.93827000000E+00 0.  1.
     999902    2    1    2    0    0  0.15933052808E-01 -0.98207087639E-02 -0.15310093324E-01  0.10197492752E+01  0.10194625432E+01 0.  0.
     999903    2    3    3    0    0  0.67591083542E-01 -0.77678984308E-01  0.78038539636E-01  0.13071200663E+00  0.19825131306E-01 0.  0.
         14    1    1    2    0    0 -0.15933052808E-01  0.98207087639E-02  0.15310093324E-01  0.24180724761E-01  0.00000000000E+00 0. -1.
     999901    1    3    3    0    0 -0.51658030734E-01  0.67858275544E-01 -0.93348632960E-01  0.88903726861E+00  0.88000000000E+00 0.  1.
        -11    1    4    4    0    0  0.36549503242E-01 -0.29820169737E-01  0.28192339889E-01  0.54956144878E-01  0.51100000000E-03 0. -1.
         11    1    4    4    0    0  0.31041580299E-01 -0.47858814571E-01  0.49846199747E-01  0.75755861752E-01  0.51100000000E-03 0.  1.
</event>
<event>
 8    1  0.1109553E+005  0.1043930E+01  0.7957747E-01            NaN
         13   -1    0    0    0    0  0.00000000000E+00  0.00000000000E+00  0.74505805969E-08  0.10566000000E+00  0.10566000000E+00 0.  1.
     999900   -1    0    0    0    0 -0.00000000000E+00 -0.00000000000E+00 -0.74505805969E-08  0.93827000000E+00  0.93827000000E+00 0. -1.
     999902    2    1    2    0    0  0.15064722820E-02  0.22944771185E-01  0.71204568164E-02  0.10198585877E+01  0.10195744730E+01 0.  0.
     999903    2    3    3    0    0  0.85027997587E-01  0.29543303511E-01 -0.92019633007E-01  0.13033728769E+00  0.20435962096E-01 0.  0.
         14    1    1    2    0    0 -0.15064722820E-02 -0.22944771185E-01 -0.71204568164E-02  0.24071412272E-01  0.00000000000E+00 0. -1.
     999901    1    3    3    0    0 -0.83521525305E-01 -0.65985323259E-02  0.99140089823E-01  0.88952130004E+00  0.88000000000E+00 0.  1.
        -11    1    4    4    0    0  0.70436932031E-01  0.19687786687E-01 -0.82725183549E-01  0.11042050286E+00  0.51100000000E-03 0. -1.
         11    1    4    4    0    0  0.14591065556E-01  0.98555168241E-02 -0.92944494574E-02  0.19916784822E-01  0.51100000000E-03 0.  1.
</event>
<event>
 8    1  0.1109553E+005  0.1043930E+01  0.7957747E-01            NaN
         13   -1    0    0    0    0  0.00000000000E+00  0.00000000000E+00  0.74505805969E-08  0.10566000000E+00  0.10566000000E+00 0. -1.
     999900   -1    0    0    0    0 -0.00000000000E+00 -0.00000000000E+00 -0.74505805969E-08  0.93827000000E+00  0.93827000000E+00 0.  1.
     999902    2    1    2    0    0 -0.14631694759E-04 -0.22725250884E-01 -0.77394794665E-04  0.10212046126E+01  0.10209517215E+01 0.  0.
     999903    2    3    3    0    0 -0.11764777429E+00 -0.56787907871E-01  0.14762764433E-01  0.13260005987E+00  0.17290789084E-01 0.  0.
         14    1    1    2    0    0  0.14631694759E-04  0.22725250884E-01  0.77394794665E-04  0.22725387384E-01  0.00000000000E+00 0.  1.
     999901    1    3    3    0    0  0.11763314260E+00  0.34062656987E-01 -0.14840159228E-01  0.88860455275E+00  0.88000000000E+00 0. -1.
        -11    1    4    4    0    0 -0.55069222045E-01 -0.17458164018E-01  0.40473660914E-02  0.57914151990E-01  0.51100000000E-03 0. -1.
         11    1    4    4    0    0 -0.62578552247E-01 -0.39329743853E-01  0.10715398342E-01  0.74685907877E-01  0.51100000000E-03 0.  1.
</event>
<event>
 8    1  0.1109553E+005  0.1043930E+01  0.7957747E-01            NaN
         13   -1    0    0    0    0  0.00000000000E+00  0.00000000000E+00  0.74505805969E-08  0.10566000000E+00  0.10566000000E+00 0. -1.
     999900   -1    0    0    0    0 -0.00000000000E+00 -0.00000000000E+00 -0.74505805969E-08  0.93827000000E+00  0.93827000000E+00 0.  1.
     999902    2    1    2    0    0  0.15778879751E-01  0.18855219730E-01  0.31030582188E-02  0.10191485285E+01  0.10188471926E+01 0.  0.
     999903    2    3    3    0    0  0.70891143214E-01 -0.95671232946E-01 -0.44803287033E-01  0.12872801673E+00  0.19622149777E-01 0.  0.
         14    1    1    2    0    0 -0.15778879751E-01 -0.18855219730E-01 -0.31030582188E-02  0.24781471457E-01  0.00000000000E+00 0.  1.
     999901    1    3    3    0    0 -0.55112263463E-01  0.11452645268E+00  0.47906345252E-01  0.89042051182E+00  0.88000000000E+00 0.  1.
        -11    1    4    4    0    0  0.14137195102E-01 -0.82657133060E-02 -0.45087233749E-02  0.16993293067E-01  0.51100000000E-03 0. -1.
         11    1    4    4    0    0  0.56753948113E-01 -0.87405519640E-01 -0.40294563658E-01  0.11173472366E+00  0.51100000000E-03 0.  1.
</event>
<event>
 8    1  0.1109553E+005  0.1043930E+01  0.7957747E-01            NaN
         13   -1    0    0    0    0  0.00000000000E+00  0.00000000000E+00  0.74505805969E-08  0.10566000000E+00  0.10566000000E+00 0. -1.
     999900   -1    0    0    0    0 -0.00000000000E+00 -0.00000000000E+00 -0.74505805969E-08  0.93827000000E+00  0.93827000000E+00 0. -1.
     999902    2    1    2    0    0  0.15850480194E-01 -0.12501394252E-01  0.12675159315E-01  0.10200934263E+01  0.10198148931E+01 0.  0.
     999903    2    3    3    0    0 -0.23556107310E-02 -0.16951071975E-02  0.13049343347E+00  0.13198904997E+00  0.19599766370E-01 0.  0.
         14    1    1    2    0    0 -0.15850480194E-01  0.12501394252E-01 -0.12675159315E-01  0.23836573669E-01  0.00000000000E+00 0.  1.
     999901    1    3    3    0    0  0.18206090925E-01 -0.10806287055E-01 -0.11781827416E+00  0.88810437636E+00  0.88000000000E+00 0. -1.
        -11    1    4    4    0    0  0.41384210333E-02  0.74292033512E-02  0.50441195107E-01  0.51155594767E-01  0.51100000000E-03 0.  1.
         11    1    4    4    0    0 -0.64940317643E-02 -0.91243105488E-02  0.80052238366E-01  0.80833455202E-01  0.51100000000E-03 0. -1.
</event>
<event>
 8    1  0.1109553E+005  0.1043930E+01  0.7957747E-01            NaN
         13   -1    0    0    0    0  0.00000000000E+00  0.00000000000E+00  0.74505805969E-08  0.10566000000E+00  0.10566000000E+00 0.  1.
     999900   -1    0    0    0    0 -0.00000000000E+00 -0.00000000000E+00 -0.74505805969E-08  0.93827000000E+00  0.93827000000E+00 0.  1.
     999902    2    1    2    0    0 -0.21155560585E-02  0.22254772508E-01 -0.98841789375E-02  0.10194872614E+01  0.10191942056E+01 0.  0.
     999903    2    3    3    0    0  0.61931301142E-01  0.35661988222E-01 -0.10768437347E+00  0.13165471447E+00  0.25095339917E-01 0.  0.
         14    1    1    2    0    0  0.21155560585E-02 -0.22254772508E-01  0.98841789375E-02  0.24442738596E-01  0.00000000000E+00 0.  1.
     999901    1    3    3    0    0 -0.64046857201E-01 -0.13407215714E-01  0.97800194536E-01  0.88783254694E+00  0.88000000000E+00 0. -1.
        -11    1    4    4    0    0  0.26921572498E-01  0.23252336917E-01 -0.71165629437E-01  0.79562869305E-01  0.51100000000E-03 0.  1.
         11    1    4    4    0    0  0.35009728645E-01  0.12409651305E-01 -0.36518744037E-01  0.52091845162E-01  0.51100000000E-03 0. -1.
</event>
<event>
 7    1  0.1109553E+005  0.1043930E+01  0.7957747E-01            NaN
         13   -1    0    0    0    0  0.00000000000E+00  0.00000000000E+00  0.74505805969E-08  0.10566000000E+00  0.10566000000E+00 0.  1.
     999900   -1    0    0    0    0 -0.00000000000E+00 -0.00000000000E+00 -0.74505805969E-08  0.93827000000E+00  0.93827000000E+00 0. -1.
     999903    2    1    2    0    0  0.79225805679E-02  0.28860983058E-01  0.10523716036E+00  0.11156911466E+00  0.21842248039E-01 0.  0.
         14    1    1    2    0    0 -0.40111032793E-01  0.19093230371E-01 -0.23406768820E-02  0.44485111734E-01  0.00000000000E+00 0. -1.
     999901    1    1    2    0    0  0.32188452225E-01 -0.47954213429E-01 -0.10289648348E+00  0.88787577361E+00  0.88000000000E+00 0. -1.
        -11    1    3    3    0    0 -0.75354910437E-02  0.80254187081E-02  0.28066181130E-01  0.30152323541E-01  0.51100000000E-03 0. -1.
         11    1    3    3    0    0  0.15458071612E-01  0.20835564350E-01  0.77170979232E-01  0.81416791120E-01  0.51100000000E-03 0.  1.
</event>
<event>
 8    1  0.1109553E+005  0.1043930E+01  0.7957747E-01            NaN
         13   -1    0    0    0    0  0.00000000000E+00  0.00000000000E+00  0.74505805969E-08  0.10566000000E+00  0.10566000000E+00 0.  1.
     999900   -1    0    0    0    0 -0.00000000000E+00 -0.00000000000E+00 -0.74505805969E-08  0.93827000000E+00  0.93827000000E+00 0.  1.
     999902    2    1    2    0    0 -0.14096324000E-01 -0.12456521224E-01 -0.12264800893E-01  0.10214734506E+01  0.10212265731E+01 0.  0.
     999903    2    3    3    0    0 -0.12608879652E-01 -0.84097480780E-01 -0.10184081416E+00  0.13402852173E+00  0.18992711451E-01 0.  0.
         14    1    1    2    0    0  0.14096324000E-01  0.12456521224E-01  0.12264800893E-01  0.22456549429E-01  0.00000000000E+00 0.  1.
     999901    1    3    3    0    0 -0.14874443474E-02  0.71640959556E-01  0.89576013266E-01  0.88744492884E+00  0.88000000000E+00 0. -1.
        -11    1    4    4    0    0 -0.87836929070E-04 -0.49351289141E-01 -0.67304217249E-01  0.83460626859E-01  0.51100000000E-03 0.  1.
         11    1    4    4    0    0 -0.12521042723E-01 -0.34746191639E-01 -0.34536596910E-01  0.50567894868E-01  0.51100000000E-03 0. -1.
</event>
<event>
 8    1  0.1109553E+005  0.1043930E+01  0.7957747E-01            NaN
         13   -1    0    0    0    0  0.00000000000E+00  0.00000000000E+00  0.74505805969E-08  0.10566000000E+00  0.10566000000E+00 0. -1.
     999900   -1    0    0    0    0 -0.00000000000E+00 -0.00000000000E+00 -0.74505805969E-08  0.93827000000E+00  0.93827000000E+00 0. -1.
     999902    2    1    2    0    0 -0.22079184864E-01 -0.33726509317E-02  0.13654735779E-01  0.10177514403E+01  0.10174147027E+01 0.  0.
     999903    2    3    3    0    0 -0.67861681808E-01  0.32199520128E-01  0.10530429516E+00  0.13109420207E+00  0.21323186518E-01 0.  0.
         14    1    1    2    0    0  0.22079184864E-01  0.33726509317E-02 -0.13654735779E-01  0.26178559696E-01  0.00000000000E+00 0.  1.
     999901    1    3    3    0    0  0.45782496943E-01 -0.35572171060E-01 -0.91649559378E-01  0.88665723823E+00  0.88000000000E+00 0. -1.
        -11    1    4    4    0    0 -0.39036521828E-01  0.13283768583E-01  0.73011115601E-01  0.83852207285E-01  0.51100000000E-03 0. -1.
         11    1    4    4    0    0 -0.28825159979E-01  0.18915751545E-01  0.32293179556E-01  0.47241994784E-01  0.51100000000E-03 0.  1.
</event>
<event>
 8    1  0.1109553E+005  0.1043930E+01  0.7957747E-01            NaN
         13   -1    0    0    0    0  0.00000000000E+00  0.00000000000E+00  0.74505805969E-08  0.10566000000E+00  0.10566000000E+00 0. -1.
     999900   -1    0    0    0    0 -0.00000000000E+00 -0.00000000000E+00 -0.74505805969E-08  0.93827000000E+00  0.93827000000E+00 0. -1.
     999902    2    1    2    0    0 -0.20771521576E-01  0.55740081858E-02 -0.92494027912E-02  0.10205189529E+01  0.10202503889E+01 0.  0.
     999903    2    3    3    0    0  0.86383820557E-01  0.38462152306E-02 -0.94809300340E-01  0.12989796239E+00  0.20192062195E-01 0.  0.
         14    1    1    2    0    0  0.20771521576E-01 -0.55740081858E-02  0.92494027912E-02  0.23411047132E-01  0.00000000000E+00 0.  1.
     999901    1    3    3    0    0 -0.10715534213E+00  0.17277929552E-02  0.85559897549E-01  0.89062099048E+00  0.88000000000E+00 0.  1.
        -11    1    4    4    0    0  0.38570582828E-01 -0.43346449925E-03 -0.56821145347E-01  0.68678828112E-01  0.51100000000E-03 0.  1.
         11    1    4    4    0    0  0.47813237729E-01  0.42796797299E-02 -0.37988154993E-01  0.61219134276E-01  0.51100000000E-03 0. -1.
</event>
<event>
 8    1  0.1109553E+005  0.1043930E+01  0.7957747E-01            NaN
         13   -1    0    0    0    0  0.00000000000E+00  0.00000000000E+00  0.74505805969E-08  0.10566000000E+00  0.10566000000E+00 0. -1.
     999900   -1    0    0    0    0 -0.00000000000E+00 -0.00000000000E+00 -0.74505805969E-08  0.93827000000E+00  0.93827000000E+00 0.  1.
     999902    2    1    2    0    0  0.19322752755E-01 -0.10846855306E-01 -0.73640615074E-02  0.10205793588E+01  0.10203121949E+01 0.  0.
     999903    2    3    3    0    0 -0.44870499747E-01  0.11090851793E+00 -0.45103794443E-01  0.12908093924E+00  0.17705239450E-01 0.  0.
         14    1    1    2    0    0 -0.19322752755E-01  0.10846855306E-01  0.73640615074E-02  0.23350641232E-01  0.00000000000E+00 0. -1.
     999901    1    3    3    0    0  0.64193252502E-01 -0.12175537324E+00  0.37739732936E-01  0.89149841953E+00  0.88000000000E+00 0. -1.
        -11    1    4    4    0    0 -0.60491831940E-02  0.27608483073E-01 -0.16956583332E-01  0.32963734531E-01  0.51100000000E-03 0.  1.
         11    1    4    4    0    0 -0.38821316553E-01  0.83300034861E-01 -0.28147211111E-01  0.96117204709E-01  0.51100000000E-03 0. -1.
</event>
<event>
 8    1  0.1109553E+005  0.1043930E+01  0.7957747E-01            NaN
         13   -1    0    0    0    0  0.00000000000E+00  0.00000000000E+00  0.74505805969E-08  0.10566000000E+00  0.10566000000E+00 0.  1.
     999900   -1    0    0    0    0 -0.00000000000E+00 -0.00000000000E+00 -0.74505805969E-08  0.93827000000E+00  0.93827000000E+00 0.  1.
     999902    2    1    2    0    0 -0.13075721268E-01 -0.13693360831E-01 -0.15949702031E-01  0.10191736753E+01  0.10188729581E+01 0.  0.
     999903    2    3    3    0    0  0.10899637164E+00  0.61350312550E-01  0.87263589712E-02  0.12724203175E+00  0.21686756864E-01 0.  0.
         14    1    1    2    0    0  0.13075721268E-01  0.13693360831E-01  0.15949702031E-01  0.24756324696E-01  0.00000000000E+00 0. -1.
     999901    1    3    3    0    0 -0.12207209291E+00 -0.75043673382E-01 -0.24676061002E-01  0.89193164355E+00  0.88000000000E+00 0.  1.
        -11    1    4    4    0    0  0.89393670611E-01  0.46070769381E-01  0.14799503507E-01  0.10165151529E+00  0.51100000000E-03 0. -1.
         11    1    4    4    0    0  0.19602701028E-01  0.15279543170E-01 -0.60731445355E-02  0.25590516459E-01  0.51100000000E-03 0.  1.
</event>
<event>
 8    1  0.1109553E+005  0.1043930E+01  0.7957747E-01            NaN
         13   -1    0    0    0    0  0.00000000000E+00  0.00000000000E+00  0.74505805969E-08  0.10566000000E+00  0.10566000000E+00 0. -1.
     999900   -1    0    0    0    0 -0.00000000000E+00 -0.00000000000E+00 -0.74505805969E-08  0.93827000000E+00  0.93827000000E+00 0. -1.
     999902    2    1    2    0    0 -0.10435183275E-02  0.23506508164E-01 -0.85865577911E-02  0.10188825684E+01  0.10185746484E+01 0.  0.
     999903    2    3    3    0    0 -0.43262729585E-01 -0.70681898931E-01  0.93962504232E-01  0.12693513273E+00  0.20395614992E-01 0.  0.
         14    1    1    2    0    0  0.10435183275E-02 -0.23506508164E-01  0.85865577911E-02  0.25047431630E-01  0.00000000000E+00 0.  1.
     999901    1    3    3    0    0  0.42219211257E-01  0.94188407095E-01 -0.10254906202E+00  0.89194743564E+00  0.88000000000E+00 0. -1.
        -11    1    4    4    0    0 -0.35793095012E-01 -0.54603503882E-01  0.84644822430E-01  0.10690039931E+00  0.51100000000E-03 0.  1.
         11    1    4    4    0    0 -0.74696345727E-02 -0.16078395050E-01  0.93176818023E-02  0.20034733420E-01  0.51100000000E-03 0. -1.
</event>
<event>
 8    1  0.1109553E+005  0.1043930E+01  0.7957747E-01            NaN
         13   -1    0    0    0    0  0.00000000000E+00  0.00000000000E+00  0.74505805969E-08  0.10566000000E+00  0.10566000000E+00 0.  1.
     999900   -1    0    0    0    0 -0.00000000000E+00 -0.00000000000E+00 -0.74505805969E-08  0.93827000000E+00  0.93827000000E+00 0.  1.
     999902    2    1    2    0    0  0.11689704104E-01  0.19678257910E-01  0.10463956330E-01  0.10187630097E+01  0.10184521062E+01 0.  0.
     999903    2    3    3    0    0  0.11813446675E+00  0.40858514839E-01  0.36318383399E-01  0.13171873679E+00  0.20140262678E-01 0.  0.
         14    1    1    2    0    0 -0.11689704104E-01 -0.19678257910E-01 -0.10463956330E-01  0.25166990255E-01  0.00000000000E+00 0. -1.
     999901    1    3    3    0    0 -0.10644476265E+00 -0.21180256929E-01 -0.25854427068E-01  0.88704427295E+00  0.88000000000E+00 0.  1.
        -11    1    4    4    0    0  0.14720457145E-01  0.34769257033E-02 -0.20084548444E-02  0.15266822943E-01  0.51100000000E-03 0. -1.
         11    1    4    4    0    0  0.10341400960E+00  0.37381589135E-01  0.38326838243E-01  0.11645191385E+00  0.51100000000E-03 0.  1.
</event>
<event>
 8    1  0.1109553E+005  0.1043930E+01  0.7957747E-01            NaN
         13   -1    0    0    0    0  0.00000000000E+00  0.00000000000E+00  0.74505805969E-08  0.10566000000E+00  0.10566000000E+00 0. -1.
     999900   -1    0    0    0    0 -0.00000000000E+00 -0.00000000000E+00 -0.74505805969E-08  0.93827000000E+00  0.93827000000E+00 0. -1.
     999902    2    1    2    0    0 -0.19630277379E-03  0.19756228814E-01  0.16216279011E-01  0.10183699762E+01  0.10180491607E+01 0.  0.
     999903    2    3    3    0    0 -0.73285087703E-01  0.92533641539E-01  0.54428352773E-01  0.13152236535E+00  0.20062604669E-01 0.  0.
         14    1    1    2    0    0  0.19630277379E-03 -0.19756228814E-01 -0.16216279011E-01  0.25560023800E-01  0.00000000000E+00 0.  1.
     999901    1    3    3    0    0  0.73088784929E-01 -0.72777412725E-01 -0.38212073762E-01  0.88684761085E+00  0.88000000000E+00 0. -1.
        -11    1    4    4    0    0 -0.14160295503E-01  0.32009648760E-01  0.13334925004E-01  0.37459483824E-01  0.51100000000E-03 0.  1.
         11    1    4    4    0    0 -0.59124792200E-01  0.60523992778E-01  0.41093427769E-01  0.94062881528E-01  0.51100000000E-03 0. -1.
</event>
<event>
 8    1  0.1109553E+005  0.1043930E+01  0.7957747E-01            NaN
         13   -1    0    0    0    0  0.00000000000E+00  0.00000000000E+00  0.74505805969E-08  0.10566000000E+00  0.10566000000E+00 0. -1.
     999900   -1    0    0    0    0 -0.00000000000E+00 -0.00000000000E+00 -0.74505805969E-08  0.93827000000E+00  0.93827000000E+00 0. -1.
     999902    2    1    2    0    0  0.31388138886E-02 -0.11981782587E-01 -0.21154701471E-01  0.10194159905E+01  0.10191212023E+01 0.  0.
     999903    2    3    3    0    0  0.15516716039E-01  0.51256701054E-01  0.11329469138E+00  0.12687525895E+00  0.19840019128E-01 0.  0.
         14    1    1    2    0    0 -0.31388138886E-02  0.11981782587E-01  0.21154701471E-01  0.24514009483E-01  0.00000000000E+00 0. -1.
     999901    1    3    3    0    0 -0.12377902151E-01 -0.63238483641E-01 -0.13444939285E+00  0.89254073157E+00  0.88000000000E+00 0. -1.
        -11    1    4    4    0    0  0.46502960352E-02  0.36683058911E-01  0.59155315420E-01  0.69763059908E-01  0.51100000000E-03 0.  1.
         11    1    4    4    0    0  0.10866420004E-01  0.14573642143E-01  0.54139375957E-01  0.57112199039E-01  0.51100000000E-03 0. -1.
</event>
<event>
 8    1  0.1176897E+005  0.1043930E+01  0.7957747E-01            NaN
         13   -1    0    0    0    0  0.00000000000E+00  0.00000000000E+00  0.74505805969E-08  0.10566000000E+00  0.10566000000E+00 0.  1.
     999900   -1    0    0    0    0 -0.00000000000E+00 -0.00000000000E+00 -0.74505805969E-08  0.93827000000E+00  0.93827000000E+00 0.  1.
     999902    2    1    2    0    0 -0.20047449351E-01  0.62825187593E-02 -0.10132682882E-01  0.10206053021E+01  0.10203387385E+01 0.  0.
     999903    2    3    3    0    0  0.67938052173E-02 -0.12364336283E+00  0.36410098702E-01  0.12944458815E+00  0.98167791089E-02 0.  0.
         14    1    1    2    0    0  0.20047449351E-01 -0.62825187593E-02  0.10132682882E-01  0.23324697850E-01  0.00000000000E+00 0. -1.
     999901    1    3    3    0    0 -0.26841254568E-01  0.12992588159E+00 -0.46542781583E-01  0.89116071400E+00  0.88000000000E+00 0.  1.
        -11    1    4    4    0    0  0.14431689510E-02 -0.65296448633E-01  0.23750656203E-01  0.69498659928E-01  0.51100000000E-03 0.  1.
         11    1    4    4    0    0  0.53506362663E-02 -0.58346914202E-01  0.12659442499E-01  0.59945928224E-01  0.51100000000E-03 0. -1.
</event>
<event>
 8    1  0.1109553E+005  0.1043930E+01  0.7957747E-01            NaN
         13   -1    0    0    0    0  0.00000000000E+00  0.00000000000E+00  0.74505805969E-08  0.10566000000E+00  0.10566000000E+00 0. -1.
     999900   -1    0    0    0    0 -0.00000000000E+00 -0.00000000000E+00 -0.74505805969E-08  0.93827000000E+00  0.93827000000E+00 0.  1.
     999902    2    1    2    0    0  0.23862613812E-02 -0.18828900932E-01 -0.13940948607E-01  0.10203806518E+01  0.10201088681E+01 0.  0.
     999903    2    3    3    0    0 -0.60383261513E-01  0.11126891886E+00 -0.43162141488E-02  0.12855214179E+00  0.21911478200E-01 0.  0.
         14    1    1    2    0    0 -0.23862613812E-02  0.18828900932E-01  0.13940948607E-01  0.23549348224E-01  0.00000000000E+00 0. -1.
     999901    1    3    3    0    0  0.62769522894E-01 -0.13009781980E+00 -0.96247344577E-02  0.89182850999E+00  0.88000000000E+00 0.  1.
        -11    1    4    4    0    0 -0.27357198677E-01  0.53482506242E-01  0.87865909773E-02  0.60714578936E-01  0.51100000000E-03 0.  1.
         11    1    4    4    0    0 -0.33026062836E-01  0.57786412622E-01 -0.13102805126E-01  0.67837562849E-01  0.51100000000E-03 0. -1.
</event>
<event>
 8    1  0.1109553E+005  0.1043930E+01  0.7957747E-01            NaN
         13   -1    0    0    0    0  0.00000000000E+00  0.00000000000E+00  0.74505805969E-08  0.10566000000E+00  0.10566000000E+00 0.  1.
     999900   -1    0    0    0    0 -0.00000000000E+00 -0.00000000000E+00 -0.74505805969E-08  0.93827000000E+00  0.93827000000E+00 0.  1.
     999902    2    1    2    0    0  0.17215253065E-01 -0.12221961772E-01 -0.11497938851E-01  0.10198895365E+01  0.10196061606E+01 0.  0.
     999903    2    3    3    0    0 -0.16101360505E-01  0.71384979687E-01  0.10297182979E+00  0.12792348034E+00  0.20153162485E-01 0.  0.
         14    1    1    2    0    0 -0.17215253065E-01  0.12221961772E-01  0.11497938851E-01  0.24040463504E-01  0.00000000000E+00 0. -1.
     999901    1    3    3    0    0  0.33316613571E-01 -0.83606941459E-01 -0.11446976864E+00  0.89196605615E+00  0.88000000000E+00 0.  1.
        -11    1    4    4    0    0 -0.52487216817E-02  0.21288857627E-01  0.47924386832E-01  0.52704577719E-01  0.51100000000E-03 0. -1.
         11    1    4    4    0    0 -0.10852638824E-01  0.50096122061E-01  0.55047442954E-01  0.75218902623E-01  0.51100000000E-03 0.  1.
</event>
<event>
 8    1  0.1109553E+005  0.1043930E+01  0.7957747E-01            NaN
         13   -1    0    0    0    0  0.00000000000E+00  0.00000000000E+00  0.74505805969E-08  0.10566000000E+00  0.10566000000E+00 0.  1.
     999900   -1    0    0    0    0 -0.00000000000E+00 -0.00000000000E+00 -0.74505805969E-08  0.93827000000E+00  0.93827000000E+00 0.  1.
     999902    2    1    2    0    0  0.18206015130E-01  0.86890935269E-03 -0.14194539770E-01  0.10208280748E+01  0.10205666364E+01 0.  0.
     999903    2    3    3    0    0  0.94925418155E-01 -0.88915685353E-01  0.15532464100E-01  0.13244142752E+00  0.19561190355E-01 0.  0.
         14    1    1    2    0    0 -0.18206015130E-01 -0.86890935269E-03  0.14194539770E-01  0.23101925236E-01  0.00000000000E+00 0.  1.
     999901    1    3    3    0    0 -0.76719403026E-01  0.89784594705E-01 -0.29727003869E-01  0.88838664725E+00  0.88000000000E+00 0. -1.
        -11    1    4    4    0    0  0.24638976294E-01 -0.22135909627E-01 -0.45285642768E-02  0.33434213962E-01  0.51100000000E-03 0. -1.
         11    1    4    4    0    0  0.70286441861E-01 -0.66779775725E-01  0.20061028377E-01  0.99007213555E-01  0.51100000000E-03 0.  1.
</event>
<event>
 8    1  0.1109553E+005  0.1043930E+01  0.7957747E-01            NaN
         13   -1    0    0    0    0  0.00000000000E+00  0.00000000000E+00  0.74505805969E-08  0.10566000000E+00  0.10566000000E+00 0.  1.
     999900   -1    0    0    0    0 -0.00000000000E+00 -0.00000000000E+00 -0.74505805969E-08  0.93827000000E+00  0.93827000000E+00 0. -1.
     999902    2    1    2    0    0 -0.14941912859E-01  0.12454071585E-01 -0.14309736801E-01  0.10197818484E+01  0.10194958975E+01 0.  0.
     999903    2    3    3    0    0  0.11386261891E+00 -0.54419363938E-01 -0.32857053124E-02  0.12782658435E+00  0.20066804677E-01 0.  0.
         14    1    1    2    0    0  0.14941912859E-01 -0.12454071585E-01  0.14309736801E-01  0.24148151611E-01  0.00000000000E+00 0.  1.
     999901    1    3    3    0    0 -0.12880453177E+00  0.66873435523E-01 -0.11024031489E-01  0.89195526404E+00  0.88000000000E+00 0. -1.
        -11    1    4    4    0    0  0.96552999501E-01 -0.44279315303E-01  0.44579254371E-02  0.10631685519E+00  0.51100000000E-03 0. -1.
         11    1    4    4    0    0  0.17309619408E-01 -0.10140048635E-01 -0.77436307494E-02  0.21509729160E-01  0.51100000000E-03 0.  1.
</event>
<event>
 8    1  0.1109553E+005  0.1043930E+01  0.7957747E-01            NaN
         13   -1    0    0    0    0  0.00000000000E+00  0.00000000000E+00  0.74505805969E-08  0.10566000000E+00  0.10566000000E+00 0. -1.
     999900   -1    0    0    0    0 -0.00000000000E+00 -0.00000000000E+00 -0.74505805969E-08  0.93827000000E+00  0.93827000000E+00 0.  1.
     999902    2    1    2    0    0  0.14249950642E-01 -0.58929301909E-04 -0.18422074359E-01  0.10206397147E+01  0.10203739461E+01 0.  0.
     999903    2    3    3    0    0  0.15533197256E-02 -0.10008990318E+00 -0.84413052701E-01  0.13242678448E+00  0.19770894272E-01 0.  0.
         14    1    1    2    0    0 -0.14249950642E-01  0.58929301909E-04  0.18422074359E-01  0.23290285306E-01  0.00000000000E+00 0. -1.
     999901    1    3    3    0    0  0.12696630916E-01  0.10003097388E+00  0.65990978342E-01  0.88821293021E+00  0.88000000000E+00 0. -1.
        -11    1    4    4    0    0 -0.74337521702E-02 -0.63749668482E-01 -0.47477395362E-01  0.79835111914E-01  0.51100000000E-03 0.  1.
         11    1    4    4    0    0  0.89870718958E-02 -0.36340234702E-01 -0.36935657339E-01  0.52591672569E-01  0.51100000000E-03 0. -1.
</event>
<event>
 8    1  0.1109553E+005  0.1043930E+01  0.7957747E-01            NaN
         13   -1    0    0    0    0  0.00000000000E+00  0.00000000000E+00  0.74505805969E-08  0.10566000000E+00  0.10566000000E+00 0.  1.
     999900   -1    0    0    0    0 -0.00000000000E+00 -0.00000000000E+00 -0.74505805969E-08  0.93827000000E+00  0.93827000000E+00 0.  1.
     999902    2    1    2    0    0 -0.95567231626E-02  0.21036788974E-01 -0.55221283672E-02  0.10201734988E+01  0.10198968557E+01 0.  0.
     999903    2    3    3    0    0  0.76573750591E-01  0.83421480721E-02  0.10193766510E+00  0.12937205086E+00  0.20315247109E-01 0.  0.
         14    1    1    2    0    0  0.95567231626E-02 -0.21036788974E-01  0.55221283672E-02  0.23756501208E-01  0.00000000000E+00 0. -1.
     999901    1    3    3    0    0 -0.86130473753E-01  0.12694640902E-01 -0.10745979347E+00  0.89080144793E+00  0.88000000000E+00 0.  1.
        -11    1    4    4    0    0  0.66848413044E-01  0.12593429466E-01  0.80115878886E-01  0.10510052313E+00  0.51100000000E-03 0.  1.
         11    1    4    4    0    0  0.97253375472E-02 -0.42512813939E-02  0.21821786214E-01  0.24271527732E-01  0.51100000000E-03 0. -1.
</event>
<event>
 8    1  0.1109553E+005  0.1043930E+01  0.7957747E-01            NaN
         13   -1    0    0    0    0  0.00000000000E+00  0.00000000000E+00  0.74505805969E-08  0.10566000000E+00  0.10566000000E+00 0. -1.
     999900   -1    0    0    0    0 -0.00000000000E+00 -0.00000000000E+00 -0.74505805969E-08  0.93827000000E+00  0.93827000000E+00 0.  1.
     999902    2    1    2    0    0 -0.10700723976E-01 -0.10390445147E-01 -0.18550783672E-01  0.10201266721E+01  0.10198489245E+01 0.  0.
     999903    2    3    3    0    0  0.94065713507E-01 -0.16135072871E-01  0.83105315420E-01  0.12808240770E+00  0.19746156033E-01 0.  0.
         14    1    1    2    0    0  0.10700723976E-01  0.10390445147E-01  0.18550783672E-01  0.23803327894E-01  0.00000000000E+00 0.  1.
     999901    1    3    3    0    0 -0.10476643748E+00  0.57446277243E-02 -0.10165609909E+00  0.89204426440E+00  0.88000000000E+00 0. -1.
        -11    1    4    4    0    0  0.62900234508E-01 -0.51798714346E-02  0.44262108277E-01  0.77088688660E-01  0.51100000000E-03 0. -1.
         11    1    4    4    0    0  0.31165478999E-01 -0.10955201437E-01  0.38843207143E-01  0.50993719044E-01  0.51100000000E-03 0.  1.
</event>
<event>
 8    1  0.1109553E+005  0.1043930E+01  0.7957747E-01            NaN
         13   -1    0    0    0    0  0.00000000000E+00  0.00000000000E+00  0.74505805969E-08  0.10566000000E+00  0.10566000000E+00 0.  1.
     999900   -1    0    0    0    0 -0.00000000000E+00 -0.00000000000E+00 -0.74505805969E-08  0.93827000000E+00  0.93827000000E+00 0.  1.
     999902    2    1    2    0    0 -0.37887188333E-02  0.15045463701E-01 -0.17852259517E-01  0.10202778640E+01  0.10200036746E+01 0.  0.
     999903    2    3    3    0    0 -0.12921848505E+00 -0.55956743476E-02  0.47509523879E-02  0.13085693550E+00  0.19293459217E-01 0.  0.
         14    1    1    2    0    0  0.37887188333E-02 -0.15045463701E-01  0.17852259517E-01  0.23652136019E-01  0.00000000000E+00 0.  1.
     999901    1    3    3    0    0  0.12542976622E+00  0.20641138049E-01 -0.22603211905E-01  0.88942092848E+00  0.88000000000E+00 0. -1.
        -11    1    4    4    0    0 -0.72255872268E-01  0.64495665652E-02  0.23509667121E-02  0.72583029364E-01  0.51100000000E-03 0.  1.
         11    1    4    4    0    0 -0.56962612785E-01 -0.12045240913E-01  0.23999856759E-02  0.58273906135E-01  0.51100000000E-03 0. -1.
</event>
<event>
 8    1  0.1109553E+005  0.1043930E+01  0.7957747E-01            NaN
         13   -1    0    0    0    0  0.00000000000E+00  0.00000000000E+00  0.74505805969E-08  0.10566000000E+00  0.10566000000E+00 0.  1.
     999900   -1    0    0    0    0 -0.00000000000E+00 -0.00000000000E+00 -0.74505805969E-08  0.93827000000E+00  0.93827000000E+00 0.  1.
     999902    2    1    2    0    0  0.17920104227E-01  0.55867245271E-02  0.15878487274E-01  0.10193440694E+01  0.10190475277E+01 0.  0.
     999903    2    3    3    0    0 -0.47627760697E-01 -0.76229209444E-01 -0.87666483153E-01  0.12709302256E+00  0.19695891796E-01 0.  0.
         14    1    1    2    0    0 -0.17920104227E-01 -0.55867245271E-02 -0.15878487274E-01  0.24585930622E-01  0.00000000000E+00 0. -1.
     999901    1    3    3    0    0  0.65547864924E-01  0.81815933971E-01  0.10354497043E+00  0.89225104682E+00  0.88000000000E+00 0.  1.
        -11    1    4    4    0    0 -0.65821530326E-02 -0.21854279513E-01 -0.14137817809E-01  0.26852807767E-01  0.51100000000E-03 0.  1.
         11    1    4    4    0    0 -0.41045607665E-01 -0.54374929931E-01 -0.73528665344E-01  0.10024021479E+00  0.51100000000E-03 0. -1.
</event>
<event>
 8    1  0.1109553E+005  0.1043930E+01  0.7957747E-01            NaN
         13   -1    0    0    0    0  0.00000000000E+00  0.00000000000E+00  0.74505805969E-08  0.10566000000E+00  0.10566000000E+00 0. -1.
     999900   -1    0    0    0    0 -0.00000000000E+00 -0.00000000000E+00 -0.74505805969E-08  0.93827000000E+00  0.93827000000E+00 0.  1.
     999902    2    1    2    0    0  0.12090228681E-01  0.12859215960E-01  0.19449534002E-01  0.10176656242E+01  0.10173266463E+01 0.  0.
     999903    2    3    3    0    0 -0.73139609759E-01  0.32078697704E-01 -0.95393554325E-01  0.12591316481E+00  0.19384259191E-01 0.  0.
         14    1    1    2    0    0 -0.12090228681E-01 -0.12859215960E-01 -0.19449534002E-01  0.26264375826E-01  0.00000000000E+00 0.  1.
     999901    1    3    3    0    0  0.85229838440E-01 -0.19219481745E-01  0.11484308833E+00  0.89175245936E+00  0.88000000000E+00 0. -1.
        -11    1    4    4    0    0 -0.38502703489E-01  0.23296827747E-01 -0.64649505382E-01  0.78771949488E-01  0.51100000000E-03 0.  1.
         11    1    4    4    0    0 -0.34636906270E-01  0.87818699573E-02 -0.30744048943E-01  0.47141215325E-01  0.51100000000E-03 0. -1.
</event>
<event>
 8    1  0.1109553E+005  0.1043930E+01  0.7957747E-01            NaN
         13   -1    0    0    0    0  0.00000000000E+00  0.00000000000E+00  0.74505805969E-08  0.10566000000E+00  0.10566000000E+00 0.  1.
     999900   -1    0    0    0    0 -0.00000000000E+00 -0.00000000000E+00 -0.74505805969E-08  0.93827000000E+00  0.93827000000E+00 0.  1.
     999902    2    1    2    0    0 -0.12592868110E-01  0.15738410522E-01  0.15095007081E-01  0.10187479204E+01  0.10184366393E+01 0.  0.
     999903    2    3    3    0    0 -0.66929653332E-01 -0.89762707712E-01 -0.58467443422E-01  0.12774039728E+00  0.19032734059E-01 0.  0.
         14    1    1    2    0    0  0.12592868110E-01 -0.15738410522E-01 -0.15095007081E-01  0.25182079576E-01  0.00000000000E+00 0. -1.
     999901    1    3    3    0    0  0.54336785222E-01  0.10550111823E+00  0.73562450503E-01  0.89100752314E+00  0.88000000000E+00 0. -1.
        -11    1    4    4    0    0 -0.28841528256E-01 -0.26448333582E-01 -0.26303492242E-01  0.47153821972E-01  0.51100000000E-03 0.  1.
         11    1    4    4    0    0 -0.38088125077E-01 -0.63314374130E-01 -0.32163951180E-01  0.80586575307E-01  0.51100000000E-03 0. -1.
</event>
<event>
 8    1  0.1109553E+005  0.1043930E+01  0.7957747E-01            NaN
         13   -1    0    0    0    0  0.00000000000E+00  0.00000000000E+00  0.74505805969E-08  0.10566000000E+00  0.10566000000E+00 0.  1.
     999900   -1    0    0    0    0 -0.00000000000E+00 -0.00000000000E+00 -0.74505805969E-08  0.93827000000E+00  0.93827000000E+00 0.  1.
     999902    2    1    2    0    0  0.12698674852E-01  0.14208997657E-01  0.15083033898E-01  0.10196267107E+01  0.10193370293E+01 0.  0.
     999903    2    3    3    0    0 -0.73366959228E-01  0.98765412998E-01 -0.36274106626E-01  0.12991066804E+00  0.20582841127E-01 0.  0.
         14    1    1    2    0    0 -0.12698674852E-01 -0.14208997657E-01 -0.15083033898E-01  0.24303289263E-01  0.00000000000E+00 0. -1.
     999901    1    3    3    0    0  0.86065634079E-01 -0.84556415341E-01  0.51357140524E-01  0.88971604269E+00  0.88000000000E+00 0.  1.
        -11    1    4    4    0    0 -0.66081443911E-01  0.80914342758E-01 -0.24471455460E-01  0.10729865491E+00  0.51100000000E-03 0. -1.
         11    1    4    4    0    0 -0.72855153170E-02  0.17851070241E-01 -0.11802651166E-01  0.22612013128E-01  0.51100000000E-03 0.  1.
</event>
<event>
 8    1  0.1109553E+005  0.1043930E+01  0.7957747E-01            NaN
         13   -1    0    0    0    0  0.00000000000E+00  0.00000000000E+00  0.74505805969E-08  0.10566000000E+00  0.10566000000E+00 0. -1.
     999900   -1    0    0    0    0 -0.00000000000E+00 -0.00000000000E+00 -0.74505805969E-08  0.93827000000E+00  0.93827000000E+00 0.  1.
     999902    2    1    2    0    0  0.58672145246E-02  0.10600271690E-01 -0.20348020600E-01  0.10202481101E+01  0.10199732223E+01 0.  0.
     999903    2    3    3    0    0  0.11737924916E+00  0.45368180043E-01  0.30263784450E-01  0.13108822791E+00  0.20786220240E-01 0.  0.
         14    1    1    2    0    0 -0.58672145246E-02 -0.10600271690E-01  0.20348020600E-01  0.23681889885E-01  0.00000000000E+00 0. -1.
     999901    1    3    3    0    0 -0.11151203464E+00 -0.34767908353E-01 -0.50611805050E-01  0.88915988221E+00  0.88000000000E+00 0.  1.
        -11    1    4    4    0    0  0.10671497096E+00  0.40424921237E-01  0.33415539233E-01  0.11890802609E+00  0.51100000000E-03 0. -1.
         11    1    4    4    0    0  0.10664278198E-01  0.49432588052E-02 -0.31517547828E-02  0.12180201817E-01  0.51100000000E-03 0.  1.
</event>
<event>
 8    1  0.1109553E+005  0.1043930E+01  0.7957747E-01            NaN
         13   -1    0    0    0    0  0.00000000000E+00  0.00000000000E+00  0.74505805969E-08  0.10566000000E+00  0.10566000000E+00 0. -1.
     999900   -1    0    0    0    0 -0.00000000000E+00 -0.00000000000E+00 -0.74505805969E-08  0.93827000000E+00  0.93827000000E+00 0.  1.
     999902    2    1    2    0    0  0.32575072177E-02  0.14004647262E-01 -0.19174268367E-01  0.10199634803E+01  0.10196818656E+01 0.  0.
     999903    2    3    3    0    0  0.43726630459E-01  0.10569201316E-01  0.11864933027E+00  0.12831057892E+00  0.19031943188E-01 0.  0.
         14    1    1    2    0    0 -0.32575072177E-02 -0.14004647262E-01  0.19174268367E-01  0.23966519681E-01  0.00000000000E+00 0. -1.
     999901    1    3    3    0    0 -0.40469123241E-01  0.34354459456E-02 -0.13782359864E+00  0.89165290140E+00  0.88000000000E+00 0.  1.
        -11    1    4    4    0    0  0.82429644930E-02  0.22654167498E-02  0.48584205711E-01  0.49333201216E-01  0.51100000000E-03 0. -1.
         11    1    4    4    0    0  0.35483665966E-01  0.83037845667E-02  0.70065124563E-01  0.78977377707E-01  0.51100000000E-03 0.  1.
</event>
<event>
 8    1  0.1109553E+005  0.1043930E+01  0.7957747E-01            NaN
         13   -1    0    0    0    0  0.00000000000E+00  0.00000000000E+00  0.74505805969E-08  0.10566000000E+00  0.10566000000E+00 0.  1.
     999900   -1    0    0    0    0 -0.00000000000E+00 -0.00000000000E+00 -0.74505805969E-08  0.93827000000E+00  0.93827000000E+00 0. -1.
     999902    2    1    2    0    0  0.18245483834E-01  0.10127683665E-01  0.12600787294E-01  0.10195528078E+01  0.10192613406E+01 0.  0.
     999903    2    3    3    0    0  0.10124075902E+00 -0.77031232760E-01 -0.26649287614E-01  0.13049405794E+00  0.11619488791E-01 0.  0.
         14    1    1    2    0    0 -0.18245483834E-01 -0.10127683665E-01 -0.12600787294E-01  0.24377192152E-01  0.00000000000E+00 0. -1.
     999901    1    3    3    0    0 -0.82995275182E-01  0.87158916425E-01  0.39250074908E-01  0.88905874991E+00  0.88000000000E+00 0.  1.
        -11    1    4    4    0    0  0.51488153279E-01 -0.33238755822E-01 -0.16210012955E-01  0.63394561736E-01  0.51100000000E-03 0.  1.
         11    1    4    4    0    0  0.49752605736E-01 -0.43792476938E-01 -0.10439274659E-01  0.67099496200E-01  0.51100000000E-03 0. -1.
</event>
<event>
 8    1  0.1109553E+005  0.1043930E+01  0.7957747E-01            NaN
         13   -1    0    0    0    0  0.00000000000E+00  0.00000000000E+00  0.74505805969E-08  0.10566000000E+00  0.10566000000E+00 0. -1.
     999900   -1    0    0    0    0 -0.00000000000E+00 -0.00000000000E+00 -0.74505805969E-08  0.93827000000E+00  0.93827000000E+00 0.  1.
     999902    2    1    2    0    0  0.22362521577E-01 -0.79453872411E-02  0.87513002601E-03  0.10201817916E+01  0.10199053439E+01 0.  0.
     999903    2    3    3    0    0  0.11627961099E+00  0.15862713239E-01  0.59795332113E-01  0.13290571531E+00  0.17772839294E-01 0.  0.
         14    1    1    2    0    0 -0.22362521577E-01  0.79453872411E-02 -0.87513002601E-03  0.23748208401E-01  0.00000000000E+00 0. -1.
     999901    1    3    3    0    0 -0.93917089416E-01 -0.23808100480E-01 -0.58920202087E-01  0.88727607628E+00  0.88000000000E+00 0. -1.
        -11    1    4    4    0    0  0.35555100112E-01 -0.31870346706E-02  0.19774075500E-01  0.40811732588E-01  0.51100000000E-03 0.  1.
         11    1    4    4    0    0  0.80724510881E-01  0.19049747910E-01  0.40021256613E-01  0.92093982726E-01  0.51100000000E-03 0. -1.
</event>
<event>
 8    1  0.1109553E+005  0.1043930E+01  0.7957747E-01            NaN
         13   -1    0    0    0    0  0.00000000000E+00  0.00000000000E+00  0.74505805969E-08  0.10566000000E+00  0.10566000000E+00 0.  1.
     999900   -1    0    0    0    0 -0.00000000000E+00 -0.00000000000E+00 -0.74505805969E-08  0.93827000000E+00  0.93827000000E+00 0.  1.
     999902    2    1    2    0    0  0.83323209201E-02  0.35372209530E-02 -0.16370909375E-01  0.10252231516E+01  0.10250524691E+01 0.  0.
     999903    2    3    3    0    0 -0.11152613127E+00  0.45276141454E-01  0.52951823196E-01  0.13341945833E+00  0.22557689161E-01 0.  0.
         14    1    1    2    0    0 -0.83323209201E-02 -0.35372209530E-02  0.16370909375E-01  0.18706848419E-01  0.00000000000E+00 0.  1.
     999901    1    3    3    0    0  0.11985845219E+00 -0.41738920501E-01 -0.69322732571E-01  0.89180369325E+00  0.88000000000E+00 0.  1.
        -11    1    4    4    0    0 -0.26686553100E-01  0.21393158943E-01  0.17436919661E-01  0.38394617516E-01  0.51100000000E-03 0. -1.
         11    1    4    4    0    0 -0.84839578170E-01  0.23882982512E-01  0.35514903535E-01  0.95024840814E-01  0.51100000000E-03 0.  1.
</event>
<event>
 8    1  0.1109553E+005  0.1043930E+01  0.7957747E-01            NaN
         13   -1    0    0    0    0  0.00000000000E+00  0.00000000000E+00  0.74505805969E-08  0.10566000000E+00  0.10566000000E+00 0. -1.
     999900   -1    0    0    0    0 -0.00000000000E+00 -0.00000000000E+00 -0.74505805969E-08  0.93827000000E+00  0.93827000000E+00 0.  1.
     999902    2    1    2    0    0  0.99047645551E-02 -0.11758003693E-01 -0.17454755875E-01  0.10206700878E+01  0.10204050199E+01 0.  0.
     999903    2    3    3    0    0  0.88560036692E-01 -0.89874339481E-01 -0.38431200081E-01  0.13346727845E+00  0.20402947850E-01 0.  0.
         14    1    1    2    0    0 -0.99047645551E-02  0.11758003693E-01  0.17454755875E-01  0.23259912175E-01  0.00000000000E+00 0. -1.
     999901    1    3    3    0    0 -0.78655272137E-01  0.78116335787E-01  0.20976444206E-01  0.88720280938E+00  0.88000000000E+00 0. -1.
        -11    1    4    4    0    0  0.52298653238E-01 -0.43217875739E-01 -0.28298521893E-01  0.73511913158E-01  0.51100000000E-03 0.  1.
         11    1    4    4    0    0  0.36261383455E-01 -0.46656463742E-01 -0.10132678189E-01  0.59955365291E-01  0.51100000000E-03 0. -1.
</event>
<event>
 8    1  0.1109553E+005  0.1043930E+01  0.7957747E-01            NaN
         13   -1    0    0    0    0  0.00000000000E+00  0.00000000000E+00  0.74505805969E-08  0.10566000000E+00  0.10566000000E+00 0.  1.
     999900   -1    0    0    0    0 -0.00000000000E+00 -0.00000000000E+00 -0.74505805969E-08  0.93827000000E+00  0.93827000000E+00 0.  1.
     999902    2    1    2    0    0 -0.11381995407E-01 -0.19971002207E-01 -0.34147999862E-02  0.10206909895E+01  0.10204264033E+01 0.  0.
     999903    2    3    3    0    0  0.33331293722E-01  0.10780341912E+00 -0.58421643787E-01  0.12864203693E+00  0.20078169423E-01 0.  0.
         14    1    1    2    0    0  0.11381995407E-01  0.19971002207E-01  0.34147999862E-02  0.23239010468E-01  0.00000000000E+00 0. -1.
     999901    1    3    3    0    0 -0.44713289129E-01 -0.12777442133E+00  0.55006843801E-01  0.89204895260E+00  0.88000000000E+00 0. -1.
        -11    1    4    4    0    0  0.20615972251E-01  0.61895305943E-01 -0.44634939529E-01  0.79047999073E-01  0.51100000000E-03 0.  1.
         11    1    4    4    0    0  0.12715321470E-01  0.45908113179E-01 -0.13786704257E-01  0.49594037858E-01  0.51100000000E-03 0. -1.
</event>
<event>
 8    1  0.1109553E+005  0.1043930E+01  0.7957747E-01            NaN
         13   -1    0    0    0    0  0.00000000000E+00  0.00000000000E+00  0.74505805969E-08  0.10566000000E+00  0.10566000000E+00 0. -1.
     999900   -1    0    0    0    0 -0.00000000000E+00 -0.00000000000E+00 -0.74505805969E-08  0.93827000000E+00  0.93827000000E+00 0.  1.
     999902    2    1    2    0    0  0.16653411509E-01  0.54796884229E-02  0.15141031685E-01  0.10207650709E+01  0.10205021881E+01 0.  0.
     999903    2    3    3    0    0  0.11552753682E+00 -0.74138283641E-02  0.64115568219E-01  0.13378094439E+00  0.19620356270E-01 0.  0.
         14    1    1    2    0    0 -0.16653411509E-01 -0.54796884229E-02 -0.15141031685E-01  0.23164929108E-01  0.00000000000E+00 0. -1.
     999901    1    3    3    0    0 -0.98874125311E-01  0.12893516787E-01 -0.48974536534E-01  0.88698412650E+00  0.88000000000E+00 0.  1.
        -11    1    4    4    0    0  0.59857918039E-01  0.12825007170E-02  0.23495547984E-01  0.64318870141E-01  0.51100000000E-03 0. -1.
         11    1    4    4    0    0  0.55669618780E-01 -0.86963290810E-02  0.40620020235E-01  0.69462074253E-01  0.51100000000E-03 0.  1.
</event>
<event>
 8    1  0.1109553E+005  0.1043930E+01  0.7957747E-01            NaN
         13   -1    0    0    0    0  0.00000000000E+00  0.00000000000E+00  0.74505805969E-08  0.10566000000E+00  0.10566000000E+00 0.  1.
     999900   -1    0    0    0    0 -0.00000000000E+00 -0.00000000000E+00 -0.74505805969E-08  0.93827000000E+00  0.93827000000E+00 0.  1.
     999902    2    1    2    0    0 -0.14500633252E-01 -0.21686660556E-02 -0.19764566964E-01  0.10193208638E+01  0.10190237553E+01 0.  0.
     999903    2    3    3    0    0 -0.10381497881E+00 -0.76611822552E-01 -0.17313036018E-01  0.13166955508E+00  0.19753717106E-01 0.  0.
         14    1    1    2    0    0  0.14500633252E-01  0.21686660556E-02  0.19764566964E-01  0.24609136199E-01  0.00000000000E+00 0. -1.
     999901    1    3    3    0    0  0.89314345554E-01  0.74443156496E-01 -0.24515309458E-02  0.88765130872E+00  0.88000000000E+00 0. -1.
        -11    1    4    4    0    0 -0.96895224902E-01 -0.72217624686E-01 -0.11072352070E-01  0.12135455503E+00  0.51100000000E-03 0.  1.
         11    1    4    4    0    0 -0.69197539042E-02 -0.43941978656E-02 -0.62406839481E-02  0.10315000054E-01  0.51100000000E-03 0. -1.
</event>
<event>
 8    1  0.1109553E+005  0.1043930E+01  0.7957747E-01            NaN
         13   -1    0    0    0    0  0.00000000000E+00  0.00000000000E+00  0.74505805969E-08  0.10566000000E+00  0.10566000000E+00 0.  1.
     999900   -1    0    0    0    0 -0.00000000000E+00 -0.00000000000E+00 -0.74505805969E-08  0.93827000000E+00  0.93827000000E+00 0. -1.
     999902    2    1    2    0    0 -0.19191067464E-01 -0.32314903162E-03  0.10794084202E-02  0.10247058845E+01  0.10245255404E+01 0.  0.
     999903    2    3    3    0    0  0.11031049016E+00  0.29995481460E-01  0.63864804782E-01  0.13249969821E+00  0.20231747080E-01 0.  0.
         14    1    1    2    0    0  0.19191067464E-01  0.32314903162E-03 -0.10794084202E-02  0.19224115538E-01  0.00000000000E+00 0. -1.
     999901    1    3    3    0    0 -0.12950155762E+00 -0.30318630492E-01 -0.62785396362E-01  0.89220618625E+00  0.88000000000E+00 0.  1.
        -11    1    4    4    0    0  0.61680950598E-01  0.13414479527E-01  0.45977386202E-01  0.78093976020E-01  0.51100000000E-03 0.  1.
         11    1    4    4    0    0  0.48629539561E-01  0.16581001933E-01  0.17887418580E-01  0.54405722194E-01  0.51100000000E-03 0. -1.
</event>
<event>
 8    1  0.1109553E+005  0.1043930E+01  0.7957747E-01            NaN
         13   -1    0    0    0    0  0.00000000000E+00  0.00000000000E+00  0.74505805969E-08  0.10566000000E+00  0.10566000000E+00 0. -1.
     999900   -1    0    0    0    0 -0.00000000000E+00 -0.00000000000E+00 -0.74505805969E-08  0.93827000000E+00  0.93827000000E+00 0. -1.
     999902    2    1    2    0    0 -0.33992382904E-02 -0.13872833086E-01 -0.18541012624E-01  0.10205253110E+01  0.10202568946E+01 0.  0.
     999903    2    3    3    0    0 -0.11075244116E+00  0.38138727488E-01  0.51929945151E-01  0.12968521956E+00  0.20021768443E-01 0.  0.
         14    1    1    2    0    0  0.33992382904E-02  0.13872833086E-01  0.18541012624E-01  0.23404689016E-01  0.00000000000E+00 0. -1.
     999901    1    3    3    0    0  0.10735320287E+00 -0.52011560575E-01 -0.70470957776E-01  0.89084009142E+00  0.88000000000E+00 0. -1.
        -11    1    4    4    0    0 -0.36204092205E-01  0.22386214239E-01  0.20735439614E-01  0.47350802077E-01  0.51100000000E-03 0.  1.
         11    1    4    4    0    0 -0.74548348954E-01  0.15752513250E-01  0.31194505537E-01  0.82334417482E-01  0.51100000000E-03 0. -1.
</event>
<event>
 8    1  0.1109553E+005  0.1043930E+01  0.7957747E-01            NaN
         13   -1    0    0    0    0  0.00000000000E+00  0.00000000000E+00  0.74505805969E-08  0.10566000000E+00  0.10566000000E+00 0. -1.
     999900   -1    0    0    0    0 -0.00000000000E+00 -0.00000000000E+00 -0.74505805969E-08  0.93827000000E+00  0.93827000000E+00 0.  1.
     999902    2    1    2    0    0 -0.16256316058E-01 -0.14856880438E-01  0.18753370749E-03  0.10219066061E+01  0.10216692624E+01 0.  0.
     999903    2    3    3    0    0  0.34734664084E-01 -0.12370119633E+00  0.28957380092E-01  0.13327008359E+00  0.20344592789E-01 0.  0.
         14    1    1    2    0    0  0.16256316058E-01  0.14856880438E-01 -0.18753370749E-03  0.22023393858E-01  0.00000000000E+00 0. -1.
     999901    1    3    3    0    0 -0.50990980142E-01  0.10884431589E+00 -0.28769846384E-01  0.88863652255E+00  0.88000000000E+00 0. -1.
        -11    1    4    4    0    0  0.22674033748E-01 -0.55802196430E-01  0.57616409990E-02  0.60509954229E-01  0.51100000000E-03 0.  1.
         11    1    4    4    0    0  0.12060630336E-01 -0.67898999897E-01  0.23195739093E-01  0.72760129358E-01  0.51100000000E-03 0. -1.
</event>
<event>
 8    1  0.1109553E+005  0.1043930E+01  0.7957747E-01            NaN
         13   -1    0    0    0    0  0.00000000000E+00  0.00000000000E+00  0.74505805969E-08  0.10566000000E+00  0.10566000000E+00 0. -1.
     999900   -1    0    0    0    0 -0.00000000000E+00 -0.00000000000E+00 -0.74505805969E-08  0.93827000000E+00  0.93827000000E+00 0.  1.
     999902    2    1    2    0    0  0.97637013845E-03  0.51792686004E-02  0.97475684534E-02  0.10328487901E+01  0.10327893445E+01 0.  0.
     999903    2    3    3    0    0  0.89786440230E-01 -0.66799429631E-01 -0.83231893217E-01  0.14059695243E+00  0.17781629174E-01 0.  0.
         14    1    1    2    0    0 -0.97637013845E-03 -0.51792686004E-02 -0.97475684534E-02  0.11081209890E-01  0.00000000000E+00 0.  1.
     999901    1    3    3    0    0 -0.88810070091E-01  0.71978698231E-01  0.92979461671E-01  0.89225183768E+00  0.88000000000E+00 0. -1.
        -11    1    4    4    0    0  0.22885276821E-01 -0.21837798589E-01 -0.15112295166E-01  0.35060917395E-01  0.51100000000E-03 0.  1.
         11    1    4    4    0    0  0.66901163409E-01 -0.44961631042E-01 -0.68119598051E-01  0.10553603504E+00  0.51100000000E-03 0. -1.
</event>
<event>
 8    1  0.1109553E+005  0.1043930E+01  0.7957747E-01            NaN
         13   -1    0    0    0    0  0.00000000000E+00  0.00000000000E+00  0.74505805969E-08  0.10566000000E+00  0.10566000000E+00 0.  1.
     999900   -1    0    0    0    0 -0.00000000000E+00 -0.00000000000E+00 -0.74505805969E-08  0.93827000000E+00  0.93827000000E+00 0.  1.
     999902    2    1    2    0    0  0.12932387382E-01  0.18244659907E-01 -0.10948205900E-03  0.10215664975E+01  0.10213216842E+01 0.  0.
     999903    2    3    3    0    0 -0.53511172844E-02 -0.86849786601E-01 -0.93375772474E-01  0.13023169498E+00  0.25879327708E-01 0.  0.
         14    1    1    2    0    0 -0.12932387382E-01 -0.18244659907E-01  0.10948205900E-03  0.22363502517E-01  0.00000000000E+00 0.  1.
     999901    1    3    3    0    0  0.18283504667E-01  0.10509444651E+00  0.93266290415E-01  0.89133480251E+00  0.88000000000E+00 0. -1.
        -11    1    4    4    0    0 -0.11747458510E-01 -0.36449672297E-01 -0.28041778928E-01  0.47467714064E-01  0.51100000000E-03 0.  1.
         11    1    4    4    0    0  0.63963412252E-02 -0.50400114304E-01 -0.65333993546E-01  0.82763980913E-01  0.51100000000E-03 0. -1.
</event>
<event>
 8    1  0.1109553E+005  0.1043930E+01  0.7957747E-01            NaN
         13   -1    0    0    0    0  0.00000000000E+00  0.00000000000E+00  0.74505805969E-08  0.10566000000E+00  0.10566000000E+00 0.  1.
     999900   -1    0    0    0    0 -0.00000000000E+00 -0.00000000000E+00 -0.74505805969E-08  0.93827000000E+00  0.93827000000E+00 0. -1.
     999902    2    1    2    0    0 -0.19664035098E-01  0.96093758548E-02  0.82358874416E-02  0.10205452994E+01  0.10202773466E+01 0.  0.
     999903    2    3    3    0    0 -0.11418881352E+00 -0.30298912875E-01 -0.56245975395E-01  0.13224044413E+00  0.19152442715E-01 0.  0.
         14    1    1    2    0    0  0.19664035098E-01 -0.96093758548E-02 -0.82358874416E-02  0.23384700610E-01  0.00000000000E+00 0. -1.
     999901    1    3    3    0    0  0.94524778417E-01  0.39908288730E-01  0.64481862837E-01  0.88830485526E+00  0.88000000000E+00 0.  1.
        -11    1    4    4    0    0 -0.60615710770E-01 -0.10715785857E-01 -0.38040774618E-01  0.72363347858E-01  0.51100000000E-03 0.  1.
         11    1    4    4    0    0 -0.53573102746E-01 -0.19583127018E-01 -0.18205200778E-01  0.59877096272E-01  0.51100000000E-03 0. -1.
</event>
<event>
 8    1  0.1109553E+005  0.1043930E+01  0.7957747E-01            NaN
         13   -1    0    0    0    0  0.00000000000E+00  0.00000000000E+00  0.74505805969E-08  0.10566000000E+00  0.10566000000E+00 0. -1.
     999900   -1    0    0    0    0 -0.00000000000E+00 -0.00000000000E+00 -0.74505805969E-08  0.93827000000E+00  0.93827000000E+00 0. -1.
     999902    2    1    2    0    0 -0.19538047720E-01 -0.42662241673E-02  0.12458646359E-01  0.10203682970E+01  0.10200962248E+01 0.  0.
     999903    2    3    3    0    0  0.61134867511E-01  0.86676834625E-01 -0.69006850326E-01  0.12828344326E+00  0.21079628463E-01 0.  0.
         14    1    1    2    0    0  0.19538047720E-01  0.42662241673E-02 -0.12458646359E-01  0.23561702962E-01  0.00000000000E+00 0.  1.
     999901    1    3    3    0    0 -0.80672915230E-01 -0.90943058792E-01  0.81465496685E-01  0.89208485378E+00  0.88000000000E+00 0.  1.
        -11    1    4    4    0    0  0.12055273241E-01  0.22309073218E-01 -0.69829830472E-02  0.26306796346E-01  0.51100000000E-03 0.  1.
         11    1    4    4    0    0  0.49079594270E-01  0.64367761406E-01 -0.62023867279E-01  0.10197664691E+00  0.51100000000E-03 0. -1.
</event>
<event>
 8    1  0.1109553E+005  0.1043930E+01  0.7957747E-01            NaN
         13   -1    0    0    0    0  0.00000000000E+00  0.00000000000E+00  0.74505805969E-08  0.10566000000E+00  0.10566000000E+00 0. -1.
     999900   -1    0    0    0    0 -0.00000000000E+00 -0.00000000000E+00 -0.74505805969E-08  0.93827000000E+00  0.93827000000E+00 0.  1.
     999902    2    1    2    0    0  0.25958004274E-02  0.15120502707E-01 -0.18336301662E-01  0.10200220988E+01  0.10197418763E+01 0.  0.
     999903    2    3    3    0    0  0.10470699335E+00 -0.95911361528E-02 -0.77007791049E-01  0.13183309610E+00  0.19854999286E-01 0.  0.
         14    1    1    2    0    0 -0.25958004274E-02 -0.15120502707E-01  0.18336301662E-01  0.23907901217E-01  0.00000000000E+00 0. -1.
     999901    1    3    3    0    0 -0.10211119292E+00  0.24711638860E-01  0.58671489387E-01  0.88818900268E+00  0.88000000000E+00 0.  1.
        -11    1    4    4    0    0  0.96285426731E-01 -0.68834899589E-02 -0.63045379901E-01  0.11529634375E+00  0.51100000000E-03 0.  1.
         11    1    4    4    0    0  0.84215666194E-02 -0.27076461939E-02 -0.13962411148E-01  0.16536752351E-01  0.51100000000E-03 0. -1.
</event>
<event>
 8    1  0.1109553E+005  0.1043930E+01  0.7957747E-01            NaN
         13   -1    0    0    0    0  0.00000000000E+00  0.00000000000E+00  0.74505805969E-08  0.10566000000E+00  0.10566000000E+00 0. -1.
     999900   -1    0    0    0    0 -0.00000000000E+00 -0.00000000000E+00 -0.74505805969E-08  0.93827000000E+00  0.93827000000E+00 0. -1.
     999902    2    1    2    0    0  0.63075365262E-03  0.14274510815E-01 -0.17492637223E-01  0.10213434583E+01  0.10210936823E+01 0.  0.
     999903    2    3    3    0    0  0.97935355921E-01  0.87083181361E-01  0.40123611758E-02  0.13273119578E+00  0.20655674201E-01 0.  0.
         14    1    1    2    0    0 -0.63075365262E-03 -0.14274510815E-01  0.17492637223E-01  0.22586541705E-01  0.00000000000E+00 0. -1.
     999901    1    3    3    0    0 -0.97304602268E-01 -0.72808670546E-01 -0.21504998399E-01  0.88861226251E+00  0.88000000000E+00 0.  1.
        -11    1    4    4    0    0  0.70562017112E-01  0.53040516939E-01  0.91307043408E-02  0.88746411639E-01  0.51100000000E-03 0.  1.
         11    1    4    4    0    0  0.27373338809E-01  0.34042664422E-01 -0.51183431650E-02  0.43984784144E-01  0.51100000000E-03 0. -1.
</event>
<event>
 8    1  0.1109553E+005  0.1043930E+01  0.7957747E-01            NaN
         13   -1    0    0    0    0  0.00000000000E+00  0.00000000000E+00  0.74505805969E-08  0.10566000000E+00  0.10566000000E+00 0. -1.
     999900   -1    0    0    0    0 -0.00000000000E+00 -0.00000000000E+00 -0.74505805969E-08  0.93827000000E+00  0.93827000000E+00 0.  1.
     999902    2    1    2    0    0 -0.13634175816E-01  0.15885290661E-01  0.10917949528E-01  0.10203199422E+01  0.10200467389E+01 0.  0.
     999903    2    3    3    0    0  0.83988450480E-01  0.50259865733E-01 -0.82312605476E-01  0.12936330743E+00  0.19477843081E-01 0.  0.
         14    1    1    2    0    0  0.13634175816E-01 -0.15885290661E-01 -0.10917949528E-01  0.23610057845E-01  0.00000000000E+00 0. -1.
     999901    1    3    3    0    0 -0.97622626296E-01 -0.34374575073E-01  0.93230555003E-01  0.89095663473E+00  0.88000000000E+00 0. -1.
        -11    1    4    4    0    0  0.21132431340E-01  0.13285896283E-01 -0.32783024405E-01  0.41207796648E-01  0.51100000000E-03 0. -1.
         11    1    4    4    0    0  0.62856019140E-01  0.36973969450E-01 -0.49529581070E-01  0.88155510781E-01  0.51100000000E-03 0.  1.
</event>
<event>
 8    1  0.1109553E+005  0.1043930E+01  0.7957747E-01            NaN
         13   -1    0    0    0    0  0.00000000000E+00  0.00000000000E+00  0.74505805969E-08  0.10566000000E+00  0.10566000000E+00 0. -1.
     999900   -1    0    0    0    0 -0.00000000000E+00 -0.00000000000E+00 -0.74505805969E-08  0.93827000000E+00  0.93827000000E+00 0.  1.
     999902    2    1    2    0    0  0.10412221708E-01  0.45000386847E-02  0.20298740798E-01  0.10206769661E+01  0.10204120567E+01 0.  0.
     999903    2    3    3    0    0  0.12600617805E+00 -0.11214180782E-01  0.36413608826E-01  0.13283205371E+00  0.17750741585E-01 0.  0.
         14    1    1    2    0    0 -0.10412221708E-01 -0.45000386847E-02 -0.20298740798E-01  0.23253033932E-01  0.00000000000E+00 0. -1.
     999901    1    3    3    0    0 -0.11559395634E+00  0.15714219466E-01 -0.16114868028E-01  0.88784491236E+00  0.88000000000E+00 0. -1.
        -11    1    4    4    0    0  0.41216848402E-01  0.25419046846E-02  0.61306075067E-02  0.41750872339E-01  0.51100000000E-03 0.  1.
         11    1    4    4    0    0  0.84789329647E-01 -0.13756085466E-01  0.30283001319E-01  0.91081181367E-01  0.51100000000E-03 0. -1.
</event>
<event>
 8    1  0.1109553E+005  0.1043930E+01  0.7957747E-01            NaN
         13   -1    0    0    0    0  0.00000000000E+00  0.00000000000E+00  0.74505805969E-08  0.10566000000E+00  0.10566000000E+00 0. -1.
     999900   -1    0    0    0    0 -0.00000000000E+00 -0.00000000000E+00 -0.74505805969E-08  0.93827000000E+00  0.93827000000E+00 0. -1.
     999902    2    1    2    0    0 -0.19300425030E-01  0.30596576419E-02  0.12992856139E-01  0.10204633807E+01  0.10201935253E+01 0.  0.
     999903    2    3    3    0    0 -0.71546334047E-01 -0.52443320340E-01  0.97528877045E-01  0.13313223934E+00  0.18523809838E-01 0.  0.
         14    1    1    2    0    0  0.19300425030E-01 -0.30596576419E-02 -0.12992856139E-01  0.23466619310E-01  0.00000000000E+00 0. -1.
     999901    1    3    3    0    0  0.52245909018E-01  0.55502977982E-01 -0.84536020906E-01  0.88733114135E+00  0.88000000000E+00 0. -1.
        -11    1    4    4    0    0 -0.48291374362E-01 -0.32464308021E-01  0.50824661430E-01  0.77261862931E-01  0.51100000000E-03 0. -1.
         11    1    4    4    0    0 -0.23254959685E-01 -0.19979012319E-01  0.46704215615E-01  0.55870376412E-01  0.51100000000E-03 0.  1.
</event>
<event>
 8    1  0.1109553E+005  0.1043930E+01  0.7957747E-01            NaN
         13   -1    0    0    0    0  0.00000000000E+00  0.00000000000E+00  0.74505805969E-08  0.10566000000E+00  0.10566000000E+00 0. -1.
     999900   -1    0    0    0    0 -0.00000000000E+00 -0.00000000000E+00 -0.74505805969E-08  0.93827000000E+00  0.93827000000E+00 0. -1.
     999902    2    1    2    0    0  0.68661056568E-02  0.22112244901E-01 -0.32954984473E-03  0.10207739342E+01  0.10205112549E+01 0.  0.
     999903    2    3    3    0    0 -0.73917961849E-02 -0.99776772692E-02  0.12849020742E+00  0.13070226249E+00  0.20473283158E-01 0.  0.
         14    1    1    2    0    0 -0.68661056568E-02 -0.22112244901E-01  0.32954984473E-03  0.23156065826E-01  0.00000000000E+00 0.  1.
     999901    1    3    3    0    0  0.14257901842E-01  0.32089922170E-01 -0.12881975726E+00  0.89007167168E+00  0.88000000000E+00 0. -1.
        -11    1    4    4    0    0 -0.12672515286E-01 -0.15907802400E-02  0.92113504464E-01  0.92996139980E-01  0.51100000000E-03 0. -1.
         11    1    4    4    0    0  0.52807191012E-02 -0.83868970293E-02  0.36376702955E-01  0.37706122512E-01  0.51100000000E-03 0.  1.
</event>
<event>
 8    1  0.1109553E+005  0.1043930E+01  0.7957747E-01            NaN
         13   -1    0    0    0    0  0.00000000000E+00  0.00000000000E+00  0.74505805969E-08  0.10566000000E+00  0.10566000000E+00 0.  1.
     999900   -1    0    0    0    0 -0.00000000000E+00 -0.00000000000E+00 -0.74505805969E-08  0.93827000000E+00  0.93827000000E+00 0. -1.
     999902    2    1    2    0    0 -0.71307579996E-02  0.45888938755E-02  0.22338593823E-01  0.10200361006E+01  0.10197562101E+01 0.  0.
     999903    2    3    3    0    0 -0.11856511252E+00  0.12706640261E-02  0.55736955433E-01  0.13237395955E+00  0.18893291699E-01 0.  0.
         14    1    1    2    0    0  0.71307579996E-02 -0.45888938755E-02 -0.22338593823E-01  0.23893899444E-01  0.00000000000E+00 0. -1.
     999901    1    3    3    0    0  0.11143435452E+00  0.33182298494E-02 -0.33398361610E-01  0.88766214101E+00  0.88000000000E+00 0. -1.
        -11    1    4    4    0    0 -0.92237057090E-01 -0.68197137678E-03  0.34476826503E-01  0.98473613076E-01  0.51100000000E-03 0.  1.
         11    1    4    4    0    0 -0.26328055433E-01  0.19526354029E-02  0.21260128929E-01  0.33900346473E-01  0.51100000000E-03 0. -1.
</event>
<event>
 8    1  0.1109553E+005  0.1043930E+01  0.7957747E-01            NaN
         13   -1    0    0    0    0  0.00000000000E+00  0.00000000000E+00  0.74505805969E-08  0.10566000000E+00  0.10566000000E+00 0.  1.
     999900   -1    0    0    0    0 -0.00000000000E+00 -0.00000000000E+00 -0.74505805969E-08  0.93827000000E+00  0.93827000000E+00 0.  1.
     999902    2    1    2    0    0 -0.36496437184E-02 -0.11840421041E-01  0.19861907047E-01  0.10205203690E+01  0.10202518379E+01 0.  0.
     999903    2    3    3    0    0  0.10803190358E+00 -0.36823924609E-01 -0.58312466937E-01  0.12967348198E+00  0.19697068629E-01 0.  0.
         14    1    1    2    0    0  0.36496437184E-02  0.11840421041E-01 -0.19861907047E-01  0.23409630951E-01  0.00000000000E+00 0. -1.
     999901    1    3    3    0    0 -0.11168154730E+00  0.24983503568E-01  0.78174373984E-01  0.89084688707E+00  0.88000000000E+00 0. -1.
        -11    1    4    4    0    0  0.67683974884E-01 -0.15278684060E-01 -0.41994832626E-01  0.81107248326E-01  0.51100000000E-03 0.  1.
         11    1    4    4    0    0  0.40347928699E-01 -0.21545240549E-01 -0.16317634311E-01  0.48566233652E-01  0.51100000000E-03 0. -1.
</event>
<event>
 8    1  0.1109553E+005  0.1043930E+01  0.7957747E-01            NaN
         13   -1    0    0    0    0  0.00000000000E+00  0.00000000000E+00  0.74505805969E-08  0.10566000000E+00  0.10566000000E+00 0. -1.
     999900   -1    0    0    0    0 -0.00000000000E+00 -0.00000000000E+00 -0.74505805969E-08  0.93827000000E+00  0.93827000000E+00 0.  1.
     999902    2    1    2    0    0 -0.21909212232E-02 -0.18794461283E-01  0.15234442181E-01  0.10196376115E+01  0.10193481930E+01 0.  0.
     999903    2    3    3    0    0 -0.10512368521E+00  0.12871195101E-01 -0.71098042237E-01  0.12887885315E+00  0.18389407962E-01 0.  0.
         14    1    1    2    0    0  0.21909212232E-02  0.18794461283E-01 -0.15234442181E-01  0.24292388505E-01  0.00000000000E+00 0.  1.
     999901    1    3    3    0    0  0.10293276399E+00 -0.31665656384E-01  0.86332484418E-01  0.89075875834E+00  0.88000000000E+00 0. -1.
        -11    1    4    4    0    0 -0.39181574226E-01 -0.40952728018E-02 -0.26548378094E-01  0.47508362617E-01  0.51100000000E-03 0. -1.
         11    1    4    4    0    0 -0.65942110983E-01  0.16966467903E-01 -0.44549664143E-01  0.81370490537E-01  0.51100000000E-03 0.  1.
</event>
<event>
 8    1  0.1109553E+005  0.1043930E+01  0.7957747E-01            NaN
         13   -1    0    0    0    0  0.00000000000E+00  0.00000000000E+00  0.74505805969E-08  0.10566000000E+00  0.10566000000E+00 0. -1.
     999900   -1    0    0    0    0 -0.00000000000E+00 -0.00000000000E+00 -0.74505805969E-08  0.93827000000E+00  0.93827000000E+00 0.  1.
     999902    2    1    2    0    0 -0.96985689066E-03  0.21072552315E-01  0.10433712658E-01  0.10203958664E+01  0.10201244379E+01 0.  0.
     999903    2    3    3    0    0  0.52803615784E-01 -0.10244750910E+00 -0.51894474305E-01  0.12796458345E+00  0.19954553181E-01 0.  0.
         14    1    1    2    0    0  0.96985689066E-03 -0.21072552315E-01 -0.10433712658E-01  0.23534133578E-01  0.00000000000E+00 0.  1.
     999901    1    3    3    0    0 -0.53773472675E-01  0.12352006142E+00  0.62328186963E-01  0.89243128297E+00  0.88000000000E+00 0. -1.
        -11    1    4    4    0    0  0.40734216056E-01 -0.93090600595E-01 -0.43535146093E-01  0.11054730365E+00  0.51100000000E-03 0. -1.
         11    1    4    4    0    0  0.12069399728E-01 -0.93569085083E-02 -0.83593282118E-02  0.17417279804E-01  0.51100000000E-03 0.  1.
</event>
<event>
 8    1  0.1109553E+005  0.1043930E+01  0.7957747E-01            NaN
         13   -1    0    0    0    0  0.00000000000E+00  0.00000000000E+00  0.74505805969E-08  0.10566000000E+00  0.10566000000E+00 0.  1.
     999900   -1    0    0    0    0 -0.00000000000E+00 -0.00000000000E+00 -0.74505805969E-08  0.93827000000E+00  0.93827000000E+00 0. -1.
     999902    2    1    2    0    0  0.82895059817E-02  0.15457817667E-01 -0.14349129475E-01  0.10212681918E+01  0.10210167295E+01 0.  0.
     999903    2    3    3    0    0  0.55208787221E-01  0.65612700388E-01 -0.10154465265E+00  0.13429581875E+00  0.19261718809E-01 0.  0.
         14    1    1    2    0    0 -0.82895059817E-02 -0.15457817667E-01  0.14349129475E-01  0.22661808249E-01  0.00000000000E+00 0.  1.
     999901    1    3    3    0    0 -0.46919281240E-01 -0.50154882721E-01  0.87195523177E-01  0.88697237301E+00  0.88000000000E+00 0.  1.
        -11    1    4    4    0    0  0.12180824181E-01  0.27969229684E-01 -0.31056855982E-01  0.43536647911E-01  0.51100000000E-03 0.  1.
         11    1    4    4    0    0  0.43027963041E-01  0.37643470704E-01 -0.70487796671E-01  0.90759170835E-01  0.51100000000E-03 0. -1.
</event>
<event>
 8    1  0.1109553E+005  0.1043930E+01  0.7957747E-01            NaN
         13   -1    0    0    0    0  0.00000000000E+00  0.00000000000E+00  0.74505805969E-08  0.10566000000E+00  0.10566000000E+00 0.  1.
     999900   -1    0    0    0    0 -0.00000000000E+00 -0.00000000000E+00 -0.74505805969E-08  0.93827000000E+00  0.93827000000E+00 0.  1.
     999902    2    1    2    0    0 -0.94086445553E-03 -0.13301914599E-01 -0.18804418825E-01  0.10208771840E+01  0.10206168686E+01 0.  0.
     999903    2    3    3    0    0 -0.60013117258E-01  0.44774927779E-01 -0.10742307679E+00  0.13255532949E+00  0.20611393651E-01 0.  0.
         14    1    1    2    0    0  0.94086445553E-03  0.13301914599E-01  0.18804418825E-01  0.23052815994E-01  0.00000000000E+00 0. -1.
     999901    1    3    3    0    0  0.59072252803E-01 -0.58076842378E-01  0.88618657965E-01  0.88832185452E+00  0.88000000000E+00 0. -1.
        -11    1    4    4    0    0 -0.36267407348E-01  0.38874762695E-01 -0.72164082263E-01  0.89635304987E-01  0.51100000000E-03 0. -1.
         11    1    4    4    0    0 -0.23745709910E-01  0.59001650843E-02 -0.35258994528E-01  0.42920024502E-01  0.51100000000E-03 0.  1.
</event>
<event>
 8    1  0.1109553E+005  0.1043930E+01  0.7957747E-01            NaN
         13   -1    0    0    0    0  0.00000000000E+00  0.00000000000E+00  0.74505805969E-08  0.10566000000E+00  0.10566000000E+00 0. -1.
     999900   -1    0    0    0    0 -0.00000000000E+00 -0.00000000000E+00 -0.74505805969E-08  0.93827000000E+00  0.93827000000E+00 0.  1.
     999902    2    1    2    0    0  0.10882058480E-01  0.82134177506E-02 -0.21288150600E-01  0.10186502693E+01  0.10183365389E+01 0.  0.
     999903    2    3    3    0    0 -0.21472218758E-02 -0.11484148580E+00  0.50540693634E-01  0.12709451990E+00  0.20136480686E-01 0.  0.
         14    1    1    2    0    0 -0.10882058480E-01 -0.82134177506E-02  0.21288150600E-01  0.25279730692E-01  0.00000000000E+00 0. -1.
     999901    1    3    3    0    0  0.13029280355E-01  0.12305490355E+00 -0.71828844234E-01  0.89155574941E+00  0.88000000000E+00 0.  1.
        -11    1    4    4    0    0 -0.89163089891E-02 -0.70509502631E-01  0.37653645553E-01  0.80431018094E-01  0.51100000000E-03 0. -1.
         11    1    4    4    0    0  0.67690871134E-02 -0.44331983166E-01  0.12887048082E-01  0.46663501808E-01  0.51100000000E-03 0.  1.
</event>
<event>
 8    1  0.1109553E+005  0.1043930E+01  0.7957747E-01            NaN
         13   -1    0    0    0    0  0.00000000000E+00  0.00000000000E+00  0.74505805969E-08  0.10566000000E+00  0.10566000000E+00 0.  1.
     999900   -1    0    0    0    0 -0.00000000000E+00 -0.00000000000E+00 -0.74505805969E-08  0.93827000000E+00  0.93827000000E+00 0. -1.
     999902    2    1    2    0    0 -0.11850260528E-01  0.11175123513E-02 -0.18703597449E-01  0.10217601541E+01  0.10215196085E+01 0.  0.
     999903    2    3    3    0    0 -0.71113757237E-01 -0.58764157492E-01 -0.95685825394E-01  0.13439087370E+00  0.19867991310E-01 0.  0.
         14    1    1    2    0    0  0.11850260528E-01 -0.11175123513E-02  0.18703597449E-01  0.22169845872E-01  0.00000000000E+00 0.  1.
     999901    1    3    3    0    0  0.59263496709E-01  0.59881669844E-01  0.76982227946E-01  0.88736928043E+00  0.88000000000E+00 0.  1.
        -11    1    4    4    0    0 -0.64376272027E-01 -0.44087081246E-01 -0.75998523963E-01  0.10892204505E+00  0.51100000000E-03 0.  1.
         11    1    4    4    0    0 -0.67374852102E-02 -0.14677076246E-01 -0.19687301431E-01  0.25468828649E-01  0.51100000000E-03 0. -1.
</event>
<event>
 8    1  0.1109553E+005  0.1043930E+01  0.7957747E-01            NaN
         13   -1    0    0    0    0  0.00000000000E+00  0.00000000000E+00  0.74505805969E-08  0.10566000000E+00  0.10566000000E+00 0. -1.
     999900   -1    0    0    0    0 -0.00000000000E+00 -0.00000000000E+00 -0.74505805969E-08  0.93827000000E+00  0.93827000000E+00 0.  1.
     999902    2    1    2    0    0 -0.17328139841E-01  0.10468505523E-01 -0.11515423227E-01  0.10206392505E+01  0.10203734712E+01 0.  0.
     999903    2    3    3    0    0  0.92538340064E-01 -0.43750722917E-01 -0.77144436732E-01  0.12973098615E+00  0.20034832478E-01 0.  0.
         14    1    1    2    0    0  0.17328139841E-01 -0.10468505523E-01  0.11515423227E-01  0.23290749458E-01  0.00000000000E+00 0. -1.
     999901    1    3    3    0    0 -0.10986647990E+00  0.54219228440E-01  0.65629013505E-01  0.89090826439E+00  0.88000000000E+00 0.  1.
        -11    1    4    4    0    0  0.48676691799E-01 -0.30894169015E-01 -0.51566320303E-01  0.77351254122E-01  0.51100000000E-03 0.  1.
         11    1    4    4    0    0  0.43861648266E-01 -0.12856553901E-01 -0.25578116429E-01  0.52379732033E-01  0.51100000000E-03 0. -1.
</event>
<event>
 8    1  0.1109553E+005  0.1043930E+01  0.7957747E-01            NaN
         13   -1    0    0    0    0  0.00000000000E+00  0.00000000000E+00  0.74505805969E-08  0.10566000000E+00  0.10566000000E+00 0.  1.
     999900   -1    0    0    0    0 -0.00000000000E+00 -0.00000000000E+00 -0.74505805969E-08  0.93827000000E+00  0.93827000000E+00 0. -1.
     999902    2    1    2    0    0 -0.21789650697E-01 -0.72156453833E-02  0.10159827766E-01  0.10188286750E+01  0.10185194119E+01 0.  0.
     999903    2    3    3    0    0 -0.10654224175E+00 -0.46798261811E-01 -0.57565725978E-01  0.13128344471E+00  0.19498806673E-01 0.  0.
         14    1    1    2    0    0  0.21789650697E-01  0.72156453833E-02 -0.10159827766E-01  0.25101324986E-01  0.00000000000E+00 0.  1.
     999901    1    3    3    0    0  0.84752591049E-01  0.39582616428E-01  0.67725553744E-01  0.88754523031E+00  0.88000000000E+00 0.  1.
        -11    1    4    4    0    0 -0.31894613616E-01 -0.22158479775E-01 -0.13224608634E-01  0.41029452814E-01  0.51100000000E-03 0. -1.
         11    1    4    4    0    0 -0.74647628130E-01 -0.24639782037E-01 -0.44341117344E-01  0.90253991892E-01  0.51100000000E-03 0.  1.
</event>
<event>
 8    1  0.1109553E+005  0.1043930E+01  0.7957747E-01            NaN
         13   -1    0    0    0    0  0.00000000000E+00  0.00000000000E+00  0.74505805969E-08  0.10566000000E+00  0.10566000000E+00 0. -1.
     999900   -1    0    0    0    0 -0.00000000000E+00 -0.00000000000E+00 -0.74505805969E-08  0.93827000000E+00  0.93827000000E+00 0.  1.
     999902    2    1    2    0    0  0.18218994033E-01  0.25200078745E-02  0.14843537185E-01  0.10202950094E+01  0.10200212221E+01 0.  0.
     999903    2    3    3    0    0 -0.20570792052E-01 -0.72840766060E-01 -0.10196101128E+00  0.12853988816E+00  0.19937912172E-01 0.  0.
         14    1    1    2    0    0 -0.18218994033E-01 -0.25200078745E-02 -0.14843537185E-01  0.23634990574E-01  0.00000000000E+00 0.  1.
     999901    1    3    3    0    0  0.38789786085E-01  0.75360773934E-01  0.11680454847E+00  0.89175512126E+00  0.88000000000E+00 0.  1.
        -11    1    4    4    0    0 -0.33215032646E-03 -0.64623758618E-02 -0.18897661370E-02  0.67605445544E-02  0.51100000000E-03 0. -1.
         11    1    4    4    0    0 -0.20238641726E-01 -0.66378390198E-01 -0.10007124515E+00  0.12177934361E+00  0.51100000000E-03 0.  1.
</event>
<event>
 8    1  0.1109553E+005  0.1043930E+01  0.7957747E-01            NaN
         13   -1    0    0    0    0  0.00000000000E+00  0.00000000000E+00  0.74505805969E-08  0.10566000000E+00  0.10566000000E+00 0.  1.
     999900   -1    0    0    0    0 -0.00000000000E+00 -0.00000000000E+00 -0.74505805969E-08  0.93827000000E+00  0.93827000000E+00 0. -1.
     999902    2    1    2    0    0  0.71027240552E-02 -0.19958109451E-01 -0.91509388543E-02  0.10208537242E+01  0.10205928727E+01 0.  0.
     999903    2    3    3    0    0  0.71958003750E-01 -0.54782538515E-01 -0.96023672310E-01  0.13351736185E+00  0.20670255017E-01 0.  0.
         14    1    1    2    0    0 -0.71027240552E-02  0.19958109451E-01  0.91509388543E-02  0.23076275778E-01  0.00000000000E+00 0.  1.
     999901    1    3    3    0    0 -0.64855279695E-01  0.34824429064E-01  0.86872733456E-01  0.88733636237E+00  0.88000000000E+00 0.  1.
        -11    1    4    4    0    0  0.28424106635E-01 -0.34218225436E-01 -0.49706719188E-01  0.66707089904E-01  0.51100000000E-03 0.  1.
         11    1    4    4    0    0  0.43533897115E-01 -0.20564313079E-01 -0.46316953122E-01  0.66810271949E-01  0.51100000000E-03 0. -1.
</event>
<event>
 8    1  0.1109553E+005  0.1043930E+01  0.7957747E-01            NaN
         13   -1    0    0    0    0  0.00000000000E+00  0.00000000000E+00  0.74505805969E-08  0.10566000000E+00  0.10566000000E+00 0.  1.
     999900   -1    0    0    0    0 -0.00000000000E+00 -0.00000000000E+00 -0.74505805969E-08  0.93827000000E+00  0.93827000000E+00 0. -1.
     999902    2    1    2    0    0 -0.20457074650E-01 -0.95736069002E-02 -0.69781822246E-02  0.10202901844E+01  0.10200162840E+01 0.  0.
     999903    2    3    3    0    0  0.24886136544E-01 -0.11375177076E+00  0.55796329778E-01  0.13076798912E+00  0.20694236358E-01 0.  0.
         14    1    1    2    0    0  0.20457074650E-01  0.95736069002E-02  0.69781822246E-02  0.23639815555E-01  0.00000000000E+00 0. -1.
     999901    1    3    3    0    0 -0.45343211194E-01  0.10417816386E+00 -0.62774512002E-01  0.88952219533E+00  0.88000000000E+00 0. -1.
        -11    1    4    4    0    0  0.13432783953E-01 -0.25120499238E-01  0.89455827117E-02  0.29862413461E-01  0.51100000000E-03 0.  1.
         11    1    4    4    0    0  0.11453352592E-01 -0.88631271518E-01  0.46850747066E-01  0.10090557565E+00  0.51100000000E-03 0. -1.
</event>
<event>
 8    1  0.1109553E+005  0.1043930E+01  0.7957747E-01            NaN
         13   -1    0    0    0    0  0.00000000000E+00  0.00000000000E+00  0.74505805969E-08  0.10566000000E+00  0.10566000000E+00 0. -1.
     999900   -1    0    0    0    0 -0.00000000000E+00 -0.00000000000E+00 -0.74505805969E-08  0.93827000000E+00  0.93827000000E+00 0. -1.
     999902    2    1    2    0    0 -0.12590104691E-01  0.16264523441E-01 -0.14530458217E-01  0.10187470757E+01  0.10184357734E+01 0.  0.
     999903    2    3    3    0    0 -0.12133528708E+00  0.47833014876E-02  0.41565806179E-01  0.13020662981E+00  0.21929850422E-01 0.  0.
         14    1    1    2    0    0  0.12590104691E-01 -0.16264523441E-01  0.14530458217E-01  0.25182924272E-01  0.00000000000E+00 0.  1.
     999901    1    3    3    0    0  0.10874518239E+00  0.11481221954E-01 -0.56096264396E-01  0.88854044592E+00  0.88000000000E+00 0. -1.
        -11    1    4    4    0    0 -0.74917492773E-01  0.64314809927E-02  0.36178418372E-01  0.83445393810E-01  0.51100000000E-03 0.  1.
         11    1    4    4    0    0 -0.46417794307E-01 -0.16481795051E-02  0.53873878073E-02  0.46761236002E-01  0.51100000000E-03 0. -1.
</event>
<event>
 8    1  0.1109553E+005  0.1043930E+01  0.7957747E-01            NaN
         13   -1    0    0    0    0  0.00000000000E+00  0.00000000000E+00  0.74505805969E-08  0.10566000000E+00  0.10566000000E+00 0.  1.
     999900   -1    0    0    0    0 -0.00000000000E+00 -0.00000000000E+00 -0.74505805969E-08  0.93827000000E+00  0.93827000000E+00 0. -1.
     999902    2    1    2    0    0 -0.55234855002E-02  0.14292281244E-01 -0.18115947281E-01  0.10202031009E+01  0.10199271549E+01 0.  0.
     999903    2    3    3    0    0 -0.10934423731E+00 -0.35727030503E-01 -0.60959424678E-01  0.13165583507E+00  0.19611846146E-01 0.  0.
         14    1    1    2    0    0  0.55234855002E-02 -0.14292281244E-01  0.18115947281E-01  0.23726899105E-01  0.00000000000E+00 0.  1.
     999901    1    3    3    0    0  0.10382075181E+00  0.50019311747E-01  0.42843477397E-01  0.88854726583E+00  0.88000000000E+00 0.  1.
        -11    1    4    4    0    0 -0.31222829695E-01 -0.49143022394E-02 -0.24993859620E-01  0.40298506181E-01  0.51100000000E-03 0.  1.
         11    1    4    4    0    0 -0.78121407613E-01 -0.30812728263E-01 -0.35965565058E-01  0.91357328887E-01  0.51100000000E-03 0. -1.
</event>
<event>
 8    1  0.1109553E+005  0.1043930E+01  0.7957747E-01            NaN
         13   -1    0    0    0    0  0.00000000000E+00  0.00000000000E+00  0.74505805969E-08  0.10566000000E+00  0.10566000000E+00 0.  1.
     999900   -1    0    0    0    0 -0.00000000000E+00 -0.00000000000E+00 -0.74505805969E-08  0.93827000000E+00  0.93827000000E+00 0.  1.
     999902    2    1    2    0    0 -0.15040580349E-01 -0.14913462930E-01  0.99297374320E-02  0.10205370498E+01  0.10202689057E+01 0.  0.
     999903    2    3    3    0    0  0.96517274628E-01  0.60661578378E-01 -0.54525759194E-01  0.12795021765E+00  0.20069588626E-01 0.  0.
         14    1    1    2    0    0  0.15040580349E-01  0.14913462930E-01 -0.99297374320E-02  0.23392950205E-01  0.00000000000E+00 0.  1.
     999901    1    3    3    0    0 -0.11155785498E+00 -0.75575041308E-01  0.64455496626E-01  0.89258683215E+00  0.88000000000E+00 0. -1.
        -11    1    4    4    0    0  0.35621266413E-01  0.27374814415E-01 -0.31337059725E-01  0.54777071100E-01  0.51100000000E-03 0.  1.
         11    1    4    4    0    0  0.60896008215E-01  0.33286763963E-01 -0.23188699469E-01  0.73173146548E-01  0.51100000000E-03 0. -1.
</event>
<event>
 8    1  0.1109553E+005  0.1043930E+01  0.7957747E-01            NaN
         13   -1    0    0    0    0  0.00000000000E+00  0.00000000000E+00  0.74505805969E-08  0.10566000000E+00  0.10566000000E+00 0. -1.
     999900   -1    0    0    0    0 -0.00000000000E+00 -0.00000000000E+00 -0.74505805969E-08  0.93827000000E+00  0.93827000000E+00 0.  1.
     999902    2    1    2    0    0 -0.76587773584E-02  0.12651552068E-01  0.24515422253E-03  0.10291388290E+01  0.10290325313E+01 0.  0.
     999903    2    3    3    0    0 -0.10683796843E+00  0.39737832392E-01  0.78423168087E-01  0.13971093397E+00  0.19377950263E-01 0.  0.
         14    1    1    2    0    0  0.76587773584E-02 -0.12651552068E-01 -0.24515422253E-03  0.14791171047E-01  0.00000000000E+00 0.  1.
     999901    1    3    3    0    0  0.99179191072E-01 -0.27086280324E-01 -0.78178013864E-01  0.88942789498E+00  0.88000000000E+00 0.  1.
        -11    1    4    4    0    0 -0.25505142204E-01  0.13264614457E-02  0.20156129467E-01  0.32539244842E-01  0.51100000000E-03 0. -1.
         11    1    4    4    0    0 -0.81332826226E-01  0.38411370946E-01  0.58267038620E-01  0.10717168913E+00  0.51100000000E-03 0.  1.
</event>
<event>
 8    1  0.1109553E+005  0.1043930E+01  0.7957747E-01            NaN
         13   -1    0    0    0    0  0.00000000000E+00  0.00000000000E+00  0.74505805969E-08  0.10566000000E+00  0.10566000000E+00 0. -1.
     999900   -1    0    0    0    0 -0.00000000000E+00 -0.00000000000E+00 -0.74505805969E-08  0.93827000000E+00  0.93827000000E+00 0. -1.
     999902    2    1    2    0    0  0.53888123463E-02 -0.14678705203E-01 -0.19959047005E-01  0.10185751732E+01  0.10182595525E+01 0.  0.
     999903    2    3    3    0    0  0.29455027042E-01 -0.40881824252E-01 -0.12051090617E+00  0.13213484101E+00  0.19945313544E-01 0.  0.
         14    1    1    2    0    0 -0.53888123463E-02  0.14678705203E-01  0.19959047005E-01  0.25354826805E-01  0.00000000000E+00 0. -1.
     999901    1    3    3    0    0 -0.24066214695E-01  0.26203119048E-01  0.10055185916E+00  0.88644033218E+00  0.88000000000E+00 0.  1.
        -11    1    4    4    0    0  0.23981093894E-01 -0.29528741491E-01 -0.10741000025E+00  0.11394827209E+00  0.51100000000E-03 0. -1.
         11    1    4    4    0    0  0.54739331478E-02 -0.11353082761E-01 -0.13100905921E-01  0.18186568925E-01  0.51100000000E-03 0.  1.
</event>
<event>
 8    1  0.1109553E+005  0.1043930E+01  0.7957747E-01            NaN
         13   -1    0    0    0    0  0.00000000000E+00  0.00000000000E+00  0.74505805969E-08  0.10566000000E+00  0.10566000000E+00 0.  1.
     999900   -1    0    0    0    0 -0.00000000000E+00 -0.00000000000E+00 -0.74505805969E-08  0.93827000000E+00  0.93827000000E+00 0. -1.
     999902    2    1    2    0    0  0.17829131177E-01  0.54309172542E-02 -0.14786966526E-01  0.10201386747E+01  0.10198612104E+01 0.  0.
     999903    2    3    3    0    0 -0.82809328550E-01  0.25135465430E-01  0.92000065928E-01  0.12777112761E+00  0.19294361919E-01 0.  0.
         14    1    1    2    0    0 -0.17829131177E-01 -0.54309172542E-02  0.14786966526E-01  0.23791325305E-01  0.00000000000E+00 0.  1.
     999901    1    3    3    0    0  0.10063845973E+00 -0.19704548175E-01 -0.10678703245E+00  0.89236754709E+00  0.88000000000E+00 0. -1.
        -11    1    4    4    0    0 -0.16482471408E-01  0.69582973185E-02  0.91695877739E-02  0.20110500397E-01  0.51100000000E-03 0. -1.
         11    1    4    4    0    0 -0.66326857143E-01  0.18177168111E-01  0.82830478154E-01  0.10766062721E+00  0.51100000000E-03 0.  1.
</event>
<event>
 8    1  0.1109553E+005  0.1043930E+01  0.7957747E-01            NaN
         13   -1    0    0    0    0  0.00000000000E+00  0.00000000000E+00  0.74505805969E-08  0.10566000000E+00  0.10566000000E+00 0.  1.
     999900   -1    0    0    0    0 -0.00000000000E+00 -0.00000000000E+00 -0.74505805969E-08  0.93827000000E+00  0.93827000000E+00 0. -1.
     999902    2    1    2    0    0  0.12566869517E-01  0.62594756378E-02 -0.18584694027E-01  0.10206384115E+01  0.10203726127E+01 0.  0.
     999903    2    3    3    0    0  0.40526998621E-01 -0.73176712788E-01 -0.10092725343E+00  0.13279147986E+00  0.21213149886E-01 0.  0.
         14    1    1    2    0    0 -0.12566869517E-01 -0.62594756378E-02  0.18584694027E-01  0.23291588541E-01  0.00000000000E+00 0.  1.
     999901    1    3    3    0    0 -0.27960129104E-01  0.79436188426E-01  0.82342559403E-01  0.88784693159E+00  0.88000000000E+00 0.  1.
        -11    1    4    4    0    0  0.41823427682E-02 -0.26565588422E-01 -0.26632298168E-01  0.37851854723E-01  0.51100000000E-03 0.  1.
         11    1    4    4    0    0  0.36344655853E-01 -0.46611124365E-01 -0.74294955262E-01  0.94939625142E-01  0.51100000000E-03 0. -1.
</event>
<event>
 8    1  0.1109553E+005  0.1043930E+01  0.7957747E-01            NaN
         13   -1    0    0    0    0  0.00000000000E+00  0.00000000000E+00  0.74505805969E-08  0.10566000000E+00  0.10566000000E+00 0. -1.
     999900   -1    0    0    0    0 -0.00000000000E+00 -0.00000000000E+00 -0.74505805969E-08  0.93827000000E+00  0.93827000000E+00 0. -1.
     999902    2    1    2    0    0 -0.49412422390E-02 -0.62398376246E-02  0.22055249614E-01  0.10204824951E+01  0.10202130843E+01 0.  0.
     999903    2    3    3    0    0 -0.10066979934E+00 -0.33586278672E-01 -0.72323369419E-01  0.12985400457E+00  0.19207970385E-01 0.  0.
         14    1    1    2    0    0  0.49412422390E-02  0.62398376246E-02 -0.22055249614E-01  0.23447504856E-01  0.00000000000E+00 0.  1.
     999901    1    3    3    0    0  0.95728557099E-01  0.27346441047E-01  0.94378619033E-01  0.89062849057E+00  0.88000000000E+00 0.  1.
        -11    1    4    4    0    0 -0.23269045883E-01  0.41646930663E-03 -0.14392856999E-01  0.27368547579E-01  0.51100000000E-03 0.  1.
         11    1    4    4    0    0 -0.77400753455E-01 -0.34002747978E-01 -0.57930512420E-01  0.10248545700E+00  0.51100000000E-03 0. -1.
</event>
<event>
 8    1  0.1109553E+005  0.1043930E+01  0.7957747E-01            NaN
         13   -1    0    0    0    0  0.00000000000E+00  0.00000000000E+00  0.74505805969E-08  0.10566000000E+00  0.10566000000E+00 0.  1.
     999900   -1    0    0    0    0 -0.00000000000E+00 -0.00000000000E+00 -0.74505805969E-08  0.93827000000E+00  0.93827000000E+00 0.  1.
     999902    2    1    2    0    0 -0.30592155310E-02  0.11183445834E-01 -0.26316892027E-01  0.10151722695E+01  0.10147648642E+01 0.  0.
     999903    2    3    3    0    0 -0.58285662492E-01 -0.48503449802E-01  0.95463139513E-01  0.12307201610E+00  0.16843605474E-01 0.  0.
         14    1    1    2    0    0  0.30592155310E-02 -0.11183445834E-01  0.26316892027E-01  0.28757730549E-01  0.00000000000E+00 0.  1.
     999901    1    3    3    0    0  0.55226446961E-01  0.59686895636E-01 -0.12178003154E+00  0.89210025336E+00  0.88000000000E+00 0.  1.
        -11    1    4    4    0    0 -0.32951172452E-01 -0.16530638340E-01  0.44312528708E-01  0.57644627602E-01  0.51100000000E-03 0. -1.
         11    1    4    4    0    0 -0.25334490040E-01 -0.31972811462E-01  0.51150610805E-01  0.65427388494E-01  0.51100000000E-03 0.  1.
</event>
<event>
 8    1  0.1109553E+005  0.1043930E+01  0.7957747E-01            NaN
         13   -1    0    0    0    0  0.00000000000E+00  0.00000000000E+00  0.74505805969E-08  0.10566000000E+00  0.10566000000E+00 0.  1.
     999900   -1    0    0    0    0 -0.00000000000E+00 -0.00000000000E+00 -0.74505805969E-08  0.93827000000E+00  0.93827000000E+00 0.  1.
     999902    2    1    2    0    0  0.18680519103E-02  0.66653152512E-02  0.22581945520E-01  0.10203109334E+01  0.10200375191E+01 0.  0.
     999903    2    3    3    0    0 -0.21454806548E-01 -0.78756147423E-01 -0.96632238147E-01  0.12786888841E+00  0.18703574341E-01 0.  0.
         14    1    1    2    0    0 -0.18680519103E-02 -0.66653152512E-02 -0.22581945520E-01  0.23619066637E-01  0.00000000000E+00 0. -1.
     999901    1    3    3    0    0  0.23322858458E-01  0.85421462674E-01  0.11921418367E+00  0.89244204495E+00  0.88000000000E+00 0. -1.
        -11    1    4    4    0    0 -0.15700776543E-02 -0.17385001128E-01 -0.32540214228E-01  0.36930070011E-01  0.51100000000E-03 0.  1.
         11    1    4    4    0    0 -0.19884728894E-01 -0.61371146295E-01 -0.64092023919E-01  0.90938818399E-01  0.51100000000E-03 0. -1.
</event>
<event>
 8    1  0.1109553E+005  0.1043930E+01  0.7957747E-01            NaN
         13   -1    0    0    0    0  0.00000000000E+00  0.00000000000E+00  0.74505805969E-08  0.10566000000E+00  0.10566000000E+00 0.  1.
     999900   -1    0    0    0    0 -0.00000000000E+00 -0.00000000000E+00 -0.74505805969E-08  0.93827000000E+00  0.93827000000E+00 0. -1.
     999902    2    1    2    0    0  0.66523962894E-02  0.29022035376E-01  0.80643613345E-02  0.10130825230E+01  0.10126127747E+01 0.  0.
     999903    2    3    3    0    0  0.15324350475E-01 -0.10727156349E+00 -0.49361441752E-01  0.12069870942E+00  0.19738350268E-01 0.  0.
         14    1    1    2    0    0 -0.66523962894E-02 -0.29022035376E-01 -0.80643613345E-02  0.30847477004E-01  0.00000000000E+00 0. -1.
     999901    1    3    3    0    0 -0.86719541859E-02  0.13629359887E+00  0.57425803087E-01  0.89238381358E+00  0.88000000000E+00 0.  1.
        -11    1    4    4    0    0 -0.17957146552E-02 -0.14875808948E-01 -0.13317787579E-01  0.20053400459E-01  0.51100000000E-03 0.  1.
         11    1    4    4    0    0  0.17120065130E-01 -0.92395754543E-01 -0.36043654173E-01  0.10064530896E+00  0.51100000000E-03 0. -1.
</event>
<event>
 8    1  0.1109553E+005  0.1043930E+01  0.7957747E-01            NaN
         13   -1    0    0    0    0  0.00000000000E+00  0.00000000000E+00  0.74505805969E-08  0.10566000000E+00  0.10566000000E+00 0.  1.
     999900   -1    0    0    0    0 -0.00000000000E+00 -0.00000000000E+00 -0.74505805969E-08  0.93827000000E+00  0.93827000000E+00 0. -1.
     999902    2    1    2    0    0  0.20443420022E-01  0.11726542597E-01  0.99296952933E-02  0.10183557146E+01  0.10180345365E+01 0.  0.
     999903    2    3    3    0    0 -0.52437205876E-01  0.11469472270E+00  0.21282065300E-01  0.12928715257E+00  0.18912999228E-01 0.  0.
         14    1    1    2    0    0 -0.20443420022E-01 -0.11726542597E-01 -0.99296952933E-02  0.25574285368E-01  0.00000000000E+00 0.  1.
     999901    1    3    3    0    0  0.72880625897E-01 -0.10296818011E+00 -0.11352370007E-01  0.88906856206E+00  0.88000000000E+00 0. -1.
        -11    1    4    4    0    0 -0.53061515515E-02  0.29468774735E-01  0.79770034445E-02  0.30991250920E-01  0.51100000000E-03 0.  1.
         11    1    4    4    0    0 -0.47131054324E-01  0.85225947968E-01  0.13305061855E-01  0.98295901648E-01  0.51100000000E-03 0. -1.
</event>
<event>
 8    1  0.1109553E+005  0.1043930E+01  0.7957747E-01            NaN
         13   -1    0    0    0    0  0.00000000000E+00  0.00000000000E+00  0.74505805969E-08  0.10566000000E+00  0.10566000000E+00 0.  1.
     999900   -1    0    0    0    0 -0.00000000000E+00 -0.00000000000E+00 -0.74505805969E-08  0.93827000000E+00  0.93827000000E+00 0. -1.
     999902    2    1    2    0    0  0.16032266149E-01 -0.50400012255E-02  0.15495050819E-01  0.10210710462E+01  0.10208151398E+01 0.  0.
     999903    2    3    3    0    0 -0.77187942264E-01  0.76537447840E-01 -0.66073473007E-01  0.12865953149E+00  0.19277236730E-01 0.  0.
         14    1    1    2    0    0 -0.16032266149E-01  0.50400012255E-02 -0.15495050819E-01  0.22858953827E-01  0.00000000000E+00 0. -1.
     999901    1    3    3    0    0  0.93220208413E-01 -0.81577449066E-01  0.81568523826E-01  0.89241151468E+00  0.88000000000E+00 0.  1.
        -11    1    4    4    0    0 -0.57708287282E-02  0.34987301089E-02 -0.10152322622E-01  0.12201407796E-01  0.51100000000E-03 0. -1.
         11    1    4    4    0    0 -0.71417113536E-01  0.73038717731E-01 -0.55921150385E-01  0.11645812370E+00  0.51100000000E-03 0.  1.
</event>
<event>
 8    1  0.1109553E+005  0.1043930E+01  0.7957747E-01            NaN
         13   -1    0    0    0    0  0.00000000000E+00  0.00000000000E+00  0.74505805969E-08  0.10566000000E+00  0.10566000000E+00 0. -1.
     999900   -1    0    0    0    0 -0.00000000000E+00 -0.00000000000E+00 -0.74505805969E-08  0.93827000000E+00  0.93827000000E+00 0.  1.
     999902    2    1    2    0    0 -0.10645471528E-01 -0.15534247810E-01 -0.67439929480E-02  0.10239269912E+01  0.10237315874E+01 0.  0.
     999903    2    3    3    0    0 -0.10183260971E+00 -0.41704961807E-01 -0.77117197518E-01  0.13603488722E+00  0.21195380360E-01 0.  0.
         14    1    1    2    0    0  0.10645471528E-01  0.15534247810E-01  0.67439929480E-02  0.20003008772E-01  0.00000000000E+00 0.  1.
     999901    1    3    3    0    0  0.91187138179E-01  0.26170713997E-01  0.70373204570E-01  0.88789210401E+00  0.88000000000E+00 0. -1.
        -11    1    4    4    0    0 -0.54396797876E-01 -0.20292569328E-01 -0.53227310064E-01  0.78766792792E-01  0.51100000000E-03 0.  1.
         11    1    4    4    0    0 -0.47435811830E-01 -0.21412392479E-01 -0.23889887454E-01  0.57268094427E-01  0.51100000000E-03 0. -1.
</event>
<event>
 8    1  0.1112166E+005  0.1043930E+01  0.7957747E-01            NaN
         13   -1    0    0    0    0  0.00000000000E+00  0.00000000000E+00  0.74505805969E-08  0.10566000000E+00  0.10566000000E+00 0. -1.
     999900   -1    0    0    0    0 -0.00000000000E+00 -0.00000000000E+00 -0.74505805969E-08  0.93827000000E+00  0.93827000000E+00 0.  1.
     999902    2    1    2    0    0 -0.15824143746E-01 -0.17804335698E-02 -0.17346661946E-01  0.10203825978E+01  0.10201108596E+01 0.  0.
     999903    2    3    3    0    0  0.29044922575E-02 -0.12033519760E-01 -0.13080309644E+00  0.13284203530E+00  0.19603944272E-01 0.  0.
         14    1    1    2    0    0  0.15824143746E-01  0.17804335698E-02  0.17346661946E-01  0.23547402185E-01  0.00000000000E+00 0. -1.
     999901    1    3    3    0    0 -0.18728636004E-01  0.10253086190E-01  0.11345643449E+00  0.88754056252E+00  0.88000000000E+00 0. -1.
        -11    1    4    4    0    0  0.83282474514E-03  0.49418737392E-02 -0.49659538834E-01  0.49914393028E-01  0.51100000000E-03 0. -1.
         11    1    4    4    0    0  0.20716675123E-02 -0.16975393499E-01 -0.81143557606E-01  0.82927642271E-01  0.51100000000E-03 0.  1.
</event>
<event>
 8    1  0.1109553E+005  0.1043930E+01  0.7957747E-01            NaN
         13   -1    0    0    0    0  0.00000000000E+00  0.00000000000E+00  0.74505805969E-08  0.10566000000E+00  0.10566000000E+00 0. -1.
     999900   -1    0    0    0    0 -0.00000000000E+00 -0.00000000000E+00 -0.74505805969E-08  0.93827000000E+00  0.93827000000E+00 0. -1.
     999902    2    1    2    0    0 -0.20664911017E-01 -0.11702668362E-01 -0.38053280913E-02  0.10198785652E+01  0.10195949275E+01 0.  0.
     999903    2    3    3    0    0 -0.57841123039E-01  0.47071774002E-01 -0.10624378494E+00  0.13121094271E+00  0.19163043277E-01 0.  0.
         14    1    1    2    0    0  0.20664911017E-01  0.11702668362E-01  0.38053280913E-02  0.24051434801E-01  0.00000000000E+00 0.  1.
     999901    1    3    3    0    0  0.37176212022E-01 -0.58774442365E-01  0.10243845684E+00  0.88866762249E+00  0.88000000000E+00 0.  1.
        -11    1    4    4    0    0 -0.11661041804E-01  0.33068067375E-02 -0.94493451602E-02  0.15377454656E-01  0.51100000000E-03 0.  1.
         11    1    4    4    0    0 -0.46180081235E-01  0.43764967265E-01 -0.96794439776E-01  0.11583348806E+00  0.51100000000E-03 0. -1.
</event>
<event>
 8    1  0.1109553E+005  0.1043930E+01  0.7957747E-01            NaN
         13   -1    0    0    0    0  0.00000000000E+00  0.00000000000E+00  0.74505805969E-08  0.10566000000E+00  0.10566000000E+00 0. -1.
     999900   -1    0    0    0    0 -0.00000000000E+00 -0.00000000000E+00 -0.74505805969E-08  0.93827000000E+00  0.93827000000E+00 0.  1.
     999902    2    1    2    0    0 -0.98917372599E-02  0.26127368212E-02 -0.22131893635E-01  0.10195477611E+01  0.10192561717E+01 0.  0.
     999903    2    3    3    0    0 -0.56843441037E-01 -0.50225634797E-01 -0.10698318381E+00  0.13264523122E+00  0.19888805075E-01 0.  0.
         14    1    1    2    0    0  0.98917372599E-02 -0.26127368212E-02  0.22131893635E-01  0.24382238937E-01  0.00000000000E+00 0. -1.
     999901    1    3    3    0    0  0.46951703777E-01  0.52838371619E-01  0.84851290172E-01  0.88690252985E+00  0.88000000000E+00 0. -1.
        -11    1    4    4    0    0 -0.16782416834E-01 -0.20747600991E-01 -0.23986181236E-01  0.35884682985E-01  0.51100000000E-03 0. -1.
         11    1    4    4    0    0 -0.40061024203E-01 -0.29478033807E-01 -0.82997002571E-01  0.96760548231E-01  0.51100000000E-03 0.  1.
</event>
<event>
 8    1  0.1109553E+005  0.1043930E+01  0.7957747E-01            NaN
         13   -1    0    0    0    0  0.00000000000E+00  0.00000000000E+00  0.74505805969E-08  0.10566000000E+00  0.10566000000E+00 0. -1.
     999900   -1    0    0    0    0 -0.00000000000E+00 -0.00000000000E+00 -0.74505805969E-08  0.93827000000E+00  0.93827000000E+00 0.  1.
     999902    2    1    2    0    0 -0.22138930767E-01 -0.68955897380E-02 -0.48557029138E-02  0.10202390890E+01  0.10199639893E+01 0.  0.
     999903    2    3    3    0    0  0.88296595672E-01 -0.85370751668E-01 -0.35287512811E-01  0.12935163730E+00  0.20054512306E-01 0.  0.
         14    1    1    2    0    0  0.22138930767E-01  0.68955897380E-02  0.48557029138E-02  0.23690911003E-01  0.00000000000E+00 0. -1.
     999901    1    3    3    0    0 -0.11043552644E+00  0.78475161930E-01  0.30431809898E-01  0.89088745170E+00  0.88000000000E+00 0. -1.
        -11    1    4    4    0    0  0.17560171728E-01 -0.19483340552E-01 -0.16147465776E-01  0.30805226215E-01  0.51100000000E-03 0. -1.
         11    1    4    4    0    0  0.70736423944E-01 -0.65887411116E-01 -0.19140047036E-01  0.98546411083E-01  0.51100000000E-03 0.  1.
</event>
<event>
 8    1  0.1109553E+005  0.1043930E+01  0.7957747E-01            NaN
         13   -1    0    0    0    0  0.00000000000E+00  0.00000000000E+00  0.74505805969E-08  0.10566000000E+00  0.10566000000E+00 0. -1.
     999900   -1    0    0    0    0 -0.00000000000E+00 -0.00000000000E+00 -0.74505805969E-08  0.93827000000E+00  0.93827000000E+00 0.  1.
     999902    2    1    2    0    0 -0.21013253316E-01 -0.32053116536E-02  0.97262945729E-02  0.10205541226E+01  0.10202863743E+01 0.  0.
     999903    2    3    3    0    0 -0.12050277877E+00 -0.36820994907E-01 -0.37914240350E-01  0.13303071424E+00  0.19569771416E-01 0.  0.
         14    1    1    2    0    0  0.21013253316E-01  0.32053116536E-02 -0.97262945729E-02  0.23375877391E-01  0.00000000000E+00 0.  1.
     999901    1    3    3    0    0  0.99489525451E-01  0.33615683254E-01  0.47640534923E-01  0.88752340837E+00  0.88000000000E+00 0.  1.
        -11    1    4    4    0    0 -0.71437438050E-01 -0.30994787309E-01 -0.27052097870E-01  0.82438228485E-01  0.51100000000E-03 0.  1.
         11    1    4    4    0    0 -0.49065340717E-01 -0.58262075983E-02 -0.10862142480E-01  0.50592485755E-01  0.51100000000E-03 0. -1.
</event>
<event>
 8    1  0.1109553E+005  0.1043930E+01  0.7957747E-01            NaN
         13   -1    0    0    0    0  0.00000000000E+00  0.00000000000E+00  0.74505805969E-08  0.10566000000E+00  0.10566000000E+00 0.  1.
     999900   -1    0    0    0    0 -0.00000000000E+00 -0.00000000000E+00 -0.74505805969E-08  0.93827000000E+00  0.93827000000E+00 0.  1.
     999902    2    1    2    0    0  0.12966514792E-01  0.14793032918E-01  0.14474550055E-01  0.10195071229E+01  0.10192145489E+01 0.  0.
     999903    2    3    3    0    0 -0.35514612265E-01  0.12328644834E+00  0.19521985957E-01  0.13150559274E+00  0.21255045474E-01 0.  0.
         14    1    1    2    0    0 -0.12966514792E-01 -0.14793032918E-01 -0.14474550055E-01  0.24422877145E-01  0.00000000000E+00 0. -1.
     999901    1    3    3    0    0  0.48481127057E-01 -0.10849341542E+00 -0.50474359018E-02  0.88800153011E+00  0.88000000000E+00 0. -1.
        -11    1    4    4    0    0 -0.17847381722E-01  0.60328701159E-01  0.20300164010E-01  0.66109295849E-01  0.51100000000E-03 0. -1.
         11    1    4    4    0    0 -0.17667230543E-01  0.62957747183E-01 -0.77817805340E-03  0.65396296894E-01  0.51100000000E-03 0.  1.
</event>
<event>
 8    1  0.1109553E+005  0.1043930E+01  0.7957747E-01            NaN
         13   -1    0    0    0    0  0.00000000000E+00  0.00000000000E+00  0.74505805969E-08  0.10566000000E+00  0.10566000000E+00 0.  1.
     999900   -1    0    0    0    0 -0.00000000000E+00 -0.00000000000E+00 -0.74505805969E-08  0.93827000000E+00  0.93827000000E+00 0. -1.
     999902    2    1    2    0    0 -0.16606605742E-01  0.12308127722E-01  0.86253660129E-02  0.10215320916E+01  0.10212865160E+01 0.  0.
     999903    2    3    3    0    0  0.96797937284E-01 -0.82710384843E-01  0.84484149181E-02  0.12918174592E+00  0.20141979556E-01 0.  0.
         14    1    1    2    0    0  0.16606605742E-01 -0.12308127722E-01 -0.86253660129E-02  0.22397908410E-01  0.00000000000E+00 0. -1.
     999901    1    3    3    0    0 -0.11340454303E+00  0.95018512565E-01  0.17695109481E-03  0.89235034567E+00  0.88000000000E+00 0. -1.
        -11    1    4    4    0    0  0.25288353747E-01 -0.33801597543E-01  0.44726871945E-02  0.42453679269E-01  0.51100000000E-03 0.  1.
         11    1    4    4    0    0  0.71509583537E-01 -0.48908787300E-01  0.39757277237E-02  0.86728066650E-01  0.51100000000E-03 0. -1.
</event>
<event>
 8    1  0.1109553E+005  0.1043930E+01  0.7957747E-01            NaN
         13   -1    0    0    0    0  0.00000000000E+00  0.00000000000E+00  0.74505805969E-08  0.10566000000E+00  0.10566000000E+00 0.  1.
     999900   -1    0    0    0    0 -0.00000000000E+00 -0.00000000000E+00 -0.74505805969E-08  0.93827000000E+00  0.93827000000E+00 0. -1.
     999902    2    1    2    0    0 -0.13840472824E-01 -0.91917503835E-02  0.13950074999E-01  0.10222354948E+01  0.10220052619E+01 0.  0.
     999903    2    3    3    0    0 -0.14675885396E-01 -0.92622084642E-01 -0.91549055009E-01  0.13201564274E+00  0.15895542720E-01 0.  0.
         14    1    1    2    0    0  0.13840472824E-01  0.91917503835E-02 -0.13950074999E-01  0.21694505193E-01  0.00000000000E+00 0. -1.
     999901    1    3    3    0    0  0.83541257250E-03  0.83430334259E-01  0.10549913001E+00  0.89021985207E+00  0.88000000000E+00 0.  1.
        -11    1    4    4    0    0 -0.87826658144E-02 -0.31034146447E-01 -0.22658100047E-01  0.39419590094E-01  0.51100000000E-03 0. -1.
         11    1    4    4    0    0 -0.58932195816E-02 -0.61587938196E-01 -0.68890954962E-01  0.92596052642E-01  0.51100000000E-03 0.  1.
</event>
<event>
 8    1  0.1109553E+005  0.1043930E+01  0.7957747E-01            NaN
         13   -1    0    0    0    0  0.00000000000E+00  0.00000000000E+00  0.74505805969E-08  0.10566000000E+00  0.10566000000E+00 0.  1.
     999900   -1    0    0    0    0 -0.00000000000E+00 -0.00000000000E+00 -0.74505805969E-08  0.93827000000E+00  0.93827000000E+00 0.  1.
     999902    2    1    2    0    0  0.22505969158E-01  0.65192206867E-02  0.18770562929E-03  0.10204980961E+01  0.10202290478E+01 0.  0.
     999903    2    3    3    0    0  0.98688846539E-01 -0.14299345630E-01  0.85349265219E-01  0.13286656517E+00  0.20617161511E-01 0.  0.
         14    1    1    2    0    0 -0.22505969158E-01 -0.65192206867E-02 -0.18770562929E-03  0.23431903882E-01  0.00000000000E+00 0.  1.
     999901    1    3    3    0    0 -0.76182877381E-01  0.20818566317E-01 -0.85161559590E-01  0.88763153095E+00  0.88000000000E+00 0.  1.
        -11    1    4    4    0    0  0.46332513391E-01 -0.20039215263E-02  0.51560923999E-01  0.69350612854E-01  0.51100000000E-03 0.  1.
         11    1    4    4    0    0  0.52356333148E-01 -0.12295424104E-01  0.33788341220E-01  0.63515952311E-01  0.51100000000E-03 0. -1.
</event>
<event>
 8    1  0.1109553E+005  0.1043930E+01  0.7957747E-01            NaN
         13   -1    0    0    0    0  0.00000000000E+00  0.00000000000E+00  0.74505805969E-08  0.10566000000E+00  0.10566000000E+00 0. -1.
     999900   -1    0    0    0    0 -0.00000000000E+00 -0.00000000000E+00 -0.74505805969E-08  0.93827000000E+00  0.93827000000E+00 0. -1.
     999902    2    1    2    0    0  0.15464945447E-01  0.91161548622E-02  0.15998588425E-01  0.10198837186E+01  0.10196002039E+01 0.  0.
     999903    2    3    3    0    0  0.20786678162E-01 -0.11932838380E+00  0.43191033042E-01  0.13012771307E+00  0.19909977503E-01 0.  0.
         14    1    1    2    0    0 -0.15464945447E-01 -0.91161548622E-02 -0.15998588425E-01  0.24046281391E-01  0.00000000000E+00 0.  1.
     999901    1    3    3    0    0 -0.53217327154E-02  0.12844453866E+00 -0.27192444616E-01  0.88975600554E+00  0.88000000000E+00 0. -1.
        -11    1    4    4    0    0  0.89644733024E-02 -0.42242442781E-01  0.25516453088E-01  0.50161102987E-01  0.51100000000E-03 0.  1.
         11    1    4    4    0    0  0.11822204860E-01 -0.77085941018E-01  0.17674579954E-01  0.79966610081E-01  0.51100000000E-03 0. -1.
</event>
<event>
 8    1  0.1109553E+005  0.1043930E+01  0.7957747E-01            NaN
         13   -1    0    0    0    0  0.00000000000E+00  0.00000000000E+00  0.74505805969E-08  0.10566000000E+00  0.10566000000E+00 0. -1.
     999900   -1    0    0    0    0 -0.00000000000E+00 -0.00000000000E+00 -0.74505805969E-08  0.93827000000E+00  0.93827000000E+00 0. -1.
     999902    2    1    2    0    0  0.13618176407E-01  0.24195674264E-01  0.75745679137E-02  0.10151505028E+01  0.10147424717E+01 0.  0.
     999903    2    3    3    0    0 -0.48890511804E-01  0.35693672547E-01 -0.10795860169E+00  0.12532610810E+00  0.19678752245E-01 0.  0.
         14    1    1    2    0    0 -0.13618176407E-01 -0.24195674264E-01 -0.75745679137E-02  0.28779497231E-01  0.00000000000E+00 0.  1.
     999901    1    3    3    0    0  0.62508688211E-01 -0.11497998282E-01  0.11553316960E+00  0.88982439467E+00  0.88000000000E+00 0.  1.
        -11    1    4    4    0    0 -0.77231317921E-02  0.81005619355E-03 -0.26470563984E-01  0.27590846931E-01  0.51100000000E-03 0. -1.
         11    1    4    4    0    0 -0.41167380012E-01  0.34883616353E-01 -0.81488037701E-01  0.97735261172E-01  0.51100000000E-03 0.  1.
</event>
<event>
 8    1  0.1109553E+005  0.1043930E+01  0.7957747E-01            NaN
         13   -1    0    0    0    0  0.00000000000E+00  0.00000000000E+00  0.74505805969E-08  0.10566000000E+00  0.10566000000E+00 0. -1.
     999900   -1    0    0    0    0 -0.00000000000E+00 -0.00000000000E+00 -0.74505805969E-08  0.93827000000E+00  0.93827000000E+00 0.  1.
     999902    2    1    2    0    0 -0.11694578255E-01  0.98151612783E-03 -0.21035923543E-01  0.10198418989E+01  0.10195573854E+01 0.  0.
     999903    2    3    3    0    0 -0.43416968267E-01  0.25687863992E-02 -0.12420742717E+00  0.13324549208E+00  0.20862511780E-01 0.  0.
         14    1    1    2    0    0  0.11694578255E-01 -0.98151612783E-03  0.21035923543E-01  0.24088101083E-01  0.00000000000E+00 0. -1.
     999901    1    3    3    0    0  0.31722390012E-01 -0.15872702713E-02  0.10317150363E+00  0.88659640684E+00  0.88000000000E+00 0. -1.
        -11    1    4    4    0    0  0.19460785016E-02 -0.62929156313E-03 -0.11795403304E-01  0.11982315699E-01  0.51100000000E-03 0.  1.
         11    1    4    4    0    0 -0.45363046769E-01  0.31980779623E-02 -0.11241202387E+00  0.12126317638E+00  0.51100000000E-03 0. -1.
</event>
<event>
 8    1  0.1109553E+005  0.1043930E+01  0.7957747E-01            NaN
         13   -1    0    0    0    0  0.00000000000E+00  0.00000000000E+00  0.74505805969E-08  0.10566000000E+00  0.10566000000E+00 0.  1.
     999900   -1    0    0    0    0 -0.00000000000E+00 -0.00000000000E+00 -0.74505805969E-08  0.93827000000E+00  0.93827000000E+00 0. -1.
     999902    2    1    2    0    0 -0.15990666953E-01  0.90945124278E-03  0.76209830561E-02  0.10261928099E+01  0.10260395095E+01 0.  0.
     999903    2    3    3    0    0  0.10854869005E+00  0.18593940928E-01  0.74928896037E-01  0.13470352346E+00  0.20053603689E-01 0.  0.
         14    1    1    2    0    0  0.15990666953E-01 -0.90945124278E-03 -0.76209830561E-02  0.17737190136E-01  0.00000000000E+00 0. -1.
     999901    1    3    3    0    0 -0.12453935700E+00 -0.17684489685E-01 -0.67307912981E-01  0.89148928640E+00  0.88000000000E+00 0. -1.
        -11    1    4    4    0    0  0.67150594994E-01  0.31532678484E-02  0.38749731209E-01  0.77594769772E-01  0.51100000000E-03 0.  1.
         11    1    4    4    0    0  0.41398095058E-01  0.15440673079E-01  0.36179164827E-01  0.57108753691E-01  0.51100000000E-03 0. -1.
</event>
<event>
 8    1  0.1109553E+005  0.1043930E+01  0.7957747E-01            NaN
         13   -1    0    0    0    0  0.00000000000E+00  0.00000000000E+00  0.74505805969E-08  0.10566000000E+00  0.10566000000E+00 0.  1.
     999900   -1    0    0    0    0 -0.00000000000E+00 -0.00000000000E+00 -0.74505805969E-08  0.93827000000E+00  0.93827000000E+00 0. -1.
     999902    2    1    2    0    0 -0.15735080401E-01 -0.16661505388E-01 -0.33338265084E-02  0.10207715692E+01  0.10205088356E+01 0.  0.
     999903    2    3    3    0    0  0.11566436224E+00 -0.56038786590E-01 -0.54082038726E-02  0.13014219241E+00  0.19726917678E-01 0.  0.
         14    1    1    2    0    0  0.15735080401E-01  0.16661505388E-01  0.33338265084E-02  0.23158430781E-01  0.00000000000E+00 0.  1.
     999901    1    3    3    0    0 -0.13139944264E+00  0.39377281202E-01  0.20743773642E-02  0.89062937681E+00  0.88000000000E+00 0.  1.
        -11    1    4    4    0    0  0.55304489534E-01 -0.32867251572E-01 -0.10899753649E-01  0.65252651587E-01  0.51100000000E-03 0. -1.
         11    1    4    4    0    0  0.60359872703E-01 -0.23171535018E-01  0.54915497768E-02  0.64889540820E-01  0.51100000000E-03 0.  1.
</event>
<event>
 8    1  0.1109553E+005  0.1043930E+01  0.7957747E-01            NaN
         13   -1    0    0    0    0  0.00000000000E+00  0.00000000000E+00  0.74505805969E-08  0.10566000000E+00  0.10566000000E+00 0.  1.
     999900   -1    0    0    0    0 -0.00000000000E+00 -0.00000000000E+00 -0.74505805969E-08  0.93827000000E+00  0.93827000000E+00 0.  1.
     999902    2    1    2    0    0  0.11513456654E-01 -0.21795594809E-01  0.59917899115E-02  0.10185625172E+01  0.10182465773E+01 0.  0.
     999903    2    3    3    0    0  0.78682862612E-01  0.91783452866E-01 -0.37638819616E-01  0.12765536196E+00  0.16248557069E-01 0.  0.
         14    1    1    2    0    0 -0.11513456654E-01  0.21795594809E-01 -0.59917899115E-02  0.25367482799E-01  0.00000000000E+00 0. -1.
     999901    1    3    3    0    0 -0.67169405958E-01 -0.11357904768E+00  0.43630609527E-01  0.89090715524E+00  0.88000000000E+00 0.  1.
        -11    1    4    4    0    0  0.21418631348E-01  0.22538464090E-01 -0.25888410980E-02  0.31204220093E-01  0.51100000000E-03 0.  1.
         11    1    4    4    0    0  0.57264231264E-01  0.69244988776E-01 -0.35049978518E-01  0.96451141869E-01  0.51100000000E-03 0. -1.
</event>
<event>
 8    1  0.1109553E+005  0.1043930E+01  0.7957747E-01            NaN
         13   -1    0    0    0    0  0.00000000000E+00  0.00000000000E+00  0.74505805969E-08  0.10566000000E+00  0.10566000000E+00 0.  1.
     999900   -1    0    0    0    0 -0.00000000000E+00 -0.00000000000E+00 -0.74505805969E-08  0.93827000000E+00  0.93827000000E+00 0. -1.
     999902    2    1    2    0    0  0.31592575765E-02 -0.15972795240E-01  0.16778250020E-01  0.10205500776E+01  0.10202822356E+01 0.  0.
     999903    2    3    3    0    0  0.50974782103E-01  0.11585799753E+00 -0.14032859398E-01  0.12891393728E+00  0.20009449769E-01 0.  0.
         14    1    1    2    0    0 -0.31592575765E-02  0.15972795240E-01 -0.16778250020E-01  0.23379922369E-01  0.00000000000E+00 0. -1.
     999901    1    3    3    0    0 -0.47815524527E-01 -0.13183079278E+00  0.30811109418E-01  0.89163614035E+00  0.88000000000E+00 0.  1.
        -11    1    4    4    0    0  0.23977930986E-01  0.43080539712E-01  0.31599535398E-02  0.49407696806E-01  0.51100000000E-03 0.  1.
         11    1    4    4    0    0  0.26996851117E-01  0.72777457822E-01 -0.17192812937E-01  0.79506240479E-01  0.51100000000E-03 0. -1.
</event>
<event>
 8    1  0.1109553E+005  0.1043930E+01  0.7957747E-01            NaN
         13   -1    0    0    0    0  0.00000000000E+00  0.00000000000E+00  0.74505805969E-08  0.10566000000E+00  0.10566000000E+00 0.  1.
     999900   -1    0    0    0    0 -0.00000000000E+00 -0.00000000000E+00 -0.74505805969E-08  0.93827000000E+00  0.93827000000E+00 0.  1.
     999902    2    1    2    0    0 -0.94238943334E-02 -0.19879077017E-01  0.78346641070E-02  0.10205768535E+01  0.10203096317E+01 0.  0.
     999903    2    3    3    0    0  0.97527202420E-01  0.50955857215E-01 -0.63325216239E-01  0.12843344940E+00  0.19416830732E-01 0.  0.
         14    1    1    2    0    0  0.94238943334E-02  0.19879077017E-01 -0.78346641070E-02  0.23353146450E-01  0.00000000000E+00 0.  1.
     999901    1    3    3    0    0 -0.10695109675E+00 -0.70834934232E-01  0.71159880346E-01  0.89214340415E+00  0.88000000000E+00 0. -1.
        -11    1    4    4    0    0  0.24910050963E-01  0.22081837234E-01 -0.14710313542E-01  0.36397426010E-01  0.51100000000E-03 0.  1.
         11    1    4    4    0    0  0.72617151457E-01  0.28874019981E-01 -0.48614902697E-01  0.92036023386E-01  0.51100000000E-03 0. -1.
</event>
<event>
 8    1  0.1109553E+005  0.1043930E+01  0.7957747E-01            NaN
         13   -1    0    0    0    0  0.00000000000E+00  0.00000000000E+00  0.74505805969E-08  0.10566000000E+00  0.10566000000E+00 0. -1.
     999900   -1    0    0    0    0 -0.00000000000E+00 -0.00000000000E+00 -0.74505805969E-08  0.93827000000E+00  0.93827000000E+00 0. -1.
     999902    2    1    2    0    0  0.18379306187E-01  0.36050675721E-02  0.95036411799E-02  0.10229272715E+01  0.10227116349E+01 0.  0.
     999903    2    3    3    0    0  0.35784762463E-01 -0.47467549590E-01 -0.11648929171E+00  0.13231760322E+00  0.20111577514E-01 0.  0.
         14    1    1    2    0    0 -0.18379306187E-01 -0.36050675721E-02 -0.95036411799E-02  0.21002728485E-01  0.00000000000E+00 0.  1.
     999901    1    3    3    0    0 -0.17405456275E-01  0.51072617162E-01  0.12599293289E+00  0.89060966830E+00  0.88000000000E+00 0.  1.
        -11    1    4    4    0    0  0.12354642819E-01 -0.32081733980E-01 -0.57282625244E-01  0.66808944986E-01  0.51100000000E-03 0. -1.
         11    1    4    4    0    0  0.23430119644E-01 -0.15385815610E-01 -0.59206666462E-01  0.65508658230E-01  0.51100000000E-03 0.  1.
</event>
<event>
 8    1  0.1109553E+005  0.1043930E+01  0.7957747E-01            NaN
         13   -1    0    0    0    0  0.00000000000E+00  0.00000000000E+00  0.74505805969E-08  0.10566000000E+00  0.10566000000E+00 0. -1.
     999900   -1    0    0    0    0 -0.00000000000E+00 -0.00000000000E+00 -0.74505805969E-08  0.93827000000E+00  0.93827000000E+00 0.  1.
     999902    2    1    2    0    0 -0.11266453563E-02 -0.22943547876E-01  0.56354327449E-02  0.10202776466E+01  0.10200034521E+01 0.  0.
     999903    2    3    3    0    0 -0.81494019958E-01 -0.92215591701E-01 -0.44861349246E-01  0.13246716235E+00  0.19748868427E-01 0.  0.
         14    1    1    2    0    0  0.11266453563E-02  0.22943547876E-01 -0.56354327449E-02  0.23652353395E-01  0.00000000000E+00 0. -1.
     999901    1    3    3    0    0  0.80367374601E-01  0.69272043824E-01  0.50496781991E-01  0.88781048425E+00  0.88000000000E+00 0. -1.
        -11    1    4    4    0    0 -0.51006939234E-01 -0.68939452207E-01 -0.25333863521E-01  0.89422713459E-01  0.51100000000E-03 0. -1.
         11    1    4    4    0    0 -0.30487080724E-01 -0.23276139494E-01 -0.19527485725E-01  0.43044448894E-01  0.51100000000E-03 0.  1.
</event>
<event>
 8    1  0.1109553E+005  0.1043930E+01  0.7957747E-01            NaN
         13   -1    0    0    0    0  0.00000000000E+00  0.00000000000E+00  0.74505805969E-08  0.10566000000E+00  0.10566000000E+00 0.  1.
     999900   -1    0    0    0    0 -0.00000000000E+00 -0.00000000000E+00 -0.74505805969E-08  0.93827000000E+00  0.93827000000E+00 0. -1.
     999902    2    1    2    0    0 -0.91240314717E-02  0.17309973178E-01  0.13495405738E-01  0.10201600800E+01  0.10198831206E+01 0.  0.
     999903    2    3    3    0    0  0.88411941151E-01  0.48516246934E-01 -0.78711617903E-01  0.12943608643E+00  0.19689695850E-01 0.  0.
         14    1    1    2    0    0  0.91240314717E-02 -0.17309973178E-01 -0.13495405738E-01  0.23769920020E-01  0.00000000000E+00 0. -1.
     999901    1    3    3    0    0 -0.97535972623E-01 -0.31206273757E-01  0.92207023642E-01  0.89072399355E+00  0.88000000000E+00 0.  1.
        -11    1    4    4    0    0  0.43486196440E-01  0.17052515339E-01 -0.46064621970E-01  0.65605244290E-01  0.51100000000E-03 0.  1.
         11    1    4    4    0    0  0.44925744711E-01  0.31463731595E-01 -0.32646995933E-01  0.63830842140E-01  0.51100000000E-03 0. -1.
</event>
<event>
 8    1  0.1109553E+005  0.1043930E+01  0.7957747E-01            NaN
         13   -1    0    0    0    0  0.00000000000E+00  0.00000000000E+00  0.74505805969E-08  0.10566000000E+00  0.10566000000E+00 0.  1.
     999900   -1    0    0    0    0 -0.00000000000E+00 -0.00000000000E+00 -0.74505805969E-08  0.93827000000E+00  0.93827000000E+00 0. -1.
     999902    2    1    2    0    0 -0.11487586926E-01  0.19112474417E-01 -0.84203085506E-02  0.10200940413E+01  0.10198155226E+01 0.  0.
     999903    2    3    3    0    0  0.39116509963E-01  0.10947864749E+00  0.58282180068E-01  0.13151312666E+00  0.19575861723E-01 0.  0.
         14    1    1    2    0    0  0.11487586926E-01 -0.19112474417E-01  0.84203085506E-02  0.23835958714E-01  0.00000000000E+00 0. -1.
     999901    1    3    3    0    0 -0.50604096888E-01 -0.90366173070E-01 -0.66702488619E-01  0.88858091463E+00  0.88000000000E+00 0. -1.
        -11    1    4    4    0    0  0.10881815098E-01  0.16129920357E-01  0.39064600864E-02  0.19852198416E-01  0.51100000000E-03 0.  1.
         11    1    4    4    0    0  0.28234694864E-01  0.93348727130E-01  0.54375719982E-01  0.11166092824E+00  0.51100000000E-03 0. -1.
</event>
<event>
 8    1  0.1109553E+005  0.1043930E+01  0.7957747E-01            NaN
         13   -1    0    0    0    0  0.00000000000E+00  0.00000000000E+00  0.74505805969E-08  0.10566000000E+00  0.10566000000E+00 0.  1.
     999900   -1    0    0    0    0 -0.00000000000E+00 -0.00000000000E+00 -0.74505805969E-08  0.93827000000E+00  0.93827000000E+00 0. -1.
     999902    2    1    2    0    0  0.15864950493E-01  0.73837920990E-02 -0.16038221199E-01  0.10201930756E+01  0.10199168937E+01 0.  0.
     999903    2    3    3    0    0  0.30541022274E-01  0.38538593306E-01  0.11809748617E+00  0.12936290285E+00  0.19229331180E-01 0.  0.
         14    1    1    2    0    0 -0.15864950493E-01 -0.73837920990E-02  0.16038221199E-01  0.23736924383E-01  0.00000000000E+00 0.  1.
     999901    1    3    3    0    0 -0.14676071781E-01 -0.31154801207E-01 -0.13413570737E+00  0.89083017277E+00  0.88000000000E+00 0. -1.
        -11    1    4    4    0    0  0.35327813611E-02  0.18948297811E-01  0.48011364571E-01  0.51738484545E-01  0.51100000000E-03 0.  1.
         11    1    4    4    0    0  0.27008240913E-01  0.19590295495E-01  0.70086121602E-01  0.77624418304E-01  0.51100000000E-03 0. -1.
</event>
<event>
 8    1  0.1109553E+005  0.1043930E+01  0.7957747E-01            NaN
         13   -1    0    0    0    0  0.00000000000E+00  0.00000000000E+00  0.74505805969E-08  0.10566000000E+00  0.10566000000E+00 0.  1.
     999900   -1    0    0    0    0 -0.00000000000E+00 -0.00000000000E+00 -0.74505805969E-08  0.93827000000E+00  0.93827000000E+00 0.  1.
     999902    2    1    2    0    0 -0.14402619011E-01 -0.19151023992E-01 -0.40336213518E-02  0.10196304680E+01  0.10193408772E+01 0.  0.
     999903    2    3    3    0    0  0.10999608583E+00  0.48422850473E-01  0.37477712305E-01  0.12734998682E+00  0.19223133868E-01 0.  0.
         14    1    1    2    0    0  0.14402619011E-01  0.19151023992E-01  0.40336213518E-02  0.24299532002E-01  0.00000000000E+00 0.  1.
     999901    1    3    3    0    0 -0.12439870484E+00 -0.67573874465E-01 -0.41511333657E-01  0.89228048118E+00  0.88000000000E+00 0.  1.
        -11    1    4    4    0    0  0.91285242678E-01  0.46927149454E-01  0.28431827719E-01  0.10650719617E+00  0.51100000000E-03 0. -1.
         11    1    4    4    0    0  0.18710843155E-01  0.14957010191E-02  0.90458845865E-02  0.20842790649E-01  0.51100000000E-03 0.  1.
</event>
<event>
 8    1  0.1109553E+005  0.1043930E+01  0.7957747E-01            NaN
         13   -1    0    0    0    0  0.00000000000E+00  0.00000000000E+00  0.74505805969E-08  0.10566000000E+00  0.10566000000E+00 0.  1.
     999900   -1    0    0    0    0 -0.00000000000E+00 -0.00000000000E+00 -0.74505805969E-08  0.93827000000E+00  0.93827000000E+00 0.  1.
     999902    2    1    2    0    0 -0.18716264119E-01  0.14739239989E-01  0.83410002491E-03  0.10200922262E+01  0.10198136646E+01 0.  0.
     999903    2    3    3    0    0  0.86233826475E-01 -0.76593419890E-01  0.50766555378E-01  0.12776413272E+00  0.21061948279E-01 0.  0.
         14    1    1    2    0    0  0.18716264119E-01 -0.14739239989E-01 -0.83410002491E-03  0.23837773824E-01  0.00000000000E+00 0.  1.
     999901    1    3    3    0    0 -0.10495009059E+00  0.91332659879E-01 -0.49932455354E-01  0.89232809346E+00  0.88000000000E+00 0.  1.
        -11    1    4    4    0    0  0.30256236501E-01 -0.18507944742E-01  0.76227545839E-02  0.36281556943E-01  0.51100000000E-03 0.  1.
         11    1    4    4    0    0  0.55977589975E-01 -0.58085475148E-01  0.43143800795E-01  0.91482575776E-01  0.51100000000E-03 0. -1.
</event>
<event>
 8    1  0.1109553E+005  0.1043930E+01  0.7957747E-01            NaN
         13   -1    0    0    0    0  0.00000000000E+00  0.00000000000E+00  0.74505805969E-08  0.10566000000E+00  0.10566000000E+00 0.  1.
     999900   -1    0    0    0    0 -0.00000000000E+00 -0.00000000000E+00 -0.74505805969E-08  0.93827000000E+00  0.93827000000E+00 0.  1.
     999902    2    1    2    0    0 -0.27356149727E-02  0.21839390018E-01 -0.59397969262E-02  0.10211325499E+01  0.10208780342E+01 0.  0.
     999903    2    3    3    0    0  0.29298581067E-02  0.59372249152E-01 -0.11761978952E+00  0.13326249526E+00  0.19769413703E-01 0.  0.
         14    1    1    2    0    0  0.27356149727E-02 -0.21839390018E-01  0.59397969262E-02  0.22797450146E-01  0.00000000000E+00 0. -1.
     999901    1    3    3    0    0 -0.56654730794E-02 -0.37532859134E-01  0.11167999259E+00  0.88787005459E+00  0.88000000000E+00 0. -1.
        -11    1    4    4    0    0 -0.65670506297E-02  0.42759145575E-01 -0.86737177476E-01  0.96928168051E-01  0.51100000000E-03 0. -1.
         11    1    4    4    0    0  0.94969087364E-02  0.16613103577E-01 -0.30882612044E-01  0.36334327208E-01  0.51100000000E-03 0.  1.
</event>
<event>
 8    1  0.1109553E+005  0.1043930E+01  0.7957747E-01            NaN
         13   -1    0    0    0    0  0.00000000000E+00  0.00000000000E+00  0.74505805969E-08  0.10566000000E+00  0.10566000000E+00 0. -1.
     999900   -1    0    0    0    0 -0.00000000000E+00 -0.00000000000E+00 -0.74505805969E-08  0.93827000000E+00  0.93827000000E+00 0.  1.
     999902    2    1    2    0    0  0.16796711301E-01  0.91468903940E-02 -0.72685100796E-02  0.10234696395E+01  0.10232651057E+01 0.  0.
     999903    2    3    3    0    0 -0.74589359799E-01  0.93346802608E-01  0.53882905677E-01  0.13263826661E+00  0.20306257507E-01 0.  0.
         14    1    1    2    0    0 -0.16796711301E-01 -0.91468903940E-02  0.72685100796E-02  0.20460360534E-01  0.00000000000E+00 0.  1.
     999901    1    3    3    0    0  0.91386071099E-01 -0.84199912215E-01 -0.61151415756E-01  0.89083137285E+00  0.88000000000E+00 0.  1.
        -11    1    4    4    0    0 -0.38848953865E-01  0.40996158024E-01  0.15643785051E-01  0.58608150634E-01  0.51100000000E-03 0. -1.
         11    1    4    4    0    0 -0.35740405934E-01  0.52350644585E-01  0.38239120626E-01  0.74030115980E-01  0.51100000000E-03 0.  1.
</event>
<event>
 7    1  0.1144912E+005  0.1043930E+01  0.7957747E-01            NaN
         13   -1    0    0    0    0  0.00000000000E+00  0.00000000000E+00  0.74505805969E-08  0.10566000000E+00  0.10566000000E+00 0.  1.
     999900   -1    0    0    0    0 -0.00000000000E+00 -0.00000000000E+00 -0.74505805969E-08  0.93827000000E+00  0.93827000000E+00 0. -1.
     999903    2    1    2    0    0 -0.69580082516E-01  0.24078310646E-01 -0.19699154351E-01  0.79275256441E-01  0.21802675869E-01 0.  0.
         14    1    1    2    0    0  0.13419966204E-01 -0.61974922462E-01 -0.47894354485E-01  0.79466066334E-01  0.00000000000E+00 0. -1.
     999901    1    1    2    0    0  0.56160116312E-01  0.37896611815E-01  0.67593508836E-01  0.88518867723E+00  0.88000000000E+00 0.  1.
        -11    1    3    3    0    0 -0.23341798090E-01  0.19291902057E-01 -0.70328932097E-02  0.31092438485E-01  0.51100000000E-03 0.  1.
         11    1    3    3    0    0 -0.46238284426E-01  0.47864085897E-02 -0.12666261142E-01  0.48182817956E-01  0.51100000000E-03 0. -1.
</event>
<event>
 8    1  0.1109553E+005  0.1043930E+01  0.7957747E-01            NaN
         13   -1    0    0    0    0  0.00000000000E+00  0.00000000000E+00  0.74505805969E-08  0.10566000000E+00  0.10566000000E+00 0.  1.
     999900   -1    0    0    0    0 -0.00000000000E+00 -0.00000000000E+00 -0.74505805969E-08  0.93827000000E+00  0.93827000000E+00 0.  1.
     999902    2    1    2    0    0  0.14699670341E-01 -0.11983563535E-02  0.14330451161E-01  0.10233659976E+01  0.10231593653E+01 0.  0.
     999903    2    3    3    0    0 -0.12551339637E+00  0.33194699386E-01  0.37262668954E-02  0.13153920098E+00  0.20812870859E-01 0.  0.
         14    1    1    2    0    0 -0.14699670341E-01  0.11983563535E-02 -0.14330451161E-01  0.20564002445E-01  0.00000000000E+00 0.  1.
     999901    1    3    3    0    0  0.14021306672E+00 -0.34393055740E-01  0.10604184266E-01  0.89182679657E+00  0.88000000000E+00 0.  1.
        -11    1    4    4    0    0 -0.50359816663E-01  0.23285115285E-01  0.51199392120E-02  0.55720576332E-01  0.51100000000E-03 0.  1.
         11    1    4    4    0    0 -0.75153579711E-01  0.99095841012E-02 -0.13936723166E-02  0.75818624651E-01  0.51100000000E-03 0. -1.
</event>
<event>
 8    1  0.1109553E+005  0.1043930E+01  0.7957747E-01            NaN
         13   -1    0    0    0    0  0.00000000000E+00  0.00000000000E+00  0.74505805969E-08  0.10566000000E+00  0.10566000000E+00 0. -1.
     999900   -1    0    0    0    0 -0.00000000000E+00 -0.00000000000E+00 -0.74505805969E-08  0.93827000000E+00  0.93827000000E+00 0.  1.
     999902    2    1    2    0    0 -0.54934713650E-02  0.21364431934E-01  0.92090743103E-02  0.10200255186E+01  0.10197453773E+01 0.  0.
     999903    2    3    3    0    0 -0.69477675432E-01  0.10015695983E+00  0.49751309272E-01  0.13326404359E+00  0.20628828217E-01 0.  0.
         14    1    1    2    0    0  0.54934713650E-02 -0.21364431934E-01 -0.92090743103E-02  0.23904481362E-01  0.00000000000E+00 0.  1.
     999901    1    3    3    0    0  0.63984204067E-01 -0.78792527892E-01 -0.40542234961E-01  0.88676147505E+00  0.88000000000E+00 0.  1.
        -11    1    4    4    0    0 -0.46325522046E-01  0.50679877014E-01  0.22812066102E-01  0.72354373799E-01  0.51100000000E-03 0.  1.
         11    1    4    4    0    0 -0.23152153386E-01  0.49477082812E-01  0.26939243170E-01  0.60909669787E-01  0.51100000000E-03 0. -1.
</event>
<event>
 8    1  0.1109553E+005  0.1043930E+01  0.7957747E-01            NaN
         13   -1    0    0    0    0  0.00000000000E+00  0.00000000000E+00  0.74505805969E-08  0.10566000000E+00  0.10566000000E+00 0. -1.
     999900   -1    0    0    0    0 -0.00000000000E+00 -0.00000000000E+00 -0.74505805969E-08  0.93827000000E+00  0.93827000000E+00 0.  1.
     999902    2    1    2    0    0  0.17067920278E-01  0.10252114354E-01  0.13059104276E-01  0.10201190791E+01  0.10198411521E+01 0.  0.
     999903    2    3    3    0    0 -0.64839323015E-01  0.82314311075E-01  0.76323536008E-01  0.13112855885E+00  0.19739128189E-01 0.  0.
         14    1    1    2    0    0 -0.17067920278E-01 -0.10252114354E-01 -0.13059104276E-01  0.23810920937E-01  0.00000000000E+00 0. -1.
     999901    1    3    3    0    0  0.81907243293E-01 -0.72062196721E-01 -0.63264431731E-01  0.88899052021E+00  0.88000000000E+00 0.  1.
        -11    1    4    4    0    0 -0.19187247665E-01  0.32880195546E-01  0.18149346125E-01  0.42177216811E-01  0.51100000000E-03 0.  1.
         11    1    4    4    0    0 -0.45652075350E-01  0.49434115529E-01  0.58174189882E-01  0.88951342043E-01  0.51100000000E-03 0. -1.
</event>
<event>
 8    1  0.1109553E+005  0.1043930E+01  0.7957747E-01            NaN
         13   -1    0    0    0    0  0.00000000000E+00  0.00000000000E+00  0.74505805969E-08  0.10566000000E+00  0.10566000000E+00 0.  1.
     999900   -1    0    0    0    0 -0.00000000000E+00 -0.00000000000E+00 -0.74505805969E-08  0.93827000000E+00  0.93827000000E+00 0. -1.
     999902    2    1    2    0    0 -0.13084839931E-01 -0.17679516563E-01 -0.77771379067E-02  0.10206005719E+01  0.10203338988E+01 0.  0.
     999903    2    3    3    0    0 -0.12333690665E+00 -0.41058385878E-01 -0.20643092138E-01  0.13331954396E+00  0.21217444596E-01 0.  0.
         14    1    1    2    0    0  0.13084839931E-01  0.17679516563E-01  0.77771379067E-02  0.23329428110E-01  0.00000000000E+00 0. -1.
     999901    1    3    3    0    0  0.11025206672E+00  0.23378869315E-01  0.12865954231E-01  0.88728102793E+00  0.88000000000E+00 0.  1.
        -11    1    4    4    0    0 -0.68694997525E-01 -0.14357598393E-01 -0.17953626205E-01  0.72441266771E-01  0.51100000000E-03 0. -1.
         11    1    4    4    0    0 -0.54641909127E-01 -0.26700787485E-01 -0.26894659331E-02  0.60878277188E-01  0.51100000000E-03 0.  1.
</event>
<event>
 8    1  0.1109553E+005  0.1043930E+01  0.7957747E-01            NaN
         13   -1    0    0    0    0  0.00000000000E+00  0.00000000000E+00  0.74505805969E-08  0.10566000000E+00  0.10566000000E+00 0.  1.
     999900   -1    0    0    0    0 -0.00000000000E+00 -0.00000000000E+00 -0.74505805969E-08  0.93827000000E+00  0.93827000000E+00 0.  1.
     999902    2    1    2    0    0 -0.87922645424E-03  0.63665124092E-02 -0.23104237429E-01  0.10199485216E+01  0.10196665511E+01 0.  0.
     999903    2    3    3    0    0 -0.91551192656E-01  0.86052298692E-01  0.28048682987E-01  0.13023629213E+00  0.19701375163E-01 0.  0.
         14    1    1    2    0    0  0.87922645424E-03 -0.63665124092E-02  0.23104237429E-01  0.23981478407E-01  0.00000000000E+00 0.  1.
     999901    1    3    3    0    0  0.90671966202E-01 -0.79685786283E-01 -0.51152920416E-01  0.88971222946E+00  0.88000000000E+00 0.  1.
        -11    1    4    4    0    0 -0.82311692648E-01  0.83436245567E-01  0.28460104743E-01  0.12061119560E+00  0.51100000000E-03 0.  1.
         11    1    4    4    0    0 -0.92395000076E-02  0.26160531248E-02 -0.41142175561E-03  0.96250965296E-02  0.51100000000E-03 0. -1.
</event>
<event>
 8    1  0.1109553E+005  0.1043930E+01  0.7957747E-01            NaN
         13   -1    0    0    0    0  0.00000000000E+00  0.00000000000E+00  0.74505805969E-08  0.10566000000E+00  0.10566000000E+00 0.  1.
     999900   -1    0    0    0    0 -0.00000000000E+00 -0.00000000000E+00 -0.74505805969E-08  0.93827000000E+00  0.93827000000E+00 0. -1.
     999902    2    1    2    0    0 -0.70925854491E-02 -0.53336247744E-02 -0.22077015329E-01  0.10201361578E+01  0.10198586341E+01 0.  0.
     999903    2    3    3    0    0 -0.23897103746E-01 -0.59763113325E-01 -0.11500524023E+00  0.13341150151E+00  0.20729741246E-01 0.  0.
         14    1    1    2    0    0  0.70925854491E-02  0.53336247744E-02  0.22077015329E-01  0.23793842217E-01  0.00000000000E+00 0.  1.
     999901    1    3    3    0    0  0.16804518297E-01  0.54429488551E-01  0.92928224904E-01  0.88672465627E+00  0.88000000000E+00 0.  1.
        -11    1    4    4    0    0 -0.15414751095E-01 -0.17284165430E-01 -0.29037408479E-01  0.37145513028E-01  0.51100000000E-03 0.  1.
         11    1    4    4    0    0 -0.84823526503E-02 -0.42478947896E-01 -0.85967831754E-01  0.96265988482E-01  0.51100000000E-03 0. -1.
</event>
<event>
 8    1  0.1109553E+005  0.1043930E+01  0.7957747E-01            NaN
         13   -1    0    0    0    0  0.00000000000E+00  0.00000000000E+00  0.74505805969E-08  0.10566000000E+00  0.10566000000E+00 0. -1.
     999900   -1    0    0    0    0 -0.00000000000E+00 -0.00000000000E+00 -0.74505805969E-08  0.93827000000E+00  0.93827000000E+00 0. -1.
     999902    2    1    2    0    0 -0.18125348862E-01 -0.12848552081E-01  0.70666151747E-02  0.10206158281E+01  0.10203495077E+01 0.  0.
     999903    2    3    3    0    0 -0.18730949073E-01  0.74227067318E-01 -0.10258038640E+00  0.12954624876E+00  0.19974706969E-01 0.  0.
         14    1    1    2    0    0  0.18125348862E-01  0.12848552081E-01 -0.70666151747E-02  0.23314171913E-01  0.00000000000E+00 0. -1.
     999901    1    3    3    0    0  0.60560021096E-03 -0.87075619399E-01  0.10964700157E+00  0.89106957933E+00  0.88000000000E+00 0.  1.
        -11    1    4    4    0    0 -0.13023353846E-01  0.35804870412E-01 -0.65874921262E-01  0.76101004349E-01  0.51100000000E-03 0. -1.
         11    1    4    4    0    0 -0.57075952266E-02  0.38422196906E-01 -0.36705465137E-01  0.53445244413E-01  0.51100000000E-03 0.  1.
</event>
<event>
 8    1  0.1109553E+005  0.1043930E+01  0.7957747E-01            NaN
         13   -1    0    0    0    0  0.00000000000E+00  0.00000000000E+00  0.74505805969E-08  0.10566000000E+00  0.10566000000E+00 0.  1.
     999900   -1    0    0    0    0 -0.00000000000E+00 -0.00000000000E+00 -0.74505805969E-08  0.93827000000E+00  0.93827000000E+00 0.  1.
     999902    2    1    2    0    0  0.13618751293E-01  0.18245370509E-01 -0.34344637772E-02  0.10209048079E+01  0.10206451231E+01 0.  0.
     999903    2    3    3    0    0 -0.61731351749E-02  0.12992396810E+00 -0.21628144790E-01  0.13343940686E+00  0.20492768762E-01 0.  0.
         14    1    1    2    0    0 -0.13618751293E-01 -0.18245370509E-01  0.34344637772E-02  0.23025192143E-01  0.00000000000E+00 0. -1.
     999901    1    3    3    0    0  0.19791886467E-01 -0.11167859760E+00  0.18193681012E-01  0.88746540099E+00  0.88000000000E+00 0. -1.
        -11    1    4    4    0    0  0.53614975518E-02  0.40205475181E-01 -0.59986488655E-03  0.40569038064E-01  0.51100000000E-03 0.  1.
         11    1    4    4    0    0 -0.11534632727E-01  0.89718492923E-01 -0.21028279903E-01  0.92870368801E-01  0.51100000000E-03 0. -1.
</event>
<event>
 8    1  0.1109553E+005  0.1043930E+01  0.7957747E-01            NaN
         13   -1    0    0    0    0  0.00000000000E+00  0.00000000000E+00  0.74505805969E-08  0.10566000000E+00  0.10566000000E+00 0. -1.
     999900   -1    0    0    0    0 -0.00000000000E+00 -0.00000000000E+00 -0.74505805969E-08  0.93827000000E+00  0.93827000000E+00 0. -1.
     999902    2    1    2    0    0 -0.65588155144E-02 -0.19624890092E-01 -0.12520362313E-01  0.10197450079E+01  0.10194581734E+01 0.  0.
     999903    2    3    3    0    0 -0.63227926560E-01 -0.71411769152E-01  0.87183650095E-01  0.13079385112E+00  0.20214627782E-01 0.  0.
         14    1    1    2    0    0  0.65588155144E-02  0.19624890092E-01  0.12520362313E-01  0.24184992134E-01  0.00000000000E+00 0.  1.
     999901    1    3    3    0    0  0.56669111046E-01  0.51786879061E-01 -0.99704012408E-01  0.88895115675E+00  0.88000000000E+00 0. -1.
        -11    1    4    4    0    0 -0.11503865765E-02 -0.70205245731E-02  0.11950992728E-01  0.13917560948E-01  0.51100000000E-03 0.  1.
         11    1    4    4    0    0 -0.62077539984E-01 -0.64391244579E-01  0.75232657367E-01  0.11687629017E+00  0.51100000000E-03 0. -1.
</event>
<event>
 8    1  0.1109553E+005  0.1043930E+01  0.7957747E-01            NaN
         13   -1    0    0    0    0  0.00000000000E+00  0.00000000000E+00  0.74505805969E-08  0.10566000000E+00  0.10566000000E+00 0. -1.
     999900   -1    0    0    0    0 -0.00000000000E+00 -0.00000000000E+00 -0.74505805969E-08  0.93827000000E+00  0.93827000000E+00 0. -1.
     999902    2    1    2    0    0  0.11786925149E-01  0.13743360324E-01 -0.13560940648E-01  0.10213089773E+01  0.10210584295E+01 0.  0.
     999903    2    3    3    0    0 -0.83112586222E-01 -0.32280502376E-01  0.90898429157E-01  0.12887641785E+00  0.19921692517E-01 0.  0.
         14    1    1    2    0    0 -0.11786925149E-01 -0.13743360324E-01  0.13560940648E-01  0.22621022716E-01  0.00000000000E+00 0. -1.
     999901    1    3    3    0    0  0.94899511370E-01  0.46023862701E-01 -0.10445936980E+00  0.89243255943E+00  0.88000000000E+00 0. -1.
        -11    1    4    4    0    0 -0.14398434931E-01 -0.10526073755E-01  0.97255883945E-02  0.20321450435E-01  0.51100000000E-03 0. -1.
         11    1    4    4    0    0 -0.68714151290E-01 -0.21754428622E-01  0.81172840762E-01  0.10855496742E+00  0.51100000000E-03 0.  1.
</event>
<event>
 8    1  0.1109553E+005  0.1043930E+01  0.7957747E-01            NaN
         13   -1    0    0    0    0  0.00000000000E+00  0.00000000000E+00  0.74505805969E-08  0.10566000000E+00  0.10566000000E+00 0. -1.
     999900   -1    0    0    0    0 -0.00000000000E+00 -0.00000000000E+00 -0.74505805969E-08  0.93827000000E+00  0.93827000000E+00 0.  1.
     999902    2    1    2    0    0  0.59028393097E-02  0.11133140610E-01  0.19704211233E-01  0.10205409797E+01  0.10202729267E+01 0.  0.
     999903    2    3    3    0    0  0.87483886188E-01  0.16009474105E-01 -0.92221334682E-01  0.12969499204E+00  0.20156457700E-01 0.  0.
         14    1    1    2    0    0 -0.59028393097E-02 -0.11133140610E-01 -0.19704211233E-01  0.23389020332E-01  0.00000000000E+00 0.  1.
     999901    1    3    3    0    0 -0.81581046878E-01 -0.48763334948E-02  0.11192554592E+00  0.89084598762E+00  0.88000000000E+00 0. -1.
        -11    1    4    4    0    0  0.49131202092E-01  0.97317400603E-02 -0.37477726916E-01  0.62557357037E-01  0.51100000000E-03 0. -1.
         11    1    4    4    0    0  0.38352684095E-01  0.62777340443E-02 -0.54743607766E-01  0.67137635007E-01  0.51100000000E-03 0.  1.
</event>
<event>
 8    1  0.1109553E+005  0.1043930E+01  0.7957747E-01            NaN
         13   -1    0    0    0    0  0.00000000000E+00  0.00000000000E+00  0.74505805969E-08  0.10566000000E+00  0.10566000000E+00 0. -1.
     999900   -1    0    0    0    0 -0.00000000000E+00 -0.00000000000E+00 -0.74505805969E-08  0.93827000000E+00  0.93827000000E+00 0. -1.
     999902    2    1    2    0    0 -0.15772753023E-01  0.26989763808E-02  0.17535084380E-01  0.10201909310E+01  0.10199146986E+01 0.  0.
     999903    2    3    3    0    0  0.74932189743E-01  0.10001466519E+00  0.30236358665E-01  0.13010158029E+00  0.19859946996E-01 0.  0.
         14    1    1    2    0    0  0.15772753023E-01 -0.26989763808E-02 -0.17535084380E-01  0.23739068972E-01  0.00000000000E+00 0.  1.
     999901    1    3    3    0    0 -0.90704942766E-01 -0.97315688814E-01 -0.12701274285E-01  0.89008935074E+00  0.88000000000E+00 0. -1.
        -11    1    4    4    0    0  0.55283417748E-01  0.71509320402E-01  0.30740493234E-01  0.95472918818E-01  0.51100000000E-03 0.  1.
         11    1    4    4    0    0  0.19648771995E-01  0.28505344792E-01 -0.50413456852E-03  0.34628661471E-01  0.51100000000E-03 0. -1.
</event>
<event>
 8    1  0.1109553E+005  0.1043930E+01  0.7957747E-01            NaN
         13   -1    0    0    0    0  0.00000000000E+00  0.00000000000E+00  0.74505805969E-08  0.10566000000E+00  0.10566000000E+00 0.  1.
     999900   -1    0    0    0    0 -0.00000000000E+00 -0.00000000000E+00 -0.74505805969E-08  0.93827000000E+00  0.93827000000E+00 0.  1.
     999902    2    1    2    0    0 -0.37186123799E-02  0.23384174894E-01 -0.11755795155E-02  0.10202228344E+01  0.10199473526E+01 0.  0.
     999903    2    3    3    0    0  0.12677875024E-01  0.72195790337E-01 -0.10821802539E+00  0.13224225814E+00  0.20097590931E-01 0.  0.
         14    1    1    2    0    0  0.37186123799E-02 -0.23384174894E-01  0.11755795155E-02  0.23707165599E-01  0.00000000000E+00 0. -1.
     999901    1    3    3    0    0 -0.16396487403E-01 -0.48811615443E-01  0.10704244587E+00  0.88798057626E+00  0.88000000000E+00 0. -1.
        -11    1    4    4    0    0  0.14769118370E-01  0.70604269000E-01 -0.98037856808E-01  0.12171594861E+00  0.51100000000E-03 0. -1.
         11    1    4    4    0    0 -0.20912433461E-02  0.15915213371E-02 -0.10180168580E-01  0.10526309525E-01  0.51100000000E-03 0.  1.
</event>
<event>
 8    1  0.1109553E+005  0.1043930E+01  0.7957747E-01            NaN
         13   -1    0    0    0    0  0.00000000000E+00  0.00000000000E+00  0.74505805969E-08  0.10566000000E+00  0.10566000000E+00 0. -1.
     999900   -1    0    0    0    0 -0.00000000000E+00 -0.00000000000E+00 -0.74505805969E-08  0.93827000000E+00  0.93827000000E+00 0.  1.
     999902    2    1    2    0    0  0.20482255072E-01  0.88791853416E-02  0.69687625257E-02  0.10205435433E+01  0.10202755498E+01 0.  0.
     999903    2    3    3    0    0  0.76668909683E-02 -0.11495834291E+00  0.53063910878E-01  0.13058583103E+00  0.31027065676E-01 0.  0.
         14    1    1    2    0    0 -0.20482255072E-01 -0.88791853416E-02 -0.69687625257E-02  0.23386456685E-01  0.00000000000E+00 0. -1.
     999901    1    3    3    0    0  0.12815364103E-01  0.12383752825E+00 -0.46095148352E-01  0.88995771229E+00  0.88000000000E+00 0.  1.
        -11    1    4    4    0    0  0.19068637788E-01 -0.55221511172E-01  0.28355259286E-01  0.64940819932E-01  0.51100000000E-03 0. -1.
         11    1    4    4    0    0 -0.11401746820E-01 -0.59736831741E-01  0.24708651592E-01  0.65645011094E-01  0.51100000000E-03 0.  1.
</event>
<event>
 8    1  0.1109553E+005  0.1043930E+01  0.7957747E-01            NaN
         13   -1    0    0    0    0  0.00000000000E+00  0.00000000000E+00  0.74505805969E-08  0.10566000000E+00  0.10566000000E+00 0.  1.
     999900   -1    0    0    0    0 -0.00000000000E+00 -0.00000000000E+00 -0.74505805969E-08  0.93827000000E+00  0.93827000000E+00 0.  1.
     999902    2    1    2    0    0 -0.87451753253E-02  0.93436435186E-02  0.19131588060E-01  0.10209126277E+01  0.10206531213E+01 0.  0.
     999903    2    3    3    0    0 -0.14065744784E-01 -0.46576937791E-01 -0.11740039069E+00  0.12861424650E+00  0.19786772344E-01 0.  0.
         14    1    1    2    0    0  0.87451753253E-02 -0.93436435186E-02 -0.19131588060E-01  0.23017372295E-01  0.00000000000E+00 0. -1.
     999901    1    3    3    0    0  0.53205694585E-02  0.55920581310E-01  0.13653197875E+00  0.89229838120E+00  0.88000000000E+00 0. -1.
        -11    1    4    4    0    0 -0.13021097580E-01 -0.35163981851E-01 -0.65633963755E-01  0.75591883962E-01  0.51100000000E-03 0.  1.
         11    1    4    4    0    0 -0.10446472035E-02 -0.11412955940E-01 -0.51766426933E-01  0.53022362542E-01  0.51100000000E-03 0. -1.
</event>
<event>
 8    1  0.1109553E+005  0.1043930E+01  0.7957747E-01            NaN
         13   -1    0    0    0    0  0.00000000000E+00  0.00000000000E+00  0.74505805969E-08  0.10566000000E+00  0.10566000000E+00 0. -1.
     999900   -1    0    0    0    0 -0.00000000000E+00 -0.00000000000E+00 -0.74505805969E-08  0.93827000000E+00  0.93827000000E+00 0.  1.
     999902    2    1    2    0    0  0.32775655387E-02 -0.11535372035E-01 -0.21411409030E-01  0.10193891019E+01  0.10190936588E+01 0.  0.
     999903    2    3    3    0    0 -0.47673521752E-01 -0.11557322703E+00  0.30562616898E-01  0.13027651737E+00  0.20198067804E-01 0.  0.
         14    1    1    2    0    0 -0.32775655387E-02  0.11535372035E-01  0.21411409030E-01  0.24540898119E-01  0.00000000000E+00 0. -1.
     999901    1    3    3    0    0  0.50951087291E-01  0.10403785500E+00 -0.51974025928E-01  0.88911258451E+00  0.88000000000E+00 0. -1.
        -11    1    4    4    0    0 -0.42291004445E-01 -0.84187703159E-01  0.17359615073E-01  0.95800395493E-01  0.51100000000E-03 0.  1.
         11    1    4    4    0    0 -0.53825173077E-02 -0.31385523873E-01  0.13203001825E-01  0.34476121875E-01  0.51100000000E-03 0. -1.
</event>
<event>
 8    1  0.1109553E+005  0.1043930E+01  0.7957747E-01            NaN
         13   -1    0    0    0    0  0.00000000000E+00  0.00000000000E+00  0.74505805969E-08  0.10566000000E+00  0.10566000000E+00 0.  1.
     999900   -1    0    0    0    0 -0.00000000000E+00 -0.00000000000E+00 -0.74505805969E-08  0.93827000000E+00  0.93827000000E+00 0. -1.
     999902    2    1    2    0    0 -0.16801401976E-03  0.23412975016E-01  0.10198313917E-02  0.10204942221E+01  0.10202250839E+01 0.  0.
     999903    2    3    3    0    0 -0.12261119167E+00 -0.32505004935E-01 -0.20222278520E-01  0.13000537916E+00  0.20059371712E-01 0.  0.
         14    1    1    2    0    0  0.16801401976E-03 -0.23412975016E-01 -0.10198313917E-02  0.23435777859E-01  0.00000000000E+00 0.  1.
     999901    1    3    3    0    0  0.12244317765E+00  0.55917979951E-01  0.21242109912E-01  0.89048884298E+00  0.88000000000E+00 0.  1.
        -11    1    4    4    0    0 -0.87261892520E-01 -0.17997012639E-01 -0.21909341243E-01  0.91754077320E-01  0.51100000000E-03 0. -1.
         11    1    4    4    0    0 -0.35349299153E-01 -0.14507992296E-01  0.16870627229E-02  0.38251301843E-01  0.51100000000E-03 0.  1.
</event>
<event>
 8    1  0.1109553E+005  0.1043930E+01  0.7957747E-01            NaN
         13   -1    0    0    0    0  0.00000000000E+00  0.00000000000E+00  0.74505805969E-08  0.10566000000E+00  0.10566000000E+00 0.  1.
     999900   -1    0    0    0    0 -0.00000000000E+00 -0.00000000000E+00 -0.74505805969E-08  0.93827000000E+00  0.93827000000E+00 0.  1.
     999902    2    1    2    0    0 -0.43557895522E-02 -0.23227231241E-01  0.28797573896E-02  0.10201230645E+01  0.10198452317E+01 0.  0.
     999903    2    3    3    0    0 -0.64274402987E-01  0.47401809768E-01  0.10065481794E+00  0.12987665812E+00  0.18932075985E-01 0.  0.
         14    1    1    2    0    0  0.43557895522E-02  0.23227231241E-01 -0.28797573896E-02  0.23806935468E-01  0.00000000000E+00 0. -1.
     999901    1    3    3    0    0  0.59918613435E-01 -0.70629041008E-01 -0.97775060548E-01  0.89024640642E+00  0.88000000000E+00 0.  1.
        -11    1    4    4    0    0 -0.58557205456E-01  0.35275430738E-01  0.79799461252E-01  0.10507862514E+00  0.51100000000E-03 0. -1.
         11    1    4    4    0    0 -0.57171975312E-02  0.12126379030E-01  0.20855356686E-01  0.24798032976E-01  0.51100000000E-03 0.  1.
</event>
<event>
 8    1  0.1109553E+005  0.1043930E+01  0.7957747E-01            NaN
         13   -1    0    0    0    0  0.00000000000E+00  0.00000000000E+00  0.74505805969E-08  0.10566000000E+00  0.10566000000E+00 0. -1.
     999900   -1    0    0    0    0 -0.00000000000E+00 -0.00000000000E+00 -0.74505805969E-08  0.93827000000E+00  0.93827000000E+00 0.  1.
     999902    2    1    2    0    0  0.25316523512E-02 -0.13006394581E-01  0.18445219013E-01  0.10212187326E+01  0.10209661591E+01 0.  0.
     999903    2    3    3    0    0 -0.89424055530E-01  0.89075460950E-01  0.25923932993E-01  0.13052659238E+00  0.20833664243E-01 0.  0.
         14    1    1    2    0    0 -0.25316523512E-02  0.13006394581E-01 -0.18445219013E-01  0.22711267425E-01  0.00000000000E+00 0.  1.
     999901    1    3    3    0    0  0.91955707882E-01 -0.10208185553E+00 -0.74787139796E-02  0.89069214019E+00  0.88000000000E+00 0.  1.
        -11    1    4    4    0    0 -0.78652227054E-01  0.68711269675E-01  0.16993382449E-01  0.10581326745E+00  0.51100000000E-03 0. -1.
         11    1    4    4    0    0 -0.10771828477E-01  0.20364191275E-01  0.89305505438E-02  0.24713324928E-01  0.51100000000E-03 0.  1.
</event>
<event>
 8    1  0.1109553E+005  0.1043930E+01  0.7957747E-01            NaN
         13   -1    0    0    0    0  0.00000000000E+00  0.00000000000E+00  0.74505805969E-08  0.10566000000E+00  0.10566000000E+00 0. -1.
     999900   -1    0    0    0    0 -0.00000000000E+00 -0.00000000000E+00 -0.74505805969E-08  0.93827000000E+00  0.93827000000E+00 0. -1.
     999902    2    1    2    0    0  0.21011674785E-02 -0.20647844751E-01 -0.10525986417E-01  0.10206588851E+01  0.10203935589E+01 0.  0.
     999903    2    3    3    0    0  0.51751600506E-01  0.73192393385E-01 -0.92653987369E-01  0.13048128243E+00  0.20130799411E-01 0.  0.
         14    1    1    2    0    0 -0.21011674785E-02  0.20647844751E-01  0.10525986417E-01  0.23271114879E-01  0.00000000000E+00 0. -1.
     999901    1    3    3    0    0 -0.49650433027E-01 -0.93840238136E-01  0.82128000952E-01  0.89017760269E+00  0.88000000000E+00 0.  1.
        -11    1    4    4    0    0  0.89951201682E-02  0.14104890789E-01 -0.29892551324E-01  0.34259099181E-01  0.51100000000E-03 0. -1.
         11    1    4    4    0    0  0.42756480338E-01  0.59087502596E-01 -0.62761436045E-01  0.96222183249E-01  0.51100000000E-03 0.  1.
</event>
<event>
 7    1  0.1109553E+005  0.1043930E+01  0.7957747E-01            NaN
         13   -1    0    0    0    0  0.00000000000E+00  0.00000000000E+00  0.74505805969E-08  0.10566000000E+00  0.10566000000E+00 0. -1.
     999900   -1    0    0    0    0 -0.00000000000E+00 -0.00000000000E+00 -0.74505805969E-08  0.93827000000E+00  0.93827000000E+00 0. -1.
     999902    2    1    2    0    0 -0.16309173118E-01 -0.39126897031E-02 -0.17420469400E-01  0.10197479607E+01  0.10194611971E+01 0.  0.
         14    1    1    2    0    0  0.16309173118E-01  0.39126897031E-02  0.17420469400E-01  0.24182039257E-01  0.00000000000E+00 0.  1.
     999901    1    3    3    0    0 -0.16427419087E-01  0.71348362246E-01 -0.11444282113E+00  0.89042552086E+00  0.88000000000E+00 0. -1.
        -11    1    3    3    0    0  0.71982230735E-02  0.68085465300E-03  0.18428706850E-01  0.19802937551E-01  0.51100000000E-03 0.  1.
         11    1    3    3    0    0 -0.70799771048E-02 -0.75941906602E-01  0.78593644881E-01  0.10951950233E+00  0.51100000000E-03 0. -1.
</event>
<event>
 8    1  0.1109553E+005  0.1043930E+01  0.7957747E-01            NaN
         13   -1    0    0    0    0  0.00000000000E+00  0.00000000000E+00  0.74505805969E-08  0.10566000000E+00  0.10566000000E+00 0.  1.
     999900   -1    0    0    0    0 -0.00000000000E+00 -0.00000000000E+00 -0.74505805969E-08  0.93827000000E+00  0.93827000000E+00 0. -1.
     999902    2    1    2    0    0  0.74008366029E-02  0.21618697242E-01 -0.87077032619E-02  0.10194766863E+01  0.10191833738E+01 0.  0.
     999903    2    3    3    0    0  0.95117940422E-01 -0.46723957571E-01 -0.72918475072E-01  0.13015782790E+00  0.19834448677E-01 0.  0.
         14    1    1    2    0    0 -0.74008366029E-02 -0.21618697242E-01  0.87077032619E-02  0.24453313660E-01  0.00000000000E+00 0.  1.
     999901    1    3    3    0    0 -0.87717103819E-01  0.68342654813E-01  0.64210771811E-01  0.88931885844E+00  0.88000000000E+00 0.  1.
        -11    1    4    4    0    0  0.41133551073E-01 -0.30125842635E-01 -0.39807072618E-01  0.64686935078E-01  0.51100000000E-03 0. -1.
         11    1    4    4    0    0  0.53984389349E-01 -0.16598114935E-01 -0.33111402454E-01  0.65470892817E-01  0.51100000000E-03 0.  1.
</event>
<event>
 8    1  0.1109553E+005  0.1043930E+01  0.7957747E-01            NaN
         13   -1    0    0    0    0  0.00000000000E+00  0.00000000000E+00  0.74505805969E-08  0.10566000000E+00  0.10566000000E+00 0. -1.
     999900   -1    0    0    0    0 -0.00000000000E+00 -0.00000000000E+00 -0.74505805969E-08  0.93827000000E+00  0.93827000000E+00 0. -1.
     999902    2    1    2    0    0 -0.18028412277E-01  0.85483601631E-02 -0.12336700220E-01  0.10204716905E+01  0.10202020285E+01 0.  0.
     999903    2    3    3    0    0 -0.82547515301E-01 -0.18854690390E-01  0.97639610145E-01  0.13086029747E+00  0.20526381838E-01 0.  0.
         14    1    1    2    0    0  0.18028412277E-01 -0.85483601631E-02  0.12336700220E-01  0.23458309466E-01  0.00000000000E+00 0. -1.
     999901    1    3    3    0    0  0.64519103024E-01  0.27403050553E-01 -0.10997631037E+00  0.88961139307E+00  0.88000000000E+00 0. -1.
        -11    1    4    4    0    0 -0.53439674490E-01 -0.62587170218E-02  0.73035895897E-01  0.90716445911E-01  0.51100000000E-03 0.  1.
         11    1    4    4    0    0 -0.29107840811E-01 -0.12595973368E-01  0.24603714248E-01  0.40143851554E-01  0.51100000000E-03 0. -1.
</event>
<event>
 8    1  0.1109553E+005  0.1043930E+01  0.7957747E-01            NaN
         13   -1    0    0    0    0  0.00000000000E+00  0.00000000000E+00  0.74505805969E-08  0.10566000000E+00  0.10566000000E+00 0.  1.
     999900   -1    0    0    0    0 -0.00000000000E+00 -0.00000000000E+00 -0.74505805969E-08  0.93827000000E+00  0.93827000000E+00 0.  1.
     999902    2    1    2    0    0 -0.12647036729E-01  0.16917384704E-01  0.10187271579E-01  0.10204795001E+01  0.10202100196E+01 0.  0.
     999903    2    3    3    0    0 -0.65659052379E-01  0.99926871164E-01 -0.53904903496E-01  0.13266834025E+00  0.19966450481E-01 0.  0.
         14    1    1    2    0    0  0.12647036729E-01 -0.16917384704E-01 -0.10187271579E-01  0.23450499898E-01  0.00000000000E+00 0. -1.
     999901    1    3    3    0    0  0.53012015650E-01 -0.83009486460E-01  0.64092175075E-01  0.88781115985E+00  0.88000000000E+00 0. -1.
        -11    1    4    4    0    0 -0.39811677058E-01  0.45131127727E-01 -0.21140118561E-01  0.63788353592E-01  0.51100000000E-03 0. -1.
         11    1    4    4    0    0 -0.25847375320E-01  0.54795743437E-01 -0.32764784935E-01  0.68879986662E-01  0.51100000000E-03 0.  1.
</event>
<event>
 8    1  0.1109553E+005  0.1043930E+01  0.7957747E-01            NaN
         13   -1    0    0    0    0  0.00000000000E+00  0.00000000000E+00  0.74505805969E-08  0.10566000000E+00  0.10566000000E+00 0. -1.
     999900   -1    0    0    0    0 -0.00000000000E+00 -0.00000000000E+00 -0.74505805969E-08  0.93827000000E+00  0.93827000000E+00 0. -1.
     999902    2    1    2    0    0 -0.13906019933E-01  0.10177356590E-01 -0.15232543023E-01  0.10209302969E+01  0.10206711932E+01 0.  0.
     999903    2    3    3    0    0 -0.80614022974E-01  0.22419263886E-01 -0.10277909125E+00  0.13398936305E+00  0.19706945989E-01 0.  0.
         14    1    1    2    0    0  0.13906019933E-01 -0.10177356590E-01  0.15232543023E-01  0.22999703139E-01  0.00000000000E+00 0. -1.
     999901    1    3    3    0    0  0.66708003041E-01 -0.12241907296E-01  0.87546548222E-01  0.88694093381E+00  0.88000000000E+00 0.  1.
        -11    1    4    4    0    0 -0.48221029119E-01  0.50864728866E-02 -0.49726928446E-01  0.69456233625E-01  0.51100000000E-03 0.  1.
         11    1    4    4    0    0 -0.32392993854E-01  0.17332790999E-01 -0.53052162799E-01  0.64533129424E-01  0.51100000000E-03 0. -1.
</event>
<event>
 7    1  0.1109553E+005  0.1043930E+01  0.7957747E-01            NaN
         13   -1    0    0    0    0  0.00000000000E+00  0.00000000000E+00  0.74505805969E-08  0.10566000000E+00  0.10566000000E+00 0. -1.
     999900   -1    0    0    0    0 -0.00000000000E+00 -0.00000000000E+00 -0.74505805969E-08  0.93827000000E+00  0.93827000000E+00 0.  1.
     999903    2    1    2    0    0  0.77262336721E-01  0.44921011005E-01 -0.50149851524E-01  0.10432563898E+00  0.19531140127E-01 0.  0.
         14    1    1    2    0    0 -0.25829391802E-01  0.14864937513E-02 -0.44857464527E-01  0.51783774180E-01  0.00000000000E+00 0.  1.
     999901    1    1    2    0    0 -0.51432944919E-01 -0.46407504756E-01  0.95007316051E-01  0.88782058684E+00  0.88000000000E+00 0.  1.
        -11    1    3    3    0    0  0.30007817524E-01  0.26577829860E-01 -0.15793125115E-01  0.43087516458E-01  0.51100000000E-03 0.  1.
         11    1    3    3    0    0  0.47254519197E-01  0.18343181145E-01 -0.34356726409E-01  0.61238122518E-01  0.51100000000E-03 0. -1.
</event>
<event>
 8    1  0.1109553E+005  0.1043930E+01  0.7957747E-01            NaN
         13   -1    0    0    0    0  0.00000000000E+00  0.00000000000E+00  0.74505805969E-08  0.10566000000E+00  0.10566000000E+00 0. -1.
     999900   -1    0    0    0    0 -0.00000000000E+00 -0.00000000000E+00 -0.74505805969E-08  0.93827000000E+00  0.93827000000E+00 0.  1.
     999902    2    1    2    0    0 -0.12795937640E-01 -0.43004326792E-03  0.19433700108E-01  0.10206579211E+01  0.10203925726E+01 0.  0.
     999903    2    3    3    0    0  0.23170327789E-01  0.18832618665E-01 -0.12225526361E+00  0.12839092918E+00  0.25423406536E-01 0.  0.
         14    1    1    2    0    0  0.12795937640E-01  0.43004326792E-03 -0.19433700108E-01  0.23272078919E-01  0.00000000000E+00 0.  1.
     999901    1    3    3    0    0 -0.35966265429E-01 -0.19262661933E-01  0.14168896372E+00  0.89226699190E+00  0.88000000000E+00 0. -1.
        -11    1    4    4    0    0 -0.12020864747E-02  0.11341692386E-01 -0.20256023446E-01  0.23251808638E-01  0.51100000000E-03 0.  1.
         11    1    4    4    0    0  0.24372414263E-01  0.74909262793E-02 -0.10199924017E+00  0.10513912054E+00  0.51100000000E-03 0. -1.
</event>
<event>
 8    1  0.1109553E+005  0.1043930E+01  0.7957747E-01            NaN
         13   -1    0    0    0    0  0.00000000000E+00  0.00000000000E+00  0.74505805969E-08  0.10566000000E+00  0.10566000000E+00 0.  1.
     999900   -1    0    0    0    0 -0.00000000000E+00 -0.00000000000E+00 -0.74505805969E-08  0.93827000000E+00  0.93827000000E+00 0.  1.
     999902    2    1    2    0    0 -0.41023608080E-03  0.11607589831E-01 -0.19908373474E-01  0.10208811872E+01  0.10206209633E+01 0.  0.
     999903    2    3    3    0    0 -0.63591756045E-01  0.11443414987E+00  0.77108309171E-03  0.13240336206E+00  0.19772951801E-01 0.  0.
         14    1    1    2    0    0  0.41023608080E-03 -0.11607589831E-01  0.19908373474E-01  0.23048812761E-01  0.00000000000E+00 0.  1.
     999901    1    3    3    0    0  0.63181519964E-01 -0.10282656003E+00 -0.20679456565E-01  0.88847782518E+00  0.88000000000E+00 0. -1.
        -11    1    4    4    0    0 -0.47964347945E-01  0.94030275563E-01  0.75216270483E-02  0.10582583518E+00  0.51100000000E-03 0.  1.
         11    1    4    4    0    0 -0.15627408100E-01  0.20403874302E-01 -0.67505439566E-02  0.26577526882E-01  0.51100000000E-03 0. -1.
</event>
<event>
 8    1  0.1374261E+005  0.1043930E+01  0.7957747E-01            NaN
         13   -1    0    0    0    0  0.00000000000E+00  0.00000000000E+00  0.74505805969E-08  0.10566000000E+00  0.10566000000E+00 0. -1.
     999900   -1    0    0    0    0 -0.00000000000E+00 -0.00000000000E+00 -0.74505805969E-08  0.93827000000E+00  0.93827000000E+00 0.  1.
     999902    2    1    2    0    0  0.16332819512E-02  0.85704523066E-02 -0.23138961816E-01  0.10192008307E+01  0.10189007809E+01 0.  0.
     999903    2    3    3    0    0 -0.41502419547E-01  0.30035848369E-01 -0.12061239457E+00  0.13250893260E+00  0.19663786033E-01 0.  0.
         14    1    1    2    0    0 -0.16332819512E-02 -0.85704523066E-02  0.23138961816E-01  0.24729169347E-01  0.00000000000E+00 0. -1.
     999901    1    3    3    0    0  0.43135701498E-01 -0.21465396062E-01  0.97473432752E-01  0.88669189805E+00  0.88000000000E+00 0. -1.
        -11    1    4    4    0    0 -0.10259737636E-01  0.16134313862E-01 -0.59235756909E-01  0.62247203293E-01  0.51100000000E-03 0. -1.
         11    1    4    4    0    0 -0.31242681911E-01  0.13901534507E-01 -0.61376637659E-01  0.70261729312E-01  0.51100000000E-03 0.  1.
</event>
<event>
 8    1  0.1109553E+005  0.1043930E+01  0.7957747E-01            NaN
         13   -1    0    0    0    0  0.00000000000E+00  0.00000000000E+00  0.74505805969E-08  0.10566000000E+00  0.10566000000E+00 0.  1.
     999900   -1    0    0    0    0 -0.00000000000E+00 -0.00000000000E+00 -0.74505805969E-08  0.93827000000E+00  0.93827000000E+00 0.  1.
     999902    2    1    2    0    0  0.11119572862E-01 -0.31010599851E-02 -0.16419358208E-01  0.10238587071E+01  0.10236619537E+01 0.  0.
     999903    2    3    3    0    0  0.91797231542E-01  0.50967487890E-01 -0.83927574060E-01  0.13594561921E+00  0.20321347272E-01 0.  0.
         14    1    1    2    0    0 -0.11119572862E-01  0.31010599851E-02  0.16419358208E-01  0.20071292874E-01  0.00000000000E+00 0.  1.
     999901    1    3    3    0    0 -0.80677658680E-01 -0.54068547875E-01  0.67508215852E-01  0.88791308791E+00  0.88000000000E+00 0. -1.
        -11    1    4    4    0    0  0.51532369273E-01  0.18116678555E-01 -0.37503484418E-01  0.66261388374E-01  0.51100000000E-03 0.  1.
         11    1    4    4    0    0  0.40264862270E-01  0.32850809336E-01 -0.46424089642E-01  0.69684230840E-01  0.51100000000E-03 0. -1.
</event>
<event>
 8    1  0.1109553E+005  0.1043930E+01  0.7957747E-01            NaN
         13   -1    0    0    0    0  0.00000000000E+00  0.00000000000E+00  0.74505805969E-08  0.10566000000E+00  0.10566000000E+00 0.  1.
     999900   -1    0    0    0    0 -0.00000000000E+00 -0.00000000000E+00 -0.74505805969E-08  0.93827000000E+00  0.93827000000E+00 0. -1.
     999902    2    1    2    0    0  0.26160596254E-01 -0.16438274940E-01 -0.12448002086E-01  0.10106201451E+01  0.10100710525E+01 0.  0.
     999903    2    3    3    0    0  0.72181770758E-01  0.16889920870E-01 -0.98229608495E-01  0.12462511058E+00  0.19669386021E-01 0.  0.
         14    1    1    2    0    0 -0.26160596254E-01  0.16438274940E-01  0.12448002086E-01  0.33309854928E-01  0.00000000000E+00 0. -1.
     999901    1    3    3    0    0 -0.46021174504E-01 -0.33328195809E-01  0.85781606409E-01  0.88599503449E+00  0.88000000000E+00 0.  1.
        -11    1    4    4    0    0  0.18578307035E-01  0.60269157280E-02 -0.41245507119E-01  0.45639129965E-01  0.51100000000E-03 0.  1.
         11    1    4    4    0    0  0.53603463723E-01  0.10863005142E-01 -0.56984101376E-01  0.78985980620E-01  0.51100000000E-03 0. -1.
</event>
<event>
 8    1  0.1109553E+005  0.1043930E+01  0.7957747E-01            NaN
         13   -1    0    0    0    0  0.00000000000E+00  0.00000000000E+00  0.74505805969E-08  0.10566000000E+00  0.10566000000E+00 0. -1.
     999900   -1    0    0    0    0 -0.00000000000E+00 -0.00000000000E+00 -0.74505805969E-08  0.93827000000E+00  0.93827000000E+00 0.  1.
     999902    2    1    2    0    0  0.12359922814E-01  0.85855277919E-03  0.24396120924E-01  0.10165680644E+01  0.10161997609E+01 0.  0.
     999903    2    3    3    0    0  0.44895870255E-01 -0.79600163874E-01 -0.84091140909E-01  0.12566869916E+00  0.19221777109E-01 0.  0.
         14    1    1    2    0    0 -0.12359922814E-01 -0.85855277919E-03 -0.24396120924E-01  0.27361935622E-01  0.00000000000E+00 0.  1.
     999901    1    3    3    0    0 -0.32535947440E-01  0.80458716653E-01  0.10848726183E+00  0.89089936522E+00  0.88000000000E+00 0. -1.
        -11    1    4    4    0    0  0.26788062401E-01 -0.53039675275E-01 -0.42294660758E-01  0.72937691834E-01  0.51100000000E-03 0.  1.
         11    1    4    4    0    0  0.18107807854E-01 -0.26560488599E-01 -0.41796480151E-01  0.52731007328E-01  0.51100000000E-03 0. -1.
</event>
<event>
 8    1  0.1109553E+005  0.1043930E+01  0.7957747E-01            NaN
         13   -1    0    0    0    0  0.00000000000E+00  0.00000000000E+00  0.74505805969E-08  0.10566000000E+00  0.10566000000E+00 0.  1.
     999900   -1    0    0    0    0 -0.00000000000E+00 -0.00000000000E+00 -0.74505805969E-08  0.93827000000E+00  0.93827000000E+00 0.  1.
     999902    2    1    2    0    0  0.17201355509E-01 -0.74451446615E-02  0.85135468989E-02  0.10233436625E+01  0.10231365766E+01 0.  0.
     999903    2    3    3    0    0  0.10259531867E+00 -0.35904939594E-01 -0.76798109480E-01  0.13464789478E+00  0.20424050750E-01 0.  0.
         14    1    1    2    0    0 -0.17201355509E-01  0.74451446615E-02 -0.85135468989E-02  0.20586337488E-01  0.00000000000E+00 0. -1.
     999901    1    3    3    0    0 -0.85393963159E-01  0.28459794933E-01  0.85311656379E-01  0.88869576773E+00  0.88000000000E+00 0. -1.
        -11    1    4    4    0    0  0.51844911653E-01 -0.20934133435E-01 -0.51414875789E-01  0.75959748422E-01  0.51100000000E-03 0. -1.
         11    1    4    4    0    0  0.50750407015E-01 -0.14970806160E-01 -0.25383233691E-01  0.58688146357E-01  0.51100000000E-03 0.  1.
</event>
<event>
 8    1  0.1109553E+005  0.1043930E+01  0.7957747E-01            NaN
         13   -1    0    0    0    0  0.00000000000E+00  0.00000000000E+00  0.74505805969E-08  0.10566000000E+00  0.10566000000E+00 0.  1.
     999900   -1    0    0    0    0 -0.00000000000E+00 -0.00000000000E+00 -0.74505805969E-08  0.93827000000E+00  0.93827000000E+00 0. -1.
     999902    2    1    2    0    0 -0.15722606871E-01 -0.16782466042E-01 -0.25898251199E-03  0.10209317695E+01  0.10206726995E+01 0.  0.
     999903    2    3    3    0    0  0.97365889534E-01  0.54333258086E-01 -0.61224311811E-01  0.12876405792E+00  0.19988668722E-01 0.  0.
         14    1    1    2    0    0  0.15722606871E-01  0.16782466042E-01  0.25898251199E-03  0.22998230480E-01  0.00000000000E+00 0.  1.
     999901    1    3    3    0    0 -0.11308849641E+00 -0.71115724128E-01  0.60965329299E-01  0.89216771160E+00  0.88000000000E+00 0.  1.
        -11    1    4    4    0    0  0.46449588295E-01  0.31291960170E-01 -0.20629184796E-01  0.59687313647E-01  0.51100000000E-03 0.  1.
         11    1    4    4    0    0  0.50916301239E-01  0.23041297917E-01 -0.40595127015E-01  0.69076744277E-01  0.51100000000E-03 0. -1.
</event>
<event>
 8    1  0.1109553E+005  0.1043930E+01  0.7957747E-01            NaN
         13   -1    0    0    0    0  0.00000000000E+00  0.00000000000E+00  0.74505805969E-08  0.10566000000E+00  0.10566000000E+00 0.  1.
     999900   -1    0    0    0    0 -0.00000000000E+00 -0.00000000000E+00 -0.74505805969E-08  0.93827000000E+00  0.93827000000E+00 0. -1.
     999902    2    1    2    0    0 -0.19942737321E-01 -0.60377982442E-02 -0.97947009531E-02  0.10209060137E+01  0.10206463564E+01 0.  0.
     999903    2    3    3    0    0  0.54475332938E-01  0.12034094133E-01 -0.11710825418E+00  0.13108533445E+00  0.18884924969E-01 0.  0.
         14    1    1    2    0    0  0.19942737321E-01  0.60377982442E-02  0.97947009531E-02  0.23023986324E-01  0.00000000000E+00 0.  1.
     999901    1    3    3    0    0 -0.74418070259E-01 -0.18071892377E-01  0.10731355322E+00  0.88982067923E+00  0.88000000000E+00 0.  1.
        -11    1    4    4    0    0  0.14188120384E-01  0.33768900469E-02 -0.52187308700E-01  0.54189320505E-01  0.51100000000E-03 0.  1.
         11    1    4    4    0    0  0.40287212554E-01  0.86572040860E-02 -0.64920945475E-01  0.76896013943E-01  0.51100000000E-03 0. -1.
</event>
<event>
 8    1  0.1109553E+005  0.1043930E+01  0.7957747E-01            NaN
         13   -1    0    0    0    0  0.00000000000E+00  0.00000000000E+00  0.74505805969E-08  0.10566000000E+00  0.10566000000E+00 0. -1.
     999900   -1    0    0    0    0 -0.00000000000E+00 -0.00000000000E+00 -0.74505805969E-08  0.93827000000E+00  0.93827000000E+00 0.  1.
     999902    2    1    2    0    0  0.18990729581E-01  0.52708687877E-03 -0.14430372370E-01  0.10200728988E+01  0.10197938800E+01 0.  0.
     999903    2    3    3    0    0  0.35822990620E-01  0.25378220722E-01  0.11955540731E+00  0.12942532933E+00  0.23023459976E-01 0.  0.
         14    1    1    2    0    0 -0.18990729581E-01 -0.52708687877E-03  0.14430372370E-01  0.23857101193E-01  0.00000000000E+00 0. -1.
     999901    1    3    3    0    0 -0.16832261039E-01 -0.24851133843E-01 -0.13398577968E+00  0.89064756948E+00  0.88000000000E+00 0.  1.
        -11    1    4    4    0    0  0.18370706917E-01  0.25302529008E-01  0.64758270901E-01  0.71913806866E-01  0.51100000000E-03 0. -1.
         11    1    4    4    0    0  0.17452283703E-01  0.75691713768E-04  0.54797136413E-01  0.57511522460E-01  0.51100000000E-03 0.  1.
</event>
<event>
 8    1  0.1109553E+005  0.1043930E+01  0.7957747E-01            NaN
         13   -1    0    0    0    0  0.00000000000E+00  0.00000000000E+00  0.74505805969E-08  0.10566000000E+00  0.10566000000E+00 0.  1.
     999900   -1    0    0    0    0 -0.00000000000E+00 -0.00000000000E+00 -0.74505805969E-08  0.93827000000E+00  0.93827000000E+00 0. -1.
     999902    2    1    2    0    0  0.22276833651E-01  0.91571071197E-03  0.81567715452E-02  0.10201891330E+01  0.10199128582E+01 0.  0.
     999903    2    3    3    0    0  0.33166539790E-02  0.92760051659E-01  0.90854965391E-01  0.13135064225E+00  0.19568829979E-01 0.  0.
         14    1    1    2    0    0 -0.22276833651E-01 -0.91571071197E-03 -0.81567715452E-02  0.23740866994E-01  0.00000000000E+00 0. -1.
     999901    1    3    3    0    0  0.18960179672E-01 -0.91844340947E-01 -0.82698193846E-01  0.88883849075E+00  0.88000000000E+00 0. -1.
        -11    1    4    4    0    0 -0.42935240229E-02  0.75775349076E-01  0.77203297736E-01  0.10826332795E+00  0.51100000000E-03 0.  1.
         11    1    4    4    0    0  0.76101780019E-02  0.16984702583E-01  0.13651667655E-01  0.23087314305E-01  0.51100000000E-03 0. -1.
</event>
<event>
 8    1  0.1109553E+005  0.1043930E+01  0.7957747E-01            NaN
         13   -1    0    0    0    0  0.00000000000E+00  0.00000000000E+00  0.74505805969E-08  0.10566000000E+00  0.10566000000E+00 0. -1.
     999900   -1    0    0    0    0 -0.00000000000E+00 -0.00000000000E+00 -0.74505805969E-08  0.93827000000E+00  0.93827000000E+00 0.  1.
     999902    2    1    2    0    0  0.15774884266E-01 -0.14062885766E-01 -0.10454200770E-01  0.10203524250E+01  0.10200799817E+01 0.  0.
     999903    2    3    3    0    0  0.18901465085E-01  0.99606263436E-01  0.76809795285E-01  0.12875528727E+00  0.19987652422E-01 0.  0.
         14    1    1    2    0    0 -0.15774884266E-01  0.14062885766E-01  0.10454200770E-01  0.23577575011E-01  0.00000000000E+00 0. -1.
     999901    1    3    3    0    0 -0.31265808192E-02 -0.11366914920E+00 -0.87263996055E-01  0.89159713772E+00  0.88000000000E+00 0.  1.
        -11    1    4    4    0    0  0.66950816196E-02  0.54098572034E-01  0.29499720873E-01  0.61983661288E-01  0.51100000000E-03 0. -1.
         11    1    4    4    0    0  0.12206383465E-01  0.45507691402E-01  0.47310074411E-01  0.66771625979E-01  0.51100000000E-03 0.  1.
</event>
<event>
 8    1  0.1109553E+005  0.1043930E+01  0.7957747E-01            NaN
         13   -1    0    0    0    0  0.00000000000E+00  0.00000000000E+00  0.74505805969E-08  0.10566000000E+00  0.10566000000E+00 0. -1.
     999900   -1    0    0    0    0 -0.00000000000E+00 -0.00000000000E+00 -0.74505805969E-08  0.93827000000E+00  0.93827000000E+00 0. -1.
     999902    2    1    2    0    0 -0.19716521206E-01 -0.11923850933E-01  0.58113144573E-02  0.10201667762E+01  0.10198899747E+01 0.  0.
     999903    2    3    3    0    0 -0.17138466400E-01 -0.82781788616E-01 -0.98349551553E-01  0.13119153487E+00  0.19799822549E-01 0.  0.
         14    1    1    2    0    0  0.19716521206E-01  0.11923850933E-01 -0.58113144573E-02  0.23763223798E-01  0.00000000000E+00 0. -1.
     999901    1    3    3    0    0 -0.25780548062E-02  0.70857937683E-01  0.10416086601E+00  0.88897524134E+00  0.88000000000E+00 0.  1.
        -11    1    4    4    0    0 -0.15871954176E-01 -0.29487613796E-01 -0.36528772590E-01  0.49558557734E-01  0.51100000000E-03 0.  1.
         11    1    4    4    0    0 -0.12665122243E-02 -0.53294174819E-01 -0.61820778964E-01  0.81632977133E-01  0.51100000000E-03 0. -1.
</event>
<event>
 8    1  0.1109553E+005  0.1043930E+01  0.7957747E-01            NaN
         13   -1    0    0    0    0  0.00000000000E+00  0.00000000000E+00  0.74505805969E-08  0.10566000000E+00  0.10566000000E+00 0. -1.
     999900   -1    0    0    0    0 -0.00000000000E+00 -0.00000000000E+00 -0.74505805969E-08  0.93827000000E+00  0.93827000000E+00 0.  1.
     999902    2    1    2    0    0  0.16510527246E-01 -0.50538857354E-02  0.17016078728E-01  0.10196877599E+01  0.10193995495E+01 0.  0.
     999903    2    3    3    0    0 -0.42627763160E-01 -0.68302901981E-01 -0.97803684505E-01  0.12801441527E+00  0.18431418921E-01 0.  0.
         14    1    1    2    0    0 -0.16510527246E-01  0.50538857354E-02 -0.17016078728E-01  0.24242240125E-01  0.00000000000E+00 0.  1.
     999901    1    3    3    0    0  0.59138290406E-01  0.63249016246E-01  0.11481976323E+00  0.89167334460E+00  0.88000000000E+00 0.  1.
        -11    1    4    4    0    0 -0.33377879245E-01 -0.45281345357E-01 -0.78492418603E-01  0.96570202234E-01  0.51100000000E-03 0.  1.
         11    1    4    4    0    0 -0.92498839151E-02 -0.23021556624E-01 -0.19311265901E-01  0.31444213038E-01  0.51100000000E-03 0. -1.
</event>
<event>
 8    1  0.1109553E+005  0.1043930E+01  0.7957747E-01            NaN
         13   -1    0    0    0    0  0.00000000000E+00  0.00000000000E+00  0.74505805969E-08  0.10566000000E+00  0.10566000000E+00 0.  1.
     999900   -1    0    0    0    0 -0.00000000000E+00 -0.00000000000E+00 -0.74505805969E-08  0.93827000000E+00  0.93827000000E+00 0.  1.
     999902    2    1    2    0    0  0.22753511267E-01 -0.34028055601E-02 -0.38258784482E-02  0.10206075064E+01  0.10203409937E+01 0.  0.
     999903    2    3    3    0    0 -0.10893733021E+00 -0.65368947091E-01 -0.21792648930E-02  0.12865179465E+00  0.20151772029E-01 0.  0.
         14    1    1    2    0    0 -0.22753511267E-01  0.34028055602E-02  0.38258784482E-02  0.23322493575E-01  0.00000000000E+00 0. -1.
     999901    1    3    3    0    0  0.13169084147E+00  0.61966141531E-01 -0.16466135552E-02  0.89195571177E+00  0.88000000000E+00 0.  1.
        -11    1    4    4    0    0 -0.35798748072E-01 -0.16891770041E-01 -0.91415186645E-02  0.40628939724E-01  0.51100000000E-03 0.  1.
         11    1    4    4    0    0 -0.73138582135E-01 -0.48477177050E-01  0.69622537715E-02  0.88022854930E-01  0.51100000000E-03 0. -1.
</event>
<event>
 8    1  0.1109553E+005  0.1043930E+01  0.7957747E-01            NaN
         13   -1    0    0    0    0  0.00000000000E+00  0.00000000000E+00  0.74505805969E-08  0.10566000000E+00  0.10566000000E+00 0. -1.
     999900   -1    0    0    0    0 -0.00000000000E+00 -0.00000000000E+00 -0.74505805969E-08  0.93827000000E+00  0.93827000000E+00 0.  1.
     999902    2    1    2    0    0  0.17434121545E-01  0.26669028794E-01  0.48845232155E-02  0.10116957906E+01  0.10111821440E+01 0.  0.
     999903    2    3    3    0    0 -0.53152291305E-01 -0.46034001049E-01  0.96684582122E-01  0.12113673972E+00  0.19542414546E-01 0.  0.
         14    1    1    2    0    0 -0.17434121545E-01 -0.26669028794E-01 -0.48845232155E-02  0.32234209435E-01  0.00000000000E+00 0. -1.
     999901    1    3    3    0    0  0.70586412850E-01  0.72703029843E-01 -0.91800058906E-01  0.89055905085E+00  0.88000000000E+00 0.  1.
        -11    1    4    4    0    0 -0.47751534804E-01 -0.32575520186E-01  0.83319593239E-01  0.10140901996E+00  0.51100000000E-03 0.  1.
         11    1    4    4    0    0 -0.54007565007E-02 -0.13458480863E-01  0.13364988883E-01  0.19727719755E-01  0.51100000000E-03 0. -1.
</event>
<event>
 8    1  0.1109553E+005  0.1043930E+01  0.7957747E-01            NaN
         13   -1    0    0    0    0  0.00000000000E+00  0.00000000000E+00  0.74505805969E-08  0.10566000000E+00  0.10566000000E+00 0.  1.
     999900   -1    0    0    0    0 -0.00000000000E+00 -0.00000000000E+00 -0.74505805969E-08  0.93827000000E+00  0.93827000000E+00 0. -1.
     999902    2    1    2    0    0  0.22992627186E-01  0.33269485367E-02  0.80876123088E-02  0.10193304276E+01  0.10190335527E+01 0.  0.
     999903    2    3    3    0    0  0.13352762321E-02 -0.55041757564E-02 -0.12747204953E+00  0.12864336044E+00  0.16368013388E-01 0.  0.
         14    1    1    2    0    0 -0.22992627186E-01 -0.33269485367E-02 -0.80876123088E-02  0.24599572442E-01  0.00000000000E+00 0.  1.
     999901    1    3    3    0    0  0.21657350954E-01  0.88311242931E-02  0.13555966184E+00  0.89068706711E+00  0.88000000000E+00 0.  1.
        -11    1    4    4    0    0  0.22674392620E-03  0.37805383884E-02 -0.86958555967E-02  0.94985740442E-02  0.51100000000E-03 0.  1.
         11    1    4    4    0    0  0.11085323059E-02 -0.92847141448E-02 -0.11877619393E+00  0.11914478640E+00  0.51100000000E-03 0. -1.
</event>
<event>
 8    1  0.1109553E+005  0.1043930E+01  0.7957747E-01            NaN
         13   -1    0    0    0    0  0.00000000000E+00  0.00000000000E+00  0.74505805969E-08  0.10566000000E+00  0.10566000000E+00 0. -1.
     999900   -1    0    0    0    0 -0.00000000000E+00 -0.00000000000E+00 -0.74505805969E-08  0.93827000000E+00  0.93827000000E+00 0.  1.
     999902    2    1    2    0    0 -0.30558127872E-02  0.25566203074E-01  0.91059419620E-02  0.10166190698E+01  0.10162521567E+01 0.  0.
     999903    2    3    3    0    0 -0.90434629931E-01 -0.73194086202E-01  0.44249740304E-01  0.12610026649E+00  0.20185171434E-01 0.  0.
         14    1    1    2    0    0  0.30558127872E-02 -0.25566203074E-01 -0.91059419620E-02  0.27310930237E-01  0.00000000000E+00 0.  1.
     999901    1    3    3    0    0  0.87378817144E-01  0.98760289276E-01 -0.35143798342E-01  0.89051880327E+00  0.88000000000E+00 0. -1.
        -11    1    4    4    0    0 -0.38848187584E-01 -0.33408170042E-01  0.89925664197E-02  0.52023214779E-01  0.51100000000E-03 0. -1.
         11    1    4    4    0    0 -0.51586442346E-01 -0.39785916160E-01  0.35257173884E-01  0.74077051709E-01  0.51100000000E-03 0.  1.
</event>
<event>
 8    1  0.1109553E+005  0.1043930E+01  0.7957747E-01            NaN
         13   -1    0    0    0    0  0.00000000000E+00  0.00000000000E+00  0.74505805969E-08  0.10566000000E+00  0.10566000000E+00 0.  1.
     999900   -1    0    0    0    0 -0.00000000000E+00 -0.00000000000E+00 -0.74505805969E-08  0.93827000000E+00  0.93827000000E+00 0.  1.
     999902    2    1    2    0    0  0.20479857628E-01  0.71067921033E-02  0.87429319206E-02  0.10205554429E+01  0.10202877251E+01 0.  0.
     999903    2    3    3    0    0 -0.12144047782E+00 -0.26585372403E-01  0.24323690623E-01  0.12841234695E+00  0.21059849063E-01 0.  0.
         14    1    1    2    0    0 -0.20479857628E-01 -0.71067921033E-02 -0.87429319206E-02  0.23374557130E-01  0.00000000000E+00 0. -1.
     999901    1    3    3    0    0  0.14192033545E+00  0.33692164506E-01 -0.15580758702E-01  0.89214309592E+00  0.88000000000E+00 0.  1.
        -11    1    4    4    0    0 -0.81720455517E-01 -0.22246803441E-01  0.25449568275E-01  0.88436953587E-01  0.51100000000E-03 0. -1.
         11    1    4    4    0    0 -0.39720022307E-01 -0.43385689618E-02 -0.11258776525E-02  0.39975393359E-01  0.51100000000E-03 0.  1.
</event>
<event>
 8    1  0.1109553E+005  0.1043930E+01  0.7957747E-01            NaN
         13   -1    0    0    0    0  0.00000000000E+00  0.00000000000E+00  0.74505805969E-08  0.10566000000E+00  0.10566000000E+00 0.  1.
     999900   -1    0    0    0    0 -0.00000000000E+00 -0.00000000000E+00 -0.74505805969E-08  0.93827000000E+00  0.93827000000E+00 0.  1.
     999902    2    1    2    0    0 -0.14709656823E-01 -0.14946656299E-01  0.98667594073E-02  0.10207539460E+01  0.10204908078E+01 0.  0.
     999903    2    3    3    0    0  0.51002891896E-02  0.10824359219E+00 -0.66285987208E-01  0.12869592540E+00  0.20642696374E-01 0.  0.
         14    1    1    2    0    0  0.14709656823E-01  0.14946656299E-01 -0.98667594073E-02  0.23176054012E-01  0.00000000000E+00 0. -1.
     999901    1    3    3    0    0 -0.19809946012E-01 -0.12319024849E+00  0.76152746615E-01  0.89205802059E+00  0.88000000000E+00 0. -1.
        -11    1    4    4    0    0  0.74105033348E-02  0.55643709409E-01 -0.44822092651E-01  0.71836056873E-01  0.51100000000E-03 0.  1.
         11    1    4    4    0    0 -0.23102141453E-02  0.52599882781E-01 -0.21463894557E-01  0.56859868524E-01  0.51100000000E-03 0. -1.
</event>
<event>
 8    1  0.1109553E+005  0.1043930E+01  0.7957747E-01            NaN
         13   -1    0    0    0    0  0.00000000000E+00  0.00000000000E+00  0.74505805969E-08  0.10566000000E+00  0.10566000000E+00 0.  1.
     999900   -1    0    0    0    0 -0.00000000000E+00 -0.00000000000E+00 -0.74505805969E-08  0.93827000000E+00  0.93827000000E+00 0. -1.
     999902    2    1    2    0    0 -0.18380339578E-01  0.75260756811E-03  0.18409852740E-01  0.10179045129E+01  0.10175717525E+01 0.  0.
     999903    2    3    3    0    0  0.10542736774E+00 -0.57834733828E-01  0.35177144904E-01  0.12715091787E+00  0.21682667891E-01 0.  0.
         14    1    1    2    0    0  0.18380339578E-01 -0.75260756811E-03 -0.18409852740E-01  0.26025487105E-01  0.00000000000E+00 0. -1.
     999901    1    3    3    0    0 -0.12380770731E+00  0.58587341397E-01 -0.16767292164E-01  0.89075359502E+00  0.88000000000E+00 0.  1.
        -11    1    4    4    0    0  0.66132935433E-01 -0.42386251634E-01  0.13559722701E-01  0.79713779720E-01  0.51100000000E-03 0. -1.
         11    1    4    4    0    0  0.39294432304E-01 -0.15448482194E-01  0.21617422203E-01  0.47437138151E-01  0.51100000000E-03 0.  1.
</event>
<event>
 7    1  0.1109553E+005  0.1043930E+01  0.7957747E-01            NaN
         13   -1    0    0    0    0  0.00000000000E+00  0.00000000000E+00  0.74505805969E-08  0.10566000000E+00  0.10566000000E+00 0. -1.
     999900   -1    0    0    0    0 -0.00000000000E+00 -0.00000000000E+00 -0.74505805969E-08  0.93827000000E+00  0.93827000000E+00 0. -1.
     999903    2    1    2    0    0  0.28173760874E-01  0.38342290226E-01  0.33291622184E-01  0.61146189536E-01  0.19147646476E-01 0.  0.
         14    1    1    2    0    0  0.41752315111E-01  0.14153579833E-01  0.79880243108E-01  0.91238330093E-01  0.00000000000E+00 0. -1.
     999901    1    1    2    0    0 -0.69926075985E-01 -0.52495870059E-01 -0.11317186529E+00  0.89154548037E+00  0.88000000000E+00 0. -1.
        -11    1    3    3    0    0  0.21985529327E-01  0.14391872500E-01  0.14044768235E-01  0.29799431700E-01  0.51100000000E-03 0.  1.
         11    1    3    3    0    0  0.61882315473E-02  0.23950417726E-01  0.19246853949E-01  0.31346757836E-01  0.51100000000E-03 0. -1.
</event>
<event>
 8    1  0.1109553E+005  0.1043930E+01  0.7957747E-01            NaN
         13   -1    0    0    0    0  0.00000000000E+00  0.00000000000E+00  0.74505805969E-08  0.10566000000E+00  0.10566000000E+00 0.  1.
     999900   -1    0    0    0    0 -0.00000000000E+00 -0.00000000000E+00 -0.74505805969E-08  0.93827000000E+00  0.93827000000E+00 0. -1.
     999902    2    1    2    0    0  0.11750519680E-01  0.11818552891E-01  0.16318161222E-01  0.10206054359E+01  0.10203388753E+01 0.  0.
     999903    2    3    3    0    0  0.13086015528E+00  0.46644834489E-02  0.46047213214E-02  0.13247510161E+00  0.19552786030E-01 0.  0.
         14    1    1    2    0    0 -0.11750519680E-01 -0.11818552891E-01 -0.16318161222E-01  0.23324564109E-01  0.00000000000E+00 0. -1.
     999901    1    3    3    0    0 -0.11910963560E+00  0.71540694425E-02  0.11713439901E-01  0.88813033428E+00  0.88000000000E+00 0.  1.
        -11    1    4    4    0    0  0.74367864623E-01  0.88806638846E-02 -0.47843280546E-02  0.75050625551E-01  0.51100000000E-03 0.  1.
         11    1    4    4    0    0  0.56492290656E-01 -0.42161804357E-02  0.93890493760E-02  0.57424476055E-01  0.51100000000E-03 0. -1.
</event>
<event>
 8    1  0.1109553E+005  0.1043930E+01  0.7957747E-01            NaN
         13   -1    0    0    0    0  0.00000000000E+00  0.00000000000E+00  0.74505805969E-08  0.10566000000E+00  0.10566000000E+00 0. -1.
     999900   -1    0    0    0    0 -0.00000000000E+00 -0.00000000000E+00 -0.74505805969E-08  0.93827000000E+00  0.93827000000E+00 0. -1.
     999902    2    1    2    0    0 -0.23409222772E-01 -0.48400744593E-02  0.13951817206E-02  0.10199849679E+01  0.10197038639E+01 0.  0.
     999903    2    3    3    0    0  0.30232270802E-02  0.70253070582E-02  0.12861656093E+00  0.13036440774E+00  0.19853569384E-01 0.  0.
         14    1    1    2    0    0  0.23409222772E-01  0.48400744593E-02 -0.13951817206E-02  0.23945032128E-01  0.00000000000E+00 0.  1.
     999901    1    3    3    0    0 -0.26432449852E-01 -0.11865381518E-01 -0.12722137921E+00  0.88962056013E+00  0.88000000000E+00 0. -1.
        -11    1    4    4    0    0  0.36142217651E-02  0.13033353219E-01  0.10890259917E+00  0.10974045800E+00  0.51100000000E-03 0.  1.
         11    1    4    4    0    0 -0.59099468480E-03 -0.60080461606E-02  0.19713961769E-01  0.20623949743E-01  0.51100000000E-03 0. -1.
</event>
<event>
 8    1  0.1109553E+005  0.1043930E+01  0.7957747E-01            NaN
         13   -1    0    0    0    0  0.00000000000E+00  0.00000000000E+00  0.74505805969E-08  0.10566000000E+00  0.10566000000E+00 0. -1.
     999900   -1    0    0    0    0 -0.00000000000E+00 -0.00000000000E+00 -0.74505805969E-08  0.93827000000E+00  0.93827000000E+00 0.  1.
     999902    2    1    2    0    0 -0.31315538125E-02 -0.20093326807E-01  0.11891141498E-01  0.10203726730E+01  0.10201007029E+01 0.  0.
     999903    2    3    3    0    0 -0.10918523386E+00 -0.68937394411E-01 -0.19164285267E-01  0.13211732367E+00  0.20345460032E-01 0.  0.
         14    1    1    2    0    0  0.31315538125E-02  0.20093326807E-01 -0.11891141498E-01  0.23557327046E-01  0.00000000000E+00 0.  1.
     999901    1    3    3    0    0  0.10605368005E+00  0.48844067604E-01  0.31055426764E-01  0.88825534928E+00  0.88000000000E+00 0. -1.
        -11    1    4    4    0    0 -0.59151190981E-01 -0.48897441709E-01 -0.90886423671E-02  0.77283165962E-01  0.51100000000E-03 0.  1.
         11    1    4    4    0    0 -0.50034042879E-01 -0.20039952702E-01 -0.10075642899E-01  0.54834157712E-01  0.51100000000E-03 0. -1.
</event>
<event>
 8    1  0.1109553E+005  0.1043930E+01  0.7957747E-01            NaN
         13   -1    0    0    0    0  0.00000000000E+00  0.00000000000E+00  0.74505805969E-08  0.10566000000E+00  0.10566000000E+00 0. -1.
     999900   -1    0    0    0    0 -0.00000000000E+00 -0.00000000000E+00 -0.74505805969E-08  0.93827000000E+00  0.93827000000E+00 0.  1.
     999902    2    1    2    0    0 -0.91962687242E-02  0.18957442719E-01 -0.11056328682E-01  0.10201350762E+01  0.10198575270E+01 0.  0.
     999903    2    3    3    0    0 -0.78141478615E-01  0.11324348626E-01 -0.10448776907E+00  0.13247458926E+00  0.19937185417E-01 0.  0.
         14    1    1    2    0    0  0.91962687242E-02 -0.18957442719E-01  0.11056328682E-01  0.23794923761E-01  0.00000000000E+00 0. -1.
     999901    1    3    3    0    0  0.68945209891E-01  0.76330940928E-02  0.93431440388E-01  0.88766048698E+00  0.88000000000E+00 0. -1.
        -11    1    4    4    0    0 -0.75194347458E-01  0.78807154390E-02 -0.91425653966E-01  0.11863897711E+00  0.51100000000E-03 0. -1.
         11    1    4    4    0    0 -0.29471311569E-02  0.34436331871E-02 -0.13062115103E-01  0.13835612149E-01  0.51100000000E-03 0.  1.
</event>
<event>
 8    1  0.1109553E+005  0.1043930E+01  0.7957747E-01            NaN
         13   -1    0    0    0    0  0.00000000000E+00  0.00000000000E+00  0.74505805969E-08  0.10566000000E+00  0.10566000000E+00 0. -1.
     999900   -1    0    0    0    0 -0.00000000000E+00 -0.00000000000E+00 -0.74505805969E-08  0.93827000000E+00  0.93827000000E+00 0.  1.
     999902    2    1    2    0    0 -0.23116162738E-01  0.13946232828E-02 -0.11200815817E-01  0.10182052992E+01  0.10178802833E+01 0.  0.
     999903    2    3    3    0    0 -0.23232394799E-02  0.11176610399E+00  0.60681542509E-01  0.12815963590E+00  0.15671095371E-01 0.  0.
         14    1    1    2    0    0  0.23116162738E-01 -0.13946232828E-02  0.11200815817E-01  0.25724700752E-01  0.00000000000E+00 0.  1.
     999901    1    3    3    0    0 -0.20792923258E-01 -0.11037148070E+00 -0.71882358326E-01  0.89004566335E+00  0.88000000000E+00 0.  1.
        -11    1    4    4    0    0  0.23518832173E-02  0.76249529764E-01  0.48113541309E-01  0.90192550258E-01  0.51100000000E-03 0.  1.
         11    1    4    4    0    0 -0.46751226972E-02  0.35516574223E-01  0.12568001200E-01  0.37967085639E-01  0.51100000000E-03 0. -1.
</event>
<event>
 8    1  0.1109553E+005  0.1043930E+01  0.7957747E-01            NaN
         13   -1    0    0    0    0  0.00000000000E+00  0.00000000000E+00  0.74505805969E-08  0.10566000000E+00  0.10566000000E+00 0.  1.
     999900   -1    0    0    0    0 -0.00000000000E+00 -0.00000000000E+00 -0.74505805969E-08  0.93827000000E+00  0.93827000000E+00 0.  1.
     999902    2    1    2    0    0 -0.12364743706E-01 -0.74314450400E-02  0.18792430171E-01  0.10202388900E+01  0.10199637856E+01 0.  0.
     999903    2    3    3    0    0 -0.80341326650E-01  0.98046403873E-01  0.28046885181E-01  0.13128892661E+00  0.19553219711E-01 0.  0.
         14    1    1    2    0    0  0.12364743706E-01  0.74314450400E-02 -0.18792430171E-01  0.23691110021E-01  0.00000000000E+00 0. -1.
     999901    1    3    3    0    0  0.67976582944E-01 -0.10547784891E+00 -0.92544550100E-02  0.88894996337E+00  0.88000000000E+00 0. -1.
        -11    1    4    4    0    0 -0.31528952206E-01  0.45036061252E-01  0.32297185790E-02  0.55072804935E-01  0.51100000000E-03 0. -1.
         11    1    4    4    0    0 -0.48812374444E-01  0.53010342621E-01  0.24817166602E-01  0.76216121673E-01  0.51100000000E-03 0.  1.
</event>
<event>
 8    1  0.1109553E+005  0.1043930E+01  0.7957747E-01            NaN
         13   -1    0    0    0    0  0.00000000000E+00  0.00000000000E+00  0.74505805969E-08  0.10566000000E+00  0.10566000000E+00 0. -1.
     999900   -1    0    0    0    0 -0.00000000000E+00 -0.00000000000E+00 -0.74505805969E-08  0.93827000000E+00  0.93827000000E+00 0. -1.
     999902    2    1    2    0    0  0.33783121803E-02 -0.96409251351E-03 -0.21378488902E-01  0.10222647685E+01  0.10220351631E+01 0.  0.
     999903    2    3    3    0    0 -0.11689791794E-01 -0.55704477128E-01 -0.12089990189E+00  0.13483698604E+00  0.18016284950E-01 0.  0.
         14    1    1    2    0    0 -0.33783121803E-02  0.96409251351E-03  0.21378488902E-01  0.21665231485E-01  0.00000000000E+00 0. -1.
     999901    1    3    3    0    0  0.15068103974E-01  0.54740384615E-01  0.99521412986E-01  0.88742778247E+00  0.88000000000E+00 0.  1.
        -11    1    4    4    0    0 -0.12504237297E-01 -0.53879457818E-01 -0.10384661233E+00  0.11765938950E+00  0.51100000000E-03 0. -1.
         11    1    4    4    0    0  0.81444550300E-03 -0.18250193098E-02 -0.17053289561E-01  0.17177596538E-01  0.51100000000E-03 0.  1.
</event>
<event>
 8    1  0.1109553E+005  0.1043930E+01  0.7957747E-01            NaN
         13   -1    0    0    0    0  0.00000000000E+00  0.00000000000E+00  0.74505805969E-08  0.10566000000E+00  0.10566000000E+00 0. -1.
     999900   -1    0    0    0    0 -0.00000000000E+00 -0.00000000000E+00 -0.74505805969E-08  0.93827000000E+00  0.93827000000E+00 0.  1.
     999902    2    1    2    0    0  0.22840335270E-01 -0.45300040683E-02 -0.26280102088E-02  0.10204969402E+01  0.10202278651E+01 0.  0.
     999903    2    3    3    0    0  0.57469702784E-01 -0.72298845922E-01  0.92300860935E-01  0.13212579055E+00  0.20196181318E-01 0.  0.
         14    1    1    2    0    0 -0.22840335270E-01  0.45300040683E-02  0.26280102088E-02  0.23433059761E-01  0.00000000000E+00 0.  1.
     999901    1    3    3    0    0 -0.34629367514E-01  0.67768841854E-01 -0.94928871144E-01  0.88837114969E+00  0.88000000000E+00 0. -1.
        -11    1    4    4    0    0  0.19297375418E-01 -0.40315323717E-01  0.41785942281E-01  0.61188561985E-01  0.51100000000E-03 0. -1.
         11    1    4    4    0    0  0.38172327365E-01 -0.31983522205E-01  0.50514918654E-01  0.70937228567E-01  0.51100000000E-03 0.  1.
</event>
<event>
 8    1  0.1109553E+005  0.1043930E+01  0.7957747E-01            NaN
         13   -1    0    0    0    0  0.00000000000E+00  0.00000000000E+00  0.74505805969E-08  0.10566000000E+00  0.10566000000E+00 0.  1.
     999900   -1    0    0    0    0 -0.00000000000E+00 -0.00000000000E+00 -0.74505805969E-08  0.93827000000E+00  0.93827000000E+00 0. -1.
     999902    2    1    2    0    0  0.23524087745E-01  0.83634045496E-02  0.34770171170E-02  0.10187224835E+01  0.10184105653E+01 0.  0.
     999903    2    3    3    0    0 -0.12876954867E-01  0.31384492990E-01 -0.12244038336E+00  0.12871675422E+00  0.20628935334E-01 0.  0.
         14    1    1    2    0    0 -0.23524087745E-01 -0.83634045496E-02 -0.34770171170E-02  0.25207516496E-01  0.00000000000E+00 0. -1.
     999901    1    3    3    0    0  0.36401042611E-01 -0.23021088441E-01  0.12591740048E+00  0.89000572928E+00  0.88000000000E+00 0.  1.
        -11    1    4    4    0    0 -0.23010415742E-02  0.12878532253E-01 -0.18822910529E-01  0.22928464124E-01  0.51100000000E-03 0. -1.
         11    1    4    4    0    0 -0.10575913292E-01  0.18505960738E-01 -0.10361747283E+00  0.10578829010E+00  0.51100000000E-03 0.  1.
</event>
<event>
 8    1  0.1109553E+005  0.1043930E+01  0.7957747E-01            NaN
         13   -1    0    0    0    0  0.00000000000E+00  0.00000000000E+00  0.74505805969E-08  0.10566000000E+00  0.10566000000E+00 0. -1.
     999900   -1    0    0    0    0 -0.00000000000E+00 -0.00000000000E+00 -0.74505805969E-08  0.93827000000E+00  0.93827000000E+00 0. -1.
     999902    2    1    2    0    0  0.40856522974E-04 -0.22792918417E-01 -0.51611649564E-02  0.10205600102E+01  0.10202923983E+01 0.  0.
     999903    2    3    3    0    0  0.38622473107E-01  0.12026285513E+00 -0.17758380983E-02  0.12816718419E+00  0.21652338223E-01 0.  0.
         14    1    1    2    0    0 -0.40856522974E-04  0.22792918417E-01  0.51611649564E-02  0.23369989793E-01  0.00000000000E+00 0. -1.
     999901    1    3    3    0    0 -0.38581616584E-01 -0.14305577355E+00 -0.33853268581E-02  0.89239282601E+00  0.88000000000E+00 0. -1.
        -11    1    4    4    0    0  0.72913054728E-02  0.51170648727E-01  0.53560742286E-02  0.51966788229E-01  0.51100000000E-03 0.  1.
         11    1    4    4    0    0  0.31331167634E-01  0.69092206401E-01 -0.71319123269E-02  0.76200395965E-01  0.51100000000E-03 0. -1.
</event>
<event>
 8    1  0.1109553E+005  0.1043930E+01  0.7957747E-01            NaN
         13   -1    0    0    0    0  0.00000000000E+00  0.00000000000E+00  0.74505805969E-08  0.10566000000E+00  0.10566000000E+00 0. -1.
     999900   -1    0    0    0    0 -0.00000000000E+00 -0.00000000000E+00 -0.74505805969E-08  0.93827000000E+00  0.93827000000E+00 0. -1.
     999902    2    1    2    0    0  0.14905117216E-01  0.15657531122E-01  0.92906885565E-02  0.10204004931E+01  0.10201291725E+01 0.  0.
     999903    2    3    3    0    0 -0.45998896250E-01  0.94105146491E-01  0.77367763359E-01  0.13220129512E+00  0.22797687880E-01 0.  0.
         14    1    1    2    0    0 -0.14905117216E-01 -0.15657531122E-01 -0.92906885565E-02  0.23529506878E-01  0.00000000000E+00 0.  1.
     999901    1    3    3    0    0  0.60904013466E-01 -0.78447615369E-01 -0.68077074803E-01  0.88819919800E+00  0.88000000000E+00 0. -1.
        -11    1    4    4    0    0 -0.30702897624E-01  0.46137910729E-01  0.29756199470E-01  0.62905224400E-01  0.51100000000E-03 0. -1.
         11    1    4    4    0    0 -0.15295998626E-01  0.47967235762E-01  0.47611563890E-01  0.69296070723E-01  0.51100000000E-03 0.  1.
</event>
<event>
 8    1  0.1109553E+005  0.1043930E+01  0.7957747E-01            NaN
         13   -1    0    0    0    0  0.00000000000E+00  0.00000000000E+00  0.74505805969E-08  0.10566000000E+00  0.10566000000E+00 0. -1.
     999900   -1    0    0    0    0 -0.00000000000E+00 -0.00000000000E+00 -0.74505805969E-08  0.93827000000E+00  0.93827000000E+00 0.  1.
     999902    2    1    2    0    0  0.15647398239E-01 -0.16324436410E-01  0.70859886404E-02  0.10202331747E+01  0.10199579360E+01 0.  0.
     999903    2    3    3    0    0  0.59398204642E-01  0.58141485518E-01  0.99543914240E-01  0.13118437140E+00  0.19793165089E-01 0.  0.
         14    1    1    2    0    0 -0.15647398239E-01  0.16324436410E-01 -0.70859886404E-02  0.23696825331E-01  0.00000000000E+00 0.  1.
     999901    1    3    3    0    0 -0.43750806403E-01 -0.74465921928E-01 -0.92457925599E-01  0.88904880327E+00  0.88000000000E+00 0. -1.
        -11    1    4    4    0    0  0.25907419027E-01  0.12463304055E-01  0.31512201011E-01  0.42659210520E-01  0.51100000000E-03 0. -1.
         11    1    4    4    0    0  0.33490785615E-01  0.45678181462E-01  0.68031713229E-01  0.88525160879E-01  0.51100000000E-03 0.  1.
</event>
<event>
 8    1  0.1109553E+005  0.1043930E+01  0.7957747E-01            NaN
         13   -1    0    0    0    0  0.00000000000E+00  0.00000000000E+00  0.74505805969E-08  0.10566000000E+00  0.10566000000E+00 0. -1.
     999900   -1    0    0    0    0 -0.00000000000E+00 -0.00000000000E+00 -0.74505805969E-08  0.93827000000E+00  0.93827000000E+00 0. -1.
     999902    2    1    2    0    0  0.12354852967E-01  0.68550320226E-02 -0.19997458238E-01  0.10194446535E+01  0.10191505627E+01 0.  0.
     999903    2    3    3    0    0 -0.53355486255E-01 -0.11503984371E+00 -0.82563002823E-02  0.12853833735E+00  0.19312279007E-01 0.  0.
         14    1    1    2    0    0 -0.12354852967E-01 -0.68550320226E-02  0.19997458238E-01  0.24485346472E-01  0.00000000000E+00 0. -1.
     999901    1    3    3    0    0  0.65710339222E-01  0.12189487573E+00 -0.11741157956E-01  0.89090631618E+00  0.88000000000E+00 0. -1.
        -11    1    4    4    0    0 -0.26160435021E-01 -0.61606483429E-01 -0.13745816638E-01  0.68329611129E-01  0.51100000000E-03 0. -1.
         11    1    4    4    0    0 -0.27195051234E-01 -0.53433360282E-01  0.54895163560E-02  0.60208726224E-01  0.51100000000E-03 0.  1.
</event>
<event>
 8    1  0.1109553E+005  0.1043930E+01  0.7957747E-01            NaN
         13   -1    0    0    0    0  0.00000000000E+00  0.00000000000E+00  0.74505805969E-08  0.10566000000E+00  0.10566000000E+00 0.  1.
     999900   -1    0    0    0    0 -0.00000000000E+00 -0.00000000000E+00 -0.74505805969E-08  0.93827000000E+00  0.93827000000E+00 0.  1.
     999902    2    1    2    0    0  0.17292540895E-01  0.15440343143E-01 -0.39561005665E-02  0.10204122004E+01  0.10201411529E+01 0.  0.
     999903    2    3    3    0    0  0.95407835446E-01 -0.81004912673E-01  0.32879802857E-01  0.13094012640E+00  0.19994607406E-01 0.  0.
         14    1    1    2    0    0 -0.17292540895E-01 -0.15440343143E-01  0.39561005665E-02  0.23517799614E-01  0.00000000000E+00 0.  1.
     999901    1    3    3    0    0 -0.78115294550E-01  0.96445255816E-01 -0.36835903423E-01  0.88947207398E+00  0.88000000000E+00 0.  1.
        -11    1    4    4    0    0  0.66199518941E-01 -0.44522842400E-01  0.24503679861E-01  0.83458679903E-01  0.51100000000E-03 0. -1.
         11    1    4    4    0    0  0.29208316504E-01 -0.36482070273E-01  0.83761229960E-02  0.47481446502E-01  0.51100000000E-03 0.  1.
</event>
<event>
 8    1  0.1109553E+005  0.1043930E+01  0.7957747E-01            NaN
         13   -1    0    0    0    0  0.00000000000E+00  0.00000000000E+00  0.74505805969E-08  0.10566000000E+00  0.10566000000E+00 0. -1.
     999900   -1    0    0    0    0 -0.00000000000E+00 -0.00000000000E+00 -0.74505805969E-08  0.93827000000E+00  0.93827000000E+00 0. -1.
     999902    2    1    2    0    0 -0.46439425657E-02 -0.97401292976E-02  0.21004729138E-01  0.10203157042E+01  0.10200424017E+01 0.  0.
     999903    2    3    3    0    0 -0.12294530434E+00 -0.17842531949E-01 -0.35256477413E-01  0.13058193248E+00  0.19357636324E-01 0.  0.
         14    1    1    2    0    0  0.46439425657E-02  0.97401292976E-02 -0.21004729138E-01  0.23614295828E-01  0.00000000000E+00 0. -1.
     999901    1    3    3    0    0  0.11830136178E+00  0.81024026516E-02  0.56261206550E-01  0.88973377169E+00  0.88000000000E+00 0.  1.
        -11    1    4    4    0    0 -0.17198991862E-01 -0.58539206947E-02 -0.11593892894E-01  0.21558134938E-01  0.51100000000E-03 0.  1.
         11    1    4    4    0    0 -0.10574631248E+00 -0.11988611255E-01 -0.23662584518E-01  0.10902379754E+00  0.51100000000E-03 0. -1.
</event>
<event>
 8    1  0.1109553E+005  0.1043930E+01  0.7957747E-01            NaN
         13   -1    0    0    0    0  0.00000000000E+00  0.00000000000E+00  0.74505805969E-08  0.10566000000E+00  0.10566000000E+00 0.  1.
     999900   -1    0    0    0    0 -0.00000000000E+00 -0.00000000000E+00 -0.74505805969E-08  0.93827000000E+00  0.93827000000E+00 0. -1.
     999902    2    1    2    0    0 -0.13391954113E-01  0.14671590152E-01  0.12951251252E-01  0.10202163984E+01  0.10199407653E+01 0.  0.
     999903    2    3    3    0    0  0.12720172393E+00 -0.15239201704E-02  0.22057352091E-02  0.12884422977E+00  0.20331487241E-01 0.  0.
         14    1    1    2    0    0  0.13391954113E-01 -0.14671590152E-01 -0.12951251252E-01  0.23713601615E-01  0.00000000000E+00 0. -1.
     999901    1    3    3    0    0 -0.14059367805E+00  0.16195510323E-01  0.10745516043E-01  0.89137216861E+00  0.88000000000E+00 0. -1.
        -11    1    4    4    0    0  0.43661788793E-01  0.71551600443E-02 -0.50795216445E-02  0.44537745532E-01  0.51100000000E-03 0.  1.
         11    1    4    4    0    0  0.83539935140E-01 -0.86790802147E-02  0.72852568536E-02  0.84306484241E-01  0.51100000000E-03 0. -1.
</event>
<event>
 8    1  0.1109553E+005  0.1043930E+01  0.7957747E-01            NaN
         13   -1    0    0    0    0  0.00000000000E+00  0.00000000000E+00  0.74505805969E-08  0.10566000000E+00  0.10566000000E+00 0. -1.
     999900   -1    0    0    0    0 -0.00000000000E+00 -0.00000000000E+00 -0.74505805969E-08  0.93827000000E+00  0.93827000000E+00 0.  1.
     999902    2    1    2    0    0 -0.14113836000E-01  0.44069333830E-02 -0.18426317344E-01  0.10203047889E+01  0.10200312307E+01 0.  0.
     999903    2    3    3    0    0  0.10565839541E+00 -0.61442446844E-01  0.32750367441E-01  0.12828428389E+00  0.21104504999E-01 0.  0.
         14    1    1    2    0    0  0.14113836000E-01 -0.44069333830E-02  0.18426317344E-01  0.23625211096E-01  0.00000000000E+00 0. -1.
     999901    1    3    3    0    0 -0.11977223141E+00  0.65849380227E-01 -0.51176684784E-01  0.89202050501E+00  0.88000000000E+00 0.  1.
        -11    1    4    4    0    0  0.66638291300E-01 -0.46335891447E-01  0.29316246407E-01  0.86298204662E-01  0.51100000000E-03 0. -1.
         11    1    4    4    0    0  0.39020104113E-01 -0.15106555396E-01  0.34341210339E-02  0.41986079231E-01  0.51100000000E-03 0.  1.
</event>
<event>
 8    1  0.1109553E+005  0.1043930E+01  0.7957747E-01            NaN
         13   -1    0    0    0    0  0.00000000000E+00  0.00000000000E+00  0.74505805969E-08  0.10566000000E+00  0.10566000000E+00 0. -1.
     999900   -1    0    0    0    0 -0.00000000000E+00 -0.00000000000E+00 -0.74505805969E-08  0.93827000000E+00  0.93827000000E+00 0.  1.
     999902    2    1    2    0    0  0.34747892106E-02  0.15903341865E-01 -0.23793528054E-01  0.10151008061E+01  0.10146913443E+01 0.  0.
     999903    2    3    3    0    0 -0.31268032742E-02  0.10734541690E+00  0.63017550824E-01  0.12608933402E+00  0.19861848175E-01 0.  0.
         14    1    1    2    0    0 -0.34747892106E-02 -0.15903341865E-01  0.23793528054E-01  0.28829193881E-01  0.00000000000E+00 0.  1.
     999901    1    3    3    0    0  0.66015924848E-02 -0.91442075036E-01 -0.86811078879E-01  0.88901147210E+00  0.88000000000E+00 0.  1.
        -11    1    4    4    0    0 -0.89383141584E-02  0.40273731279E-01  0.17462552826E-01  0.44800321019E-01  0.51100000000E-03 0. -1.
         11    1    4    4    0    0  0.58115108842E-02  0.67071685622E-01  0.45554997998E-01  0.81289013000E-01  0.51100000000E-03 0.  1.
</event>
<event>
 8    1  0.1109553E+005  0.1043930E+01  0.7957747E-01            NaN
         13   -1    0    0    0    0  0.00000000000E+00  0.00000000000E+00  0.74505805969E-08  0.10566000000E+00  0.10566000000E+00 0.  1.
     999900   -1    0    0    0    0 -0.00000000000E+00 -0.00000000000E+00 -0.74505805969E-08  0.93827000000E+00  0.93827000000E+00 0. -1.
     999902    2    1    2    0    0 -0.22052095775E-01  0.27016933638E-02 -0.83727149868E-02  0.10201877080E+01  0.10199113996E+01 0.  0.
     999903    2    3    3    0    0 -0.89772519007E-01  0.59286004299E-02  0.93879915158E-01  0.13167655495E+00  0.20761097788E-01 0.  0.
         14    1    1    2    0    0  0.22052095775E-01 -0.27016933638E-02  0.83727149868E-02  0.23742292041E-01  0.00000000000E+00 0.  1.
     999901    1    3    3    0    0  0.67720423232E-01 -0.32269070661E-02 -0.10225263014E+00  0.88851115301E+00  0.88000000000E+00 0. -1.
        -11    1    4    4    0    0 -0.30314199538E-01  0.17210823601E-02  0.46470336216E-01  0.55512756076E-01  0.51100000000E-03 0. -1.
         11    1    4    4    0    0 -0.59458319469E-01  0.42075180698E-02  0.47409578942E-01  0.76163798873E-01  0.51100000000E-03 0.  1.
</event>
<event>
 8    1  0.1109553E+005  0.1043930E+01  0.7957747E-01            NaN
         13   -1    0    0    0    0  0.00000000000E+00  0.00000000000E+00  0.74505805969E-08  0.10566000000E+00  0.10566000000E+00 0. -1.
     999900   -1    0    0    0    0 -0.00000000000E+00 -0.00000000000E+00 -0.74505805969E-08  0.93827000000E+00  0.93827000000E+00 0.  1.
     999902    2    1    2    0    0 -0.22313904369E-01  0.71976880736E-03 -0.51287366862E-02  0.10210229632E+01  0.10207659668E+01 0.  0.
     999903    2    3    3    0    0  0.37699233716E-01 -0.12218342895E+00  0.69072484059E-02  0.13037621071E+00  0.24499463419E-01 0.  0.
         14    1    1    2    0    0  0.22313904369E-01 -0.71976880736E-03  0.51287366862E-02  0.22907036808E-01  0.00000000000E+00 0.  1.
     999901    1    3    3    0    0 -0.60013138086E-01  0.12290319775E+00 -0.12035985092E-01  0.89064675248E+00  0.88000000000E+00 0.  1.
        -11    1    4    4    0    0  0.37220814128E-01 -0.96205892962E-01 -0.11698569355E-02  0.10316294166E+00  0.51100000000E-03 0. -1.
         11    1    4    4    0    0  0.47841958806E-03 -0.25977535984E-01  0.80771053414E-02  0.27213269058E-01  0.51100000000E-03 0.  1.
</event>
<event>
 8    1  0.1109553E+005  0.1043930E+01  0.7957747E-01            NaN
         13   -1    0    0    0    0  0.00000000000E+00  0.00000000000E+00  0.74505805969E-08  0.10566000000E+00  0.10566000000E+00 0. -1.
     999900   -1    0    0    0    0 -0.00000000000E+00 -0.00000000000E+00 -0.74505805969E-08  0.93827000000E+00  0.93827000000E+00 0.  1.
     999902    2    1    2    0    0 -0.10036253160E-01 -0.20996170898E-01  0.53537241403E-02  0.10200505542E+01  0.10197710062E+01 0.  0.
     999903    2    3    3    0    0 -0.50202570893E-01  0.11622420978E+00 -0.69270619023E-02  0.12842642730E+00  0.20420528343E-01 0.  0.
         14    1    1    2    0    0  0.10036253160E-01  0.20996170898E-01 -0.53537241403E-02  0.23879445807E-01  0.00000000000E+00 0. -1.
     999901    1    3    3    0    0  0.40166317733E-01 -0.13722038068E+00  0.12280786043E-01  0.89162412689E+00  0.88000000000E+00 0.  1.
        -11    1    4    4    0    0 -0.12267391944E-01  0.44604266208E-01  0.48925000229E-02  0.46521254782E-01  0.51100000000E-03 0. -1.
         11    1    4    4    0    0 -0.37935178949E-01  0.71619943576E-01 -0.11819561925E-01  0.81905172516E-01  0.51100000000E-03 0.  1.
</event>
<event>
 8    1  0.1109553E+005  0.1043930E+01  0.7957747E-01            NaN
         13   -1    0    0    0    0  0.00000000000E+00  0.00000000000E+00  0.74505805969E-08  0.10566000000E+00  0.10566000000E+00 0.  1.
     999900   -1    0    0    0    0 -0.00000000000E+00 -0.00000000000E+00 -0.74505805969E-08  0.93827000000E+00  0.93827000000E+00 0. -1.
     999902    2    1    2    0    0  0.13065035220E-01 -0.18560067538E-01  0.55963869253E-02  0.10205528573E+01  0.10202850797E+01 0.  0.
     999903    2    3    3    0    0  0.65255054268E-01  0.42912815019E-01  0.10385635678E+00  0.13141972049E+00  0.19628252299E-01 0.  0.
         14    1    1    2    0    0 -0.13065035220E-01  0.18560067538E-01 -0.55963869253E-02  0.23377142659E-01  0.00000000000E+00 0.  1.
     999901    1    3    3    0    0 -0.52190019048E-01 -0.61472882557E-01 -0.98259969855E-01  0.88913313686E+00  0.88000000000E+00 0. -1.
        -11    1    4    4    0    0  0.41354597516E-01  0.17349375459E-01  0.49766158389E-01  0.66993546005E-01  0.51100000000E-03 0. -1.
         11    1    4    4    0    0  0.23900456752E-01  0.25563439560E-01  0.54090198392E-01  0.64426174480E-01  0.51100000000E-03 0.  1.
</event>
<event>
 8    1  0.1109553E+005  0.1043930E+01  0.7957747E-01            NaN
         13   -1    0    0    0    0  0.00000000000E+00  0.00000000000E+00  0.74505805969E-08  0.10566000000E+00  0.10566000000E+00 0.  1.
     999900   -1    0    0    0    0 -0.00000000000E+00 -0.00000000000E+00 -0.74505805969E-08  0.93827000000E+00  0.93827000000E+00 0. -1.
     999902    2    1    2    0    0  0.12539393924E-02  0.22561382178E-01 -0.17820375421E-01  0.10151523331E+01  0.10147443547E+01 0.  0.
     999903    2    3    3    0    0 -0.36002038415E-01 -0.26295867647E-01  0.11326327435E+00  0.12332389561E+00  0.19813997288E-01 0.  0.
         14    1    1    2    0    0 -0.12539393924E-02 -0.22561382178E-01  0.17820375421E-01  0.28777666860E-01  0.00000000000E+00 0. -1.
     999901    1    3    3    0    0  0.37255977807E-01  0.48857249825E-01 -0.13108364977E+00  0.89182843753E+00  0.88000000000E+00 0. -1.
        -11    1    4    4    0    0 -0.43418475161E-02 -0.64416490575E-02  0.43392854568E-01  0.44085682834E-01  0.51100000000E-03 0.  1.
         11    1    4    4    0    0 -0.31660190899E-01 -0.19854218589E-01  0.69870419778E-01  0.79238212780E-01  0.51100000000E-03 0. -1.
</event>
<event>
 8    1  0.1109553E+005  0.1043930E+01  0.7957747E-01            NaN
         13   -1    0    0    0    0  0.00000000000E+00  0.00000000000E+00  0.74505805969E-08  0.10566000000E+00  0.10566000000E+00 0.  1.
     999900   -1    0    0    0    0 -0.00000000000E+00 -0.00000000000E+00 -0.74505805969E-08  0.93827000000E+00  0.93827000000E+00 0. -1.
     999902    2    1    2    0    0 -0.12058627901E-01 -0.19944419765E-01 -0.55843100313E-02  0.10199638801E+01  0.10196822749E+01 0.  0.
     999903    2    3    3    0    0 -0.29724382146E-01 -0.12146294717E+00  0.40155054546E-01  0.13277157861E+00  0.19469906281E-01 0.  0.
         14    1    1    2    0    0  0.12058627901E-01  0.19944419765E-01  0.55843100313E-02  0.23966119943E-01  0.00000000000E+00 0. -1.
     999901    1    3    3    0    0  0.17665754246E-01  0.10151852741E+00 -0.45739364578E-01  0.88719230145E+00  0.88000000000E+00 0. -1.
        -11    1    4    4    0    0 -0.18747328721E-01 -0.92950220885E-01  0.22408977661E-01  0.97435256954E-01  0.51100000000E-03 0.  1.
         11    1    4    4    0    0 -0.10977053425E-01 -0.28512726286E-01  0.17746076885E-01  0.35336321653E-01  0.51100000000E-03 0. -1.
</event>
<event>
 8    1  0.1159003E+005  0.1043930E+01  0.7957747E-01            NaN
         13   -1    0    0    0    0  0.00000000000E+00  0.00000000000E+00  0.74505805969E-08  0.10566000000E+00  0.10566000000E+00 0. -1.
     999900   -1    0    0    0    0 -0.00000000000E+00 -0.00000000000E+00 -0.74505805969E-08  0.93827000000E+00  0.93827000000E+00 0. -1.
     999902    2    1    2    0    0  0.14298961105E-01 -0.12717980276E-01 -0.10272095978E-01  0.10222108088E+01  0.10219800460E+01 0.  0.
     999903    2    3    3    0    0  0.49707159877E-02  0.51511965483E-02 -0.13187790671E+00  0.13361962223E+00  0.20277532432E-01 0.  0.
         14    1    1    2    0    0 -0.14298961105E-01  0.12717980276E-01  0.10272095978E-01  0.21719191209E-01  0.00000000000E+00 0. -1.
     999901    1    3    3    0    0  0.93282451173E-02 -0.17869176825E-01  0.12160581074E+00  0.88859118657E+00  0.88000000000E+00 0.  1.
        -11    1    4    4    0    0  0.99231413012E-02 -0.41864160899E-02 -0.74153739302E-01  0.74933523782E-01  0.51100000000E-03 0.  1.
         11    1    4    4    0    0 -0.49524253134E-02  0.93376126382E-02 -0.57724167411E-01  0.58686098443E-01  0.51100000000E-03 0. -1.
</event>
<event>
 8    1  0.1109553E+005  0.1043930E+01  0.7957747E-01            NaN
         13   -1    0    0    0    0  0.00000000000E+00  0.00000000000E+00  0.74505805969E-08  0.10566000000E+00  0.10566000000E+00 0.  1.
     999900   -1    0    0    0    0 -0.00000000000E+00 -0.00000000000E+00 -0.74505805969E-08  0.93827000000E+00  0.93827000000E+00 0. -1.
     999902    2    1    2    0    0 -0.99924180236E-03  0.21804991280E-01 -0.77909851902E-02  0.10207533829E+01  0.10204902318E+01 0.  0.
     999903    2    3    3    0    0 -0.49578825434E-01 -0.64457828994E-01 -0.10000866139E+00  0.13041336365E+00  0.19825272195E-01 0.  0.
         14    1    1    2    0    0  0.99924180236E-03 -0.21804991280E-01  0.77909851902E-02  0.23176617077E-01  0.00000000000E+00 0. -1.
     999901    1    3    3    0    0  0.48579583631E-01  0.86262820275E-01  0.92217676195E-01  0.89034001927E+00  0.88000000000E+00 0.  1.
        -11    1    4    4    0    0 -0.32095873688E-01 -0.34548813617E-01 -0.70948141829E-01  0.85191933774E-01  0.51100000000E-03 0. -1.
         11    1    4    4    0    0 -0.17482951745E-01 -0.29909015378E-01 -0.29060519556E-01  0.45221429881E-01  0.51100000000E-03 0.  1.
</event>
<event>
 8    1  0.1109553E+005  0.1043930E+01  0.7957747E-01            NaN
         13   -1    0    0    0    0  0.00000000000E+00  0.00000000000E+00  0.74505805969E-08  0.10566000000E+00  0.10566000000E+00 0.  1.
     999900   -1    0    0    0    0 -0.00000000000E+00 -0.00000000000E+00 -0.74505805969E-08  0.93827000000E+00  0.93827000000E+00 0. -1.
     999902    2    1    2    0    0  0.18761730329E-01 -0.15679496611E-01  0.45043454003E-02  0.10190676134E+01  0.10187642821E+01 0.  0.
     999903    2    3    3    0    0  0.67477649192E-01  0.79941734030E-01  0.74211370857E-01  0.12981189660E+00  0.19997173659E-01 0.  0.
         14    1    1    2    0    0 -0.18761730329E-01  0.15679496611E-01 -0.45043454003E-02  0.24862386579E-01  0.00000000000E+00 0. -1.
     999901    1    3    3    0    0 -0.48715918862E-01 -0.95621230640E-01 -0.69707025457E-01  0.88925571682E+00  0.88000000000E+00 0.  1.
        -11    1    4    4    0    0  0.32269899422E-01  0.53190678572E-01  0.45697052272E-01  0.77195054265E-01  0.51100000000E-03 0.  1.
         11    1    4    4    0    0  0.35207749770E-01  0.26751055458E-01  0.28514318586E-01  0.52616842335E-01  0.51100000000E-03 0. -1.
</event>
<event>
 8    1  0.1109553E+005  0.1043930E+01  0.7957747E-01            NaN
         13   -1    0    0    0    0  0.00000000000E+00  0.00000000000E+00  0.74505805969E-08  0.10566000000E+00  0.10566000000E+00 0. -1.
     999900   -1    0    0    0    0 -0.00000000000E+00 -0.00000000000E+00 -0.74505805969E-08  0.93827000000E+00  0.93827000000E+00 0. -1.
     999902    2    1    2    0    0 -0.67245415346E-02 -0.17272291628E-01 -0.14746284195E-01  0.10202444682E+01  0.10199694949E+01 0.  0.
     999903    2    3    3    0    0  0.77753822862E-01  0.10022319364E+00  0.73311685521E-02  0.12815187382E+00  0.16697641087E-01 0.  0.
         14    1    1    2    0    0  0.67245415346E-02  0.17272291628E-01  0.14746284195E-01  0.23685531754E-01  0.00000000000E+00 0. -1.
     999901    1    3    3    0    0 -0.84478364396E-01 -0.11749548527E+00 -0.22077452747E-01  0.89209259443E+00  0.88000000000E+00 0.  1.
        -11    1    4    4    0    0  0.10165429740E-01  0.66788556138E-02  0.35542008599E-02  0.12682134633E-01  0.51100000000E-03 0. -1.
         11    1    4    4    0    0  0.67588393122E-01  0.93544338028E-01  0.37769676922E-02  0.11546973919E+00  0.51100000000E-03 0.  1.
</event>
<event>
 8    1  0.1109553E+005  0.1043930E+01  0.7957747E-01            NaN
         13   -1    0    0    0    0  0.00000000000E+00  0.00000000000E+00  0.74505805969E-08  0.10566000000E+00  0.10566000000E+00 0.  1.
     999900   -1    0    0    0    0 -0.00000000000E+00 -0.00000000000E+00 -0.74505805969E-08  0.93827000000E+00  0.93827000000E+00 0.  1.
     999902    2    1    2    0    0 -0.25276676330E-02 -0.22936318846E-01  0.13426846323E-02  0.10208157916E+01  0.10205540720E+01 0.  0.
     999903    2    3    3    0    0 -0.52554273447E-01 -0.42837497330E-01  0.11178716443E+00  0.13227952265E+00  0.20112164137E-01 0.  0.
         14    1    1    2    0    0  0.25276676330E-02  0.22936318846E-01 -0.13426846323E-02  0.23114208355E-01  0.00000000000E+00 0. -1.
     999901    1    3    3    0    0  0.50026605814E-01  0.19901178485E-01 -0.11044447980E+00  0.88853626899E+00  0.88000000000E+00 0.  1.
        -11    1    4    4    0    0 -0.82329152696E-02 -0.13893575891E-01  0.39537050841E-01  0.42711261455E-01  0.51100000000E-03 0.  1.
         11    1    4    4    0    0 -0.44321358177E-01 -0.28943921439E-01  0.72250113593E-01  0.89568261199E-01  0.51100000000E-03 0. -1.
</event>
<event>
 8    1  0.1109553E+005  0.1043930E+01  0.7957747E-01            NaN
         13   -1    0    0    0    0  0.00000000000E+00  0.00000000000E+00  0.74505805969E-08  0.10566000000E+00  0.10566000000E+00 0.  1.
     999900   -1    0    0    0    0 -0.00000000000E+00 -0.00000000000E+00 -0.74505805969E-08  0.93827000000E+00  0.93827000000E+00 0. -1.
     999902    2    1    2    0    0 -0.32744247872E-02 -0.29450395577E-01  0.52834780946E-02  0.10138307841E+01  0.10133838838E+01 0.  0.
     999903    2    3    3    0    0  0.34371710978E-01  0.65943422870E-01  0.96212253891E-01  0.12322129930E+00  0.19918365078E-01 0.  0.
         14    1    1    2    0    0  0.32744247872E-02  0.29450395577E-01 -0.52834780946E-02  0.30099215905E-01  0.00000000000E+00 0.  1.
     999901    1    3    3    0    0 -0.37646135765E-01 -0.95393818447E-01 -0.90928775796E-01  0.89060948479E+00  0.88000000000E+00 0. -1.
        -11    1    4    4    0    0  0.15100906738E-01  0.34211818366E-01  0.32830099523E-01  0.49765072650E-01  0.51100000000E-03 0. -1.
         11    1    4    4    0    0  0.19270804239E-01  0.31731604504E-01  0.63382154368E-01  0.73456226651E-01  0.51100000000E-03 0.  1.
</event>
<event>
 8    1  0.1109553E+005  0.1043930E+01  0.7957747E-01            NaN
         13   -1    0    0    0    0  0.00000000000E+00  0.00000000000E+00  0.74505805969E-08  0.10566000000E+00  0.10566000000E+00 0. -1.
     999900   -1    0    0    0    0 -0.00000000000E+00 -0.00000000000E+00 -0.74505805969E-08  0.93827000000E+00  0.93827000000E+00 0.  1.
     999902    2    1    2    0    0  0.56074255971E-02 -0.15750921628E-01  0.16827051399E-01  0.10202090301E+01  0.10199332236E+01 0.  0.
     999903    2    3    3    0    0  0.34074923448E-01 -0.44589287861E-01 -0.11514600834E+00  0.12944590879E+00  0.18663736668E-01 0.  0.
         14    1    1    2    0    0 -0.56074255971E-02  0.15750921628E-01 -0.16827051399E-01  0.23720969895E-01  0.00000000000E+00 0.  1.
     999901    1    3    3    0    0 -0.28467497851E-01  0.28838366233E-01  0.13197305974E+00  0.89076312132E+00  0.88000000000E+00 0. -1.
        -11    1    4    4    0    0  0.20649256444E-01 -0.16807110373E-01 -0.38421988116E-01  0.46748059239E-01  0.51100000000E-03 0.  1.
         11    1    4    4    0    0  0.13425667004E-01 -0.27782177488E-01 -0.76724020220E-01  0.82697849550E-01  0.51100000000E-03 0. -1.
</event>
<event>
 8    1  0.1109553E+005  0.1043930E+01  0.7957747E-01            NaN
         13   -1    0    0    0    0  0.00000000000E+00  0.00000000000E+00  0.74505805969E-08  0.10566000000E+00  0.10566000000E+00 0. -1.
     999900   -1    0    0    0    0 -0.00000000000E+00 -0.00000000000E+00 -0.74505805969E-08  0.93827000000E+00  0.93827000000E+00 0. -1.
     999902    2    1    2    0    0 -0.20260688483E-02  0.16571042951E-01  0.16825015156E-01  0.10202279842E+01  0.10199526235E+01 0.  0.
     999903    2    3    3    0    0 -0.37167724375E-01  0.14442881076E-01  0.12522013115E+00  0.13287857937E+00  0.19662122488E-01 0.  0.
         14    1    1    2    0    0  0.20260688483E-02 -0.16571042951E-01 -0.16825015156E-01  0.23702015831E-01  0.00000000000E+00 0.  1.
     999901    1    3    3    0    0  0.35141655526E-01  0.21281618751E-02 -0.10839511600E+00  0.88734940480E+00  0.88000000000E+00 0. -1.
        -11    1    4    4    0    0 -0.30688054938E-01  0.64077250660E-02  0.70022529524E-01  0.76721779296E-01  0.51100000000E-03 0.  1.
         11    1    4    4    0    0 -0.64796694372E-02  0.80351560096E-02  0.55197601627E-01  0.56156800073E-01  0.51100000000E-03 0. -1.
</event>
<event>
 8    1  0.1109553E+005  0.1043930E+01  0.7957747E-01            NaN
         13   -1    0    0    0    0  0.00000000000E+00  0.00000000000E+00  0.74505805969E-08  0.10566000000E+00  0.10566000000E+00 0.  1.
     999900   -1    0    0    0    0 -0.00000000000E+00 -0.00000000000E+00 -0.74505805969E-08  0.93827000000E+00  0.93827000000E+00 0.  1.
     999902    2    1    2    0    0 -0.17166779819E-01  0.11869319311E-01  0.10928007406E-01  0.10203715532E+01  0.10200995570E+01 0.  0.
     999903    2    3    3    0    0 -0.99823824694E-01 -0.60925339190E-01 -0.53505890227E-01  0.13116799014E+00  0.25796674525E-01 0.  0.
         14    1    1    2    0    0  0.17166779819E-01 -0.11869319311E-01 -0.10928007406E-01  0.23558446811E-01  0.00000000000E+00 0. -1.
     999901    1    3    3    0    0  0.82657044876E-01  0.72794658501E-01  0.64433897633E-01  0.88920356305E+00  0.88000000000E+00 0. -1.
        -11    1    4    4    0    0 -0.37808204799E-01 -0.34785047221E-01 -0.31933359952E-01  0.60493474517E-01  0.51100000000E-03 0. -1.
         11    1    4    4    0    0 -0.62015619895E-01 -0.26140291970E-01 -0.21572530274E-01  0.70674515624E-01  0.51100000000E-03 0.  1.
</event>
<event>
 8    1  0.1109553E+005  0.1043930E+01  0.7957747E-01            NaN
         13   -1    0    0    0    0  0.00000000000E+00  0.00000000000E+00  0.74505805969E-08  0.10566000000E+00  0.10566000000E+00 0. -1.
     999900   -1    0    0    0    0 -0.00000000000E+00 -0.00000000000E+00 -0.74505805969E-08  0.93827000000E+00  0.93827000000E+00 0.  1.
     999902    2    1    2    0    0 -0.17957403235E-01  0.14589593941E-01 -0.16815129820E-02  0.10207318952E+01  0.10204682502E+01 0.  0.
     999903    2    3    3    0    0 -0.42161445432E-01 -0.11139025914E+00  0.48020116841E-01  0.13004282986E+00  0.20489720956E-01 0.  0.
         14    1    1    2    0    0  0.17957403235E-01 -0.14589593941E-01  0.16815129820E-02  0.23198104841E-01  0.00000000000E+00 0. -1.
     999901    1    3    3    0    0  0.24204042197E-01  0.12597985308E+00 -0.49701629822E-01  0.89068906530E+00  0.88000000000E+00 0.  1.
        -11    1    4    4    0    0 -0.27368218010E-01 -0.86206963292E-01  0.28201619871E-01  0.94743086088E-01  0.51100000000E-03 0.  1.
         11    1    4    4    0    0 -0.14793227423E-01 -0.25183295843E-01  0.19818496969E-01  0.35299743770E-01  0.51100000000E-03 0. -1.
</event>
<event>
 8    1  0.1109553E+005  0.1043930E+01  0.7957747E-01            NaN
         13   -1    0    0    0    0  0.00000000000E+00  0.00000000000E+00  0.74505805969E-08  0.10566000000E+00  0.10566000000E+00 0. -1.
     999900   -1    0    0    0    0 -0.00000000000E+00 -0.00000000000E+00 -0.74505805969E-08  0.93827000000E+00  0.93827000000E+00 0. -1.
     999902    2    1    2    0    0  0.24623107091E-01 -0.33972941253E-03  0.26471156004E-02  0.10191626820E+01  0.10188616944E+01 0.  0.
     999903    2    3    3    0    0  0.95083245409E-01 -0.24685634505E-01 -0.85392534161E-01  0.13163333934E+00  0.19627710699E-01 0.  0.
         14    1    1    2    0    0 -0.24623107091E-01  0.33972941253E-03 -0.26471156004E-02  0.24767317980E-01  0.00000000000E+00 0. -1.
     999901    1    3    3    0    0 -0.70460138317E-01  0.24345905092E-01  0.88039649761E-01  0.88752934268E+00  0.88000000000E+00 0.  1.
        -11    1    4    4    0    0  0.42326200048E-01 -0.10156447102E-02 -0.37003395505E-01  0.56232118443E-01  0.51100000000E-03 0.  1.
         11    1    4    4    0    0  0.52757045361E-01 -0.23669989795E-01 -0.48389138656E-01  0.75401220898E-01  0.51100000000E-03 0. -1.
</event>
<event>
 8    1  0.1109553E+005  0.1043930E+01  0.7957747E-01            NaN
         13   -1    0    0    0    0  0.00000000000E+00  0.00000000000E+00  0.74505805969E-08  0.10566000000E+00  0.10566000000E+00 0.  1.
     999900   -1    0    0    0    0 -0.00000000000E+00 -0.00000000000E+00 -0.74505805969E-08  0.93827000000E+00  0.93827000000E+00 0. -1.
     999902    2    1    2    0    0  0.19841572532E-01 -0.12977886774E-01 -0.79525665004E-02  0.10189228638E+01  0.10186159461E+01 0.  0.
     999903    2    3    3    0    0 -0.39336564068E-01 -0.11587898448E+00  0.38252624243E-01  0.12975156008E+00  0.19922343335E-01 0.  0.
         14    1    1    2    0    0 -0.19841572532E-01  0.12977886774E-01  0.79525665004E-02  0.25007136174E-01  0.00000000000E+00 0. -1.
     999901    1    3    3    0    0  0.59178136600E-01  0.10290109771E+00 -0.46205190744E-01  0.88917130375E+00  0.88000000000E+00 0.  1.
        -11    1    4    4    0    0 -0.31710912632E-01 -0.63939854165E-01  0.19298875968E-01  0.73936423130E-01  0.51100000000E-03 0.  1.
         11    1    4    4    0    0 -0.76256514366E-02 -0.51939130315E-01  0.18953748276E-01  0.55815136947E-01  0.51100000000E-03 0. -1.
</event>
<event>
 8    1  0.1109553E+005  0.1043930E+01  0.7957747E-01            NaN
         13   -1    0    0    0    0  0.00000000000E+00  0.00000000000E+00  0.74505805969E-08  0.10566000000E+00  0.10566000000E+00 0. -1.
     999900   -1    0    0    0    0 -0.00000000000E+00 -0.00000000000E+00 -0.74505805969E-08  0.93827000000E+00  0.93827000000E+00 0. -1.
     999902    2    1    2    0    0  0.21600311496E-01 -0.67485069299E-02  0.75683448702E-02  0.10200679874E+01  0.10197888523E+01 0.  0.
     999903    2    3    3    0    0  0.70091831181E-01  0.67841357635E-01 -0.83914092162E-01  0.13086378604E+00  0.23842001388E-01 0.  0.
         14    1    1    2    0    0 -0.21600311496E-01  0.67485069299E-02 -0.75683448702E-02  0.23862012626E-01  0.00000000000E+00 0.  1.
     999901    1    3    3    0    0 -0.48491519685E-01 -0.74589864565E-01  0.91482437032E-01  0.88920420133E+00  0.88000000000E+00 0.  1.
        -11    1    4    4    0    0  0.54413394220E-01  0.52975192574E-01 -0.50966811665E-01  0.91460732071E-01  0.51100000000E-03 0. -1.
         11    1    4    4    0    0  0.15678436961E-01  0.14866165061E-01 -0.32947280497E-01  0.39403053972E-01  0.51100000000E-03 0.  1.
</event>
<event>
 8    1  0.1109553E+005  0.1043930E+01  0.7957747E-01            NaN
         13   -1    0    0    0    0  0.00000000000E+00  0.00000000000E+00  0.74505805969E-08  0.10566000000E+00  0.10566000000E+00 0.  1.
     999900   -1    0    0    0    0 -0.00000000000E+00 -0.00000000000E+00 -0.74505805969E-08  0.93827000000E+00  0.93827000000E+00 0.  1.
     999902    2    1    2    0    0 -0.13525616631E-01  0.19068850919E-01 -0.10907267728E-02  0.10205258750E+01  0.10202574717E+01 0.  0.
     999903    2    3    3    0    0 -0.85603235001E-02  0.13155273121E+00  0.70719620212E-03  0.13335029490E+00  0.20059930059E-01 0.  0.
         14    1    1    2    0    0  0.13525616631E-01 -0.19068850919E-01  0.10907267728E-02  0.23404124968E-01  0.00000000000E+00 0.  1.
     999901    1    3    3    0    0 -0.49652931311E-02 -0.11248388030E+00 -0.17979229750E-02  0.88717558014E+00  0.88000000000E+00 0.  1.
        -11    1    4    4    0    0 -0.76749619139E-02  0.52824130331E-01  0.91643210967E-02  0.54162161033E-01  0.51100000000E-03 0. -1.
         11    1    4    4    0    0 -0.88536158622E-03  0.78728600884E-01 -0.84571248945E-02  0.79188133863E-01  0.51100000000E-03 0.  1.
</event>
<event>
 8    1  0.1109553E+005  0.1043930E+01  0.7957747E-01            NaN
         13   -1    0    0    0    0  0.00000000000E+00  0.00000000000E+00  0.74505805969E-08  0.10566000000E+00  0.10566000000E+00 0. -1.
     999900   -1    0    0    0    0 -0.00000000000E+00 -0.00000000000E+00 -0.74505805969E-08  0.93827000000E+00  0.93827000000E+00 0. -1.
     999902    2    1    2    0    0 -0.22449505319E-01  0.58951530198E-02  0.22354202114E-02  0.10206119765E+01  0.10203455671E+01 0.  0.
     999903    2    3    3    0    0  0.19832455728E-01  0.12182620949E+00 -0.39177050143E-01  0.13103749010E+00  0.20025756777E-01 0.  0.
         14    1    1    2    0    0  0.22449505319E-01 -0.58951530198E-02 -0.22354202114E-02  0.23318023538E-01  0.00000000000E+00 0.  1.
     999901    1    3    3    0    0 -0.42281961047E-01 -0.11593105647E+00  0.41412470354E-01  0.88957448636E+00  0.88000000000E+00 0.  1.
        -11    1    4    4    0    0  0.14574405049E-01  0.89576062596E-01 -0.37846118676E-01  0.98330433196E-01  0.51100000000E-03 0.  1.
         11    1    4    4    0    0  0.52580506785E-02  0.32250146896E-01 -0.13309314671E-02  0.32707056904E-01  0.51100000000E-03 0. -1.
</event>
<event>
 8    1  0.1109553E+005  0.1043930E+01  0.7957747E-01            NaN
         13   -1    0    0    0    0  0.00000000000E+00  0.00000000000E+00  0.74505805969E-08  0.10566000000E+00  0.10566000000E+00 0. -1.
     999900   -1    0    0    0    0 -0.00000000000E+00 -0.00000000000E+00 -0.74505805969E-08  0.93827000000E+00  0.93827000000E+00 0.  1.
     999902    2    1    2    0    0 -0.18329109778E-01  0.17772479731E-01 -0.73914791558E-02  0.10173508491E+01  0.10170035884E+01 0.  0.
     999903    2    3    3    0    0 -0.86178597108E-01 -0.24095442205E-01 -0.91803588249E-01  0.12972374267E+00  0.19824471312E-01 0.  0.
         14    1    1    2    0    0  0.18329109778E-01 -0.17772479731E-01  0.73914791558E-02  0.26579150949E-01  0.00000000000E+00 0.  1.
     999901    1    3    3    0    0  0.67849487330E-01  0.41867921936E-01  0.84412109093E-01  0.88762710638E+00  0.88000000000E+00 0. -1.
        -11    1    4    4    0    0 -0.60533244429E-01 -0.94083757926E-02 -0.53446302026E-01  0.81299197643E-01  0.51100000000E-03 0. -1.
         11    1    4    4    0    0 -0.25645352679E-01 -0.14687066413E-01 -0.38357286223E-01  0.48424545029E-01  0.51100000000E-03 0.  1.
</event>
<event>
 8    1  0.1109553E+005  0.1043930E+01  0.7957747E-01            NaN
         13   -1    0    0    0    0  0.00000000000E+00  0.00000000000E+00  0.74505805969E-08  0.10566000000E+00  0.10566000000E+00 0. -1.
     999900   -1    0    0    0    0 -0.00000000000E+00 -0.00000000000E+00 -0.74505805969E-08  0.93827000000E+00  0.93827000000E+00 0. -1.
     999902    2    1    2    0    0 -0.17736336869E-01  0.15391381496E-01 -0.72627275973E-03  0.10204353252E+01  0.10201648167E+01 0.  0.
     999903    2    3    3    0    0  0.16043325039E-02  0.79962482572E-01 -0.10270826755E+00  0.13198509262E+00  0.21783111574E-01 0.  0.
         14    1    1    2    0    0  0.17736336869E-01 -0.15391381496E-01  0.72627275973E-03  0.23494674758E-01  0.00000000000E+00 0.  1.
     999901    1    3    3    0    0 -0.19340669373E-01 -0.64571101076E-01  0.10198199479E+00  0.88845023262E+00  0.88000000000E+00 0.  1.
        -11    1    4    4    0    0 -0.32100905420E-02  0.59723023800E-01 -0.88389293791E-01  0.10672428323E+00  0.51100000000E-03 0. -1.
         11    1    4    4    0    0  0.48144230459E-02  0.20239458771E-01 -0.14318973754E-01  0.25260809389E-01  0.51100000000E-03 0.  1.
</event>
<event>
 8    1  0.1109553E+005  0.1043930E+01  0.7957747E-01            NaN
         13   -1    0    0    0    0  0.00000000000E+00  0.00000000000E+00  0.74505805969E-08  0.10566000000E+00  0.10566000000E+00 0. -1.
     999900   -1    0    0    0    0 -0.00000000000E+00 -0.00000000000E+00 -0.74505805969E-08  0.93827000000E+00  0.93827000000E+00 0. -1.
     999902    2    1    2    0    0  0.52153437371E-02  0.18802623265E-01  0.23203135446E-01  0.10136129430E+01  0.10131594515E+01 0.  0.
     999903    2    3    3    0    0 -0.39104403049E-02  0.12221423503E+00 -0.24215265920E-01  0.12624281379E+00  0.19981444946E-01 0.  0.
         14    1    1    2    0    0 -0.52153437371E-02 -0.18802623265E-01 -0.23203135446E-01  0.30317057022E-01  0.00000000000E+00 0.  1.
     999901    1    3    3    0    0  0.91257840420E-02 -0.10341161177E+00  0.47418401366E-01  0.88737012919E+00  0.88000000000E+00 0.  1.
        -11    1    4    4    0    0 -0.19752242504E-02  0.29981524075E-01  0.26194660318E-02  0.30164814270E-01  0.51100000000E-03 0.  1.
         11    1    4    4    0    0 -0.19352160544E-02  0.92232710960E-01 -0.26834731952E-01  0.96077999522E-01  0.51100000000E-03 0. -1.
</event>
<event>
 8    1  0.1109553E+005  0.1043930E+01  0.7957747E-01            NaN
         13   -1    0    0    0    0  0.00000000000E+00  0.00000000000E+00  0.74505805969E-08  0.10566000000E+00  0.10566000000E+00 0. -1.
     999900   -1    0    0    0    0 -0.00000000000E+00 -0.00000000000E+00 -0.74505805969E-08  0.93827000000E+00  0.93827000000E+00 0. -1.
     999902    2    1    2    0    0  0.19936528908E-01 -0.83969084812E-02  0.69438647227E-02  0.10212101735E+01  0.10209574076E+01 0.  0.
     999903    2    3    3    0    0  0.38482630864E-01  0.24494638410E-03 -0.12387401610E+00  0.13130458445E+00  0.20375209363E-01 0.  0.
         14    1    1    2    0    0 -0.19936528908E-01  0.83969084812E-02 -0.69438647227E-02  0.22719826457E-01  0.00000000000E+00 0.  1.
     999901    1    3    3    0    0 -0.18546101955E-01 -0.86418548653E-02  0.13081788082E+00  0.88990558909E+00  0.88000000000E+00 0.  1.
        -11    1    4    4    0    0  0.86633311050E-02  0.12844705242E-02 -0.61916453505E-01  0.62534882314E-01  0.51100000000E-03 0.  1.
         11    1    4    4    0    0  0.29819299759E-01 -0.10395241401E-02 -0.61957562594E-01  0.68769702138E-01  0.51100000000E-03 0. -1.
</event>
<event>
 8    1  0.1109553E+005  0.1043930E+01  0.7957747E-01            NaN
         13   -1    0    0    0    0  0.00000000000E+00  0.00000000000E+00  0.74505805969E-08  0.10566000000E+00  0.10566000000E+00 0.  1.
     999900   -1    0    0    0    0 -0.00000000000E+00 -0.00000000000E+00 -0.74505805969E-08  0.93827000000E+00  0.93827000000E+00 0. -1.
     999902    2    1    2    0    0  0.22123279166E-01 -0.61929909454E-02  0.13293447354E-01  0.10173874236E+01  0.10170411306E+01 0.  0.
     999903    2    3    3    0    0  0.31833914474E-01 -0.11181348793E+00 -0.51078456773E-01  0.12868402661E+00  0.20854634135E-01 0.  0.
         14    1    1    2    0    0 -0.22123279166E-01  0.61929909454E-02 -0.13293447354E-01  0.26542576372E-01  0.00000000000E+00 0.  1.
     999901    1    3    3    0    0 -0.97106353076E-02  0.10562049699E+00  0.64371904127E-01  0.88870339701E+00  0.88000000000E+00 0.  1.
        -11    1    4    4    0    0  0.31440383175E-01 -0.88872653494E-01 -0.34556230794E-01  0.10040538054E+00  0.51100000000E-03 0.  1.
         11    1    4    4    0    0  0.39353129954E-03 -0.22940834439E-01 -0.16522225979E-01  0.28278646077E-01  0.51100000000E-03 0. -1.
</event>
<event>
 8    1  0.1109553E+005  0.1043930E+01  0.7957747E-01            NaN
         13   -1    0    0    0    0  0.00000000000E+00  0.00000000000E+00  0.74505805969E-08  0.10566000000E+00  0.10566000000E+00 0.  1.
     999900   -1    0    0    0    0 -0.00000000000E+00 -0.00000000000E+00 -0.74505805969E-08  0.93827000000E+00  0.93827000000E+00 0. -1.
     999902    2    1    2    0    0  0.22888392589E-01  0.47627330284E-02 -0.50868616483E-02  0.10200043171E+01  0.10197236727E+01 0.  0.
     999903    2    3    3    0    0  0.50840145730E-01 -0.10893303538E+00  0.46420729258E-01  0.13075684862E+00  0.22166252329E-01 0.  0.
         14    1    1    2    0    0 -0.22888392589E-01 -0.47627330284E-02  0.50868616483E-02  0.23925682908E-01  0.00000000000E+00 0.  1.
     999901    1    3    3    0    0 -0.27951753141E-01  0.11369576841E+00 -0.51507590907E-01  0.88924746847E+00  0.88000000000E+00 0. -1.
        -11    1    4    4    0    0  0.31219316552E-01 -0.69225673671E-01  0.17731880499E-01  0.77984103048E-01  0.51100000000E-03 0.  1.
         11    1    4    4    0    0  0.19620829178E-01 -0.39707361708E-01  0.28688848759E-01  0.52772745575E-01  0.51100000000E-03 0. -1.
</event>
<event>
 8    1  0.1109553E+005  0.1043930E+01  0.7957747E-01            NaN
         13   -1    0    0    0    0  0.00000000000E+00  0.00000000000E+00  0.74505805969E-08  0.10566000000E+00  0.10566000000E+00 0.  1.
     999900   -1    0    0    0    0 -0.00000000000E+00 -0.00000000000E+00 -0.74505805969E-08  0.93827000000E+00  0.93827000000E+00 0.  1.
     999902    2    1    2    0    0  0.22312881568E-01 -0.54892849280E-02  0.52936720184E-02  0.10203499259E+01  0.10200774242E+01 0.  0.
     999903    2    3    3    0    0  0.76043090341E-01 -0.68132926731E-01 -0.81618184495E-01  0.13222559223E+00  0.19935694274E-01 0.  0.
         14    1    1    2    0    0 -0.22312881568E-01  0.54892849280E-02 -0.52936720184E-02  0.23580074137E-01  0.00000000000E+00 0. -1.
     999901    1    3    3    0    0 -0.53730208773E-01  0.62643641803E-01  0.86911856513E-01  0.88812433364E+00  0.88000000000E+00 0.  1.
        -11    1    4    4    0    0  0.77543351043E-02 -0.33588535145E-02 -0.13891069273E-01  0.16267591598E-01  0.51100000000E-03 0. -1.
         11    1    4    4    0    0  0.68288755236E-01 -0.64774073216E-01 -0.67727115222E-01  0.11595800063E+00  0.51100000000E-03 0.  1.
</event>
<event>
 8    1  0.1109553E+005  0.1043930E+01  0.7957747E-01            NaN
         13   -1    0    0    0    0  0.00000000000E+00  0.00000000000E+00  0.74505805969E-08  0.10566000000E+00  0.10566000000E+00 0.  1.
     999900   -1    0    0    0    0 -0.00000000000E+00 -0.00000000000E+00 -0.74505805969E-08  0.93827000000E+00  0.93827000000E+00 0. -1.
     999902    2    1    2    0    0  0.19965387981E-01 -0.12207174594E-01  0.44545443094E-02  0.10201082706E+01  0.10198300882E+01 0.  0.
     999903    2    3    3    0    0 -0.12857911704E-01  0.81913644367E-01  0.97418155764E-01  0.12961496310E+00  0.20846356042E-01 0.  0.
         14    1    1    2    0    0 -0.19965387981E-01  0.12207174594E-01 -0.44545443094E-02  0.23821729446E-01  0.00000000000E+00 0. -1.
     999901    1    3    3    0    0  0.32823299686E-01 -0.94120818960E-01 -0.92963611455E-01  0.89049330745E+00  0.88000000000E+00 0. -1.
        -11    1    4    4    0    0 -0.14030776683E-01  0.68107671299E-01  0.90465539456E-01  0.11410430550E+00  0.51100000000E-03 0. -1.
         11    1    4    4    0    0  0.11728649782E-02  0.13805973068E-01  0.69526163086E-02  0.15510657599E-01  0.51100000000E-03 0.  1.
</event>
<event>
 8    1  0.1109553E+005  0.1043930E+01  0.7957747E-01            NaN
         13   -1    0    0    0    0  0.00000000000E+00  0.00000000000E+00  0.74505805969E-08  0.10566000000E+00  0.10566000000E+00 0. -1.
     999900   -1    0    0    0    0 -0.00000000000E+00 -0.00000000000E+00 -0.74505805969E-08  0.93827000000E+00  0.93827000000E+00 0. -1.
     999902    2    1    2    0    0  0.16393376751E-01 -0.78752604207E-02  0.15384276313E-01  0.10201090326E+01  0.10198308683E+01 0.  0.
     999903    2    3    3    0    0  0.10665822039E+00 -0.72199068978E-01 -0.22463591218E-01  0.13234906767E+00  0.20566507815E-01 0.  0.
         14    1    1    2    0    0 -0.16393376751E-01  0.78752604207E-02 -0.15384276313E-01  0.23820967354E-01  0.00000000000E+00 0.  1.
     999901    1    3    3    0    0 -0.90264843639E-01  0.64323808558E-01  0.37847867531E-01  0.88775996498E+00  0.88000000000E+00 0.  1.
        -11    1    4    4    0    0  0.11488288623E-01 -0.15622700861E-01 -0.66533491885E-02  0.20507991957E-01  0.51100000000E-03 0.  1.
         11    1    4    4    0    0  0.95169931766E-01 -0.56576368117E-01 -0.15810242029E-01  0.11184107571E+00  0.51100000000E-03 0. -1.
</event>
<event>
 8    1  0.1109553E+005  0.1043930E+01  0.7957747E-01            NaN
         13   -1    0    0    0    0  0.00000000000E+00  0.00000000000E+00  0.74505805969E-08  0.10566000000E+00  0.10566000000E+00 0.  1.
     999900   -1    0    0    0    0 -0.00000000000E+00 -0.00000000000E+00 -0.74505805969E-08  0.93827000000E+00  0.93827000000E+00 0.  1.
     999902    2    1    2    0    0 -0.48942375049E-02  0.31074310212E-01  0.20169635857E-01  0.10065618247E+01  0.10058679468E+01 0.  0.
     999903    2    3    3    0    0  0.89436478258E-02  0.51231934545E-01  0.10840619161E+00  0.12181129111E+00  0.19529165568E-01 0.  0.
         14    1    1    2    0    0  0.48942375049E-02 -0.31074310212E-01 -0.20169635857E-01  0.37368175317E-01  0.00000000000E+00 0. -1.
     999901    1    3    3    0    0 -0.13837885331E-01 -0.20157624333E-01 -0.88236555757E-01  0.88475053357E+00  0.88000000000E+00 0.  1.
        -11    1    4    4    0    0  0.14324316157E-01  0.28547361918E-01  0.56441347225E-01  0.64853871923E-01  0.51100000000E-03 0. -1.
         11    1    4    4    0    0 -0.53806683313E-02  0.22684572627E-01  0.51964844388E-01  0.56957419185E-01  0.51100000000E-03 0.  1.
</event>
<event>
 8    1  0.1109553E+005  0.1043930E+01  0.7957747E-01            NaN
         13   -1    0    0    0    0  0.00000000000E+00  0.00000000000E+00  0.74505805969E-08  0.10566000000E+00  0.10566000000E+00 0.  1.
     999900   -1    0    0    0    0 -0.00000000000E+00 -0.00000000000E+00 -0.74505805969E-08  0.93827000000E+00  0.93827000000E+00 0.  1.
     999902    2    1    2    0    0  0.22231400403E-01 -0.81997579995E-02 -0.22835487685E-02  0.10201248369E+01  0.10198470459E+01 0.  0.
     999903    2    3    3    0    0  0.10407066429E+00  0.10148746300E-01 -0.79260687336E-01  0.13279185961E+00  0.20438229002E-01 0.  0.
         14    1    1    2    0    0 -0.22231400403E-01  0.81997579995E-02  0.22835487685E-02  0.23805163098E-01  0.00000000000E+00 0.  1.
     999901    1    3    3    0    0 -0.81839263889E-01 -0.18348504300E-01  0.76977138567E-01  0.88733297729E+00  0.88000000000E+00 0. -1.
        -11    1    4    4    0    0  0.25898248592E-01  0.99876981065E-02 -0.27218906952E-01  0.38879344262E-01  0.51100000000E-03 0. -1.
         11    1    4    4    0    0  0.78172415700E-01  0.16104819391E-03 -0.52041780384E-01  0.93912515350E-01  0.51100000000E-03 0.  1.
</event>
<event>
 8    1  0.1109553E+005  0.1043930E+01  0.7957747E-01            NaN
         13   -1    0    0    0    0  0.00000000000E+00  0.00000000000E+00  0.74505805969E-08  0.10566000000E+00  0.10566000000E+00 0.  1.
     999900   -1    0    0    0    0 -0.00000000000E+00 -0.00000000000E+00 -0.74505805969E-08  0.93827000000E+00  0.93827000000E+00 0.  1.
     999902    2    1    2    0    0 -0.13035061674E-01  0.17614723029E-01 -0.80638197948E-02  0.10205801287E+01  0.10203129827E+01 0.  0.
     999903    2    3    3    0    0  0.11151170786E+00 -0.55385628032E-01 -0.25761636171E-01  0.12864169934E+00  0.19560064616E-01 0.  0.
         14    1    1    2    0    0  0.13035061674E-01 -0.17614723029E-01  0.80638197948E-02  0.23349871304E-01  0.00000000000E+00 0. -1.
     999901    1    3    3    0    0 -0.12454676954E+00  0.73000351061E-01  0.17697816376E-01  0.89193842936E+00  0.88000000000E+00 0. -1.
        -11    1    4    4    0    0  0.80343479200E-01 -0.49194789467E-01 -0.20750220239E-01  0.96467791110E-01  0.51100000000E-03 0.  1.
         11    1    4    4    0    0  0.31168228664E-01 -0.61908385648E-02 -0.50114159319E-02  0.32173908231E-01  0.51100000000E-03 0. -1.
</event>
<event>
 8    1  0.1109553E+005  0.1043930E+01  0.7957747E-01            NaN
         13   -1    0    0    0    0  0.00000000000E+00  0.00000000000E+00  0.74505805969E-08  0.10566000000E+00  0.10566000000E+00 0.  1.
     999900   -1    0    0    0    0 -0.00000000000E+00 -0.00000000000E+00 -0.74505805969E-08  0.93827000000E+00  0.93827000000E+00 0. -1.
     999902    2    1    2    0    0  0.18182441543E-01  0.76175986985E-02 -0.19954748494E-01  0.10158796706E+01  0.10154923359E+01 0.  0.
     999903    2    3    3    0    0  0.90207584911E-01  0.27073041150E-01  0.82368190327E-01  0.12681492646E+00  0.20667579981E-01 0.  0.
         14    1    1    2    0    0 -0.18182441543E-01 -0.76175986985E-02  0.19954748494E-01  0.28050329371E-01  0.00000000000E+00 0.  1.
     999901    1    3    3    0    0 -0.72025143369E-01 -0.19455442451E-01 -0.10232293882E+00  0.88906474417E+00  0.88000000000E+00 0. -1.
        -11    1    4    4    0    0  0.46852724411E-01  0.24777182647E-01  0.44904637852E-01  0.69467792438E-01  0.51100000000E-03 0. -1.
         11    1    4    4    0    0  0.43354860500E-01  0.22958585030E-02  0.37463552475E-01  0.57347134020E-01  0.51100000000E-03 0.  1.
</event>
<event>
 8    1  0.1109553E+005  0.1043930E+01  0.7957747E-01            NaN
         13   -1    0    0    0    0  0.00000000000E+00  0.00000000000E+00  0.74505805969E-08  0.10566000000E+00  0.10566000000E+00 0.  1.
     999900   -1    0    0    0    0 -0.00000000000E+00 -0.00000000000E+00 -0.74505805969E-08  0.93827000000E+00  0.93827000000E+00 0. -1.
     999902    2    1    2    0    0 -0.90580024627E-03 -0.14581201654E-01 -0.17144256644E-01  0.10214054034E+01  0.10211570108E+01 0.  0.
     999903    2    3    3    0    0  0.73538590822E-01  0.10125555132E+00 -0.31612662741E-01  0.13058024914E+00  0.19779535038E-01 0.  0.
         14    1    1    2    0    0  0.90580024627E-03  0.14581201654E-01  0.17144256644E-01  0.22524596592E-01  0.00000000000E+00 0.  1.
     999901    1    3    3    0    0 -0.74444391068E-01 -0.11583675298E+00  0.14468406097E-01  0.89082515427E+00  0.88000000000E+00 0.  1.
        -11    1    4    4    0    0  0.41614452937E-02  0.19695673762E-02 -0.45003225965E-02  0.64583935350E-02  0.51100000000E-03 0.  1.
         11    1    4    4    0    0  0.69377145528E-01  0.99285983946E-01 -0.27112340145E-01  0.12412185561E+00  0.51100000000E-03 0. -1.
</event>
<event>
 8    1  0.1109553E+005  0.1043930E+01  0.7957747E-01            NaN
         13   -1    0    0    0    0  0.00000000000E+00  0.00000000000E+00  0.74505805969E-08  0.10566000000E+00  0.10566000000E+00 0. -1.
     999900   -1    0    0    0    0 -0.00000000000E+00 -0.00000000000E+00 -0.74505805969E-08  0.93827000000E+00  0.93827000000E+00 0. -1.
     999902    2    1    2    0    0 -0.22446263365E-01 -0.91625231826E-02 -0.47377273718E-02  0.10192271129E+01  0.10189277085E+01 0.  0.
     999903    2    3    3    0    0 -0.11199005816E+00  0.33683409067E-01  0.56522343089E-01  0.13152972002E+00  0.20711031057E-01 0.  0.
         14    1    1    2    0    0  0.22446263365E-01  0.91625231826E-02  0.47377273718E-02  0.24702887093E-01  0.00000000000E+00 0.  1.
     999901    1    3    3    0    0  0.89543794799E-01 -0.42845932250E-01 -0.61260070461E-01  0.88769739288E+00  0.88000000000E+00 0. -1.
        -11    1    4    4    0    0 -0.71150660104E-01  0.29969344556E-01  0.30823618489E-01  0.83132031276E-01  0.51100000000E-03 0. -1.
         11    1    4    4    0    0 -0.40839398060E-01  0.37140645114E-02  0.25698724600E-01  0.48397688749E-01  0.51100000000E-03 0.  1.
</event>
<event>
 8    1  0.1109553E+005  0.1043930E+01  0.7957747E-01            NaN
         13   -1    0    0    0    0  0.00000000000E+00  0.00000000000E+00  0.74505805969E-08  0.10566000000E+00  0.10566000000E+00 0.  1.
     999900   -1    0    0    0    0 -0.00000000000E+00 -0.00000000000E+00 -0.74505805969E-08  0.93827000000E+00  0.93827000000E+00 0.  1.
     999902    2    1    2    0    0 -0.50476298249E-02  0.10241981731E-01 -0.20059782184E-01  0.10208481539E+01  0.10205871750E+01 0.  0.
     999903    2    3    3    0    0  0.13099156709E-02  0.71752851541E-01  0.10522642559E+00  0.12982590991E+00  0.25139185691E-01 0.  0.
         14    1    1    2    0    0  0.50476298249E-02 -0.10241981731E-01  0.20059782184E-01  0.23081846068E-01  0.00000000000E+00 0.  1.
     999901    1    3    3    0    0 -0.63575454957E-02 -0.61510869809E-01 -0.12528620777E+00  0.89102224403E+00  0.88000000000E+00 0.  1.
        -11    1    4    4    0    0  0.13219263631E-01  0.39026154735E-01  0.56439340059E-01  0.69881685095E-01  0.51100000000E-03 0.  1.
         11    1    4    4    0    0 -0.11909347960E-01  0.32726696805E-01  0.48787085532E-01  0.59944224812E-01  0.51100000000E-03 0. -1.
</event>
<event>
 8    1  0.1109553E+005  0.1043930E+01  0.7957747E-01            NaN
         13   -1    0    0    0    0  0.00000000000E+00  0.00000000000E+00  0.74505805969E-08  0.10566000000E+00  0.10566000000E+00 0.  1.
     999900   -1    0    0    0    0 -0.00000000000E+00 -0.00000000000E+00 -0.74505805969E-08  0.93827000000E+00  0.93827000000E+00 0. -1.
     999902    2    1    2    0    0  0.61548596149E-02 -0.17256049663E-01  0.14034460425E-01  0.10208514466E+01  0.10205905430E+01 0.  0.
     999903    2    3    3    0    0  0.71562263711E-01  0.92886950268E-01 -0.49170884350E-01  0.12933334554E+00  0.23668444869E-01 0.  0.
         14    1    1    2    0    0 -0.61548596149E-02  0.17256049663E-01 -0.14034460425E-01  0.23078553383E-01  0.00000000000E+00 0. -1.
     999901    1    3    3    0    0 -0.65407404096E-01 -0.11014299993E+00  0.63205344775E-01  0.89151810108E+00  0.88000000000E+00 0.  1.
        -11    1    4    4    0    0  0.30746109993E-01  0.36336050164E-01 -0.32459440795E-01  0.57615173686E-01  0.51100000000E-03 0. -1.
         11    1    4    4    0    0  0.40816153718E-01  0.56550900104E-01 -0.16711443556E-01  0.71718171851E-01  0.51100000000E-03 0.  1.
</event>
<event>
 8    1  0.1109553E+005  0.1043930E+01  0.7957747E-01            NaN
         13   -1    0    0    0    0  0.00000000000E+00  0.00000000000E+00  0.74505805969E-08  0.10566000000E+00  0.10566000000E+00 0.  1.
     999900   -1    0    0    0    0 -0.00000000000E+00 -0.00000000000E+00 -0.74505805969E-08  0.93827000000E+00  0.93827000000E+00 0.  1.
     999902    2    1    2    0    0 -0.19595216246E-02  0.22689598093E-01 -0.92895374833E-02  0.10193342058E+01  0.10190374232E+01 0.  0.
     999903    2    3    3    0    0  0.92768391152E-01  0.80878172710E-01 -0.42280335685E-01  0.13172636420E+00  0.20419476508E-01 0.  0.
         14    1    1    2    0    0  0.19595216246E-02 -0.22689598093E-01  0.92895374833E-02  0.24595794220E-01  0.00000000000E+00 0.  1.
     999901    1    3    3    0    0 -0.94727912777E-01 -0.58188574617E-01  0.32990798201E-01  0.88760784158E+00  0.88000000000E+00 0. -1.
        -11    1    4    4    0    0  0.45227575511E-01  0.42526585672E-01 -0.31787865689E-01  0.69747929013E-01  0.51100000000E-03 0.  1.
         11    1    4    4    0    0  0.47540815642E-01  0.38351587038E-01 -0.10492469996E-01  0.61978435184E-01  0.51100000000E-03 0. -1.
</event>
<event>
 8    1  0.1109553E+005  0.1043930E+01  0.7957747E-01            NaN
         13   -1    0    0    0    0  0.00000000000E+00  0.00000000000E+00  0.74505805969E-08  0.10566000000E+00  0.10566000000E+00 0. -1.
     999900   -1    0    0    0    0 -0.00000000000E+00 -0.00000000000E+00 -0.74505805969E-08  0.93827000000E+00  0.93827000000E+00 0.  1.
     999902    2    1    2    0    0  0.53851246483E-02  0.18519766173E-01 -0.10446747475E-01  0.10219956470E+01  0.10217602394E+01 0.  0.
     999903    2    3    3    0    0 -0.75491519226E-01 -0.56660077380E-01  0.86204737382E-01  0.12984400639E+00  0.22778836781E-01 0.  0.
         14    1    1    2    0    0 -0.53851246483E-02 -0.18519766173E-01  0.10446747475E-01  0.21934352951E-01  0.00000000000E+00 0. -1.
     999901    1    3    3    0    0  0.80876643874E-01  0.75179843554E-01 -0.96651484857E-01  0.89215164066E+00  0.88000000000E+00 0.  1.
        -11    1    4    4    0    0 -0.23841458454E-01 -0.31629864094E-01  0.32481911086E-01  0.51226937373E-01  0.51100000000E-03 0.  1.
         11    1    4    4    0    0 -0.51650060772E-01 -0.25030213286E-01  0.53722826296E-01  0.78617069019E-01  0.51100000000E-03 0. -1.
</event>
<event>
 8    1  0.1109553E+005  0.1043930E+01  0.7957747E-01            NaN
         13   -1    0    0    0    0  0.00000000000E+00  0.00000000000E+00  0.74505805969E-08  0.10566000000E+00  0.10566000000E+00 0. -1.
     999900   -1    0    0    0    0 -0.00000000000E+00 -0.00000000000E+00 -0.74505805969E-08  0.93827000000E+00  0.93827000000E+00 0. -1.
     999902    2    1    2    0    0  0.11099128469E-01  0.90078621159E-02 -0.19057022309E-01  0.10201076926E+01  0.10198294966E+01 0.  0.
     999903    2    3    3    0    0 -0.63538231609E-01 -0.10297060410E+00  0.37316056986E-01  0.12809433140E+00  0.19380852452E-01 0.  0.
         14    1    1    2    0    0 -0.11099128469E-01 -0.90078621159E-02  0.19057022309E-01  0.23822307444E-01  0.00000000000E+00 0. -1.
     999901    1    3    3    0    0  0.74637360078E-01  0.11197846622E+00 -0.56373079296E-01  0.89201336116E+00  0.88000000000E+00 0. -1.
        -11    1    4    4    0    0 -0.39202540827E-01 -0.66267451087E-01  0.33239731170E-01  0.83865100787E-01  0.51100000000E-03 0. -1.
         11    1    4    4    0    0 -0.24335690782E-01 -0.36703153016E-01  0.40763258160E-02  0.44229230610E-01  0.51100000000E-03 0.  1.
</event>
<event>
 8    1  0.1109553E+005  0.1043930E+01  0.7957747E-01            NaN
         13   -1    0    0    0    0  0.00000000000E+00  0.00000000000E+00  0.74505805969E-08  0.10566000000E+00  0.10566000000E+00 0. -1.
     999900   -1    0    0    0    0 -0.00000000000E+00 -0.00000000000E+00 -0.74505805969E-08  0.93827000000E+00  0.93827000000E+00 0. -1.
     999902    2    1    2    0    0  0.15209420110E-01 -0.17192551260E-01 -0.40563360728E-02  0.10206198275E+01  0.10203535996E+01 0.  0.
     999903    2    3    3    0    0 -0.89378125503E-01 -0.37258392746E-01  0.84151149667E-01  0.12982144784E+00  0.19888569097E-01 0.  0.
         14    1    1    2    0    0 -0.15209420110E-01  0.17192551260E-01  0.40563360728E-02  0.23310172484E-01  0.00000000000E+00 0. -1.
     999901    1    3    3    0    0  0.10458754561E+00  0.20065841486E-01 -0.88207485740E-01  0.89079837968E+00  0.88000000000E+00 0. -1.
        -11    1    4    4    0    0 -0.49007227454E-01 -0.27414037253E-01  0.38490002440E-01  0.68080681475E-01  0.51100000000E-03 0. -1.
         11    1    4    4    0    0 -0.40370898048E-01 -0.98443554931E-02  0.45661147227E-01  0.61740766365E-01  0.51100000000E-03 0.  1.
</event>
<event>
 8    1  0.1109553E+005  0.1043930E+01  0.7957747E-01            NaN
         13   -1    0    0    0    0  0.00000000000E+00  0.00000000000E+00  0.74505805969E-08  0.10566000000E+00  0.10566000000E+00 0.  1.
     999900   -1    0    0    0    0 -0.00000000000E+00 -0.00000000000E+00 -0.74505805969E-08  0.93827000000E+00  0.93827000000E+00 0. -1.
     999902    2    1    2    0    0  0.12155225168E-01 -0.11163902488E-01  0.16565269927E-01  0.10205464505E+01  0.10202785244E+01 0.  0.
     999903    2    3    3    0    0  0.42487665929E-01  0.12031833531E+00 -0.15494502840E-01  0.12968424747E+00  0.17211067890E-01 0.  0.
         14    1    1    2    0    0 -0.12155225168E-01  0.11163902488E-01 -0.16565269927E-01  0.23383549462E-01  0.00000000000E+00 0. -1.
     999901    1    3    3    0    0 -0.30332440761E-01 -0.13148223779E+00  0.32059772767E-01  0.89086220306E+00  0.88000000000E+00 0.  1.
        -11    1    4    4    0    0  0.33254334795E-01  0.86061531604E-01 -0.18404857067E-01  0.94082080597E-01  0.51100000000E-03 0.  1.
         11    1    4    4    0    0  0.92333311341E-02  0.34256803702E-01  0.29103542272E-02  0.35602166878E-01  0.51100000000E-03 0. -1.
</event>
<event>
 8    1  0.1109553E+005  0.1043930E+01  0.7957747E-01            NaN
         13   -1    0    0    0    0  0.00000000000E+00  0.00000000000E+00  0.74505805969E-08  0.10566000000E+00  0.10566000000E+00 0.  1.
     999900   -1    0    0    0    0 -0.00000000000E+00 -0.00000000000E+00 -0.74505805969E-08  0.93827000000E+00  0.93827000000E+00 0.  1.
     999902    2    1    2    0    0 -0.87854326606E-02 -0.12812308310E-01 -0.18577904077E-01  0.10197127006E+01  0.10194250900E+01 0.  0.
     999903    2    3    3    0    0 -0.85877547394E-01 -0.97969158495E-01 -0.10755161010E-01  0.13221279715E+00  0.19789923656E-01 0.  0.
         14    1    1    2    0    0  0.87854326606E-02  0.12812308310E-01  0.18577904077E-01  0.24217299419E-01  0.00000000000E+00 0.  1.
     999901    1    3    3    0    0  0.77092114734E-01  0.85156850185E-01 -0.78227430671E-02  0.88749990343E+00  0.88000000000E+00 0.  1.
        -11    1    4    4    0    0 -0.35135664368E-01 -0.47673368892E-01 -0.13382642438E-01  0.60717553078E-01  0.51100000000E-03 0. -1.
         11    1    4    4    0    0 -0.50741883026E-01 -0.50295789603E-01  0.26274814285E-02  0.71495244069E-01  0.51100000000E-03 0.  1.
</event>
<event>
 8    1  0.1109553E+005  0.1043930E+01  0.7957747E-01            NaN
         13   -1    0    0    0    0  0.00000000000E+00  0.00000000000E+00  0.74505805969E-08  0.10566000000E+00  0.10566000000E+00 0.  1.
     999900   -1    0    0    0    0 -0.00000000000E+00 -0.00000000000E+00 -0.74505805969E-08  0.93827000000E+00  0.93827000000E+00 0.  1.
     999902    2    1    2    0    0  0.21069704654E-01 -0.27395004697E-01  0.51491857072E-02  0.10089881504E+01  0.10083829406E+01 0.  0.
     999903    2    3    3    0    0  0.38484631321E-01  0.82214014600E-01  0.74530564531E-01  0.11930776261E+00  0.20960107937E-01 0.  0.
         14    1    1    2    0    0 -0.21069704654E-01  0.27395004697E-01 -0.51491857072E-02  0.34941849550E-01  0.00000000000E+00 0.  1.
     999901    1    3    3    0    0 -0.17414926667E-01 -0.10960901930E+00 -0.69381378824E-01  0.88968038784E+00  0.88000000000E+00 0. -1.
        -11    1    4    4    0    0  0.39175750878E-01  0.65309328928E-01  0.62819338712E-01  0.98724760517E-01  0.51100000000E-03 0.  1.
         11    1    4    4    0    0 -0.69111955747E-03  0.16904685672E-01  0.11711225819E-01  0.20583002091E-01  0.51100000000E-03 0. -1.
</event>
<event>
 8    1  0.1109553E+005  0.1043930E+01  0.7957747E-01            NaN
         13   -1    0    0    0    0  0.00000000000E+00  0.00000000000E+00  0.74505805969E-08  0.10566000000E+00  0.10566000000E+00 0. -1.
     999900   -1    0    0    0    0 -0.00000000000E+00 -0.00000000000E+00 -0.74505805969E-08  0.93827000000E+00  0.93827000000E+00 0. -1.
     999902    2    1    2    0    0  0.22493923534E-01 -0.34134592491E-02  0.17531925517E-02  0.10211111047E+01  0.10208561045E+01 0.  0.
     999903    2    3    3    0    0  0.25308087378E-01  0.48527568105E-01  0.11810939773E+00  0.13192914561E+00  0.21448670697E-01 0.  0.
         14    1    1    2    0    0 -0.22493923534E-01  0.34134592491E-02 -0.17531925517E-02  0.22818895331E-01  0.00000000000E+00 0.  1.
     999901    1    3    3    0    0 -0.28141638442E-02 -0.51941027354E-01 -0.11635620518E+00  0.88918195906E+00  0.88000000000E+00 0. -1.
        -11    1    4    4    0    0  0.17170674683E-01  0.28881684331E-01  0.93746341655E-01  0.99587255478E-01  0.51100000000E-03 0.  1.
         11    1    4    4    0    0  0.81374126954E-02  0.19645883774E-01  0.24363056076E-01  0.32341890127E-01  0.51100000000E-03 0. -1.
</event>
<event>
 8    1  0.1109553E+005  0.1043930E+01  0.7957747E-01            NaN
         13   -1    0    0    0    0  0.00000000000E+00  0.00000000000E+00  0.74505805969E-08  0.10566000000E+00  0.10566000000E+00 0.  1.
     999900   -1    0    0    0    0 -0.00000000000E+00 -0.00000000000E+00 -0.74505805969E-08  0.93827000000E+00  0.93827000000E+00 0.  1.
     999902    2    1    2    0    0  0.16549114523E-01 -0.11926091594E-01  0.11712001890E-01  0.10204081837E+01  0.10201370426E+01 0.  0.
     999903    2    3    3    0    0  0.38524460383E-02 -0.11591861749E+00 -0.57934826445E-01  0.13146142969E+00  0.21764561998E-01 0.  0.
         14    1    1    2    0    0 -0.16549114523E-01  0.11926091594E-01 -0.11712001890E-01  0.23521816267E-01  0.00000000000E+00 0. -1.
     999901    1    3    3    0    0  0.12696668485E-01  0.10399252589E+00  0.69646828336E-01  0.88894675405E+00  0.88000000000E+00 0. -1.
        -11    1    4    4    0    0  0.11223996741E-01 -0.46321157259E-01 -0.18507595504E-01  0.51131398621E-01  0.51100000000E-03 0.  1.
         11    1    4    4    0    0 -0.73715507025E-02 -0.69597460230E-01 -0.39427230942E-01  0.80330031065E-01  0.51100000000E-03 0. -1.
</event>
<event>
 8    1  0.1109553E+005  0.1043930E+01  0.7957747E-01            NaN
         13   -1    0    0    0    0  0.00000000000E+00  0.00000000000E+00  0.74505805969E-08  0.10566000000E+00  0.10566000000E+00 0.  1.
     999900   -1    0    0    0    0 -0.00000000000E+00 -0.00000000000E+00 -0.74505805969E-08  0.93827000000E+00  0.93827000000E+00 0.  1.
     999902    2    1    2    0    0  0.13608135049E-01  0.13464367251E-01  0.29823102093E-01  0.10084914907E+01  0.10078686416E+01 0.  0.
     999903    2    3    3    0    0  0.36776301372E-01  0.35656826222E-01  0.11137737120E+00  0.12413841188E+00  0.19532559735E-01 0.  0.
         14    1    1    2    0    0 -0.13608135049E-01 -0.13464367251E-01 -0.29823102093E-01  0.35438509328E-01  0.00000000000E+00 0. -1.
     999901    1    3    3    0    0 -0.23168166323E-01 -0.22192458970E-01 -0.81554269103E-01  0.88435307880E+00  0.88000000000E+00 0.  1.
        -11    1    4    4    0    0  0.33321140592E-01  0.31805856495E-01  0.79853316025E-01  0.92188524876E-01  0.51100000000E-03 0.  1.
         11    1    4    4    0    0  0.34551607795E-02  0.38509697267E-02  0.31524055171E-01  0.31949887000E-01  0.51100000000E-03 0. -1.
</event>
<event>
 8    1  0.1109553E+005  0.1043930E+01  0.7957747E-01            NaN
         13   -1    0    0    0    0  0.00000000000E+00  0.00000000000E+00  0.74505805969E-08  0.10566000000E+00  0.10566000000E+00 0. -1.
     999900   -1    0    0    0    0 -0.00000000000E+00 -0.00000000000E+00 -0.74505805969E-08  0.93827000000E+00  0.93827000000E+00 0.  1.
     999902    2    1    2    0    0  0.90245319586E-02 -0.22040422790E-01  0.68598422086E-02  0.10191453304E+01  0.10188439157E+01 0.  0.
     999903    2    3    3    0    0 -0.11207652130E+00 -0.47697497627E-01  0.40637041981E-01  0.12983961813E+00  0.19255112246E-01 0.  0.
         14    1    1    2    0    0 -0.90245319586E-02  0.22040422790E-01 -0.68598422086E-02  0.24784669636E-01  0.00000000000E+00 0. -1.
     999901    1    3    3    0    0  0.12110105326E+00  0.25657074836E-01 -0.33777199773E-01  0.88930571224E+00  0.88000000000E+00 0.  1.
        -11    1    4    4    0    0 -0.62554580441E-01 -0.23214431773E-01  0.31711622756E-01  0.73877422231E-01  0.51100000000E-03 0. -1.
         11    1    4    4    0    0 -0.49521940861E-01 -0.24483065854E-01  0.89254192250E-02  0.55962195897E-01  0.51100000000E-03 0.  1.
</event>
<event>
 8    1  0.1109553E+005  0.1043930E+01  0.7957747E-01            NaN
         13   -1    0    0    0    0  0.00000000000E+00  0.00000000000E+00  0.74505805969E-08  0.10566000000E+00  0.10566000000E+00 0.  1.
     999900   -1    0    0    0    0 -0.00000000000E+00 -0.00000000000E+00 -0.74505805969E-08  0.93827000000E+00  0.93827000000E+00 0. -1.
     999902    2    1    2    0    0 -0.10100538725E-01 -0.12092442885E-01  0.18501554400E-01  0.10196286508E+01  0.10193390162E+01 0.  0.
     999903    2    3    3    0    0  0.10781431189E+00 -0.55228792181E-01  0.43614401184E-01  0.13036192383E+00  0.20441865424E-01 0.  0.
         14    1    1    2    0    0  0.10100538725E-01  0.12092442885E-01 -0.18501554400E-01  0.24301349194E-01  0.00000000000E+00 0. -1.
     999901    1    3    3    0    0 -0.11791485061E+00  0.43136349296E-01 -0.25112846784E-01  0.88926672697E+00  0.88000000000E+00 0. -1.
        -11    1    4    4    0    0  0.87206727641E-01 -0.40116003819E-01  0.26438863600E-01  0.99566971119E-01  0.51100000000E-03 0. -1.
         11    1    4    4    0    0  0.20607584244E-01 -0.15112788362E-01  0.17175537584E-01  0.30794952716E-01  0.51100000000E-03 0.  1.
</event>
<event>
 7    1  0.1109553E+005  0.1043930E+01  0.7957747E-01            NaN
         13   -1    0    0    0    0  0.00000000000E+00  0.00000000000E+00  0.74505805969E-08  0.10566000000E+00  0.10566000000E+00 0. -1.
     999900   -1    0    0    0    0 -0.00000000000E+00 -0.00000000000E+00 -0.74505805969E-08  0.93827000000E+00  0.93827000000E+00 0. -1.
     999903    2    1    2    0    0  0.33194384450E-01  0.10155691712E+00 -0.41798587244E-01  0.11554495476E+00  0.13705477033E-01 0.  0.
         14    1    1    2    0    0 -0.23365491834E-01 -0.12307373159E-01  0.34929976986E-01  0.43789507133E-01  0.00000000000E+00 0. -1.
     999901    1    1    2    0    0 -0.98288926162E-02 -0.89249543965E-01  0.68686102585E-02  0.88459553810E+00  0.88000000000E+00 0.  1.
        -11    1    3    3    0    0  0.24621919363E-01  0.88103031892E-01 -0.32554131951E-01  0.97100029711E-01  0.51100000000E-03 0.  1.
         11    1    3    3    0    0  0.85724650874E-02  0.13453885232E-01 -0.92444552930E-02  0.18444925052E-01  0.51100000000E-03 0. -1.
</event>
<event>
 8    1  0.1109553E+005  0.1043930E+01  0.7957747E-01            NaN
         13   -1    0    0    0    0  0.00000000000E+00  0.00000000000E+00  0.74505805969E-08  0.10566000000E+00  0.10566000000E+00 0. -1.
     999900   -1    0    0    0    0 -0.00000000000E+00 -0.00000000000E+00 -0.74505805969E-08  0.93827000000E+00  0.93827000000E+00 0. -1.
     999902    2    1    2    0    0  0.27605290224E-02 -0.10127521104E-02 -0.23221551019E-01  0.10205230220E+01  0.10202545525E+01 0.  0.
     999903    2    3    3    0    0  0.78916167650E-01  0.41460291865E-01  0.90734648716E-01  0.12890109752E+00  0.20880592567E-01 0.  0.
         14    1    1    2    0    0 -0.27605290224E-02  0.10127521104E-02  0.23221551019E-01  0.23406977999E-01  0.00000000000E+00 0. -1.
     999901    1    3    3    0    0 -0.76155638627E-01 -0.42473043976E-01 -0.11395619973E+00  0.89162192448E+00  0.88000000000E+00 0. -1.
        -11    1    4    4    0    0  0.53715929294E-01  0.37657280747E-01  0.59319501990E-01  0.88445103259E-01  0.51100000000E-03 0.  1.
         11    1    4    4    0    0  0.25200238356E-01  0.38030111181E-02  0.31415146725E-01  0.40455994260E-01  0.51100000000E-03 0. -1.
</event>
<event>
 8    1  0.1109553E+005  0.1043930E+01  0.7957747E-01            NaN
         13   -1    0    0    0    0  0.00000000000E+00  0.00000000000E+00  0.74505805969E-08  0.10566000000E+00  0.10566000000E+00 0.  1.
     999900   -1    0    0    0    0 -0.00000000000E+00 -0.00000000000E+00 -0.74505805969E-08  0.93827000000E+00  0.93827000000E+00 0. -1.
     999902    2    1    2    0    0  0.10000472925E-02 -0.24735652197E-01 -0.29750533090E-02  0.10189960166E+01  0.10186909141E+01 0.  0.
     999903    2    3    3    0    0  0.84576237176E-01  0.46762827090E-01 -0.82475849587E-01  0.12859308051E+00  0.19849753075E-01 0.  0.
         14    1    1    2    0    0 -0.10000472925E-02  0.24735652197E-01  0.29750533090E-02  0.24933983364E-01  0.00000000000E+00 0. -1.
     999901    1    3    3    0    0 -0.83576189884E-01 -0.71498479288E-01  0.79500796278E-01  0.89040293613E+00  0.88000000000E+00 0.  1.
        -11    1    4    4    0    0  0.25566992797E-01  0.42917315010E-02 -0.20417655887E-01  0.33003513038E-01  0.51100000000E-03 0.  1.
         11    1    4    4    0    0  0.59009244380E-01  0.42471095589E-01 -0.62058193699E-01  0.95589567470E-01  0.51100000000E-03 0. -1.
</event>
<event>
 8    1  0.1109553E+005  0.1043930E+01  0.7957747E-01            NaN
         13   -1    0    0    0    0  0.00000000000E+00  0.00000000000E+00  0.74505805969E-08  0.10566000000E+00  0.10566000000E+00 0. -1.
     999900   -1    0    0    0    0 -0.00000000000E+00 -0.00000000000E+00 -0.74505805969E-08  0.93827000000E+00  0.93827000000E+00 0. -1.
     999902    2    1    2    0    0  0.30665893231E-02  0.99889982033E-02 -0.20610129692E-01  0.10208223930E+01  0.10205608245E+01 0.  0.
     999903    2    3    3    0    0 -0.66909711177E-01 -0.10909879851E+00  0.49924379187E-02  0.12968038556E+00  0.20313066645E-01 0.  0.
         14    1    1    2    0    0 -0.30665893231E-02 -0.99889982033E-02  0.20610129692E-01  0.23107606996E-01  0.00000000000E+00 0. -1.
     999901    1    3    3    0    0  0.69976300500E-01  0.11908779672E+00 -0.25602567610E-01  0.89114200744E+00  0.88000000000E+00 0. -1.
        -11    1    4    4    0    0 -0.45179399105E-01 -0.86988284573E-01 -0.13549699009E-02  0.98031815351E-01  0.51100000000E-03 0. -1.
         11    1    4    4    0    0 -0.21730312072E-01 -0.22110513939E-01  0.63474078197E-02  0.31648570212E-01  0.51100000000E-03 0.  1.
</event>
<event>
 8    1  0.1109553E+005  0.1043930E+01  0.7957747E-01            NaN
         13   -1    0    0    0    0  0.00000000000E+00  0.00000000000E+00  0.74505805969E-08  0.10566000000E+00  0.10566000000E+00 0.  1.
     999900   -1    0    0    0    0 -0.00000000000E+00 -0.00000000000E+00 -0.74505805969E-08  0.93827000000E+00  0.93827000000E+00 0.  1.
     999902    2    1    2    0    0 -0.15702341673E-01  0.55346593335E-02  0.17965737565E-01  0.10194358433E+01  0.10191415382E+01 0.  0.
     999903    2    3    3    0    0  0.10048589846E+00  0.26322321253E-02 -0.74331967091E-01  0.12700825656E+00  0.22394451708E-01 0.  0.
         14    1    1    2    0    0  0.15702341673E-01 -0.55346593335E-02 -0.17965737565E-01  0.24494156736E-01  0.00000000000E+00 0. -1.
     999901    1    3    3    0    0 -0.11618824013E+00  0.29024272082E-02  0.92297704656E-01  0.89242758671E+00  0.88000000000E+00 0. -1.
        -11    1    4    4    0    0  0.80279386910E-01  0.10144370476E-01 -0.63597941916E-01  0.10292058857E+00  0.51100000000E-03 0. -1.
         11    1    4    4    0    0  0.20206511549E-01 -0.75121383508E-02 -0.10734025175E-01  0.24087667987E-01  0.51100000000E-03 0.  1.
</event>
<event>
 8    1  0.1109553E+005  0.1043930E+01  0.7957747E-01            NaN
         13   -1    0    0    0    0  0.00000000000E+00  0.00000000000E+00  0.74505805969E-08  0.10566000000E+00  0.10566000000E+00 0. -1.
     999900   -1    0    0    0    0 -0.00000000000E+00 -0.00000000000E+00 -0.74505805969E-08  0.93827000000E+00  0.93827000000E+00 0. -1.
     999902    2    1    2    0    0 -0.69948011066E-02  0.22219382647E-01  0.31375149067E-02  0.10204252727E+01  0.10201545299E+01 0.  0.
     999903    2    3    3    0    0  0.28610915900E-02  0.74149208433E-01 -0.10715726449E+00  0.13196661645E+00  0.20645037373E-01 0.  0.
         14    1    1    2    0    0  0.69948011066E-02 -0.22219382647E-01 -0.31375149067E-02  0.23504727344E-01  0.00000000000E+00 0. -1.
     999901    1    3    3    0    0 -0.98558926966E-02 -0.51929825786E-01  0.11029477939E+00  0.88845865621E+00  0.88000000000E+00 0.  1.
        -11    1    4    4    0    0 -0.95001252839E-03  0.21406224256E-01 -0.48296831217E-01  0.52839133106E-01  0.51100000000E-03 0.  1.
         11    1    4    4    0    0  0.38111041184E-02  0.52742984176E-01 -0.58860433270E-01  0.79127483343E-01  0.51100000000E-03 0. -1.
</event>
<event>
 8    1  0.1109553E+005  0.1043930E+01  0.7957747E-01            NaN
         13   -1    0    0    0    0  0.00000000000E+00  0.00000000000E+00  0.74505805969E-08  0.10566000000E+00  0.10566000000E+00 0.  1.
     999900   -1    0    0    0    0 -0.00000000000E+00 -0.00000000000E+00 -0.74505805969E-08  0.93827000000E+00  0.93827000000E+00 0. -1.
     999902    2    1    2    0    0  0.20832353542E-01 -0.11907048663E-01  0.10460929585E-02  0.10199121093E+01  0.10196292717E+01 0.  0.
     999903    2    3    3    0    0 -0.58189063451E-01 -0.66942929856E-01  0.92772292860E-01  0.12991939682E+00  0.20125317013E-01 0.  0.
         14    1    1    2    0    0 -0.20832353542E-01  0.11907048663E-01 -0.10460929585E-02  0.24017890674E-01  0.00000000000E+00 0. -1.
     999901    1    3    3    0    0  0.79021416993E-01  0.55035881194E-01 -0.91726199901E-01  0.88999271250E+00  0.88000000000E+00 0. -1.
        -11    1    4    4    0    0 -0.10607514251E-01 -0.37396049271E-02  0.16878561775E-01  0.20289183626E-01  0.51100000000E-03 0.  1.
         11    1    4    4    0    0 -0.47581549200E-01 -0.63203324929E-01  0.75893731085E-01  0.10963021320E+00  0.51100000000E-03 0. -1.
</event>
<event>
 8    1  0.1109553E+005  0.1043930E+01  0.7957747E-01            NaN
         13   -1    0    0    0    0  0.00000000000E+00  0.00000000000E+00  0.74505805969E-08  0.10566000000E+00  0.10566000000E+00 0.  1.
     999900   -1    0    0    0    0 -0.00000000000E+00 -0.00000000000E+00 -0.74505805969E-08  0.93827000000E+00  0.93827000000E+00 0.  1.
     999902    2    1    2    0    0 -0.52587461554E-03  0.16239818392E-01 -0.11881198223E-01  0.10238011372E+01  0.10236032422E+01 0.  0.
     999903    2    3    3    0    0  0.37487063257E-01 -0.10847183792E+00 -0.63535463971E-01  0.13269724663E+00  0.20009611353E-01 0.  0.
         14    1    1    2    0    0  0.52587461554E-03 -0.16239818392E-01  0.11881198223E-01  0.20128862778E-01  0.00000000000E+00 0.  1.
     999901    1    3    3    0    0 -0.38012937872E-01  0.12471165631E+00  0.51654265749E-01  0.89110389060E+00  0.88000000000E+00 0. -1.
        -11    1    4    4    0    0  0.19061377347E-01 -0.28156469734E-01 -0.16221531476E-01  0.37676545737E-01  0.51100000000E-03 0. -1.
         11    1    4    4    0    0  0.18425685909E-01 -0.80315368187E-01 -0.47313932495E-01  0.95020700889E-01  0.51100000000E-03 0.  1.
</event>
<event>
 8    1  0.1109553E+005  0.1043930E+01  0.7957747E-01            NaN
         13   -1    0    0    0    0  0.00000000000E+00  0.00000000000E+00  0.74505805969E-08  0.10566000000E+00  0.10566000000E+00 0. -1.
     999900   -1    0    0    0    0 -0.00000000000E+00 -0.00000000000E+00 -0.74505805969E-08  0.93827000000E+00  0.93827000000E+00 0. -1.
     999902    2    1    2    0    0 -0.94261976422E-02  0.18843832111E-01 -0.88505374552E-02  0.10210766584E+01  0.10208208790E+01 0.  0.
     999903    2    3    3    0    0 -0.16233334329E-01 -0.11317900731E+00  0.54863646018E-01  0.12892428101E+00  0.23204347478E-01 0.  0.
         14    1    1    2    0    0  0.94261976422E-02 -0.18843832111E-01  0.88505374552E-02  0.22853341634E-01  0.00000000000E+00 0. -1.
     999901    1    3    3    0    0  0.68071366868E-02  0.13202283942E+00 -0.63714183474E-01  0.89215237735E+00  0.88000000000E+00 0. -1.
        -11    1    4    4    0    0  0.49970179862E-02 -0.12891179007E-01  0.97454504539E-02  0.16922990590E-01  0.51100000000E-03 0. -1.
         11    1    4    4    0    0 -0.21230352315E-01 -0.10028782830E+00  0.45118195565E-01  0.11200129042E+00  0.51100000000E-03 0.  1.
</event>
<event>
 8    1  0.1109553E+005  0.1043930E+01  0.7957747E-01            NaN
         13   -1    0    0    0    0  0.00000000000E+00  0.00000000000E+00  0.74505805969E-08  0.10566000000E+00  0.10566000000E+00 0.  1.
     999900   -1    0    0    0    0 -0.00000000000E+00 -0.00000000000E+00 -0.74505805969E-08  0.93827000000E+00  0.93827000000E+00 0.  1.
     999902    2    1    2    0    0  0.23580637810E-02 -0.19636634158E-01  0.12827690126E-01  0.10203565510E+01  0.10200842042E+01 0.  0.
     999903    2    3    3    0    0  0.19726065685E-01  0.67418329238E-02  0.12899437270E+00  0.13216053140E+00  0.19806258965E-01 0.  0.
         14    1    1    2    0    0 -0.23580637810E-02  0.19636634158E-01 -0.12827690126E-01  0.23573449043E-01  0.00000000000E+00 0.  1.
     999901    1    3    3    0    0 -0.17368001904E-01 -0.26378467081E-01 -0.11616668257E+00  0.88819601956E+00  0.88000000000E+00 0.  1.
        -11    1    4    4    0    0  0.21780012593E-01  0.11535785540E-03  0.96074769156E-01  0.98513981979E-01  0.51100000000E-03 0. -1.
         11    1    4    4    0    0 -0.20539469079E-02  0.66264750684E-02  0.32919603541E-01  0.33646549422E-01  0.51100000000E-03 0.  1.
</event>
<event>
 8    1  0.1109553E+005  0.1043930E+01  0.7957747E-01            NaN
         13   -1    0    0    0    0  0.00000000000E+00  0.00000000000E+00  0.74505805969E-08  0.10566000000E+00  0.10566000000E+00 0. -1.
     999900   -1    0    0    0    0 -0.00000000000E+00 -0.00000000000E+00 -0.74505805969E-08  0.93827000000E+00  0.93827000000E+00 0. -1.
     999902    2    1    2    0    0  0.47308230293E-02 -0.53249820185E-02  0.22677707989E-01  0.10201599651E+01  0.10198830030E+01 0.  0.
     999903    2    3    3    0    0  0.65374369160E-03 -0.12898245688E+00 -0.97488602919E-02  0.13091349982E+00  0.20159429422E-01 0.  0.
         14    1    1    2    0    0 -0.47308230293E-02  0.53249820185E-02 -0.22677707989E-01  0.23770034911E-01  0.00000000000E+00 0.  1.
     999901    1    3    3    0    0  0.40770793377E-02  0.12365747486E+00  0.32426568281E-01  0.88924646527E+00  0.88000000000E+00 0.  1.
        -11    1    4    4    0    0 -0.79391021678E-02 -0.69949667954E-01  0.38588291975E-03  0.70401671974E-01  0.51100000000E-03 0. -1.
         11    1    4    4    0    0  0.85928458594E-02 -0.59032788925E-01 -0.10134743212E-01  0.60511827845E-01  0.51100000000E-03 0.  1.
</event>
<event>
 8    1  0.1109553E+005  0.1043930E+01  0.7957747E-01            NaN
         13   -1    0    0    0    0  0.00000000000E+00  0.00000000000E+00  0.74505805969E-08  0.10566000000E+00  0.10566000000E+00 0. -1.
     999900   -1    0    0    0    0 -0.00000000000E+00 -0.00000000000E+00 -0.74505805969E-08  0.93827000000E+00  0.93827000000E+00 0.  1.
     999902    2    1    2    0    0 -0.18939146419E-01 -0.92442964839E-02 -0.82688181149E-02  0.10212910593E+01  0.10210401099E+01 0.  0.
     999903    2    3    3    0    0 -0.10850130650E+00 -0.27673545267E-01  0.68786954657E-01  0.13320400844E+00  0.21755553610E-01 0.  0.
         14    1    1    2    0    0  0.18939146419E-01  0.92442964839E-02  0.82688181149E-02  0.22638940734E-01  0.00000000000E+00 0. -1.
     999901    1    3    3    0    0  0.89562160083E-01  0.18429248783E-01 -0.77055772772E-01  0.88808705083E+00  0.88000000000E+00 0.  1.
        -11    1    4    4    0    0 -0.45122241516E-01 -0.33575723923E-02  0.19290812501E-01  0.49190309409E-01  0.51100000000E-03 0.  1.
         11    1    4    4    0    0 -0.63379064986E-01 -0.24315972875E-01  0.49496142156E-01  0.84013699030E-01  0.51100000000E-03 0. -1.
</event>
<event>
 8    1  0.1109553E+005  0.1043930E+01  0.7957747E-01            NaN
         13   -1    0    0    0    0  0.00000000000E+00  0.00000000000E+00  0.74505805969E-08  0.10566000000E+00  0.10566000000E+00 0. -1.
     999900   -1    0    0    0    0 -0.00000000000E+00 -0.00000000000E+00 -0.74505805969E-08  0.93827000000E+00  0.93827000000E+00 0. -1.
     999902    2    1    2    0    0 -0.13685986644E-02 -0.16659717575E-01  0.13002382680E-01  0.10227526251E+01  0.10225333496E+01 0.  0.
     999903    2    3    3    0    0 -0.58532440943E-01  0.10931004270E+00 -0.36040114658E-01  0.13059722838E+00  0.19545181430E-01 0.  0.
         14    1    1    2    0    0  0.13685986644E-02  0.16659717575E-01 -0.13002382680E-01  0.21177374893E-01  0.00000000000E+00 0.  1.
     999901    1    3    3    0    0  0.57163842279E-01 -0.12596976028E+00  0.49042497339E-01  0.89215539673E+00  0.88000000000E+00 0.  1.
        -11    1    4    4    0    0 -0.28951988981E-01  0.41251900908E-01 -0.22354607404E-01  0.55135529268E-01  0.51100000000E-03 0. -1.
         11    1    4    4    0    0 -0.29580451962E-01  0.68058141794E-01 -0.13685507254E-01  0.75461699110E-01  0.51100000000E-03 0.  1.
</event>
<event>
 8    1  0.1109553E+005  0.1043930E+01  0.7957747E-01            NaN
         13   -1    0    0    0    0  0.00000000000E+00  0.00000000000E+00  0.74505805969E-08  0.10566000000E+00  0.10566000000E+00 0. -1.
     999900   -1    0    0    0    0 -0.00000000000E+00 -0.00000000000E+00 -0.74505805969E-08  0.93827000000E+00  0.93827000000E+00 0. -1.
     999902    2    1    2    0    0 -0.32640860476E-02 -0.17525558117E-02 -0.21997998318E-01  0.10216222068E+01  0.10213786250E+01 0.  0.
     999903    2    3    3    0    0  0.45293636346E-02  0.12918597462E+00 -0.16504210628E-01  0.13188302120E+00  0.20278341625E-01 0.  0.
         14    1    1    2    0    0  0.32640860476E-02  0.17525558117E-02  0.21997998318E-01  0.22307793248E-01  0.00000000000E+00 0. -1.
     999901    1    3    3    0    0 -0.77934496822E-02 -0.13093853043E+00 -0.54937876904E-02  0.88973918555E+00  0.88000000000E+00 0. -1.
        -11    1    4    4    0    0  0.56980907288E-02  0.99037632718E-01 -0.41882241653E-02  0.99291103705E-01  0.51100000000E-03 0.  1.
         11    1    4    4    0    0 -0.11687270942E-02  0.30148341899E-01 -0.12315986462E-01  0.32591917492E-01  0.51100000000E-03 0. -1.
</event>
<event>
 8    1  0.1109553E+005  0.1043930E+01  0.7957747E-01            NaN
         13   -1    0    0    0    0  0.00000000000E+00  0.00000000000E+00  0.74505805969E-08  0.10566000000E+00  0.10566000000E+00 0.  1.
     999900   -1    0    0    0    0 -0.00000000000E+00 -0.00000000000E+00 -0.74505805969E-08  0.93827000000E+00  0.93827000000E+00 0. -1.
     999902    2    1    2    0    0  0.13515282647E-01 -0.70738678328E-02  0.17731833764E-01  0.10205393951E+01  0.10202713053E+01 0.  0.
     999903    2    3    3    0    0 -0.11866835083E+00  0.27420388934E-01 -0.34509334985E-01  0.12846792571E+00  0.21887405448E-01 0.  0.
         14    1    1    2    0    0 -0.13515282647E-01  0.70738678328E-02 -0.17731833764E-01  0.23390604947E-01  0.00000000000E+00 0. -1.
     999901    1    3    3    0    0  0.13218363347E+00 -0.34494256767E-01  0.52241168749E-01  0.89207146935E+00  0.88000000000E+00 0. -1.
        -11    1    4    4    0    0 -0.94313540453E-01  0.23723043955E-01 -0.36198348364E-01  0.10377094137E+00  0.51100000000E-03 0.  1.
         11    1    4    4    0    0 -0.24354810374E-01  0.36973449790E-02  0.16890133789E-02  0.24696984339E-01  0.51100000000E-03 0. -1.
</event>
<event>
 8    1  0.1109553E+005  0.1043930E+01  0.7957747E-01            NaN
         13   -1    0    0    0    0  0.00000000000E+00  0.00000000000E+00  0.74505805969E-08  0.10566000000E+00  0.10566000000E+00 0.  1.
     999900   -1    0    0    0    0 -0.00000000000E+00 -0.00000000000E+00 -0.74505805969E-08  0.93827000000E+00  0.93827000000E+00 0.  1.
     999902    2    1    2    0    0 -0.13679552202E-01  0.41531326214E-02  0.18048943521E-01  0.10209051651E+01  0.10206454885E+01 0.  0.
     999903    2    3    3    0    0  0.43159794431E-01  0.27114634947E-03 -0.11911280382E+00  0.12845957794E+00  0.21240568626E-01 0.  0.
         14    1    1    2    0    0  0.13679552202E-01 -0.41531326214E-02 -0.18048943521E-01  0.23024834879E-01  0.00000000000E+00 0. -1.
     999901    1    3    3    0    0 -0.56839346633E-01  0.38819862719E-02  0.13716174734E+00  0.89244558718E+00  0.88000000000E+00 0. -1.
        -11    1    4    4    0    0  0.32602598032E-01 -0.73696213330E-03 -0.58984791560E-01  0.67401329868E-01  0.51100000000E-03 0. -1.
         11    1    4    4    0    0  0.10557196399E-01  0.10081084828E-02 -0.60128012259E-01  0.61058248073E-01  0.51100000000E-03 0.  1.
</event>
<event>
 8    1  0.1109553E+005  0.1043930E+01  0.7957747E-01            NaN
         13   -1    0    0    0    0  0.00000000000E+00  0.00000000000E+00  0.74505805969E-08  0.10566000000E+00  0.10566000000E+00 0. -1.
     999900   -1    0    0    0    0 -0.00000000000E+00 -0.00000000000E+00 -0.74505805969E-08  0.93827000000E+00  0.93827000000E+00 0. -1.
     999902    2    1    2    0    0  0.30254393441E-02  0.23063816660E-02 -0.23892505045E-01  0.10197365199E+01  0.10194494817E+01 0.  0.
     999903    2    3    3    0    0 -0.90903217995E-01 -0.24756311456E-01 -0.90175819014E-01  0.13184662827E+00  0.19380016868E-01 0.  0.
         14    1    1    2    0    0 -0.30254393441E-02 -0.23063816660E-02  0.23892505045E-01  0.24193480050E-01  0.00000000000E+00 0. -1.
     999901    1    3    3    0    0  0.93928657339E-01  0.27062693122E-01  0.66283313969E-01  0.88788989168E+00  0.88000000000E+00 0.  1.
        -11    1    4    4    0    0 -0.39438615994E-01 -0.97062819260E-02 -0.26045195718E-01  0.48251732418E-01  0.51100000000E-03 0.  1.
         11    1    4    4    0    0 -0.51464602001E-01 -0.15050029530E-01 -0.64130623296E-01  0.83594895857E-01  0.51100000000E-03 0. -1.
</event>
<event>
 8    1  0.1109553E+005  0.1043930E+01  0.7957747E-01            NaN
         13   -1    0    0    0    0  0.00000000000E+00  0.00000000000E+00  0.74505805969E-08  0.10566000000E+00  0.10566000000E+00 0. -1.
     999900   -1    0    0    0    0 -0.00000000000E+00 -0.00000000000E+00 -0.74505805969E-08  0.93827000000E+00  0.93827000000E+00 0.  1.
     999902    2    1    2    0    0 -0.63360364335E-02 -0.19051523001E-01 -0.13403037140E-01  0.10197898407E+01  0.10195040814E+01 0.  0.
     999903    2    3    3    0    0 -0.65900513651E-01 -0.90335412214E-01 -0.69347353167E-01  0.13313371440E+00  0.20301874793E-01 0.  0.
         14    1    1    2    0    0  0.63360364335E-02  0.19051523001E-01  0.13403037140E-01  0.24140159298E-01  0.00000000000E+00 0. -1.
     999901    1    3    3    0    0  0.59564477218E-01  0.71283889213E-01  0.55944316026E-01  0.88665612630E+00  0.88000000000E+00 0.  1.
        -11    1    4    4    0    0 -0.93920385206E-02 -0.23767012190E-01 -0.22433535278E-01  0.34008908863E-01  0.51100000000E-03 0.  1.
         11    1    4    4    0    0 -0.56508475131E-01 -0.66568400025E-01 -0.46913817889E-01  0.99124805540E-01  0.51100000000E-03 0. -1.
</event>
<event>
 8    1  0.1109553E+005  0.1043930E+01  0.7957747E-01            NaN
         13   -1    0    0    0    0  0.00000000000E+00  0.00000000000E+00  0.74505805969E-08  0.10566000000E+00  0.10566000000E+00 0.  1.
     999900   -1    0    0    0    0 -0.00000000000E+00 -0.00000000000E+00 -0.74505805969E-08  0.93827000000E+00  0.93827000000E+00 0. -1.
     999902    2    1    2    0    0 -0.17029786133E-01 -0.18033871811E-01  0.59911158626E-02  0.10184127976E+01  0.10180930698E+01 0.  0.
     999903    2    3    3    0    0  0.63088766344E-01  0.39808487712E-01  0.10172997059E+00  0.12772168993E+00  0.19973357978E-01 0.  0.
         14    1    1    2    0    0  0.17029786133E-01  0.18033871811E-01 -0.59911158626E-02  0.25517202385E-01  0.00000000000E+00 0.  1.
     999901    1    3    3    0    0 -0.80118552478E-01 -0.57842359524E-01 -0.95738854729E-01  0.89069110769E+00  0.88000000000E+00 0. -1.
        -11    1    4    4    0    0  0.21860657746E-01  0.24312679570E-01  0.50465179498E-01  0.60133104092E-01  0.51100000000E-03 0.  1.
         11    1    4    4    0    0  0.41228108598E-01  0.15495808142E-01  0.51264791094E-01  0.67588585837E-01  0.51100000000E-03 0. -1.
</event>
<event>
 8    1  0.1109553E+005  0.1043930E+01  0.7957747E-01            NaN
         13   -1    0    0    0    0  0.00000000000E+00  0.00000000000E+00  0.74505805969E-08  0.10566000000E+00  0.10566000000E+00 0. -1.
     999900   -1    0    0    0    0 -0.00000000000E+00 -0.00000000000E+00 -0.74505805969E-08  0.93827000000E+00  0.93827000000E+00 0.  1.
     999902    2    1    2    0    0 -0.10110177089E-01 -0.10610647506E-01 -0.18357417597E-01  0.10204396551E+01  0.10201692475E+01 0.  0.
     999903    2    3    3    0    0 -0.41194310118E-02  0.86118883678E-01 -0.97283893715E-01  0.13160790509E+00  0.20568249047E-01 0.  0.
         14    1    1    2    0    0  0.10110177089E-01  0.10610647506E-01  0.18357417597E-01  0.23490344870E-01  0.00000000000E+00 0. -1.
     999901    1    3    3    0    0 -0.59907460773E-02 -0.96729531184E-01  0.78926476118E-01  0.88883175004E+00  0.88000000000E+00 0. -1.
        -11    1    4    4    0    0 -0.76031888195E-02  0.45769789338E-01 -0.38889208931E-01  0.60541835028E-01  0.51100000000E-03 0. -1.
         11    1    4    4    0    0  0.34837578077E-02  0.40349094341E-01 -0.58394684784E-01  0.71066070065E-01  0.51100000000E-03 0.  1.
</event>
<event>
 8    1  0.1109553E+005  0.1043930E+01  0.7957747E-01            NaN
         13   -1    0    0    0    0  0.00000000000E+00  0.00000000000E+00  0.74505805969E-08  0.10566000000E+00  0.10566000000E+00 0. -1.
     999900   -1    0    0    0    0 -0.00000000000E+00 -0.00000000000E+00 -0.74505805969E-08  0.93827000000E+00  0.93827000000E+00 0. -1.
     999902    2    1    2    0    0 -0.13506082617E-01  0.15931386894E-01 -0.11668200708E-01  0.10200057390E+01  0.10197251283E+01 0.  0.
     999903    2    3    3    0    0 -0.76001762621E-01  0.41408575748E-01  0.96074633741E-01  0.13086946400E+00  0.20138105468E-01 0.  0.
         14    1    1    2    0    0  0.13506082617E-01 -0.15931386894E-01  0.11668200708E-01  0.23924260987E-01  0.00000000000E+00 0. -1.
     999901    1    3    3    0    0  0.62495680004E-01 -0.25477188855E-01 -0.10774283445E+00  0.88913627501E+00  0.88000000000E+00 0.  1.
        -11    1    4    4    0    0 -0.41622271871E-01  0.13095008704E-01  0.39444330257E-01  0.58821841854E-01  0.51100000000E-03 0. -1.
         11    1    4    4    0    0 -0.34379490749E-01  0.28313567044E-01  0.56630303485E-01  0.72047622145E-01  0.51100000000E-03 0.  1.
</event>
<event>
 8    1  0.1109553E+005  0.1043930E+01  0.7957747E-01            NaN
         13   -1    0    0    0    0  0.00000000000E+00  0.00000000000E+00  0.74505805969E-08  0.10566000000E+00  0.10566000000E+00 0.  1.
     999900   -1    0    0    0    0 -0.00000000000E+00 -0.00000000000E+00 -0.74505805969E-08  0.93827000000E+00  0.93827000000E+00 0. -1.
     999902    2    1    2    0    0  0.19358927870E-02  0.22587533151E-01  0.72426768401E-02  0.10201308256E+01  0.10198531760E+01 0.  0.
     999903    2    3    3    0    0 -0.94406473297E-01 -0.42775610191E-02  0.88243053217E-01  0.13076889378E+00  0.19564953613E-01 0.  0.
         14    1    1    2    0    0 -0.19358927870E-02 -0.22587533151E-01 -0.72426768401E-02  0.23799174409E-01  0.00000000000E+00 0. -1.
     999901    1    3    3    0    0  0.96342366084E-01  0.26865094170E-01 -0.81000376377E-01  0.88936193181E+00  0.88000000000E+00 0. -1.
        -11    1    4    4    0    0 -0.66464861579E-01  0.58394762547E-02  0.63213838432E-01  0.91912609571E-01  0.51100000000E-03 0. -1.
         11    1    4    4    0    0 -0.27941611717E-01 -0.10117037274E-01  0.25029214785E-01  0.38856284206E-01  0.51100000000E-03 0.  1.
</event>
<event>
 8    1  0.1109553E+005  0.1043930E+01  0.7957747E-01            NaN
         13   -1    0    0    0    0  0.00000000000E+00  0.00000000000E+00  0.74505805969E-08  0.10566000000E+00  0.10566000000E+00 0.  1.
     999900   -1    0    0    0    0 -0.00000000000E+00 -0.00000000000E+00 -0.74505805969E-08  0.93827000000E+00  0.93827000000E+00 0.  1.
     999902    2    1    2    0    0  0.93283446750E-02 -0.20884125166E-01  0.29499641089E-02  0.10208677584E+01  0.10206072277E+01 0.  0.
     999903    2    3    3    0    0 -0.90350064936E-01 -0.66904131033E-02 -0.92962229506E-01  0.12994890932E+00  0.60701776677E-02 0.  0.
         14    1    1    2    0    0 -0.93283446750E-02  0.20884125166E-01 -0.29499641089E-02  0.23062241577E-01  0.00000000000E+00 0. -1.
     999901    1    3    3    0    0  0.99678409611E-01 -0.14193712063E-01  0.95912193615E-01  0.89091884910E+00  0.88000000000E+00 0. -1.
        -11    1    4    4    0    0 -0.31695505124E-01 -0.22145201298E-02 -0.28586848561E-01  0.42743165256E-01  0.51100000000E-03 0.  1.
         11    1    4    4    0    0 -0.58654559812E-01 -0.44758929736E-02 -0.64375380945E-01  0.87205744062E-01  0.51100000000E-03 0. -1.
</event>
<event>
 8    1  0.1109553E+005  0.1043930E+01  0.7957747E-01            NaN
         13   -1    0    0    0    0  0.00000000000E+00  0.00000000000E+00  0.74505805969E-08  0.10566000000E+00  0.10566000000E+00 0. -1.
     999900   -1    0    0    0    0 -0.00000000000E+00 -0.00000000000E+00 -0.74505805969E-08  0.93827000000E+00  0.93827000000E+00 0. -1.
     999902    2    1    2    0    0 -0.81122877452E-03 -0.10492068317E-02 -0.23891045381E-01  0.10200021715E+01  0.10197214761E+01 0.  0.
     999903    2    3    3    0    0  0.68301980734E-01  0.22003267544E-01 -0.10989600187E+00  0.13281284287E+00  0.20317865299E-01 0.  0.
         14    1    1    2    0    0  0.81122877452E-03  0.10492068317E-02  0.23891045381E-01  0.23927828495E-01  0.00000000000E+00 0. -1.
     999901    1    3    3    0    0 -0.69113209509E-01 -0.23052474375E-01  0.86004956484E-01  0.88718932863E+00  0.88000000000E+00 0.  1.
        -11    1    4    4    0    0  0.35243175890E-01  0.60923936846E-02 -0.70000324772E-01  0.78609829517E-01  0.51100000000E-03 0.  1.
         11    1    4    4    0    0  0.33058804845E-01  0.15910873859E-01 -0.39895677094E-01  0.54203013353E-01  0.51100000000E-03 0. -1.
</event>
<event>
 8    1  0.1109553E+005  0.1043930E+01  0.7957747E-01            NaN
         13   -1    0    0    0    0  0.00000000000E+00  0.00000000000E+00  0.74505805969E-08  0.10566000000E+00  0.10566000000E+00 0. -1.
     999900   -1    0    0    0    0 -0.00000000000E+00 -0.00000000000E+00 -0.74505805969E-08  0.93827000000E+00  0.93827000000E+00 0. -1.
     999902    2    1    2    0    0  0.12664409462E-01 -0.18500293720E-01 -0.73737844495E-02  0.10203287112E+01  0.10200557132E+01 0.  0.
     999903    2    3    3    0    0  0.12756651058E+00 -0.26566078027E-01 -0.16481640313E-01  0.13277561267E+00  0.19461442136E-01 0.  0.
         14    1    1    2    0    0 -0.12664409462E-01  0.18500293720E-01  0.73737844495E-02  0.23601288775E-01  0.00000000000E+00 0. -1.
     999901    1    3    3    0    0 -0.11490210111E+00  0.80657843076E-02  0.91078558635E-02  0.88755309856E+00  0.88000000000E+00 0.  1.
        -11    1    4    4    0    0  0.13958384739E-01  0.20929546107E-02  0.16237869387E-02  0.14216707374E-01  0.51100000000E-03 0. -1.
         11    1    4    4    0    0  0.11360812584E+00 -0.28659032638E-01 -0.18105427252E-01  0.11855890530E+00  0.51100000000E-03 0.  1.
</event>
<event>
 8    1  0.1150019E+005  0.1043930E+01  0.7957747E-01            NaN
         13   -1    0    0    0    0  0.00000000000E+00  0.00000000000E+00  0.74505805969E-08  0.10566000000E+00  0.10566000000E+00 0.  1.
     999900   -1    0    0    0    0 -0.00000000000E+00 -0.00000000000E+00 -0.74505805969E-08  0.93827000000E+00  0.93827000000E+00 0.  1.
     999902    2    1    2    0    0  0.30429413414E-02  0.75809121442E-02  0.23447654469E-01  0.10191001345E+01  0.10187976060E+01 0.  0.
     999903    2    3    3    0    0 -0.11320831375E+00  0.44588908265E-01  0.42389297492E-01  0.13048169448E+00  0.20599199308E-01 0.  0.
         14    1    1    2    0    0 -0.30429413414E-02 -0.75809121442E-02 -0.23447654469E-01  0.24829865506E-01  0.00000000000E+00 0. -1.
     999901    1    3    3    0    0  0.11625125509E+00 -0.37007996121E-01 -0.18941643024E-01  0.88861844001E+00  0.88000000000E+00 0. -1.
        -11    1    4    4    0    0 -0.60814715426E-01  0.34543064318E-01  0.26790962607E-01  0.74897728292E-01  0.51100000000E-03 0.  1.
         11    1    4    4    0    0 -0.52393598320E-01  0.10045843947E-01  0.15598334885E-01  0.55583966193E-01  0.51100000000E-03 0. -1.
</event>
<event>
 8    1  0.1109553E+005  0.1043930E+01  0.7957747E-01            NaN
         13   -1    0    0    0    0  0.00000000000E+00  0.00000000000E+00  0.74505805969E-08  0.10566000000E+00  0.10566000000E+00 0. -1.
     999900   -1    0    0    0    0 -0.00000000000E+00 -0.00000000000E+00 -0.74505805969E-08  0.93827000000E+00  0.93827000000E+00 0. -1.
     999902    2    1    2    0    0  0.58937852023E-04  0.14028536721E-01  0.25202760729E-01  0.10150858938E+01  0.10146760021E+01 0.  0.
     999903    2    3    3    0    0 -0.10626997068E+00  0.53826830773E-01  0.40188221215E-01  0.12766586637E+00  0.22200133587E-01 0.  0.
         14    1    1    2    0    0 -0.58937852023E-04 -0.14028536721E-01 -0.25202760729E-01  0.28844106236E-01  0.00000000000E+00 0.  1.
     999901    1    3    3    0    0  0.10632890853E+00 -0.39798294052E-01 -0.14985460485E-01  0.88742002740E+00  0.88000000000E+00 0. -1.
        -11    1    4    4    0    0 -0.78302865469E-01  0.33654506878E-01  0.19442024145E-01  0.87419780357E-01  0.51100000000E-03 0. -1.
         11    1    4    4    0    0 -0.27967105212E-01  0.20172323895E-01  0.20746197070E-01  0.40246086010E-01  0.51100000000E-03 0.  1.
</event>
<event>
 8    1  0.1109553E+005  0.1043930E+01  0.7957747E-01            NaN
         13   -1    0    0    0    0  0.00000000000E+00  0.00000000000E+00  0.74505805969E-08  0.10566000000E+00  0.10566000000E+00 0.  1.
     999900   -1    0    0    0    0 -0.00000000000E+00 -0.00000000000E+00 -0.74505805969E-08  0.93827000000E+00  0.93827000000E+00 0. -1.
     999902    2    1    2    0    0  0.20753221101E-01  0.98644837525E-02 -0.15815200357E-02  0.10208972965E+01  0.10206374403E+01 0.  0.
     999903    2    3    3    0    0 -0.85572452068E-01  0.25358888050E-01 -0.91976063355E-01  0.12976520818E+00  0.20339500180E-01 0.  0.
         14    1    1    2    0    0 -0.20753221101E-01 -0.98644837525E-02  0.15815200357E-02  0.23032703519E-01  0.00000000000E+00 0. -1.
     999901    1    3    3    0    0  0.10632567317E+00 -0.15494404297E-01  0.90394543319E-01  0.89113208830E+00  0.88000000000E+00 0.  1.
        -11    1    4    4    0    0 -0.43599136362E-01  0.23831837504E-02 -0.42565542756E-01  0.60980741283E-01  0.51100000000E-03 0.  1.
         11    1    4    4    0    0 -0.41973315706E-01  0.22975704299E-01 -0.49410520598E-01  0.68784466896E-01  0.51100000000E-03 0. -1.
</event>
<event>
 8    1  0.1109553E+005  0.1043930E+01  0.7957747E-01            NaN
         13   -1    0    0    0    0  0.00000000000E+00  0.00000000000E+00  0.74505805969E-08  0.10566000000E+00  0.10566000000E+00 0.  1.
     999900   -1    0    0    0    0 -0.00000000000E+00 -0.00000000000E+00 -0.74505805969E-08  0.93827000000E+00  0.93827000000E+00 0.  1.
     999902    2    1    2    0    0 -0.95956117480E-02  0.29829921017E-02  0.21275569872E-01  0.10204007867E+01  0.10201294729E+01 0.  0.
     999903    2    3    3    0    0  0.79099708236E-01  0.55403872614E-01 -0.82113370165E-01  0.12837831978E+00  0.20298632644E-01 0.  0.
         14    1    1    2    0    0  0.95956117480E-02 -0.29829921017E-02 -0.21275569872E-01  0.23529213333E-01  0.00000000000E+00 0.  1.
     999901    1    3    3    0    0 -0.88695319984E-01 -0.52420880512E-01  0.10338894004E+00  0.89202246688E+00  0.88000000000E+00 0. -1.
        -11    1    4    4    0    0  0.54141905589E-01  0.44444833906E-01 -0.49002637403E-01  0.85488062296E-01  0.51100000000E-03 0. -1.
         11    1    4    4    0    0  0.24957802647E-01  0.10959038708E-01 -0.33110732762E-01  0.42890257488E-01  0.51100000000E-03 0.  1.
</event>
<event>
 8    1  0.1109553E+005  0.1043930E+01  0.7957747E-01            NaN
         13   -1    0    0    0    0  0.00000000000E+00  0.00000000000E+00  0.74505805969E-08  0.10566000000E+00  0.10566000000E+00 0.  1.
     999900   -1    0    0    0    0 -0.00000000000E+00 -0.00000000000E+00 -0.74505805969E-08  0.93827000000E+00  0.93827000000E+00 0. -1.
     999902    2    1    2    0    0  0.90399667113E-02 -0.27155404450E-02  0.21936689067E-01  0.10200487629E+01  0.10197691725E+01 0.  0.
     999903    2    3    3    0    0 -0.10167463970E+00  0.77064749320E-01 -0.63330238971E-02  0.12908198722E+00  0.18583441177E-01 0.  0.
         14    1    1    2    0    0 -0.90399667113E-02  0.27155404450E-02 -0.21936689067E-01  0.23881237097E-01  0.00000000000E+00 0. -1.
     999901    1    3    3    0    0  0.11071460641E+00 -0.79780289765E-01  0.28269712964E-01  0.89096677569E+00  0.88000000000E+00 0.  1.
        -11    1    4    4    0    0 -0.61654845564E-01  0.46240482810E-01  0.52687414576E-02  0.77249744268E-01  0.51100000000E-03 0.  1.
         11    1    4    4    0    0 -0.40019794136E-01  0.30824266510E-01 -0.11601765355E-01  0.51832242947E-01  0.51100000000E-03 0. -1.
</event>
<event>
 8    1  0.1109553E+005  0.1043930E+01  0.7957747E-01            NaN
         13   -1    0    0    0    0  0.00000000000E+00  0.00000000000E+00  0.74505805969E-08  0.10566000000E+00  0.10566000000E+00 0.  1.
     999900   -1    0    0    0    0 -0.00000000000E+00 -0.00000000000E+00 -0.74505805969E-08  0.93827000000E+00  0.93827000000E+00 0. -1.
     999902    2    1    2    0    0  0.36770207277E-02 -0.15185444331E-01  0.17307058181E-01  0.10206136439E+01  0.10203472730E+01 0.  0.
     999903    2    3    3    0    0  0.27869941016E-01 -0.72102722269E-01  0.10741778922E+00  0.13385278671E+00  0.20061178896E-01 0.  0.
         14    1    1    2    0    0 -0.36770207277E-02  0.15185444331E-01 -0.17307058181E-01  0.23316356144E-01  0.00000000000E+00 0. -1.
     999901    1    3    3    0    0 -0.24192920288E-01  0.56917277938E-01 -0.90110731037E-01  0.88676085715E+00  0.88000000000E+00 0. -1.
        -11    1    4    4    0    0  0.16902447165E-01 -0.22824236658E-01  0.29047891360E-01  0.40628556615E-01  0.51100000000E-03 0. -1.
         11    1    4    4    0    0  0.10967493852E-01 -0.49278485611E-01  0.78369897857E-01  0.93224230094E-01  0.51100000000E-03 0.  1.
</event>
<event>
 8    1  0.1109553E+005  0.1043930E+01  0.7957747E-01            NaN
         13   -1    0    0    0    0  0.00000000000E+00  0.00000000000E+00  0.74505805969E-08  0.10566000000E+00  0.10566000000E+00 0.  1.
     999900   -1    0    0    0    0 -0.00000000000E+00 -0.00000000000E+00 -0.74505805969E-08  0.93827000000E+00  0.93827000000E+00 0.  1.
     999902    2    1    2    0    0 -0.13095985575E-01 -0.18561126964E-01 -0.29721641991E-03  0.10212119761E+01  0.10209592507E+01 0.  0.
     999903    2    3    3    0    0 -0.11297121080E+00 -0.22258803762E-02  0.62285730520E-01  0.13320379700E+00  0.33110274806E-01 0.  0.
         14    1    1    2    0    0  0.13095985575E-01  0.18561126964E-01  0.29721641991E-03  0.22718023900E-01  0.00000000000E+00 0. -1.
     999901    1    3    3    0    0  0.99875225220E-01 -0.16335246588E-01 -0.62582946940E-01  0.88800817910E+00  0.88000000000E+00 0.  1.
        -11    1    4    4    0    0 -0.48594586619E-01  0.11387748972E-01  0.14816167462E-01  0.52066252166E-01  0.51100000000E-03 0.  1.
         11    1    4    4    0    0 -0.64376624176E-01 -0.13613629348E-01  0.47469563058E-01  0.81137544837E-01  0.51100000000E-03 0. -1.
</event>
<event>
 8    1  0.1109553E+005  0.1043930E+01  0.7957747E-01            NaN
         13   -1    0    0    0    0  0.00000000000E+00  0.00000000000E+00  0.74505805969E-08  0.10566000000E+00  0.10566000000E+00 0.  1.
     999900   -1    0    0    0    0 -0.00000000000E+00 -0.00000000000E+00 -0.74505805969E-08  0.93827000000E+00  0.93827000000E+00 0.  1.
     999902    2    1    2    0    0  0.69221152026E-03  0.23937285267E-01 -0.46116000863E-02  0.10195427156E+01  0.10192510041E+01 0.  0.
     999903    2    3    3    0    0  0.59938379162E-01  0.10578754123E+00  0.47818910465E-01  0.13221046039E+00  0.20232262929E-01 0.  0.
         14    1    1    2    0    0 -0.69221152026E-03 -0.23937285267E-01  0.46116000863E-02  0.24387284353E-01  0.00000000000E+00 0.  1.
     999901    1    3    3    0    0 -0.59246167642E-01 -0.81850255960E-01 -0.52430510551E-01  0.88733225526E+00  0.88000000000E+00 0.  1.
        -11    1    4    4    0    0  0.34601276321E-01  0.77188745041E-01  0.27601421226E-01  0.88980055399E-01  0.51100000000E-03 0. -1.
         11    1    4    4    0    0  0.25337102841E-01  0.28598796186E-01  0.20217489239E-01  0.43230404992E-01  0.51100000000E-03 0.  1.
</event>
<event>
 8    1  0.1109553E+005  0.1043930E+01  0.7957747E-01            NaN
         13   -1    0    0    0    0  0.00000000000E+00  0.00000000000E+00  0.74505805969E-08  0.10566000000E+00  0.10566000000E+00 0. -1.
     999900   -1    0    0    0    0 -0.00000000000E+00 -0.00000000000E+00 -0.74505805969E-08  0.93827000000E+00  0.93827000000E+00 0. -1.
     999902    2    1    2    0    0  0.14665726969E-01 -0.15939445515E-01 -0.85165760285E-02  0.10206559471E+01  0.10203905531E+01 0.  0.
     999903    2    3    3    0    0 -0.80965970739E-01 -0.10132016639E+00 -0.74339110525E-02  0.13136608364E+00  0.19506931098E-01 0.  0.
         14    1    1    2    0    0 -0.14665726969E-01  0.15939445515E-01  0.85165760285E-02  0.23274052894E-01  0.00000000000E+00 0. -1.
     999901    1    3    3    0    0  0.95631697708E-01  0.85380720880E-01 -0.10826649761E-02  0.88928986347E+00  0.88000000000E+00 0. -1.
        -11    1    4    4    0    0 -0.19384534753E-01 -0.12490550530E-01 -0.14676684655E-02  0.23112533653E-01  0.51100000000E-03 0.  1.
         11    1    4    4    0    0 -0.61581435986E-01 -0.88829615864E-01 -0.59662425869E-02  0.10825354998E+00  0.51100000000E-03 0. -1.
</event>
<event>
 8    1  0.1109553E+005  0.1043930E+01  0.7957747E-01            NaN
         13   -1    0    0    0    0  0.00000000000E+00  0.00000000000E+00  0.74505805969E-08  0.10566000000E+00  0.10566000000E+00 0. -1.
     999900   -1    0    0    0    0 -0.00000000000E+00 -0.00000000000E+00 -0.74505805969E-08  0.93827000000E+00  0.93827000000E+00 0.  1.
     999902    2    1    2    0    0 -0.17556662735E-01 -0.11096515771E-01 -0.10915423899E-01  0.10204669323E+01  0.10201971595E+01 0.  0.
     999903    2    3    3    0    0 -0.10564321097E-01 -0.40486537758E-02 -0.13032594645E+00  0.13234676129E+00  0.20070287151E-01 0.  0.
         14    1    1    2    0    0  0.17556662735E-01  0.11096515771E-01  0.10915423899E-01  0.23463067736E-01  0.00000000000E+00 0.  1.
     999901    1    3    3    0    0 -0.69923416386E-02 -0.70478619955E-02  0.11941052255E+00  0.88812017098E+00  0.88000000000E+00 0. -1.
        -11    1    4    4    0    0 -0.10796518254E-01 -0.90478479553E-02 -0.12036523328E+00  0.12118778347E+00  0.51100000000E-03 0. -1.
         11    1    4    4    0    0  0.23219715762E-03  0.49991941795E-02 -0.99607131760E-02  0.11158977818E-01  0.51100000000E-03 0.  1.
</event>
<event>
 8    1  0.1109553E+005  0.1043930E+01  0.7957747E-01            NaN
         13   -1    0    0    0    0  0.00000000000E+00  0.00000000000E+00  0.74505805969E-08  0.10566000000E+00  0.10566000000E+00 0.  1.
     999900   -1    0    0    0    0 -0.00000000000E+00 -0.00000000000E+00 -0.74505805969E-08  0.93827000000E+00  0.93827000000E+00 0.  1.
     999902    2    1    2    0    0  0.18303871050E-01 -0.97209910785E-02  0.10381433570E-01  0.10207501914E+01  0.10204869670E+01 0.  0.
     999903    2    3    3    0    0 -0.77930194413E-01 -0.26529063323E-01  0.10109351689E+00  0.13070963689E+00  0.93916779898E-02 0.  0.
         14    1    1    2    0    0 -0.18303871050E-01  0.97209910785E-02 -0.10381433570E-01  0.23179808583E-01  0.00000000000E+00 0. -1.
     999901    1    3    3    0    0  0.96234065463E-01  0.16808072245E-01 -0.90712083322E-01  0.89004055453E+00  0.88000000000E+00 0.  1.
        -11    1    4    4    0    0 -0.72205341933E-01 -0.26658059174E-01  0.92012375225E-01  0.11996166820E+00  0.51100000000E-03 0. -1.
         11    1    4    4    0    0 -0.57248524799E-02  0.12899585074E-03  0.90811416668E-02  0.10747968683E-01  0.51100000000E-03 0.  1.
</event>
<event>
 8    1  0.1109553E+005  0.1043930E+01  0.7957747E-01            NaN
         13   -1    0    0    0    0  0.00000000000E+00  0.00000000000E+00  0.74505805969E-08  0.10566000000E+00  0.10566000000E+00 0.  1.
     999900   -1    0    0    0    0 -0.00000000000E+00 -0.00000000000E+00 -0.74505805969E-08  0.93827000000E+00  0.93827000000E+00 0. -1.
     999902    2    1    2    0    0 -0.13778476560E-01  0.17946005055E-01 -0.77067824641E-02  0.10200281170E+01  0.10197480373E+01 0.  0.
     999903    2    3    3    0    0 -0.63432201085E-01 -0.58282473739E-01 -0.96147728092E-01  0.13092853081E+00  0.21849569430E-01 0.  0.
         14    1    1    2    0    0  0.13778476560E-01 -0.17946005055E-01  0.77067824641E-02  0.23901882974E-01  0.00000000000E+00 0.  1.
     999901    1    3    3    0    0  0.49653724524E-01  0.76228478795E-01  0.88440945628E-01  0.88909958621E+00  0.88000000000E+00 0. -1.
        -11    1    4    4    0    0 -0.24283193674E-01 -0.26109556742E-01 -0.24883363626E-01  0.43483621682E-01  0.51100000000E-03 0.  1.
         11    1    4    4    0    0 -0.39149007411E-01 -0.32172916998E-01 -0.71264364465E-01  0.87444909131E-01  0.51100000000E-03 0. -1.
</event>
<event>
 8    1  0.1109553E+005  0.1043930E+01  0.7957747E-01            NaN
         13   -1    0    0    0    0  0.00000000000E+00  0.00000000000E+00  0.74505805969E-08  0.10566000000E+00  0.10566000000E+00 0.  1.
     999900   -1    0    0    0    0 -0.00000000000E+00 -0.00000000000E+00 -0.74505805969E-08  0.93827000000E+00  0.93827000000E+00 0. -1.
     999902    2    1    2    0    0 -0.14793273438E-01  0.71296400692E-02 -0.19952227807E-01  0.10180888680E+01  0.10177608654E+01 0.  0.
     999903    2    3    3    0    0  0.10436615213E-01  0.62733150356E-01 -0.11278699313E+00  0.13110149987E+00  0.20550580504E-01 0.  0.
         14    1    1    2    0    0  0.14793273438E-01 -0.71296400692E-02  0.19952227807E-01  0.25841131961E-01  0.00000000000E+00 0.  1.
     999901    1    3    3    0    0 -0.25229888651E-01 -0.55603510287E-01  0.92834765320E-01  0.88698736817E+00  0.88000000000E+00 0.  1.
        -11    1    4    4    0    0  0.10892882100E-01  0.51642380692E-01 -0.74972739972E-01  0.91688402886E-01  0.51100000000E-03 0.  1.
         11    1    4    4    0    0 -0.45626688764E-03  0.11090769665E-01 -0.37814253156E-01  0.39413096985E-01  0.51100000000E-03 0. -1.
</event>
<event>
 8    1  0.1109553E+005  0.1043930E+01  0.7957747E-01            NaN
         13   -1    0    0    0    0  0.00000000000E+00  0.00000000000E+00  0.74505805969E-08  0.10566000000E+00  0.10566000000E+00 0.  1.
     999900   -1    0    0    0    0 -0.00000000000E+00 -0.00000000000E+00 -0.74505805969E-08  0.93827000000E+00  0.93827000000E+00 0. -1.
     999902    2    1    2    0    0 -0.21490640918E-01 -0.10899583201E-02 -0.32808774843E-03  0.10224092357E+01  0.10221827145E+01 0.  0.
     999903    2    3    3    0    0 -0.41577959219E-01  0.14567942167E-01 -0.12422187671E+00  0.13336573777E+00  0.20356662923E-01 0.  0.
         14    1    1    2    0    0  0.21490640918E-01  0.10899583201E-02  0.32808774843E-03  0.21520764340E-01  0.00000000000E+00 0. -1.
     999901    1    3    3    0    0  0.20087318302E-01 -0.15657900487E-01  0.12389378896E+00  0.88904349789E+00  0.88000000000E+00 0.  1.
        -11    1    4    4    0    0 -0.10945946545E-01 -0.51124947378E-02 -0.29072628150E-01  0.31486984243E-01  0.51100000000E-03 0. -1.
         11    1    4    4    0    0 -0.30632012674E-01  0.19680436905E-01 -0.95149248558E-01  0.10187875352E+00  0.51100000000E-03 0.  1.
</event>
<event>
 8    1  0.1109553E+005  0.1043930E+01  0.7957747E-01            NaN
         13   -1    0    0    0    0  0.00000000000E+00  0.00000000000E+00  0.74505805969E-08  0.10566000000E+00  0.10566000000E+00 0.  1.
     999900   -1    0    0    0    0 -0.00000000000E+00 -0.00000000000E+00 -0.74505805969E-08  0.93827000000E+00  0.93827000000E+00 0. -1.
     999902    2    1    2    0    0  0.38715773524E-03 -0.18045035873E-01 -0.23541939842E-01  0.10142652711E+01  0.10138313686E+01 0.  0.
     999903    2    3    3    0    0  0.40687992518E-02 -0.11095154333E+00  0.55633440003E-01  0.12583186649E+00  0.20292335554E-01 0.  0.
         14    1    1    2    0    0 -0.38715773524E-03  0.18045035873E-01  0.23541939842E-01  0.29664728926E-01  0.00000000000E+00 0.  1.
     999901    1    3    3    0    0 -0.36816415166E-02  0.92906507458E-01 -0.79175379845E-01  0.88843340459E+00  0.88000000000E+00 0. -1.
        -11    1    4    4    0    0  0.90195918858E-02 -0.50744644815E-01  0.33599193763E-01  0.61526733684E-01  0.51100000000E-03 0. -1.
         11    1    4    4    0    0 -0.49507926339E-02 -0.60206898515E-01  0.22034246240E-01  0.64305132803E-01  0.51100000000E-03 0.  1.
</event>
<event>
 8    1  0.1109553E+005  0.1043930E+01  0.7957747E-01            NaN
         13   -1    0    0    0    0  0.00000000000E+00  0.00000000000E+00  0.74505805969E-08  0.10566000000E+00  0.10566000000E+00 0. -1.
     999900   -1    0    0    0    0 -0.00000000000E+00 -0.00000000000E+00 -0.74505805969E-08  0.93827000000E+00  0.93827000000E+00 0. -1.
     999902    2    1    2    0    0  0.15161314079E-01  0.66625261157E-02 -0.17026627923E-01  0.10201779315E+01  0.10199013929E+01 0.  0.
     999903    2    3    3    0    0  0.36495459253E-01  0.11840375162E+00 -0.42514002100E-01  0.13248944253E+00  0.19865675547E-01 0.  0.
         14    1    1    2    0    0 -0.15161314079E-01 -0.66625261157E-02  0.17026627923E-01  0.23752068484E-01  0.00000000000E+00 0. -1.
     999901    1    3    3    0    0 -0.21334145174E-01 -0.11174122550E+00  0.25487374177E-01  0.88768848898E+00  0.88000000000E+00 0.  1.
        -11    1    4    4    0    0  0.32155000896E-02  0.28654603677E-01 -0.32279977588E-02  0.29019077229E-01  0.51100000000E-03 0.  1.
         11    1    4    4    0    0  0.33279959164E-01  0.89749147942E-01 -0.39286004341E-01  0.10347036531E+00  0.51100000000E-03 0. -1.
</event>
<event>
 8    1  0.1109553E+005  0.1043930E+01  0.7957747E-01            NaN
         13   -1    0    0    0    0  0.00000000000E+00  0.00000000000E+00  0.74505805969E-08  0.10566000000E+00  0.10566000000E+00 0.  1.
     999900   -1    0    0    0    0 -0.00000000000E+00 -0.00000000000E+00 -0.74505805969E-08  0.93827000000E+00  0.93827000000E+00 0. -1.
     999902    2    1    2    0    0  0.19980055755E-01  0.13793180966E-01 -0.34523171612E-02  0.10194070931E+01  0.10191120883E+01 0.  0.
     999903    2    3    3    0    0 -0.19954779906E-01  0.56166254060E-01 -0.11456663379E+00  0.13051077756E+00  0.18833697013E-01 0.  0.
         14    1    1    2    0    0 -0.19980055755E-01 -0.13793180966E-01  0.34523171612E-02  0.24522906902E-01  0.00000000000E+00 0.  1.
     999901    1    3    3    0    0  0.39934835661E-01 -0.42373073094E-01  0.11111431663E+00  0.88889631554E+00  0.88000000000E+00 0.  1.
        -11    1    4    4    0    0 -0.15340484758E-01  0.34999317703E-01 -0.89848652747E-01  0.97638743508E-01  0.51100000000E-03 0. -1.
         11    1    4    4    0    0 -0.46142951475E-02  0.21166936357E-01 -0.24717981048E-01  0.32872034049E-01  0.51100000000E-03 0.  1.
</event>
<event>
 8    1  0.1109553E+005  0.1043930E+01  0.7957747E-01            NaN
         13   -1    0    0    0    0  0.00000000000E+00  0.00000000000E+00  0.74505805969E-08  0.10566000000E+00  0.10566000000E+00 0. -1.
     999900   -1    0    0    0    0 -0.00000000000E+00 -0.00000000000E+00 -0.74505805969E-08  0.93827000000E+00  0.93827000000E+00 0. -1.
     999902    2    1    2    0    0  0.11299004857E-01  0.13455847354E-01  0.14181498237E-01  0.10213503138E+01  0.10211006910E+01 0.  0.
     999903    2    3    3    0    0 -0.57358896184E-01  0.77857452855E-01  0.89651828888E-01  0.13311766125E+00  0.18194377615E-01 0.  0.
         14    1    1    2    0    0 -0.11299004857E-01 -0.13455847354E-01 -0.14181498237E-01  0.22579686247E-01  0.00000000000E+00 0. -1.
     999901    1    3    3    0    0  0.68657901041E-01 -0.64401605501E-01 -0.75470330651E-01  0.88823265250E+00  0.88000000000E+00 0. -1.
        -11    1    4    4    0    0 -0.13088502492E-01  0.32341333900E-01  0.30821039701E-01  0.46556077854E-01  0.51100000000E-03 0. -1.
         11    1    4    4    0    0 -0.44270393693E-01  0.45516118955E-01  0.58830789187E-01  0.86561583395E-01  0.51100000000E-03 0.  1.
</event>
<event>
 8    1  0.1109553E+005  0.1043930E+01  0.7957747E-01            NaN
         13   -1    0    0    0    0  0.00000000000E+00  0.00000000000E+00  0.74505805969E-08  0.10566000000E+00  0.10566000000E+00 0.  1.
     999900   -1    0    0    0    0 -0.00000000000E+00 -0.00000000000E+00 -0.74505805969E-08  0.93827000000E+00  0.93827000000E+00 0. -1.
     999902    2    1    2    0    0  0.22047553678E-01  0.10086586365E-01 -0.45900562321E-02  0.10192540509E+01  0.10189553071E+01 0.  0.
     999903    2    3    3    0    0  0.26254297582E-01  0.78693615234E-01  0.98456870948E-01  0.13057903139E+00  0.21798045364E-01 0.  0.
         14    1    1    2    0    0 -0.22047553678E-01 -0.10086586365E-01  0.45900562321E-02  0.24675949098E-01  0.00000000000E+00 0.  1.
     999901    1    3    3    0    0 -0.42067439040E-02 -0.68607028869E-01 -0.10304692718E+00  0.88867501951E+00  0.88000000000E+00 0. -1.
        -11    1    4    4    0    0 -0.21374268834E-02  0.24241505663E-01  0.29266341871E-01  0.38065720511E-01  0.51100000000E-03 0.  1.
         11    1    4    4    0    0  0.28391724465E-01  0.54452109570E-01  0.69190529076E-01  0.92513310878E-01  0.51100000000E-03 0. -1.
</event>
<event>
 8    1  0.1109553E+005  0.1043930E+01  0.7957747E-01            NaN
         13   -1    0    0    0    0  0.00000000000E+00  0.00000000000E+00  0.74505805969E-08  0.10566000000E+00  0.10566000000E+00 0. -1.
     999900   -1    0    0    0    0 -0.00000000000E+00 -0.00000000000E+00 -0.74505805969E-08  0.93827000000E+00  0.93827000000E+00 0.  1.
     999902    2    1    2    0    0 -0.79950087951E-02 -0.44302541301E-02 -0.21849342064E-01  0.10202458056E+01  0.10199708637E+01 0.  0.
     999903    2    3    3    0    0  0.75667931799E-01 -0.55100038793E-01 -0.90626556544E-01  0.13215953727E+00  0.22165747511E-01 0.  0.
         14    1    1    2    0    0  0.79950087951E-02  0.44302541301E-02  0.21849342064E-01  0.23684194433E-01  0.00000000000E+00 0. -1.
     999901    1    3    3    0    0 -0.83662940594E-01  0.50669784662E-01  0.68777214480E-01  0.88808626830E+00  0.88000000000E+00 0. -1.
        -11    1    4    4    0    0  0.51737573408E-01 -0.24779906469E-01 -0.58247126059E-01  0.81754566123E-01  0.51100000000E-03 0.  1.
         11    1    4    4    0    0  0.23930358391E-01 -0.30320132324E-01 -0.32379430485E-01  0.50404971147E-01  0.51100000000E-03 0. -1.
</event>
<event>
 8    1  0.1109553E+005  0.1043930E+01  0.7957747E-01            NaN
         13   -1    0    0    0    0  0.00000000000E+00  0.00000000000E+00  0.74505805969E-08  0.10566000000E+00  0.10566000000E+00 0.  1.
     999900   -1    0    0    0    0 -0.00000000000E+00 -0.00000000000E+00 -0.74505805969E-08  0.93827000000E+00  0.93827000000E+00 0. -1.
     999902    2    1    2    0    0  0.17059363592E-02 -0.17591571066E-01 -0.15543160895E-01  0.10203935720E+01  0.10201220899E+01 0.  0.
     999903    2    3    3    0    0  0.38228429295E-01  0.87331680157E-02 -0.12490296220E+00  0.13248228675E+00  0.20325484134E-01 0.  0.
         14    1    1    2    0    0 -0.17059363592E-02  0.17591571066E-01  0.15543160895E-01  0.23536427980E-01  0.00000000000E+00 0.  1.
     999901    1    3    3    0    0 -0.36522492935E-01 -0.26324739081E-01  0.10935980130E+00  0.88791128528E+00  0.88000000000E+00 0.  1.
        -11    1    4    4    0    0  0.32444623149E-01  0.15254021291E-03 -0.10683988873E+00  0.11165885448E+00  0.51100000000E-03 0.  1.
         11    1    4    4    0    0  0.57838061456E-02  0.85806278028E-02 -0.18063073472E-01  0.20823432264E-01  0.51100000000E-03 0. -1.
</event>
<event>
 8    1  0.1109553E+005  0.1043930E+01  0.7957747E-01            NaN
         13   -1    0    0    0    0  0.00000000000E+00  0.00000000000E+00  0.74505805969E-08  0.10566000000E+00  0.10566000000E+00 0. -1.
     999900   -1    0    0    0    0 -0.00000000000E+00 -0.00000000000E+00 -0.74505805969E-08  0.93827000000E+00  0.93827000000E+00 0. -1.
     999902    2    1    2    0    0  0.19957835060E-01  0.98985273520E-03  0.15541726004E-01  0.10186151775E+01  0.10183005645E+01 0.  0.
     999903    2    3    3    0    0 -0.79491961980E-01  0.43936468728E-01 -0.85046708167E-01  0.12628524582E+00  0.21578587517E-01 0.  0.
         14    1    1    2    0    0 -0.19957835060E-01 -0.98985273520E-03 -0.15541726004E-01  0.25314822454E-01  0.00000000000E+00 0.  1.
     999901    1    3    3    0    0  0.99449797040E-01 -0.42946615992E-01  0.10058843417E+00  0.89232993172E+00  0.88000000000E+00 0.  1.
        -11    1    4    4    0    0 -0.10648886147E-01  0.69306923808E-02 -0.23810008805E-01  0.26992793730E-01  0.51100000000E-03 0.  1.
         11    1    4    4    0    0 -0.68843075834E-01  0.37005776347E-01 -0.61236699362E-01  0.99292452095E-01  0.51100000000E-03 0. -1.
</event>
<event>
 8    1  0.1109553E+005  0.1043930E+01  0.7957747E-01            NaN
         13   -1    0    0    0    0  0.00000000000E+00  0.00000000000E+00  0.74505805969E-08  0.10566000000E+00  0.10566000000E+00 0.  1.
     999900   -1    0    0    0    0 -0.00000000000E+00 -0.00000000000E+00 -0.74505805969E-08  0.93827000000E+00  0.93827000000E+00 0. -1.
     999902    2    1    2    0    0  0.18058178236E-01  0.15026899983E-01  0.19560775692E-02  0.10203560363E+01  0.10200836775E+01 0.  0.
     999903    2    3    3    0    0 -0.31822477678E-01 -0.48019941340E-01  0.11455147053E+00  0.12954701831E+00  0.18487988021E-01 0.  0.
         14    1    1    2    0    0 -0.18058178236E-01 -0.15026899983E-01 -0.19560775692E-02  0.23573963684E-01  0.00000000000E+00 0.  1.
     999901    1    3    3    0    0  0.49880655914E-01  0.63046841323E-01 -0.11259539296E+00  0.89080901800E+00  0.88000000000E+00 0. -1.
        -11    1    4    4    0    0 -0.28700242265E-01 -0.31582109939E-01  0.70364352935E-01  0.82295424291E-01  0.51100000000E-03 0.  1.
         11    1    4    4    0    0 -0.31222354126E-02 -0.16437831401E-01  0.44187117598E-01  0.47251594024E-01  0.51100000000E-03 0. -1.
</event>
<event>
 8    1  0.1109553E+005  0.1043930E+01  0.7957747E-01            NaN
         13   -1    0    0    0    0  0.00000000000E+00  0.00000000000E+00  0.74505805969E-08  0.10566000000E+00  0.10566000000E+00 0.  1.
     999900   -1    0    0    0    0 -0.00000000000E+00 -0.00000000000E+00 -0.74505805969E-08  0.93827000000E+00  0.93827000000E+00 0.  1.
     999902    2    1    2    0    0 -0.16965470399E-01  0.14374300000E-01 -0.82854383497E-02  0.10202003524E+01  0.10199243417E+01 0.  0.
     999903    2    3    3    0    0  0.60169468457E-02  0.11933917693E+00 -0.53755762285E-01  0.13249918239E+00  0.19705546322E-01 0.  0.
         14    1    1    2    0    0  0.16965470399E-01 -0.14374300000E-01  0.82854383497E-02  0.23729647595E-01  0.00000000000E+00 0. -1.
     999901    1    3    3    0    0 -0.22982417244E-01 -0.10496487693E+00  0.45470323936E-01  0.88770117002E+00  0.88000000000E+00 0. -1.
        -11    1    4    4    0    0 -0.71290564815E-02  0.34148869459E-01 -0.14524060492E-01  0.37791244831E-01  0.51100000000E-03 0.  1.
         11    1    4    4    0    0  0.13146003327E-01  0.85190307467E-01 -0.39231701793E-01  0.94707937558E-01  0.51100000000E-03 0. -1.
</event>
<event>
 8    1  0.1109553E+005  0.1043930E+01  0.7957747E-01            NaN
         13   -1    0    0    0    0  0.00000000000E+00  0.00000000000E+00  0.74505805969E-08  0.10566000000E+00  0.10566000000E+00 0. -1.
     999900   -1    0    0    0    0 -0.00000000000E+00 -0.00000000000E+00 -0.74505805969E-08  0.93827000000E+00  0.93827000000E+00 0.  1.
     999902    2    1    2    0    0  0.89545129765E-02 -0.10672740828E-01  0.24760318676E-01  0.10155193668E+01  0.10151218746E+01 0.  0.
     999903    2    3    3    0    0  0.89642624564E-01  0.84863160031E-01  0.19699294639E-01  0.12666432028E+00  0.20450715253E-01 0.  0.
         14    1    1    2    0    0 -0.89545129765E-02  0.10672740828E-01 -0.24760318676E-01  0.28410633227E-01  0.00000000000E+00 0.  1.
     999901    1    3    3    0    0 -0.80688111588E-01 -0.95535900859E-01  0.50610240376E-02  0.88885504649E+00  0.88000000000E+00 0.  1.
        -11    1    4    4    0    0  0.34762090158E-01  0.38278590662E-01 -0.11343983754E-02  0.51722349095E-01  0.51100000000E-03 0.  1.
         11    1    4    4    0    0  0.54880534406E-01  0.46584569370E-01  0.20833693014E-01  0.74941971189E-01  0.51100000000E-03 0. -1.
</event>
<event>
 8    1  0.1109553E+005  0.1043930E+01  0.7957747E-01            NaN
         13   -1    0    0    0    0  0.00000000000E+00  0.00000000000E+00  0.74505805969E-08  0.10566000000E+00  0.10566000000E+00 0.  1.
     999900   -1    0    0    0    0 -0.00000000000E+00 -0.00000000000E+00 -0.74505805969E-08  0.93827000000E+00  0.93827000000E+00 0.  1.
     999902    2    1    2    0    0 -0.59491584602E-02  0.22316990365E-01 -0.14881664821E-02  0.10207857743E+01  0.10205233666E+01 0.  0.
     999903    2    3    3    0    0  0.99111077125E-01 -0.27317166806E-01  0.76572163135E-01  0.12972201801E+00  0.19881463165E-01 0.  0.
         14    1    1    2    0    0  0.59491584602E-02 -0.22316990365E-01  0.14881664821E-02  0.23144225734E-01  0.00000000000E+00 0.  1.
     999901    1    3    3    0    0 -0.10506023558E+00  0.49634157171E-01 -0.78060329617E-01  0.89106375626E+00  0.88000000000E+00 0.  1.
        -11    1    4    4    0    0  0.68075653280E-01 -0.16415398332E-01  0.40482533423E-01  0.80887925584E-01  0.51100000000E-03 0.  1.
         11    1    4    4    0    0  0.31035423844E-01 -0.10901768474E-01  0.36089629712E-01  0.48834092423E-01  0.51100000000E-03 0. -1.
</event>
<event>
 8    1  0.1109553E+005  0.1043930E+01  0.7957747E-01            NaN
         13   -1    0    0    0    0  0.00000000000E+00  0.00000000000E+00  0.74505805969E-08  0.10566000000E+00  0.10566000000E+00 0. -1.
     999900   -1    0    0    0    0 -0.00000000000E+00 -0.00000000000E+00 -0.74505805969E-08  0.93827000000E+00  0.93827000000E+00 0. -1.
     999902    2    1    2    0    0  0.25936816043E-02  0.88745359849E-02  0.22202491044E-01  0.10198793206E+01  0.10195957009E+01 0.  0.
     999903    2    3    3    0    0  0.12169976159E+00  0.12083921431E-02  0.45488545903E-01  0.13151719372E+00  0.20378229870E-01 0.  0.
         14    1    1    2    0    0 -0.25936816043E-02 -0.88745359849E-02 -0.22202491044E-01  0.24050679445E-01  0.00000000000E+00 0.  1.
     999901    1    3    3    0    0 -0.11910607998E+00  0.76661438418E-02 -0.23286054859E-01  0.88836212684E+00  0.88000000000E+00 0. -1.
        -11    1    4    4    0    0  0.70316222927E-01  0.74663036060E-02  0.18286726730E-01  0.73039594685E-01  0.51100000000E-03 0.  1.
         11    1    4    4    0    0  0.51383538661E-01 -0.62579114628E-02  0.27201819173E-01  0.58477599032E-01  0.51100000000E-03 0. -1.
</event>
<event>
 8    1  0.1109553E+005  0.1043930E+01  0.7957747E-01            NaN
         13   -1    0    0    0    0  0.00000000000E+00  0.00000000000E+00  0.74505805969E-08  0.10566000000E+00  0.10566000000E+00 0. -1.
     999900   -1    0    0    0    0 -0.00000000000E+00 -0.00000000000E+00 -0.74505805969E-08  0.93827000000E+00  0.93827000000E+00 0. -1.
     999902    2    1    2    0    0  0.11134532958E-01 -0.17481852375E-01 -0.12174653571E-01  0.10198922136E+01  0.10196089016E+01 0.  0.
     999903    2    3    3    0    0 -0.25093407343E-01 -0.73170377838E-01 -0.10570720859E+00  0.13244530566E+00  0.19600044802E-01 0.  0.
         14    1    1    2    0    0 -0.11134532958E-01  0.17481852375E-01  0.12174653571E-01  0.24037786425E-01  0.00000000000E+00 0. -1.
     999901    1    3    3    0    0  0.36227940301E-01  0.55688525463E-01  0.93532555024E-01  0.88744690792E+00  0.88000000000E+00 0.  1.
        -11    1    4    4    0    0 -0.59829188653E-03 -0.30992936447E-01 -0.42458650824E-01  0.52572979881E-01  0.51100000000E-03 0.  1.
         11    1    4    4    0    0 -0.24495115457E-01 -0.42177441391E-01 -0.63248557771E-01  0.79872325775E-01  0.51100000000E-03 0. -1.
</event>
<event>
 8    1  0.1109553E+005  0.1043930E+01  0.7957747E-01            NaN
         13   -1    0    0    0    0  0.00000000000E+00  0.00000000000E+00  0.74505805969E-08  0.10566000000E+00  0.10566000000E+00 0.  1.
     999900   -1    0    0    0    0 -0.00000000000E+00 -0.00000000000E+00 -0.74505805969E-08  0.93827000000E+00  0.93827000000E+00 0.  1.
     999902    2    1    2    0    0 -0.19314863047E-01  0.70236395048E-02 -0.10130154974E-01  0.10210167836E+01  0.10207596470E+01 0.  0.
     999903    2    3    3    0    0 -0.12801558780E+00  0.33373057998E-01  0.70578704244E-02  0.13377072548E+00  0.18521386020E-01 0.  0.
         14    1    1    2    0    0  0.19314863047E-01 -0.70236395048E-02  0.10130154974E-01  0.22913216409E-01  0.00000000000E+00 0. -1.
     999901    1    3    3    0    0  0.10870072476E+00 -0.26349418493E-01 -0.17188025398E-01  0.88724605811E+00  0.88000000000E+00 0. -1.
        -11    1    4    4    0    0 -0.95137961448E-01  0.21168496814E-01  0.12547424740E-01  0.98270219062E-01  0.51100000000E-03 0.  1.
         11    1    4    4    0    0 -0.32877626354E-01  0.12204561184E-01 -0.54895543155E-02  0.35500506418E-01  0.51100000000E-03 0. -1.
</event>
<event>
 8    1  0.1109553E+005  0.1043930E+01  0.7957747E-01            NaN
         13   -1    0    0    0    0  0.00000000000E+00  0.00000000000E+00  0.74505805969E-08  0.10566000000E+00  0.10566000000E+00 0.  1.
     999900   -1    0    0    0    0 -0.00000000000E+00 -0.00000000000E+00 -0.74505805969E-08  0.93827000000E+00  0.93827000000E+00 0. -1.
     999902    2    1    2    0    0  0.13278354593E-01 -0.16595987138E-01 -0.88281234661E-02  0.10209152818E+01  0.10206558359E+01 0.  0.
     999903    2    3    3    0    0  0.27978353785E-01  0.12408586358E+00 -0.61908024734E-02  0.12961598944E+00  0.24122372646E-01 0.  0.
         14    1    1    2    0    0 -0.13278354593E-01  0.16595987138E-01  0.88281234661E-02  0.23014718197E-01  0.00000000000E+00 0.  1.
     999901    1    3    3    0    0 -0.14699999193E-01 -0.14068185072E+00 -0.26373209927E-02  0.89129929236E+00  0.88000000000E+00 0.  1.
        -11    1    4    4    0    0 -0.32757744698E-02  0.32751809605E-01 -0.24032476117E-02  0.33006794011E-01  0.51100000000E-03 0.  1.
         11    1    4    4    0    0  0.31254128255E-01  0.91334053979E-01 -0.37875548617E-02  0.96609195432E-01  0.51100000000E-03 0. -1.
</event>
<event>
 8    1  0.1109553E+005  0.1043930E+01  0.7957747E-01            NaN
         13   -1    0    0    0    0  0.00000000000E+00  0.00000000000E+00  0.74505805969E-08  0.10566000000E+00  0.10566000000E+00 0.  1.
     999900   -1    0    0    0    0 -0.00000000000E+00 -0.00000000000E+00 -0.74505805969E-08  0.93827000000E+00  0.93827000000E+00 0. -1.
     999902    2    1    2    0    0  0.67299795537E-02  0.84589966015E-02 -0.21077649403E-01  0.10202421434E+01  0.10199671154E+01 0.  0.
     999903    2    3    3    0    0 -0.11483296150E+00  0.26415320776E-01 -0.53265246322E-01  0.13112121816E+00  0.21707352831E-01 0.  0.
         14    1    1    2    0    0 -0.67299795537E-02 -0.84589966015E-02  0.21077649403E-01  0.23687856650E-01  0.00000000000E+00 0.  1.
     999901    1    3    3    0    0  0.12156294106E+00 -0.17956324175E-01  0.32187596919E-01  0.88912092519E+00  0.88000000000E+00 0. -1.
        -11    1    4    4    0    0 -0.36001494086E-01  0.30022463740E-02 -0.25888107363E-01  0.44447455310E-01  0.51100000000E-03 0.  1.
         11    1    4    4    0    0 -0.78831467416E-01  0.23413074402E-01 -0.27377138959E-01  0.86673762850E-01  0.51100000000E-03 0. -1.
</event>
<event>
 8    1  0.1109553E+005  0.1043930E+01  0.7957747E-01            NaN
         13   -1    0    0    0    0  0.00000000000E+00  0.00000000000E+00  0.74505805969E-08  0.10566000000E+00  0.10566000000E+00 0.  1.
     999900   -1    0    0    0    0 -0.00000000000E+00 -0.00000000000E+00 -0.74505805969E-08  0.93827000000E+00  0.93827000000E+00 0. -1.
     999902    2    1    2    0    0  0.82376971299E-02  0.83017988652E-02  0.21699888175E-01  0.10192791447E+01  0.10189810156E+01 0.  0.
     999903    2    3    3    0    0 -0.30376557860E-01  0.90223288396E-01 -0.84645907929E-01  0.12826196225E+00  0.14940689249E-01 0.  0.
         14    1    1    2    0    0 -0.82376971299E-02 -0.83017988652E-02 -0.21699888175E-01  0.24650855263E-01  0.00000000000E+00 0. -1.
     999901    1    3    3    0    0  0.38614254990E-01 -0.81921489531E-01  0.10634579610E+00  0.89101718249E+00  0.88000000000E+00 0.  1.
        -11    1    4    4    0    0 -0.79557005818E-02  0.13862332666E-01 -0.20768414200E-01  0.26211554477E-01  0.51100000000E-03 0. -1.
         11    1    4    4    0    0 -0.22420857279E-01  0.76360955730E-01 -0.63877493728E-01  0.10205040778E+00  0.51100000000E-03 0.  1.
</event>
<event>
 8    1  0.1109553E+005  0.1043930E+01  0.7957747E-01            NaN
         13   -1    0    0    0    0  0.00000000000E+00  0.00000000000E+00  0.74505805969E-08  0.10566000000E+00  0.10566000000E+00 0.  1.
     999900   -1    0    0    0    0 -0.00000000000E+00 -0.00000000000E+00 -0.74505805969E-08  0.93827000000E+00  0.93827000000E+00 0.  1.
     999902    2    1    2    0    0 -0.92250444803E-02  0.21273640252E-01  0.45433018365E-03  0.10207378541E+01  0.10204743462E+01 0.  0.
     999903    2    3    3    0    0  0.75497165948E-02  0.11135608022E+00 -0.70453246206E-01  0.13314328281E+00  0.17501400914E-01 0.  0.
         14    1    1    2    0    0  0.92250444803E-02 -0.21273640252E-01 -0.45433018365E-03  0.23192145894E-01  0.00000000000E+00 0. -1.
     999901    1    3    3    0    0 -0.16774761075E-01 -0.90082439970E-01  0.70907576390E-01  0.88759457129E+00  0.88000000000E+00 0. -1.
        -11    1    4    4    0    0  0.40821079770E-02  0.22516872638E-01 -0.70763686382E-02  0.23958490625E-01  0.51100000000E-03 0. -1.
         11    1    4    4    0    0  0.34676086177E-02  0.88839207585E-01 -0.63376877568E-01  0.10918479219E+00  0.51100000000E-03 0.  1.
</event>
<event>
 8    1  0.1109553E+005  0.1043930E+01  0.7957747E-01            NaN
         13   -1    0    0    0    0  0.00000000000E+00  0.00000000000E+00  0.74505805969E-08  0.10566000000E+00  0.10566000000E+00 0.  1.
     999900   -1    0    0    0    0 -0.00000000000E+00 -0.00000000000E+00 -0.74505805969E-08  0.93827000000E+00  0.93827000000E+00 0.  1.
     999902    2    1    2    0    0 -0.33016480127E-01 -0.49431333934E-02  0.56073151804E-02  0.10100779024E+01  0.10095104776E+01 0.  0.
     999903    2    3    3    0    0 -0.14489251381E-01 -0.84484987318E-01 -0.84182168829E-01  0.12174670507E+00  0.19696983492E-01 0.  0.
         14    1    1    2    0    0  0.33016480127E-01  0.49431333934E-02 -0.56073151804E-02  0.33852097590E-01  0.00000000000E+00 0. -1.
     999901    1    3    3    0    0 -0.18527228746E-01  0.79541853924E-01  0.89789484009E-01  0.88833119734E+00  0.88000000000E+00 0. -1.
        -11    1    4    4    0    0  0.68415916514E-03 -0.51177803719E-01 -0.52712852731E-01  0.73474768671E-01  0.51100000000E-03 0.  1.
         11    1    4    4    0    0 -0.15173410546E-01 -0.33307183599E-01 -0.31469316098E-01  0.48271936397E-01  0.51100000000E-03 0. -1.
</event>
<event>
 8    1  0.1109553E+005  0.1043930E+01  0.7957747E-01            NaN
         13   -1    0    0    0    0  0.00000000000E+00  0.00000000000E+00  0.74505805969E-08  0.10566000000E+00  0.10566000000E+00 0. -1.
     999900   -1    0    0    0    0 -0.00000000000E+00 -0.00000000000E+00 -0.74505805969E-08  0.93827000000E+00  0.93827000000E+00 0. -1.
     999902    2    1    2    0    0  0.11669136739E-01  0.32893442346E-02  0.19979851976E-01  0.10205594411E+01  0.10202918160E+01 0.  0.
     999903    2    3    3    0    0 -0.45439188588E-01 -0.87644042499E-01 -0.79660033007E-01  0.12845050812E+00  0.20189455976E-01 0.  0.
         14    1    1    2    0    0 -0.11669136739E-01 -0.32893442346E-02 -0.19979851976E-01  0.23370558887E-01  0.00000000000E+00 0.  1.
     999901    1    3    3    0    0  0.57108325327E-01  0.90933386734E-01  0.99639884983E-01  0.89210893299E+00  0.88000000000E+00 0. -1.
        -11    1    4    4    0    0 -0.21234963149E-01 -0.57042071087E-01 -0.56645803964E-01  0.83148841012E-01  0.51100000000E-03 0.  1.
         11    1    4    4    0    0 -0.24204225438E-01 -0.30601971412E-01 -0.23014229043E-01  0.45301667109E-01  0.51100000000E-03 0. -1.
</event>
<event>
 8    1  0.1109553E+005  0.1043930E+01  0.7957747E-01            NaN
         13   -1    0    0    0    0  0.00000000000E+00  0.00000000000E+00  0.74505805969E-08  0.10566000000E+00  0.10566000000E+00 0.  1.
     999900   -1    0    0    0    0 -0.00000000000E+00 -0.00000000000E+00 -0.74505805969E-08  0.93827000000E+00  0.93827000000E+00 0.  1.
     999902    2    1    2    0    0 -0.22393008833E-01 -0.66700695270E-02 -0.26401681446E-02  0.10204160220E+01  0.10201450636E+01 0.  0.
     999903    2    3    3    0    0 -0.14243315144E-01 -0.12796695873E+00 -0.20333771698E-01  0.13188216424E+00  0.20025693961E-01 0.  0.
         14    1    1    2    0    0  0.22393008833E-01  0.66700695270E-02  0.26401681446E-02  0.23513977969E-01  0.00000000000E+00 0.  1.
     999901    1    3    3    0    0 -0.81496936891E-02  0.12129688921E+00  0.17693603553E-01  0.88853385779E+00  0.88000000000E+00 0. -1.
        -11    1    4    4    0    0  0.24602103769E-03 -0.42852740137E-01  0.12878350516E-02  0.42875838228E-01  0.51100000000E-03 0.  1.
         11    1    4    4    0    0 -0.14489336182E-01 -0.85114218597E-01 -0.21621606749E-01  0.89006326010E-01  0.51100000000E-03 0. -1.
</event>
<event>
 8    1  0.1109553E+005  0.1043930E+01  0.7957747E-01            NaN
         13   -1    0    0    0    0  0.00000000000E+00  0.00000000000E+00  0.74505805969E-08  0.10566000000E+00  0.10566000000E+00 0.  1.
     999900   -1    0    0    0    0 -0.00000000000E+00 -0.00000000000E+00 -0.74505805969E-08  0.93827000000E+00  0.93827000000E+00 0. -1.
     999902    2    1    2    0    0  0.22307600800E-01 -0.63706480625E-02 -0.70660992653E-02  0.10196783203E+01  0.10193898827E+01 0.  0.
     999903    2    3    3    0    0 -0.27418283672E-01 -0.12363750087E+00 -0.23731145364E-01  0.13035166370E+00  0.19758417614E-01 0.  0.
         14    1    1    2    0    0 -0.22307600800E-01  0.63706480625E-02  0.70660992653E-02  0.24251679716E-01  0.00000000000E+00 0. -1.
     999901    1    3    3    0    0  0.49725884472E-01  0.11726685281E+00  0.16665046099E-01  0.88932665659E+00  0.88000000000E+00 0.  1.
        -11    1    4    4    0    0 -0.13222543985E-01 -0.26129821506E-01 -0.95054508309E-02  0.30793147904E-01  0.51100000000E-03 0. -1.
         11    1    4    4    0    0 -0.14195739687E-01 -0.97507679368E-01 -0.14225694534E-01  0.99558515793E-01  0.51100000000E-03 0.  1.
</event>
<event>
 8    1  0.1109553E+005  0.1043930E+01  0.7957747E-01            NaN
         13   -1    0    0    0    0  0.00000000000E+00  0.00000000000E+00  0.74505805969E-08  0.10566000000E+00  0.10566000000E+00 0.  1.
     999900   -1    0    0    0    0 -0.00000000000E+00 -0.00000000000E+00 -0.74505805969E-08  0.93827000000E+00  0.93827000000E+00 0. -1.
     999902    2    1    2    0    0  0.14714903534E-01  0.11471984520E-01  0.16664344098E-01  0.10189133020E+01  0.10186061466E+01 0.  0.
     999903    2    3    3    0    0 -0.10182276673E+00  0.28009894089E-01 -0.67722884993E-01  0.12707489988E+00  0.20228965286E-01 0.  0.
         14    1    1    2    0    0 -0.14714903534E-01 -0.11471984520E-01 -0.16664344098E-01  0.25016698005E-01  0.00000000000E+00 0. -1.
     999901    1    3    3    0    0  0.11653767027E+00 -0.16537909569E-01  0.84387229091E-01  0.89183840211E+00  0.88000000000E+00 0.  1.
        -11    1    4    4    0    0 -0.58689794827E-01  0.14367204013E-01 -0.50203453869E-01  0.78559254511E-01  0.51100000000E-03 0. -1.
         11    1    4    4    0    0 -0.43132971908E-01  0.13642690076E-01 -0.17519431124E-01  0.48515645374E-01  0.51100000000E-03 0.  1.
</event>
<event>
 7    1  0.1406906E+005  0.1043930E+01  0.7957747E-01            NaN
         13   -1    0    0    0    0  0.00000000000E+00  0.00000000000E+00  0.74505805969E-08  0.10566000000E+00  0.10566000000E+00 0.  1.
     999900   -1    0    0    0    0 -0.00000000000E+00 -0.00000000000E+00 -0.74505805969E-08  0.93827000000E+00  0.93827000000E+00 0. -1.
     999903    2    1    2    0    0 -0.85696243028E-01  0.75157942818E-01  0.31077158957E-01  0.11995042504E+00  0.20730465974E-01 0.  0.
         14    1    1    2    0    0  0.94845569110E-02 -0.30317608327E-01 -0.23502781549E-01  0.39515755529E-01  0.00000000000E+00 0. -1.
     999901    1    1    2    0    0  0.76211686117E-01 -0.44840334492E-01 -0.75743774076E-02  0.88446381944E+00  0.88000000000E+00 0.  1.
        -11    1    3    3    0    0 -0.42820872143E-01  0.45265396976E-01  0.25702138218E-01  0.67405076103E-01  0.51100000000E-03 0. -1.
         11    1    3    3    0    0 -0.42875370885E-01  0.29892545842E-01  0.53750207389E-02  0.52545348933E-01  0.51100000000E-03 0.  1.
</event>
<event>
 8    1  0.1109553E+005  0.1043930E+01  0.7957747E-01            NaN
         13   -1    0    0    0    0  0.00000000000E+00  0.00000000000E+00  0.74505805969E-08  0.10566000000E+00  0.10566000000E+00 0. -1.
     999900   -1    0    0    0    0 -0.00000000000E+00 -0.00000000000E+00 -0.74505805969E-08  0.93827000000E+00  0.93827000000E+00 0. -1.
     999902    2    1    2    0    0  0.12652479708E-01 -0.60365315950E-02 -0.27165596085E-01  0.10133604961E+01  0.10128993042E+01 0.  0.
     999903    2    3    3    0    0  0.46186827812E-01 -0.11157097837E+00 -0.30946217213E-01  0.12641271578E+00  0.21004763153E-01 0.  0.
         14    1    1    2    0    0 -0.12652479708E-01  0.60365315950E-02  0.27165596085E-01  0.30569503874E-01  0.00000000000E+00 0. -1.
     999901    1    3    3    0    0 -0.33534348105E-01  0.10553444677E+00  0.37806211284E-02  0.88694778034E+00  0.88000000000E+00 0. -1.
        -11    1    4    4    0    0  0.21340853516E-01 -0.31826401396E-01 -0.16143957383E-01  0.41584135624E-01  0.51100000000E-03 0. -1.
         11    1    4    4    0    0  0.24845974297E-01 -0.79744576970E-01 -0.14802259830E-01  0.84828580160E-01  0.51100000000E-03 0.  1.
</event>
<event>
 8    1  0.1109553E+005  0.1043930E+01  0.7957747E-01            NaN
         13   -1    0    0    0    0  0.00000000000E+00  0.00000000000E+00  0.74505805969E-08  0.10566000000E+00  0.10566000000E+00 0.  1.
     999900   -1    0    0    0    0 -0.00000000000E+00 -0.00000000000E+00 -0.74505805969E-08  0.93827000000E+00  0.93827000000E+00 0.  1.
     999902    2    1    2    0    0 -0.99882055486E-02 -0.18782407371E-01  0.11784102905E-01  0.10196111152E+01  0.10193210574E+01 0.  0.
     999903    2    3    3    0    0  0.11446145378E+00 -0.38894725405E-02  0.57292009591E-01  0.12956589905E+00  0.19707750677E-01 0.  0.
         14    1    1    2    0    0  0.99882055486E-02  0.18782407371E-01 -0.11784102905E-01  0.24318884802E-01  0.00000000000E+00 0. -1.
     999901    1    3    3    0    0 -0.12444965933E+00 -0.14892934831E-01 -0.45507906686E-01  0.89004521615E+00  0.88000000000E+00 0. -1.
        -11    1    4    4    0    0  0.31297593723E-01 -0.86317052599E-02  0.21229472192E-01  0.38794294930E-01  0.51100000000E-03 0.  1.
         11    1    4    4    0    0  0.83163860054E-01  0.47422327194E-02  0.36062537399E-01  0.90771604122E-01  0.51100000000E-03 0. -1.
</event>
<event>
 8    1  0.1169043E+005  0.1043930E+01  0.7957747E-01            NaN
         13   -1    0    0    0    0  0.00000000000E+00  0.00000000000E+00  0.74505805969E-08  0.10566000000E+00  0.10566000000E+00 0.  1.
     999900   -1    0    0    0    0 -0.00000000000E+00 -0.00000000000E+00 -0.74505805969E-08  0.93827000000E+00  0.93827000000E+00 0. -1.
     999902    2    1    2    0    0 -0.21032960654E-01  0.11003795611E-01 -0.91877047582E-03  0.10201747250E+01  0.10198981108E+01 0.  0.
     999903    2    3    3    0    0 -0.39844107993E-01  0.19587173265E-01 -0.12229067697E+00  0.13160358359E+00  0.19831370176E-01 0.  0.
         14    1    1    2    0    0  0.21032960654E-01 -0.11003795611E-01  0.91877047582E-03  0.23755275013E-01  0.00000000000E+00 0.  1.
     999901    1    3    3    0    0  0.18811147339E-01 -0.85833776533E-02  0.12137190649E+00  0.88857114140E+00  0.88000000000E+00 0.  1.
        -11    1    4    4    0    0 -0.28635723685E-01  0.45838478348E-02 -0.61598245342E-01  0.68085396982E-01  0.51100000000E-03 0. -1.
         11    1    4    4    0    0 -0.11208384308E-01  0.15003325430E-01 -0.60692431624E-01  0.63518186609E-01  0.51100000000E-03 0.  1.
</event>
<event>
 8    1  0.1109553E+005  0.1043930E+01  0.7957747E-01            NaN
         13   -1    0    0    0    0  0.00000000000E+00  0.00000000000E+00  0.74505805969E-08  0.10566000000E+00  0.10566000000E+00 0.  1.
     999900   -1    0    0    0    0 -0.00000000000E+00 -0.00000000000E+00 -0.74505805969E-08  0.93827000000E+00  0.93827000000E+00 0.  1.
     999902    2    1    2    0    0 -0.12548065241E-01  0.11322697602E-01  0.17141707018E-01  0.10198572864E+01  0.10195731406E+01 0.  0.
     999903    2    3    3    0    0 -0.11522746782E+00 -0.19467343103E-01 -0.54220620845E-01  0.13048466021E+00  0.20737020941E-01 0.  0.
         14    1    1    2    0    0  0.12548065241E-01 -0.11322697602E-01 -0.17141707018E-01  0.24072713635E-01  0.00000000000E+00 0. -1.
     999901    1    3    3    0    0  0.10267940258E+00  0.30790040705E-01  0.71362327863E-01  0.88937262616E+00  0.88000000000E+00 0. -1.
        -11    1    4    4    0    0 -0.34862222689E-01 -0.44961903599E-03 -0.77430071373E-02  0.35718230760E-01  0.51100000000E-03 0. -1.
         11    1    4    4    0    0 -0.80365245129E-01 -0.19017724067E-01 -0.46477613708E-01  0.94766429448E-01  0.51100000000E-03 0.  1.
</event>
<event>
 8    1  0.1109553E+005  0.1043930E+01  0.7957747E-01            NaN
         13   -1    0    0    0    0  0.00000000000E+00  0.00000000000E+00  0.74505805969E-08  0.10566000000E+00  0.10566000000E+00 0. -1.
     999900   -1    0    0    0    0 -0.00000000000E+00 -0.00000000000E+00 -0.74505805969E-08  0.93827000000E+00  0.93827000000E+00 0.  1.
     999902    2    1    2    0    0  0.75965695823E-02  0.14854466328E-01 -0.19806865992E-01  0.10180326067E+01  0.10177031558E+01 0.  0.
     999903    2    3    3    0    0 -0.26666958754E-02 -0.82803895192E-01  0.92133610927E-01  0.12552313304E+00  0.20096227033E-01 0.  0.
         14    1    1    2    0    0 -0.75965695823E-02 -0.14854466328E-01  0.19806865992E-01  0.25897393300E-01  0.00000000000E+00 0. -1.
     999901    1    3    3    0    0  0.10263265458E-01  0.97658361520E-01 -0.11194047692E+00  0.89250947366E+00  0.88000000000E+00 0.  1.
        -11    1    4    4    0    0  0.65839668431E-02 -0.15432587590E-01  0.13344910746E-01  0.21444373223E-01  0.51100000000E-03 0. -1.
         11    1    4    4    0    0 -0.92506627184E-02 -0.67371307602E-01  0.78788700180E-01  0.10407875982E+00  0.51100000000E-03 0.  1.
</event>
<event>
 8    1  0.1109553E+005  0.1043930E+01  0.7957747E-01            NaN
         13   -1    0    0    0    0  0.00000000000E+00  0.00000000000E+00  0.74505805969E-08  0.10566000000E+00  0.10566000000E+00 0.  1.
     999900   -1    0    0    0    0 -0.00000000000E+00 -0.00000000000E+00 -0.74505805969E-08  0.93827000000E+00  0.93827000000E+00 0.  1.
     999902    2    1    2    0    0 -0.13510159322E-01 -0.18114873115E-01  0.35670811586E-02  0.10210521264E+01  0.10207957914E+01 0.  0.
     999903    2    3    3    0    0  0.32351531970E-01  0.10971973736E+00  0.56779314312E-01  0.12904510617E+00  0.18539323239E-01 0.  0.
         14    1    1    2    0    0  0.13510159322E-01  0.18114873115E-01 -0.35670811586E-02  0.22877873609E-01  0.00000000000E+00 0. -1.
     999901    1    3    3    0    0 -0.45861691291E-01 -0.12783461047E+00 -0.53212233154E-01  0.89200702022E+00  0.88000000000E+00 0.  1.
        -11    1    4    4    0    0  0.81945447254E-02  0.12907162564E-01  0.26455256655E-02  0.15524346548E-01  0.51100000000E-03 0. -1.
         11    1    4    4    0    0  0.24156987244E-01  0.96812574796E-01  0.54133788647E-01  0.11352075962E+00  0.51100000000E-03 0.  1.
</event>
<event>
 8    1  0.1109553E+005  0.1043930E+01  0.7957747E-01            NaN
         13   -1    0    0    0    0  0.00000000000E+00  0.00000000000E+00  0.74505805969E-08  0.10566000000E+00  0.10566000000E+00 0.  1.
     999900   -1    0    0    0    0 -0.00000000000E+00 -0.00000000000E+00 -0.74505805969E-08  0.93827000000E+00  0.93827000000E+00 0.  1.
     999902    2    1    2    0    0  0.13234546136E-01  0.19516317838E-01  0.13863066785E-02  0.10203087867E+01  0.10200353221E+01 0.  0.
     999903    2    3    3    0    0  0.84056447272E-01  0.44575469323E-02 -0.99222319322E-01  0.13162177545E+00  0.19846084492E-01 0.  0.
         14    1    1    2    0    0 -0.13234546136E-01 -0.19516317838E-01 -0.13863066785E-02  0.23621213338E-01  0.00000000000E+00 0. -1.
     999901    1    3    3    0    0 -0.70821901136E-01  0.15058770905E-01  0.10060862600E+00  0.88868701121E+00  0.88000000000E+00 0. -1.
        -11    1    4    4    0    0  0.45610765315E-01 -0.47417954245E-03 -0.39069028765E-01  0.60060110627E-01  0.51100000000E-03 0. -1.
         11    1    4    4    0    0  0.38445681957E-01  0.49317264748E-02 -0.60153290557E-01  0.71561664828E-01  0.51100000000E-03 0.  1.
</event>
<event>
 8    1  0.1109553E+005  0.1043930E+01  0.7957747E-01            NaN
         13   -1    0    0    0    0  0.00000000000E+00  0.00000000000E+00  0.74505805969E-08  0.10566000000E+00  0.10566000000E+00 0.  1.
     999900   -1    0    0    0    0 -0.00000000000E+00 -0.00000000000E+00 -0.74505805969E-08  0.93827000000E+00  0.93827000000E+00 0.  1.
     999902    2    1    2    0    0  0.95317218415E-02 -0.18914447293E-01 -0.27625555374E-02  0.10225701837E+01  0.10223470736E+01 0.  0.
     999903    2    3    3    0    0  0.45517119392E-01  0.11084292511E+00  0.48469326969E-01  0.13085462914E+00  0.20388626864E-01 0.  0.
         14    1    1    2    0    0 -0.95317218415E-02  0.18914447293E-01  0.27625555374E-02  0.21359816262E-01  0.00000000000E+00 0. -1.
     999901    1    3    3    0    0 -0.35985397551E-01 -0.12975737240E+00 -0.51231882506E-01  0.89171555460E+00  0.88000000000E+00 0.  1.
        -11    1    4    4    0    0 -0.54275111747E-03  0.16601242915E-01  0.76780133468E-02  0.18305978669E-01  0.51100000000E-03 0. -1.
         11    1    4    4    0    0  0.46059870510E-01  0.94241682195E-01  0.40791313622E-01  0.11254865047E+00  0.51100000000E-03 0.  1.
</event>
<event>
 8    1  0.1109553E+005  0.1043930E+01  0.7957747E-01            NaN
         13   -1    0    0    0    0  0.00000000000E+00  0.00000000000E+00  0.74505805969E-08  0.10566000000E+00  0.10566000000E+00 0. -1.
     999900   -1    0    0    0    0 -0.00000000000E+00 -0.00000000000E+00 -0.74505805969E-08  0.93827000000E+00  0.93827000000E+00 0. -1.
     999902    2    1    2    0    0 -0.11106185283E-01  0.17325234499E-01 -0.11376174256E-01  0.10204155695E+01  0.10201446005E+01 0.  0.
     999903    2    3    3    0    0 -0.11236844718E+00 -0.19228374982E-01 -0.63994641433E-01  0.13229456695E+00  0.20251913152E-01 0.  0.
         14    1    1    2    0    0  0.11106185283E-01 -0.17325234499E-01  0.11376174256E-01  0.23514430520E-01  0.00000000000E+00 0. -1.
     999901    1    3    3    0    0  0.10126226189E+00  0.36553609481E-01  0.52618467177E-01  0.88812100253E+00  0.88000000000E+00 0. -1.
        -11    1    4    4    0    0 -0.42207194487E-01  0.24435757239E-02 -0.21151013253E-01  0.47276260548E-01  0.51100000000E-03 0.  1.
         11    1    4    4    0    0 -0.70161252690E-01 -0.21671950706E-01 -0.42843628180E-01  0.85018306400E-01  0.51100000000E-03 0. -1.
</event>
<event>
 8    1  0.1109553E+005  0.1043930E+01  0.7957747E-01            NaN
         13   -1    0    0    0    0  0.00000000000E+00  0.00000000000E+00  0.74505805969E-08  0.10566000000E+00  0.10566000000E+00 0. -1.
     999900   -1    0    0    0    0 -0.00000000000E+00 -0.00000000000E+00 -0.74505805969E-08  0.93827000000E+00  0.93827000000E+00 0. -1.
     999902    2    1    2    0    0 -0.73516203644E-02  0.16397262746E-01  0.15884890471E-01  0.10199457074E+01  0.10196636699E+01 0.  0.
     999903    2    3    3    0    0  0.75700639947E-02  0.12660693449E+00 -0.29126358401E-01  0.13180447934E+00  0.20915407971E-01 0.  0.
         14    1    1    2    0    0  0.73516203644E-02 -0.16397262746E-01 -0.15884890471E-01  0.23984292627E-01  0.00000000000E+00 0.  1.
     999901    1    3    3    0    0 -0.14921684359E-01 -0.11020967174E+00  0.45011248872E-01  0.88814122803E+00  0.88000000000E+00 0.  1.
        -11    1    4    4    0    0  0.14407264097E-01  0.67258215615E-01 -0.16646491038E-01  0.70771488690E-01  0.51100000000E-03 0.  1.
         11    1    4    4    0    0 -0.68372001024E-02  0.59348718873E-01 -0.12479867362E-01  0.61032990648E-01  0.51100000000E-03 0. -1.
</event>
<event>
 8    1  0.1109553E+005  0.1043930E+01  0.7957747E-01            NaN
         13   -1    0    0    0    0  0.00000000000E+00  0.00000000000E+00  0.74505805969E-08  0.10566000000E+00  0.10566000000E+00 0. -1.
     999900   -1    0    0    0    0 -0.00000000000E+00 -0.00000000000E+00 -0.74505805969E-08  0.93827000000E+00  0.93827000000E+00 0. -1.
     999902    2    1    2    0    0  0.14208841212E-01  0.33798245356E-01 -0.49469432293E-03  0.10072631583E+01  0.10065955557E+01 0.  0.
     999903    2    3    3    0    0  0.36328774038E-01  0.11051312910E+00  0.34496521787E-01  0.12295616974E+00  0.19881602912E-01 0.  0.
         14    1    1    2    0    0 -0.14208841212E-01 -0.33798245356E-01  0.49469432293E-03  0.36666841700E-01  0.00000000000E+00 0.  1.
     999901    1    3    3    0    0 -0.22119932825E-01 -0.76714883744E-01 -0.34991216110E-01  0.88430698856E+00  0.88000000000E+00 0. -1.
        -11    1    4    4    0    0  0.16730932556E-01  0.61518053969E-01  0.91324346238E-02  0.64405415544E-01  0.51100000000E-03 0. -1.
         11    1    4    4    0    0  0.19597841482E-01  0.48995075132E-01  0.25364087163E-01  0.58550754193E-01  0.51100000000E-03 0.  1.
</event>
<event>
 8    1  0.1109553E+005  0.1043930E+01  0.7957747E-01            NaN
         13   -1    0    0    0    0  0.00000000000E+00  0.00000000000E+00  0.74505805969E-08  0.10566000000E+00  0.10566000000E+00 0.  1.
     999900   -1    0    0    0    0 -0.00000000000E+00 -0.00000000000E+00 -0.74505805969E-08  0.93827000000E+00  0.93827000000E+00 0. -1.
     999902    2    1    2    0    0  0.23669829829E-01  0.32106959862E-02  0.29299932512E-02  0.10198643757E+01  0.10195803992E+01 0.  0.
     999903    2    3    3    0    0 -0.12534116366E-01  0.49993020952E-01 -0.11720542576E+00  0.12973414334E+00  0.20914824948E-01 0.  0.
         14    1    1    2    0    0 -0.23669829829E-01 -0.32106959862E-02 -0.29299932512E-02  0.24065624308E-01  0.00000000000E+00 0. -1.
     999901    1    3    3    0    0  0.36203946196E-01 -0.46782324966E-01  0.12013541901E+00  0.89013023235E+00  0.88000000000E+00 0.  1.
        -11    1    4    4    0    0 -0.11568540039E-01  0.20948418068E-01 -0.73047750533E-01  0.76869384784E-01  0.51100000000E-03 0. -1.
         11    1    4    4    0    0 -0.96557632718E-03  0.29044602884E-01 -0.44157675229E-01  0.52864758554E-01  0.51100000000E-03 0.  1.
</event>
<event>
 8    1  0.1109553E+005  0.1043930E+01  0.7957747E-01            NaN
         13   -1    0    0    0    0  0.00000000000E+00  0.00000000000E+00  0.74505805969E-08  0.10566000000E+00  0.10566000000E+00 0.  1.
     999900   -1    0    0    0    0 -0.00000000000E+00 -0.00000000000E+00 -0.74505805969E-08  0.93827000000E+00  0.93827000000E+00 0.  1.
     999902    2    1    2    0    0  0.42143175426E-02  0.22050879748E-01 -0.43134807847E-02  0.10210693813E+01  0.10208134372E+01 0.  0.
     999903    2    3    3    0    0 -0.21156325479E-01 -0.29618380692E-01 -0.12433949761E+00  0.13105835514E+00  0.19777340672E-01 0.  0.
         14    1    1    2    0    0 -0.42143175426E-02 -0.22050879748E-01  0.43134807847E-02  0.22860618681E-01  0.00000000000E+00 0. -1.
     999901    1    3    3    0    0  0.25370643021E-01  0.51669260440E-01  0.12002601682E+00  0.89001102618E+00  0.88000000000E+00 0. -1.
        -11    1    4    4    0    0 -0.16300791878E-01 -0.31572839792E-01 -0.99154349039E-01  0.10532998663E+00  0.51100000000E-03 0.  1.
         11    1    4    4    0    0 -0.48555336013E-02  0.19544591003E-02 -0.25185148571E-01  0.25728368515E-01  0.51100000000E-03 0. -1.
</event>
<event>
 8    1  0.1109553E+005  0.1043930E+01  0.7957747E-01            NaN
         13   -1    0    0    0    0  0.00000000000E+00  0.00000000000E+00  0.74505805969E-08  0.10566000000E+00  0.10566000000E+00 0. -1.
     999900   -1    0    0    0    0 -0.00000000000E+00 -0.00000000000E+00 -0.74505805969E-08  0.93827000000E+00  0.93827000000E+00 0. -1.
     999902    2    1    2    0    0 -0.22753347171E-01  0.25584764934E-02 -0.50039641306E-02  0.10204928443E+01  0.10202236740E+01 0.  0.
     999903    2    3    3    0    0  0.78724076696E-02 -0.10795056130E+00  0.69505638234E-01  0.12993017660E+00  0.18317165659E-01 0.  0.
         14    1    1    2    0    0  0.22753347171E-01 -0.25584764934E-02  0.50039641306E-02  0.23437155682E-01  0.00000000000E+00 0.  1.
     999901    1    3    3    0    0 -0.30625754841E-01  0.11050903779E+00 -0.74509602365E-01  0.89056266772E+00  0.88000000000E+00 0. -1.
        -11    1    4    4    0    0  0.57710735605E-03 -0.90493704326E-01  0.53393757821E-01  0.10507425027E+00  0.51100000000E-03 0.  1.
         11    1    4    4    0    0  0.72953003135E-02 -0.17456856970E-01  0.16111880413E-01  0.24855926323E-01  0.51100000000E-03 0. -1.
</event>
<event>
 8    1  0.1109553E+005  0.1043930E+01  0.7957747E-01            NaN
         13   -1    0    0    0    0  0.00000000000E+00  0.00000000000E+00  0.74505805969E-08  0.10566000000E+00  0.10566000000E+00 0.  1.
     999900   -1    0    0    0    0 -0.00000000000E+00 -0.00000000000E+00 -0.74505805969E-08  0.93827000000E+00  0.93827000000E+00 0. -1.
     999902    2    1    2    0    0  0.63515617921E-02  0.12421785776E-01 -0.19870114133E-01  0.10196511093E+01  0.10193620162E+01 0.  0.
     999903    2    3    3    0    0 -0.10589688135E+00  0.65000786766E-01  0.31563266531E-01  0.12947716168E+00  0.18134052002E-01 0.  0.
         14    1    1    2    0    0 -0.63515617921E-02 -0.12421785776E-01  0.19870114133E-01  0.24278890723E-01  0.00000000000E+00 0.  1.
     999901    1    3    3    0    0  0.11224844315E+00 -0.52579000991E-01 -0.51433380665E-01  0.89017394760E+00  0.88000000000E+00 0. -1.
        -11    1    4    4    0    0 -0.87742272159E-01  0.45561311253E-01  0.26969263944E-01  0.10247995768E+00  0.51100000000E-03 0. -1.
         11    1    4    4    0    0 -0.18154609195E-01  0.19439475514E-01  0.45940025870E-02  0.26997204004E-01  0.51100000000E-03 0.  1.
</event>
<event>
 8    1  0.1109553E+005  0.1043930E+01  0.7957747E-01            NaN
         13   -1    0    0    0    0  0.00000000000E+00  0.00000000000E+00  0.74505805969E-08  0.10566000000E+00  0.10566000000E+00 0. -1.
     999900   -1    0    0    0    0 -0.00000000000E+00 -0.00000000000E+00 -0.74505805969E-08  0.93827000000E+00  0.93827000000E+00 0. -1.
     999902    2    1    2    0    0 -0.13631312721E-01 -0.17467490027E-01  0.10936404033E-01  0.10192210780E+01  0.10189215254E+01 0.  0.
     999903    2    3    3    0    0  0.10780783906E+00 -0.28756577019E-01  0.62024750275E-01  0.12934191191E+00  0.20803596953E-01 0.  0.
         14    1    1    2    0    0  0.13631312721E-01  0.17467490027E-01 -0.10936404033E-01  0.24708922022E-01  0.00000000000E+00 0.  1.
     999901    1    3    3    0    0 -0.12143915178E+00  0.11289086992E-01 -0.51088346242E-01  0.88987916606E+00  0.88000000000E+00 0. -1.
        -11    1    4    4    0    0  0.58773399449E-01 -0.21743902630E-01  0.24882705281E-01  0.67427886868E-01  0.51100000000E-03 0. -1.
         11    1    4    4    0    0  0.49034439612E-01 -0.70126743894E-02  0.37142044994E-01  0.61914025047E-01  0.51100000000E-03 0.  1.
</event>
<event>
 8    1  0.1109553E+005  0.1043930E+01  0.7957747E-01            NaN
         13   -1    0    0    0    0  0.00000000000E+00  0.00000000000E+00  0.74505805969E-08  0.10566000000E+00  0.10566000000E+00 0.  1.
     999900   -1    0    0    0    0 -0.00000000000E+00 -0.00000000000E+00 -0.74505805969E-08  0.93827000000E+00  0.93827000000E+00 0.  1.
     999902    2    1    2    0    0 -0.14911227469E-01  0.36560781821E-02  0.17455885579E-01  0.10206830743E+01  0.10204183057E+01 0.  0.
     999903    2    3    3    0    0 -0.91506206892E-01  0.50250131843E-01 -0.76767822272E-01  0.13112368685E+00  0.20041483658E-01 0.  0.
         14    1    1    2    0    0  0.14911227469E-01 -0.36560781821E-02 -0.17455885579E-01  0.23246925681E-01  0.00000000000E+00 0.  1.
     999901    1    3    3    0    0  0.76594979423E-01 -0.46594053661E-01  0.94223707851E-01  0.88955938747E+00  0.88000000000E+00 0. -1.
        -11    1    4    4    0    0 -0.56516830927E-01  0.41788963906E-01 -0.49904590893E-01  0.86204402415E-01  0.51100000000E-03 0. -1.
         11    1    4    4    0    0 -0.34989375964E-01  0.84611679369E-02 -0.26863231379E-01  0.44919284437E-01  0.51100000000E-03 0.  1.
</event>
<event>
 8    1  0.1109553E+005  0.1043930E+01  0.7957747E-01            NaN
         13   -1    0    0    0    0  0.00000000000E+00  0.00000000000E+00  0.74505805969E-08  0.10566000000E+00  0.10566000000E+00 0. -1.
     999900   -1    0    0    0    0 -0.00000000000E+00 -0.00000000000E+00 -0.74505805969E-08  0.93827000000E+00  0.93827000000E+00 0.  1.
     999902    2    1    2    0    0 -0.24128255928E-01 -0.68610640024E-02  0.38980950307E-02  0.10185441363E+01  0.10182277326E+01 0.  0.
     999903    2    3    3    0    0  0.42368332363E-01  0.86652371494E-01  0.81180952522E-01  0.12773596446E+00  0.20552870621E-01 0.  0.
         14    1    1    2    0    0  0.24128255928E-01  0.68610640024E-02 -0.38980950307E-02  0.25385863748E-01  0.00000000000E+00 0. -1.
     999901    1    3    3    0    0 -0.66496588291E-01 -0.93513435497E-01 -0.77282857491E-01  0.89080817179E+00  0.88000000000E+00 0.  1.
        -11    1    4    4    0    0  0.57188284377E-02  0.17678704993E-02  0.67788796553E-02  0.90578526806E-02  0.51100000000E-03 0. -1.
         11    1    4    4    0    0  0.36649503925E-01  0.84884500995E-01  0.74402072867E-01  0.11867811178E+00  0.51100000000E-03 0.  1.
</event>
<event>
 8    1  0.1109553E+005  0.1043930E+01  0.7957747E-01            NaN
         13   -1    0    0    0    0  0.00000000000E+00  0.00000000000E+00  0.74505805969E-08  0.10566000000E+00  0.10566000000E+00 0.  1.
     999900   -1    0    0    0    0 -0.00000000000E+00 -0.00000000000E+00 -0.74505805969E-08  0.93827000000E+00  0.93827000000E+00 0. -1.
     999902    2    1    2    0    0  0.21322637257E-01 -0.12069237216E-01 -0.82962948362E-02  0.10180620690E+01  0.10177333769E+01 0.  0.
     999903    2    3    3    0    0  0.73816309975E-01 -0.70943725186E-01  0.78023740687E-01  0.13032734536E+00  0.20387571620E-01 0.  0.
         14    1    1    2    0    0 -0.21322637257E-01  0.12069237216E-01  0.82962948362E-02  0.25867931007E-01  0.00000000000E+00 0. -1.
     999901    1    3    3    0    0 -0.52493672718E-01  0.58874487970E-01 -0.86320035524E-01  0.88773472363E+00  0.88000000000E+00 0.  1.
        -11    1    4    4    0    0  0.13728990516E-01 -0.21764633446E-01  0.11975433850E-01  0.28387613259E-01  0.51100000000E-03 0. -1.
         11    1    4    4    0    0  0.60087319459E-01 -0.49179091740E-01  0.66048306837E-01  0.10193973210E+00  0.51100000000E-03 0.  1.
</event>
<event>
 8    1  0.1109553E+005  0.1043930E+01  0.7957747E-01            NaN
         13   -1    0    0    0    0  0.00000000000E+00  0.00000000000E+00  0.74505805969E-08  0.10566000000E+00  0.10566000000E+00 0.  1.
     999900   -1    0    0    0    0 -0.00000000000E+00 -0.00000000000E+00 -0.74505805969E-08  0.93827000000E+00  0.93827000000E+00 0.  1.
     999902    2    1    2    0    0 -0.67098984074E-02  0.28895619547E-02 -0.22470954296E-01  0.10203012867E+01  0.10200276465E+01 0.  0.
     999903    2    3    3    0    0 -0.17363063943E-01 -0.12314736845E+00  0.32518388302E-01  0.12955854856E+00  0.16162350715E-01 0.  0.
         14    1    1    2    0    0  0.67098984074E-02 -0.28895619547E-02  0.22470954296E-01  0.23628713293E-01  0.00000000000E+00 0.  1.
     999901    1    3    3    0    0  0.10653165535E-01  0.12603693041E+00 -0.54989342598E-01  0.89074273815E+00  0.88000000000E+00 0. -1.
        -11    1    4    4    0    0 -0.19612449151E-01 -0.10263398206E+00  0.30301544944E-01  0.10879718370E+00  0.51100000000E-03 0. -1.
         11    1    4    4    0    0  0.22493852080E-02 -0.20513386398E-01  0.22168433582E-02  0.20761364859E-01  0.51100000000E-03 0.  1.
</event>
<event>
 8    1  0.1109553E+005  0.1043930E+01  0.7957747E-01            NaN
         13   -1    0    0    0    0  0.00000000000E+00  0.00000000000E+00  0.74505805969E-08  0.10566000000E+00  0.10566000000E+00 0.  1.
     999900   -1    0    0    0    0 -0.00000000000E+00 -0.00000000000E+00 -0.74505805969E-08  0.93827000000E+00  0.93827000000E+00 0.  1.
     999902    2    1    2    0    0 -0.10025845549E-02 -0.24890522294E-01  0.93475912549E-02  0.10173232201E+01  0.10169752275E+01 0.  0.
     999903    2    3    3    0    0  0.63467746578E-01 -0.11241422527E+00  0.19848252830E-02  0.13060396771E+00  0.19706444431E-01 0.  0.
         14    1    1    2    0    0  0.10025845549E-02  0.24890522294E-01 -0.93475912549E-02  0.26606779928E-01  0.00000000000E+00 0. -1.
     999901    1    3    3    0    0 -0.64470331133E-01  0.87523702978E-01  0.73627659719E-02  0.88671925236E+00  0.88000000000E+00 0.  1.
        -11    1    4    4    0    0  0.26057125723E-01 -0.37913457465E-01  0.92230569154E-02  0.46922595386E-01  0.51100000000E-03 0.  1.
         11    1    4    4    0    0  0.37410620855E-01 -0.74500767807E-01 -0.72382316324E-02  0.83681372328E-01  0.51100000000E-03 0. -1.
</event>
<event>
 8    1  0.1109553E+005  0.1043930E+01  0.7957747E-01            NaN
         13   -1    0    0    0    0  0.00000000000E+00  0.00000000000E+00  0.74505805969E-08  0.10566000000E+00  0.10566000000E+00 0.  1.
     999900   -1    0    0    0    0 -0.00000000000E+00 -0.00000000000E+00 -0.74505805969E-08  0.93827000000E+00  0.93827000000E+00 0.  1.
     999902    2    1    2    0    0 -0.23701303268E-02 -0.13491859707E-01  0.19060717092E-01  0.10204574899E+01  0.10201874974E+01 0.  0.
     999903    2    3    3    0    0 -0.44505747445E-01 -0.12279666386E+00 -0.57496547810E-02  0.13234797804E+00  0.20570526258E-01 0.  0.
         14    1    1    2    0    0  0.23701303268E-02  0.13491859707E-01 -0.19060717092E-01  0.23472510138E-01  0.00000000000E+00 0. -1.
     999901    1    3    3    0    0  0.42135617118E-01  0.10930480415E+00  0.24810371873E-01  0.88810951182E+00  0.88000000000E+00 0.  1.
        -11    1    4    4    0    0 -0.35526456346E-01 -0.95209684306E-01 -0.12968798532E-01  0.10244737157E+00  0.51100000000E-03 0.  1.
         11    1    4    4    0    0 -0.89792910994E-02 -0.27586979551E-01  0.72191437506E-02  0.29900606464E-01  0.51100000000E-03 0. -1.
</event>
<event>
 8    1  0.1109553E+005  0.1043930E+01  0.7957747E-01            NaN
         13   -1    0    0    0    0  0.00000000000E+00  0.00000000000E+00  0.74505805969E-08  0.10566000000E+00  0.10566000000E+00 0.  1.
     999900   -1    0    0    0    0 -0.00000000000E+00 -0.00000000000E+00 -0.74505805969E-08  0.93827000000E+00  0.93827000000E+00 0.  1.
     999902    2    1    2    0    0  0.14669609285E-01 -0.17202570697E-02  0.17406122534E-01  0.10211017319E+01  0.10208465199E+01 0.  0.
     999903    2    3    3    0    0 -0.89517762206E-01 -0.51450643437E-01 -0.74373610414E-01  0.12882843351E+00  0.20117974418E-01 0.  0.
         14    1    1    2    0    0 -0.14669609285E-01  0.17202570697E-02 -0.17406122534E-01  0.22828268060E-01  0.00000000000E+00 0.  1.
     999901    1    3    3    0    0  0.10418737149E+00  0.49730386367E-01  0.91779732948E-01  0.89227329843E+00  0.88000000000E+00 0. -1.
        -11    1    4    4    0    0 -0.23662034964E-01 -0.13148030603E-01 -0.31009169904E-01  0.41165426592E-01  0.51100000000E-03 0. -1.
         11    1    4    4    0    0 -0.65855727243E-01 -0.38302612834E-01 -0.43364440510E-01  0.87663006920E-01  0.51100000000E-03 0.  1.
</event>
<event>
 8    1  0.1109553E+005  0.1043930E+01  0.7957747E-01            NaN
         13   -1    0    0    0    0  0.00000000000E+00  0.00000000000E+00  0.74505805969E-08  0.10566000000E+00  0.10566000000E+00 0. -1.
     999900   -1    0    0    0    0 -0.00000000000E+00 -0.00000000000E+00 -0.74505805969E-08  0.93827000000E+00  0.93827000000E+00 0. -1.
     999902    2    1    2    0    0 -0.17522937653E-01  0.11511231835E-01  0.10435481571E-01  0.10205107541E+01  0.10202419998E+01 0.  0.
     999903    2    3    3    0    0  0.87576828017E-01 -0.90678647379E-01 -0.10701648371E-01  0.12813442631E+00  0.20287632489E-01 0.  0.
         14    1    1    2    0    0  0.17522937653E-01 -0.11511231835E-01 -0.10435481571E-01  0.23419245889E-01  0.00000000000E+00 0. -1.
     999901    1    3    3    0    0 -0.10509976567E+00  0.10218987921E+00  0.21137129942E-01  0.89237632780E+00  0.88000000000E+00 0.  1.
        -11    1    4    4    0    0  0.54628958292E-01 -0.53219863135E-01 -0.16112227925E-01  0.77952177172E-01  0.51100000000E-03 0. -1.
         11    1    4    4    0    0  0.32947869725E-01 -0.37458784244E-01  0.54105795540E-02  0.50182249138E-01  0.51100000000E-03 0.  1.
</event>
<event>
 8    1  0.1109553E+005  0.1043930E+01  0.7957747E-01            NaN
         13   -1    0    0    0    0  0.00000000000E+00  0.00000000000E+00  0.74505805969E-08  0.10566000000E+00  0.10566000000E+00 0. -1.
     999900   -1    0    0    0    0 -0.00000000000E+00 -0.00000000000E+00 -0.74505805969E-08  0.93827000000E+00  0.93827000000E+00 0. -1.
     999902    2    1    2    0    0 -0.91722711087E-02  0.92184872562E-02  0.17111789256E-01  0.10224375735E+01  0.10222116549E+01 0.  0.
     999903    2    3    3    0    0 -0.13868501486E-01  0.12907214111E+00  0.27875762576E-01  0.13423556043E+00  0.19752837793E-01 0.  0.
         14    1    1    2    0    0  0.91722711087E-02 -0.92184872562E-02 -0.17111789256E-01  0.21492426483E-01  0.00000000000E+00 0.  1.
     999901    1    3    3    0    0  0.46962303770E-02 -0.11985365386E+00 -0.10763973319E-01  0.88820201308E+00  0.88000000000E+00 0. -1.
        -11    1    4    4    0    0 -0.85201835854E-02  0.53482535653E-01  0.21203618947E-01  0.58162098704E-01  0.51100000000E-03 0.  1.
         11    1    4    4    0    0 -0.53483179003E-02  0.75589605460E-01  0.66721436285E-02  0.76073461730E-01  0.51100000000E-03 0. -1.
</event>
<event>
 8    1  0.1109553E+005  0.1043930E+01  0.7957747E-01            NaN
         13   -1    0    0    0    0  0.00000000000E+00  0.00000000000E+00  0.74505805969E-08  0.10566000000E+00  0.10566000000E+00 0.  1.
     999900   -1    0    0    0    0 -0.00000000000E+00 -0.00000000000E+00 -0.74505805969E-08  0.93827000000E+00  0.93827000000E+00 0. -1.
     999902    2    1    2    0    0  0.10770208235E-01  0.27887040833E-02  0.20749183049E-01  0.10203863628E+01  0.10201147124E+01 0.  0.
     999903    2    3    3    0    0 -0.10069120844E+00 -0.26096543084E-01 -0.71895168241E-01  0.12806300171E+00  0.20284678240E-01 0.  0.
         14    1    1    2    0    0 -0.10770208235E-01 -0.27887040833E-02 -0.20749183049E-01  0.23543637210E-01  0.00000000000E+00 0. -1.
     999901    1    3    3    0    0  0.11146141668E+00  0.28885247167E-01  0.92644351289E-01  0.89232336108E+00  0.88000000000E+00 0.  1.
        -11    1    4    4    0    0 -0.91101659319E-01 -0.22771804968E-01 -0.71256549800E-01  0.11788055159E+00  0.51100000000E-03 0. -1.
         11    1    4    4    0    0 -0.95895491220E-02 -0.33247381159E-02 -0.63861844097E-03  0.10182450119E-01  0.51100000000E-03 0.  1.
</event>
<event>
 8    1  0.1109553E+005  0.1043930E+01  0.7957747E-01            NaN
         13   -1    0    0    0    0  0.00000000000E+00  0.00000000000E+00  0.74505805969E-08  0.10566000000E+00  0.10566000000E+00 0. -1.
     999900   -1    0    0    0    0 -0.00000000000E+00 -0.00000000000E+00 -0.74505805969E-08  0.93827000000E+00  0.93827000000E+00 0.  1.
     999902    2    1    2    0    0  0.95245447040E-02 -0.18170639999E-01  0.11812783393E-01  0.10202565769E+01  0.10199818880E+01 0.  0.
     999903    2    3    3    0    0 -0.74946922220E-01  0.29233278554E-03  0.10582753998E+00  0.13103495967E+00  0.18803346238E-01 0.  0.
         14    1    1    2    0    0 -0.95245447040E-02  0.18170639999E-01 -0.11812783393E-01  0.23673423100E-01  0.00000000000E+00 0.  1.
     999901    1    3    3    0    0  0.84471466924E-01 -0.18462972785E-01 -0.94014756586E-01  0.88922161723E+00  0.88000000000E+00 0.  1.
        -11    1    4    4    0    0 -0.67596987505E-02  0.33954753497E-02  0.19895234371E-01  0.21290942950E-01  0.51100000000E-03 0. -1.
         11    1    4    4    0    0 -0.68187223469E-01 -0.31031425642E-02  0.85932305609E-01  0.10974401672E+00  0.51100000000E-03 0.  1.
</event>
<event>
 8    1  0.1109553E+005  0.1043930E+01  0.7957747E-01            NaN
         13   -1    0    0    0    0  0.00000000000E+00  0.00000000000E+00  0.74505805969E-08  0.10566000000E+00  0.10566000000E+00 0.  1.
     999900   -1    0    0    0    0 -0.00000000000E+00 -0.00000000000E+00 -0.74505805969E-08  0.93827000000E+00  0.93827000000E+00 0. -1.
     999902    2    1    2    0    0 -0.11957217523E-01 -0.81192792756E-02  0.20384480189E-01  0.10189415071E+01  0.10186350524E+01 0.  0.
     999903    2    3    3    0    0 -0.51563083959E-01  0.13984973419E-01  0.11931945318E+00  0.13223673572E+00  0.19876902564E-01 0.  0.
         14    1    1    2    0    0  0.11957217523E-01  0.81192792756E-02 -0.20384480189E-01  0.24988492940E-01  0.00000000000E+00 0. -1.
     999901    1    3    3    0    0  0.39605866436E-01 -0.22104252694E-01 -0.98934972995E-01  0.88670477134E+00  0.88000000000E+00 0. -1.
        -11    1    4    4    0    0 -0.34660852965E-01  0.17616900674E-02  0.59513573678E-01  0.68895608373E-01  0.51100000000E-03 0.  1.
         11    1    4    4    0    0 -0.16902230994E-01  0.12223283351E-01  0.59805879507E-01  0.63341127343E-01  0.51100000000E-03 0. -1.
</event>
<event>
 8    1  0.1109553E+005  0.1043930E+01  0.7957747E-01            NaN
         13   -1    0    0    0    0  0.00000000000E+00  0.00000000000E+00  0.74505805969E-08  0.10566000000E+00  0.10566000000E+00 0.  1.
     999900   -1    0    0    0    0 -0.00000000000E+00 -0.00000000000E+00 -0.74505805969E-08  0.93827000000E+00  0.93827000000E+00 0.  1.
     999902    2    1    2    0    0 -0.48888694518E-02  0.22845985108E-01 -0.56463040798E-02  0.10198941761E+01  0.10196109109E+01 0.  0.
     999903    2    3    3    0    0  0.44002604095E-01  0.11474610815E+00  0.44812684405E-01  0.13232326722E+00  0.19959255003E-01 0.  0.
         14    1    1    2    0    0  0.48888694518E-02 -0.22845985108E-01  0.56463040798E-02  0.24035823885E-01  0.00000000000E+00 0. -1.
     999901    1    3    3    0    0 -0.48891473547E-01 -0.91900123044E-01 -0.50458988485E-01  0.88757090890E+00  0.88000000000E+00 0.  1.
        -11    1    4    4    0    0  0.26375051907E-01  0.59402821950E-01  0.33592081801E-01  0.73164388192E-01  0.51100000000E-03 0.  1.
         11    1    4    4    0    0  0.17627552188E-01  0.55343286202E-01  0.11220602604E-01  0.59158879026E-01  0.51100000000E-03 0. -1.
</event>
<event>
 8    1  0.1109553E+005  0.1043930E+01  0.7957747E-01            NaN
         13   -1    0    0    0    0  0.00000000000E+00  0.00000000000E+00  0.74505805969E-08  0.10566000000E+00  0.10566000000E+00 0.  1.
     999900   -1    0    0    0    0 -0.00000000000E+00 -0.00000000000E+00 -0.74505805969E-08  0.93827000000E+00  0.93827000000E+00 0. -1.
     999902    2    1    2    0    0  0.16347341775E-01 -0.29403976598E-02 -0.15116090335E-01  0.10214716450E+01  0.10212247274E+01 0.  0.
     999903    2    3    3    0    0  0.96173259920E-01  0.35022291093E-01 -0.84600664527E-01  0.13431807940E+00  0.20204386087E-01 0.  0.
         14    1    1    2    0    0 -0.16347341775E-01  0.29403976598E-02  0.15116090335E-01  0.22458354983E-01  0.00000000000E+00 0.  1.
     999901    1    3    3    0    0 -0.79825918145E-01 -0.37962688752E-01  0.69484574192E-01  0.88715356562E+00  0.88000000000E+00 0.  1.
        -11    1    4    4    0    0  0.70813236775E-02  0.41018021026E-02 -0.15050170188E-01  0.17138805944E-01  0.51100000000E-03 0. -1.
         11    1    4    4    0    0  0.89091936242E-01  0.30920488990E-01 -0.69550494339E-01  0.11717927345E+00  0.51100000000E-03 0.  1.
</event>
<event>
 8    1  0.1109553E+005  0.1043930E+01  0.7957747E-01            NaN
         13   -1    0    0    0    0  0.00000000000E+00  0.00000000000E+00  0.74505805969E-08  0.10566000000E+00  0.10566000000E+00 0. -1.
     999900   -1    0    0    0    0 -0.00000000000E+00 -0.00000000000E+00 -0.74505805969E-08  0.93827000000E+00  0.93827000000E+00 0. -1.
     999902    2    1    2    0    0 -0.11348104328E-01 -0.72718634972E-02 -0.19159071455E-01  0.10205050242E+01  0.10202361369E+01 0.  0.
     999903    2    3    3    0    0  0.78605783493E-01 -0.10111757312E+00 -0.17259330767E-01  0.13095326736E+00  0.21148071800E-01 0.  0.
         14    1    1    2    0    0  0.11348104328E-01  0.72718634972E-02  0.19159071455E-01  0.23424975765E-01  0.00000000000E+00 0. -1.
     999901    1    3    3    0    0 -0.89953887821E-01  0.93845709624E-01 -0.18997406877E-02  0.88955175688E+00  0.88000000000E+00 0.  1.
        -11    1    4    4    0    0  0.27312030150E-01 -0.52147854566E-01 -0.90731265186E-02  0.59564490030E-01  0.51100000000E-03 0. -1.
         11    1    4    4    0    0  0.51293753343E-01 -0.48969718555E-01 -0.81862042486E-02  0.71388777328E-01  0.51100000000E-03 0.  1.
</event>
<event>
 8    1  0.1109553E+005  0.1043930E+01  0.7957747E-01            NaN
         13   -1    0    0    0    0  0.00000000000E+00  0.00000000000E+00  0.74505805969E-08  0.10566000000E+00  0.10566000000E+00 0.  1.
     999900   -1    0    0    0    0 -0.00000000000E+00 -0.00000000000E+00 -0.74505805969E-08  0.93827000000E+00  0.93827000000E+00 0.  1.
     999902    2    1    2    0    0  0.38613355182E-02 -0.20712773166E-01 -0.13653481358E-01  0.10188232990E+01  0.10185139017E+01 0.  0.
     999903    2    3    3    0    0 -0.10264880728E+00  0.68415545181E-01  0.22181488869E-01  0.12721104425E+00  0.21752399213E-01 0.  0.
         14    1    1    2    0    0 -0.38613355182E-02  0.20712773166E-01  0.13653481358E-01  0.25106701045E-01  0.00000000000E+00 0.  1.
     999901    1    3    3    0    0  0.10651014280E+00 -0.89128318346E-01 -0.35834970226E-01  0.89161225471E+00  0.88000000000E+00 0.  1.
        -11    1    4    4    0    0 -0.76261494792E-01  0.39178798924E-01  0.12428120089E-01  0.86634364792E-01  0.51100000000E-03 0.  1.
         11    1    4    4    0    0 -0.26387312491E-01  0.29236746257E-01  0.97533687792E-02  0.40576679457E-01  0.51100000000E-03 0. -1.
</event>
<event>
 8    1  0.1109553E+005  0.1043930E+01  0.7957747E-01            NaN
         13   -1    0    0    0    0  0.00000000000E+00  0.00000000000E+00  0.74505805969E-08  0.10566000000E+00  0.10566000000E+00 0. -1.
     999900   -1    0    0    0    0 -0.00000000000E+00 -0.00000000000E+00 -0.74505805969E-08  0.93827000000E+00  0.93827000000E+00 0.  1.
     999902    2    1    2    0    0 -0.78148063230E-02  0.22345753482E-01  0.22919024672E-02  0.10201464613E+01  0.10198691807E+01 0.  0.
     999903    2    3    3    0    0 -0.63956610357E-01 -0.59587769618E-01 -0.93360847933E-01  0.12940831064E+00  0.19725938244E-01 0.  0.
         14    1    1    2    0    0  0.78148063230E-02 -0.22345753482E-01 -0.22919024672E-02  0.23783538708E-01  0.00000000000E+00 0.  1.
     999901    1    3    3    0    0  0.56141804034E-01  0.81933523100E-01  0.95652750400E-01  0.89073815065E+00  0.88000000000E+00 0. -1.
        -11    1    4    4    0    0 -0.13912287231E-01 -0.91654463720E-02 -0.84192111080E-02  0.18673547597E-01  0.51100000000E-03 0. -1.
         11    1    4    4    0    0 -0.50044323126E-01 -0.50422323246E-01 -0.84941636825E-01  0.11073476304E+00  0.51100000000E-03 0.  1.
</event>
<event>
 8    1  0.1109553E+005  0.1043930E+01  0.7957747E-01            NaN
         13   -1    0    0    0    0  0.00000000000E+00  0.00000000000E+00  0.74505805969E-08  0.10566000000E+00  0.10566000000E+00 0.  1.
     999900   -1    0    0    0    0 -0.00000000000E+00 -0.00000000000E+00 -0.74505805969E-08  0.93827000000E+00  0.93827000000E+00 0. -1.
     999902    2    1    2    0    0  0.10421515155E-01  0.25563944637E-01 -0.73538145776E-02  0.10153607537E+01  0.10149587471E+01 0.  0.
     999903    2    3    3    0    0  0.25964623530E-01 -0.70238705210E-01 -0.98498090838E-01  0.12534557688E+00  0.20049996490E-01 0.  0.
         14    1    1    2    0    0 -0.10421515155E-01 -0.25563944637E-01  0.73538145776E-02  0.28569246269E-01  0.00000000000E+00 0. -1.
     999901    1    3    3    0    0 -0.15543108375E-01  0.95802649847E-01  0.91144276261E-01  0.89001517685E+00  0.88000000000E+00 0.  1.
        -11    1    4    4    0    0  0.12929851746E-01 -0.22678404892E-01 -0.21097563277E-01  0.33568726694E-01  0.51100000000E-03 0.  1.
         11    1    4    4    0    0  0.13034771784E-01 -0.47560300318E-01 -0.77400527561E-01  0.91776850183E-01  0.51100000000E-03 0. -1.
</event>
<event>
 8    1  0.1109553E+005  0.1043930E+01  0.7957747E-01            NaN
         13   -1    0    0    0    0  0.00000000000E+00  0.00000000000E+00  0.74505805969E-08  0.10566000000E+00  0.10566000000E+00 0. -1.
     999900   -1    0    0    0    0 -0.00000000000E+00 -0.00000000000E+00 -0.74505805969E-08  0.93827000000E+00  0.93827000000E+00 0. -1.
     999902    2    1    2    0    0 -0.10005049493E-01  0.17659519667E-01  0.99293610003E-02  0.10213346053E+01  0.10210846313E+01 0.  0.
     999903    2    3    3    0    0 -0.30776318328E-01  0.10026777241E+00  0.81444704180E-01  0.13433403412E+00  0.20287556028E-01 0.  0.
         14    1    1    2    0    0  0.10005049493E-01 -0.17659519667E-01 -0.99293610003E-02  0.22595394666E-01  0.00000000000E+00 0. -1.
     999901    1    3    3    0    0  0.20771268836E-01 -0.82608252741E-01 -0.71515343180E-01  0.88700057122E+00  0.88000000000E+00 0. -1.
        -11    1    4    4    0    0 -0.10200714926E-01  0.45278272199E-01  0.24260667763E-01  0.52373825903E-01  0.51100000000E-03 0.  1.
         11    1    4    4    0    0 -0.20575603403E-01  0.54989500209E-01  0.57184036417E-01  0.81960208214E-01  0.51100000000E-03 0. -1.
</event>
<event>
 8    1  0.1109553E+005  0.1043930E+01  0.7957747E-01            NaN
         13   -1    0    0    0    0  0.00000000000E+00  0.00000000000E+00  0.74505805969E-08  0.10566000000E+00  0.10566000000E+00 0.  1.
     999900   -1    0    0    0    0 -0.00000000000E+00 -0.00000000000E+00 -0.74505805969E-08  0.93827000000E+00  0.93827000000E+00 0.  1.
     999902    2    1    2    0    0 -0.22721760263E-01 -0.36293038699E-02  0.33234544312E-02  0.10206814391E+01  0.10204166328E+01 0.  0.
     999903    2    3    3    0    0 -0.91999755679E-01  0.93281898715E-01 -0.76834139573E-02  0.13258663952E+00  0.18833864603E-01 0.  0.
         14    1    1    2    0    0  0.22721760263E-01  0.36293038699E-02 -0.33234544312E-02  0.23248560932E-01  0.00000000000E+00 0.  1.
     999901    1    3    3    0    0  0.69277995416E-01 -0.96911202585E-01  0.11006868389E-01  0.88809479955E+00  0.88000000000E+00 0.  1.
        -11    1    4    4    0    0 -0.32435666398E-01  0.34079484431E-01  0.62240906059E-02  0.47460342799E-01  0.51100000000E-03 0. -1.
         11    1    4    4    0    0 -0.59564089281E-01  0.59202414284E-01 -0.13907504563E-01  0.85126296719E-01  0.51100000000E-03 0.  1.
</event>
<event>
 8    1  0.1109553E+005  0.1043930E+01  0.7957747E-01            NaN
         13   -1    0    0    0    0  0.00000000000E+00  0.00000000000E+00  0.74505805969E-08  0.10566000000E+00  0.10566000000E+00 0. -1.
     999900   -1    0    0    0    0 -0.00000000000E+00 -0.00000000000E+00 -0.74505805969E-08  0.93827000000E+00  0.93827000000E+00 0.  1.
     999902    2    1    2    0    0  0.15001488441E-01 -0.82894384426E-02 -0.16001930931E-01  0.10204817327E+01  0.10202123042E+01 0.  0.
     999903    2    3    3    0    0  0.16664219196E-02 -0.12711015404E+00 -0.30181119061E-01  0.13228286094E+00  0.20690266462E-01 0.  0.
         14    1    1    2    0    0 -0.15001488441E-01  0.82894384426E-02  0.16001930931E-01  0.23448267285E-01  0.00000000000E+00 0. -1.
     999901    1    3    3    0    0  0.13335066521E-01  0.11882071560E+00  0.14179188130E-01  0.88819887178E+00  0.88000000000E+00 0.  1.
        -11    1    4    4    0    0  0.54017985901E-02 -0.45823484114E-01 -0.20698583172E-02  0.46190004967E-01  0.51100000000E-03 0. -1.
         11    1    4    4    0    0 -0.37353766705E-02 -0.81286669930E-01 -0.28111260744E-01  0.86092855968E-01  0.51100000000E-03 0.  1.
</event>
<event>
 8    1  0.1109553E+005  0.1043930E+01  0.7957747E-01            NaN
         13   -1    0    0    0    0  0.00000000000E+00  0.00000000000E+00  0.74505805969E-08  0.10566000000E+00  0.10566000000E+00 0.  1.
     999900   -1    0    0    0    0 -0.00000000000E+00 -0.00000000000E+00 -0.74505805969E-08  0.93827000000E+00  0.93827000000E+00 0. -1.
     999902    2    1    2    0    0  0.14508096238E-01  0.18784514382E-01  0.64495624813E-02  0.10193344782E+01  0.10190377023E+01 0.  0.
     999903    2    3    3    0    0  0.83488887445E-01 -0.89050931413E-01 -0.36645737781E-01  0.12902889142E+00  0.20126649277E-01 0.  0.
         14    1    1    2    0    0 -0.14508096238E-01 -0.18784514382E-01 -0.64495624813E-02  0.24595521812E-01  0.00000000000E+00 0. -1.
     999901    1    3    3    0    0 -0.68980791208E-01  0.10783544580E+00  0.43095300262E-01  0.89030558677E+00  0.88000000000E+00 0. -1.
        -11    1    4    4    0    0  0.40791294112E-01 -0.57669287994E-01 -0.23288556311E-01  0.74379395192E-01  0.51100000000E-03 0. -1.
         11    1    4    4    0    0  0.42697593333E-01 -0.31381643419E-01 -0.13357181470E-01  0.54649496228E-01  0.51100000000E-03 0.  1.
</event>
<event>
 8    1  0.1109553E+005  0.1043930E+01  0.7957747E-01            NaN
         13   -1    0    0    0    0  0.00000000000E+00  0.00000000000E+00  0.74505805969E-08  0.10566000000E+00  0.10566000000E+00 0. -1.
     999900   -1    0    0    0    0 -0.00000000000E+00 -0.00000000000E+00 -0.74505805969E-08  0.93827000000E+00  0.93827000000E+00 0.  1.
     999902    2    1    2    0    0  0.21719472248E-01 -0.42023702164E-02 -0.89154631078E-02  0.10200787763E+01  0.10197998965E+01 0.  0.
     999903    2    3    3    0    0 -0.37450422059E-01 -0.12195645161E+00  0.14441906694E-01  0.12995930857E+00  0.20123195947E-01 0.  0.
         14    1    1    2    0    0 -0.21719472248E-01  0.42023702164E-02  0.89154631078E-02  0.23851223713E-01  0.00000000000E+00 0. -1.
     999901    1    3    3    0    0  0.59169894308E-01  0.11775408139E+00 -0.23357369802E-01  0.89011946771E+00  0.88000000000E+00 0.  1.
        -11    1    4    4    0    0 -0.12906089172E-01 -0.55732926152E-01  0.15683852129E-01  0.59320911437E-01  0.51100000000E-03 0.  1.
         11    1    4    4    0    0 -0.24544332887E-01 -0.66223525456E-01 -0.12419454351E-02  0.70638397137E-01  0.51100000000E-03 0. -1.
</event>
<event>
 8    1  0.1109553E+005  0.1043930E+01  0.7957747E-01            NaN
         13   -1    0    0    0    0  0.00000000000E+00  0.00000000000E+00  0.74505805969E-08  0.10566000000E+00  0.10566000000E+00 0.  1.
     999900   -1    0    0    0    0 -0.00000000000E+00 -0.00000000000E+00 -0.74505805969E-08  0.93827000000E+00  0.93827000000E+00 0. -1.
     999902    2    1    2    0    0  0.21065371175E-01  0.10566512257E-02 -0.11289327718E-01  0.10200068879E+01  0.10197263044E+01 0.  0.
     999903    2    3    3    0    0  0.48556612358E-01 -0.84520803981E-01  0.84170139827E-01  0.13029245101E+00  0.19748403543E-01 0.  0.
         14    1    1    2    0    0 -0.21065371175E-01 -0.10566512257E-02  0.11289327718E-01  0.23923112148E-01  0.00000000000E+00 0.  1.
     999901    1    3    3    0    0 -0.27491241183E-01  0.85577455206E-01 -0.95459467544E-01  0.88971443684E+00  0.88000000000E+00 0. -1.
        -11    1    4    4    0    0  0.42357873906E-01 -0.60300837189E-01  0.55533177143E-01  0.92274456553E-01  0.51100000000E-03 0.  1.
         11    1    4    4    0    0  0.61987384520E-02 -0.24219966792E-01  0.28636962684E-01  0.38017994457E-01  0.51100000000E-03 0. -1.
</event>
<event>
 8    1  0.1109553E+005  0.1043930E+01  0.7957747E-01            NaN
         13   -1    0    0    0    0  0.00000000000E+00  0.00000000000E+00  0.74505805969E-08  0.10566000000E+00  0.10566000000E+00 0.  1.
     999900   -1    0    0    0    0 -0.00000000000E+00 -0.00000000000E+00 -0.74505805969E-08  0.93827000000E+00  0.93827000000E+00 0. -1.
     999902    2    1    2    0    0 -0.11785364564E-02  0.15823764258E-01  0.17262833645E-01  0.10204824865E+01  0.10202130755E+01 0.  0.
     999903    2    3    3    0    0  0.11327634785E+00  0.60846923645E-01 -0.16297777596E-01  0.13129559949E+00  0.20953228664E-01 0.  0.
         14    1    1    2    0    0  0.11785364564E-02 -0.15823764258E-01 -0.17262833645E-01  0.23447513491E-01  0.00000000000E+00 0. -1.
     999901    1    3    3    0    0 -0.11445488431E+00 -0.45023159387E-01  0.33560611241E-01  0.88918688702E+00  0.88000000000E+00 0.  1.
        -11    1    4    4    0    0  0.85133033936E-01  0.52357420573E-01 -0.19126168045E-01  0.10175954197E+00  0.51100000000E-03 0.  1.
         11    1    4    4    0    0  0.28143313912E-01  0.84895030720E-02  0.28283904485E-02  0.29536057522E-01  0.51100000000E-03 0. -1.
</event>
<event>
 8    1  0.1109553E+005  0.1043930E+01  0.7957747E-01            NaN
         13   -1    0    0    0    0  0.00000000000E+00  0.00000000000E+00  0.74505805969E-08  0.10566000000E+00  0.10566000000E+00 0.  1.
     999900   -1    0    0    0    0 -0.00000000000E+00 -0.00000000000E+00 -0.74505805969E-08  0.93827000000E+00  0.93827000000E+00 0. -1.
     999902    2    1    2    0    0 -0.19410189515E-01 -0.81506764662E-02  0.10567872789E-01  0.10203743442E+01  0.10201024132E+01 0.  0.
     999903    2    3    3    0    0 -0.25815766644E-01  0.12597522278E+00 -0.14246543695E-02  0.13010774989E+00  0.19743008393E-01 0.  0.
         14    1    1    2    0    0  0.19410189515E-01  0.81506764662E-02 -0.10567872789E-01  0.23555655778E-01  0.00000000000E+00 0. -1.
     999901    1    3    3    0    0  0.64055771286E-02 -0.13412589925E+00  0.11992527159E-01  0.89026659433E+00  0.88000000000E+00 0.  1.
        -11    1    4    4    0    0 -0.85193840153E-02  0.43645626520E-01  0.88814195562E-02  0.45350428363E-01  0.51100000000E-03 0. -1.
         11    1    4    4    0    0 -0.17296382628E-01  0.82329596260E-01 -0.10306073926E-01  0.84757321532E-01  0.51100000000E-03 0.  1.
</event>
<event>
 8    1  0.1109553E+005  0.1043930E+01  0.7957747E-01            NaN
         13   -1    0    0    0    0  0.00000000000E+00  0.00000000000E+00  0.74505805969E-08  0.10566000000E+00  0.10566000000E+00 0.  1.
     999900   -1    0    0    0    0 -0.00000000000E+00 -0.00000000000E+00 -0.74505805969E-08  0.93827000000E+00  0.93827000000E+00 0. -1.
     999902    2    1    2    0    0 -0.19412472823E-01 -0.78432351778E-03 -0.14932302501E-01  0.10194262672E+01  0.10191317291E+01 0.  0.
     999903    2    3    3    0    0  0.46008951061E-01  0.72400470366E-01 -0.95891931053E-01  0.13027474003E+00  0.20435111032E-01 0.  0.
         14    1    1    2    0    0  0.19412472823E-01  0.78432351778E-03  0.14932302501E-01  0.24503732827E-01  0.00000000000E+00 0. -1.
     999901    1    3    3    0    0 -0.65421423883E-01 -0.73184793884E-01  0.80959628551E-01  0.88915152714E+00  0.88000000000E+00 0.  1.
        -11    1    4    4    0    0  0.33675900624E-01  0.44947855883E-01 -0.74714165174E-01  0.93471084459E-01  0.51100000000E-03 0. -1.
         11    1    4    4    0    0  0.12333050436E-01  0.27452614483E-01 -0.21177765878E-01  0.36803655574E-01  0.51100000000E-03 0.  1.
</event>
<event>
 8    1  0.1109553E+005  0.1043930E+01  0.7957747E-01            NaN
         13   -1    0    0    0    0  0.00000000000E+00  0.00000000000E+00  0.74505805969E-08  0.10566000000E+00  0.10566000000E+00 0.  1.
     999900   -1    0    0    0    0 -0.00000000000E+00 -0.00000000000E+00 -0.74505805969E-08  0.93827000000E+00  0.93827000000E+00 0.  1.
     999902    2    1    2    0    0  0.10964351295E-01 -0.20075045803E-02 -0.20996524409E-01  0.10201581446E+01  0.10198811395E+01 0.  0.
     999903    2    3    3    0    0 -0.40124113318E-01  0.10042011194E+00 -0.71733324496E-01  0.13129613574E+00  0.19971531317E-01 0.  0.
         14    1    1    2    0    0 -0.10964351295E-01  0.20075045803E-02  0.20996524409E-01  0.23771855443E-01  0.00000000000E+00 0.  1.
     999901    1    3    3    0    0  0.51088464613E-01 -0.10242761653E+00  0.50736800087E-01  0.88886200882E+00  0.88000000000E+00 0. -1.
        -11    1    4    4    0    0 -0.24122918292E-01  0.66517614017E-01 -0.35532174854E-01  0.79178941218E-01  0.51100000000E-03 0.  1.
         11    1    4    4    0    0 -0.16001195026E-01  0.33902497928E-01 -0.36201149642E-01  0.52117194518E-01  0.51100000000E-03 0. -1.
</event>
<event>
 8    1  0.1109553E+005  0.1043930E+01  0.7957747E-01            NaN
         13   -1    0    0    0    0  0.00000000000E+00  0.00000000000E+00  0.74505805969E-08  0.10566000000E+00  0.10566000000E+00 0.  1.
     999900   -1    0    0    0    0 -0.00000000000E+00 -0.00000000000E+00 -0.74505805969E-08  0.93827000000E+00  0.93827000000E+00 0.  1.
     999902    2    1    2    0    0  0.64301861924E-02 -0.15534154047E-01  0.16182126983E-01  0.10205950805E+01  0.10203282804E+01 0.  0.
     999903    2    3    3    0    0  0.57028701590E-01 -0.37566901470E-01 -0.10885866865E+00  0.13004421032E+00  0.19943470301E-01 0.  0.
         14    1    1    2    0    0 -0.64301861924E-02  0.15534154047E-01 -0.16182126983E-01  0.23334919544E-01  0.00000000000E+00 0. -1.
     999901    1    3    3    0    0 -0.50598515397E-01  0.22032747423E-01  0.12504079563E+00  0.89055087013E+00  0.88000000000E+00 0. -1.
        -11    1    4    4    0    0  0.20106664945E-01 -0.25863209290E-02 -0.31087996132E-01  0.37117268968E-01  0.51100000000E-03 0. -1.
         11    1    4    4    0    0  0.36922036645E-01 -0.34980580541E-01 -0.77770672518E-01  0.92926941356E-01  0.51100000000E-03 0.  1.
</event>
<event>
 8    1  0.1109553E+005  0.1043930E+01  0.7957747E-01            NaN
         13   -1    0    0    0    0  0.00000000000E+00  0.00000000000E+00  0.74505805969E-08  0.10566000000E+00  0.10566000000E+00 0. -1.
     999900   -1    0    0    0    0 -0.00000000000E+00 -0.00000000000E+00 -0.74505805969E-08  0.93827000000E+00  0.93827000000E+00 0.  1.
     999902    2    1    2    0    0  0.13498982029E-01 -0.60145967560E-02 -0.18273242306E-01  0.10204287389E+01  0.10201580769E+01 0.  0.
     999903    2    3    3    0    0 -0.23257179611E-01  0.85270704838E-01  0.90797646335E-01  0.12825135716E+00  0.19804255238E-01 0.  0.
         14    1    1    2    0    0 -0.13498982029E-01  0.60145967560E-02  0.18273242306E-01  0.23501261122E-01  0.00000000000E+00 0. -1.
     999901    1    3    3    0    0  0.36756161640E-01 -0.91285301594E-01 -0.10907088864E+00  0.89217738172E+00  0.88000000000E+00 0.  1.
        -11    1    4    4    0    0 -0.20818125510E-01  0.50966236271E-01  0.65438910895E-01  0.85518791909E-01  0.51100000000E-03 0. -1.
         11    1    4    4    0    0 -0.24390541016E-02  0.34304468567E-01  0.25358735440E-01  0.42732565248E-01  0.51100000000E-03 0.  1.
</event>
<event>
 8    1  0.1109553E+005  0.1043930E+01  0.7957747E-01            NaN
         13   -1    0    0    0    0  0.00000000000E+00  0.00000000000E+00  0.74505805969E-08  0.10566000000E+00  0.10566000000E+00 0.  1.
     999900   -1    0    0    0    0 -0.00000000000E+00 -0.00000000000E+00 -0.74505805969E-08  0.93827000000E+00  0.93827000000E+00 0. -1.
     999902    2    1    2    0    0  0.96679265968E-02 -0.16098054426E-01 -0.13462917687E-01  0.10208244528E+01  0.10205629314E+01 0.  0.
     999903    2    3    3    0    0 -0.80688944070E-01 -0.53833739683E-01  0.84151816718E-01  0.13002875093E+00  0.20424754273E-01 0.  0.
         14    1    1    2    0    0 -0.96679265968E-02  0.16098054426E-01  0.13462917687E-01  0.23105547248E-01  0.00000000000E+00 0.  1.
     999901    1    3    3    0    0  0.90356870667E-01  0.37735685256E-01 -0.97614734405E-01  0.89079570183E+00  0.88000000000E+00 0. -1.
        -11    1    4    4    0    0 -0.75245007246E-01 -0.47020623912E-01  0.68465105907E-01  0.11207355636E+00  0.51100000000E-03 0. -1.
         11    1    4    4    0    0 -0.54439368245E-02 -0.68131157705E-02  0.15686710811E-01  0.17955194561E-01  0.51100000000E-03 0.  1.
</event>
<event>
 8    1  0.1109553E+005  0.1043930E+01  0.7957747E-01            NaN
         13   -1    0    0    0    0  0.00000000000E+00  0.00000000000E+00  0.74505805969E-08  0.10566000000E+00  0.10566000000E+00 0. -1.
     999900   -1    0    0    0    0 -0.00000000000E+00 -0.00000000000E+00 -0.74505805969E-08  0.93827000000E+00  0.93827000000E+00 0.  1.
     999902    2    1    2    0    0 -0.21326594218E-01  0.88844448771E-02 -0.43167626497E-02  0.10204269912E+01  0.10201562885E+01 0.  0.
     999903    2    3    3    0    0 -0.12044177696E+00  0.54410181013E-01 -0.85029557386E-03  0.13368665240E+00  0.20117370444E-01 0.  0.
         14    1    1    2    0    0  0.21326594218E-01 -0.88844448771E-02  0.43167626497E-02  0.23503008775E-01  0.00000000000E+00 0.  1.
     999901    1    3    3    0    0  0.99115182740E-01 -0.45525736136E-01 -0.34664670758E-02  0.88674033882E+00  0.88000000000E+00 0. -1.
        -11    1    4    4    0    0 -0.30590181169E-01  0.89833351509E-02  0.71765463976E-02  0.32683687577E-01  0.51100000000E-03 0.  1.
         11    1    4    4    0    0 -0.89851595788E-01  0.45426845862E-01 -0.80268419715E-02  0.10100296483E+00  0.51100000000E-03 0. -1.
</event>
<event>
 8    1  0.1109553E+005  0.1043930E+01  0.7957747E-01            NaN
         13   -1    0    0    0    0  0.00000000000E+00  0.00000000000E+00  0.74505805969E-08  0.10566000000E+00  0.10566000000E+00 0. -1.
     999900   -1    0    0    0    0 -0.00000000000E+00 -0.00000000000E+00 -0.74505805969E-08  0.93827000000E+00  0.93827000000E+00 0.  1.
     999902    2    1    2    0    0  0.12504418718E-01 -0.61320682494E-02 -0.82651120598E-02  0.10277350988E+01  0.10276074924E+01 0.  0.
     999903    2    3    3    0    0 -0.40719604905E-01  0.12811488872E+00  0.17358337721E-02  0.13590828763E+00  0.19913276765E-01 0.  0.
         14    1    1    2    0    0 -0.12504418718E-01  0.61320682494E-02  0.82651120598E-02  0.16194901230E-01  0.00000000000E+00 0.  1.
     999901    1    3    3    0    0  0.53224023623E-01 -0.13424695697E+00 -0.10000945832E-01  0.89182681114E+00  0.88000000000E+00 0. -1.
        -11    1    4    4    0    0 -0.38121760516E-01  0.11437231810E+00 -0.43712216029E-02  0.12063856959E+00  0.51100000000E-03 0. -1.
         11    1    4    4    0    0 -0.25978443889E-02  0.13742570624E-01  0.61070553750E-02  0.15269718045E-01  0.51100000000E-03 0.  1.
</event>
<event>
 8    1  0.1109553E+005  0.1043930E+01  0.7957747E-01            NaN
         13   -1    0    0    0    0  0.00000000000E+00  0.00000000000E+00  0.74505805969E-08  0.10566000000E+00  0.10566000000E+00 0.  1.
     999900   -1    0    0    0    0 -0.00000000000E+00 -0.00000000000E+00 -0.74505805969E-08  0.93827000000E+00  0.93827000000E+00 0.  1.
     999902    2    1    2    0    0  0.20980790738E-01  0.95137408953E-02  0.74511274498E-02  0.10197179339E+01  0.10194304491E+01 0.  0.
     999903    2    3    3    0    0 -0.36704453749E-01 -0.43296566769E-01  0.11489642830E+00  0.12973983937E+00  0.20234304161E-01 0.  0.
         14    1    1    2    0    0 -0.20980790738E-01 -0.95137408953E-02 -0.74511274498E-02  0.24212066126E-01  0.00000000000E+00 0.  1.
     999901    1    3    3    0    0  0.57685244487E-01  0.52810307664E-01 -0.10744530085E+00  0.88997809451E+00  0.88000000000E+00 0.  1.
        -11    1    4    4    0    0 -0.87221969043E-02 -0.25611602299E-01  0.55269872766E-01  0.61539018905E-01  0.51100000000E-03 0. -1.
         11    1    4    4    0    0 -0.27982256845E-01 -0.17684964470E-01  0.59626555530E-01  0.68200820463E-01  0.51100000000E-03 0.  1.
</event>
<event>
 8    1  0.1109553E+005  0.1043930E+01  0.7957747E-01            NaN
         13   -1    0    0    0    0  0.00000000000E+00  0.00000000000E+00  0.74505805969E-08  0.10566000000E+00  0.10566000000E+00 0.  1.
     999900   -1    0    0    0    0 -0.00000000000E+00 -0.00000000000E+00 -0.74505805969E-08  0.93827000000E+00  0.93827000000E+00 0. -1.
     999902    2    1    2    0    0  0.21927643607E-01  0.62824004988E-02 -0.34235364448E-02  0.10208646426E+01  0.10206040407E+01 0.  0.
     999903    2    3    3    0    0 -0.23949120305E-01  0.12482763676E+00 -0.27151323248E-01  0.13141500469E+00  0.19421890793E-01 0.  0.
         14    1    1    2    0    0 -0.21927643607E-01 -0.62824004988E-02  0.34235364448E-02  0.23065357400E-01  0.00000000000E+00 0.  1.
     999901    1    3    3    0    0  0.45876763912E-01 -0.11854523626E+00  0.23727786803E-01  0.88944963791E+00  0.88000000000E+00 0. -1.
        -11    1    4    4    0    0 -0.12521950267E-01  0.27035538404E-01 -0.24166993312E-02  0.29896841504E-01  0.51100000000E-03 0.  1.
         11    1    4    4    0    0 -0.11427170038E-01  0.97792098356E-01 -0.24734623917E-01  0.10151816319E+00  0.51100000000E-03 0. -1.
</event>
<event>
 8    1  0.1109553E+005  0.1043930E+01  0.7957747E-01            NaN
         13   -1    0    0    0    0  0.00000000000E+00  0.00000000000E+00  0.74505805969E-08  0.10566000000E+00  0.10566000000E+00 0.  1.
     999900   -1    0    0    0    0 -0.00000000000E+00 -0.00000000000E+00 -0.74505805969E-08  0.93827000000E+00  0.93827000000E+00 0.  1.
     999902    2    1    2    0    0  0.10340426981E-01 -0.69710363718E-02  0.17528244041E-01  0.10224181633E+01  0.10221918321E+01 0.  0.
     999903    2    3    3    0    0 -0.10537745201E+00 -0.66429831219E-01 -0.36191391534E-01  0.13123256253E+00  0.19870550538E-01 0.  0.
         14    1    1    2    0    0 -0.10340426981E-01  0.69710363718E-02 -0.17528244041E-01  0.21511836681E-01  0.00000000000E+00 0. -1.
     999901    1    3    3    0    0  0.11571787899E+00  0.59458794847E-01  0.53719635575E-01  0.89118560079E+00  0.88000000000E+00 0. -1.
        -11    1    4    4    0    0 -0.18039601460E-01 -0.83964911081E-02 -0.13188326191E-01  0.23877214086E-01  0.51100000000E-03 0. -1.
         11    1    4    4    0    0 -0.87337850554E-01 -0.58033340111E-01 -0.23003065343E-01  0.10735534845E+00  0.51100000000E-03 0.  1.
</event>
<event>
 8    1  0.1109553E+005  0.1043930E+01  0.7957747E-01            NaN
         13   -1    0    0    0    0  0.00000000000E+00  0.00000000000E+00  0.74505805969E-08  0.10566000000E+00  0.10566000000E+00 0. -1.
     999900   -1    0    0    0    0 -0.00000000000E+00 -0.00000000000E+00 -0.74505805969E-08  0.93827000000E+00  0.93827000000E+00 0. -1.
     999902    2    1    2    0    0  0.13768406090E-01  0.19364988371E-01  0.50448617374E-02  0.10196396231E+01  0.10193502531E+01 0.  0.
     999903    2    3    3    0    0  0.10369376729E+00 -0.53409549475E-01 -0.53503145530E-01  0.13013944146E+00  0.21649718061E-01 0.  0.
         14    1    1    2    0    0 -0.13768406090E-01 -0.19364988371E-01 -0.50448617374E-02  0.24290376918E-01  0.00000000000E+00 0. -1.
     999901    1    3    3    0    0 -0.89925361203E-01  0.72774537846E-01  0.58548007268E-01  0.88950018162E+00  0.88000000000E+00 0. -1.
        -11    1    4    4    0    0  0.97849526995E-01 -0.55355225427E-01 -0.50068484138E-01  0.12306845713E+00  0.51100000000E-03 0. -1.
         11    1    4    4    0    0  0.58442402981E-02  0.19456759521E-02 -0.34346613926E-02  0.70709843342E-02  0.51100000000E-03 0.  1.
</event>
<event>
 8    1  0.1109553E+005  0.1043930E+01  0.7957747E-01            NaN
         13   -1    0    0    0    0  0.00000000000E+00  0.00000000000E+00  0.74505805969E-08  0.10566000000E+00  0.10566000000E+00 0. -1.
     999900   -1    0    0    0    0 -0.00000000000E+00 -0.00000000000E+00 -0.74505805969E-08  0.93827000000E+00  0.93827000000E+00 0. -1.
     999902    2    1    2    0    0 -0.18106301895E-01 -0.11077637459E-01  0.11118805856E-01  0.10199679453E+01  0.10196864368E+01 0.  0.
     999903    2    3    3    0    0  0.99709848952E-01  0.68747022245E-01 -0.33746415559E-01  0.12740673747E+00  0.20626418593E-01 0.  0.
         14    1    1    2    0    0  0.18106301895E-01  0.11077637459E-01 -0.11118805856E-01  0.23962054663E-01  0.00000000000E+00 0. -1.
     999901    1    3    3    0    0 -0.11781615085E+00 -0.79824659704E-01  0.44865221415E-01  0.89256120787E+00  0.88000000000E+00 0. -1.
        -11    1    4    4    0    0  0.66275669058E-01  0.34269679144E-01 -0.16849373038E-01  0.76492076129E-01  0.51100000000E-03 0.  1.
         11    1    4    4    0    0  0.33434179894E-01  0.34477343101E-01 -0.16897042521E-01  0.50914661341E-01  0.51100000000E-03 0. -1.
</event>
<event>
 8    1  0.1109553E+005  0.1043930E+01  0.7957747E-01            NaN
         13   -1    0    0    0    0  0.00000000000E+00  0.00000000000E+00  0.74505805969E-08  0.10566000000E+00  0.10566000000E+00 0. -1.
     999900   -1    0    0    0    0 -0.00000000000E+00 -0.00000000000E+00 -0.74505805969E-08  0.93827000000E+00  0.93827000000E+00 0.  1.
     999902    2    1    2    0    0  0.51604047680E-02  0.20415505022E-01 -0.18047339655E-02  0.10227952020E+01  0.10225768164E+01 0.  0.
     999903    2    3    3    0    0 -0.10387117454E+00 -0.58382879696E-01  0.49917095772E-01  0.13107090692E+00  0.22137855567E-01 0.  0.
         14    1    1    2    0    0 -0.51604047680E-02 -0.20415505022E-01  0.18047339655E-02  0.21134798020E-01  0.00000000000E+00 0. -1.
     999901    1    3    3    0    0  0.10903157931E+00  0.78798384718E-01 -0.51721829737E-01  0.89172429506E+00  0.88000000000E+00 0.  1.
        -11    1    4    4    0    0 -0.19415498146E-01 -0.21533905883E-01  0.13546027776E-01  0.32006665874E-01  0.51100000000E-03 0.  1.
         11    1    4    4    0    0 -0.84455676397E-01 -0.36848973812E-01  0.36371067996E-01  0.99064241051E-01  0.51100000000E-03 0. -1.
</event>
<event>
 8    1  0.1109553E+005  0.1043930E+01  0.7957747E-01            NaN
         13   -1    0    0    0    0  0.00000000000E+00  0.00000000000E+00  0.74505805969E-08  0.10566000000E+00  0.10566000000E+00 0.  1.
     999900   -1    0    0    0    0 -0.00000000000E+00 -0.00000000000E+00 -0.74505805969E-08  0.93827000000E+00  0.93827000000E+00 0.  1.
     999902    2    1    2    0    0  0.22707800506E-03  0.17517362758E-01 -0.15285475559E-01  0.10206801543E+01  0.10204153184E+01 0.  0.
     999903    2    3    3    0    0 -0.10458134823E+00  0.62404651350E-01 -0.49659816517E-01  0.13265916906E+00  0.17342400434E-01 0.  0.
         14    1    1    2    0    0 -0.22707800506E-03 -0.17517362758E-01  0.15285475559E-01  0.23249845709E-01  0.00000000000E+00 0.  1.
     999901    1    3    3    0    0  0.10480842623E+00 -0.44887288591E-01  0.34374340959E-01  0.88802098523E+00  0.88000000000E+00 0.  1.
        -11    1    4    4    0    0 -0.55553402772E-01  0.23319538187E-01 -0.26394431577E-01  0.65779241103E-01  0.51100000000E-03 0.  1.
         11    1    4    4    0    0 -0.49027945457E-01  0.39085113163E-01 -0.23265384940E-01  0.66879927961E-01  0.51100000000E-03 0. -1.
</event>
<event>
 8    1  0.1109553E+005  0.1043930E+01  0.7957747E-01            NaN
         13   -1    0    0    0    0  0.00000000000E+00  0.00000000000E+00  0.74505805969E-08  0.10566000000E+00  0.10566000000E+00 0. -1.
     999900   -1    0    0    0    0 -0.00000000000E+00 -0.00000000000E+00 -0.74505805969E-08  0.93827000000E+00  0.93827000000E+00 0. -1.
     999902    2    1    2    0    0  0.13840438737E-01  0.12006621125E-01  0.15107153629E-01  0.10201825204E+01  0.10199060899E+01 0.  0.
     999903    2    3    3    0    0 -0.53287187040E-01 -0.27856035473E-01  0.11453776057E+00  0.13114844058E+00  0.21576187215E-01 0.  0.
         14    1    1    2    0    0 -0.13840438737E-01 -0.12006621125E-01 -0.15107153629E-01  0.23747479573E-01  0.00000000000E+00 0.  1.
     999901    1    3    3    0    0  0.67127625778E-01  0.39862656599E-01 -0.99430606942E-01  0.88903407985E+00  0.88000000000E+00 0. -1.
        -11    1    4    4    0    0 -0.34639003059E-01 -0.17216753903E-01  0.50557404366E-01  0.63659951344E-01  0.51100000000E-03 0.  1.
         11    1    4    4    0    0 -0.18648183981E-01 -0.10639281571E-01  0.63980356205E-01  0.67488489235E-01  0.51100000000E-03 0. -1.
</event>
<event>
 8    1  0.1109553E+005  0.1043930E+01  0.7957747E-01            NaN
         13   -1    0    0    0    0  0.00000000000E+00  0.00000000000E+00  0.74505805969E-08  0.10566000000E+00  0.10566000000E+00 0. -1.
     999900   -1    0    0    0    0 -0.00000000000E+00 -0.00000000000E+00 -0.74505805969E-08  0.93827000000E+00  0.93827000000E+00 0.  1.
     999902    2    1    2    0    0  0.82929221512E-02  0.19629460985E-01  0.98698874220E-02  0.10204458995E+01  0.10201756373E+01 0.  0.
     999903    2    3    3    0    0 -0.93896335789E-01 -0.18789162255E-01 -0.83692196167E-01  0.12877752031E+00  0.20241332578E-01 0.  0.
         14    1    1    2    0    0 -0.82929221512E-02 -0.19629460985E-01 -0.98698874220E-02  0.23484100453E-01  0.00000000000E+00 0. -1.
     999901    1    3    3    0    0  0.10218925794E+00  0.38418623240E-01  0.93562083589E-01  0.89166837924E+00  0.88000000000E+00 0. -1.
        -11    1    4    4    0    0 -0.51492476628E-01 -0.59664331478E-02 -0.32990677927E-01  0.61446882955E-01  0.51100000000E-03 0.  1.
         11    1    4    4    0    0 -0.42403859161E-01 -0.12822729107E-01 -0.50701518240E-01  0.67330637352E-01  0.51100000000E-03 0. -1.
</event>
<event>
 8    1  0.1109553E+005  0.1043930E+01  0.7957747E-01            NaN
         13   -1    0    0    0    0  0.00000000000E+00  0.00000000000E+00  0.74505805969E-08  0.10566000000E+00  0.10566000000E+00 0. -1.
     999900   -1    0    0    0    0 -0.00000000000E+00 -0.00000000000E+00 -0.74505805969E-08  0.93827000000E+00  0.93827000000E+00 0.  1.
     999902    2    1    2    0    0  0.17044015213E-01  0.10719084613E-01  0.12347911845E-01  0.10203107672E+01  0.10200373491E+01 0.  0.
     999903    2    3    3    0    0  0.67299650116E-01 -0.10401727290E+00  0.37418135664E-01  0.13108718641E+00  0.20854198530E-01 0.  0.
         14    1    1    2    0    0 -0.17044015213E-01 -0.10719084613E-01 -0.12347911845E-01  0.23619232766E-01  0.00000000000E+00 0.  1.
     999901    1    3    3    0    0 -0.50255634903E-01  0.11473635751E+00 -0.25070223819E-01  0.88922358083E+00  0.88000000000E+00 0. -1.
        -11    1    4    4    0    0  0.33059828413E-01 -0.59222217055E-01  0.30185926344E-01  0.74240652731E-01  0.51100000000E-03 0.  1.
         11    1    4    4    0    0  0.34239821703E-01 -0.44795055845E-01  0.72322093200E-02  0.56846533677E-01  0.51100000000E-03 0. -1.
</event>
<event>
 8    1  0.1109553E+005  0.1043930E+01  0.7957747E-01            NaN
         13   -1    0    0    0    0  0.00000000000E+00  0.00000000000E+00  0.74505805969E-08  0.10566000000E+00  0.10566000000E+00 0. -1.
     999900   -1    0    0    0    0 -0.00000000000E+00 -0.00000000000E+00 -0.74505805969E-08  0.93827000000E+00  0.93827000000E+00 0. -1.
     999902    2    1    2    0    0 -0.73807562370E-02  0.21716437260E-01  0.41856558201E-02  0.10206147920E+01  0.10203484477E+01 0.  0.
     999903    2    3    3    0    0  0.49381554529E-01  0.70468241082E-01  0.98923397498E-01  0.13237274277E+00  0.18231662780E-01 0.  0.
         14    1    1    2    0    0  0.73807562370E-02 -0.21716437260E-01 -0.41856558201E-02  0.23315208010E-01  0.00000000000E+00 0.  1.
     999901    1    3    3    0    0 -0.56762310766E-01 -0.48751803822E-01 -0.94737741678E-01  0.88824204922E+00  0.88000000000E+00 0. -1.
        -11    1    4    4    0    0  0.17882534535E-01  0.31323907274E-01  0.29087506018E-01  0.46339144745E-01  0.51100000000E-03 0.  1.
         11    1    4    4    0    0  0.31499019994E-01  0.39144333808E-01  0.69835891480E-01  0.86033598028E-01  0.51100000000E-03 0. -1.
</event>
<event>
 8    1  0.1109553E+005  0.1043930E+01  0.7957747E-01            NaN
         13   -1    0    0    0    0  0.00000000000E+00  0.00000000000E+00  0.74505805969E-08  0.10566000000E+00  0.10566000000E+00 0. -1.
     999900   -1    0    0    0    0 -0.00000000000E+00 -0.00000000000E+00 -0.74505805969E-08  0.93827000000E+00  0.93827000000E+00 0. -1.
     999902    2    1    2    0    0  0.73904070267E-02  0.12977648580E-01  0.19019487573E-01  0.10197478085E+01  0.10194610412E+01 0.  0.
     999903    2    3    3    0    0  0.36676787323E-01  0.10920480413E+00 -0.58329711301E-01  0.13064699525E+00  0.19884822694E-01 0.  0.
         14    1    1    2    0    0 -0.73904070267E-02 -0.12977648580E-01 -0.19019487573E-01  0.24182191510E-01  0.00000000000E+00 0.  1.
     999901    1    3    3    0    0 -0.29286380297E-01 -0.96227155552E-01  0.77349198874E-01  0.88910081324E+00  0.88000000000E+00 0.  1.
        -11    1    4    4    0    0  0.65370444111E-02  0.77669543980E-02 -0.10179438706E-01  0.14385430950E-01  0.51100000000E-03 0.  1.
         11    1    4    4    0    0  0.30139742912E-01  0.10143784973E+00 -0.48150272595E-01  0.11626156430E+00  0.51100000000E-03 0. -1.
</event>
<event>
 8    1  0.1109553E+005  0.1043930E+01  0.7957747E-01            NaN
         13   -1    0    0    0    0  0.00000000000E+00  0.00000000000E+00  0.74505805969E-08  0.10566000000E+00  0.10566000000E+00 0.  1.
     999900   -1    0    0    0    0 -0.00000000000E+00 -0.00000000000E+00 -0.74505805969E-08  0.93827000000E+00  0.93827000000E+00 0. -1.
     999902    2    1    2    0    0 -0.53501827261E-02 -0.17109187802E-01 -0.15161289860E-01  0.10204520641E+01  0.10201819454E+01 0.  0.
     999903    2    3    3    0    0  0.36648682553E-01 -0.75038009490E-01 -0.10179952484E+00  0.13330729758E+00  0.20829390974E-01 0.  0.
         14    1    1    2    0    0  0.53501827261E-02  0.17109187802E-01  0.15161289860E-01  0.23477935869E-01  0.00000000000E+00 0.  1.
     999901    1    3    3    0    0 -0.41998865280E-01  0.57928821689E-01  0.86638234978E-01  0.88714476656E+00  0.88000000000E+00 0.  1.
        -11    1    4    4    0    0  0.16684612051E-01 -0.19521073753E-01 -0.42489579899E-01  0.49649512794E-01  0.51100000000E-03 0. -1.
         11    1    4    4    0    0  0.19964070502E-01 -0.55516935737E-01 -0.59309944940E-01  0.83657784781E-01  0.51100000000E-03 0.  1.
</event>
<event>
 8    1  0.1109553E+005  0.1043930E+01  0.7957747E-01            NaN
         13   -1    0    0    0    0  0.00000000000E+00  0.00000000000E+00  0.74505805969E-08  0.10566000000E+00  0.10566000000E+00 0. -1.
     999900   -1    0    0    0    0 -0.00000000000E+00 -0.00000000000E+00 -0.74505805969E-08  0.93827000000E+00  0.93827000000E+00 0. -1.
     999902    2    1    2    0    0 -0.81894928271E-02 -0.19542135361E-01  0.85307783663E-02  0.10210884364E+01  0.10208329236E+01 0.  0.
     999903    2    3    3    0    0 -0.14925037337E-01  0.14037519688E-01  0.12921459220E+00  0.13219162367E+00  0.18931609364E-01 0.  0.
         14    1    1    2    0    0  0.81894928271E-02  0.19542135361E-01 -0.85307783663E-02  0.22841563580E-01  0.00000000000E+00 0.  1.
     999901    1    3    3    0    0  0.67355445095E-02 -0.33579655049E-01 -0.12068381383E+00  0.88889681275E+00  0.88000000000E+00 0. -1.
        -11    1    4    4    0    0 -0.18993760163E-01  0.11916394703E-01  0.92126361822E-01  0.94817145345E-01  0.51100000000E-03 0. -1.
         11    1    4    4    0    0  0.40687228260E-02  0.21211249856E-02  0.37088230378E-01  0.37374478327E-01  0.51100000000E-03 0.  1.
</event>
<event>
 8    1  0.1109553E+005  0.1043930E+01  0.7957747E-01            NaN
         13   -1    0    0    0    0  0.00000000000E+00  0.00000000000E+00  0.74505805969E-08  0.10566000000E+00  0.10566000000E+00 0.  1.
     999900   -1    0    0    0    0 -0.00000000000E+00 -0.00000000000E+00 -0.74505805969E-08  0.93827000000E+00  0.93827000000E+00 0.  1.
     999902    2    1    2    0    0 -0.16107878538E-01  0.13012867564E-01 -0.16912306411E-02  0.10231536015E+01  0.10229426345E+01 0.  0.
     999903    2    3    3    0    0  0.33324433294E-01 -0.16108416127E-01 -0.12528842789E+00  0.13266616769E+00  0.23089455679E-01 0.  0.
         14    1    1    2    0    0  0.16107878538E-01 -0.13012867564E-01  0.16912306411E-02  0.20776398492E-01  0.00000000000E+00 0.  1.
     999901    1    3    3    0    0 -0.49432311832E-01  0.29121283691E-01  0.12359719724E+00  0.89048743382E+00  0.88000000000E+00 0. -1.
        -11    1    4    4    0    0  0.20898425934E-01 -0.18764388944E-02 -0.38559298400E-01  0.43901547166E-01  0.51100000000E-03 0.  1.
         11    1    4    4    0    0  0.12426007360E-01 -0.14231977233E-01 -0.86729129485E-01  0.88764620526E-01  0.51100000000E-03 0. -1.
</event>
<event>
 8    1  0.1109553E+005  0.1043930E+01  0.7957747E-01            NaN
         13   -1    0    0    0    0  0.00000000000E+00  0.00000000000E+00  0.74505805969E-08  0.10566000000E+00  0.10566000000E+00 0. -1.
     999900   -1    0    0    0    0 -0.00000000000E+00 -0.00000000000E+00 -0.74505805969E-08  0.93827000000E+00  0.93827000000E+00 0. -1.
     999902    2    1    2    0    0 -0.14783273776E-01  0.95629257481E-03  0.19390609245E-01  0.10195280450E+01  0.10192359782E+01 0.  0.
     999903    2    3    3    0    0 -0.70849294592E-01 -0.10463618871E+00  0.30229917329E-01  0.13137791055E+00  0.19441011980E-01 0.  0.
         14    1    1    2    0    0  0.14783273776E-01 -0.95629257481E-03 -0.19390609245E-01  0.24401954961E-01  0.00000000000E+00 0.  1.
     999901    1    3    3    0    0  0.56066020815E-01  0.10559248128E+00 -0.10839308084E-01  0.88815013449E+00  0.88000000000E+00 0. -1.
        -11    1    4    4    0    0 -0.53942300440E-01 -0.64513873009E-01  0.16289584392E-01  0.85658760604E-01  0.51100000000E-03 0.  1.
         11    1    4    4    0    0 -0.16906994151E-01 -0.40122315700E-01  0.13940332937E-01  0.45719149946E-01  0.51100000000E-03 0. -1.
</event>
<event>
 8    1  0.1109553E+005  0.1043930E+01  0.7957747E-01            NaN
         13   -1    0    0    0    0  0.00000000000E+00  0.00000000000E+00  0.74505805969E-08  0.10566000000E+00  0.10566000000E+00 0. -1.
     999900   -1    0    0    0    0 -0.00000000000E+00 -0.00000000000E+00 -0.74505805969E-08  0.93827000000E+00  0.93827000000E+00 0.  1.
     999902    2    1    2    0    0 -0.20324153557E-01  0.10898588555E-01  0.29790145225E-02  0.10206765061E+01  0.10204115862E+01 0.  0.
     999903    2    3    3    0    0  0.46654925515E-01  0.92246535586E-01  0.78118429379E-01  0.13121058930E+00  0.20679079580E-01 0.  0.
         14    1    1    2    0    0  0.20324153557E-01 -0.10898588555E-01 -0.29790145225E-02  0.23253493885E-01  0.00000000000E+00 0. -1.
     999901    1    3    3    0    0 -0.66979079072E-01 -0.81347947031E-01 -0.75139414856E-01  0.88946591682E+00  0.88000000000E+00 0.  1.
        -11    1    4    4    0    0  0.23337640399E-01  0.48271817800E-01  0.53244479075E-01  0.75564869655E-01  0.51100000000E-03 0. -1.
         11    1    4    4    0    0  0.23317285116E-01  0.43974717786E-01  0.24873950304E-01  0.55645719640E-01  0.51100000000E-03 0.  1.
</event>
<event>
 8    1  0.1109553E+005  0.1043930E+01  0.7957747E-01            NaN
         13   -1    0    0    0    0  0.00000000000E+00  0.00000000000E+00  0.74505805969E-08  0.10566000000E+00  0.10566000000E+00 0.  1.
     999900   -1    0    0    0    0 -0.00000000000E+00 -0.00000000000E+00 -0.74505805969E-08  0.93827000000E+00  0.93827000000E+00 0. -1.
     999902    2    1    2    0    0 -0.18479018314E-01 -0.15179121532E-01  0.28413452327E-02  0.10198477848E+01  0.10195634119E+01 0.  0.
     999903    2    3    3    0    0 -0.10418261415E+00 -0.55168472518E-01 -0.57583355079E-01  0.13272017334E+00  0.20030581063E-01 0.  0.
         14    1    1    2    0    0  0.18479018314E-01  0.15179121532E-01 -0.28413452327E-02  0.24082215244E-01  0.00000000000E+00 0. -1.
     999901    1    3    3    0    0  0.85703595836E-01  0.39989350987E-01  0.60424700311E-01  0.88712761142E+00  0.88000000000E+00 0. -1.
        -11    1    4    4    0    0 -0.47976631673E-01 -0.21062781647E-01 -0.35792656874E-01  0.63456862233E-01  0.51100000000E-03 0. -1.
         11    1    4    4    0    0 -0.56205982477E-01 -0.34105690871E-01 -0.21790698205E-01  0.69263311105E-01  0.51100000000E-03 0.  1.
</event>
<event>
 8    1  0.1109553E+005  0.1043930E+01  0.7957747E-01            NaN
         13   -1    0    0    0    0  0.00000000000E+00  0.00000000000E+00  0.74505805969E-08  0.10566000000E+00  0.10566000000E+00 0.  1.
     999900   -1    0    0    0    0 -0.00000000000E+00 -0.00000000000E+00 -0.74505805969E-08  0.93827000000E+00  0.93827000000E+00 0.  1.
     999902    2    1    2    0    0 -0.58242848792E-02 -0.11475160959E-01 -0.19373949048E-01  0.10206716356E+01  0.10204066034E+01 0.  0.
     999903    2    3    3    0    0  0.74353907093E-01 -0.32543584607E-01 -0.10311480242E+00  0.13281750823E+00  0.20499746731E-01 0.  0.
         14    1    1    2    0    0  0.58242848792E-02  0.11475160959E-01  0.19373949048E-01  0.23258364411E-01  0.00000000000E+00 0.  1.
     999901    1    3    3    0    0 -0.80178191973E-01  0.21068423647E-01  0.83740853370E-01  0.88785412736E+00  0.88000000000E+00 0. -1.
        -11    1    4    4    0    0  0.21427964416E-01 -0.19788490656E-01 -0.32961312772E-01  0.44016488753E-01  0.51100000000E-03 0. -1.
         11    1    4    4    0    0  0.52925942677E-01 -0.12755093950E-01 -0.70153489645E-01  0.88801019478E-01  0.51100000000E-03 0.  1.
</event>
<event>
 8    1  0.1109553E+005  0.1043930E+01  0.7957747E-01            NaN
         13   -1    0    0    0    0  0.00000000000E+00  0.00000000000E+00  0.74505805969E-08  0.10566000000E+00  0.10566000000E+00 0.  1.
     999900   -1    0    0    0    0 -0.00000000000E+00 -0.00000000000E+00 -0.74505805969E-08  0.93827000000E+00  0.93827000000E+00 0.  1.
     999902    2    1    2    0    0 -0.15586955609E-01  0.17748383116E-01 -0.21534078306E-02  0.10202109053E+01  0.10199351430E+01 0.  0.
     999903    2    3    3    0    0  0.47970197875E-01 -0.48192395407E-01  0.10737020010E+00  0.12870480956E+00  0.20320464451E-01 0.  0.
         14    1    1    2    0    0  0.15586955609E-01 -0.17748383116E-01  0.21534078306E-02  0.23719094706E-01  0.00000000000E+00 0.  1.
     999901    1    3    3    0    0 -0.63557153485E-01  0.65940778523E-01 -0.10952360793E+00  0.89150609573E+00  0.88000000000E+00 0.  1.
        -11    1    4    4    0    0  0.35288032185E-01 -0.23593985086E-01  0.74364641332E-01  0.85628747212E-01  0.51100000000E-03 0.  1.
         11    1    4    4    0    0  0.12682165690E-01 -0.24598410322E-01  0.33005558769E-01  0.43076062350E-01  0.51100000000E-03 0. -1.
</event>
<event>
 8    1  0.1109553E+005  0.1043930E+01  0.7957747E-01            NaN
         13   -1    0    0    0    0  0.00000000000E+00  0.00000000000E+00  0.74505805969E-08  0.10566000000E+00  0.10566000000E+00 0. -1.
     999900   -1    0    0    0    0 -0.00000000000E+00 -0.00000000000E+00 -0.74505805969E-08  0.93827000000E+00  0.93827000000E+00 0. -1.
     999902    2    1    2    0    0 -0.60703464842E-02  0.83072584454E-02  0.22117252093E-01  0.10195367122E+01  0.10192448553E+01 0.  0.
     999903    2    3    3    0    0 -0.80790409917E-02 -0.11391659739E+00  0.59449787006E-01  0.13030309613E+00  0.20058853947E-01 0.  0.
         14    1    1    2    0    0  0.60703464842E-02 -0.83072584454E-02 -0.22117252093E-01  0.24393287795E-01  0.00000000000E+00 0.  1.
     999901    1    3    3    0    0  0.20086945075E-02  0.12222385584E+00 -0.37332534913E-01  0.88923361607E+00  0.88000000000E+00 0. -1.
        -11    1    4    4    0    0 -0.40687418957E-02 -0.93651163047E-01  0.39977981004E-01  0.10190973990E+00  0.51100000000E-03 0.  1.
         11    1    4    4    0    0 -0.40102990961E-02 -0.20265434346E-01  0.19471806002E-01  0.28393356231E-01  0.51100000000E-03 0. -1.
</event>
<event>
 8    1  0.1109553E+005  0.1043930E+01  0.7957747E-01            NaN
         13   -1    0    0    0    0  0.00000000000E+00  0.00000000000E+00  0.74505805969E-08  0.10566000000E+00  0.10566000000E+00 0. -1.
     999900   -1    0    0    0    0 -0.00000000000E+00 -0.00000000000E+00 -0.74505805969E-08  0.93827000000E+00  0.93827000000E+00 0. -1.
     999902    2    1    2    0    0 -0.13078312192E-01  0.11746885656E-01 -0.16312806391E-01  0.10199479395E+01  0.10196659552E+01 0.  0.
     999903    2    3    3    0    0 -0.10754701434E+00  0.10373412911E-01  0.70883914776E-01  0.13060577236E+00  0.18957067571E-01 0.  0.
         14    1    1    2    0    0  0.13078312192E-01 -0.11746885656E-01  0.16312806391E-01  0.23982060478E-01  0.00000000000E+00 0.  1.
     999901    1    3    3    0    0  0.94468702147E-01  0.13734727453E-02 -0.87196721167E-01  0.88934216716E+00  0.88000000000E+00 0. -1.
        -11    1    4    4    0    0 -0.39294221378E-01  0.72612553060E-02  0.36471115176E-01  0.54103281097E-01  0.51100000000E-03 0. -1.
         11    1    4    4    0    0 -0.68252792961E-01  0.31121576050E-02  0.34412799600E-01  0.76502491261E-01  0.51100000000E-03 0.  1.
</event>
<event>
 8    1  0.1109553E+005  0.1043930E+01  0.7957747E-01            NaN
         13   -1    0    0    0    0  0.00000000000E+00  0.00000000000E+00  0.74505805969E-08  0.10566000000E+00  0.10566000000E+00 0.  1.
     999900   -1    0    0    0    0 -0.00000000000E+00 -0.00000000000E+00 -0.74505805969E-08  0.93827000000E+00  0.93827000000E+00 0. -1.
     999902    2    1    2    0    0  0.30762361976E-02  0.16813692895E-01 -0.15738186661E-01  0.10206952412E+01  0.10204307528E+01 0.  0.
     999903    2    3    3    0    0 -0.16962245925E-01 -0.86534838580E-01  0.90593970679E-01  0.12806486560E+00  0.20429052928E-01 0.  0.
         14    1    1    2    0    0 -0.30762361976E-02 -0.16813692895E-01  0.15738186661E-01  0.23234758817E-01  0.00000000000E+00 0.  1.
     999901    1    3    3    0    0  0.20038482123E-01  0.10334853148E+00 -0.10633215734E+00  0.89263037558E+00  0.88000000000E+00 0. -1.
        -11    1    4    4    0    0 -0.19307370803E-01 -0.46910011696E-01  0.53632303995E-01  0.73824175698E-01  0.51100000000E-03 0.  1.
         11    1    4    4    0    0  0.23451248780E-02 -0.39624826885E-01  0.36961666684E-01  0.54240689905E-01  0.51100000000E-03 0. -1.
</event>
<event>
 8    1  0.1109553E+005  0.1043930E+01  0.7957747E-01            NaN
         13   -1    0    0    0    0  0.00000000000E+00  0.00000000000E+00  0.74505805969E-08  0.10566000000E+00  0.10566000000E+00 0. -1.
     999900   -1    0    0    0    0 -0.00000000000E+00 -0.00000000000E+00 -0.74505805969E-08  0.93827000000E+00  0.93827000000E+00 0. -1.
     999902    2    1    2    0    0 -0.11450728867E-01  0.18807888035E-01  0.94160421517E-02  0.10199817706E+01  0.10197005906E+01 0.  0.
     999903    2    3    3    0    0 -0.33424753114E-01 -0.40715812087E-01  0.11825023937E+00  0.13100999873E+00  0.20137258511E-01 0.  0.
         14    1    1    2    0    0  0.11450728867E-01 -0.18807888035E-01 -0.94160421517E-02  0.23948229449E-01  0.00000000000E+00 0.  1.
     999901    1    3    3    0    0  0.21974024247E-01  0.59523700122E-01 -0.10883419722E+00  0.88897177183E+00  0.88000000000E+00 0. -1.
        -11    1    4    4    0    0 -0.35740373002E-01 -0.39871308507E-01  0.10929428870E+00  0.12170701775E+00  0.51100000000E-03 0. -1.
         11    1    4    4    0    0  0.23156198882E-02 -0.84450357983E-03  0.89559506672E-02  0.93029809801E-02  0.51100000000E-03 0.  1.
</event>
<event>
 8    1  0.1109553E+005  0.1043930E+01  0.7957747E-01            NaN
         13   -1    0    0    0    0  0.00000000000E+00  0.00000000000E+00  0.74505805969E-08  0.10566000000E+00  0.10566000000E+00 0. -1.
     999900   -1    0    0    0    0 -0.00000000000E+00 -0.00000000000E+00 -0.74505805969E-08  0.93827000000E+00  0.93827000000E+00 0. -1.
     999902    2    1    2    0    0 -0.28697654774E-02  0.12315761045E-01 -0.13199006649E-01  0.10256508507E+01  0.10254879522E+01 0.  0.
     999903    2    3    3    0    0 -0.10630081746E+00  0.32432047654E-02 -0.83619858734E-01  0.13675299928E+00  0.19967971025E-01 0.  0.
         14    1    1    2    0    0  0.28697654774E-02 -0.12315761045E-01  0.13199006649E-01  0.18279149338E-01  0.00000000000E+00 0.  1.
     999901    1    3    3    0    0  0.10343105198E+00  0.90725562797E-02  0.70420852085E-01  0.88889785139E+00  0.88000000000E+00 0.  1.
        -11    1    4    4    0    0 -0.29613818066E-01 -0.12903819668E-02 -0.12884910205E-01  0.32325304919E-01  0.51100000000E-03 0. -1.
         11    1    4    4    0    0 -0.76686999391E-01  0.45335867321E-02 -0.70734948529E-01  0.10442769436E+00  0.51100000000E-03 0.  1.
</event>
<event>
 8    1  0.1109553E+005  0.1043930E+01  0.7957747E-01            NaN
         13   -1    0    0    0    0  0.00000000000E+00  0.00000000000E+00  0.74505805969E-08  0.10566000000E+00  0.10566000000E+00 0.  1.
     999900   -1    0    0    0    0 -0.00000000000E+00 -0.00000000000E+00 -0.74505805969E-08  0.93827000000E+00  0.93827000000E+00 0.  1.
     999902    2    1    2    0    0  0.23549051516E-02  0.22144994511E-01 -0.68705527987E-02  0.10206244029E+01  0.10203582807E+01 0.  0.
     999903    2    3    3    0    0  0.37124596043E-01 -0.12014128371E+00 -0.15680358423E-01  0.12847423110E+00  0.21156340305E-01 0.  0.
         14    1    1    2    0    0 -0.23549051516E-02 -0.22144994511E-01  0.68705527987E-02  0.23305597094E-01  0.00000000000E+00 0. -1.
     999901    1    3    3    0    0 -0.34769690892E-01  0.14228627822E+00  0.88098056244E-02  0.89215017180E+00  0.88000000000E+00 0.  1.
        -11    1    4    4    0    0  0.22193495701E-02 -0.15662119707E-01  0.45658277573E-02  0.16472261846E-01  0.51100000000E-03 0. -1.
         11    1    4    4    0    0  0.34905246473E-01 -0.10447916400E+00 -0.20246186180E-01  0.11200196926E+00  0.51100000000E-03 0.  1.
</event>
<event>
 8    1  0.1109553E+005  0.1043930E+01  0.7957747E-01            NaN
         13   -1    0    0    0    0  0.00000000000E+00  0.00000000000E+00  0.74505805969E-08  0.10566000000E+00  0.10566000000E+00 0. -1.
     999900   -1    0    0    0    0 -0.00000000000E+00 -0.00000000000E+00 -0.74505805969E-08  0.93827000000E+00  0.93827000000E+00 0.  1.
     999902    2    1    2    0    0  0.10800941854E-01  0.20074992329E-01  0.51502786750E-02  0.10205592698E+01  0.10202916407E+01 0.  0.
     999903    2    3    3    0    0  0.11574793424E+00  0.19131119599E-01  0.58929429504E-01  0.13269274872E+00  0.19264056754E-01 0.  0.
         14    1    1    2    0    0 -0.10800941854E-01 -0.20074992329E-01 -0.51502786750E-02  0.23370730249E-01  0.00000000000E+00 0.  1.
     999901    1    3    3    0    0 -0.10494699239E+00  0.94387273039E-03 -0.53779150829E-01  0.88786652103E+00  0.88000000000E+00 0.  1.
        -11    1    4    4    0    0  0.81641890718E-01  0.10642702245E-01  0.50354721800E-01  0.96511784563E-01  0.51100000000E-03 0.  1.
         11    1    4    4    0    0  0.34106043523E-01  0.84884173532E-02  0.85747077038E-02  0.36180964155E-01  0.51100000000E-03 0. -1.
</event>
<event>
 8    1  0.1109553E+005  0.1043930E+01  0.7957747E-01            NaN
         13   -1    0    0    0    0  0.00000000000E+00  0.00000000000E+00  0.74505805969E-08  0.10566000000E+00  0.10566000000E+00 0.  1.
     999900   -1    0    0    0    0 -0.00000000000E+00 -0.00000000000E+00 -0.74505805969E-08  0.93827000000E+00  0.93827000000E+00 0. -1.
     999902    2    1    2    0    0 -0.84756625057E-02  0.58506616589E-02  0.21302639259E-01  0.10202684376E+01  0.10199940270E+01 0.  0.
     999903    2    3    3    0    0 -0.11152373345E+00 -0.22030453093E-01 -0.60039117557E-01  0.13009275667E+00  0.19913455616E-01 0.  0.
         14    1    1    2    0    0  0.84756625057E-02 -0.58506616589E-02 -0.21302639259E-01  0.23661562420E-01  0.00000000000E+00 0. -1.
     999901    1    3    3    0    0  0.10304807094E+00  0.27881114752E-01  0.81341756816E-01  0.89017568091E+00  0.88000000000E+00 0.  1.
        -11    1    4    4    0    0 -0.17916919036E-01 -0.36821365659E-02 -0.19359953170E-02  0.18400633585E-01  0.51100000000E-03 0. -1.
         11    1    4    4    0    0 -0.93606814413E-01 -0.18348316527E-01 -0.58103122240E-01  0.11169212308E+00  0.51100000000E-03 0.  1.
</event>
<event>
 8    1  0.1109553E+005  0.1043930E+01  0.7957747E-01            NaN
         13   -1    0    0    0    0  0.00000000000E+00  0.00000000000E+00  0.74505805969E-08  0.10566000000E+00  0.10566000000E+00 0. -1.
     999900   -1    0    0    0    0 -0.00000000000E+00 -0.00000000000E+00 -0.74505805969E-08  0.93827000000E+00  0.93827000000E+00 0. -1.
     999902    2    1    2    0    0  0.15514651530E-01  0.12001286513E-01 -0.12699020399E-01  0.10205633484E+01  0.10202958138E+01 0.  0.
     999903    2    3    3    0    0  0.10436546197E+00  0.78357954964E-01  0.18841489327E-01  0.13304293861E+00  0.17700368223E-01 0.  0.
         14    1    1    2    0    0 -0.15514651530E-01 -0.12001286513E-01  0.12699020399E-01  0.23366651647E-01  0.00000000000E+00 0. -1.
     999901    1    3    3    0    0 -0.88850810437E-01 -0.66356668451E-01 -0.31540509726E-01  0.88752040975E+00  0.88000000000E+00 0. -1.
        -11    1    4    4    0    0  0.53304781746E-01  0.43130869772E-01  0.18437418912E-01  0.71006135097E-01  0.51100000000E-03 0.  1.
         11    1    4    4    0    0  0.51060680221E-01  0.35227085192E-01  0.40407041458E-03  0.62036803510E-01  0.51100000000E-03 0. -1.
</event>
<event>
 8    1  0.1109553E+005  0.1043930E+01  0.7957747E-01            NaN
         13   -1    0    0    0    0  0.00000000000E+00  0.00000000000E+00  0.74505805969E-08  0.10566000000E+00  0.10566000000E+00 0. -1.
     999900   -1    0    0    0    0 -0.00000000000E+00 -0.00000000000E+00 -0.74505805969E-08  0.93827000000E+00  0.93827000000E+00 0. -1.
     999902    2    1    2    0    0  0.28339993548E-02  0.22328149143E-01  0.57295773590E-02  0.10207048874E+01  0.10204406212E+01 0.  0.
     999903    2    3    3    0    0  0.11287215117E+00 -0.43520355714E-01  0.44838675261E-01  0.13055100076E+00  0.19972809730E-01 0.  0.
         14    1    1    2    0    0 -0.28339993548E-02 -0.22328149143E-01 -0.57295773590E-02  0.23225112556E-01  0.00000000000E+00 0. -1.
     999901    1    3    3    0    0 -0.11003815181E+00  0.65848504857E-01 -0.39109097902E-01  0.89015388669E+00  0.88000000000E+00 0.  1.
        -11    1    4    4    0    0  0.90537040828E-01 -0.40207665252E-01  0.42663616610E-01  0.10786128782E+00  0.51100000000E-03 0.  1.
         11    1    4    4    0    0  0.22335110341E-01 -0.33126904620E-02  0.21750586516E-02  0.22689712937E-01  0.51100000000E-03 0. -1.
</event>
<event>
 8    1  0.1109553E+005  0.1043930E+01  0.7957747E-01            NaN
         13   -1    0    0    0    0  0.00000000000E+00  0.00000000000E+00  0.74505805969E-08  0.10566000000E+00  0.10566000000E+00 0.  1.
     999900   -1    0    0    0    0 -0.00000000000E+00 -0.00000000000E+00 -0.74505805969E-08  0.93827000000E+00  0.93827000000E+00 0. -1.
     999902    2    1    2    0    0  0.24598969581E-01  0.15145722758E-02  0.14828116932E-01  0.10151675890E+01  0.10147600492E+01 0.  0.
     999903    2    3    3    0    0 -0.19159708523E-01 -0.12221067696E+00 -0.20084803232E-02  0.12527645511E+00  0.19687869796E-01 0.  0.
         14    1    1    2    0    0 -0.24598969581E-01 -0.15145722758E-02 -0.14828116932E-01  0.28762410980E-01  0.00000000000E+00 0. -1.
     999901    1    3    3    0    0  0.43758678104E-01  0.12372524924E+00  0.16836597256E-01  0.88989113391E+00  0.88000000000E+00 0.  1.
        -11    1    4    4    0    0 -0.17036327265E-03 -0.60281258096E-01 -0.44981186630E-02  0.60451247248E-01  0.51100000000E-03 0.  1.
         11    1    4    4    0    0 -0.18989345250E-01 -0.61929418865E-01  0.24896383398E-02  0.64825207860E-01  0.51100000000E-03 0. -1.
</event>
<event>
 8    1  0.1109553E+005  0.1043930E+01  0.7957747E-01            NaN
         13   -1    0    0    0    0  0.00000000000E+00  0.00000000000E+00  0.74505805969E-08  0.10566000000E+00  0.10566000000E+00 0. -1.
     999900   -1    0    0    0    0 -0.00000000000E+00 -0.00000000000E+00 -0.74505805969E-08  0.93827000000E+00  0.93827000000E+00 0.  1.
     999902    2    1    2    0    0 -0.57263463099E-02  0.16992739682E-01 -0.17296757808E-01  0.10190157054E+01  0.10187110905E+01 0.  0.
     999903    2    3    3    0    0 -0.37942327501E-01 -0.11546492867E+00 -0.35850869305E-01  0.12832655740E+00  0.20264514163E-01 0.  0.
         14    1    1    2    0    0  0.57263463099E-02 -0.16992739682E-01  0.17296757808E-01  0.24914294584E-01  0.00000000000E+00 0. -1.
     999901    1    3    3    0    0  0.32215981191E-01  0.13245766835E+00  0.18554111497E-01  0.89068914802E+00  0.88000000000E+00 0. -1.
        -11    1    4    4    0    0 -0.17837915586E-01 -0.58972431852E-01 -0.28589190369E-01  0.67923058514E-01  0.51100000000E-03 0. -1.
         11    1    4    4    0    0 -0.20104411914E-01 -0.56492496818E-01 -0.72616789354E-02  0.60403498881E-01  0.51100000000E-03 0.  1.
</event>
<event>
 8    1  0.1109553E+005  0.1043930E+01  0.7957747E-01            NaN
         13   -1    0    0    0    0  0.00000000000E+00  0.00000000000E+00  0.74505805969E-08  0.10566000000E+00  0.10566000000E+00 0. -1.
     999900   -1    0    0    0    0 -0.00000000000E+00 -0.00000000000E+00 -0.74505805969E-08  0.93827000000E+00  0.93827000000E+00 0.  1.
     999902    2    1    2    0    0  0.22821405128E-01  0.45021182327E-02 -0.24295455363E-02  0.10205422192E+01  0.10202741949E+01 0.  0.
     999903    2    3    3    0    0  0.11711263922E+00 -0.60529801416E-01  0.13480522701E-02  0.13311094992E+00  0.18370645570E-01 0.  0.
         14    1    1    2    0    0 -0.22821405128E-01 -0.45021182327E-02  0.24295455363E-02  0.23387780829E-01  0.00000000000E+00 0. -1.
     999901    1    3    3    0    0 -0.94291234093E-01  0.65031919649E-01 -0.37775978064E-02  0.88743126925E+00  0.88000000000E+00 0. -1.
        -11    1    4    4    0    0  0.10381160907E-01 -0.37822332589E-03  0.20124016967E-02  0.10593509157E-01  0.51100000000E-03 0.  1.
         11    1    4    4    0    0  0.10673147831E+00 -0.60151578091E-01 -0.66434942662E-03  0.12251744076E+00  0.51100000000E-03 0. -1.
</event>
<event>
 8    1  0.1109553E+005  0.1043930E+01  0.7957747E-01            NaN
         13   -1    0    0    0    0  0.00000000000E+00  0.00000000000E+00  0.74505805969E-08  0.10566000000E+00  0.10566000000E+00 0.  1.
     999900   -1    0    0    0    0 -0.00000000000E+00 -0.00000000000E+00 -0.74505805969E-08  0.93827000000E+00  0.93827000000E+00 0.  1.
     999902    2    1    2    0    0  0.21755195111E-01  0.83694187277E-02 -0.23498402033E-02  0.10205022935E+01  0.10202333427E+01 0.  0.
     999903    2    3    3    0    0  0.10159074370E+00 -0.79272339721E-01 -0.22110700534E-01  0.13233266764E+00  0.20451620884E-01 0.  0.
         14    1    1    2    0    0 -0.21755195111E-01 -0.83694187277E-02  0.23498402033E-02  0.23427706528E-01  0.00000000000E+00 0.  1.
     999901    1    3    3    0    0 -0.79835548591E-01  0.87641758449E-01  0.19760860331E-01  0.88816962583E+00  0.88000000000E+00 0.  1.
        -11    1    4    4    0    0  0.57584207999E-01 -0.31999164444E-01 -0.10599019613E-01  0.66726965117E-01  0.51100000000E-03 0.  1.
         11    1    4    4    0    0  0.44006535704E-01 -0.47273175277E-01 -0.11511680921E-01  0.65605702527E-01  0.51100000000E-03 0. -1.
</event>
<event>
 8    1  0.1109553E+005  0.1043930E+01  0.7957747E-01            NaN
         13   -1    0    0    0    0  0.00000000000E+00  0.00000000000E+00  0.74505805969E-08  0.10566000000E+00  0.10566000000E+00 0. -1.
     999900   -1    0    0    0    0 -0.00000000000E+00 -0.00000000000E+00 -0.74505805969E-08  0.93827000000E+00  0.93827000000E+00 0. -1.
     999902    2    1    2    0    0 -0.62517890370E-02 -0.15940411185E-01 -0.17769848237E-01  0.10192531063E+01  0.10189543393E+01 0.  0.
     999903    2    3    3    0    0  0.86699010320E-01 -0.24315820236E-01  0.88525571722E-01  0.12795701923E+00  0.20694067186E-01 0.  0.
         14    1    1    2    0    0  0.62517890370E-02  0.15940411185E-01  0.17769848237E-01  0.24676893671E-01  0.00000000000E+00 0. -1.
     999901    1    3    3    0    0 -0.92950799357E-01  0.83754090517E-02 -0.10629541996E+00  0.89129608710E+00  0.88000000000E+00 0. -1.
        -11    1    4    4    0    0  0.64834182422E-01 -0.19645687765E-01  0.77773799967E-01  0.10314285889E+00  0.51100000000E-03 0. -1.
         11    1    4    4    0    0  0.21864827898E-01 -0.46701324716E-02  0.10751771755E-01  0.24814160336E-01  0.51100000000E-03 0.  1.
</event>
<event>
 8    1  0.1109553E+005  0.1043930E+01  0.7957747E-01            NaN
         13   -1    0    0    0    0  0.00000000000E+00  0.00000000000E+00  0.74505805969E-08  0.10566000000E+00  0.10566000000E+00 0.  1.
     999900   -1    0    0    0    0 -0.00000000000E+00 -0.00000000000E+00 -0.74505805969E-08  0.93827000000E+00  0.93827000000E+00 0. -1.
     999902    2    1    2    0    0  0.30808911309E-02 -0.20419097929E-01  0.89818166360E-02  0.10214110196E+01  0.10211627521E+01 0.  0.
     999903    2    3    3    0    0  0.90791147277E-02 -0.68104438876E-01  0.11337602841E+00  0.13393819074E+00  0.19096339984E-01 0.  0.
         14    1    1    2    0    0 -0.30808911309E-02  0.20419097929E-01 -0.89818166360E-02  0.22518980450E-01  0.00000000000E+00 0.  1.
     999901    1    3    3    0    0 -0.59982235968E-02  0.47685340947E-01 -0.10439421178E+00  0.88747282881E+00  0.88000000000E+00 0. -1.
        -11    1    4    4    0    0  0.13629976282E-01 -0.36502642233E-01  0.55096882769E-01  0.67484418611E-01  0.51100000000E-03 0.  1.
         11    1    4    4    0    0 -0.45508615547E-02 -0.31601796644E-01  0.58279145643E-01  0.66453772127E-01  0.51100000000E-03 0. -1.
</event>
<event>
 8    1  0.1109553E+005  0.1043930E+01  0.7957747E-01            NaN
         13   -1    0    0    0    0  0.00000000000E+00  0.00000000000E+00  0.74505805969E-08  0.10566000000E+00  0.10566000000E+00 0. -1.
     999900   -1    0    0    0    0 -0.00000000000E+00 -0.00000000000E+00 -0.74505805969E-08  0.93827000000E+00  0.93827000000E+00 0.  1.
     999902    2    1    2    0    0  0.88076586753E-03 -0.25354400156E-01 -0.38886606290E-02  0.10182640101E+01  0.10179404949E+01 0.  0.
     999903    2    3    3    0    0  0.34401095436E-01  0.79564798104E-01 -0.90938775993E-01  0.12713586374E+00  0.19485235574E-01 0.  0.
         14    1    1    2    0    0 -0.88076586753E-03  0.25354400156E-01  0.38886606290E-02  0.25665989895E-01  0.00000000000E+00 0.  1.
     999901    1    3    3    0    0 -0.33520329568E-01 -0.10491919826E+00  0.87050115364E-01  0.89112814636E+00  0.88000000000E+00 0.  1.
        -11    1    4    4    0    0  0.20611790287E-01  0.24858036185E-01 -0.29830636883E-01  0.43964711755E-01  0.51100000000E-03 0.  1.
         11    1    4    4    0    0  0.13789305148E-01  0.54706761919E-01 -0.61108139110E-01  0.83171151985E-01  0.51100000000E-03 0. -1.
</event>
<event>
 8    1  0.1109553E+005  0.1043930E+01  0.7957747E-01            NaN
         13   -1    0    0    0    0  0.00000000000E+00  0.00000000000E+00  0.74505805969E-08  0.10566000000E+00  0.10566000000E+00 0. -1.
     999900   -1    0    0    0    0 -0.00000000000E+00 -0.00000000000E+00 -0.74505805969E-08  0.93827000000E+00  0.93827000000E+00 0.  1.
     999902    2    1    2    0    0 -0.21055466135E-01 -0.20086133605E-02 -0.69478897451E-02  0.10216670183E+01  0.10214244250E+01 0.  0.
     999903    2    3    3    0    0 -0.11368564027E+00  0.34955738229E-02 -0.69085135963E-01  0.13460913824E+00  0.20253894596E-01 0.  0.
         14    1    1    2    0    0  0.21055466135E-01  0.20086133605E-02  0.69478897451E-02  0.22262981689E-01  0.00000000000E+00 0. -1.
     999901    1    3    3    0    0  0.92630174132E-01 -0.55041871834E-02  0.62137246218E-01  0.88705788008E+00  0.88000000000E+00 0. -1.
        -11    1    4    4    0    0 -0.68219543216E-01  0.61140029281E-02 -0.51874189099E-01  0.85921357787E-01  0.51100000000E-03 0.  1.
         11    1    4    4    0    0 -0.45466097051E-01 -0.26184291052E-02 -0.17210946864E-01  0.48687780448E-01  0.51100000000E-03 0. -1.
</event>
<event>
 8    1  0.1109553E+005  0.1043930E+01  0.7957747E-01            NaN
         13   -1    0    0    0    0  0.00000000000E+00  0.00000000000E+00  0.74505805969E-08  0.10566000000E+00  0.10566000000E+00 0. -1.
     999900   -1    0    0    0    0 -0.00000000000E+00 -0.00000000000E+00 -0.74505805969E-08  0.93827000000E+00  0.93827000000E+00 0. -1.
     999902    2    1    2    0    0 -0.45398784970E-03  0.18793060050E-01  0.14126380924E-01  0.10204153269E+01  0.10201443523E+01 0.  0.
     999903    2    3    3    0    0  0.61930088571E-01  0.11498632590E+00  0.14866965062E-01  0.13297774274E+00  0.20121192808E-01 0.  0.
         14    1    1    2    0    0  0.45398784970E-03 -0.18793060050E-01 -0.14126380924E-01  0.23514673058E-01  0.00000000000E+00 0.  1.
     999901    1    3    3    0    0 -0.62384076420E-01 -0.96193265850E-01 -0.74058413766E-03  0.88743758420E+00  0.88000000000E+00 0.  1.
        -11    1    4    4    0    0  0.44513724123E-01  0.82399262472E-01  0.19715421844E-01  0.95708249753E-01  0.51100000000E-03 0. -1.
         11    1    4    4    0    0  0.17416364448E-01  0.32587063429E-01 -0.48484567826E-02  0.37269492989E-01  0.51100000000E-03 0.  1.
</event>
<event>
 8    1  0.1109553E+005  0.1043930E+01  0.7957747E-01            NaN
         13   -1    0    0    0    0  0.00000000000E+00  0.00000000000E+00  0.74505805969E-08  0.10566000000E+00  0.10566000000E+00 0.  1.
     999900   -1    0    0    0    0 -0.00000000000E+00 -0.00000000000E+00 -0.74505805969E-08  0.93827000000E+00  0.93827000000E+00 0.  1.
     999902    2    1    2    0    0  0.21353396908E-01  0.47144965363E-02  0.81601078447E-02  0.10205894474E+01  0.10203225170E+01 0.  0.
     999903    2    3    3    0    0  0.11132711018E+00  0.20837613499E-01 -0.66217424973E-01  0.13273403044E+00  0.20140602514E-01 0.  0.
         14    1    1    2    0    0 -0.21353396908E-01 -0.47144965363E-02 -0.81601078447E-02  0.23340552631E-01  0.00000000000E+00 0.  1.
     999901    1    3    3    0    0 -0.89973713272E-01 -0.16123116963E-01  0.74377532818E-01  0.88785541693E+00  0.88000000000E+00 0.  1.
        -11    1    4    4    0    0  0.32934847678E-01  0.24009186909E-02 -0.29270706897E-01  0.44130533708E-01  0.51100000000E-03 0.  1.
         11    1    4    4    0    0  0.78392262502E-01  0.18436694808E-01 -0.36946718076E-01  0.88603496732E-01  0.51100000000E-03 0. -1.
</event>
<event>
 8    1  0.1109553E+005  0.1043930E+01  0.7957747E-01            NaN
         13   -1    0    0    0    0  0.00000000000E+00  0.00000000000E+00  0.74505805969E-08  0.10566000000E+00  0.10566000000E+00 0.  1.
     999900   -1    0    0    0    0 -0.00000000000E+00 -0.00000000000E+00 -0.74505805969E-08  0.93827000000E+00  0.93827000000E+00 0. -1.
     999902    2    1    2    0    0 -0.51233114385E-02  0.32797141943E-02  0.22831298425E-01  0.10203021979E+01  0.10200285790E+01 0.  0.
     999903    2    3    3    0    0 -0.51662868907E-01 -0.19882782109E-01  0.11987992416E+00  0.13344208072E+00  0.19266957275E-01 0.  0.
         14    1    1    2    0    0  0.51233114385E-02 -0.32797141943E-02 -0.22831298425E-01  0.23627802121E-01  0.00000000000E+00 0. -1.
     999901    1    3    3    0    0  0.46539557468E-01  0.23162496303E-01 -0.97048625737E-01  0.88686011716E+00  0.88000000000E+00 0. -1.
        -11    1    4    4    0    0 -0.34352877761E-01 -0.35828623469E-02  0.77394228986E-01  0.84753082035E-01  0.51100000000E-03 0. -1.
         11    1    4    4    0    0 -0.17309991146E-01 -0.16299919762E-01  0.42485695176E-01  0.48688998688E-01  0.51100000000E-03 0.  1.
</event>
<event>
 8    1  0.1109553E+005  0.1043930E+01  0.7957747E-01            NaN
         13   -1    0    0    0    0  0.00000000000E+00  0.00000000000E+00  0.74505805969E-08  0.10566000000E+00  0.10566000000E+00 0.  1.
     999900   -1    0    0    0    0 -0.00000000000E+00 -0.00000000000E+00 -0.74505805969E-08  0.93827000000E+00  0.93827000000E+00 0.  1.
     999902    2    1    2    0    0  0.81710447326E-02  0.65433507902E-02 -0.21253251014E-01  0.10202386073E+01  0.10199634962E+01 0.  0.
     999903    2    3    3    0    0  0.55769355027E-01 -0.98339227380E-01  0.59003270031E-01  0.12911175685E+00  0.20189979688E-01 0.  0.
         14    1    1    2    0    0 -0.81710447326E-02 -0.65433507902E-02  0.21253251014E-01  0.23691392746E-01  0.00000000000E+00 0.  1.
     999901    1    3    3    0    0 -0.47598310294E-01  0.10488257817E+00 -0.80256521045E-01  0.89112685041E+00  0.88000000000E+00 0.  1.
        -11    1    4    4    0    0  0.92345816288E-02 -0.32163228505E-01  0.22697960892E-01  0.40437721442E-01  0.51100000000E-03 0.  1.
         11    1    4    4    0    0  0.46534773398E-01 -0.66175998875E-01  0.36305309139E-01  0.88674035405E-01  0.51100000000E-03 0. -1.
</event>
<event>
 8    1  0.1109553E+005  0.1043930E+01  0.7957747E-01            NaN
         13   -1    0    0    0    0  0.00000000000E+00  0.00000000000E+00  0.74505805969E-08  0.10566000000E+00  0.10566000000E+00 0.  1.
     999900   -1    0    0    0    0 -0.00000000000E+00 -0.00000000000E+00 -0.74505805969E-08  0.93827000000E+00  0.93827000000E+00 0.  1.
     999902    2    1    2    0    0  0.14475848246E-01  0.60225774682E-03 -0.17458210247E-01  0.10212429552E+01  0.10209909263E+01 0.  0.
     999903    2    3    3    0    0 -0.17276813084E-01  0.27065386937E-01 -0.12781802399E+00  0.13338721399E+00  0.20583443779E-01 0.  0.
         14    1    1    2    0    0 -0.14475848246E-01 -0.60225774682E-03  0.17458210247E-01  0.22687044802E-01  0.00000000000E+00 0.  1.
     999901    1    3    3    0    0  0.31752661330E-01 -0.26463129190E-01  0.11035981375E+00  0.88785574121E+00  0.88000000000E+00 0. -1.
        -11    1    4    4    0    0  0.46090123969E-02  0.72769891430E-02 -0.28386462356E-01  0.29669006258E-01  0.51100000000E-03 0.  1.
         11    1    4    4    0    0 -0.21885825481E-01  0.19788397794E-01 -0.99431561637E-01  0.10371820773E+00  0.51100000000E-03 0. -1.
</event>
<event>
 8    1  0.1109553E+005  0.1043930E+01  0.7957747E-01            NaN
         13   -1    0    0    0    0  0.00000000000E+00  0.00000000000E+00  0.74505805969E-08  0.10566000000E+00  0.10566000000E+00 0. -1.
     999900   -1    0    0    0    0 -0.00000000000E+00 -0.00000000000E+00 -0.74505805969E-08  0.93827000000E+00  0.93827000000E+00 0.  1.
     999902    2    1    2    0    0 -0.16392774102E-01  0.15804864164E-01 -0.14183010624E-02  0.10211149096E+01  0.10208599954E+01 0.  0.
     999903    2    3    3    0    0 -0.13095566770E+00  0.16319432516E-01  0.65688108218E-02  0.13365295808E+00  0.20106047538E-01 0.  0.
         14    1    1    2    0    0  0.16392774102E-01 -0.15804864164E-01  0.14183010624E-02  0.22815090442E-01  0.00000000000E+00 0. -1.
     999901    1    3    3    0    0  0.11456289359E+00 -0.51456835267E-03 -0.79871118842E-02  0.88746195148E+00  0.88000000000E+00 0.  1.
        -11    1    4    4    0    0 -0.18523017961E-01 -0.46698411972E-02  0.50372899831E-03  0.19116078968E-01  0.51100000000E-03 0.  1.
         11    1    4    4    0    0 -0.11243264974E+00  0.20989273714E-01  0.60650818235E-02  0.11453687911E+00  0.51100000000E-03 0. -1.
</event>
<event>
 8    1  0.1109553E+005  0.1043930E+01  0.7957747E-01            NaN
         13   -1    0    0    0    0  0.00000000000E+00  0.00000000000E+00  0.74505805969E-08  0.10566000000E+00  0.10566000000E+00 0. -1.
     999900   -1    0    0    0    0 -0.00000000000E+00 -0.00000000000E+00 -0.74505805969E-08  0.93827000000E+00  0.93827000000E+00 0.  1.
     999902    2    1    2    0    0  0.30529102625E-02  0.22951338999E-01  0.65236829249E-02  0.10198750075E+01  0.10195912850E+01 0.  0.
     999903    2    3    3    0    0 -0.65256391116E-01 -0.10558793646E+00  0.22779203751E-01  0.12776921340E+00  0.19971751653E-01 0.  0.
         14    1    1    2    0    0 -0.30529102625E-02 -0.22951338999E-01 -0.65236829249E-02  0.24054992451E-01  0.00000000000E+00 0. -1.
     999901    1    3    3    0    0  0.68309301378E-01  0.12853927545E+00 -0.16255520826E-01  0.89210579414E+00  0.88000000000E+00 0. -1.
        -11    1    4    4    0    0 -0.18138919531E-01 -0.31454836040E-01 -0.23934572078E-02  0.36392538664E-01  0.51100000000E-03 0. -1.
         11    1    4    4    0    0 -0.47117471585E-01 -0.74133100415E-01  0.25172660959E-01  0.91376674740E-01  0.51100000000E-03 0.  1.
</event>
<event>
 8    1  0.1109553E+005  0.1043930E+01  0.7957747E-01            NaN
         13   -1    0    0    0    0  0.00000000000E+00  0.00000000000E+00  0.74505805969E-08  0.10566000000E+00  0.10566000000E+00 0.  1.
     999900   -1    0    0    0    0 -0.00000000000E+00 -0.00000000000E+00 -0.74505805969E-08  0.93827000000E+00  0.93827000000E+00 0.  1.
     999902    2    1    2    0    0 -0.14906022939E-01 -0.16646568069E-01  0.68412059097E-02  0.10205612207E+01  0.10202936368E+01 0.  0.
     999903    2    3    3    0    0 -0.77400948150E-01 -0.82355133009E-01  0.68659936798E-01  0.13374399788E+00  0.19999883481E-01 0.  0.
         14    1    1    2    0    0  0.14906022939E-01  0.16646568069E-01 -0.68412059097E-02  0.23368779314E-01  0.00000000000E+00 0. -1.
     999901    1    3    3    0    0  0.62494925211E-01  0.65708564940E-01 -0.61818730889E-01  0.88681722281E+00  0.88000000000E+00 0. -1.
        -11    1    4    4    0    0 -0.20706990429E-01 -0.22871942865E-01  0.29597648908E-01  0.42757305398E-01  0.51100000000E-03 0. -1.
         11    1    4    4    0    0 -0.56693957721E-01 -0.59483190144E-01  0.39062287890E-01  0.90986692478E-01  0.51100000000E-03 0.  1.
</event>
<event>
 8    1  0.1109553E+005  0.1043930E+01  0.7957747E-01            NaN
         13   -1    0    0    0    0  0.00000000000E+00  0.00000000000E+00  0.74505805969E-08  0.10566000000E+00  0.10566000000E+00 0.  1.
     999900   -1    0    0    0    0 -0.00000000000E+00 -0.00000000000E+00 -0.74505805969E-08  0.93827000000E+00  0.93827000000E+00 0. -1.
     999902    2    1    2    0    0 -0.12911693230E-01  0.19723083476E-01 -0.77974556520E-02  0.10191003371E+01  0.10187978136E+01 0.  0.
     999903    2    3    3    0    0  0.81546646276E-01  0.68464766740E-01 -0.72152305396E-01  0.13037108911E+00  0.21292860267E-01 0.  0.
         14    1    1    2    0    0  0.12911693230E-01 -0.19723083476E-01  0.77974556520E-02  0.24829662876E-01  0.00000000000E+00 0. -1.
     999901    1    3    3    0    0 -0.94458339506E-01 -0.48741683263E-01  0.64354849744E-01  0.88872924801E+00  0.88000000000E+00 0.  1.
        -11    1    4    4    0    0  0.26549294216E-01  0.33875006625E-01 -0.22295255308E-01  0.48473916981E-01  0.51100000000E-03 0.  1.
         11    1    4    4    0    0  0.54997352060E-01  0.34589760115E-01 -0.49857050088E-01  0.81897172130E-01  0.51100000000E-03 0. -1.
</event>
<event>
 8    1  0.1109553E+005  0.1043930E+01  0.7957747E-01            NaN
         13   -1    0    0    0    0  0.00000000000E+00  0.00000000000E+00  0.74505805969E-08  0.10566000000E+00  0.10566000000E+00 0. -1.
     999900   -1    0    0    0    0 -0.00000000000E+00 -0.00000000000E+00 -0.74505805969E-08  0.93827000000E+00  0.93827000000E+00 0.  1.
     999902    2    1    2    0    0  0.49498478585E-02 -0.11811906570E-01 -0.20454010693E-01  0.10197972694E+01  0.10195116881E+01 0.  0.
     999903    2    3    3    0    0 -0.82699875755E-01  0.71329876330E-01  0.62727167560E-01  0.12765706828E+00  0.20842476469E-01 0.  0.
         14    1    1    2    0    0 -0.49498478585E-02  0.11811906570E-01  0.20454010693E-01  0.24132730555E-01  0.00000000000E+00 0. -1.
     999901    1    3    3    0    0  0.87649723613E-01 -0.83141782900E-01 -0.83181178253E-01  0.89214020116E+00  0.88000000000E+00 0.  1.
        -11    1    4    4    0    0 -0.50009264196E-01  0.41090837028E-01  0.48577919490E-01  0.80928726520E-01  0.51100000000E-03 0.  1.
         11    1    4    4    0    0 -0.32690611559E-01  0.30239039302E-01  0.14149248070E-01  0.46728341763E-01  0.51100000000E-03 0. -1.
</event>
<event>
 8    1  0.1109553E+005  0.1043930E+01  0.7957747E-01            NaN
         13   -1    0    0    0    0  0.00000000000E+00  0.00000000000E+00  0.74505805969E-08  0.10566000000E+00  0.10566000000E+00 0.  1.
     999900   -1    0    0    0    0 -0.00000000000E+00 -0.00000000000E+00 -0.74505805969E-08  0.93827000000E+00  0.93827000000E+00 0.  1.
     999902    2    1    2    0    0  0.21448473514E-01 -0.76446156224E-02  0.55471826681E-02  0.10204939509E+01  0.10202248063E+01 0.  0.
     999903    2    3    3    0    0  0.37050767450E-01  0.49076080740E-03  0.12533649907E+00  0.13220396653E+00  0.19890966625E-01 0.  0.
         14    1    1    2    0    0 -0.21448473514E-01  0.76446156224E-02 -0.55471826681E-02  0.23436049147E-01  0.00000000000E+00 0.  1.
     999901    1    3    3    0    0 -0.15602293936E-01 -0.81353764298E-02 -0.11978931640E+00  0.88828998432E+00  0.88000000000E+00 0.  1.
        -11    1    4    4    0    0  0.40194756953E-02 -0.38162820755E-02  0.43371374639E-01  0.43727079171E-01  0.51100000000E-03 0.  1.
         11    1    4    4    0    0  0.33031291754E-01  0.43070428829E-02  0.81965124427E-01  0.88476887358E-01  0.51100000000E-03 0. -1.
</event>
<event>
 8    1  0.1109553E+005  0.1043930E+01  0.7957747E-01            NaN
         13   -1    0    0    0    0  0.00000000000E+00  0.00000000000E+00  0.74505805969E-08  0.10566000000E+00  0.10566000000E+00 0.  1.
     999900   -1    0    0    0    0 -0.00000000000E+00 -0.00000000000E+00 -0.74505805969E-08  0.93827000000E+00  0.93827000000E+00 0.  1.
     999902    2    1    2    0    0 -0.17024672858E-01 -0.12454343984E-01 -0.11117223235E-01  0.10200858640E+01  0.10198071519E+01 0.  0.
     999903    2    3    3    0    0  0.11782492066E+00  0.31125724699E-01 -0.35513651959E-01  0.12841393945E+00  0.19426726527E-01 0.  0.
         14    1    1    2    0    0  0.17024672858E-01  0.12454343984E-01  0.11117223235E-01  0.23844136019E-01  0.00000000000E+00 0.  1.
     999901    1    3    3    0    0 -0.13484959352E+00 -0.43580068684E-01  0.24396428724E-01  0.89167192453E+00  0.88000000000E+00 0. -1.
        -11    1    4    4    0    0  0.69377594231E-01  0.19195628513E-01 -0.11004390465E-01  0.72822252546E-01  0.51100000000E-03 0.  1.
         11    1    4    4    0    0  0.48447326429E-01  0.11930096187E-01 -0.24509261494E-01  0.55591686907E-01  0.51100000000E-03 0. -1.
</event>
<event>
 8    1  0.1109553E+005  0.1043930E+01  0.7957747E-01            NaN
         13   -1    0    0    0    0  0.00000000000E+00  0.00000000000E+00  0.74505805969E-08  0.10566000000E+00  0.10566000000E+00 0. -1.
     999900   -1    0    0    0    0 -0.00000000000E+00 -0.00000000000E+00 -0.74505805969E-08  0.93827000000E+00  0.93827000000E+00 0.  1.
     999902    2    1    2    0    0 -0.10985338411E-01  0.21613948690E-01 -0.16531719912E-02  0.10196282837E+01  0.10193386402E+01 0.  0.
     999903    2    3    3    0    0 -0.94663286831E-01 -0.80106366553E-01  0.30436145978E-01  0.12924704741E+00  0.20006810019E-01 0.  0.
         14    1    1    2    0    0  0.10985338411E-01 -0.21613948690E-01  0.16531719912E-02  0.24301716310E-01  0.00000000000E+00 0.  1.
     999901    1    3    3    0    0  0.83677948420E-01  0.10172031524E+00 -0.32089317969E-01  0.89038123628E+00  0.88000000000E+00 0. -1.
        -11    1    4    4    0    0 -0.13809899768E-02 -0.61858128298E-02 -0.14270883337E-03  0.63602594674E-02  0.51100000000E-03 0.  1.
         11    1    4    4    0    0 -0.93282296854E-01 -0.73920553723E-01  0.30578854812E-01  0.12288678795E+00  0.51100000000E-03 0. -1.
</event>
<event>
 8    1  0.1109553E+005  0.1043930E+01  0.7957747E-01            NaN
         13   -1    0    0    0    0  0.00000000000E+00  0.00000000000E+00  0.74505805969E-08  0.10566000000E+00  0.10566000000E+00 0. -1.
     999900   -1    0    0    0    0 -0.00000000000E+00 -0.00000000000E+00 -0.74505805969E-08  0.93827000000E+00  0.93827000000E+00 0.  1.
     999902    2    1    2    0    0 -0.19332563113E-02 -0.27926253102E-02 -0.23990643700E-01  0.10197001172E+01  0.10194122041E+01 0.  0.
     999903    2    3    3    0    0  0.43784366099E-01  0.90210524601E-01 -0.82716582961E-01  0.13167510468E+00  0.21006918678E-01 0.  0.
         14    1    1    2    0    0  0.19332563113E-02  0.27926253102E-02  0.23990643700E-01  0.24229882815E-01  0.00000000000E+00 0. -1.
     999901    1    3    3    0    0 -0.45717622410E-01 -0.93003149911E-01  0.58725939262E-01  0.88802501250E+00  0.88000000000E+00 0. -1.
        -11    1    4    4    0    0  0.33357364057E-01  0.68597229596E-01 -0.50424202416E-01  0.91439351241E-01  0.51100000000E-03 0.  1.
         11    1    4    4    0    0  0.10427002041E-01  0.21613295005E-01 -0.32292380545E-01  0.40235753439E-01  0.51100000000E-03 0. -1.
</event>
<event>
 8    1  0.1109553E+005  0.1043930E+01  0.7957747E-01            NaN
         13   -1    0    0    0    0  0.00000000000E+00  0.00000000000E+00  0.74505805969E-08  0.10566000000E+00  0.10566000000E+00 0. -1.
     999900   -1    0    0    0    0 -0.00000000000E+00 -0.00000000000E+00 -0.74505805969E-08  0.93827000000E+00  0.93827000000E+00 0.  1.
     999902    2    1    2    0    0 -0.17480385005E-01 -0.17085248023E-02  0.13755343461E-01  0.10216209796E+01  0.10213773708E+01 0.  0.
     999903    2    3    3    0    0 -0.50573778121E-01 -0.11091909866E+00 -0.46611968854E-01  0.13220188014E+00  0.21069124126E-01 0.  0.
         14    1    1    2    0    0  0.17480385005E-01  0.17085248023E-02 -0.13755343461E-01  0.22309020388E-01  0.00000000000E+00 0.  1.
     999901    1    3    3    0    0  0.33093393115E-01  0.10921057386E+00  0.60367312315E-01  0.88941909947E+00  0.88000000000E+00 0.  1.
        -11    1    4    4    0    0 -0.29951506766E-01 -0.74767743048E-01 -0.40428272771E-01  0.90122219892E-01  0.51100000000E-03 0.  1.
         11    1    4    4    0    0 -0.20622271355E-01 -0.36151355611E-01 -0.61836960827E-02  0.42079660248E-01  0.51100000000E-03 0. -1.
</event>
<event>
 8    1  0.1109553E+005  0.1043930E+01  0.7957747E-01            NaN
         13   -1    0    0    0    0  0.00000000000E+00  0.00000000000E+00  0.74505805969E-08  0.10566000000E+00  0.10566000000E+00 0. -1.
     999900   -1    0    0    0    0 -0.00000000000E+00 -0.00000000000E+00 -0.74505805969E-08  0.93827000000E+00  0.93827000000E+00 0.  1.
     999902    2    1    2    0    0 -0.12709760366E-01 -0.20328051471E-01  0.24898561249E-01  0.10093654801E+01  0.10087734961E+01 0.  0.
     999903    2    3    3    0    0 -0.21847879331E-01  0.75438746897E-01  0.90639970662E-01  0.12168495320E+00  0.20573993019E-01 0.  0.
         14    1    1    2    0    0  0.12709760366E-01  0.20328051471E-01 -0.24898561249E-01  0.34564519923E-01  0.00000000000E+00 0.  1.
     999901    1    3    3    0    0  0.91381189650E-02 -0.95766798369E-01 -0.65741409412E-01  0.88768052688E+00  0.88000000000E+00 0.  1.
        -11    1    4    4    0    0 -0.36241770223E-04  0.33603292566E-01  0.31840655753E-01  0.46295475638E-01  0.51100000000E-03 0.  1.
         11    1    4    4    0    0 -0.21811637561E-01  0.41835454331E-01  0.58799314909E-01  0.75389477561E-01  0.51100000000E-03 0. -1.
</event>
<event>
 8    1  0.1109553E+005  0.1043930E+01  0.7957747E-01            NaN
         13   -1    0    0    0    0  0.00000000000E+00  0.00000000000E+00  0.74505805969E-08  0.10566000000E+00  0.10566000000E+00 0.  1.
     999900   -1    0    0    0    0 -0.00000000000E+00 -0.00000000000E+00 -0.74505805969E-08  0.93827000000E+00  0.93827000000E+00 0.  1.
     999902    2    1    2    0    0  0.18482332487E-01 -0.15724302644E-01 -0.17074786972E-02  0.10196037633E+01  0.10193135280E+01 0.  0.
     999903    2    3    3    0    0  0.28171380581E-01  0.51043554915E-01  0.11397628947E+00  0.12947199853E+00  0.19321818265E-01 0.  0.
         14    1    1    2    0    0 -0.18482332487E-01  0.15724302644E-01  0.17074786972E-02  0.24326236686E-01  0.00000000000E+00 0.  1.
     999901    1    3    3    0    0 -0.96890480942E-02 -0.66767857559E-01 -0.11568376816E+00  0.89013176478E+00  0.88000000000E+00 0.  1.
        -11    1    4    4    0    0  0.10227579442E-01  0.37431561425E-01  0.75344389610E-01  0.84751184881E-01  0.51100000000E-03 0.  1.
         11    1    4    4    0    0  0.17943801140E-01  0.13611993490E-01  0.38631899857E-01  0.44720813652E-01  0.51100000000E-03 0. -1.
</event>
<event>
 8    1  0.1109553E+005  0.1043930E+01  0.7957747E-01            NaN
         13   -1    0    0    0    0  0.00000000000E+00  0.00000000000E+00  0.74505805969E-08  0.10566000000E+00  0.10566000000E+00 0.  1.
     999900   -1    0    0    0    0 -0.00000000000E+00 -0.00000000000E+00 -0.74505805969E-08  0.93827000000E+00  0.93827000000E+00 0.  1.
     999902    2    1    2    0    0  0.21310075798E-01  0.77848692027E-03  0.87033984606E-02  0.10208979676E+01  0.10206381267E+01 0.  0.
     999903    2    3    3    0    0 -0.88298909666E-01  0.76523659754E-01 -0.47374137008E-01  0.12910418487E+00  0.27767134237E-01 0.  0.
         14    1    1    2    0    0 -0.21310075798E-01 -0.77848692027E-03 -0.87033984606E-02  0.23032032415E-01  0.00000000000E+00 0. -1.
     999901    1    3    3    0    0  0.10960898546E+00 -0.75745172834E-01  0.56077535468E-01  0.89179378271E+00  0.88000000000E+00 0.  1.
        -11    1    4    4    0    0 -0.56290371511E-01  0.53373926934E-01 -0.17365708655E-01  0.79493464884E-01  0.51100000000E-03 0.  1.
         11    1    4    4    0    0 -0.32008538155E-01  0.23149732820E-01 -0.30008428352E-01  0.49610719987E-01  0.51100000000E-03 0. -1.
</event>
<event>
 8    1  0.1109553E+005  0.1043930E+01  0.7957747E-01            NaN
         13   -1    0    0    0    0  0.00000000000E+00  0.00000000000E+00  0.74505805969E-08  0.10566000000E+00  0.10566000000E+00 0.  1.
     999900   -1    0    0    0    0 -0.00000000000E+00 -0.00000000000E+00 -0.74505805969E-08  0.93827000000E+00  0.93827000000E+00 0. -1.
     999902    2    1    2    0    0  0.10972187751E-01  0.21029506466E-01  0.33147594958E-02  0.10199797040E+01  0.10196984750E+01 0.  0.
     999903    2    3    3    0    0 -0.11241306685E+00 -0.18378118836E-01  0.56955344519E-01  0.12888251835E+00  0.19807559546E-01 0.  0.
         14    1    1    2    0    0 -0.10972187751E-01 -0.21029506466E-01 -0.33147594958E-02  0.23950295964E-01  0.00000000000E+00 0.  1.
     999901    1    3    3    0    0  0.12338525460E+00  0.39407625302E-01 -0.53640585023E-01  0.89109718569E+00  0.88000000000E+00 0. -1.
        -11    1    4    4    0    0 -0.34306508794E-01 -0.51769215352E-03  0.25727741286E-01  0.42888020979E-01  0.51100000000E-03 0. -1.
         11    1    4    4    0    0 -0.78106558056E-01 -0.17860426682E-01  0.31227603233E-01  0.85994497367E-01  0.51100000000E-03 0.  1.
</event>
<event>
 8    1  0.1109553E+005  0.1043930E+01  0.7957747E-01            NaN
         13   -1    0    0    0    0  0.00000000000E+00  0.00000000000E+00  0.74505805969E-08  0.10566000000E+00  0.10566000000E+00 0. -1.
     999900   -1    0    0    0    0 -0.00000000000E+00 -0.00000000000E+00 -0.74505805969E-08  0.93827000000E+00  0.93827000000E+00 0.  1.
     999902    2    1    2    0    0 -0.69902307829E-02 -0.23018456470E-01 -0.17778385746E-02  0.10198079484E+01  0.10195226227E+01 0.  0.
     999903    2    3    3    0    0  0.58923462540E-01 -0.96482054517E-01 -0.65143085242E-01  0.13202606655E+00  0.20161830594E-01 0.  0.
         14    1    1    2    0    0  0.69902307829E-02  0.23018456470E-01  0.17778385746E-02  0.24122051627E-01  0.00000000000E+00 0.  1.
     999901    1    3    3    0    0 -0.65913693322E-01  0.73463598047E-01  0.63365246667E-01  0.88778188182E+00  0.88000000000E+00 0. -1.
        -11    1    4    4    0    0  0.42067595030E-01 -0.50779470210E-01 -0.41084140637E-01  0.77694304034E-01  0.51100000000E-03 0.  1.
         11    1    4    4    0    0  0.16855867510E-01 -0.45702584307E-01 -0.24058944605E-01  0.54331762518E-01  0.51100000000E-03 0. -1.
</event>
<event>
 8    1  0.1109553E+005  0.1043930E+01  0.7957747E-01            NaN
         13   -1    0    0    0    0  0.00000000000E+00  0.00000000000E+00  0.74505805969E-08  0.10566000000E+00  0.10566000000E+00 0. -1.
     999900   -1    0    0    0    0 -0.00000000000E+00 -0.00000000000E+00 -0.74505805969E-08  0.93827000000E+00  0.93827000000E+00 0. -1.
     999902    2    1    2    0    0  0.70507439748E-02 -0.14636641471E-01  0.17884094019E-01  0.10197683551E+01  0.10194820808E+01 0.  0.
     999903    2    3    3    0    0 -0.24631007879E-01  0.94657439207E-01 -0.78891098286E-01  0.12717977839E+00  0.19600339191E-01 0.  0.
         14    1    1    2    0    0 -0.70507439748E-02  0.14636641471E-01 -0.17884094019E-01  0.24161644874E-01  0.00000000000E+00 0. -1.
     999901    1    3    3    0    0  0.31681751854E-01 -0.10929408068E+00  0.96775192305E-01  0.89258857673E+00  0.88000000000E+00 0. -1.
        -11    1    4    4    0    0 -0.73963475080E-02  0.27306808669E-01 -0.34812546835E-01  0.44861367503E-01  0.51100000000E-03 0.  1.
         11    1    4    4    0    0 -0.17234660371E-01  0.67350630539E-01 -0.44078551451E-01  0.82318410888E-01  0.51100000000E-03 0. -1.
</event>
<event>
 8    1  0.1109553E+005  0.1043930E+01  0.7957747E-01            NaN
         13   -1    0    0    0    0  0.00000000000E+00  0.00000000000E+00  0.74505805969E-08  0.10566000000E+00  0.10566000000E+00 0. -1.
     999900   -1    0    0    0    0 -0.00000000000E+00 -0.00000000000E+00 -0.74505805969E-08  0.93827000000E+00  0.93827000000E+00 0. -1.
     999902    2    1    2    0    0  0.41176889397E-02 -0.51810390736E-03 -0.23265773052E-01  0.10202969725E+01  0.10200232311E+01 0.  0.
     999903    2    3    3    0    0 -0.42858535509E-01 -0.10750019447E+00 -0.59800529229E-01  0.13182259369E+00  0.20197698728E-01 0.  0.
         14    1    1    2    0    0 -0.41176889397E-02  0.51810390736E-03  0.23265773052E-01  0.23633027516E-01  0.00000000000E+00 0. -1.
     999901    1    3    3    0    0  0.46976224449E-01  0.10698209056E+00  0.36534756176E-01  0.88847437879E+00  0.88000000000E+00 0.  1.
        -11    1    4    4    0    0 -0.34713405075E-01 -0.61834502380E-01 -0.39648895316E-01  0.81245444163E-01  0.51100000000E-03 0.  1.
         11    1    4    4    0    0 -0.81451304337E-02 -0.45665692091E-01 -0.20151633913E-01  0.50577149527E-01  0.51100000000E-03 0. -1.
</event>
<event>
 8    1  0.1109553E+005  0.1043930E+01  0.7957747E-01            NaN
         13   -1    0    0    0    0  0.00000000000E+00  0.00000000000E+00  0.74505805969E-08  0.10566000000E+00  0.10566000000E+00 0.  1.
     999900   -1    0    0    0    0 -0.00000000000E+00 -0.00000000000E+00 -0.74505805969E-08  0.93827000000E+00  0.93827000000E+00 0.  1.
     999902    2    1    2    0    0  0.14062002266E-01 -0.15692965183E-01  0.11385575043E-01  0.10199792091E+01  0.10196979684E+01 0.  0.
     999903    2    3    3    0    0 -0.83073213780E-01 -0.53667413163E-02  0.98372218535E-01  0.13031154240E+00  0.19340215667E-01 0.  0.
         14    1    1    2    0    0 -0.14062002266E-01  0.15692965183E-01 -0.11385575043E-01  0.23950790865E-01  0.00000000000E+00 0. -1.
     999901    1    3    3    0    0  0.97135216046E-01 -0.10326223867E-01 -0.86986643492E-01  0.88966766674E+00  0.88000000000E+00 0.  1.
        -11    1    4    4    0    0 -0.21428240706E-01  0.27577596698E-02  0.37583588579E-01  0.43353915505E-01  0.51100000000E-03 0. -1.
         11    1    4    4    0    0 -0.61644973074E-01 -0.81245009861E-02  0.60788629956E-01  0.86957626891E-01  0.51100000000E-03 0.  1.
</event>
<event>
 8    1  0.1109553E+005  0.1043930E+01  0.7957747E-01            NaN
         13   -1    0    0    0    0  0.00000000000E+00  0.00000000000E+00  0.74505805969E-08  0.10566000000E+00  0.10566000000E+00 0. -1.
     999900   -1    0    0    0    0 -0.00000000000E+00 -0.00000000000E+00 -0.74505805969E-08  0.93827000000E+00  0.93827000000E+00 0.  1.
     999902    2    1    2    0    0  0.53144803003E-02  0.48231807905E-02 -0.20102182795E-01  0.10225851054E+01  0.10223623101E+01 0.  0.
     999903    2    3    3    0    0  0.12925235699E+00  0.43541273679E-02 -0.26171614575E-01  0.13387949872E+00  0.22663551251E-01 0.  0.
         14    1    1    2    0    0 -0.53144803003E-02 -0.48231807905E-02  0.20102182795E-01  0.21344894634E-01  0.00000000000E+00 0. -1.
     999901    1    3    3    0    0 -0.12393787669E+00  0.46905342262E-03  0.60694317803E-02  0.88870560665E+00  0.88000000000E+00 0.  1.
        -11    1    4    4    0    0  0.87615481742E-01  0.37116708940E-02 -0.28387270543E-01  0.92175633394E-01  0.51100000000E-03 0. -1.
         11    1    4    4    0    0  0.41636875245E-01  0.64245647390E-03  0.22156559674E-02  0.41703865323E-01  0.51100000000E-03 0.  1.
</event>
<event>
 8    1  0.1109553E+005  0.1043930E+01  0.7957747E-01            NaN
         13   -1    0    0    0    0  0.00000000000E+00  0.00000000000E+00  0.74505805969E-08  0.10566000000E+00  0.10566000000E+00 0.  1.
     999900   -1    0    0    0    0 -0.00000000000E+00 -0.00000000000E+00 -0.74505805969E-08  0.93827000000E+00  0.93827000000E+00 0. -1.
     999902    2    1    2    0    0 -0.15794296772E-01  0.87262100212E-03  0.19181782807E-01  0.10190671347E+01  0.10187637916E+01 0.  0.
     999903    2    3    3    0    0 -0.10975054341E+00 -0.49169286233E-01  0.51375688783E-01  0.13206746373E+00  0.18426966404E-01 0.  0.
         14    1    1    2    0    0  0.15794296772E-01 -0.87262100212E-03 -0.19181782807E-01  0.24862865273E-01  0.00000000000E+00 0. -1.
     999901    1    3    3    0    0  0.93956246641E-01  0.50041907235E-01 -0.32193905976E-01  0.88699967099E+00  0.88000000000E+00 0. -1.
        -11    1    4    4    0    0 -0.66567444783E-01 -0.34771243835E-01  0.40231004200E-01  0.85200111049E-01  0.51100000000E-03 0. -1.
         11    1    4    4    0    0 -0.43183098630E-01 -0.14398042398E-01  0.11144684583E-01  0.46867352684E-01  0.51100000000E-03 0.  1.
</event>
<event>
 8    1  0.1109553E+005  0.1043930E+01  0.7957747E-01            NaN
         13   -1    0    0    0    0  0.00000000000E+00  0.00000000000E+00  0.74505805969E-08  0.10566000000E+00  0.10566000000E+00 0.  1.
     999900   -1    0    0    0    0 -0.00000000000E+00 -0.00000000000E+00 -0.74505805969E-08  0.93827000000E+00  0.93827000000E+00 0. -1.
     999902    2    1    2    0    0 -0.15163747306E-01  0.17883074921E-01  0.89200041360E-02  0.10188439466E+01  0.10185350644E+01 0.  0.
     999903    2    3    3    0    0 -0.19513689896E-01  0.10813949176E+00  0.70377061413E-01  0.13208461473E+00  0.20456805823E-01 0.  0.
         14    1    1    2    0    0  0.15163747306E-01 -0.17883074921E-01 -0.89200041360E-02  0.25086053392E-01  0.00000000000E+00 0. -1.
     999901    1    3    3    0    0  0.43499425900E-02 -0.90256416838E-01 -0.61457057277E-01  0.88675933188E+00  0.88000000000E+00 0. -1.
        -11    1    4    4    0    0 -0.12523186917E-01  0.23556511978E-01  0.13387429645E-01  0.29853372684E-01  0.51100000000E-03 0.  1.
         11    1    4    4    0    0 -0.69905029786E-02  0.84582979781E-01  0.56989631767E-01  0.10223124205E+00  0.51100000000E-03 0. -1.
</event>
<event>
 8    1  0.1109553E+005  0.1043930E+01  0.7957747E-01            NaN
         13   -1    0    0    0    0  0.00000000000E+00  0.00000000000E+00  0.74505805969E-08  0.10566000000E+00  0.10566000000E+00 0. -1.
     999900   -1    0    0    0    0 -0.00000000000E+00 -0.00000000000E+00 -0.74505805969E-08  0.93827000000E+00  0.93827000000E+00 0.  1.
     999902    2    1    2    0    0 -0.13959093055E-01  0.61219982671E-02 -0.15528643030E-01  0.10221705447E+01  0.10219389162E+01 0.  0.
     999903    2    3    3    0    0 -0.35061853282E-01  0.12742742586E+00 -0.64169994446E-02  0.13355175391E+00  0.18105542604E-01 0.  0.
         14    1    1    2    0    0  0.13959093055E-01 -0.61219982671E-02  0.15528643030E-01  0.21759455325E-01  0.00000000000E+00 0. -1.
     999901    1    3    3    0    0  0.21102760227E-01 -0.12130542759E+00 -0.91116435850E-02  0.88861879077E+00  0.88000000000E+00 0.  1.
        -11    1    4    4    0    0 -0.27956950432E-01  0.67712426894E-01 -0.37109210591E-02  0.73352545215E-01  0.51100000000E-03 0. -1.
         11    1    4    4    0    0 -0.71049028501E-02  0.59714998968E-01 -0.27060783855E-02  0.60199208694E-01  0.51100000000E-03 0.  1.
</event>
<event>
 8    1  0.1109553E+005  0.1043930E+01  0.7957747E-01            NaN
         13   -1    0    0    0    0  0.00000000000E+00  0.00000000000E+00  0.74505805969E-08  0.10566000000E+00  0.10566000000E+00 0.  1.
     999900   -1    0    0    0    0 -0.00000000000E+00 -0.00000000000E+00 -0.74505805969E-08  0.93827000000E+00  0.93827000000E+00 0. -1.
     999902    2    1    2    0    0  0.22850524590E-02  0.16151916344E-01  0.17657897897E-01  0.10198902990E+01  0.10196069413E+01 0.  0.
     999903    2    3    3    0    0  0.40542298033E-01  0.51615224361E-01 -0.10949289573E+00  0.12922280359E+00  0.20050671727E-01 0.  0.
         14    1    1    2    0    0 -0.22850524590E-02 -0.16151916344E-01 -0.17657897897E-01  0.24039701006E-01  0.00000000000E+00 0. -1.
     999901    1    3    3    0    0 -0.38257245574E-01 -0.35463308016E-01  0.12715079362E+00  0.89066749541E+00  0.88000000000E+00 0.  1.
        -11    1    4    4    0    0  0.24304742098E-01  0.21733206175E-01 -0.69167981086E-01  0.76469101391E-01  0.51100000000E-03 0.  1.
         11    1    4    4    0    0  0.16237555936E-01  0.29882018185E-01 -0.40324914641E-01  0.52753702196E-01  0.51100000000E-03 0. -1.
</event>
<event>
 8    1  0.1109553E+005  0.1043930E+01  0.7957747E-01            NaN
         13   -1    0    0    0    0  0.00000000000E+00  0.00000000000E+00  0.74505805969E-08  0.10566000000E+00  0.10566000000E+00 0.  1.
     999900   -1    0    0    0    0 -0.00000000000E+00 -0.00000000000E+00 -0.74505805969E-08  0.93827000000E+00  0.93827000000E+00 0. -1.
     999902    2    1    2    0    0 -0.90303117871E-02 -0.22376162111E-01 -0.17921106438E-02  0.10197339089E+01  0.10194468079E+01 0.  0.
     999903    2    3    3    0    0  0.11601792005E+00 -0.27774077584E-01  0.46442373793E-01  0.12956945039E+00  0.19994780140E-01 0.  0.
         14    1    1    2    0    0  0.90303117871E-02  0.22376162111E-01  0.17921106438E-02  0.24196091055E-01  0.00000000000E+00 0. -1.
     999901    1    3    3    0    0 -0.12504823184E+00  0.53979154735E-02 -0.48234484437E-01  0.89016445855E+00  0.88000000000E+00 0.  1.
        -11    1    4    4    0    0  0.82121975000E-01 -0.25554579871E-01  0.40559493440E-01  0.95091476797E-01  0.51100000000E-03 0.  1.
         11    1    4    4    0    0  0.33895945053E-01 -0.22194977133E-02  0.58828803529E-02  0.34477973597E-01  0.51100000000E-03 0. -1.
</event>
<event>
 8    1  0.1109553E+005  0.1043930E+01  0.7957747E-01            NaN
         13   -1    0    0    0    0  0.00000000000E+00  0.00000000000E+00  0.74505805969E-08  0.10566000000E+00  0.10566000000E+00 0. -1.
     999900   -1    0    0    0    0 -0.00000000000E+00 -0.00000000000E+00 -0.74505805969E-08  0.93827000000E+00  0.93827000000E+00 0. -1.
     999902    2    1    2    0    0  0.59496525588E-02 -0.10269928187E-01  0.13703007004E-01  0.10258015088E+01  0.10256413083E+01 0.  0.
     999903    2    3    3    0    0  0.88215724011E-01 -0.23055276410E-01  0.10091390445E+00  0.13758030201E+00  0.20764480676E-01 0.  0.
         14    1    1    2    0    0 -0.59496525588E-02  0.10269928187E-01 -0.13703007004E-01  0.18128491153E-01  0.00000000000E+00 0.  1.
     999901    1    3    3    0    0 -0.82266071453E-01  0.12785348223E-01 -0.87210897441E-01  0.88822120684E+00  0.88000000000E+00 0. -1.
        -11    1    4    4    0    0  0.35553868995E-01 -0.58581432772E-02  0.26140876284E-01  0.44519680784E-01  0.51100000000E-03 0. -1.
         11    1    4    4    0    0  0.52661855016E-01 -0.17197133133E-01  0.74773028161E-01  0.93060621227E-01  0.51100000000E-03 0.  1.
</event>
<event>
 8    1  0.1109553E+005  0.1043930E+01  0.7957747E-01            NaN
         13   -1    0    0    0    0  0.00000000000E+00  0.00000000000E+00  0.74505805969E-08  0.10566000000E+00  0.10566000000E+00 0.  1.
     999900   -1    0    0    0    0 -0.00000000000E+00 -0.00000000000E+00 -0.74505805969E-08  0.93827000000E+00  0.93827000000E+00 0. -1.
     999902    2    1    2    0    0  0.11689071479E-02 -0.84925103337E-02  0.21891858247E-01  0.10204195229E+01  0.10201486461E+01 0.  0.
     999903    2    3    3    0    0 -0.37135591250E-01 -0.86786420403E-01 -0.86284151283E-01  0.12952153773E+00  0.20492414928E-01 0.  0.
         14    1    1    2    0    0 -0.11689071479E-02  0.84925103337E-02 -0.21891858247E-01  0.23510477094E-01  0.00000000000E+00 0. -1.
     999901    1    3    3    0    0  0.38304498398E-01  0.78293910070E-01  0.10817600953E+00  0.89089798518E+00  0.88000000000E+00 0.  1.
        -11    1    4    4    0    0 -0.10466230515E-01 -0.76799632735E-02 -0.13924740530E-01  0.19044246819E-01  0.51100000000E-03 0. -1.
         11    1    4    4    0    0 -0.26669360735E-01 -0.79106457130E-01 -0.72359410752E-01  0.11047729091E+00  0.51100000000E-03 0.  1.
</event>
<event>
 8    1  0.1109553E+005  0.1043930E+01  0.7957747E-01            NaN
         13   -1    0    0    0    0  0.00000000000E+00  0.00000000000E+00  0.74505805969E-08  0.10566000000E+00  0.10566000000E+00 0.  1.
     999900   -1    0    0    0    0 -0.00000000000E+00 -0.00000000000E+00 -0.74505805969E-08  0.93827000000E+00  0.93827000000E+00 0.  1.
     999902    2    1    2    0    0  0.68222794876E-03  0.18510867052E-01  0.14482607712E-01  0.10204169492E+01  0.10201460124E+01 0.  0.
     999903    2    3    3    0    0 -0.74490326830E-01  0.24671113922E-01  0.10534429586E+00  0.13252917020E+00  0.17580888269E-01 0.  0.
         14    1    1    2    0    0 -0.68222794876E-03 -0.18510867052E-01 -0.14482607712E-01  0.23513050847E-01  0.00000000000E+00 0. -1.
     999901    1    3    3    0    0  0.75172554779E-01 -0.61602468698E-02 -0.90861688144E-01  0.88788777895E+00  0.88000000000E+00 0.  1.
        -11    1    4    4    0    0 -0.48247760454E-01  0.23782449072E-01  0.64746941288E-01  0.84177662119E-01  0.51100000000E-03 0.  1.
         11    1    4    4    0    0 -0.26242566377E-01  0.88866484958E-03  0.40597354568E-01  0.48351508086E-01  0.51100000000E-03 0. -1.
</event>
<event>
 7    1  0.1109553E+005  0.1043930E+01  0.7957747E-01            NaN
         13   -1    0    0    0    0  0.00000000000E+00  0.00000000000E+00  0.74505805969E-08  0.10566000000E+00  0.10566000000E+00 0.  1.
     999900   -1    0    0    0    0 -0.00000000000E+00 -0.00000000000E+00 -0.74505805969E-08  0.93827000000E+00  0.93827000000E+00 0. -1.
     999903    2    1    2    0    0  0.39278091630E-01 -0.56736689966E-01  0.64701557517E-01  0.96700360303E-01  0.20071065422E-01 0.  0.
         14    1    1    2    0    0  0.44197146838E-01 -0.23535853709E-01  0.23417732579E-01  0.55278516601E-01  0.00000000000E+00 0. -1.
     999901    1    1    2    0    0 -0.83475238468E-01  0.80272543675E-01 -0.88119290096E-01  0.89195112310E+00  0.88000000000E+00 0.  1.
        -11    1    3    3    0    0  0.22802111446E-02 -0.15564657709E-01  0.88154487731E-02  0.18039711487E-01  0.51100000000E-03 0. -1.
         11    1    3    3    0    0  0.36997880485E-01 -0.41172032256E-01  0.55886108744E-01  0.78660648815E-01  0.51100000000E-03 0.  1.
</event>
<event>
 8    1  0.1109553E+005  0.1043930E+01  0.7957747E-01            NaN
         13   -1    0    0    0    0  0.00000000000E+00  0.00000000000E+00  0.74505805969E-08  0.10566000000E+00  0.10566000000E+00 0. -1.
     999900   -1    0    0    0    0 -0.00000000000E+00 -0.00000000000E+00 -0.74505805969E-08  0.93827000000E+00  0.93827000000E+00 0. -1.
     999902    2    1    2    0    0  0.15901372600E-01 -0.15334082343E-01 -0.93735965067E-02  0.10199330826E+01  0.10196507446E+01 0.  0.
     999903    2    3    3    0    0  0.28839328228E-01 -0.84913266714E-01 -0.95974909179E-01  0.13285448355E+00  0.19928895842E-01 0.  0.
         14    1    1    2    0    0 -0.15901372600E-01  0.15334082343E-01  0.93735965067E-02  0.23996917372E-01  0.00000000000E+00 0. -1.
     999901    1    3    3    0    0 -0.12937955627E-01  0.69579184371E-01  0.86601312673E-01  0.88707859908E+00  0.88000000000E+00 0. -1.
        -11    1    4    4    0    0  0.21204970070E-01 -0.32234196714E-01 -0.42414341445E-01  0.57340488965E-01  0.51100000000E-03 0.  1.
         11    1    4    4    0    0  0.76343581571E-02 -0.52679070000E-01 -0.53560567735E-01  0.75513994581E-01  0.51100000000E-03 0. -1.
</event>
<event>
 8    1  0.1109553E+005  0.1043930E+01  0.7957747E-01            NaN
         13   -1    0    0    0    0  0.00000000000E+00  0.00000000000E+00  0.74505805969E-08  0.10566000000E+00  0.10566000000E+00 0.  1.
     999900   -1    0    0    0    0 -0.00000000000E+00 -0.00000000000E+00 -0.74505805969E-08  0.93827000000E+00  0.93827000000E+00 0.  1.
     999902    2    1    2    0    0  0.57157758728E-03  0.16585820268E-01  0.16323003117E-01  0.10206521873E+01  0.10203867065E+01 0.  0.
     999903    2    3    3    0    0  0.45142052459E-01  0.11220198065E+00 -0.48746398838E-01  0.13196607596E+00  0.20291486963E-01 0.  0.
         14    1    1    2    0    0 -0.57157758728E-03 -0.16585820268E-01 -0.16323003117E-01  0.23277812733E-01  0.00000000000E+00 0. -1.
     999901    1    3    3    0    0 -0.44570474871E-01 -0.95616160382E-01  0.65069401955E-01  0.88868611131E+00  0.88000000000E+00 0.  1.
        -11    1    4    4    0    0  0.29676061041E-01  0.75777690006E-01 -0.42785856506E-01  0.91944643887E-01  0.51100000000E-03 0.  1.
         11    1    4    4    0    0  0.15465991417E-01  0.36424290643E-01 -0.59605423319E-02  0.40021432074E-01  0.51100000000E-03 0. -1.
</event>
<event>
 8    1  0.1109553E+005  0.1043930E+01  0.7957747E-01            NaN
         13   -1    0    0    0    0  0.00000000000E+00  0.00000000000E+00  0.74505805969E-08  0.10566000000E+00  0.10566000000E+00 0.  1.
     999900   -1    0    0    0    0 -0.00000000000E+00 -0.00000000000E+00 -0.74505805969E-08  0.93827000000E+00  0.93827000000E+00 0. -1.
     999902    2    1    2    0    0 -0.19830758453E-01 -0.90581973768E-02  0.55536262925E-02  0.10214321626E+01  0.10211843664E+01 0.  0.
     999903    2    3    3    0    0 -0.34010163018E-01  0.44854826172E-01  0.11828077674E+00  0.13249173716E+00  0.19876409380E-01 0.  0.
         14    1    1    2    0    0  0.19830758453E-01  0.90581973768E-02 -0.55536262925E-02  0.22497837352E-01  0.00000000000E+00 0. -1.
     999901    1    3    3    0    0  0.14179404565E-01 -0.53913023549E-01 -0.11272715045E+00  0.88894042549E+00  0.88000000000E+00 0. -1.
        -11    1    4    4    0    0 -0.22422364482E-01  0.15950136000E-01  0.43380479343E-01  0.51374082731E-01  0.51100000000E-03 0. -1.
         11    1    4    4    0    0 -0.11587798536E-01  0.28904690172E-01  0.74900297395E-01  0.81117654427E-01  0.51100000000E-03 0.  1.
</event>
<event>
 8    1  0.1109553E+005  0.1043930E+01  0.7957747E-01            NaN
         13   -1    0    0    0    0  0.00000000000E+00  0.00000000000E+00  0.74505805969E-08  0.10566000000E+00  0.10566000000E+00 0.  1.
     999900   -1    0    0    0    0 -0.00000000000E+00 -0.00000000000E+00 -0.74505805969E-08  0.93827000000E+00  0.93827000000E+00 0. -1.
     999902    2    1    2    0    0 -0.23021172909E-01 -0.54399175569E-02 -0.68493269185E-02  0.10193031775E+01  0.10190056366E+01 0.  0.
     999903    2    3    3    0    0 -0.10092626483E-01  0.95460132815E-01 -0.85720542319E-01  0.12993900236E+00  0.17934182235E-01 0.  0.
         14    1    1    2    0    0  0.23021172909E-01  0.54399175569E-02  0.68493269185E-02  0.24626822458E-01  0.00000000000E+00 0.  1.
     999901    1    3    3    0    0 -0.12928546426E-01 -0.10090005037E+00  0.78871215401E-01  0.88936417518E+00  0.88000000000E+00 0.  1.
        -11    1    4    4    0    0 -0.27083729535E-02  0.52208422104E-01 -0.57760786860E-01  0.77907793207E-01  0.51100000000E-03 0. -1.
         11    1    4    4    0    0 -0.73842535299E-02  0.43251710712E-01 -0.27959755459E-01  0.52031209154E-01  0.51100000000E-03 0.  1.
</event>
<event>
 8    1  0.1109553E+005  0.1043930E+01  0.7957747E-01            NaN
         13   -1    0    0    0    0  0.00000000000E+00  0.00000000000E+00  0.74505805969E-08  0.10566000000E+00  0.10566000000E+00 0.  1.
     999900   -1    0    0    0    0 -0.00000000000E+00 -0.00000000000E+00 -0.74505805969E-08  0.93827000000E+00  0.93827000000E+00 0. -1.
     999902    2    1    2    0    0 -0.82145196171E-02  0.11700545799E-01  0.18829950878E-01  0.10202879156E+01  0.10200139619E+01 0.  0.
     999903    2    3    3    0    0  0.54353779787E-01  0.22949980776E-01  0.11695709318E+00  0.13255469107E+00  0.20266955529E-01 0.  0.
         14    1    1    2    0    0  0.82145196171E-02 -0.11700545799E-01 -0.18829950878E-01  0.23642084396E-01  0.00000000000E+00 0. -1.
     999901    1    3    3    0    0 -0.62568299404E-01 -0.11249434977E-01 -0.98127142300E-01  0.88773322453E+00  0.88000000000E+00 0. -1.
        -11    1    4    4    0    0  0.19691884743E-01  0.13910433045E-01  0.65976036587E-01  0.70245063862E-01  0.51100000000E-03 0. -1.
         11    1    4    4    0    0  0.34661895044E-01  0.90395477307E-02  0.50981056591E-01  0.62309627213E-01  0.51100000000E-03 0.  1.
</event>
<event>
 8    1  0.1109553E+005  0.1043930E+01  0.7957747E-01            NaN
         13   -1    0    0    0    0  0.00000000000E+00  0.00000000000E+00  0.74505805969E-08  0.10566000000E+00  0.10566000000E+00 0. -1.
     999900   -1    0    0    0    0 -0.00000000000E+00 -0.00000000000E+00 -0.74505805969E-08  0.93827000000E+00  0.93827000000E+00 0.  1.
     999902    2    1    2    0    0 -0.24958135533E-01  0.31980466683E-02  0.11097071839E-01  0.10164294357E+01  0.10160573393E+01 0.  0.
     999903    2    3    3    0    0 -0.26462028671E-01 -0.10990923678E+00 -0.54026296465E-01  0.12680222596E+00  0.19485494817E-01 0.  0.
         14    1    1    2    0    0  0.24958135533E-01 -0.31980466683E-02 -0.11097071839E-01  0.27500564270E-01  0.00000000000E+00 0.  1.
     999901    1    3    3    0    0  0.15038931380E-02  0.11310728345E+00  0.65123368304E-01  0.88962720977E+00  0.88000000000E+00 0. -1.
        -11    1    4    4    0    0 -0.20315837978E-01 -0.69335641043E-01 -0.43857116859E-01  0.84521430488E-01  0.51100000000E-03 0.  1.
         11    1    4    4    0    0 -0.61461906931E-02 -0.40573595735E-01 -0.10169179606E-01  0.42280795472E-01  0.51100000000E-03 0. -1.
</event>
<event>
 8    1  0.1109553E+005  0.1043930E+01  0.7957747E-01            NaN
         13   -1    0    0    0    0  0.00000000000E+00  0.00000000000E+00  0.74505805969E-08  0.10566000000E+00  0.10566000000E+00 0.  1.
     999900   -1    0    0    0    0 -0.00000000000E+00 -0.00000000000E+00 -0.74505805969E-08  0.93827000000E+00  0.93827000000E+00 0.  1.
     999902    2    1    2    0    0  0.17560076417E-01 -0.12505809373E-01 -0.94272592101E-02  0.10204007678E+01  0.10201294536E+01 0.  0.
     999903    2    3    3    0    0  0.40236609562E-02  0.18637758650E-01  0.12634531402E+00  0.12934109078E+00  0.20060495855E-01 0.  0.
         14    1    1    2    0    0 -0.17560076417E-01  0.12505809373E-01  0.94272592101E-02  0.23529232203E-01  0.00000000000E+00 0.  1.
     999901    1    3    3    0    0  0.13536415461E-01 -0.31143568023E-01 -0.13577257323E+00  0.89105967702E+00  0.88000000000E+00 0.  1.
        -11    1    4    4    0    0  0.66451988749E-02  0.47415155129E-02  0.14868954009E-01  0.16970195985E-01  0.51100000000E-03 0.  1.
         11    1    4    4    0    0 -0.26215379187E-02  0.13896243137E-01  0.11147636001E+00  0.11237089479E+00  0.51100000000E-03 0. -1.
</event>
<event>
 8    1  0.1109553E+005  0.1043930E+01  0.7957747E-01            NaN
         13   -1    0    0    0    0  0.00000000000E+00  0.00000000000E+00  0.74505805969E-08  0.10566000000E+00  0.10566000000E+00 0.  1.
     999900   -1    0    0    0    0 -0.00000000000E+00 -0.00000000000E+00 -0.74505805969E-08  0.93827000000E+00  0.93827000000E+00 0.  1.
     999902    2    1    2    0    0 -0.12222567355E-01 -0.17421754512E-01 -0.18368308348E-02  0.10225692268E+01  0.10223460965E+01 0.  0.
     999903    2    3    3    0    0  0.71668759008E-01 -0.10838381217E+00 -0.24475951458E-01  0.13362357025E+00  0.19306075905E-01 0.  0.
         14    1    1    2    0    0  0.12222567355E-01  0.17421754512E-01  0.18368308348E-02  0.21360773173E-01  0.00000000000E+00 0. -1.
     999901    1    3    3    0    0 -0.83891326363E-01  0.90962057659E-01  0.22639120623E-01  0.88894565658E+00  0.88000000000E+00 0. -1.
        -11    1    4    4    0    0  0.52485768142E-01 -0.92411909627E-01 -0.22029831825E-01  0.10853705132E+00  0.51100000000E-03 0.  1.
         11    1    4    4    0    0  0.19182990866E-01 -0.15971902544E-01 -0.24461196330E-02  0.25086518924E-01  0.51100000000E-03 0. -1.
</event>
<event>
 8    1  0.1109553E+005  0.1043930E+01  0.7957747E-01            NaN
         13   -1    0    0    0    0  0.00000000000E+00  0.00000000000E+00  0.74505805969E-08  0.10566000000E+00  0.10566000000E+00 0. -1.
     999900   -1    0    0    0    0 -0.00000000000E+00 -0.00000000000E+00 -0.74505805969E-08  0.93827000000E+00  0.93827000000E+00 0. -1.
     999902    2    1    2    0    0  0.82381048312E-02  0.18801527547E-01  0.10188351235E-01  0.10210134926E+01  0.10207562813E+01 0.  0.
     999903    2    3    3    0    0 -0.12344356480E+00  0.17487480654E-01 -0.30741203135E-01  0.13027390259E+00  0.21957742524E-01 0.  0.
         14    1    1    2    0    0 -0.82381048312E-02 -0.18801527547E-01 -0.10188351235E-01  0.22916507374E-01  0.00000000000E+00 0. -1.
     999901    1    3    3    0    0  0.13168166963E+00  0.13140468935E-02  0.40929554371E-01  0.89073959004E+00  0.88000000000E+00 0.  1.
        -11    1    4    4    0    0 -0.12037633578E-01 -0.27804584324E-02 -0.81420612857E-02  0.14805061777E-01  0.51100000000E-03 0.  1.
         11    1    4    4    0    0 -0.11140593122E+00  0.20267939086E-01 -0.22599141850E-01  0.11546884081E+00  0.51100000000E-03 0. -1.
</event>
<event>
 8    1  0.1464111E+005  0.1043930E+01  0.7957747E-01            NaN
         13   -1    0    0    0    0  0.00000000000E+00  0.00000000000E+00  0.74505805969E-08  0.10566000000E+00  0.10566000000E+00 0.  1.
     999900   -1    0    0    0    0 -0.00000000000E+00 -0.00000000000E+00 -0.74505805969E-08  0.93827000000E+00  0.93827000000E+00 0. -1.
     999902    2    1    2    0    0 -0.66941764540E-02 -0.12650041649E-02 -0.31485898375E-01  0.10117154997E+01  0.10112024912E+01 0.  0.
     999903    2    3    3    0    0  0.49036852253E-02 -0.26180708508E-01 -0.12175482025E+00  0.12667099178E+00  0.22623622143E-01 0.  0.
         14    1    1    2    0    0  0.66941764540E-02  0.12650041649E-02  0.31485898375E-01  0.32214500313E-01  0.00000000000E+00 0.  1.
     999901    1    3    3    0    0 -0.11597861679E-01  0.24915704343E-01  0.90268921871E-01  0.88504450791E+00  0.88000000000E+00 0.  1.
        -11    1    4    4    0    0 -0.34917900777E-02 -0.38671954201E-02 -0.63626743108E-01  0.63841768130E-01  0.51100000000E-03 0.  1.
         11    1    4    4    0    0  0.83954753030E-02 -0.22313513088E-01 -0.58128077138E-01  0.62829223651E-01  0.51100000000E-03 0. -1.
</event>
<event>
 8    1  0.1109553E+005  0.1043930E+01  0.7957747E-01            NaN
         13   -1    0    0    0    0  0.00000000000E+00  0.00000000000E+00  0.74505805969E-08  0.10566000000E+00  0.10566000000E+00 0.  1.
     999900   -1    0    0    0    0 -0.00000000000E+00 -0.00000000000E+00 -0.74505805969E-08  0.93827000000E+00  0.93827000000E+00 0.  1.
     999902    2    1    2    0    0  0.18557068569E-01  0.59092076958E-02  0.13425775553E-01  0.10202755083E+01  0.10200012636E+01 0.  0.
     999903    2    3    3    0    0  0.11858714867E+00 -0.15252107575E-01 -0.52085688813E-01  0.13193685092E+00  0.19971856098E-01 0.  0.
         14    1    1    2    0    0 -0.18557068569E-01 -0.59092076958E-02 -0.13425775553E-01  0.23654491723E-01  0.00000000000E+00 0. -1.
     999901    1    3    3    0    0 -0.10003008010E+00  0.21161315270E-01  0.65511464366E-01  0.88833865736E+00  0.88000000000E+00 0. -1.
        -11    1    4    4    0    0  0.71218313605E-01 -0.50854497450E-02 -0.21211274218E-01  0.74485497023E-01  0.51100000000E-03 0. -1.
         11    1    4    4    0    0  0.47368835068E-01 -0.10166657830E-01 -0.30874414595E-01  0.57451353898E-01  0.51100000000E-03 0.  1.
</event>
<event>
 8    1  0.1109553E+005  0.1043930E+01  0.7957747E-01            NaN
         13   -1    0    0    0    0  0.00000000000E+00  0.00000000000E+00  0.74505805969E-08  0.10566000000E+00  0.10566000000E+00 0. -1.
     999900   -1    0    0    0    0 -0.00000000000E+00 -0.00000000000E+00 -0.74505805969E-08  0.93827000000E+00  0.93827000000E+00 0.  1.
     999902    2    1    2    0    0  0.20640279729E-01  0.11658221208E-01  0.19933590027E-02  0.10201411634E+01  0.10198637578E+01 0.  0.
     999903    2    3    3    0    0  0.34667964547E-01 -0.11050107554E+00 -0.54900049786E-01  0.12977240284E+00  0.20359410918E-01 0.  0.
         14    1    1    2    0    0 -0.20640279729E-01 -0.11658221208E-01 -0.19933590027E-02  0.23788836650E-01  0.00000000000E+00 0. -1.
     999901    1    3    3    0    0 -0.14027684818E-01  0.12215929674E+00  0.56893408789E-01  0.89036876051E+00  0.88000000000E+00 0. -1.
        -11    1    4    4    0    0  0.90011366598E-02 -0.61996932201E-01 -0.31325702851E-01  0.70044277736E-01  0.51100000000E-03 0. -1.
         11    1    4    4    0    0  0.25666827887E-01 -0.48504143335E-01 -0.23574346935E-01  0.59728125108E-01  0.51100000000E-03 0.  1.
</event>
<event>
 8    1  0.1109553E+005  0.1043930E+01  0.7957747E-01            NaN
         13   -1    0    0    0    0  0.00000000000E+00  0.00000000000E+00  0.74505805969E-08  0.10566000000E+00  0.10566000000E+00 0. -1.
     999900   -1    0    0    0    0 -0.00000000000E+00 -0.00000000000E+00 -0.74505805969E-08  0.93827000000E+00  0.93827000000E+00 0. -1.
     999902    2    1    2    0    0  0.96188077387E-02 -0.64776983869E-02  0.21463276793E-01  0.10195342157E+01  0.10192422984E+01 0.  0.
     999903    2    3    3    0    0  0.62959119905E-01 -0.10219603467E+00 -0.43201427565E-01  0.13038365887E+00  0.26937982022E-01 0.  0.
         14    1    1    2    0    0 -0.96188077387E-02  0.64776983869E-02 -0.21463276793E-01  0.24395784254E-01  0.00000000000E+00 0.  1.
     999901    1    3    3    0    0 -0.53340312167E-01  0.95718336282E-01  0.64664704358E-01  0.88915055688E+00  0.88000000000E+00 0.  1.
        -11    1    4    4    0    0  0.43927661149E-01 -0.69018637984E-01 -0.42344359808E-01  0.92122297690E-01  0.51100000000E-03 0.  1.
         11    1    4    4    0    0  0.19031458757E-01 -0.33177396685E-01 -0.85706775680E-03  0.38261361180E-01  0.51100000000E-03 0. -1.
</event>
<event>
 8    1  0.1109553E+005  0.1043930E+01  0.7957747E-01            NaN
         13   -1    0    0    0    0  0.00000000000E+00  0.00000000000E+00  0.74505805969E-08  0.10566000000E+00  0.10566000000E+00 0. -1.
     999900   -1    0    0    0    0 -0.00000000000E+00 -0.00000000000E+00 -0.74505805969E-08  0.93827000000E+00  0.93827000000E+00 0.  1.
     999902    2    1    2    0    0  0.23052852549E-01  0.60682920028E-02 -0.88570751798E-02  0.10184995859E+01  0.10181820567E+01 0.  0.
     999903    2    3    3    0    0 -0.12357154998E+00  0.10910536215E-01  0.11160795087E-01  0.12613033620E+00  0.19882922287E-01 0.  0.
         14    1    1    2    0    0 -0.23052852549E-01 -0.60682920028E-02  0.88570751798E-02  0.25430414059E-01  0.00000000000E+00 0. -1.
     999901    1    3    3    0    0  0.14662440253E+00 -0.48422442119E-02 -0.20017870267E-01  0.89236924974E+00  0.88000000000E+00 0. -1.
        -11    1    4    4    0    0 -0.82256721009E-01  0.22755195262E-02 -0.67197392156E-03  0.82292519771E-01  0.51100000000E-03 0. -1.
         11    1    4    4    0    0 -0.41314828972E-01  0.86350166886E-02  0.11832769009E-01  0.43837816433E-01  0.51100000000E-03 0.  1.
</event>
<event>
 8    1  0.1109553E+005  0.1043930E+01  0.7957747E-01            NaN
         13   -1    0    0    0    0  0.00000000000E+00  0.00000000000E+00  0.74505805969E-08  0.10566000000E+00  0.10566000000E+00 0.  1.
     999900   -1    0    0    0    0 -0.00000000000E+00 -0.00000000000E+00 -0.74505805969E-08  0.93827000000E+00  0.93827000000E+00 0. -1.
     999902    2    1    2    0    0 -0.14638601266E-01 -0.53634987921E-02  0.16520284874E-01  0.10212149042E+01  0.10209622446E+01 0.  0.
     999903    2    3    3    0    0 -0.10401245059E+00 -0.57817380567E-01  0.58555510560E-01  0.13413765000E+00  0.20067933596E-01 0.  0.
         14    1    1    2    0    0  0.14638601266E-01  0.53634987921E-02 -0.16520284874E-01  0.22715095832E-01  0.00000000000E+00 0.  1.
     999901    1    3    3    0    0  0.89373849322E-01  0.52453881775E-01 -0.42035225686E-01  0.88707725416E+00  0.88000000000E+00 0. -1.
        -11    1    4    4    0    0 -0.44337207464E-01 -0.24949457417E-01  0.36169925446E-01  0.62424258256E-01  0.51100000000E-03 0. -1.
         11    1    4    4    0    0 -0.59675243125E-01 -0.32867923150E-01  0.22385585114E-01  0.71713391749E-01  0.51100000000E-03 0.  1.
</event>
<event>
 8    1  0.1109553E+005  0.1043930E+01  0.7957747E-01            NaN
         13   -1    0    0    0    0  0.00000000000E+00  0.00000000000E+00  0.74505805969E-08  0.10566000000E+00  0.10566000000E+00 0.  1.
     999900   -1    0    0    0    0 -0.00000000000E+00 -0.00000000000E+00 -0.74505805969E-08  0.93827000000E+00  0.93827000000E+00 0. -1.
     999902    2    1    2    0    0 -0.12961221778E-01  0.33652842026E-02  0.18343273336E-01  0.10212188995E+01  0.10209663298E+01 0.  0.
     999903    2    3    3    0    0  0.79902992190E-01  0.88119403150E-01  0.52843889269E-01  0.13161375374E+00  0.19498363245E-01 0.  0.
         14    1    1    2    0    0  0.12961221778E-01 -0.33652842026E-02 -0.18343273336E-01  0.22711100467E-01  0.00000000000E+00 0. -1.
     999901    1    3    3    0    0 -0.92864213967E-01 -0.84754118947E-01 -0.34500615933E-01  0.88960514579E+00  0.88000000000E+00 0. -1.
        -11    1    4    4    0    0  0.19968533729E-01  0.35725720904E-01  0.17917260087E-01  0.44680631188E-01  0.51100000000E-03 0. -1.
         11    1    4    4    0    0  0.59934458461E-01  0.52393682246E-01  0.34926629182E-01  0.86933122556E-01  0.51100000000E-03 0.  1.
</event>
<event>
 8    1  0.1109553E+005  0.1043930E+01  0.7957747E-01            NaN
         13   -1    0    0    0    0  0.00000000000E+00  0.00000000000E+00  0.74505805969E-08  0.10566000000E+00  0.10566000000E+00 0. -1.
     999900   -1    0    0    0    0 -0.00000000000E+00 -0.00000000000E+00 -0.74505805969E-08  0.93827000000E+00  0.93827000000E+00 0. -1.
     999902    2    1    2    0    0  0.20852458080E-02 -0.14559604761E-01  0.19011633827E-01  0.10198931000E+01  0.10196098091E+01 0.  0.
     999903    2    3    3    0    0  0.10243175852E+00  0.56469555848E-01 -0.48870917129E-01  0.12875752951E+00  0.22562335253E-01 0.  0.
         14    1    1    2    0    0 -0.20852458080E-02  0.14559604761E-01 -0.19011633827E-01  0.24036900001E-01  0.00000000000E+00 0.  1.
     999901    1    3    3    0    0 -0.10034651272E+00 -0.71029160609E-01  0.67882550956E-01  0.89113557049E+00  0.88000000000E+00 0.  1.
        -11    1    4    4    0    0  0.45099075475E-01  0.26893024471E-01 -0.33982229712E-01  0.62547697249E-01  0.51100000000E-03 0. -1.
         11    1    4    4    0    0  0.57332683048E-01  0.29576531378E-01 -0.14888687417E-01  0.66209832259E-01  0.51100000000E-03 0.  1.
</event>
<event>
 8    1  0.1109553E+005  0.1043930E+01  0.7957747E-01            NaN
         13   -1    0    0    0    0  0.00000000000E+00  0.00000000000E+00  0.74505805969E-08  0.10566000000E+00  0.10566000000E+00 0. -1.
     999900   -1    0    0    0    0 -0.00000000000E+00 -0.00000000000E+00 -0.74505805969E-08  0.93827000000E+00  0.93827000000E+00 0. -1.
     999902    2    1    2    0    0  0.73968947047E-02  0.67581980738E-02  0.24046490220E-01  0.10178796452E+01  0.10175462403E+01 0.  0.
     999903    2    3    3    0    0 -0.61987508201E-01 -0.74253593568E-01 -0.77706464019E-01  0.12561804151E+00  0.19635439175E-01 0.  0.
         14    1    1    2    0    0 -0.73968947047E-02 -0.67581980738E-02 -0.24046490220E-01  0.26050354784E-01  0.00000000000E+00 0.  1.
     999901    1    3    3    0    0  0.69384402906E-01  0.81011791642E-01  0.10175295424E+00  0.89226160371E+00  0.88000000000E+00 0.  1.
        -11    1    4    4    0    0 -0.43095125877E-01 -0.37593183045E-01 -0.40580164526E-01  0.70124518963E-01  0.51100000000E-03 0. -1.
         11    1    4    4    0    0 -0.18892382324E-01 -0.36660410523E-01 -0.37126299493E-01  0.55493522547E-01  0.51100000000E-03 0.  1.
</event>
<event>
 8    1  0.1109553E+005  0.1043930E+01  0.7957747E-01            NaN
         13   -1    0    0    0    0  0.00000000000E+00  0.00000000000E+00  0.74505805969E-08  0.10566000000E+00  0.10566000000E+00 0.  1.
     999900   -1    0    0    0    0 -0.00000000000E+00 -0.00000000000E+00 -0.74505805969E-08  0.93827000000E+00  0.93827000000E+00 0.  1.
     999902    2    1    2    0    0  0.18223422724E-01  0.12578931759E-01  0.10004229836E-01  0.10196317022E+01  0.10193421412E+01 0.  0.
     999903    2    3    3    0    0 -0.87298459814E-01 -0.73782101399E-01 -0.51674899221E-01  0.12699660842E+00  0.19824827043E-01 0.  0.
         14    1    1    2    0    0 -0.18223422724E-01 -0.12578931759E-01 -0.10004229836E-01  0.24298297771E-01  0.00000000000E+00 0. -1.
     999901    1    3    3    0    0  0.10552188254E+00  0.86361033158E-01  0.61679129056E-01  0.89263509381E+00  0.88000000000E+00 0.  1.
        -11    1    4    4    0    0 -0.54160258575E-01 -0.35282140941E-01 -0.22678687919E-01  0.68503628262E-01  0.51100000000E-03 0.  1.
         11    1    4    4    0    0 -0.33138201239E-01 -0.38499960459E-01 -0.28996211302E-01  0.58492980156E-01  0.51100000000E-03 0. -1.
</event>
<event>
 8    1  0.1109553E+005  0.1043930E+01  0.7957747E-01            NaN
         13   -1    0    0    0    0  0.00000000000E+00  0.00000000000E+00  0.74505805969E-08  0.10566000000E+00  0.10566000000E+00 0.  1.
     999900   -1    0    0    0    0 -0.00000000000E+00 -0.00000000000E+00 -0.74505805969E-08  0.93827000000E+00  0.93827000000E+00 0. -1.
     999902    2    1    2    0    0  0.28292404012E-02 -0.15496561909E-01 -0.17389417902E-01  0.10204664136E+01  0.10201966288E+01 0.  0.
     999903    2    3    3    0    0  0.40683192105E-01  0.11431768589E+00 -0.41426239100E-01  0.12981360280E+00  0.20292431105E-01 0.  0.
         14    1    1    2    0    0 -0.28292404012E-02  0.15496561909E-01  0.17389417902E-01  0.23463586410E-01  0.00000000000E+00 0.  1.
     999901    1    3    3    0    0 -0.37853951704E-01 -0.12981424780E+00  0.24036821199E-01  0.89065281079E+00  0.88000000000E+00 0. -1.
        -11    1    4    4    0    0  0.75620316501E-02  0.31931474160E-01 -0.26669320061E-02  0.32926843335E-01  0.51100000000E-03 0.  1.
         11    1    4    4    0    0  0.33121160455E-01  0.82386211728E-01 -0.38759307094E-01  0.96886759468E-01  0.51100000000E-03 0. -1.
</event>
<event>
 8    1  0.1109553E+005  0.1043930E+01  0.7957747E-01            NaN
         13   -1    0    0    0    0  0.00000000000E+00  0.00000000000E+00  0.74505805969E-08  0.10566000000E+00  0.10566000000E+00 0. -1.
     999900   -1    0    0    0    0 -0.00000000000E+00 -0.00000000000E+00 -0.74505805969E-08  0.93827000000E+00  0.93827000000E+00 0. -1.
     999902    2    1    2    0    0  0.84170868154E-03 -0.12658896427E-02  0.23674312030E-01  0.10202069311E+01  0.10199310752E+01 0.  0.
     999903    2    3    3    0    0 -0.14989565769E-01 -0.10998105491E+00  0.69471560695E-01  0.13219397822E+00  0.18122654686E-01 0.  0.
         14    1    1    2    0    0 -0.84170868154E-03  0.12658896427E-02 -0.23674312030E-01  0.23723068945E-01  0.00000000000E+00 0.  1.
     999901    1    3    3    0    0  0.15831274450E-01  0.10871516526E+00 -0.45797248665E-01  0.88801295283E+00  0.88000000000E+00 0.  1.
        -11    1    4    4    0    0 -0.11094504508E-01 -0.57071924412E-01  0.46185249546E-01  0.74253828070E-01  0.51100000000E-03 0.  1.
         11    1    4    4    0    0 -0.38950612605E-02 -0.52909130495E-01  0.23286311149E-01  0.57940150154E-01  0.51100000000E-03 0. -1.
</event>
<event>
 8    1  0.1109553E+005  0.1043930E+01  0.7957747E-01            NaN
         13   -1    0    0    0    0  0.00000000000E+00  0.00000000000E+00  0.74505805969E-08  0.10566000000E+00  0.10566000000E+00 0.  1.
     999900   -1    0    0    0    0 -0.00000000000E+00 -0.00000000000E+00 -0.74505805969E-08  0.93827000000E+00  0.93827000000E+00 0.  1.
     999902    2    1    2    0    0 -0.13347474066E-01 -0.58651892919E-02  0.16569437512E-01  0.10218596178E+01  0.10216212492E+01 0.  0.
     999903    2    3    3    0    0 -0.89446821890E-02  0.96054006365E-01 -0.85035047483E-01  0.13015878326E+00  0.20099006946E-01 0.  0.
         14    1    1    2    0    0  0.13347474066E-01  0.58651892919E-02 -0.16569437512E-01  0.22070382163E-01  0.00000000000E+00 0. -1.
     999901    1    3    3    0    0 -0.44027918771E-02 -0.10191919566E+00  0.10160448500E+00  0.89170083458E+00  0.88000000000E+00 0. -1.
        -11    1    4    4    0    0 -0.49508636399E-02  0.48491751221E-01 -0.56189658225E-01  0.74387497603E-01  0.51100000000E-03 0.  1.
         11    1    4    4    0    0 -0.39938185491E-02  0.47562255144E-01 -0.28845389258E-01  0.55771285654E-01  0.51100000000E-03 0. -1.
</event>
<event>
 8    1  0.1109553E+005  0.1043930E+01  0.7957747E-01            NaN
         13   -1    0    0    0    0  0.00000000000E+00  0.00000000000E+00  0.74505805969E-08  0.10566000000E+00  0.10566000000E+00 0. -1.
     999900   -1    0    0    0    0 -0.00000000000E+00 -0.00000000000E+00 -0.74505805969E-08  0.93827000000E+00  0.93827000000E+00 0.  1.
     999902    2    1    2    0    0  0.11938673261E-01 -0.58181782342E-02 -0.19237138705E-01  0.10205537167E+01  0.10202859589E+01 0.  0.
     999903    2    3    3    0    0  0.59783514575E-01  0.10130759937E+00  0.50621422706E-01  0.13002281901E+00  0.22496815809E-01 0.  0.
         14    1    1    2    0    0 -0.11938673261E-01  0.58181782342E-02  0.19237138705E-01  0.23376283339E-01  0.00000000000E+00 0. -1.
     999901    1    3    3    0    0 -0.47844841313E-01 -0.10712577760E+00 -0.69858561411E-01  0.89053089765E+00  0.88000000000E+00 0.  1.
        -11    1    4    4    0    0  0.32823923734E-01  0.58793142368E-01  0.40787664964E-01  0.78726985800E-01  0.51100000000E-03 0.  1.
         11    1    4    4    0    0  0.26959590841E-01  0.42514457002E-01  0.98337577414E-02  0.51295833211E-01  0.51100000000E-03 0. -1.
</event>
<event>
 8    1  0.1109553E+005  0.1043930E+01  0.7957747E-01            NaN
         13   -1    0    0    0    0  0.00000000000E+00  0.00000000000E+00  0.74505805969E-08  0.10566000000E+00  0.10566000000E+00 0.  1.
     999900   -1    0    0    0    0 -0.00000000000E+00 -0.00000000000E+00 -0.74505805969E-08  0.93827000000E+00  0.93827000000E+00 0.  1.
     999902    2    1    2    0    0  0.14680127949E-01  0.18041675100E-01  0.42872355629E-02  0.10202786029E+01  0.10200044308E+01 0.  0.
     999903    2    3    3    0    0  0.21361139444E-01 -0.63415775950E-02  0.12782637293E+00  0.13128979677E+00  0.20022867814E-01 0.  0.
         14    1    1    2    0    0 -0.14680127949E-01 -0.18041675100E-01 -0.42872355629E-02  0.23651397121E-01  0.00000000000E+00 0. -1.
     999901    1    3    3    0    0 -0.66810114952E-02  0.24383252695E-01 -0.12353913736E+00  0.88898880611E+00  0.88000000000E+00 0.  1.
        -11    1    4    4    0    0  0.23026819982E-01 -0.15092467031E-03  0.88877910267E-01  0.91813949219E-01  0.51100000000E-03 0.  1.
         11    1    4    4    0    0 -0.16656805383E-02 -0.61906529247E-02  0.38948462659E-01  0.39475847550E-01  0.51100000000E-03 0. -1.
</event>
<event>
 8    1  0.1109553E+005  0.1043930E+01  0.7957747E-01            NaN
         13   -1    0    0    0    0  0.00000000000E+00  0.00000000000E+00  0.74505805969E-08  0.10566000000E+00  0.10566000000E+00 0.  1.
     999900   -1    0    0    0    0 -0.00000000000E+00 -0.00000000000E+00 -0.74505805969E-08  0.93827000000E+00  0.93827000000E+00 0.  1.
     999902    2    1    2    0    0 -0.25964927905E-02 -0.11074543433E-01  0.20801020331E-01  0.10202219901E+01  0.10199464885E+01 0.  0.
     999903    2    3    3    0    0  0.23523644158E-01  0.90633502413E-01 -0.83480824058E-01  0.12786472351E+00  0.24749665447E-01 0.  0.
         14    1    1    2    0    0  0.25964927905E-02  0.11074543433E-01 -0.20801020331E-01  0.23708009909E-01  0.00000000000E+00 0. -1.
     999901    1    3    3    0    0 -0.26120136949E-01 -0.10170804585E+00  0.10428184439E+00  0.89235726658E+00  0.88000000000E+00 0.  1.
        -11    1    4    4    0    0  0.12470820425E-01  0.61841047778E-01 -0.69906003660E-01  0.94164467932E-01  0.51100000000E-03 0.  1.
         11    1    4    4    0    0  0.11052823734E-01  0.28792454635E-01 -0.13574820398E-01  0.33700255581E-01  0.51100000000E-03 0. -1.
</event>
<event>
 8    1  0.1109553E+005  0.1043930E+01  0.7957747E-01            NaN
         13   -1    0    0    0    0  0.00000000000E+00  0.00000000000E+00  0.74505805969E-08  0.10566000000E+00  0.10566000000E+00 0. -1.
     999900   -1    0    0    0    0 -0.00000000000E+00 -0.00000000000E+00 -0.74505805969E-08  0.93827000000E+00  0.93827000000E+00 0.  1.
     999902    2    1    2    0    0  0.86252842237E-02 -0.36930926241E-02 -0.21798484776E-01  0.10201979879E+01  0.10199219216E+01 0.  0.
     999903    2    3    3    0    0  0.69264065134E-01 -0.10955468376E+00  0.68376749231E-02  0.13132017407E+00  0.19962336181E-01 0.  0.
         14    1    1    2    0    0 -0.86252842237E-02  0.36930926241E-02  0.21798484776E-01  0.23732012127E-01  0.00000000000E+00 0. -1.
     999901    1    3    3    0    0 -0.60638780910E-01  0.10586159114E+00 -0.28636159699E-01  0.88887781380E+00  0.88000000000E+00 0. -1.
        -11    1    4    4    0    0  0.23244466002E-01 -0.25816985269E-01  0.84471270930E-02  0.35755237452E-01  0.51100000000E-03 0.  1.
         11    1    4    4    0    0  0.46019599132E-01 -0.83737698495E-01 -0.16094521699E-02  0.95564936618E-01  0.51100000000E-03 0. -1.
</event>
<event>
 8    1  0.1109553E+005  0.1043930E+01  0.7957747E-01            NaN
         13   -1    0    0    0    0  0.00000000000E+00  0.00000000000E+00  0.74505805969E-08  0.10566000000E+00  0.10566000000E+00 0. -1.
     999900   -1    0    0    0    0 -0.00000000000E+00 -0.00000000000E+00 -0.74505805969E-08  0.93827000000E+00  0.93827000000E+00 0.  1.
     999902    2    1    2    0    0 -0.71791337424E-02 -0.17783263456E-01 -0.13697771136E-01  0.10203627907E+01  0.10200905897E+01 0.  0.
     999903    2    3    3    0    0 -0.61012525058E-01 -0.56739435433E-02 -0.11604648167E+00  0.13271425203E+00  0.19787999724E-01 0.  0.
         14    1    1    2    0    0  0.71791337424E-02  0.17783263456E-01  0.13697771136E-01  0.23567209307E-01  0.00000000000E+00 0. -1.
     999901    1    3    3    0    0  0.53833391316E-01 -0.12109319913E-01  0.10234871054E+00  0.88764853867E+00  0.88000000000E+00 0. -1.
        -11    1    4    4    0    0 -0.19795257636E-01  0.71528063580E-02 -0.33653839679E-01  0.39697064246E-01  0.51100000000E-03 0. -1.
         11    1    4    4    0    0 -0.41217267422E-01 -0.12826749901E-01 -0.82392641993E-01  0.93017187779E-01  0.51100000000E-03 0.  1.
</event>
<event>
 8    1  0.1109553E+005  0.1043930E+01  0.7957747E-01            NaN
         13   -1    0    0    0    0  0.00000000000E+00  0.00000000000E+00  0.74505805969E-08  0.10566000000E+00  0.10566000000E+00 0. -1.
     999900   -1    0    0    0    0 -0.00000000000E+00 -0.00000000000E+00 -0.74505805969E-08  0.93827000000E+00  0.93827000000E+00 0.  1.
     999902    2    1    2    0    0  0.43481599703E-02  0.10624029273E-01 -0.22232990078E-01  0.10189083625E+01  0.10186010843E+01 0.  0.
     999903    2    3    3    0    0 -0.26909700806E-01  0.35555420708E-01 -0.12289274460E+00  0.13226806664E+00  0.20097135078E-01 0.  0.
         14    1    1    2    0    0 -0.43481599703E-02 -0.10624029273E-01  0.22232990078E-01  0.25021637455E-01  0.00000000000E+00 0. -1.
     999901    1    3    3    0    0  0.31257860777E-01 -0.24931391436E-01  0.10065975452E+00  0.88664029590E+00  0.88000000000E+00 0. -1.
        -11    1    4    4    0    0 -0.60620394709E-02  0.23955453007E-01 -0.54826374895E-01  0.60139874929E-01  0.51100000000E-03 0.  1.
         11    1    4    4    0    0 -0.20847661335E-01  0.11599967701E-01 -0.68066369706E-01  0.72128191713E-01  0.51100000000E-03 0. -1.
</event>
<event>
 8    1  0.1109553E+005  0.1043930E+01  0.7957747E-01            NaN
         13   -1    0    0    0    0  0.00000000000E+00  0.00000000000E+00  0.74505805969E-08  0.10566000000E+00  0.10566000000E+00 0. -1.
     999900   -1    0    0    0    0 -0.00000000000E+00 -0.00000000000E+00 -0.74505805969E-08  0.93827000000E+00  0.93827000000E+00 0. -1.
     999902    2    1    2    0    0 -0.99289762978E-02  0.11462296363E-01  0.19003610319E-01  0.10196173281E+01  0.10193274203E+01 0.  0.
     999903    2    3    3    0    0 -0.11816355294E+00  0.53326798348E-01 -0.37694118867E-02  0.13170631308E+00  0.22934074500E-01 0.  0.
         14    1    1    2    0    0  0.99289762978E-02 -0.11462296363E-01 -0.19003610319E-01  0.24312671868E-01  0.00000000000E+00 0. -1.
     999901    1    3    3    0    0  0.10823457665E+00 -0.41864501985E-01  0.22773022205E-01  0.88791101505E+00  0.88000000000E+00 0. -1.
        -11    1    4    4    0    0 -0.22797226542E-01  0.71689015643E-02 -0.92094744448E-02  0.25616054111E-01  0.51100000000E-03 0. -1.
         11    1    4    4    0    0 -0.95366326401E-01  0.46157896784E-01  0.54400625581E-02  0.10609025897E+00  0.51100000000E-03 0.  1.
</event>
<event>
 8    1  0.1109553E+005  0.1043930E+01  0.7957747E-01            NaN
         13   -1    0    0    0    0  0.00000000000E+00  0.00000000000E+00  0.74505805969E-08  0.10566000000E+00  0.10566000000E+00 0.  1.
     999900   -1    0    0    0    0 -0.00000000000E+00 -0.00000000000E+00 -0.74505805969E-08  0.93827000000E+00  0.93827000000E+00 0.  1.
     999902    2    1    2    0    0 -0.72198758540E-02  0.52406033897E-02  0.20326305120E-01  0.10217320449E+01  0.10214908822E+01 0.  0.
     999903    2    3    3    0    0 -0.12072019307E-01 -0.11831656469E+00  0.54610550384E-01  0.13242595217E+00  0.20242960836E-01 0.  0.
         14    1    1    2    0    0  0.72198758540E-02 -0.52406033897E-02 -0.20326305120E-01  0.22197955110E-01  0.00000000000E+00 0. -1.
     999901    1    3    3    0    0  0.48521434534E-02  0.12355716808E+00 -0.34284245265E-01  0.88930609272E+00  0.88000000000E+00 0.  1.
        -11    1    4    4    0    0  0.22776287213E-02 -0.38920013228E-01  0.25794500582E-01  0.46750105920E-01  0.51100000000E-03 0.  1.
         11    1    4    4    0    0 -0.14349648029E-01 -0.79396551464E-01  0.28816049802E-01  0.85675846247E-01  0.51100000000E-03 0. -1.
</event>
<event>
 8    1  0.1109553E+005  0.1043930E+01  0.7957747E-01            NaN
         13   -1    0    0    0    0  0.00000000000E+00  0.00000000000E+00  0.74505805969E-08  0.10566000000E+00  0.10566000000E+00 0. -1.
     999900   -1    0    0    0    0 -0.00000000000E+00 -0.00000000000E+00 -0.74505805969E-08  0.93827000000E+00  0.93827000000E+00 0.  1.
     999902    2    1    2    0    0  0.16878352221E-01 -0.16682906477E-01 -0.31888866915E-02  0.10199849141E+01  0.10197038088E+01 0.  0.
     999903    2    3    3    0    0 -0.95817644324E-01 -0.55284015274E-01  0.64167561880E-01  0.12940795254E+00  0.19788857300E-01 0.  0.
         14    1    1    2    0    0 -0.16878352221E-01  0.16682906477E-01  0.31888866915E-02  0.23945085938E-01  0.00000000000E+00 0. -1.
     999901    1    3    3    0    0  0.11269599654E+00  0.38601108797E-01 -0.67356448572E-01  0.89057696153E+00  0.88000000000E+00 0.  1.
        -11    1    4    4    0    0 -0.83808050488E-01 -0.45375955482E-01  0.61958627946E-01  0.11367453259E+00  0.51100000000E-03 0. -1.
         11    1    4    4    0    0 -0.12009593836E-01 -0.99080597921E-02  0.22089339348E-02  0.15733419942E-01  0.51100000000E-03 0.  1.
</event>
<event>
 8    1  0.1109553E+005  0.1043930E+01  0.7957747E-01            NaN
         13   -1    0    0    0    0  0.00000000000E+00  0.00000000000E+00  0.74505805969E-08  0.10566000000E+00  0.10566000000E+00 0.  1.
     999900   -1    0    0    0    0 -0.00000000000E+00 -0.00000000000E+00 -0.74505805969E-08  0.93827000000E+00  0.93827000000E+00 0.  1.
     999902    2    1    2    0    0  0.13825332743E-01 -0.15698677071E-01 -0.11886796636E-01  0.10198699871E+01  0.10195861446E+01 0.  0.
     999903    2    3    3    0    0 -0.13610482152E-03  0.29622749880E-01  0.12316756161E+00  0.12830471569E+00  0.20354999378E-01 0.  0.
         14    1    1    2    0    0 -0.13825332743E-01  0.15698677071E-01  0.11886796636E-01  0.24060012916E-01  0.00000000000E+00 0.  1.
     999901    1    3    3    0    0  0.13961437564E-01 -0.45321426951E-01 -0.13505435825E+00  0.89156527140E+00  0.88000000000E+00 0.  1.
        -11    1    4    4    0    0 -0.12049786094E-02  0.56029474646E-02  0.66457749907E-01  0.66706361297E-01  0.51100000000E-03 0. -1.
         11    1    4    4    0    0  0.10688737879E-02  0.24019802415E-01  0.56709811703E-01  0.61598354390E-01  0.51100000000E-03 0.  1.
</event>
<event>
 8    1  0.1109553E+005  0.1043930E+01  0.7957747E-01            NaN
         13   -1    0    0    0    0  0.00000000000E+00  0.00000000000E+00  0.74505805969E-08  0.10566000000E+00  0.10566000000E+00 0. -1.
     999900   -1    0    0    0    0 -0.00000000000E+00 -0.00000000000E+00 -0.74505805969E-08  0.93827000000E+00  0.93827000000E+00 0.  1.
     999902    2    1    2    0    0 -0.20172926214E-01  0.44910537284E-02 -0.10927804721E-01  0.10205519455E+01  0.10202841467E+01 0.  0.
     999903    2    3    3    0    0 -0.96214314307E-01  0.71909791847E-01  0.52459514236E-01  0.13243847801E+00  0.18966744128E-01 0.  0.
         14    1    1    2    0    0  0.20172926214E-01 -0.44910537284E-02  0.10927804721E-01  0.23378054488E-01  0.00000000000E+00 0. -1.
     999901    1    3    3    0    0  0.76041388093E-01 -0.67418738118E-01 -0.63387318957E-01  0.88811346750E+00  0.88000000000E+00 0.  1.
        -11    1    4    4    0    0 -0.27582033203E-01  0.23138838163E-01  0.67496949762E-02  0.36633234779E-01  0.51100000000E-03 0.  1.
         11    1    4    4    0    0 -0.68632281104E-01  0.48770953684E-01  0.45709819260E-01  0.95805243231E-01  0.51100000000E-03 0. -1.
</event>
<event>
 8    1  0.1109553E+005  0.1043930E+01  0.7957747E-01            NaN
         13   -1    0    0    0    0  0.00000000000E+00  0.00000000000E+00  0.74505805969E-08  0.10566000000E+00  0.10566000000E+00 0. -1.
     999900   -1    0    0    0    0 -0.00000000000E+00 -0.00000000000E+00 -0.74505805969E-08  0.93827000000E+00  0.93827000000E+00 0.  1.
     999902    2    1    2    0    0  0.19137621938E-01  0.33521038034E-02  0.22149570946E-02  0.10243751743E+01  0.10241885112E+01 0.  0.
     999903    2    3    3    0    0 -0.12459342415E+00  0.15320855263E-01 -0.35470156405E-01  0.13183832217E+00  0.19103959002E-01 0.  0.
         14    1    1    2    0    0 -0.19137621938E-01 -0.33521038034E-02 -0.22149570946E-02  0.19554825703E-01  0.00000000000E+00 0. -1.
     999901    1    3    3    0    0  0.14373104609E+00 -0.11968751459E-01  0.37685113500E-01  0.89253685213E+00  0.88000000000E+00 0.  1.
        -11    1    4    4    0    0 -0.37369638595E-01 -0.29541219043E-02 -0.15128725849E-01  0.40427171454E-01  0.51100000000E-03 0.  1.
         11    1    4    4    0    0 -0.87223785557E-01  0.18274977167E-01 -0.20341430556E-01  0.91411150717E-01  0.51100000000E-03 0. -1.
</event>
<event>
 8    1  0.1109553E+005  0.1043930E+01  0.7957747E-01            NaN
         13   -1    0    0    0    0  0.00000000000E+00  0.00000000000E+00  0.74505805969E-08  0.10566000000E+00  0.10566000000E+00 0.  1.
     999900   -1    0    0    0    0 -0.00000000000E+00 -0.00000000000E+00 -0.74505805969E-08  0.93827000000E+00  0.93827000000E+00 0. -1.
     999902    2    1    2    0    0  0.15041991848E-01 -0.42985172543E-02  0.17183294182E-01  0.10206920059E+01  0.10204274431E+01 0.  0.
     999903    2    3    3    0    0 -0.29735996404E-01  0.10823483215E-01  0.12702612985E+00  0.13260462753E+00  0.21141719581E-01 0.  0.
         14    1    1    2    0    0 -0.15041991848E-01  0.42985172543E-02 -0.17183294182E-01  0.23237994068E-01  0.00000000000E+00 0. -1.
     999901    1    3    3    0    0  0.44777988253E-01 -0.15122000470E-01 -0.10984283567E+00  0.88808737840E+00  0.88000000000E+00 0. -1.
        -11    1    4    4    0    0  0.28806206950E-02  0.22028679164E-02  0.21680355330E-01  0.21987485779E-01  0.51100000000E-03 0. -1.
         11    1    4    4    0    0 -0.32616617099E-01  0.86206152989E-02  0.10534577452E+00  0.11061714175E+00  0.51100000000E-03 0.  1.
</event>
<event>
 8    1  0.1109553E+005  0.1043930E+01  0.7957747E-01            NaN
         13   -1    0    0    0    0  0.00000000000E+00  0.00000000000E+00  0.74505805969E-08  0.10566000000E+00  0.10566000000E+00 0. -1.
     999900   -1    0    0    0    0 -0.00000000000E+00 -0.00000000000E+00 -0.74505805969E-08  0.93827000000E+00  0.93827000000E+00 0.  1.
     999902    2    1    2    0    0 -0.13498843043E-01  0.14605711563E-01 -0.12610089897E-01  0.10203809036E+01  0.10201091258E+01 0.  0.
     999903    2    3    3    0    0  0.11720462248E+00  0.29913958790E-01 -0.43244298926E-01  0.13006849041E+00  0.20395449144E-01 0.  0.
         14    1    1    2    0    0  0.13498843043E-01 -0.14605711563E-01  0.12610089897E-01  0.23549096394E-01  0.00000000000E+00 0. -1.
     999901    1    3    3    0    0 -0.13070346552E+00 -0.15308247227E-01  0.30634209029E-01  0.89031241320E+00  0.88000000000E+00 0.  1.
        -11    1    4    4    0    0  0.41650949093E-01  0.69813886069E-02 -0.56326484747E-02  0.42609027178E-01  0.51100000000E-03 0. -1.
         11    1    4    4    0    0  0.75553673388E-01  0.22932570183E-01 -0.37611650451E-01  0.87459463229E-01  0.51100000000E-03 0.  1.
</event>
<event>
 8    1  0.1109553E+005  0.1043930E+01  0.7957747E-01            NaN
         13   -1    0    0    0    0  0.00000000000E+00  0.00000000000E+00  0.74505805969E-08  0.10566000000E+00  0.10566000000E+00 0. -1.
     999900   -1    0    0    0    0 -0.00000000000E+00 -0.00000000000E+00 -0.74505805969E-08  0.93827000000E+00  0.93827000000E+00 0.  1.
     999902    2    1    2    0    0  0.21624404599E-01 -0.72468482882E-02  0.62802812141E-02  0.10202746916E+01  0.10200004278E+01 0.  0.
     999903    2    3    3    0    0 -0.84230467935E-01  0.85858855901E-01 -0.38841215137E-01  0.12791272711E+00  0.19659880444E-01 0.  0.
         14    1    1    2    0    0 -0.21624404599E-01  0.72468482882E-02 -0.62802812141E-02  0.23655308422E-01  0.00000000000E+00 0.  1.
     999901    1    3    3    0    0  0.10585487253E+00 -0.93105704189E-01  0.45121496351E-01  0.89236196447E+00  0.88000000000E+00 0.  1.
        -11    1    4    4    0    0 -0.28104751247E-01  0.26480690730E-01 -0.31387941519E-02  0.38745543924E-01  0.51100000000E-03 0.  1.
         11    1    4    4    0    0 -0.56125716687E-01  0.59378165170E-01 -0.35702420986E-01  0.89167183189E-01  0.51100000000E-03 0. -1.
</event>
<event>
 8    1  0.1109553E+005  0.1043930E+01  0.7957747E-01            NaN
         13   -1    0    0    0    0  0.00000000000E+00  0.00000000000E+00  0.74505805969E-08  0.10566000000E+00  0.10566000000E+00 0. -1.
     999900   -1    0    0    0    0 -0.00000000000E+00 -0.00000000000E+00 -0.74505805969E-08  0.93827000000E+00  0.93827000000E+00 0.  1.
     999902    2    1    2    0    0 -0.22687410789E-01  0.15600287679E-02  0.41967513195E-03  0.10211851451E+01  0.10209318156E+01 0.  0.
     999903    2    3    3    0    0 -0.61956706457E-01  0.10035071987E-01  0.11549086645E+00  0.13278473816E+00  0.18823132357E-01 0.  0.
         14    1    1    2    0    0  0.22687410789E-01 -0.15600287679E-02 -0.41967513195E-03  0.22744854919E-01  0.00000000000E+00 0. -1.
     999901    1    3    3    0    0  0.39269295669E-01 -0.84750432196E-02 -0.11507119132E+00  0.88840040692E+00  0.88000000000E+00 0.  1.
        -11    1    4    4    0    0 -0.26709729725E-01  0.13742068099E-01  0.50705015651E-01  0.58936523742E-01  0.51100000000E-03 0.  1.
         11    1    4    4    0    0 -0.35246976732E-01 -0.37069961116E-02  0.64785850796E-01  0.73848214422E-01  0.51100000000E-03 0. -1.
</event>
<event>
 8    1  0.1109553E+005  0.1043930E+01  0.7957747E-01            NaN
         13   -1    0    0    0    0  0.00000000000E+00  0.00000000000E+00  0.74505805969E-08  0.10566000000E+00  0.10566000000E+00 0. -1.
     999900   -1    0    0    0    0 -0.00000000000E+00 -0.00000000000E+00 -0.74505805969E-08  0.93827000000E+00  0.93827000000E+00 0. -1.
     999902    2    1    2    0    0 -0.18186687545E-01  0.70634186055E-02 -0.13757868570E-01  0.10200568680E+01  0.10197774696E+01 0.  0.
     999903    2    3    3    0    0  0.11114590575E+00 -0.54297274885E-01 -0.26882098198E-01  0.12839308614E+00  0.21459984585E-01 0.  0.
         14    1    1    2    0    0  0.18186687545E-01 -0.70634186055E-02  0.13757868570E-01  0.23873132049E-01  0.00000000000E+00 0. -1.
     999901    1    3    3    0    0 -0.12933259330E+00  0.61360693491E-01  0.13124229628E-01  0.89166378181E+00  0.88000000000E+00 0.  1.
        -11    1    4    4    0    0  0.46157385526E-01 -0.17113362676E-01 -0.12330421435E-02  0.49245841800E-01  0.51100000000E-03 0. -1.
         11    1    4    4    0    0  0.64988520228E-01 -0.37183912209E-01 -0.25649056054E-01  0.79147244337E-01  0.51100000000E-03 0.  1.
</event>
<event>
 8    1  0.1109553E+005  0.1043930E+01  0.7957747E-01            NaN
         13   -1    0    0    0    0  0.00000000000E+00  0.00000000000E+00  0.74505805969E-08  0.10566000000E+00  0.10566000000E+00 0. -1.
     999900   -1    0    0    0    0 -0.00000000000E+00 -0.00000000000E+00 -0.74505805969E-08  0.93827000000E+00  0.93827000000E+00 0. -1.
     999902    2    1    2    0    0 -0.57798115495E-02 -0.20342252999E-01 -0.89855787521E-02  0.10209527481E+01  0.10206941558E+01 0.  0.
     999903    2    3    3    0    0 -0.59974252813E-01  0.35278296484E-01  0.10777897560E+00  0.12984969900E+00  0.20079032481E-01 0.  0.
         14    1    1    2    0    0  0.57798115495E-02  0.20342252999E-01  0.89855787521E-02  0.22977251884E-01  0.00000000000E+00 0. -1.
     999901    1    3    3    0    0  0.54194441263E-01 -0.55620549483E-01 -0.11676455435E+00  0.89110304912E+00  0.88000000000E+00 0. -1.
        -11    1    4    4    0    0  0.16447069574E-03  0.46202167376E-02  0.10041563239E-01  0.11066506521E-01  0.51100000000E-03 0.  1.
         11    1    4    4    0    0 -0.60138723509E-01  0.30658079746E-01  0.97737412364E-01  0.11878319248E+00  0.51100000000E-03 0. -1.
</event>
<event>
 8    1  0.1109553E+005  0.1043930E+01  0.7957747E-01            NaN
         13   -1    0    0    0    0  0.00000000000E+00  0.00000000000E+00  0.74505805969E-08  0.10566000000E+00  0.10566000000E+00 0.  1.
     999900   -1    0    0    0    0 -0.00000000000E+00 -0.00000000000E+00 -0.74505805969E-08  0.93827000000E+00  0.93827000000E+00 0.  1.
     999902    2    1    2    0    0  0.32560156730E-02  0.55955048693E-02 -0.22129157973E-01  0.10208733102E+01  0.10206129063E+01 0.  0.
     999903    2    3    3    0    0  0.82276590394E-01 -0.39625154186E-01  0.89468286518E-01  0.12916531490E+00  0.18425908645E-01 0.  0.
         14    1    1    2    0    0 -0.32560156730E-02 -0.55955048693E-02  0.22129157973E-01  0.23056689818E-01  0.00000000000E+00 0.  1.
     999901    1    3    3    0    0 -0.79020574721E-01  0.45220659055E-01 -0.11159744449E+00  0.89170799528E+00  0.88000000000E+00 0.  1.
        -11    1    4    4    0    0  0.56092140804E-01 -0.33680324661E-01  0.71129274746E-01  0.96645369139E-01  0.51100000000E-03 0.  1.
         11    1    4    4    0    0  0.26184449590E-01 -0.59448295242E-02  0.18339011772E-01  0.32519945759E-01  0.51100000000E-03 0. -1.
</event>
<event>
 8    1  0.1109553E+005  0.1043930E+01  0.7957747E-01            NaN
         13   -1    0    0    0    0  0.00000000000E+00  0.00000000000E+00  0.74505805969E-08  0.10566000000E+00  0.10566000000E+00 0.  1.
     999900   -1    0    0    0    0 -0.00000000000E+00 -0.00000000000E+00 -0.74505805969E-08  0.93827000000E+00  0.93827000000E+00 0. -1.
     999902    2    1    2    0    0 -0.20449683072E-01  0.84209420065E-02 -0.74150737738E-02  0.10206043677E+01  0.10203377825E+01 0.  0.
     999903    2    3    3    0    0 -0.10462535416E-01  0.12352441888E+00 -0.41833363307E-01  0.13238526629E+00  0.20201033073E-01 0.  0.
         14    1    1    2    0    0  0.20449683072E-01 -0.84209420065E-02  0.74150737738E-02  0.23325632276E-01  0.00000000000E+00 0. -1.
     999901    1    3    3    0    0 -0.99871476554E-02 -0.11510347687E+00  0.34418289534E-01  0.88821910144E+00  0.88000000000E+00 0.  1.
        -11    1    4    4    0    0  0.57341817874E-02  0.46923282029E-01 -0.17161512288E-01  0.50293676164E-01  0.51100000000E-03 0.  1.
         11    1    4    4    0    0 -0.16196717204E-01  0.76601136850E-01 -0.24671851019E-01  0.82091590121E-01  0.51100000000E-03 0. -1.
</event>
<event>
 8    1  0.1109553E+005  0.1043930E+01  0.7957747E-01            NaN
         13   -1    0    0    0    0  0.00000000000E+00  0.00000000000E+00  0.74505805969E-08  0.10566000000E+00  0.10566000000E+00 0. -1.
     999900   -1    0    0    0    0 -0.00000000000E+00 -0.00000000000E+00 -0.74505805969E-08  0.93827000000E+00  0.93827000000E+00 0.  1.
     999902    2    1    2    0    0 -0.97518371284E-02 -0.14646786154E-01  0.15987263286E-01  0.10201556596E+01  0.10198785960E+01 0.  0.
     999903    2    3    3    0    0  0.53408685571E-01  0.75251324037E-01 -0.85844710815E-01  0.12749633336E+00  0.19254900226E-01 0.  0.
         14    1    1    2    0    0  0.97518371284E-02  0.14646786154E-01 -0.15987263286E-01  0.23774340357E-01  0.00000000000E+00 0.  1.
     999901    1    3    3    0    0 -0.63160522699E-01 -0.89898110191E-01  0.10183197410E+00  0.89265932628E+00  0.88000000000E+00 0. -1.
        -11    1    4    4    0    0  0.45382526683E-01  0.59867396271E-01 -0.78472579980E-01  0.10863648464E+00  0.51100000000E-03 0.  1.
         11    1    4    4    0    0  0.80261588872E-02  0.15383927766E-01 -0.73721308353E-02  0.18859848728E-01  0.51100000000E-03 0. -1.
</event>
<event>
 8    1  0.1109553E+005  0.1043930E+01  0.7957747E-01            NaN
         13   -1    0    0    0    0  0.00000000000E+00  0.00000000000E+00  0.74505805969E-08  0.10566000000E+00  0.10566000000E+00 0. -1.
     999900   -1    0    0    0    0 -0.00000000000E+00 -0.00000000000E+00 -0.74505805969E-08  0.93827000000E+00  0.93827000000E+00 0.  1.
     999902    2    1    2    0    0 -0.14561301587E-01 -0.13430952181E-01 -0.13123493217E-01  0.10201676757E+01  0.10198908954E+01 0.  0.
     999903    2    3    3    0    0  0.11320554938E+00  0.41949267775E-01 -0.40448904620E-01  0.12879905665E+00  0.19438251782E-01 0.  0.
         14    1    1    2    0    0  0.14561301587E-01  0.13430952181E-01  0.13123493217E-01  0.23762324268E-01  0.00000000000E+00 0. -1.
     999901    1    3    3    0    0 -0.12776685097E+00 -0.55380219956E-01  0.27325411403E-01  0.89136861908E+00  0.88000000000E+00 0.  1.
        -11    1    4    4    0    0  0.51613299966E-01  0.21522724253E-01 -0.28675289365E-01  0.62846588880E-01  0.51100000000E-03 0. -1.
         11    1    4    4    0    0  0.61592249415E-01  0.20426543521E-01 -0.11773615255E-01  0.65952467773E-01  0.51100000000E-03 0.  1.
</event>
<event>
 8    1  0.1109553E+005  0.1043930E+01  0.7957747E-01            NaN
         13   -1    0    0    0    0  0.00000000000E+00  0.00000000000E+00  0.74505805969E-08  0.10566000000E+00  0.10566000000E+00 0. -1.
     999900   -1    0    0    0    0 -0.00000000000E+00 -0.00000000000E+00 -0.74505805969E-08  0.93827000000E+00  0.93827000000E+00 0.  1.
     999902    2    1    2    0    0 -0.17154931096E-01 -0.18786502142E-01 -0.18446261019E-02  0.10184226095E+01  0.10181031306E+01 0.  0.
     999903    2    3    3    0    0 -0.66041103340E-01 -0.78534034653E-01 -0.80004665819E-01  0.13159195078E+00  0.19664003339E-01 0.  0.
         14    1    1    2    0    0  0.17154931096E-01  0.18786502142E-01  0.18446261019E-02  0.25507390480E-01  0.00000000000E+00 0.  1.
     999901    1    3    3    0    0  0.48886172244E-01  0.59747532511E-01  0.78160039717E-01  0.88683065874E+00  0.88000000000E+00 0. -1.
        -11    1    4    4    0    0 -0.14915862480E-01 -0.70645254292E-02 -0.14713519964E-01  0.22116493026E-01  0.51100000000E-03 0.  1.
         11    1    4    4    0    0 -0.51125240860E-01 -0.71469509224E-01 -0.65291145855E-01  0.10947545775E+00  0.51100000000E-03 0. -1.
</event>
<event>
 7    1  0.1109553E+005  0.1043930E+01  0.7957747E-01            NaN
         13   -1    0    0    0    0  0.00000000000E+00  0.00000000000E+00  0.74505805969E-08  0.10566000000E+00  0.10566000000E+00 0. -1.
     999900   -1    0    0    0    0 -0.00000000000E+00 -0.00000000000E+00 -0.74505805969E-08  0.93827000000E+00  0.93827000000E+00 0. -1.
     999903    2    1    2    0    0  0.30128069380E-01 -0.14313876132E+00 -0.14695193204E-01  0.14874069517E+00  0.22615042360E-01 0.  0.
         14    1    1    2    0    0 -0.20864110627E-02 -0.83305420254E-03 -0.18275989777E-02  0.28960677565E-02  0.00000000000E+00 0.  1.
     999901    1    1    2    0    0 -0.28041658318E-01  0.14397181552E+00  0.16522792182E-01  0.89229323707E+00  0.88000000000E+00 0.  1.
        -11    1    3    3    0    0  0.15408014437E-01 -0.29090399460E-01 -0.10643064578E-02  0.32940129308E-01  0.51100000000E-03 0.  1.
         11    1    3    3    0    0  0.14720054944E-01 -0.11404836186E+00 -0.13630886747E-01  0.11580056586E+00  0.51100000000E-03 0. -1.
</event>
<event>
 8    1  0.1109553E+005  0.1043930E+01  0.7957747E-01            NaN
         13   -1    0    0    0    0  0.00000000000E+00  0.00000000000E+00  0.74505805969E-08  0.10566000000E+00  0.10566000000E+00 0. -1.
     999900   -1    0    0    0    0 -0.00000000000E+00 -0.00000000000E+00 -0.74505805969E-08  0.93827000000E+00  0.93827000000E+00 0. -1.
     999902    2    1    2    0    0 -0.37549833887E-02  0.18979857988E-01 -0.13767526303E-01  0.10201838489E+01  0.10199074497E+01 0.  0.
     999903    2    3    3    0    0 -0.16919380931E-01  0.74028568179E-01 -0.10791494308E+00  0.13335387767E+00  0.19264666950E-01 0.  0.
         14    1    1    2    0    0  0.37549833887E-02 -0.18979857988E-01  0.13767526303E-01  0.23746151056E-01  0.00000000000E+00 0.  1.
     999901    1    3    3    0    0  0.13164397543E-01 -0.55048710191E-01  0.94147416778E-01  0.88682997127E+00  0.88000000000E+00 0.  1.
        -11    1    4    4    0    0 -0.11047483036E-01  0.14267223726E-01 -0.29522195549E-01  0.34603781662E-01  0.51100000000E-03 0. -1.
         11    1    4    4    0    0 -0.58718978958E-02  0.59761344453E-01 -0.78392747532E-01  0.98750096012E-01  0.51100000000E-03 0.  1.
</event>
<event>
 8    1  0.1109553E+005  0.1043930E+01  0.7957747E-01            NaN
         13   -1    0    0    0    0  0.00000000000E+00  0.00000000000E+00  0.74505805969E-08  0.10566000000E+00  0.10566000000E+00 0.  1.
     999900   -1    0    0    0    0 -0.00000000000E+00 -0.00000000000E+00 -0.74505805969E-08  0.93827000000E+00  0.93827000000E+00 0. -1.
     999902    2    1    2    0    0 -0.11375408231E-01 -0.16809474241E-01 -0.12098309946E-01  0.10203010466E+01  0.10200274007E+01 0.  0.
     999903    2    3    3    0    0  0.47742084898E-01 -0.74772846051E-01  0.92236190142E-01  0.13027839609E+00  0.24385662547E-01 0.  0.
         14    1    1    2    0    0  0.11375408231E-01  0.16809474241E-01  0.12098309946E-01  0.23628953430E-01  0.00000000000E+00 0.  1.
     999901    1    3    3    0    0 -0.59117493129E-01  0.57963371810E-01 -0.10433450009E+00  0.89002265048E+00  0.88000000000E+00 0. -1.
        -11    1    4    4    0    0  0.35134868349E-01 -0.41630817608E-01  0.68861504220E-01  0.87805192517E-01  0.51100000000E-03 0.  1.
         11    1    4    4    0    0  0.12607216550E-01 -0.33142028443E-01  0.23374685923E-01  0.42473203569E-01  0.51100000000E-03 0. -1.
</event>
<event>
 8    1  0.1109553E+005  0.1043930E+01  0.7957747E-01            NaN
         13   -1    0    0    0    0  0.00000000000E+00  0.00000000000E+00  0.74505805969E-08  0.10566000000E+00  0.10566000000E+00 0. -1.
     999900   -1    0    0    0    0 -0.00000000000E+00 -0.00000000000E+00 -0.74505805969E-08  0.93827000000E+00  0.93827000000E+00 0. -1.
     999902    2    1    2    0    0  0.21141596245E-01 -0.50171241810E-02  0.88736983084E-02  0.10204591426E+01  0.10201891886E+01 0.  0.
     999903    2    3    3    0    0  0.83604492848E-02  0.12791792908E+00  0.14420031343E-01  0.13036597446E+00  0.18827009887E-01 0.  0.
         14    1    1    2    0    0 -0.21141596245E-01  0.50171241810E-02 -0.88736983084E-02  0.23470857430E-01  0.00000000000E+00 0. -1.
     999901    1    3    3    0    0  0.12781146960E-01 -0.13293505326E+00 -0.55463330342E-02  0.89009316811E+00  0.88000000000E+00 0.  1.
        -11    1    4    4    0    0  0.12443207388E-01  0.51123191330E-01  0.75067947771E-02  0.53150984852E-01  0.51100000000E-03 0.  1.
         11    1    4    4    0    0 -0.40827581031E-02  0.76794737749E-01  0.69132365655E-02  0.77214989610E-01  0.51100000000E-03 0. -1.
</event>
<event>
 8    1  0.1109553E+005  0.1043930E+01  0.7957747E-01            NaN
         13   -1    0    0    0    0  0.00000000000E+00  0.00000000000E+00  0.74505805969E-08  0.10566000000E+00  0.10566000000E+00 0.  1.
     999900   -1    0    0    0    0 -0.00000000000E+00 -0.00000000000E+00 -0.74505805969E-08  0.93827000000E+00  0.93827000000E+00 0. -1.
     999902    2    1    2    0    0  0.47968163827E-02  0.11591898963E-01  0.92706801242E-02  0.10283310552E+01  0.10282127367E+01 0.  0.
     999903    2    3    3    0    0 -0.20335967324E-01 -0.13155436428E+00 -0.18783049915E-01  0.13596928928E+00  0.20365223725E-01 0.  0.
         14    1    1    2    0    0 -0.47968163827E-02 -0.11591898963E-01 -0.92706801242E-02  0.15598944802E-01  0.00000000000E+00 0. -1.
     999901    1    3    3    0    0  0.25132783707E-01  0.14314626324E+00  0.28053730040E-01  0.89236176591E+00  0.88000000000E+00 0.  1.
        -11    1    4    4    0    0  0.25750542109E-02 -0.34002034439E-01 -0.49868639824E-03  0.34106877009E-01  0.51100000000E-03 0.  1.
         11    1    4    4    0    0 -0.22911021535E-01 -0.97552329837E-01 -0.18284363517E-01  0.10186241228E+00  0.51100000000E-03 0. -1.
</event>
<event>
 8    1  0.1109553E+005  0.1043930E+01  0.7957747E-01            NaN
         13   -1    0    0    0    0  0.00000000000E+00  0.00000000000E+00  0.74505805969E-08  0.10566000000E+00  0.10566000000E+00 0. -1.
     999900   -1    0    0    0    0 -0.00000000000E+00 -0.00000000000E+00 -0.74505805969E-08  0.93827000000E+00  0.93827000000E+00 0. -1.
     999902    2    1    2    0    0  0.75473813950E-02 -0.14526877031E-01 -0.25377827646E-01  0.10137302110E+01  0.10132802738E+01 0.  0.
     999903    2    3    3    0    0  0.25968617389E-01  0.47604461335E-01  0.10708623438E+00  0.12145986355E+00  0.18560254045E-01 0.  0.
         14    1    1    2    0    0 -0.75473813950E-02  0.14526877031E-01  0.25377827646E-01  0.30199789043E-01  0.00000000000E+00 0.  1.
     999901    1    3    3    0    0 -0.18421235994E-01 -0.62131338366E-01 -0.13246406203E+00  0.89227034741E+00  0.88000000000E+00 0. -1.
        -11    1    4    4    0    0  0.26325837287E-01  0.31436964137E-01  0.73021773381E-01  0.83748271216E-01  0.51100000000E-03 0.  1.
         11    1    4    4    0    0 -0.35721989793E-03  0.16167497198E-01  0.34064461000E-01  0.37711592329E-01  0.51100000000E-03 0. -1.
</event>
<event>
 8    1  0.1109553E+005  0.1043930E+01  0.7957747E-01            NaN
         13   -1    0    0    0    0  0.00000000000E+00  0.00000000000E+00  0.74505805969E-08  0.10566000000E+00  0.10566000000E+00 0.  1.
     999900   -1    0    0    0    0 -0.00000000000E+00 -0.00000000000E+00 -0.74505805969E-08  0.93827000000E+00  0.93827000000E+00 0.  1.
     999902    2    1    2    0    0  0.17096046463E-01 -0.16500719104E-01 -0.44590950610E-02  0.10197549702E+01  0.10194683748E+01 0.  0.
     999903    2    3    3    0    0 -0.57623602339E-01 -0.99580075337E-01  0.58235325867E-01  0.13047672594E+00  0.19903564579E-01 0.  0.
         14    1    1    2    0    0 -0.17096046463E-01  0.16500719104E-01  0.44590950610E-02  0.24175029770E-01  0.00000000000E+00 0. -1.
     999901    1    3    3    0    0  0.74719648802E-01  0.83079356232E-01 -0.62694420928E-01  0.88927824429E+00  0.88000000000E+00 0. -1.
        -11    1    4    4    0    0 -0.15858084564E-01 -0.19055661863E-01  0.20715573815E-01  0.32310883841E-01  0.51100000000E-03 0.  1.
         11    1    4    4    0    0 -0.41765517775E-01 -0.80524413474E-01  0.37519752052E-01  0.98165842101E-01  0.51100000000E-03 0. -1.
</event>
<event>
 8    1  0.1109553E+005  0.1043930E+01  0.7957747E-01            NaN
         13   -1    0    0    0    0  0.00000000000E+00  0.00000000000E+00  0.74505805969E-08  0.10566000000E+00  0.10566000000E+00 0.  1.
     999900   -1    0    0    0    0 -0.00000000000E+00 -0.00000000000E+00 -0.74505805969E-08  0.93827000000E+00  0.93827000000E+00 0.  1.
     999902    2    1    2    0    0 -0.12619488483E-01  0.16972042947E-01 -0.89306839057E-02  0.10209722378E+01  0.10207140890E+01 0.  0.
     999903    2    3    3    0    0 -0.29716756275E-01 -0.12314485155E+00 -0.19502233055E-01  0.12966038531E+00  0.19589240892E-01 0.  0.
         14    1    1    2    0    0  0.12619488483E-01 -0.16972042947E-01  0.89306839057E-02  0.22957762225E-01  0.00000000000E+00 0. -1.
     999901    1    3    3    0    0  0.17097267792E-01  0.14011689450E+00  0.10571549149E-01  0.89131185246E+00  0.88000000000E+00 0.  1.
        -11    1    4    4    0    0 -0.19594377361E-01 -0.43134148289E-01 -0.41315065707E-02  0.47558646325E-01  0.51100000000E-03 0. -1.
         11    1    4    4    0    0 -0.10122378915E-01 -0.80010703260E-01 -0.15370726484E-01  0.82101738987E-01  0.51100000000E-03 0.  1.
</event>
<event>
 8    1  0.1109553E+005  0.1043930E+01  0.7957747E-01            NaN
         13   -1    0    0    0    0  0.00000000000E+00  0.00000000000E+00  0.74505805969E-08  0.10566000000E+00  0.10566000000E+00 0.  1.
     999900   -1    0    0    0    0 -0.00000000000E+00 -0.00000000000E+00 -0.74505805969E-08  0.93827000000E+00  0.93827000000E+00 0.  1.
     999902    2    1    2    0    0 -0.94978452107E-02 -0.63859767444E-02 -0.21079766729E-01  0.10199436220E+01  0.10196615349E+01 0.  0.
     999903    2    3    3    0    0 -0.61819457245E-01 -0.64471018354E-01 -0.96954015132E-01  0.13322589653E+00  0.19258789037E-01 0.  0.
         14    1    1    2    0    0  0.94978452107E-02  0.63859767444E-02  0.21079766729E-01  0.23986377967E-01  0.00000000000E+00 0.  1.
     999901    1    3    3    0    0  0.52321612034E-01  0.58085041610E-01  0.75874248402E-01  0.88671772550E+00  0.88000000000E+00 0. -1.
        -11    1    4    4    0    0 -0.37737718800E-01 -0.30244451043E-01 -0.41352488104E-01  0.63632944553E-01  0.51100000000E-03 0.  1.
         11    1    4    4    0    0 -0.24081738445E-01 -0.34226567312E-01 -0.55601527027E-01  0.69592951980E-01  0.51100000000E-03 0. -1.
</event>
<event>
 8    1  0.1109553E+005  0.1043930E+01  0.7957747E-01            NaN
         13   -1    0    0    0    0  0.00000000000E+00  0.00000000000E+00  0.74505805969E-08  0.10566000000E+00  0.10566000000E+00 0. -1.
     999900   -1    0    0    0    0 -0.00000000000E+00 -0.00000000000E+00 -0.74505805969E-08  0.93827000000E+00  0.93827000000E+00 0. -1.
     999902    2    1    2    0    0  0.16641982143E-01  0.89556497631E-02 -0.14336075425E-01  0.10202090748E+01  0.10199332694E+01 0.  0.
     999903    2    3    3    0    0 -0.89469561117E-01  0.79533745645E-01 -0.47024470285E-01  0.13042850728E+00  0.21676615115E-01 0.  0.
         14    1    1    2    0    0 -0.16641982143E-01 -0.89556497631E-02  0.14336075425E-01  0.23720925170E-01  0.00000000000E+00 0. -1.
     999901    1    3    3    0    0  0.10611154326E+00 -0.70578095882E-01  0.32688394860E-01  0.88978056755E+00  0.88000000000E+00 0. -1.
        -11    1    4    4    0    0 -0.79928442511E-01  0.73160403803E-01 -0.48742476343E-01  0.11881536402E+00  0.51100000000E-03 0. -1.
         11    1    4    4    0    0 -0.95411186061E-02  0.63733418420E-02  0.17180060579E-02  0.11613143257E-01  0.51100000000E-03 0.  1.
</event>
<event>
 8    1  0.1109553E+005  0.1043930E+01  0.7957747E-01            NaN
         13   -1    0    0    0    0  0.00000000000E+00  0.00000000000E+00  0.74505805969E-08  0.10566000000E+00  0.10566000000E+00 0. -1.
     999900   -1    0    0    0    0 -0.00000000000E+00 -0.00000000000E+00 -0.74505805969E-08  0.93827000000E+00  0.93827000000E+00 0.  1.
     999902    2    1    2    0    0  0.12692370114E-01  0.55699758551E-02  0.18862827730E-01  0.10205221560E+01  0.10202536664E+01 0.  0.
     999903    2    3    3    0    0 -0.80392865410E-02 -0.45263242687E-01 -0.11771242186E+00  0.12829650266E+00  0.22144684888E-01 0.  0.
         14    1    1    2    0    0 -0.12692370114E-01 -0.55699758551E-02 -0.18862827730E-01  0.23407843987E-01  0.00000000000E+00 0.  1.
     999901    1    3    3    0    0  0.20731656655E-01  0.50833218542E-01  0.13657524959E+00  0.89222565335E+00  0.88000000000E+00 0. -1.
        -11    1    4    4    0    0 -0.19447558608E-02 -0.34145007064E-01 -0.58727333517E-01  0.67961933506E-01  0.51100000000E-03 0. -1.
         11    1    4    4    0    0 -0.60945306802E-02 -0.11118235622E-01 -0.58985088344E-01  0.60334569158E-01  0.51100000000E-03 0.  1.
</event>
<event>
 8    1  0.1109553E+005  0.1043930E+01  0.7957747E-01            NaN
         13   -1    0    0    0    0  0.00000000000E+00  0.00000000000E+00  0.74505805969E-08  0.10566000000E+00  0.10566000000E+00 0. -1.
     999900   -1    0    0    0    0 -0.00000000000E+00 -0.00000000000E+00 -0.74505805969E-08  0.93827000000E+00  0.93827000000E+00 0. -1.
     999902    2    1    2    0    0  0.19612847931E-01 -0.11714319727E-01  0.60362674701E-02  0.10203010852E+01  0.10200274402E+01 0.  0.
     999903    2    3    3    0    0 -0.35882501617E-01 -0.11727466391E+00  0.42712609993E-01  0.13149971581E+00  0.20661739730E-01 0.  0.
         14    1    1    2    0    0 -0.19612847931E-01  0.11714319727E-01 -0.60362674701E-02  0.23628914821E-01  0.00000000000E+00 0.  1.
     999901    1    3    3    0    0  0.55495349549E-01  0.10556034418E+00 -0.36676342523E-01  0.88880136937E+00  0.88000000000E+00 0. -1.
        -11    1    4    4    0    0 -0.77112887975E-02 -0.59954218925E-01  0.18936974197E-01  0.63347000359E-01  0.51100000000E-03 0.  1.
         11    1    4    4    0    0 -0.28171212820E-01 -0.57320444987E-01  0.23775635796E-01  0.68152715454E-01  0.51100000000E-03 0. -1.
</event>
<event>
 8    1  0.1109553E+005  0.1043930E+01  0.7957747E-01            NaN
         13   -1    0    0    0    0  0.00000000000E+00  0.00000000000E+00  0.74505805969E-08  0.10566000000E+00  0.10566000000E+00 0.  1.
     999900   -1    0    0    0    0 -0.00000000000E+00 -0.00000000000E+00 -0.74505805969E-08  0.93827000000E+00  0.93827000000E+00 0. -1.
     999902    2    1    2    0    0  0.36017306006E-02  0.22816234935E-01  0.24653431023E-04  0.10208312198E+01  0.10205698534E+01 0.  0.
     999903    2    3    3    0    0  0.34359186768E-02  0.63099943322E-01 -0.11470286497E+00  0.13247025253E+00  0.19955254664E-01 0.  0.
         14    1    1    2    0    0 -0.36017306006E-02 -0.22816234935E-01 -0.24653431023E-04  0.23098780222E-01  0.00000000000E+00 0. -1.
     999901    1    3    3    0    0  0.16581192375E-03 -0.40283708387E-01  0.11472751840E+00  0.88836096725E+00  0.88000000000E+00 0.  1.
        -11    1    4    4    0    0 -0.47141645515E-02  0.29868551095E-02 -0.97105616285E-02  0.11211635875E-01  0.51100000000E-03 0.  1.
         11    1    4    4    0    0  0.81500832283E-02  0.60113088213E-01 -0.10499230334E+00  0.12125861665E+00  0.51100000000E-03 0. -1.
</event>
<event>
 8    1  0.1171706E+005  0.1043930E+01  0.7957747E-01            NaN
         13   -1    0    0    0    0  0.00000000000E+00  0.00000000000E+00  0.74505805969E-08  0.10566000000E+00  0.10566000000E+00 0.  1.
     999900   -1    0    0    0    0 -0.00000000000E+00 -0.00000000000E+00 -0.74505805969E-08  0.93827000000E+00  0.93827000000E+00 0. -1.
     999902    2    1    2    0    0 -0.11794495235E-01 -0.67361307439E-02 -0.20112441208E-01  0.10196607630E+01  0.10193719025E+01 0.  0.
     999903    2    3    3    0    0 -0.80965790555E-01  0.95249258403E-01  0.28493501666E-01  0.12974603368E+00  0.19856312676E-01 0.  0.
         14    1    1    2    0    0  0.11794495235E-01  0.67361307439E-02  0.20112441208E-01  0.24269237042E-01  0.00000000000E+00 0.  1.
     999901    1    3    3    0    0  0.69171295320E-01 -0.10198538915E+00 -0.48605942874E-01  0.88991472927E+00  0.88000000000E+00 0. -1.
        -11    1    4    4    0    0 -0.35664865159E-01  0.47041757070E-01  0.23023163983E-01  0.63365895526E-01  0.51100000000E-03 0.  1.
         11    1    4    4    0    0 -0.45300925396E-01  0.48207501333E-01  0.54703376822E-02  0.66380138158E-01  0.51100000000E-03 0. -1.
</event>
<event>
 8    1  0.1109553E+005  0.1043930E+01  0.7957747E-01            NaN
         13   -1    0    0    0    0  0.00000000000E+00  0.00000000000E+00  0.74505805969E-08  0.10566000000E+00  0.10566000000E+00 0. -1.
     999900   -1    0    0    0    0 -0.00000000000E+00 -0.00000000000E+00 -0.74505805969E-08  0.93827000000E+00  0.93827000000E+00 0.  1.
     999902    2    1    2    0    0  0.17431551856E-01 -0.10891866131E-01  0.12788673564E-01  0.10197216973E+01  0.10194343030E+01 0.  0.
     999903    2    3    3    0    0 -0.79228062178E-01 -0.16173844803E-01 -0.96853629015E-01  0.12764971882E+00  0.19368690429E-01 0.  0.
         14    1    1    2    0    0 -0.17431551856E-01  0.10891866131E-01 -0.12788673564E-01  0.24208302696E-01  0.00000000000E+00 0.  1.
     999901    1    3    3    0    0  0.96659614034E-01  0.52819786722E-02  0.10964230258E+00  0.89207197849E+00  0.88000000000E+00 0. -1.
        -11    1    4    4    0    0 -0.23146230180E-01  0.26382815143E-02 -0.20302331877E-01  0.30905570720E-01  0.51100000000E-03 0.  1.
         11    1    4    4    0    0 -0.56081831998E-01 -0.18812126317E-01 -0.76551297138E-01  0.96744148099E-01  0.51100000000E-03 0. -1.
</event>
<event>
 8    1  0.1109553E+005  0.1043930E+01  0.7957747E-01            NaN
         13   -1    0    0    0    0  0.00000000000E+00  0.00000000000E+00  0.74505805969E-08  0.10566000000E+00  0.10566000000E+00 0.  1.
     999900   -1    0    0    0    0 -0.00000000000E+00 -0.00000000000E+00 -0.74505805969E-08  0.93827000000E+00  0.93827000000E+00 0.  1.
     999902    2    1    2    0    0 -0.14240183115E-01 -0.85156749722E-02 -0.10649508598E-01  0.10242142305E+01  0.10240244520E+01 0.  0.
     999903    2    3    3    0    0  0.51720718263E-01 -0.12678440881E-01  0.11968690019E+00  0.13216280336E+00  0.17500770073E-01 0.  0.
         14    1    1    2    0    0  0.14240183115E-01  0.85156749722E-02  0.10649508598E-01  0.19715769545E-01  0.00000000000E+00 0.  1.
     999901    1    3    3    0    0 -0.65960901378E-01  0.41627659090E-02 -0.13033640879E+00  0.89205142710E+00  0.88000000000E+00 0.  1.
        -11    1    4    4    0    0  0.50140769311E-01 -0.76257177250E-02  0.10921244018E+00  0.12041539158E+00  0.51100000000E-03 0.  1.
         11    1    4    4    0    0  0.15799489517E-02 -0.50527231561E-02  0.10474460014E-01  0.11747411782E-01  0.51100000000E-03 0. -1.
</event>
<event>
 8    1  0.1109553E+005  0.1043930E+01  0.7957747E-01            NaN
         13   -1    0    0    0    0  0.00000000000E+00  0.00000000000E+00  0.74505805969E-08  0.10566000000E+00  0.10566000000E+00 0.  1.
     999900   -1    0    0    0    0 -0.00000000000E+00 -0.00000000000E+00 -0.74505805969E-08  0.93827000000E+00  0.93827000000E+00 0.  1.
     999902    2    1    2    0    0  0.18178752177E-02  0.22840319985E-01 -0.85268021752E-02  0.10194822753E+01  0.10191890985E+01 0.  0.
     999903    2    3    3    0    0  0.20516347105E-01 -0.11677940694E+00 -0.42895244615E-01  0.12761653943E+00  0.19688289482E-01 0.  0.
         14    1    1    2    0    0 -0.18178752177E-02 -0.22840319985E-01  0.85268021752E-02  0.24447724693E-01  0.00000000000E+00 0.  1.
     999901    1    3    3    0    0 -0.18698471887E-01  0.13961972692E+00  0.34368442440E-01  0.89186573588E+00  0.88000000000E+00 0. -1.
        -11    1    4    4    0    0  0.70277248134E-02 -0.35598871978E-01 -0.22954681720E-01  0.42940041174E-01  0.51100000000E-03 0.  1.
         11    1    4    4    0    0  0.13488622292E-01 -0.81180534958E-01 -0.19940562895E-01  0.84676498256E-01  0.51100000000E-03 0. -1.
</event>
<event>
 8    1  0.1109553E+005  0.1043930E+01  0.7957747E-01            NaN
         13   -1    0    0    0    0  0.00000000000E+00  0.00000000000E+00  0.74505805969E-08  0.10566000000E+00  0.10566000000E+00 0.  1.
     999900   -1    0    0    0    0 -0.00000000000E+00 -0.00000000000E+00 -0.74505805969E-08  0.93827000000E+00  0.93827000000E+00 0. -1.
     999902    2    1    2    0    0  0.16320934987E-01  0.88648372844E-02  0.15455316709E-01  0.10197675276E+01  0.10194812334E+01 0.  0.
     999903    2    3    3    0    0 -0.95341218288E-01  0.24446356355E-02  0.85948062202E-01  0.12989175949E+00  0.19719930002E-01 0.  0.
         14    1    1    2    0    0 -0.16320934987E-01 -0.88648372844E-02 -0.15455316709E-01  0.24162472421E-01  0.00000000000E+00 0. -1.
     999901    1    3    3    0    0  0.11166215328E+00  0.64202016489E-02 -0.70492745493E-01  0.88987576809E+00  0.88000000000E+00 0.  1.
        -11    1    4    4    0    0 -0.96139777152E-01  0.16543457170E-02  0.84821397989E-01  0.12822060789E+00  0.51100000000E-03 0. -1.
         11    1    4    4    0    0  0.79855886401E-03  0.79028991850E-03  0.11266642131E-02  0.16711515981E-02  0.51100000000E-03 0.  1.
</event>
<event>
 7    1  0.1109553E+005  0.1043930E+01  0.7957747E-01            NaN
         13   -1    0    0    0    0  0.00000000000E+00  0.00000000000E+00  0.74505805969E-08  0.10566000000E+00  0.10566000000E+00 0. -1.
     999900   -1    0    0    0    0 -0.00000000000E+00 -0.00000000000E+00 -0.74505805969E-08  0.93827000000E+00  0.93827000000E+00 0.  1.
     999902    2    1    2    0    0  0.19835810004E-01 -0.10255188093E-01  0.76171928758E-02  0.10203365715E+01  0.10200637574E+01 0.  0.
         14    1    1    2    0    0 -0.19835810004E-01  0.10255188093E-01 -0.76171928758E-02  0.23593428506E-01  0.00000000000E+00 0.  1.
     999901    1    3    3    0    0  0.34021429398E-01  0.10639937010E+00 -0.41440100164E-01  0.88802903416E+00  0.88000000000E+00 0.  1.
        -11    1    3    3    0    0  0.98859536371E-02 -0.16131734725E-01  0.12431882966E-01  0.22644597140E-01  0.51100000000E-03 0. -1.
         11    1    3    3    0    0 -0.24071573031E-01 -0.10052282347E+00  0.36625410074E-01  0.10966294019E+00  0.51100000000E-03 0.  1.
</event>
<event>
 8    1  0.1109553E+005  0.1043930E+01  0.7957747E-01            NaN
         13   -1    0    0    0    0  0.00000000000E+00  0.00000000000E+00  0.74505805969E-08  0.10566000000E+00  0.10566000000E+00 0. -1.
     999900   -1    0    0    0    0 -0.00000000000E+00 -0.00000000000E+00 -0.74505805969E-08  0.93827000000E+00  0.93827000000E+00 0.  1.
     999902    2    1    2    0    0 -0.35204628443E-02  0.23426854002E-01 -0.11968889156E-02  0.10202098885E+01  0.10199341022E+01 0.  0.
     999903    2    3    3    0    0 -0.42759414754E-01 -0.11603999791E+00 -0.26046860900E-01  0.12801696135E+00  0.20402322561E-01 0.  0.
         14    1    1    2    0    0  0.35204628443E-02 -0.23426854002E-01  0.11968889156E-02  0.23720111512E-01  0.00000000000E+00 0. -1.
     999901    1    3    3    0    0  0.39238951909E-01  0.13946685191E+00  0.24849971984E-01  0.89219292714E+00  0.88000000000E+00 0. -1.
        -11    1    4    4    0    0 -0.14135082810E-01 -0.30500957730E-01 -0.16069977082E-01  0.37264115083E-01  0.51100000000E-03 0.  1.
         11    1    4    4    0    0 -0.28624331944E-01 -0.85539040177E-01 -0.99768838175E-02  0.90752846266E-01  0.51100000000E-03 0. -1.
</event>
<event>
 7    1  0.1109553E+005  0.1043930E+01  0.7957747E-01            NaN
         13   -1    0    0    0    0  0.00000000000E+00  0.00000000000E+00  0.74505805969E-08  0.10566000000E+00  0.10566000000E+00 0. -1.
     999900   -1    0    0    0    0 -0.00000000000E+00 -0.00000000000E+00 -0.74505805969E-08  0.93827000000E+00  0.93827000000E+00 0.  1.
     999903    2    1    2    0    0 -0.52895907028E-01 -0.97147632315E-01  0.43619904557E-01  0.12054680751E+00  0.19829202767E-01 0.  0.
         14    1    1    2    0    0  0.16304396110E-02  0.36154406308E-01 -0.15404525525E-01  0.39333177286E-01  0.00000000000E+00 0.  1.
     999901    1    1    2    0    0  0.51265467417E-01  0.60993226007E-01 -0.28215379033E-01  0.88405001520E+00  0.88000000000E+00 0. -1.
        -11    1    3    3    0    0 -0.36756060573E-01 -0.79946496021E-01  0.40075399419E-01  0.96688928914E-01  0.51100000000E-03 0. -1.
         11    1    3    3    0    0 -0.16139846456E-01 -0.17201136294E-01  0.35445051383E-02  0.23857878596E-01  0.51100000000E-03 0.  1.
</event>
<event>
 8    1  0.1109553E+005  0.1043930E+01  0.7957747E-01            NaN
         13   -1    0    0    0    0  0.00000000000E+00  0.00000000000E+00  0.74505805969E-08  0.10566000000E+00  0.10566000000E+00 0.  1.
     999900   -1    0    0    0    0 -0.00000000000E+00 -0.00000000000E+00 -0.74505805969E-08  0.93827000000E+00  0.93827000000E+00 0. -1.
     999902    2    1    2    0    0 -0.13336702519E-01 -0.13604888850E-01 -0.13360504101E-01  0.10206606273E+01  0.10203953413E+01 0.  0.
     999903    2    3    3    0    0 -0.73213623549E-01  0.10534457815E+00  0.11383167547E-01  0.13029751564E+00  0.19752246931E-01 0.  0.
         14    1    1    2    0    0  0.13336702519E-01  0.13604888850E-01  0.13360504101E-01  0.23269372672E-01  0.00000000000E+00 0.  1.
     999901    1    3    3    0    0  0.59876921030E-01 -0.11894946700E+00 -0.24743671648E-01  0.89036311169E+00  0.88000000000E+00 0.  1.
        -11    1    4    4    0    0 -0.61269965280E-01  0.80757981962E-01  0.15828776305E-01  0.10259956908E+00  0.51100000000E-03 0. -1.
         11    1    4    4    0    0 -0.11943658270E-01  0.24586596190E-01 -0.44456087582E-02  0.27697946554E-01  0.51100000000E-03 0.  1.
</event>
<event>
 8    1  0.1109553E+005  0.1043930E+01  0.7957747E-01            NaN
         13   -1    0    0    0    0  0.00000000000E+00  0.00000000000E+00  0.74505805969E-08  0.10566000000E+00  0.10566000000E+00 0.  1.
     999900   -1    0    0    0    0 -0.00000000000E+00 -0.00000000000E+00 -0.74505805969E-08  0.93827000000E+00  0.93827000000E+00 0.  1.
     999902    2    1    2    0    0  0.14519605734E-01 -0.14681407545E-02 -0.18563596296E-01  0.10203168364E+01  0.10200435604E+01 0.  0.
     999903    2    3    3    0    0 -0.10172117407E+00 -0.69674526036E-01  0.30863561945E-01  0.12868514458E+00  0.20138772206E-01 0.  0.
         14    1    1    2    0    0 -0.14519605734E-01  0.14681407545E-02  0.18563596296E-01  0.23613163604E-01  0.00000000000E+00 0. -1.
     999901    1    3    3    0    0  0.11624077981E+00  0.68206385281E-01 -0.49427158241E-01  0.89163169182E+00  0.88000000000E+00 0.  1.
        -11    1    4    4    0    0 -0.48419133707E-01 -0.21487069199E-01  0.10592166999E-01  0.54023714926E-01  0.51100000000E-03 0.  1.
         11    1    4    4    0    0 -0.53302040366E-01 -0.48187456836E-01  0.20271394946E-01  0.74661429652E-01  0.51100000000E-03 0. -1.
</event>
<event>
 8    1  0.1109553E+005  0.1043930E+01  0.7957747E-01            NaN
         13   -1    0    0    0    0  0.00000000000E+00  0.00000000000E+00  0.74505805969E-08  0.10566000000E+00  0.10566000000E+00 0.  1.
     999900   -1    0    0    0    0 -0.00000000000E+00 -0.00000000000E+00 -0.74505805969E-08  0.93827000000E+00  0.93827000000E+00 0.  1.
     999902    2    1    2    0    0  0.21857321575E-01 -0.76571521225E-02  0.17540024580E-02  0.10207039153E+01  0.10204396267E+01 0.  0.
     999903    2    3    3    0    0  0.91865262947E-01 -0.16810743955E-01  0.92860864295E-01  0.13318751526E+00  0.19848084407E-01 0.  0.
         14    1    1    2    0    0 -0.21857321575E-01  0.76571521225E-02 -0.17540024580E-02  0.23226084683E-01  0.00000000000E+00 0.  1.
     999901    1    3    3    0    0 -0.70007941371E-01  0.91535918328E-02 -0.91106861837E-01  0.88751640006E+00  0.88000000000E+00 0.  1.
        -11    1    4    4    0    0  0.43513953510E-01 -0.15372954696E-01  0.35998326691E-01  0.58531466167E-01  0.51100000000E-03 0.  1.
         11    1    4    4    0    0  0.48351309437E-01 -0.14377892597E-02  0.56862537604E-01  0.74656049092E-01  0.51100000000E-03 0. -1.
</event>
<event>
 8    1  0.1109553E+005  0.1043930E+01  0.7957747E-01            NaN
         13   -1    0    0    0    0  0.00000000000E+00  0.00000000000E+00  0.74505805969E-08  0.10566000000E+00  0.10566000000E+00 0. -1.
     999900   -1    0    0    0    0 -0.00000000000E+00 -0.00000000000E+00 -0.74505805969E-08  0.93827000000E+00  0.93827000000E+00 0.  1.
     999902    2    1    2    0    0  0.98684679810E-03  0.13905605643E-01  0.19635744564E-01  0.10198488414E+01  0.10195644938E+01 0.  0.
     999903    2    3    3    0    0  0.68956975168E-01  0.73829007502E-01 -0.79057157736E-01  0.12970781808E+00  0.19191068436E-01 0.  0.
         14    1    1    2    0    0 -0.98684679810E-03 -0.13905605643E-01 -0.19635744564E-01  0.24081158599E-01  0.00000000000E+00 0.  1.
     999901    1    3    3    0    0 -0.67970128370E-01 -0.59923401859E-01  0.98692902300E-01  0.89014102332E+00  0.88000000000E+00 0. -1.
        -11    1    4    4    0    0  0.17213865483E-01  0.14538520787E-01 -0.87381276547E-02  0.24172334340E-01  0.51100000000E-03 0. -1.
         11    1    4    4    0    0  0.51743109685E-01  0.59290486715E-01 -0.70319030082E-01  0.10553548374E+00  0.51100000000E-03 0.  1.
</event>
<event>
 8    1  0.1109553E+005  0.1043930E+01  0.7957747E-01            NaN
         13   -1    0    0    0    0  0.00000000000E+00  0.00000000000E+00  0.74505805969E-08  0.10566000000E+00  0.10566000000E+00 0. -1.
     999900   -1    0    0    0    0 -0.00000000000E+00 -0.00000000000E+00 -0.74505805969E-08  0.93827000000E+00  0.93827000000E+00 0.  1.
     999902    2    1    2    0    0  0.22799582632E-01  0.63541308379E-02 -0.16787029947E-02  0.10202020841E+01  0.10199261142E+01 0.  0.
     999903    2    3    3    0    0 -0.12659672135E-01 -0.34715454444E-01  0.12270662314E+00  0.12980005195E+00  0.20632693693E-01 0.  0.
         14    1    1    2    0    0 -0.22799582632E-01 -0.63541308379E-02  0.16787029947E-02  0.23727915851E-01  0.00000000000E+00 0. -1.
     999901    1    3    3    0    0  0.35459254767E-01  0.41069585282E-01 -0.12438532613E+00  0.89040203220E+00  0.88000000000E+00 0.  1.
        -11    1    4    4    0    0 -0.14314921824E-01 -0.11907537804E-01  0.42658220083E-01  0.46547731470E-01  0.51100000000E-03 0. -1.
         11    1    4    4    0    0  0.16552496884E-02 -0.22807916640E-01  0.80048403054E-01  0.83252320481E-01  0.51100000000E-03 0.  1.
</event>
<event>
 8    1  0.1109553E+005  0.1043930E+01  0.7957747E-01            NaN
         13   -1    0    0    0    0  0.00000000000E+00  0.00000000000E+00  0.74505805969E-08  0.10566000000E+00  0.10566000000E+00 0. -1.
     999900   -1    0    0    0    0 -0.00000000000E+00 -0.00000000000E+00 -0.74505805969E-08  0.93827000000E+00  0.93827000000E+00 0.  1.
     999902    2    1    2    0    0  0.17332334821E-01 -0.20010064662E-01 -0.59645785777E-02  0.10167935169E+01  0.10164313392E+01 0.  0.
     999903    2    3    3    0    0 -0.93642135379E-01 -0.83397635267E-01  0.11536174122E-01  0.12738945040E+00  0.19260676848E-01 0.  0.
         14    1    1    2    0    0 -0.17332334821E-01  0.20010064662E-01  0.59645785777E-02  0.27136483113E-01  0.00000000000E+00 0. -1.
     999901    1    3    3    0    0  0.11097447020E+00  0.63387570604E-01 -0.17500752700E-01  0.88940406649E+00  0.88000000000E+00 0. -1.
        -11    1    4    4    0    0 -0.21630932064E-01 -0.12927734294E-01 -0.37420786062E-02  0.25481126530E-01  0.51100000000E-03 0. -1.
         11    1    4    4    0    0 -0.72011203315E-01 -0.70469900973E-01  0.15278252729E-01  0.10190832387E+00  0.51100000000E-03 0.  1.
</event>
<event>
 8    1  0.1109553E+005  0.1043930E+01  0.7957747E-01            NaN
         13   -1    0    0    0    0  0.00000000000E+00  0.00000000000E+00  0.74505805969E-08  0.10566000000E+00  0.10566000000E+00 0.  1.
     999900   -1    0    0    0    0 -0.00000000000E+00 -0.00000000000E+00 -0.74505805969E-08  0.93827000000E+00  0.93827000000E+00 0.  1.
     999902    2    1    2    0    0 -0.68697474982E-03 -0.16323150766E-01 -0.17760960972E-01  0.10197976789E+01  0.10195121074E+01 0.  0.
     999903    2    3    3    0    0 -0.12840042675E+00 -0.78507311453E-02  0.43405430814E-03  0.13035202782E+00  0.21051346376E-01 0.  0.
         14    1    1    2    0    0  0.68697474982E-03  0.16323150766E-01  0.17760960972E-01  0.24132321063E-01  0.00000000000E+00 0.  1.
     999901    1    3    3    0    0  0.12771345200E+00 -0.84724196206E-02 -0.18195015280E-01  0.88944565112E+00  0.88000000000E+00 0.  1.
        -11    1    4    4    0    0 -0.46229646980E-01 -0.90421661282E-02  0.81552505258E-02  0.47809102274E-01  0.51100000000E-03 0.  1.
         11    1    4    4    0    0 -0.82170779768E-01  0.11914349829E-02 -0.77211962177E-02  0.82542925542E-01  0.51100000000E-03 0. -1.
</event>
<event>
 8    1  0.1190211E+005  0.1043930E+01  0.7957747E-01            NaN
         13   -1    0    0    0    0  0.00000000000E+00  0.00000000000E+00  0.74505805969E-08  0.10566000000E+00  0.10566000000E+00 0. -1.
     999900   -1    0    0    0    0 -0.00000000000E+00 -0.00000000000E+00 -0.74505805969E-08  0.93827000000E+00  0.93827000000E+00 0.  1.
     999902    2    1    2    0    0 -0.20558985695E-01 -0.11263411697E-01  0.23335264237E-02  0.10203719508E+01  0.10200999639E+01 0.  0.
     999903    2    3    3    0    0  0.84387840976E-01 -0.96460207514E-01  0.90527571895E-02  0.13002512036E+00  0.19967477869E-01 0.  0.
         14    1    1    2    0    0  0.20558985695E-01  0.11263411697E-01 -0.23335264237E-02  0.23558049186E-01  0.00000000000E+00 0.  1.
     999901    1    3    3    0    0 -0.10494682667E+00  0.85196795817E-01 -0.67192307658E-02  0.89034683046E+00  0.88000000000E+00 0. -1.
        -11    1    4    4    0    0  0.26777077055E-01 -0.35470164304E-01  0.12125401568E-01  0.46069848009E-01  0.51100000000E-03 0. -1.
         11    1    4    4    0    0  0.57610763921E-01 -0.60990043210E-01 -0.30726443784E-02  0.83955272347E-01  0.51100000000E-03 0.  1.
</event>
<event>
 8    1  0.1109553E+005  0.1043930E+01  0.7957747E-01            NaN
         13   -1    0    0    0    0  0.00000000000E+00  0.00000000000E+00  0.74505805969E-08  0.10566000000E+00  0.10566000000E+00 0.  1.
     999900   -1    0    0    0    0 -0.00000000000E+00 -0.00000000000E+00 -0.74505805969E-08  0.93827000000E+00  0.93827000000E+00 0. -1.
     999902    2    1    2    0    0  0.23297131844E-01 -0.12856738772E-02  0.60596359586E-02  0.10198233931E+01  0.10195384370E+01 0.  0.
     999903    2    3    3    0    0  0.19787661345E-01 -0.12734186915E+00  0.13686249102E-01  0.13080109528E+00  0.17723146779E-01 0.  0.
         14    1    1    2    0    0 -0.23297131844E-01  0.12856738772E-02 -0.60596359586E-02  0.24106606925E-01  0.00000000000E+00 0. -1.
     999901    1    3    3    0    0  0.35094704991E-02  0.12605619527E+00 -0.76266131432E-02  0.88902229780E+00  0.88000000000E+00 0. -1.
        -11    1    4    4    0    0  0.16679419524E-01 -0.60646882832E-01  0.11845217839E-01  0.64006388271E-01  0.51100000000E-03 0.  1.
         11    1    4    4    0    0  0.31082418208E-02 -0.66694986318E-01  0.18410312625E-02  0.66794707008E-01  0.51100000000E-03 0. -1.
</event>
<event>
 8    1  0.1109553E+005  0.1043930E+01  0.7957747E-01            NaN
         13   -1    0    0    0    0  0.00000000000E+00  0.00000000000E+00  0.74505805969E-08  0.10566000000E+00  0.10566000000E+00 0.  1.
     999900   -1    0    0    0    0 -0.00000000000E+00 -0.00000000000E+00 -0.74505805969E-08  0.93827000000E+00  0.93827000000E+00 0.  1.
     999902    2    1    2    0    0  0.34034627493E-02  0.38701571618E-02 -0.22587497378E-01  0.10207619894E+01  0.10204990360E+01 0.  0.
     999903    2    3    3    0    0 -0.28318676152E-01 -0.12412078002E+00 -0.23389381108E-01  0.13093694085E+00  0.19735852597E-01 0.  0.
         14    1    1    2    0    0 -0.34034627493E-02 -0.38701571618E-02  0.22587497378E-01  0.23168010552E-01  0.00000000000E+00 0.  1.
     999901    1    3    3    0    0  0.31722138902E-01  0.12799093718E+00  0.80188372953E-03  0.88982504860E+00  0.88000000000E+00 0. -1.
        -11    1    4    4    0    0 -0.21652338665E-01 -0.58882622781E-01 -0.17265057424E-01  0.65071732450E-01  0.51100000000E-03 0. -1.
         11    1    4    4    0    0 -0.66663374874E-02 -0.65238157241E-01 -0.61243236842E-02  0.65865208398E-01  0.51100000000E-03 0.  1.
</event>
<event>
 8    1  0.1109553E+005  0.1043930E+01  0.7957747E-01            NaN
         13   -1    0    0    0    0  0.00000000000E+00  0.00000000000E+00  0.74505805969E-08  0.10566000000E+00  0.10566000000E+00 0. -1.
     999900   -1    0    0    0    0 -0.00000000000E+00 -0.00000000000E+00 -0.74505805969E-08  0.93827000000E+00  0.93827000000E+00 0.  1.
     999902    2    1    2    0    0 -0.20185850964E-01 -0.33027787566E-02 -0.15917919782E-01  0.10180117227E+01  0.10176817334E+01 0.  0.
     999903    2    3    3    0    0  0.53208974126E-01  0.60708285149E-01 -0.98639638798E-01  0.12878334967E+00  0.18403314823E-01 0.  0.
         14    1    1    2    0    0  0.20185850964E-01  0.33027787566E-02  0.15917919782E-01  0.25918277274E-01  0.00000000000E+00 0. -1.
     999901    1    3    3    0    0 -0.73394825090E-01 -0.64011063905E-01  0.82721719016E-01  0.88922837306E+00  0.88000000000E+00 0. -1.
        -11    1    4    4    0    0  0.17888888356E-01  0.16681727918E-01 -0.43309641636E-01  0.49742120508E-01  0.51100000000E-03 0. -1.
         11    1    4    4    0    0  0.35320085770E-01  0.44026557230E-01 -0.55329997162E-01  0.79041229161E-01  0.51100000000E-03 0.  1.
</event>
<event>
 8    1  0.1109553E+005  0.1043930E+01  0.7957747E-01            NaN
         13   -1    0    0    0    0  0.00000000000E+00  0.00000000000E+00  0.74505805969E-08  0.10566000000E+00  0.10566000000E+00 0.  1.
     999900   -1    0    0    0    0 -0.00000000000E+00 -0.00000000000E+00 -0.74505805969E-08  0.93827000000E+00  0.93827000000E+00 0.  1.
     999902    2    1    2    0    0 -0.23144934492E-01 -0.11046859876E-01  0.74524922415E-02  0.10172230581E+01  0.10168724055E+01 0.  0.
     999903    2    3    3    0    0  0.75190010939E-01  0.97598451969E-01  0.73309330137E-02  0.12510558821E+00  0.20461428379E-01 0.  0.
         14    1    1    2    0    0  0.23144934492E-01  0.11046859876E-01 -0.74524922415E-02  0.26706941913E-01  0.00000000000E+00 0. -1.
     999901    1    3    3    0    0 -0.98334945431E-01 -0.10864531185E+00  0.12155922780E-03  0.89211746987E+00  0.88000000000E+00 0. -1.
        -11    1    4    4    0    0  0.48042610089E-01  0.60032739601E-01 -0.52712550221E-02  0.77071846083E-01  0.51100000000E-03 0.  1.
         11    1    4    4    0    0  0.27147400849E-01  0.37565712368E-01  0.12602188036E-01  0.48033742129E-01  0.51100000000E-03 0. -1.
</event>
<event>
 8    1  0.1109553E+005  0.1043930E+01  0.7957747E-01            NaN
         13   -1    0    0    0    0  0.00000000000E+00  0.00000000000E+00  0.74505805969E-08  0.10566000000E+00  0.10566000000E+00 0. -1.
     999900   -1    0    0    0    0 -0.00000000000E+00 -0.00000000000E+00 -0.74505805969E-08  0.93827000000E+00  0.93827000000E+00 0. -1.
     999902    2    1    2    0    0 -0.15076995335E-01 -0.27213818687E-02  0.18618971515E-01  0.10198180153E+01  0.10195329305E+01 0.  0.
     999903    2    3    3    0    0  0.93652798219E-01  0.14109390399E-01  0.88779251436E-01  0.13019567529E+00  0.99617702871E-02 0.  0.
         14    1    1    2    0    0  0.15076995335E-01  0.27213818687E-02 -0.18618971515E-01  0.24111984736E-01  0.00000000000E+00 0.  1.
     999901    1    3    3    0    0 -0.10872979355E+00 -0.16830772268E-01 -0.70160279920E-01  0.88962233997E+00  0.88000000000E+00 0.  1.
        -11    1    4    4    0    0  0.83640882112E-01  0.14759034553E-01  0.82125455452E-01  0.11814600211E+00  0.51100000000E-03 0.  1.
         11    1    4    4    0    0  0.10011916108E-01 -0.64964415440E-03  0.66537959833E-02  0.12049673177E-01  0.51100000000E-03 0. -1.
</event>
<event>
 8    1  0.1109553E+005  0.1043930E+01  0.7957747E-01            NaN
         13   -1    0    0    0    0  0.00000000000E+00  0.00000000000E+00  0.74505805969E-08  0.10566000000E+00  0.10566000000E+00 0.  1.
     999900   -1    0    0    0    0 -0.00000000000E+00 -0.00000000000E+00 -0.74505805969E-08  0.93827000000E+00  0.93827000000E+00 0. -1.
     999902    2    1    2    0    0  0.40559593917E-02  0.16771627807E-01  0.10333339845E-02  0.10266439916E+01  0.10264984557E+01 0.  0.
     999903    2    3    3    0    0  0.81977712080E-01 -0.36831328855E-01 -0.99794619792E-01  0.13585144970E+00  0.20488000987E-01 0.  0.
         14    1    1    2    0    0 -0.40559593917E-02 -0.16771627807E-01 -0.10333339845E-02  0.17286008360E-01  0.00000000000E+00 0. -1.
     999901    1    3    3    0    0 -0.77921752688E-01  0.53602956662E-01  0.10082795378E+00  0.89079254194E+00  0.88000000000E+00 0.  1.
        -11    1    4    4    0    0  0.40196444805E-01 -0.15299992375E-01 -0.62387206793E-01  0.75777758175E-01  0.51100000000E-03 0.  1.
         11    1    4    4    0    0  0.41781267275E-01 -0.21531336480E-01 -0.37407412999E-01  0.60073691530E-01  0.51100000000E-03 0. -1.
</event>
<event>
 8    1  0.1109553E+005  0.1043930E+01  0.7957747E-01            NaN
         13   -1    0    0    0    0  0.00000000000E+00  0.00000000000E+00  0.74505805969E-08  0.10566000000E+00  0.10566000000E+00 0. -1.
     999900   -1    0    0    0    0 -0.00000000000E+00 -0.00000000000E+00 -0.74505805969E-08  0.93827000000E+00  0.93827000000E+00 0.  1.
     999902    2    1    2    0    0  0.10731358933E-01  0.12821442909E-01  0.17181291566E-01  0.10199560925E+01  0.10196743021E+01 0.  0.
     999903    2    3    3    0    0  0.20716677953E-01 -0.83052537185E-01  0.97187650426E-01  0.13108459212E+00  0.20268848475E-01 0.  0.
         14    1    1    2    0    0 -0.10731358933E-01 -0.12821442909E-01 -0.17181291566E-01  0.23973907539E-01  0.00000000000E+00 0.  1.
     999901    1    3    3    0    0 -0.99853190199E-02  0.95873980094E-01 -0.80006358860E-01  0.88887150034E+00  0.88000000000E+00 0. -1.
        -11    1    4    4    0    0  0.20253126772E-01 -0.70283237412E-01  0.70978874605E-01  0.10192244290E+00  0.51100000000E-03 0. -1.
         11    1    4    4    0    0  0.46355118122E-03 -0.12769299773E-01  0.26208775820E-01  0.29162149224E-01  0.51100000000E-03 0.  1.
</event>
<event>
 8    1  0.1109553E+005  0.1043930E+01  0.7957747E-01            NaN
         13   -1    0    0    0    0  0.00000000000E+00  0.00000000000E+00  0.74505805969E-08  0.10566000000E+00  0.10566000000E+00 0. -1.
     999900   -1    0    0    0    0 -0.00000000000E+00 -0.00000000000E+00 -0.74505805969E-08  0.93827000000E+00  0.93827000000E+00 0. -1.
     999902    2    1    2    0    0 -0.35525212858E-02 -0.21385627289E-01 -0.10255954578E-01  0.10199477135E+01  0.10196657237E+01 0.  0.
     999903    2    3    3    0    0 -0.37970346036E-01  0.10164151958E+00  0.64093753816E-01  0.12762033821E+00  0.20154298939E-01 0.  0.
         14    1    1    2    0    0  0.35525212858E-02  0.21385627289E-01  0.10255954578E-01  0.23982286511E-01  0.00000000000E+00 0. -1.
     999901    1    3    3    0    0  0.34417824750E-01 -0.12302714687E+00 -0.74349708394E-01  0.89232737528E+00  0.88000000000E+00 0. -1.
        -11    1    4    4    0    0 -0.11068380577E-02  0.27782698854E-01  0.16169669579E-01  0.32168661479E-01  0.51100000000E-03 0. -1.
         11    1    4    4    0    0 -0.36863507979E-01  0.73858820731E-01  0.47924084238E-01  0.95451676733E-01  0.51100000000E-03 0.  1.
</event>
<event>
 8    1  0.1109553E+005  0.1043930E+01  0.7957747E-01            NaN
         13   -1    0    0    0    0  0.00000000000E+00  0.00000000000E+00  0.74505805969E-08  0.10566000000E+00  0.10566000000E+00 0. -1.
     999900   -1    0    0    0    0 -0.00000000000E+00 -0.00000000000E+00 -0.74505805969E-08  0.93827000000E+00  0.93827000000E+00 0.  1.
     999902    2    1    2    0    0 -0.66491882982E-02  0.53130657980E-02  0.22658896706E-01  0.10197253316E+01  0.10194380246E+01 0.  0.
     999903    2    3    3    0    0  0.10089579296E+00 -0.57272621437E-01 -0.49736900346E-01  0.12802804961E+00  0.21384761616E-01 0.  0.
         14    1    1    2    0    0  0.66491882982E-02 -0.53130657980E-02 -0.22658896706E-01  0.24204668416E-01  0.00000000000E+00 0.  1.
     999901    1    3    3    0    0 -0.10754498126E+00  0.62585687235E-01  0.72395797052E-01  0.89169728197E+00  0.88000000000E+00 0.  1.
        -11    1    4    4    0    0  0.72012619499E-01 -0.36822219588E-01 -0.24340339729E-01  0.84465415891E-01  0.51100000000E-03 0. -1.
         11    1    4    4    0    0  0.28883173459E-01 -0.20450401849E-01 -0.25396560616E-01  0.43562633724E-01  0.51100000000E-03 0.  1.
</event>
<event>
 8    1  0.1109553E+005  0.1043930E+01  0.7957747E-01            NaN
         13   -1    0    0    0    0  0.00000000000E+00  0.00000000000E+00  0.74505805969E-08  0.10566000000E+00  0.10566000000E+00 0.  1.
     999900   -1    0    0    0    0 -0.00000000000E+00 -0.00000000000E+00 -0.74505805969E-08  0.93827000000E+00  0.93827000000E+00 0.  1.
     999902    2    1    2    0    0  0.91307641715E-02 -0.12315493018E-01 -0.19400143844E-01  0.10192033382E+01  0.10189033501E+01 0.  0.
     999903    2    3    3    0    0  0.21007889290E-01  0.18571638136E-01  0.12230319844E+00  0.12725327335E+00  0.21191651019E-01 0.  0.
         14    1    1    2    0    0 -0.91307641715E-02  0.12315493018E-01  0.19400143844E-01  0.24726661801E-01  0.00000000000E+00 0. -1.
     999901    1    3    3    0    0 -0.11877125118E-01 -0.30887131154E-01 -0.14170334229E+00  0.89195006485E+00  0.88000000000E+00 0.  1.
        -11    1    4    4    0    0  0.15463629468E-01  0.27116004488E-02  0.83518266683E-01  0.84982578239E-01  0.51100000000E-03 0.  1.
         11    1    4    4    0    0  0.55442598214E-02  0.15860037687E-01  0.38784931760E-01  0.42270695109E-01  0.51100000000E-03 0. -1.
</event>
<event>
 8    1  0.1109553E+005  0.1043930E+01  0.7957747E-01            NaN
         13   -1    0    0    0    0  0.00000000000E+00  0.00000000000E+00  0.74505805969E-08  0.10566000000E+00  0.10566000000E+00 0.  1.
     999900   -1    0    0    0    0 -0.00000000000E+00 -0.00000000000E+00 -0.74505805969E-08  0.93827000000E+00  0.93827000000E+00 0.  1.
     999902    2    1    2    0    0 -0.64505256276E-02  0.22572205632E-01 -0.48388788014E-02  0.10199606759E+01  0.10196789946E+01 0.  0.
     999903    2    3    3    0    0 -0.84943693476E-01 -0.91558135812E-01 -0.26076946458E-01  0.12887259513E+00  0.18160818948E-01 0.  0.
         14    1    1    2    0    0  0.64505256276E-02 -0.22572205632E-01  0.48388788014E-02  0.23969324062E-01  0.00000000000E+00 0. -1.
     999901    1    3    3    0    0  0.78493167848E-01  0.11413034144E+00  0.21238067656E-01  0.89108808081E+00  0.88000000000E+00 0. -1.
        -11    1    4    4    0    0 -0.45386786065E-01 -0.61589812136E-01 -0.13737465698E-01  0.77731875014E-01  0.51100000000E-03 0.  1.
         11    1    4    4    0    0 -0.39556907411E-01 -0.29968323675E-01 -0.12339480759E-01  0.51140720118E-01  0.51100000000E-03 0. -1.
</event>
<event>
 8    1  0.1109553E+005  0.1043930E+01  0.7957747E-01            NaN
         13   -1    0    0    0    0  0.00000000000E+00  0.00000000000E+00  0.74505805969E-08  0.10566000000E+00  0.10566000000E+00 0.  1.
     999900   -1    0    0    0    0 -0.00000000000E+00 -0.00000000000E+00 -0.74505805969E-08  0.93827000000E+00  0.93827000000E+00 0.  1.
     999902    2    1    2    0    0 -0.89630347359E-02  0.20703803233E-01  0.42050187344E-02  0.10209808030E+01  0.10207228490E+01 0.  0.
     999903    2    3    3    0    0 -0.12730610119E+00  0.28222409350E-01 -0.15727721203E-01  0.13280349811E+00  0.19648412292E-01 0.  0.
         14    1    1    2    0    0  0.89630347359E-02 -0.20703803233E-01 -0.42050187344E-02  0.22949196991E-01  0.00000000000E+00 0. -1.
     999901    1    3    3    0    0  0.11834306646E+00 -0.75186061171E-02  0.19932739938E-01  0.88817730490E+00  0.88000000000E+00 0. -1.
        -11    1    4    4    0    0 -0.85058596085E-01  0.17600898833E-01 -0.19666452481E-01  0.89060579843E-01  0.51100000000E-03 0.  1.
         11    1    4    4    0    0 -0.42247505107E-01  0.10621510517E-01  0.39387312778E-02  0.43742918267E-01  0.51100000000E-03 0. -1.
</event>
<event>
 8    1  0.1109553E+005  0.1043930E+01  0.7957747E-01            NaN
         13   -1    0    0    0    0  0.00000000000E+00  0.00000000000E+00  0.74505805969E-08  0.10566000000E+00  0.10566000000E+00 0.  1.
     999900   -1    0    0    0    0 -0.00000000000E+00 -0.00000000000E+00 -0.74505805969E-08  0.93827000000E+00  0.93827000000E+00 0. -1.
     999902    2    1    2    0    0 -0.13963756225E-01  0.79857360109E-02 -0.17526099928E-01  0.10201408713E+01  0.10198634588E+01 0.  0.
     999903    2    3    3    0    0  0.66594779656E-01 -0.10551763665E+00  0.21678002557E-01  0.12833951728E+00  0.20790853241E-01 0.  0.
         14    1    1    2    0    0  0.13963756225E-01 -0.79857360109E-02  0.17526099928E-01  0.23789128741E-01  0.00000000000E+00 0.  1.
     999901    1    3    3    0    0 -0.80558535881E-01  0.11350337266E+00 -0.39204102485E-01  0.89180135398E+00  0.88000000000E+00 0. -1.
        -11    1    4    4    0    0 -0.41464722569E-03 -0.87727282454E-02  0.19518961115E-02  0.90113102610E-02  0.51100000000E-03 0.  1.
         11    1    4    4    0    0  0.67009426882E-01 -0.96744908407E-01  0.19726106445E-01  0.11932820702E+00  0.51100000000E-03 0. -1.
</event>
<event>
 8    1  0.1109553E+005  0.1043930E+01  0.7957747E-01            NaN
         13   -1    0    0    0    0  0.00000000000E+00  0.00000000000E+00  0.74505805969E-08  0.10566000000E+00  0.10566000000E+00 0.  1.
     999900   -1    0    0    0    0 -0.00000000000E+00 -0.00000000000E+00 -0.74505805969E-08  0.93827000000E+00  0.93827000000E+00 0.  1.
     999902    2    1    2    0    0 -0.37192452298E-02  0.87478010603E-02  0.22889970419E-01  0.10191447715E+01  0.10188433430E+01 0.  0.
     999903    2    3    3    0    0  0.49722601788E-01  0.89720235290E-01  0.80557499184E-01  0.13193672934E+00  0.19893016971E-01 0.  0.
         14    1    1    2    0    0  0.37192452298E-02 -0.87478010603E-02 -0.22889970419E-01  0.24785228550E-01  0.00000000000E+00 0. -1.
     999901    1    3    3    0    0 -0.53441847017E-01 -0.80972434229E-01 -0.57667528764E-01  0.88720804211E+00  0.88000000000E+00 0.  1.
        -11    1    4    4    0    0  0.24255136239E-01  0.62700033551E-01  0.54944901507E-01  0.86826316079E-01  0.51100000000E-03 0. -1.
         11    1    4    4    0    0  0.25467465548E-01  0.27020201739E-01  0.25612597677E-01  0.45110413257E-01  0.51100000000E-03 0.  1.
</event>
<event>
 7    1  0.1109553E+005  0.1043930E+01  0.7957747E-01            NaN
         13   -1    0    0    0    0  0.00000000000E+00  0.00000000000E+00  0.74505805969E-08  0.10566000000E+00  0.10566000000E+00 0.  1.
     999900   -1    0    0    0    0 -0.00000000000E+00 -0.00000000000E+00 -0.74505805969E-08  0.93827000000E+00  0.93827000000E+00 0.  1.
     999903    2    1    2    0    0 -0.48128110665E-01  0.69191504109E-01  0.79722816451E-01  0.11789815129E+00  0.20987313757E-01 0.  0.
         14    1    1    2    0    0  0.35642824034E-01 -0.15494223788E-01 -0.15926890369E-01  0.42001758448E-01  0.00000000000E+00 0. -1.
     999901    1    1    2    0    0  0.12485286631E-01 -0.53697280321E-01 -0.63795926083E-01  0.88403009026E+00  0.88000000000E+00 0.  1.
        -11    1    3    3    0    0 -0.18448894053E-01  0.11567413552E-01  0.24097035493E-01  0.32482225733E-01  0.51100000000E-03 0.  1.
         11    1    3    3    0    0 -0.29679216612E-01  0.57624090557E-01  0.55625780959E-01  0.85415925561E-01  0.51100000000E-03 0. -1.
</event>
<event>
 8    1  0.1109553E+005  0.1043930E+01  0.7957747E-01            NaN
         13   -1    0    0    0    0  0.00000000000E+00  0.00000000000E+00  0.74505805969E-08  0.10566000000E+00  0.10566000000E+00 0.  1.
     999900   -1    0    0    0    0 -0.00000000000E+00 -0.00000000000E+00 -0.74505805969E-08  0.93827000000E+00  0.93827000000E+00 0. -1.
     999902    2    1    2    0    0 -0.12023535700E-01 -0.21510988276E-01 -0.22489048294E-02  0.10191843822E+01  0.10188839283E+01 0.  0.
     999903    2    3    3    0    0 -0.98820659625E-01 -0.64739743386E-01 -0.56072840893E-01  0.13222357017E+00  0.19548705316E-01 0.  0.
         14    1    1    2    0    0  0.12023535700E-01  0.21510988276E-01  0.22489048294E-02  0.24745617799E-01  0.00000000000E+00 0. -1.
     999901    1    3    3    0    0  0.86797123925E-01  0.43228755111E-01  0.53823936064E-01  0.88696081203E+00  0.88000000000E+00 0.  1.
        -11    1    4    4    0    0 -0.98296514525E-01 -0.60543547445E-01 -0.54684819219E-01  0.12774355748E+00  0.51100000000E-03 0.  1.
         11    1    4    4    0    0 -0.52414510025E-03 -0.41961959417E-02 -0.13880216743E-02  0.44800126825E-02  0.51100000000E-03 0. -1.
</event>
<event>
 8    1  0.1109553E+005  0.1043930E+01  0.7957747E-01            NaN
         13   -1    0    0    0    0  0.00000000000E+00  0.00000000000E+00  0.74505805969E-08  0.10566000000E+00  0.10566000000E+00 0. -1.
     999900   -1    0    0    0    0 -0.00000000000E+00 -0.00000000000E+00 -0.74505805969E-08  0.93827000000E+00  0.93827000000E+00 0. -1.
     999902    2    1    2    0    0  0.11415622633E-01  0.98048181496E-02 -0.18224211609E-01  0.10202958555E+01  0.10200220879E+01 0.  0.
     999903    2    3    3    0    0  0.99145072504E-01  0.85444553607E-01  0.38917650228E-02  0.13242934389E+00  0.19795659767E-01 0.  0.
         14    1    1    2    0    0 -0.11415622633E-01 -0.98048181496E-02  0.18224211609E-01  0.23634144533E-01  0.00000000000E+00 0. -1.
     999901    1    3    3    0    0 -0.87729449871E-01 -0.75639735457E-01 -0.22115976632E-01  0.88786651158E+00  0.88000000000E+00 0. -1.
        -11    1    4    4    0    0  0.13762860469E-01  0.11821182399E-01 -0.63365846550E-02  0.19224206295E-01  0.51100000000E-03 0. -1.
         11    1    4    4    0    0  0.85382212035E-01  0.73623371207E-01  0.10228349678E-01  0.11320513760E+00  0.51100000000E-03 0.  1.
</event>
<event>
 8    1  0.1109553E+005  0.1043930E+01  0.7957747E-01            NaN
         13   -1    0    0    0    0  0.00000000000E+00  0.00000000000E+00  0.74505805969E-08  0.10566000000E+00  0.10566000000E+00 0.  1.
     999900   -1    0    0    0    0 -0.00000000000E+00 -0.00000000000E+00 -0.74505805969E-08  0.93827000000E+00  0.93827000000E+00 0.  1.
     999902    2    1    2    0    0  0.23656061881E-01 -0.26638329371E-02  0.24544263040E-02  0.10199982329E+01  0.10197174440E+01 0.  0.
     999903    2    3    3    0    0 -0.10222424341E+00  0.68446879913E-01 -0.27753197881E-01  0.12768938202E+00  0.19989171491E-01 0.  0.
         14    1    1    2    0    0 -0.23656061881E-01  0.26638329371E-02 -0.24544263040E-02  0.23931767133E-01  0.00000000000E+00 0. -1.
     999901    1    3    3    0    0  0.12588030529E+00 -0.71110712850E-01  0.30207624186E-01  0.89230885085E+00  0.88000000000E+00 0.  1.
        -11    1    4    4    0    0 -0.77129745710E-01  0.42324965791E-01 -0.14801731522E-01  0.89217446609E-01  0.51100000000E-03 0. -1.
         11    1    4    4    0    0 -0.25094497702E-01  0.26121914123E-01 -0.12951466360E-01  0.38471935410E-01  0.51100000000E-03 0.  1.
</event>
<event>
 8    1  0.1109553E+005  0.1043930E+01  0.7957747E-01            NaN
         13   -1    0    0    0    0  0.00000000000E+00  0.00000000000E+00  0.74505805969E-08  0.10566000000E+00  0.10566000000E+00 0. -1.
     999900   -1    0    0    0    0 -0.00000000000E+00 -0.00000000000E+00 -0.74505805969E-08  0.93827000000E+00  0.93827000000E+00 0.  1.
     999902    2    1    2    0    0  0.18314103185E-01 -0.14283846751E-01  0.33695751807E-02  0.10204611123E+01  0.10201912041E+01 0.  0.
     999903    2    3    3    0    0 -0.12176568417E+00  0.59573924814E-02  0.36374818522E-01  0.12854104823E+00  0.18365764097E-01 0.  0.
         14    1    1    2    0    0 -0.18314103185E-01  0.14283846751E-01 -0.33695751807E-02  0.23468887711E-01  0.00000000000E+00 0. -1.
     999901    1    3    3    0    0  0.14007978735E+00 -0.20241239233E-01 -0.33005243341E-01  0.89192006406E+00  0.88000000000E+00 0.  1.
        -11    1    4    4    0    0 -0.45839524171E-01  0.54477019357E-02  0.51854429420E-02  0.46455240524E-01  0.51100000000E-03 0. -1.
         11    1    4    4    0    0 -0.75926159995E-01  0.50969054576E-03  0.31189375580E-01  0.82085807702E-01  0.51100000000E-03 0.  1.
</event>
<event>
 8    1  0.1109553E+005  0.1043930E+01  0.7957747E-01            NaN
         13   -1    0    0    0    0  0.00000000000E+00  0.00000000000E+00  0.74505805969E-08  0.10566000000E+00  0.10566000000E+00 0. -1.
     999900   -1    0    0    0    0 -0.00000000000E+00 -0.00000000000E+00 -0.74505805969E-08  0.93827000000E+00  0.93827000000E+00 0. -1.
     999902    2    1    2    0    0  0.59389419397E-02  0.21173609791E-01 -0.90980625205E-02  0.10201315226E+01  0.10198538895E+01 0.  0.
     999903    2    3    3    0    0 -0.62240869605E-01  0.92707412707E-01 -0.68441832894E-01  0.13261405535E+00  0.20823375495E-01 0.  0.
         14    1    1    2    0    0 -0.59389419397E-02 -0.21173609791E-01  0.90980625205E-02  0.23798477358E-01  0.00000000000E+00 0.  1.
     999901    1    3    3    0    0  0.68179811545E-01 -0.71533802916E-01  0.59343770373E-01  0.88751746729E+00  0.88000000000E+00 0.  1.
        -11    1    4    4    0    0 -0.20935295572E-01  0.32700282801E-01 -0.35683567969E-01  0.52736830014E-01  0.51100000000E-03 0. -1.
         11    1    4    4    0    0 -0.41305574034E-01  0.60007129906E-01 -0.32758264925E-01  0.79877225338E-01  0.51100000000E-03 0.  1.
</event>
<event>
 8    1  0.1109553E+005  0.1043930E+01  0.7957747E-01            NaN
         13   -1    0    0    0    0  0.00000000000E+00  0.00000000000E+00  0.74505805969E-08  0.10566000000E+00  0.10566000000E+00 0. -1.
     999900   -1    0    0    0    0 -0.00000000000E+00 -0.00000000000E+00 -0.74505805969E-08  0.93827000000E+00  0.93827000000E+00 0. -1.
     999902    2    1    2    0    0  0.19817565803E-01  0.12793461251E-01 -0.16983060134E-02  0.10202806277E+01  0.10200065032E+01 0.  0.
     999903    2    3    3    0    0 -0.11077759785E+00  0.46766650098E-01 -0.42138602638E-01  0.12907655912E+00  0.20647046611E-01 0.  0.
         14    1    1    2    0    0 -0.19817565803E-01 -0.12793461251E-01  0.16983060134E-02  0.23649372264E-01  0.00000000000E+00 0.  1.
     999901    1    3    3    0    0  0.13059516366E+00 -0.33973188847E-01  0.40440296624E-01  0.89120406862E+00  0.88000000000E+00 0.  1.
        -11    1    4    4    0    0 -0.69198143802E-01  0.33188799726E-01 -0.16940247617E-01  0.78594609505E-01  0.51100000000E-03 0. -1.
         11    1    4    4    0    0 -0.41579454052E-01  0.13577850372E-01 -0.25198355020E-01  0.50481949613E-01  0.51100000000E-03 0.  1.
</event>
<event>
 8    1  0.1109553E+005  0.1043930E+01  0.7957747E-01            NaN
         13   -1    0    0    0    0  0.00000000000E+00  0.00000000000E+00  0.74505805969E-08  0.10566000000E+00  0.10566000000E+00 0.  1.
     999900   -1    0    0    0    0 -0.00000000000E+00 -0.00000000000E+00 -0.74505805969E-08  0.93827000000E+00  0.93827000000E+00 0.  1.
     999902    2    1    2    0    0 -0.11765483969E-01  0.52098371031E-02 -0.18897583195E-01  0.10210676365E+01  0.10208116528E+01 0.  0.
     999903    2    3    3    0    0 -0.20885843420E-01  0.66326316194E-01 -0.11167231389E+00  0.13403575675E+00  0.25680337315E-01 0.  0.
         14    1    1    2    0    0  0.11765483969E-01 -0.52098371031E-02  0.18897583195E-01  0.22862363532E-01  0.00000000000E+00 0.  1.
     999901    1    3    3    0    0  0.91203594504E-02 -0.61116479091E-01  0.92774730692E-01  0.88703187971E+00  0.88000000000E+00 0. -1.
        -11    1    4    4    0    0 -0.65496453855E-02  0.53904353886E-01 -0.91028697747E-01  0.10599557612E+00  0.51100000000E-03 0.  1.
         11    1    4    4    0    0 -0.14336198034E-01  0.12421962307E-01 -0.20643616140E-01  0.28040180634E-01  0.51100000000E-03 0. -1.
</event>
<event>
 8    1  0.1109553E+005  0.1043930E+01  0.7957747E-01            NaN
         13   -1    0    0    0    0  0.00000000000E+00  0.00000000000E+00  0.74505805969E-08  0.10566000000E+00  0.10566000000E+00 0. -1.
     999900   -1    0    0    0    0 -0.00000000000E+00 -0.00000000000E+00 -0.74505805969E-08  0.93827000000E+00  0.93827000000E+00 0.  1.
     999902    2    1    2    0    0  0.19562119403E-01 -0.44973285946E-02 -0.11913155422E-01  0.10205884972E+01  0.10203215449E+01 0.  0.
     999903    2    3    3    0    0 -0.99112515330E-01  0.60939082892E-01 -0.52777730844E-01  0.12927738071E+00  0.19755752899E-01 0.  0.
         14    1    1    2    0    0 -0.19562119403E-01  0.44973285946E-02  0.11913155422E-01  0.23341502783E-01  0.00000000000E+00 0. -1.
     999901    1    3    3    0    0  0.11867463473E+00 -0.65436411486E-01  0.40864575422E-01  0.89131111650E+00  0.88000000000E+00 0.  1.
        -11    1    4    4    0    0 -0.20491709129E-01  0.17478009545E-01 -0.45637738557E-02  0.27321788256E-01  0.51100000000E-03 0.  1.
         11    1    4    4    0    0 -0.78620806201E-01  0.43461073347E-01 -0.48213956988E-01  0.10195559246E+00  0.51100000000E-03 0. -1.
</event>
<event>
 8    1  0.1109553E+005  0.1043930E+01  0.7957747E-01            NaN
         13   -1    0    0    0    0  0.00000000000E+00  0.00000000000E+00  0.74505805969E-08  0.10566000000E+00  0.10566000000E+00 0. -1.
     999900   -1    0    0    0    0 -0.00000000000E+00 -0.00000000000E+00 -0.74505805969E-08  0.93827000000E+00  0.93827000000E+00 0.  1.
     999902    2    1    2    0    0 -0.17547441423E-01  0.12481181594E-01  0.10025016110E-01  0.10201772414E+01  0.10199006865E+01 0.  0.
     999903    2    3    3    0    0  0.85210043728E-02  0.47231240758E-01 -0.11876284445E+00  0.12974282857E+00  0.20620153312E-01 0.  0.
         14    1    1    2    0    0  0.17547441423E-01 -0.12481181594E-01 -0.10025016110E-01  0.23752758628E-01  0.00000000000E+00 0. -1.
     999901    1    3    3    0    0 -0.26068445795E-01 -0.34750059165E-01  0.12878786056E+00  0.89043441280E+00  0.88000000000E+00 0. -1.
        -11    1    4    4    0    0  0.14488307714E-01  0.32203980024E-01 -0.90970653931E-01  0.97585492710E-01  0.51100000000E-03 0. -1.
         11    1    4    4    0    0 -0.59673033413E-02  0.15027260734E-01 -0.27792190523E-01  0.32157335856E-01  0.51100000000E-03 0.  1.
</event>
<event>
 8    1  0.1109553E+005  0.1043930E+01  0.7957747E-01            NaN
         13   -1    0    0    0    0  0.00000000000E+00  0.00000000000E+00  0.74505805969E-08  0.10566000000E+00  0.10566000000E+00 0.  1.
     999900   -1    0    0    0    0 -0.00000000000E+00 -0.00000000000E+00 -0.74505805969E-08  0.93827000000E+00  0.93827000000E+00 0. -1.
     999902    2    1    2    0    0  0.14305294474E-01 -0.22442508445E-02 -0.18099194438E-01  0.10207511529E+01  0.10204879506E+01 0.  0.
     999903    2    3    3    0    0  0.12658748320E-01  0.50976321324E-01 -0.12026243982E+00  0.13324201545E+00  0.23055389954E-01 0.  0.
         14    1    1    2    0    0 -0.14305294474E-01  0.22442508445E-02  0.18099194438E-01  0.23178847063E-01  0.00000000000E+00 0.  1.
     999901    1    3    3    0    0  0.16465461543E-02 -0.53220572168E-01  0.10216324538E+00  0.88750913749E+00  0.88000000000E+00 0.  1.
        -11    1    4    4    0    0 -0.51068228499E-02  0.12912034329E-01 -0.18398821661E-01  0.23055976007E-01  0.51100000000E-03 0. -1.
         11    1    4    4    0    0  0.17765571170E-01  0.38064286995E-01 -0.10186361816E+00  0.11018603944E+00  0.51100000000E-03 0.  1.
</event>
<event>
 8    1  0.1109553E+005  0.1043930E+01  0.7957747E-01            NaN
         13   -1    0    0    0    0  0.00000000000E+00  0.00000000000E+00  0.74505805969E-08  0.10566000000E+00  0.10566000000E+00 0.  1.
     999900   -1    0    0    0    0 -0.00000000000E+00 -0.00000000000E+00 -0.74505805969E-08  0.93827000000E+00  0.93827000000E+00 0.  1.
     999902    2    1    2    0    0  0.17006056872E-01  0.41013618902E-02 -0.15776875667E-01  0.10203729003E+01  0.10201009356E+01 0.  0.
     999903    2    3    3    0    0  0.12485403620E+00  0.77081896017E-02  0.38482854657E-01  0.13212275864E+00  0.18098251490E-01 0.  0.
         14    1    1    2    0    0 -0.17006056872E-01 -0.41013618902E-02  0.15776875667E-01  0.23557099683E-01  0.00000000000E+00 0.  1.
     999901    1    3    3    0    0 -0.10784797933E+00 -0.36068277115E-02 -0.54259730324E-01  0.88825014167E+00  0.88000000000E+00 0.  1.
        -11    1    4    4    0    0  0.99592972127E-01  0.12886029351E-01  0.33418876253E-01  0.10583899216E+00  0.51100000000E-03 0. -1.
         11    1    4    4    0    0  0.25261064070E-01 -0.51778397497E-02  0.50639784039E-02  0.26283766487E-01  0.51100000000E-03 0.  1.
</event>
<event>
 8    1  0.1109553E+005  0.1043930E+01  0.7957747E-01            NaN
         13   -1    0    0    0    0  0.00000000000E+00  0.00000000000E+00  0.74505805969E-08  0.10566000000E+00  0.10566000000E+00 0.  1.
     999900   -1    0    0    0    0 -0.00000000000E+00 -0.00000000000E+00 -0.74505805969E-08  0.93827000000E+00  0.93827000000E+00 0.  1.
     999902    2    1    2    0    0 -0.13090758901E-01  0.18079480368E-01  0.72888455911E-02  0.10204488831E+01  0.10201786904E+01 0.  0.
     999903    2    3    3    0    0  0.12090815929E+00 -0.59798425569E-02  0.41008951805E-01  0.12934192735E+00  0.19825704084E-01 0.  0.
         14    1    1    2    0    0  0.13090758901E-01 -0.18079480368E-01 -0.72888455911E-02  0.23481116861E-01  0.00000000000E+00 0. -1.
     999901    1    3    3    0    0 -0.13399891819E+00  0.24059322925E-01 -0.33720106214E-01  0.89110695579E+00  0.88000000000E+00 0. -1.
        -11    1    4    4    0    0  0.79931427255E-01 -0.12443941522E-01  0.22895753962E-01  0.84073547648E-01  0.51100000000E-03 0. -1.
         11    1    4    4    0    0  0.40976732033E-01  0.64640989649E-02  0.18113197843E-01  0.45268379700E-01  0.51100000000E-03 0.  1.
</event>
<event>
 8    1  0.1109553E+005  0.1043930E+01  0.7957747E-01            NaN
         13   -1    0    0    0    0  0.00000000000E+00  0.00000000000E+00  0.74505805969E-08  0.10566000000E+00  0.10566000000E+00 0. -1.
     999900   -1    0    0    0    0 -0.00000000000E+00 -0.00000000000E+00 -0.74505805969E-08  0.93827000000E+00  0.93827000000E+00 0. -1.
     999902    2    1    2    0    0 -0.91909335824E-02  0.19000332079E-01 -0.10987145650E-01  0.10201349743E+01  0.10198574226E+01 0.  0.
     999903    2    3    3    0    0  0.29290542639E-01 -0.38656119229E-02  0.12352148042E+00  0.12878978532E+00  0.21362907914E-01 0.  0.
         14    1    1    2    0    0  0.91909335824E-02 -0.19000332079E-01  0.10987145650E-01  0.23795025715E-01  0.00000000000E+00 0.  1.
     999901    1    3    3    0    0 -0.38481476221E-01  0.22865944002E-01 -0.13450862607E+00  0.89134518897E+00  0.88000000000E+00 0. -1.
        -11    1    4    4    0    0  0.24358655973E-01 -0.81079182876E-04  0.57162066482E-01  0.62137860119E-01  0.51100000000E-03 0. -1.
         11    1    4    4    0    0  0.49318866662E-02 -0.37845327400E-02  0.66359413934E-01  0.66651925200E-01  0.51100000000E-03 0.  1.
</event>
<event>
 8    1  0.1109553E+005  0.1043930E+01  0.7957747E-01            NaN
         13   -1    0    0    0    0  0.00000000000E+00  0.00000000000E+00  0.74505805969E-08  0.10566000000E+00  0.10566000000E+00 0.  1.
     999900   -1    0    0    0    0 -0.00000000000E+00 -0.00000000000E+00 -0.74505805969E-08  0.93827000000E+00  0.93827000000E+00 0.  1.
     999902    2    1    2    0    0 -0.24598620907E-01 -0.22389555415E-01 -0.20298208270E-02  0.10106057669E+01  0.10100561922E+01 0.  0.
     999903    2    3    3    0    0  0.89774130159E-01 -0.38804750165E-01  0.67264494734E-01  0.12035170931E+00  0.19870042793E-01 0.  0.
         14    1    1    2    0    0  0.24598620907E-01  0.22389555415E-01  0.20298208270E-02  0.33324233146E-01  0.00000000000E+00 0.  1.
     999901    1    3    3    0    0 -0.11437275107E+00  0.16415194750E-01 -0.69294315561E-01  0.89025405754E+00  0.88000000000E+00 0.  1.
        -11    1    4    4    0    0  0.66116352399E-01 -0.37233411689E-01  0.47903544337E-01  0.89736891419E-01  0.51100000000E-03 0. -1.
         11    1    4    4    0    0  0.23657777761E-01 -0.15713384765E-02  0.19360950397E-01  0.30614817890E-01  0.51100000000E-03 0.  1.
</event>
<event>
 8    1  0.1109553E+005  0.1043930E+01  0.7957747E-01            NaN
         13   -1    0    0    0    0  0.00000000000E+00  0.00000000000E+00  0.74505805969E-08  0.10566000000E+00  0.10566000000E+00 0.  1.
     999900   -1    0    0    0    0 -0.00000000000E+00 -0.00000000000E+00 -0.74505805969E-08  0.93827000000E+00  0.93827000000E+00 0.  1.
     999902    2    1    2    0    0  0.16340284700E-01  0.14931206384E-01 -0.81622896912E-02  0.10203382896E+01  0.10200655157E+01 0.  0.
     999903    2    3    3    0    0 -0.83054283237E-01  0.98933785730E-01 -0.85884359591E-04  0.13073110558E+00  0.20117322585E-01 0.  0.
         14    1    1    2    0    0 -0.16340284700E-01 -0.14931206384E-01  0.81622896912E-02  0.23591710433E-01  0.00000000000E+00 0. -1.
     999901    1    3    3    0    0  0.99394567937E-01 -0.84002579346E-01 -0.80764053316E-02  0.88960718398E+00  0.88000000000E+00 0.  1.
        -11    1    4    4    0    0 -0.33249674866E-01  0.41878160764E-01 -0.98258713460E-02  0.54370305281E-01  0.51100000000E-03 0. -1.
         11    1    4    4    0    0 -0.49804608370E-01  0.57055624967E-01  0.97399869864E-02  0.76360800302E-01  0.51100000000E-03 0.  1.
</event>
<event>
 8    1  0.1109553E+005  0.1043930E+01  0.7957747E-01            NaN
         13   -1    0    0    0    0  0.00000000000E+00  0.00000000000E+00  0.74505805969E-08  0.10566000000E+00  0.10566000000E+00 0.  1.
     999900   -1    0    0    0    0 -0.00000000000E+00 -0.00000000000E+00 -0.74505805969E-08  0.93827000000E+00  0.93827000000E+00 0.  1.
     999902    2    1    2    0    0  0.82487375366E-02  0.13549762106E-01 -0.20306387138E-01  0.10181620532E+01  0.10178359295E+01 0.  0.
     999903    2    3    3    0    0  0.58693829840E-01 -0.10707004734E+00  0.29376622167E-01  0.12711646110E+00  0.19663368355E-01 0.  0.
         14    1    1    2    0    0 -0.82487375366E-02 -0.13549762106E-01  0.20306387138E-01  0.25767946807E-01  0.00000000000E+00 0.  1.
     999901    1    3    3    0    0 -0.50445092303E-01  0.12061980944E+00 -0.49683009305E-01  0.89104559209E+00  0.88000000000E+00 0.  1.
        -11    1    4    4    0    0  0.27356020941E-01 -0.54449079940E-01  0.24490285499E-01  0.65674115090E-01  0.51100000000E-03 0.  1.
         11    1    4    4    0    0  0.31337808899E-01 -0.52620967399E-01  0.48863366682E-02  0.61442346013E-01  0.51100000000E-03 0. -1.
</event>
<event>
 8    1  0.1109553E+005  0.1043930E+01  0.7957747E-01            NaN
         13   -1    0    0    0    0  0.00000000000E+00  0.00000000000E+00  0.74505805969E-08  0.10566000000E+00  0.10566000000E+00 0. -1.
     999900   -1    0    0    0    0 -0.00000000000E+00 -0.00000000000E+00 -0.74505805969E-08  0.93827000000E+00  0.93827000000E+00 0. -1.
     999902    2    1    2    0    0  0.14785582620E-01 -0.15608688900E-02 -0.17888934925E-01  0.10206692228E+01  0.10204041349E+01 0.  0.
     999903    2    3    3    0    0 -0.24810802343E-01 -0.11646458035E+00 -0.52584466228E-01  0.13163912400E+00  0.19599961466E-01 0.  0.
         14    1    1    2    0    0 -0.14785582620E-01  0.15608688900E-02  0.17888934925E-01  0.23260777241E-01  0.00000000000E+00 0. -1.
     999901    1    3    3    0    0  0.39596384963E-01  0.11490371146E+00  0.34695531303E-01  0.88903009876E+00  0.88000000000E+00 0.  1.
        -11    1    4    4    0    0 -0.14600469920E-01 -0.81587568460E-01 -0.26922547808E-01  0.87148090917E-01  0.51100000000E-03 0.  1.
         11    1    4    4    0    0 -0.10210332423E-01 -0.34877011891E-01 -0.25661918420E-01  0.44491033081E-01  0.51100000000E-03 0. -1.
</event>
<event>
 8    1  0.1109553E+005  0.1043930E+01  0.7957747E-01            NaN
         13   -1    0    0    0    0  0.00000000000E+00  0.00000000000E+00  0.74505805969E-08  0.10566000000E+00  0.10566000000E+00 0.  1.
     999900   -1    0    0    0    0 -0.00000000000E+00 -0.00000000000E+00 -0.74505805969E-08  0.93827000000E+00  0.93827000000E+00 0. -1.
     999902    2    1    2    0    0  0.15064264073E-01  0.11015156959E-01 -0.14571578394E-01  0.10202530781E+01  0.10199783070E+01 0.  0.
     999903    2    3    3    0    0  0.44550804779E-01 -0.17290951997E-01  0.11844435281E+00  0.12931877643E+00  0.20261539863E-01 0.  0.
         14    1    1    2    0    0 -0.15064264073E-01 -0.11015156959E-01  0.14571578394E-01  0.23676921924E-01  0.00000000000E+00 0.  1.
     999901    1    3    3    0    0 -0.29486540706E-01  0.28306108956E-01 -0.13301593121E+00  0.89093430164E+00  0.88000000000E+00 0. -1.
        -11    1    4    4    0    0  0.42856495239E-01 -0.20886561802E-01  0.11205694765E+00  0.12177827510E+00  0.51100000000E-03 0.  1.
         11    1    4    4    0    0  0.16943095400E-02  0.35956098052E-02  0.63874051652E-02  0.75405013383E-02  0.51100000000E-03 0. -1.
</event>
<event>
 8    1  0.1109553E+005  0.1043930E+01  0.7957747E-01            NaN
         13   -1    0    0    0    0  0.00000000000E+00  0.00000000000E+00  0.74505805969E-08  0.10566000000E+00  0.10566000000E+00 0.  1.
     999900   -1    0    0    0    0 -0.00000000000E+00 -0.00000000000E+00 -0.74505805969E-08  0.93827000000E+00  0.93827000000E+00 0.  1.
     999902    2    1    2    0    0 -0.82450379213E-02 -0.25623901570E-01 -0.87166162315E-02  0.10156361070E+01  0.10152419207E+01 0.  0.
     999903    2    3    3    0    0  0.15682259272E-02 -0.12822338953E+00 -0.48798793551E-02  0.12961258835E+00  0.18218476303E-01 0.  0.
         14    1    1    2    0    0  0.82450379213E-02  0.25623901570E-01  0.87166162315E-02  0.28293892990E-01  0.00000000000E+00 0.  1.
     999901    1    3    3    0    0 -0.98132638484E-02  0.10259948796E+00 -0.38367368764E-02  0.88602351867E+00  0.88000000000E+00 0. -1.
        -11    1    4    4    0    0 -0.17973023369E-02 -0.84262976355E-01 -0.11364009658E-01  0.85046348049E-01  0.51100000000E-03 0.  1.
         11    1    4    4    0    0  0.33655282641E-02 -0.43960413179E-01  0.64841303028E-02  0.44566240296E-01  0.51100000000E-03 0. -1.
</event>
<event>
 8    1  0.1109553E+005  0.1043930E+01  0.7957747E-01            NaN
         13   -1    0    0    0    0  0.00000000000E+00  0.00000000000E+00  0.74505805969E-08  0.10566000000E+00  0.10566000000E+00 0. -1.
     999900   -1    0    0    0    0 -0.00000000000E+00 -0.00000000000E+00 -0.74505805969E-08  0.93827000000E+00  0.93827000000E+00 0.  1.
     999902    2    1    2    0    0 -0.15117102107E-01 -0.16873519148E-01  0.63636554529E-02  0.10203983503E+01  0.10201269798E+01 0.  0.
     999903    2    3    3    0    0 -0.32167255712E-01  0.11935257697E+00  0.32496088387E-01  0.12937020206E+00  0.20022074100E-01 0.  0.
         14    1    1    2    0    0  0.15117102107E-01  0.16873519148E-01 -0.63636554529E-02  0.23531649651E-01  0.00000000000E+00 0.  1.
     999901    1    3    3    0    0  0.17050153605E-01 -0.13622609611E+00 -0.26132432934E-01  0.89102814829E+00  0.88000000000E+00 0. -1.
        -11    1    4    4    0    0 -0.11317491588E-01  0.16223054845E-01  0.23934890018E-02  0.19931458425E-01  0.51100000000E-03 0.  1.
         11    1    4    4    0    0 -0.20849764124E-01  0.10312952212E+00  0.30102599385E-01  0.10943874363E+00  0.51100000000E-03 0. -1.
</event>
<event>
 8    1  0.1109553E+005  0.1043930E+01  0.7957747E-01            NaN
         13   -1    0    0    0    0  0.00000000000E+00  0.00000000000E+00  0.74505805969E-08  0.10566000000E+00  0.10566000000E+00 0. -1.
     999900   -1    0    0    0    0 -0.00000000000E+00 -0.00000000000E+00 -0.74505805969E-08  0.93827000000E+00  0.93827000000E+00 0. -1.
     999902    2    1    2    0    0  0.16651438739E-01  0.90519211930E-02 -0.14246725034E-01  0.10202197308E+01  0.10199441761E+01 0.  0.
     999903    2    3    3    0    0 -0.22080954841E-01  0.86827215681E-01 -0.95629655232E-01  0.13220375347E+00  0.17500500606E-01 0.  0.
         14    1    1    2    0    0 -0.16651438739E-01 -0.90519211930E-02  0.14246725034E-01  0.23710269158E-01  0.00000000000E+00 0. -1.
     999901    1    3    3    0    0  0.38732393580E-01 -0.77775294488E-01  0.81382930198E-01  0.88801597737E+00  0.88000000000E+00 0.  1.
        -11    1    4    4    0    0 -0.25265200181E-02  0.27925630718E-01 -0.20413776452E-01  0.34687282171E-01  0.51100000000E-03 0.  1.
         11    1    4    4    0    0 -0.19554434823E-01  0.58901584963E-01 -0.75215878780E-01  0.97516471296E-01  0.51100000000E-03 0. -1.
</event>
<event>
 8    1  0.1109553E+005  0.1043930E+01  0.7957747E-01            NaN
         13   -1    0    0    0    0  0.00000000000E+00  0.00000000000E+00  0.74505805969E-08  0.10566000000E+00  0.10566000000E+00 0.  1.
     999900   -1    0    0    0    0 -0.00000000000E+00 -0.00000000000E+00 -0.74505805969E-08  0.93827000000E+00  0.93827000000E+00 0. -1.
     999902    2    1    2    0    0  0.14383391126E-01 -0.19765677155E-01 -0.27662235993E-02  0.10193288633E+01  0.10190319503E+01 0.  0.
     999903    2    3    3    0    0 -0.42448149182E-01  0.11493757225E+00 -0.26009807561E-01  0.12696399759E+00  0.20757064079E-01 0.  0.
         14    1    1    2    0    0 -0.14383391126E-01  0.19765677155E-01  0.27662235993E-02  0.24601136695E-01  0.00000000000E+00 0.  1.
     999901    1    3    3    0    0  0.56831540308E-01 -0.13470324941E+00  0.23243583962E-01  0.89236486572E+00  0.88000000000E+00 0.  1.
        -11    1    4    4    0    0 -0.23516285617E-01  0.75215917902E-01 -0.25910969015E-01  0.82958359624E-01  0.51100000000E-03 0. -1.
         11    1    4    4    0    0 -0.18931863565E-01  0.39721654351E-01 -0.98838545622E-04  0.44005637963E-01  0.51100000000E-03 0.  1.
</event>
<event>
 8    1  0.1109553E+005  0.1043930E+01  0.7957747E-01            NaN
         13   -1    0    0    0    0  0.00000000000E+00  0.00000000000E+00  0.74505805969E-08  0.10566000000E+00  0.10566000000E+00 0. -1.
     999900   -1    0    0    0    0 -0.00000000000E+00 -0.00000000000E+00 -0.74505805969E-08  0.93827000000E+00  0.93827000000E+00 0.  1.
     999902    2    1    2    0    0 -0.40946460937E-02 -0.23900105262E-01 -0.70158202930E-02  0.10186871219E+01  0.10183743170E+01 0.  0.
     999903    2    3    3    0    0  0.57719055217E-02  0.37308354514E-01 -0.12183931126E+00  0.12906458487E+00  0.19688095142E-01 0.  0.
         14    1    1    2    0    0  0.40946460937E-02  0.23900105262E-01  0.70158202930E-02  0.25242878056E-01  0.00000000000E+00 0.  1.
     999901    1    3    3    0    0 -0.98665516154E-02 -0.61208459775E-01  0.11482349097E+00  0.88962253707E+00  0.88000000000E+00 0. -1.
        -11    1    4    4    0    0  0.95694606354E-02  0.66151589187E-02 -0.32835163083E-01  0.34838828339E-01  0.51100000000E-03 0. -1.
         11    1    4    4    0    0 -0.37975551137E-02  0.30693195595E-01 -0.89004148176E-01  0.94225756533E-01  0.51100000000E-03 0.  1.
</event>
<event>
 8    1  0.1109553E+005  0.1043930E+01  0.7957747E-01            NaN
         13   -1    0    0    0    0  0.00000000000E+00  0.00000000000E+00  0.74505805969E-08  0.10566000000E+00  0.10566000000E+00 0.  1.
     999900   -1    0    0    0    0 -0.00000000000E+00 -0.00000000000E+00 -0.74505805969E-08  0.93827000000E+00  0.93827000000E+00 0. -1.
     999902    2    1    2    0    0  0.34152164029E-02  0.95642561866E-02  0.18865732831E-01  0.10225044411E+01  0.10222799409E+01 0.  0.
     999903    2    3    3    0    0  0.48943801371E-01  0.39579522174E-01 -0.11296924749E+00  0.13101454755E+00  0.20993487613E-01 0.  0.
         14    1    1    2    0    0 -0.34152164029E-02 -0.95642561866E-02 -0.18865732831E-01  0.21425558913E-01  0.00000000000E+00 0.  1.
     999901    1    3    3    0    0 -0.45528584969E-01 -0.30015265987E-01  0.13183498032E+00  0.89148989354E+00  0.88000000000E+00 0.  1.
        -11    1    4    4    0    0  0.38727781551E-01  0.19980064991E-01 -0.65832819290E-01  0.78951030884E-01  0.51100000000E-03 0. -1.
         11    1    4    4    0    0  0.10216019820E-01  0.19599457183E-01 -0.47136428204E-01  0.52063516666E-01  0.51100000000E-03 0.  1.
</event>
<event>
 8    1  0.1109553E+005  0.1043930E+01  0.7957747E-01            NaN
         13   -1    0    0    0    0  0.00000000000E+00  0.00000000000E+00  0.74505805969E-08  0.10566000000E+00  0.10566000000E+00 0. -1.
     999900   -1    0    0    0    0 -0.00000000000E+00 -0.00000000000E+00 -0.74505805969E-08  0.93827000000E+00  0.93827000000E+00 0.  1.
     999902    2    1    2    0    0 -0.22220334040E-01 -0.14010341423E-02  0.78135700178E-02  0.10203342797E+01  0.10200614120E+01 0.  0.
     999903    2    3    3    0    0  0.98396341127E-01  0.26487459524E-01 -0.74626179653E-01  0.12785320831E+00  0.19848192022E-01 0.  0.
         14    1    1    2    0    0  0.22220334040E-01  0.14010341423E-02 -0.78135700178E-02  0.23595720331E-01  0.00000000000E+00 0.  1.
     999901    1    3    3    0    0 -0.12061667517E+00 -0.27888493666E-01  0.82439749671E-01  0.89248107136E+00  0.88000000000E+00 0. -1.
        -11    1    4    4    0    0  0.13673803299E-01  0.20264625787E-02 -0.27868771513E-02  0.14110536931E-01  0.51100000000E-03 0.  1.
         11    1    4    4    0    0  0.84722537828E-01  0.24460996945E-01 -0.71839302501E-01  0.11374267138E+00  0.51100000000E-03 0. -1.
</event>
<event>
 8    1  0.1109553E+005  0.1043930E+01  0.7957747E-01            NaN
         13   -1    0    0    0    0  0.00000000000E+00  0.00000000000E+00  0.74505805969E-08  0.10566000000E+00  0.10566000000E+00 0.  1.
     999900   -1    0    0    0    0 -0.00000000000E+00 -0.00000000000E+00 -0.74505805969E-08  0.93827000000E+00  0.93827000000E+00 0.  1.
     999902    2    1    2    0    0  0.21853843613E-01  0.98892914651E-02 -0.17016890664E-02  0.10198824573E+01  0.10195989125E+01 0.  0.
     999903    2    3    3    0    0 -0.88676594862E-01 -0.86001065819E-01 -0.25856676366E-01  0.12747257281E+00  0.17915560476E-01 0.  0.
         14    1    1    2    0    0 -0.21853843613E-01 -0.98892914651E-02  0.17016890664E-02  0.24047542744E-01  0.00000000000E+00 0.  1.
     999901    1    3    3    0    0  0.11053043847E+00  0.95890357285E-01  0.24154987299E-01  0.89240988445E+00  0.88000000000E+00 0. -1.
        -11    1    4    4    0    0 -0.28830795708E-01 -0.21595057456E-01 -0.14452106267E-01  0.38816050601E-01  0.51100000000E-03 0. -1.
         11    1    4    4    0    0 -0.59845799154E-01 -0.64406008364E-01 -0.11404570098E-01  0.88656522207E-01  0.51100000000E-03 0.  1.
</event>
<event>
 8    1  0.1109553E+005  0.1043930E+01  0.7957747E-01            NaN
         13   -1    0    0    0    0  0.00000000000E+00  0.00000000000E+00  0.74505805969E-08  0.10566000000E+00  0.10566000000E+00 0. -1.
     999900   -1    0    0    0    0 -0.00000000000E+00 -0.00000000000E+00 -0.74505805969E-08  0.93827000000E+00  0.93827000000E+00 0. -1.
     999902    2    1    2    0    0  0.56968163217E-02  0.38361329309E-02  0.22817409679E-01  0.10201013656E+01  0.10198230201E+01 0.  0.
     999903    2    3    3    0    0  0.66937011849E-01  0.17708734469E-01  0.11212664848E+00  0.13335509370E+00  0.20421383056E-01 0.  0.
         14    1    1    2    0    0 -0.56968163217E-02 -0.38361329309E-02 -0.22817409679E-01  0.23828634383E-01  0.00000000000E+00 0.  1.
     999901    1    3    3    0    0 -0.61240195527E-01 -0.13872601539E-01 -0.89309238797E-01  0.88674627192E+00  0.88000000000E+00 0. -1.
        -11    1    4    4    0    0  0.64186249282E-01  0.20646578191E-01  0.10924860004E+00  0.12838097024E+00  0.51100000000E-03 0. -1.
         11    1    4    4    0    0  0.27507625660E-02 -0.29378437218E-02  0.28780484415E-02  0.49741234665E-02  0.51100000000E-03 0.  1.
</event>
<event>
 8    1  0.1109553E+005  0.1043930E+01  0.7957747E-01            NaN
         13   -1    0    0    0    0  0.00000000000E+00  0.00000000000E+00  0.74505805969E-08  0.10566000000E+00  0.10566000000E+00 0. -1.
     999900   -1    0    0    0    0 -0.00000000000E+00 -0.00000000000E+00 -0.74505805969E-08  0.93827000000E+00  0.93827000000E+00 0.  1.
     999902    2    1    2    0    0 -0.29707278815E-02 -0.10776582145E-01 -0.20750275120E-01  0.10203602341E+01  0.10200879734E+01 0.  0.
     999903    2    3    3    0    0  0.40393797573E-02  0.66302162733E-01 -0.11251230184E+00  0.13221016566E+00  0.20204367531E-01 0.  0.
         14    1    1    2    0    0  0.29707278815E-02  0.10776582145E-01  0.20750275120E-01  0.23569765897E-01  0.00000000000E+00 0. -1.
     999901    1    3    3    0    0 -0.70101076388E-02 -0.77078744878E-01  0.91762026721E-01  0.88815006844E+00  0.88000000000E+00 0. -1.
        -11    1    4    4    0    0 -0.56934966715E-02  0.16571930818E-01 -0.19016149268E-01  0.25863484865E-01  0.51100000000E-03 0.  1.
         11    1    4    4    0    0  0.97328764289E-02  0.49730231915E-01 -0.93496152574E-01  0.10634668080E+00  0.51100000000E-03 0. -1.
</event>
<event>
 8    1  0.1109553E+005  0.1043930E+01  0.7957747E-01            NaN
         13   -1    0    0    0    0  0.00000000000E+00  0.00000000000E+00  0.74505805969E-08  0.10566000000E+00  0.10566000000E+00 0.  1.
     999900   -1    0    0    0    0 -0.00000000000E+00 -0.00000000000E+00 -0.74505805969E-08  0.93827000000E+00  0.93827000000E+00 0.  1.
     999902    2    1    2    0    0 -0.20516067947E-01  0.11142463059E-01 -0.15309952599E-02  0.10205332593E+01  0.10202650273E+01 0.  0.
     999903    2    3    3    0    0  0.83609113059E-02  0.11030622558E+00 -0.69164272509E-01  0.13191546078E+00  0.19509586364E-01 0.  0.
         14    1    1    2    0    0  0.20516067947E-01 -0.11142463059E-01  0.15309952599E-02  0.23396740660E-01  0.00000000000E+00 0.  1.
     999901    1    3    3    0    0 -0.28876979253E-01 -0.99163762526E-01  0.67633277249E-01  0.88861779856E+00  0.88000000000E+00 0.  1.
        -11    1    4    4    0    0 -0.20565662563E-03  0.60710528864E-01 -0.27839210487E-01  0.66791416897E-01  0.51100000000E-03 0. -1.
         11    1    4    4    0    0  0.85665679315E-02  0.49595696721E-01 -0.41325062022E-01  0.65124043881E-01  0.51100000000E-03 0.  1.
</event>
<event>
 8    1  0.1109553E+005  0.1043930E+01  0.7957747E-01            NaN
         13   -1    0    0    0    0  0.00000000000E+00  0.00000000000E+00  0.74505805969E-08  0.10566000000E+00  0.10566000000E+00 0. -1.
     999900   -1    0    0    0    0 -0.00000000000E+00 -0.00000000000E+00 -0.74505805969E-08  0.93827000000E+00  0.93827000000E+00 0.  1.
     999902    2    1    2    0    0  0.59404260566E-02  0.24337977257E-01  0.42257250510E-02  0.10185236514E+01  0.10182067304E+01 0.  0.
     999903    2    3    3    0    0 -0.14371838666E-01 -0.11532824353E+00  0.47134477974E-01  0.12624544228E+00  0.14460262168E-01 0.  0.
         14    1    1    2    0    0 -0.59404260566E-02 -0.24337977257E-01 -0.42257250510E-02  0.25406348634E-01  0.00000000000E+00 0.  1.
     999901    1    3    3    0    0  0.20312264723E-01  0.13966622078E+00 -0.42908752923E-01  0.89227820908E+00  0.88000000000E+00 0.  1.
        -11    1    4    4    0    0 -0.63121227414E-02 -0.74904507862E-01  0.23658317884E-01  0.78806759340E-01  0.51100000000E-03 0. -1.
         11    1    4    4    0    0 -0.80597159249E-02 -0.40423735664E-01  0.23476160091E-01  0.47438682944E-01  0.51100000000E-03 0.  1.
</event>
<event>
 8    1  0.1109553E+005  0.1043930E+01  0.7957747E-01            NaN
         13   -1    0    0    0    0  0.00000000000E+00  0.00000000000E+00  0.74505805969E-08  0.10566000000E+00  0.10566000000E+00 0. -1.
     999900   -1    0    0    0    0 -0.00000000000E+00 -0.00000000000E+00 -0.74505805969E-08  0.93827000000E+00  0.93827000000E+00 0. -1.
     999902    2    1    2    0    0 -0.20103757728E-01  0.98325496403E-03  0.10083474241E-01  0.10214176852E+01  0.10211695664E+01 0.  0.
     999903    2    3    3    0    0  0.86112427872E-01  0.26506993977E-01  0.92843050657E-01  0.13080975416E+00  0.19323270011E-01 0.  0.
         14    1    1    2    0    0  0.20103757728E-01 -0.98325496403E-03 -0.10083474241E-01  0.22512314805E-01  0.00000000000E+00 0.  1.
     999901    1    3    3    0    0 -0.10621618560E+00 -0.25523739013E-01 -0.82759576417E-01  0.89060793104E+00  0.88000000000E+00 0. -1.
        -11    1    4    4    0    0  0.45841792054E-01  0.69059237980E-02  0.56794600947E-01  0.73314729079E-01  0.51100000000E-03 0. -1.
         11    1    4    4    0    0  0.40270635818E-01  0.19601070179E-01  0.36048449711E-01  0.57495025079E-01  0.51100000000E-03 0.  1.
</event>
<event>
 8    1  0.1109553E+005  0.1043930E+01  0.7957747E-01            NaN
         13   -1    0    0    0    0  0.00000000000E+00  0.00000000000E+00  0.74505805969E-08  0.10566000000E+00  0.10566000000E+00 0. -1.
     999900   -1    0    0    0    0 -0.00000000000E+00 -0.00000000000E+00 -0.74505805969E-08  0.93827000000E+00  0.93827000000E+00 0. -1.
     999902    2    1    2    0    0  0.64224673209E-03  0.49918914952E-02 -0.23616610107E-01  0.10197830388E+01  0.10194971165E+01 0.  0.
     999903    2    3    3    0    0  0.18346484131E-01  0.69351318648E-01  0.10404966644E+00  0.12806881663E+00  0.20714483515E-01 0.  0.
         14    1    1    2    0    0 -0.64224673209E-03 -0.49918914952E-02  0.23616610107E-01  0.24146961186E-01  0.00000000000E+00 0. -1.
     999901    1    3    3    0    0 -0.17704237399E-01 -0.64359427153E-01 -0.12766627655E+00  0.89171422219E+00  0.88000000000E+00 0. -1.
        -11    1    4    4    0    0  0.19232671452E-01  0.33958555957E-01  0.59560729030E-01  0.71209695530E-01  0.51100000000E-03 0.  1.
         11    1    4    4    0    0 -0.88618732093E-03  0.35392762691E-01  0.44488937411E-01  0.56859121096E-01  0.51100000000E-03 0. -1.
</event>
<event>
 8    1  0.1292163E+005  0.1043930E+01  0.7957747E-01            NaN
         13   -1    0    0    0    0  0.00000000000E+00  0.00000000000E+00  0.74505805969E-08  0.10566000000E+00  0.10566000000E+00 0.  1.
     999900   -1    0    0    0    0 -0.00000000000E+00 -0.00000000000E+00 -0.74505805969E-08  0.93827000000E+00  0.93827000000E+00 0. -1.
     999902    2    1    2    0    0 -0.15102103508E-01  0.50206743602E-02 -0.17404540693E-01  0.10203461339E+01  0.10200735436E+01 0.  0.
     999903    2    3    3    0    0  0.20050969871E-01  0.12306598797E+00  0.32399297813E-01  0.13037374282E+00  0.20007986674E-01 0.  0.
         14    1    1    2    0    0  0.15102103508E-01 -0.50206743602E-02  0.17404540693E-01  0.23583866056E-01  0.00000000000E+00 0. -1.
     999901    1    3    3    0    0 -0.35153073379E-01 -0.11804531361E+00 -0.49803838506E-01  0.88997239112E+00  0.88000000000E+00 0. -1.
        -11    1    4    4    0    0  0.16209746074E-01  0.65950820860E-01  0.26194352999E-01  0.72791976824E-01  0.51100000000E-03 0.  1.
         11    1    4    4    0    0  0.38412237968E-02  0.57115167109E-01  0.62049448137E-02  0.57581765997E-01  0.51100000000E-03 0. -1.
</event>
<event>
 8    1  0.1109553E+005  0.1043930E+01  0.7957747E-01            NaN
         13   -1    0    0    0    0  0.00000000000E+00  0.00000000000E+00  0.74505805969E-08  0.10566000000E+00  0.10566000000E+00 0.  1.
     999900   -1    0    0    0    0 -0.00000000000E+00 -0.00000000000E+00 -0.74505805969E-08  0.93827000000E+00  0.93827000000E+00 0. -1.
     999902    2    1    2    0    0  0.32959104705E-03  0.28354480776E-01 -0.12066168059E-01  0.10131131601E+01  0.10126443589E+01 0.  0.
     999903    2    3    3    0    0 -0.67702311978E-01 -0.98492016526E-01  0.35064657576E-02  0.12128308624E+00  0.20322680397E-01 0.  0.
         14    1    1    2    0    0 -0.32959104705E-03 -0.28354480776E-01  0.12066168059E-01  0.30816839909E-01  0.00000000000E+00 0.  1.
     999901    1    3    3    0    0  0.68031903025E-01  0.12684649730E+00 -0.15572633816E-01  0.89183007385E+00  0.88000000000E+00 0.  1.
        -11    1    4    4    0    0 -0.58696698755E-02 -0.33214563581E-02  0.38612469390E-02  0.77881606115E-02  0.51100000000E-03 0.  1.
         11    1    4    4    0    0 -0.61832642102E-01 -0.95170560168E-01 -0.35478118141E-03  0.11349492563E+00  0.51100000000E-03 0. -1.
</event>
<event>
 8    1  0.1109553E+005  0.1043930E+01  0.7957747E-01            NaN
         13   -1    0    0    0    0  0.00000000000E+00  0.00000000000E+00  0.74505805969E-08  0.10566000000E+00  0.10566000000E+00 0.  1.
     999900   -1    0    0    0    0 -0.00000000000E+00 -0.00000000000E+00 -0.74505805969E-08  0.93827000000E+00  0.93827000000E+00 0. -1.
     999902    2    1    2    0    0 -0.33588249095E-02  0.96068091672E-02 -0.21947511778E-01  0.10197377335E+01  0.10194507243E+01 0.  0.
     999903    2    3    3    0    0  0.74656430477E-01  0.26401645014E-01 -0.10408305937E+00  0.13231748647E+00  0.20099863352E-01 0.  0.
         14    1    1    2    0    0  0.33588249095E-02 -0.96068091672E-02  0.21947511778E-01  0.24192266541E-01  0.00000000000E+00 0.  1.
     999901    1    3    3    0    0 -0.78015255387E-01 -0.16794835847E-01  0.82135547594E-01  0.88742024699E+00  0.88000000000E+00 0.  1.
        -11    1    4    4    0    0  0.16205041957E-01 -0.91257077146E-04 -0.12432846972E-01  0.20431556904E-01  0.51100000000E-03 0.  1.
         11    1    4    4    0    0  0.58451388520E-01  0.26492902091E-01 -0.91650212401E-01  0.11188592957E+00  0.51100000000E-03 0. -1.
</event>
<event>
 8    1  0.1109553E+005  0.1043930E+01  0.7957747E-01            NaN
         13   -1    0    0    0    0  0.00000000000E+00  0.00000000000E+00  0.74505805969E-08  0.10566000000E+00  0.10566000000E+00 0.  1.
     999900   -1    0    0    0    0 -0.00000000000E+00 -0.00000000000E+00 -0.74505805969E-08  0.93827000000E+00  0.93827000000E+00 0.  1.
     999902    2    1    2    0    0  0.18694941129E-01  0.53640923327E-02  0.13918423096E-01  0.10200135452E+01  0.10197331197E+01 0.  0.
     999903    2    3    3    0    0  0.12290282168E+00  0.45642297282E-01  0.14961339792E-01  0.13294945287E+00  0.16229370023E-01 0.  0.
         14    1    1    2    0    0 -0.18694941129E-01 -0.53640923327E-02 -0.13918423096E-01  0.23916454834E-01  0.00000000000E+00 0. -1.
     999901    1    3    3    0    0 -0.10420788055E+00 -0.40278204949E-01 -0.10429166961E-02  0.88706409229E+00  0.88000000000E+00 0.  1.
        -11    1    4    4    0    0  0.92689051007E-01  0.26819611070E-01  0.11705220801E-01  0.97199922991E-01  0.51100000000E-03 0.  1.
         11    1    4    4    0    0  0.30213770677E-01  0.18822686212E-01  0.32561189906E-02  0.35749529880E-01  0.51100000000E-03 0. -1.
</event>
<event>
 8    1  0.1109553E+005  0.1043930E+01  0.7957747E-01            NaN
         13   -1    0    0    0    0  0.00000000000E+00  0.00000000000E+00  0.74505805969E-08  0.10566000000E+00  0.10566000000E+00 0. -1.
     999900   -1    0    0    0    0 -0.00000000000E+00 -0.00000000000E+00 -0.74505805969E-08  0.93827000000E+00  0.93827000000E+00 0.  1.
     999902    2    1    2    0    0 -0.65588054688E-02  0.13027555829E-01  0.18778305164E-01  0.10201527023E+01  0.10198755690E+01 0.  0.
     999903    2    3    3    0    0 -0.86306347992E-01  0.58900967428E-01 -0.75410025428E-01  0.13035751125E+00  0.19705307338E-01 0.  0.
         14    1    1    2    0    0  0.65588054688E-02 -0.13027555829E-01 -0.18778305164E-01  0.23777297678E-01  0.00000000000E+00 0.  1.
     999901    1    3    3    0    0  0.79747542523E-01 -0.45873411599E-01  0.94188330592E-01  0.88979519107E+00  0.88000000000E+00 0.  1.
        -11    1    4    4    0    0 -0.56328165602E-01  0.37390976320E-01 -0.59906215802E-01  0.90332514428E-01  0.51100000000E-03 0. -1.
         11    1    4    4    0    0 -0.29978182390E-01  0.21509991108E-01 -0.15503809627E-01  0.40024996825E-01  0.51100000000E-03 0.  1.
</event>
<event>
 8    1  0.1109553E+005  0.1043930E+01  0.7957747E-01            NaN
         13   -1    0    0    0    0  0.00000000000E+00  0.00000000000E+00  0.74505805969E-08  0.10566000000E+00  0.10566000000E+00 0. -1.
     999900   -1    0    0    0    0 -0.00000000000E+00 -0.00000000000E+00 -0.74505805969E-08  0.93827000000E+00  0.93827000000E+00 0.  1.
     999902    2    1    2    0    0  0.11383040071E-01 -0.21140495210E-01 -0.57460427492E-02  0.10192417205E+01  0.10189426743E+01 0.  0.
     999903    2    3    3    0    0 -0.60541407969E-01 -0.47732334540E-01 -0.10351720311E+00  0.13051259866E+00  0.19341386443E-01 0.  0.
         14    1    1    2    0    0 -0.11383040071E-01  0.21140495210E-01  0.57460427492E-02  0.24688279532E-01  0.00000000000E+00 0. -1.
     999901    1    3    3    0    0  0.71924448040E-01  0.26591839331E-01  0.97771160366E-01  0.88872912180E+00  0.88000000000E+00 0. -1.
        -11    1    4    4    0    0 -0.38923280056E-01 -0.20139564101E-01 -0.65378843837E-01  0.78710089029E-01  0.51100000000E-03 0.  1.
         11    1    4    4    0    0 -0.21618127913E-01 -0.27592770440E-01 -0.38138359278E-01  0.51802509635E-01  0.51100000000E-03 0. -1.
</event>
<event>
 8    1  0.1109553E+005  0.1043930E+01  0.7957747E-01            NaN
         13   -1    0    0    0    0  0.00000000000E+00  0.00000000000E+00  0.74505805969E-08  0.10566000000E+00  0.10566000000E+00 0.  1.
     999900   -1    0    0    0    0 -0.00000000000E+00 -0.00000000000E+00 -0.74505805969E-08  0.93827000000E+00  0.93827000000E+00 0.  1.
     999902    2    1    2    0    0 -0.20642284879E-01 -0.70486073915E-02 -0.10225474561E-01  0.10198396052E+01  0.10195550369E+01 0.  0.
     999903    2    3    3    0    0  0.37126786912E-01  0.10039284542E+00 -0.69585404895E-01  0.12944388826E+00  0.21365156543E-01 0.  0.
         14    1    1    2    0    0  0.20642284879E-01  0.70486073915E-02  0.10225474561E-01  0.24090394791E-01  0.00000000000E+00 0.  1.
     999901    1    3    3    0    0 -0.57769071791E-01 -0.10744145281E+00  0.59359930335E-01  0.89039571695E+00  0.88000000000E+00 0.  1.
        -11    1    4    4    0    0  0.90592304686E-02  0.54458635920E-01 -0.38095295231E-01  0.67077010389E-01  0.51100000000E-03 0.  1.
         11    1    4    4    0    0  0.28067556443E-01  0.45934209502E-01 -0.31490109665E-01  0.62366877868E-01  0.51100000000E-03 0. -1.
</event>
<event>
 8    1  0.1109553E+005  0.1043930E+01  0.7957747E-01            NaN
         13   -1    0    0    0    0  0.00000000000E+00  0.00000000000E+00  0.74505805969E-08  0.10566000000E+00  0.10566000000E+00 0.  1.
     999900   -1    0    0    0    0 -0.00000000000E+00 -0.00000000000E+00 -0.74505805969E-08  0.93827000000E+00  0.93827000000E+00 0.  1.
     999902    2    1    2    0    0 -0.63414651238E-02  0.21887519986E-01 -0.10809928048E-01  0.10187083376E+01  0.10183960648E+01 0.  0.
     999903    2    3    3    0    0  0.61681963465E-01 -0.46856416757E-01  0.98079036899E-01  0.12673876278E+00  0.21048232784E-01 0.  0.
         14    1    1    2    0    0  0.63414651238E-02 -0.21887519986E-01  0.10809928048E-01  0.25221662425E-01  0.00000000000E+00 0. -1.
     999901    1    3    3    0    0 -0.68023428589E-01  0.68743936743E-01 -0.10888896495E+00  0.89196957480E+00  0.88000000000E+00 0.  1.
        -11    1    4    4    0    0  0.51988902286E-01 -0.39454375936E-01  0.92767318093E-01  0.11342632044E+00  0.51100000000E-03 0.  1.
         11    1    4    4    0    0  0.96930611787E-02 -0.74020408206E-02  0.53117188057E-02  0.13312442338E-01  0.51100000000E-03 0. -1.
</event>
<event>
 8    1  0.1109553E+005  0.1043930E+01  0.7957747E-01            NaN
         13   -1    0    0    0    0  0.00000000000E+00  0.00000000000E+00  0.74505805969E-08  0.10566000000E+00  0.10566000000E+00 0.  1.
     999900   -1    0    0    0    0 -0.00000000000E+00 -0.00000000000E+00 -0.74505805969E-08  0.93827000000E+00  0.93827000000E+00 0.  1.
     999902    2    1    2    0    0 -0.64128340270E-02 -0.88802488831E-02  0.21583937619E-01  0.10197256693E+01  0.10194383704E+01 0.  0.
     999903    2    3    3    0    0  0.84953791057E-01 -0.80257450898E-01  0.57071996261E-01  0.13141155401E+00  0.18798370451E-01 0.  0.
         14    1    1    2    0    0  0.64128340270E-02  0.88802488831E-02 -0.21583937619E-01  0.24204330679E-01  0.00000000000E+00 0. -1.
     999901    1    3    3    0    0 -0.91366625084E-01  0.71377202015E-01 -0.35488058642E-01  0.88831411531E+00  0.88000000000E+00 0. -1.
        -11    1    4    4    0    0  0.70059847835E-01 -0.72531245843E-01  0.43503292481E-01  0.10982696153E+00  0.51100000000E-03 0.  1.
         11    1    4    4    0    0  0.14893943222E-01 -0.77262050552E-02  0.13568703780E-01  0.21584592480E-01  0.51100000000E-03 0. -1.
</event>
<event>
 8    1  0.1109553E+005  0.1043930E+01  0.7957747E-01            NaN
         13   -1    0    0    0    0  0.00000000000E+00  0.00000000000E+00  0.74505805969E-08  0.10566000000E+00  0.10566000000E+00 0. -1.
     999900   -1    0    0    0    0 -0.00000000000E+00 -0.00000000000E+00 -0.74505805969E-08  0.93827000000E+00  0.93827000000E+00 0. -1.
     999902    2    1    2    0    0  0.12420189660E-01  0.18640506218E-01  0.35166748564E-02  0.10212563019E+01  0.10210045728E+01 0.  0.
     999903    2    3    3    0    0  0.81670945299E-01 -0.92859770205E-01 -0.36994854955E-01  0.13059971104E+00  0.19864163783E-01 0.  0.
         14    1    1    2    0    0 -0.12420189660E-01 -0.18640506218E-01 -0.35166748564E-02  0.22673698095E-01  0.00000000000E+00 0.  1.
     999901    1    3    3    0    0 -0.69250755639E-01  0.11150027642E+00  0.40511529812E-01  0.89065659086E+00  0.88000000000E+00 0.  1.
        -11    1    4    4    0    0  0.35928496275E-01 -0.54377267197E-01 -0.14820547456E-01  0.66840510024E-01  0.51100000000E-03 0. -1.
         11    1    4    4    0    0  0.45742449024E-01 -0.38482503007E-01 -0.22174307499E-01  0.63759201018E-01  0.51100000000E-03 0.  1.
</event>
<event>
 8    1  0.1109553E+005  0.1043930E+01  0.7957747E-01            NaN
         13   -1    0    0    0    0  0.00000000000E+00  0.00000000000E+00  0.74505805969E-08  0.10566000000E+00  0.10566000000E+00 0. -1.
     999900   -1    0    0    0    0 -0.00000000000E+00 -0.00000000000E+00 -0.74505805969E-08  0.93827000000E+00  0.93827000000E+00 0.  1.
     999902    2    1    2    0    0 -0.42891800504E-03 -0.20227155481E-01 -0.97072157481E-02  0.10214900395E+01  0.10212435307E+01 0.  0.
     999903    2    3    3    0    0 -0.95529307759E-01  0.83060175759E-01 -0.23460576393E-01  0.13025409327E+00  0.19770906186E-01 0.  0.
         14    1    1    2    0    0  0.42891800504E-03  0.20227155481E-01  0.97072157481E-02  0.22439960497E-01  0.00000000000E+00 0.  1.
     999901    1    3    3    0    0  0.95100389754E-01 -0.10328733124E+00  0.13753360645E-01  0.89123594623E+00  0.88000000000E+00 0. -1.
        -11    1    4    4    0    0 -0.82697977663E-01  0.61619904273E-01 -0.18896335076E-01  0.10484894235E+00  0.51100000000E-03 0. -1.
         11    1    4    4    0    0 -0.12831330095E-01  0.21440271486E-01 -0.45642413169E-02  0.25405150919E-01  0.51100000000E-03 0.  1.
</event>
<event>
 8    1  0.1109553E+005  0.1043930E+01  0.7957747E-01            NaN
         13   -1    0    0    0    0  0.00000000000E+00  0.00000000000E+00  0.74505805969E-08  0.10566000000E+00  0.10566000000E+00 0. -1.
     999900   -1    0    0    0    0 -0.00000000000E+00 -0.00000000000E+00 -0.74505805969E-08  0.93827000000E+00  0.93827000000E+00 0.  1.
     999902    2    1    2    0    0  0.16112940876E-01  0.47452544093E-02 -0.17626211375E-01  0.10195819481E+01  0.10192911857E+01 0.  0.
     999903    2    3    3    0    0  0.11381958653E-01  0.36142276816E-01  0.12079026993E+00  0.12819691486E+00  0.20207585600E-01 0.  0.
         14    1    1    2    0    0 -0.16112940876E-01 -0.47452544093E-02  0.17626211375E-01  0.24348051884E-01  0.00000000000E+00 0. -1.
     999901    1    3    3    0    0  0.47309822227E-02 -0.31397022407E-01 -0.13841648130E+00  0.89138503325E+00  0.88000000000E+00 0.  1.
        -11    1    4    4    0    0  0.14461795545E-01  0.13744338972E-01  0.65087639873E-01  0.68078721855E-01  0.51100000000E-03 0. -1.
         11    1    4    4    0    0 -0.30798368912E-02  0.22397937844E-01  0.55702630053E-01  0.60118193010E-01  0.51100000000E-03 0.  1.
</event>
<event>
 8    1  0.1109553E+005  0.1043930E+01  0.7957747E-01            NaN
         13   -1    0    0    0    0  0.00000000000E+00  0.00000000000E+00  0.74505805969E-08  0.10566000000E+00  0.10566000000E+00 0. -1.
     999900   -1    0    0    0    0 -0.00000000000E+00 -0.00000000000E+00 -0.74505805969E-08  0.93827000000E+00  0.93827000000E+00 0.  1.
     999902    2    1    2    0    0 -0.10125109856E-01 -0.16619693025E-01  0.14908887462E-01  0.10194145565E+01  0.10191197334E+01 0.  0.
     999903    2    3    3    0    0  0.53043577688E-02 -0.12982899918E+00  0.11990579897E-01  0.13202347471E+00  0.20067850631E-01 0.  0.
         14    1    1    2    0    0  0.10125109856E-01  0.16619693025E-01 -0.14908887462E-01  0.24515443525E-01  0.00000000000E+00 0.  1.
     999901    1    3    3    0    0 -0.15429467625E-01  0.11320930616E+00  0.29183075658E-02  0.88739108176E+00  0.88000000000E+00 0.  1.
        -11    1    4    4    0    0  0.12255703134E-02 -0.89826270142E-01 -0.75280568794E-03  0.89839237906E-01  0.51100000000E-03 0. -1.
         11    1    4    4    0    0  0.40787874553E-02 -0.40002729041E-01  0.12743385584E-01  0.42184236807E-01  0.51100000000E-03 0.  1.
</event>
<event>
 8    1  0.1109553E+005  0.1043930E+01  0.7957747E-01            NaN
         13   -1    0    0    0    0  0.00000000000E+00  0.00000000000E+00  0.74505805969E-08  0.10566000000E+00  0.10566000000E+00 0.  1.
     999900   -1    0    0    0    0 -0.00000000000E+00 -0.00000000000E+00 -0.74505805969E-08  0.93827000000E+00  0.93827000000E+00 0. -1.
     999902    2    1    2    0    0  0.16480314572E-01  0.14709723184E-01  0.84681169491E-02  0.10202723220E+01  0.10199980026E+01 0.  0.
     999903    2    3    3    0    0  0.73317740720E-01  0.61991347462E-01  0.90369719593E-01  0.13338229637E+00  0.20142802751E-01 0.  0.
         14    1    1    2    0    0 -0.16480314572E-01 -0.14709723184E-01 -0.84681169491E-02  0.23657678018E-01  0.00000000000E+00 0.  1.
     999901    1    3    3    0    0 -0.56837426148E-01 -0.47281624278E-01 -0.81901602644E-01  0.88689002561E+00  0.88000000000E+00 0. -1.
        -11    1    4    4    0    0  0.41802475105E-01  0.29087558634E-01  0.59625800800E-01  0.78415752462E-01  0.51100000000E-03 0.  1.
         11    1    4    4    0    0  0.31515265615E-01  0.32903788828E-01  0.30743918793E-01  0.54966543913E-01  0.51100000000E-03 0. -1.
</event>
<event>
 8    1  0.1109553E+005  0.1043930E+01  0.7957747E-01            NaN
         13   -1    0    0    0    0  0.00000000000E+00  0.00000000000E+00  0.74505805969E-08  0.10566000000E+00  0.10566000000E+00 0. -1.
     999900   -1    0    0    0    0 -0.00000000000E+00 -0.00000000000E+00 -0.74505805969E-08  0.93827000000E+00  0.93827000000E+00 0.  1.
     999902    2    1    2    0    0  0.20281644565E-01  0.96817962039E-02  0.87056017400E-02  0.10198287597E+01  0.10195439320E+01 0.  0.
     999903    2    3    3    0    0 -0.45598357707E-01  0.78948402062E-01 -0.89337018108E-01  0.12923884691E+00  0.20236509917E-01 0.  0.
         14    1    1    2    0    0 -0.20281644565E-01 -0.96817962039E-02 -0.87056017400E-02  0.24101240335E-01  0.00000000000E+00 0. -1.
     999901    1    3    3    0    0  0.65880002272E-01 -0.69266605858E-01  0.98042619848E-01  0.89058991275E+00  0.88000000000E+00 0. -1.
        -11    1    4    4    0    0 -0.19452911267E-01  0.26106259914E-01 -0.19954206907E-01  0.38188794924E-01  0.51100000000E-03 0.  1.
         11    1    4    4    0    0 -0.26145446441E-01  0.52842142148E-01 -0.69382811201E-01  0.91050051991E-01  0.51100000000E-03 0. -1.
</event>
<event>
 8    1  0.1109553E+005  0.1043930E+01  0.7957747E-01            NaN
         13   -1    0    0    0    0  0.00000000000E+00  0.00000000000E+00  0.74505805969E-08  0.10566000000E+00  0.10566000000E+00 0.  1.
     999900   -1    0    0    0    0 -0.00000000000E+00 -0.00000000000E+00 -0.74505805969E-08  0.93827000000E+00  0.93827000000E+00 0.  1.
     999902    2    1    2    0    0  0.17256003302E-01 -0.32637029275E-02  0.16603354360E-01  0.10197619884E+01  0.10194755614E+01 0.  0.
     999903    2    3    3    0    0  0.68238334463E-01  0.49040717122E-01 -0.96385246023E-01  0.12953652584E+00  0.20691390708E-01 0.  0.
         14    1    1    2    0    0 -0.17256003302E-01  0.32637029275E-02 -0.16603354360E-01  0.24168011560E-01  0.00000000000E+00 0. -1.
     999901    1    3    3    0    0 -0.50982331161E-01 -0.52304420049E-01  0.11298860038E+00  0.89022546260E+00  0.88000000000E+00 0. -1.
        -11    1    4    4    0    0  0.37185701864E-01  0.22570367969E-01 -0.35043673234E-01  0.55861597616E-01  0.51100000000E-03 0.  1.
         11    1    4    4    0    0  0.31052632599E-01  0.26470349152E-01 -0.61341572788E-01  0.73674928223E-01  0.51100000000E-03 0. -1.
</event>
<event>
 8    1  0.1109553E+005  0.1043930E+01  0.7957747E-01            NaN
         13   -1    0    0    0    0  0.00000000000E+00  0.00000000000E+00  0.74505805969E-08  0.10566000000E+00  0.10566000000E+00 0.  1.
     999900   -1    0    0    0    0 -0.00000000000E+00 -0.00000000000E+00 -0.74505805969E-08  0.93827000000E+00  0.93827000000E+00 0.  1.
     999902    2    1    2    0    0  0.85226671060E-02 -0.20607436757E-01  0.49239915884E-02  0.10210925746E+01  0.10208371555E+01 0.  0.
     999903    2    3    3    0    0 -0.46329181258E-01  0.86343348862E-01  0.82444901020E-01  0.12954521907E+00  0.19576392681E-01 0.  0.
         14    1    1    2    0    0 -0.85226671060E-02  0.20607436757E-01 -0.49239915884E-02  0.22837425369E-01  0.00000000000E+00 0. -1.
     999901    1    3    3    0    0  0.54851848364E-01 -0.10695078562E+00 -0.77520909431E-01  0.89154735556E+00  0.88000000000E+00 0.  1.
        -11    1    4    4    0    0 -0.23644233453E-01  0.55437115611E-01  0.39945019545E-01  0.72306218752E-01  0.51100000000E-03 0. -1.
         11    1    4    4    0    0 -0.22684947805E-01  0.30906233251E-01  0.42499881475E-01  0.57239000315E-01  0.51100000000E-03 0.  1.
</event>
<event>
 8    1  0.1109553E+005  0.1043930E+01  0.7957747E-01            NaN
         13   -1    0    0    0    0  0.00000000000E+00  0.00000000000E+00  0.74505805969E-08  0.10566000000E+00  0.10566000000E+00 0. -1.
     999900   -1    0    0    0    0 -0.00000000000E+00 -0.00000000000E+00 -0.74505805969E-08  0.93827000000E+00  0.93827000000E+00 0.  1.
     999902    2    1    2    0    0  0.22246888326E-01 -0.95899371929E-03 -0.91740023919E-02  0.10198466857E+01  0.10195622866E+01 0.  0.
     999903    2    3    3    0    0  0.83050910989E-01 -0.12809680701E-01  0.99885041235E-01  0.13095330458E+00  0.10497846534E-01 0.  0.
         14    1    1    2    0    0 -0.22246888326E-01  0.95899371929E-03  0.91740023919E-02  0.24083314328E-01  0.00000000000E+00 0. -1.
     999901    1    3    3    0    0 -0.60804022662E-01  0.11850686982E-01 -0.10905904363E+00  0.88889338109E+00  0.88000000000E+00 0.  1.
        -11    1    4    4    0    0  0.67703219222E-01 -0.86845886963E-02  0.74903812394E-01  0.10134096016E+00  0.51100000000E-03 0. -1.
         11    1    4    4    0    0  0.15347691767E-01 -0.41250920046E-02  0.24981228841E-01  0.29612344420E-01  0.51100000000E-03 0.  1.
</event>
<event>
 8    1  0.1109553E+005  0.1043930E+01  0.7957747E-01            NaN
         13   -1    0    0    0    0  0.00000000000E+00  0.00000000000E+00  0.74505805969E-08  0.10566000000E+00  0.10566000000E+00 0.  1.
     999900   -1    0    0    0    0 -0.00000000000E+00 -0.00000000000E+00 -0.74505805969E-08  0.93827000000E+00  0.93827000000E+00 0. -1.
     999902    2    1    2    0    0 -0.21286808558E-01 -0.54449331315E-02 -0.90969695875E-02  0.10201491175E+01  0.10198718996E+01 0.  0.
     999903    2    3    3    0    0 -0.88704828240E-01 -0.38665926626E-01 -0.88773968080E-01  0.13335869817E+00  0.23240579449E-01 0.  0.
         14    1    1    2    0    0  0.21286808558E-01  0.54449331315E-02  0.90969695875E-02  0.23780882470E-01  0.00000000000E+00 0.  1.
     999901    1    3    3    0    0  0.67418019682E-01  0.33220993494E-01  0.79676998492E-01  0.88679041936E+00  0.88000000000E+00 0.  1.
        -11    1    4    4    0    0 -0.25500704418E-01 -0.36252167615E-03 -0.20178364036E-01  0.32524526806E-01  0.51100000000E-03 0. -1.
         11    1    4    4    0    0 -0.63204123821E-01 -0.38303404950E-01 -0.68595604043E-01  0.10083417136E+00  0.51100000000E-03 0.  1.
</event>
<event>
 8    1  0.1109553E+005  0.1043930E+01  0.7957747E-01            NaN
         13   -1    0    0    0    0  0.00000000000E+00  0.00000000000E+00  0.74505805969E-08  0.10566000000E+00  0.10566000000E+00 0.  1.
     999900   -1    0    0    0    0 -0.00000000000E+00 -0.00000000000E+00 -0.74505805969E-08  0.93827000000E+00  0.93827000000E+00 0. -1.
     999902    2    1    2    0    0  0.92648609342E-02 -0.17613771660E-01  0.13378755983E-01  0.10199493054E+01  0.10196673536E+01 0.  0.
     999903    2    3    3    0    0  0.98299342222E-01  0.17705274993E-01  0.84307283382E-01  0.13191471719E+00  0.17819571738E-01 0.  0.
         14    1    1    2    0    0 -0.92648609342E-02  0.17613771660E-01 -0.13378755983E-01  0.23980694566E-01  0.00000000000E+00 0. -1.
     999901    1    3    3    0    0 -0.89034481288E-01 -0.35319046652E-01 -0.70928527399E-01  0.88803458824E+00  0.88000000000E+00 0. -1.
        -11    1    4    4    0    0  0.25090424975E-01  0.99946571930E-02  0.15471030942E-01  0.31129351378E-01  0.51100000000E-03 0.  1.
         11    1    4    4    0    0  0.73208917247E-01  0.77106177996E-02  0.68836252440E-01  0.10078536581E+00  0.51100000000E-03 0. -1.
</event>
<event>
 8    1  0.1109553E+005  0.1043930E+01  0.7957747E-01            NaN
         13   -1    0    0    0    0  0.00000000000E+00  0.00000000000E+00  0.74505805969E-08  0.10566000000E+00  0.10566000000E+00 0.  1.
     999900   -1    0    0    0    0 -0.00000000000E+00 -0.00000000000E+00 -0.74505805969E-08  0.93827000000E+00  0.93827000000E+00 0.  1.
     999902    2    1    2    0    0  0.14796545647E-01  0.18161171690E-01 -0.99113579714E-03  0.10204832887E+01  0.10202138963E+01 0.  0.
     999903    2    3    3    0    0  0.96003517038E-01 -0.35507864365E-01 -0.81224691147E-01  0.13148814753E+00  0.14635531194E-01 0.  0.
         14    1    1    2    0    0 -0.14796545647E-01 -0.18161171690E-01  0.99113579714E-03  0.23446711292E-01  0.00000000000E+00 0.  1.
     999901    1    3    3    0    0 -0.81206971391E-01  0.53669036055E-01  0.80233555350E-01  0.88899514118E+00  0.88000000000E+00 0. -1.
        -11    1    4    4    0    0  0.39114876953E-01 -0.69269653249E-02 -0.31960986788E-01  0.50987471452E-01  0.51100000000E-03 0.  1.
         11    1    4    4    0    0  0.56888640086E-01 -0.28580899040E-01 -0.49263704359E-01  0.80500676077E-01  0.51100000000E-03 0. -1.
</event>
<event>
 8    1  0.1109553E+005  0.1043930E+01  0.7957747E-01            NaN
         13   -1    0    0    0    0  0.00000000000E+00  0.00000000000E+00  0.74505805969E-08  0.10566000000E+00  0.10566000000E+00 0.  1.
     999900   -1    0    0    0    0 -0.00000000000E+00 -0.00000000000E+00 -0.74505805969E-08  0.93827000000E+00  0.93827000000E+00 0. -1.
     999902    2    1    2    0    0  0.23855853745E-01  0.68298218805E-02  0.68336615019E-02  0.10181919512E+01  0.10178665936E+01 0.  0.
     999903    2    3    3    0    0  0.89339465942E-01  0.70718084326E-01 -0.61104259530E-01  0.13084457018E+00  0.20099337990E-01 0.  0.
         14    1    1    2    0    0 -0.23855853745E-01 -0.68298218805E-02 -0.68336615019E-02  0.25738048767E-01  0.00000000000E+00 0. -1.
     999901    1    3    3    0    0 -0.65483612198E-01 -0.63888262446E-01  0.67937921032E-01  0.88734738105E+00  0.88000000000E+00 0.  1.
        -11    1    4    4    0    0  0.50051934431E-01  0.51834094417E-01 -0.39927474037E-01  0.82379814204E-01  0.51100000000E-03 0.  1.
         11    1    4    4    0    0  0.39287531511E-01  0.18883989910E-01 -0.21176785493E-01  0.48464755978E-01  0.51100000000E-03 0. -1.
</event>
<event>
 8    1  0.1109553E+005  0.1043930E+01  0.7957747E-01            NaN
         13   -1    0    0    0    0  0.00000000000E+00  0.00000000000E+00  0.74505805969E-08  0.10566000000E+00  0.10566000000E+00 0. -1.
     999900   -1    0    0    0    0 -0.00000000000E+00 -0.00000000000E+00 -0.74505805969E-08  0.93827000000E+00  0.93827000000E+00 0.  1.
     999902    2    1    2    0    0  0.17237440064E-01  0.13531081959E-01 -0.99737178013E-02  0.10198531529E+01  0.10195689084E+01 0.  0.
     999903    2    3    3    0    0  0.90691446236E-01  0.82086884814E-01 -0.49010691579E-01  0.13327587233E+00  0.19930257815E-01 0.  0.
         14    1    1    2    0    0 -0.17237440064E-01 -0.13531081959E-01  0.99737178013E-02  0.24076847089E-01  0.00000000000E+00 0. -1.
     999901    1    3    3    0    0 -0.73454006172E-01 -0.68555802855E-01  0.39036973777E-01  0.88657728058E+00  0.88000000000E+00 0. -1.
        -11    1    4    4    0    0  0.47179047344E-01  0.42687872184E-01 -0.36159984638E-01  0.73184168711E-01  0.51100000000E-03 0. -1.
         11    1    4    4    0    0  0.43512398892E-01  0.39399012630E-01 -0.12850706941E-01  0.60091703616E-01  0.51100000000E-03 0.  1.
</event>
<event>
 8    1  0.1109553E+005  0.1043930E+01  0.7957747E-01            NaN
         13   -1    0    0    0    0  0.00000000000E+00  0.00000000000E+00  0.74505805969E-08  0.10566000000E+00  0.10566000000E+00 0.  1.
     999900   -1    0    0    0    0 -0.00000000000E+00 -0.00000000000E+00 -0.74505805969E-08  0.93827000000E+00  0.93827000000E+00 0.  1.
     999902    2    1    2    0    0  0.23441625259E-02  0.16620023478E-01 -0.16323117117E-01  0.10205170884E+01  0.10202484811E+01 0.  0.
     999903    2    3    3    0    0 -0.87522300931E-01  0.73142752872E-01  0.60861140742E-01  0.13078217850E+00  0.19745488149E-01 0.  0.
         14    1    1    2    0    0 -0.23441625259E-02 -0.16620023478E-01  0.16323117117E-01  0.23412911625E-01  0.00000000000E+00 0.  1.
     999901    1    3    3    0    0  0.89866463457E-01 -0.56522729394E-01 -0.77184257859E-01  0.88973490988E+00  0.88000000000E+00 0.  1.
        -11    1    4    4    0    0 -0.26922810045E-01  0.11761387464E-01  0.12934909313E-01  0.32105154348E-01  0.51100000000E-03 0.  1.
         11    1    4    4    0    0 -0.60599490886E-01  0.61381365408E-01  0.47926231429E-01  0.98677024149E-01  0.51100000000E-03 0. -1.
</event>
<event>
 8    1  0.1109553E+005  0.1043930E+01  0.7957747E-01            NaN
         13   -1    0    0    0    0  0.00000000000E+00  0.00000000000E+00  0.74505805969E-08  0.10566000000E+00  0.10566000000E+00 0.  1.
     999900   -1    0    0    0    0 -0.00000000000E+00 -0.00000000000E+00 -0.74505805969E-08  0.93827000000E+00  0.93827000000E+00 0. -1.
     999902    2    1    2    0    0 -0.22825418144E-01  0.53927788257E-02 -0.46990156615E-02  0.10200100810E+01  0.10197295734E+01 0.  0.
     999903    2    3    3    0    0 -0.49528566828E-01 -0.63748012605E-01 -0.10198320714E+00  0.13155202284E+00  0.19709696383E-01 0.  0.
         14    1    1    2    0    0  0.22825418144E-01 -0.53927788257E-02  0.46990156615E-02  0.23919919003E-01  0.00000000000E+00 0. -1.
     999901    1    3    3    0    0  0.26703148684E-01  0.69140791431E-01  0.97284191481E-01  0.88845805816E+00  0.88000000000E+00 0.  1.
        -11    1    4    4    0    0 -0.11178076060E-01 -0.13952744441E-01 -0.37268068580E-01  0.41337616266E-01  0.51100000000E-03 0.  1.
         11    1    4    4    0    0 -0.38350490768E-01 -0.49795268164E-01 -0.64715138562E-01  0.90214406576E-01  0.51100000000E-03 0. -1.
</event>
<event>
 8    1  0.1109553E+005  0.1043930E+01  0.7957747E-01            NaN
         13   -1    0    0    0    0  0.00000000000E+00  0.00000000000E+00  0.74505805969E-08  0.10566000000E+00  0.10566000000E+00 0.  1.
     999900   -1    0    0    0    0 -0.00000000000E+00 -0.00000000000E+00 -0.74505805969E-08  0.93827000000E+00  0.93827000000E+00 0. -1.
     999902    2    1    2    0    0  0.17299190328E-01  0.93673993988E-02  0.12929515066E-01  0.10203889185E+01  0.10201173278E+01 0.  0.
     999903    2    3    3    0    0  0.10463182973E+00 -0.74356806800E-01 -0.20593062580E-01  0.13147919542E+00  0.19645612534E-01 0.  0.
         14    1    1    2    0    0 -0.17299190328E-01 -0.93673993988E-02 -0.12929515066E-01  0.23541081482E-01  0.00000000000E+00 0. -1.
     999901    1    3    3    0    0 -0.87332639401E-01  0.83724206199E-01  0.33522577646E-01  0.88890972310E+00  0.88000000000E+00 0. -1.
        -11    1    4    4    0    0  0.67726224616E-01 -0.37281774058E-01 -0.84342359452E-02  0.77769979006E-01  0.51100000000E-03 0. -1.
         11    1    4    4    0    0  0.36905605112E-01 -0.37075032743E-01 -0.12158826635E-01  0.53709216413E-01  0.51100000000E-03 0.  1.
</event>
<event>
 8    1  0.1109553E+005  0.1043930E+01  0.7957747E-01            NaN
         13   -1    0    0    0    0  0.00000000000E+00  0.00000000000E+00  0.74505805969E-08  0.10566000000E+00  0.10566000000E+00 0. -1.
     999900   -1    0    0    0    0 -0.00000000000E+00 -0.00000000000E+00 -0.74505805969E-08  0.93827000000E+00  0.93827000000E+00 0.  1.
     999902    2    1    2    0    0 -0.13347784345E-01 -0.64107760859E-02 -0.19014809601E-01  0.10198297016E+01  0.10195448965E+01 0.  0.
     999903    2    3    3    0    0 -0.11309708753E+00  0.11704100146E-01  0.60635513137E-01  0.13043538743E+00  0.20218498288E-01 0.  0.
         14    1    1    2    0    0  0.13347784345E-01  0.64107760859E-02  0.19014809601E-01  0.24100298361E-01  0.00000000000E+00 0. -1.
     999901    1    3    3    0    0  0.99749303188E-01 -0.18114876231E-01 -0.79650322739E-01  0.88939431420E+00  0.88000000000E+00 0.  1.
        -11    1    4    4    0    0 -0.69810719746E-01 -0.23989426659E-02  0.39379651484E-01  0.80189211178E-01  0.51100000000E-03 0. -1.
         11    1    4    4    0    0 -0.43286367787E-01  0.14103042811E-01  0.21255861653E-01  0.50246176256E-01  0.51100000000E-03 0.  1.
</event>
<event>
 7    1  0.1109553E+005  0.1043930E+01  0.7957747E-01            NaN
         13   -1    0    0    0    0  0.00000000000E+00  0.00000000000E+00  0.74505805969E-08  0.10566000000E+00  0.10566000000E+00 0. -1.
     999900   -1    0    0    0    0 -0.00000000000E+00 -0.00000000000E+00 -0.74505805969E-08  0.93827000000E+00  0.93827000000E+00 0.  1.
     999903    2    1    2    0    0  0.49962732914E-01 -0.11644160843E-01  0.86517919631E-01  0.10224616518E+00  0.18359376726E-01 0.  0.
         14    1    1    2    0    0  0.60455949471E-02 -0.19887044250E-01  0.45022052121E-01  0.49588596718E-01  0.00000000000E+00 0. -1.
     999901    1    1    2    0    0 -0.56008327861E-01  0.31531205092E-01 -0.13153997175E+00  0.89209523811E+00  0.88000000000E+00 0.  1.
        -11    1    3    3    0    0  0.41657182147E-01 -0.19586728405E-02  0.67149889750E-01  0.79047618801E-01  0.51100000000E-03 0. -1.
         11    1    3    3    0    0  0.83055507672E-02 -0.96854880021E-02  0.19368029881E-01  0.23198546374E-01  0.51100000000E-03 0.  1.
</event>
<event>
 8    1  0.1109553E+005  0.1043930E+01  0.7957747E-01            NaN
         13   -1    0    0    0    0  0.00000000000E+00  0.00000000000E+00  0.74505805969E-08  0.10566000000E+00  0.10566000000E+00 0.  1.
     999900   -1    0    0    0    0 -0.00000000000E+00 -0.00000000000E+00 -0.74505805969E-08  0.93827000000E+00  0.93827000000E+00 0.  1.
     999902    2    1    2    0    0  0.92415453579E-02  0.87435231709E-02 -0.20075444766E-01  0.10201628201E+01  0.10198859253E+01 0.  0.
     999903    2    3    3    0    0 -0.21293402860E-01  0.47566860776E-01 -0.12068857576E+00  0.13305367420E+00  0.20531260306E-01 0.  0.
         14    1    1    2    0    0 -0.92415453579E-02 -0.87435231709E-02  0.20075444766E-01  0.23767179904E-01  0.00000000000E+00 0.  1.
     999901    1    3    3    0    0  0.30534948218E-01 -0.38823337605E-01  0.10061313099E+00  0.88710914590E+00  0.88000000000E+00 0. -1.
        -11    1    4    4    0    0 -0.10482951556E-01  0.16840788787E-01 -0.24674956717E-01  0.31664160344E-01  0.51100000000E-03 0. -1.
         11    1    4    4    0    0 -0.10810451304E-01  0.30726071989E-01 -0.96013619042E-01  0.10138951386E+00  0.51100000000E-03 0.  1.
</event>
<event>
 8    1  0.1109553E+005  0.1043930E+01  0.7957747E-01            NaN
         13   -1    0    0    0    0  0.00000000000E+00  0.00000000000E+00  0.74505805969E-08  0.10566000000E+00  0.10566000000E+00 0.  1.
     999900   -1    0    0    0    0 -0.00000000000E+00 -0.00000000000E+00 -0.74505805969E-08  0.93827000000E+00  0.93827000000E+00 0. -1.
     999902    2    1    2    0    0  0.10408538038E-01 -0.25844272820E-02  0.18915017115E-01  0.10221861549E+01  0.10219548622E+01 0.  0.
     999903    2    3    3    0    0  0.66965680309E-01 -0.52527149360E-01  0.10295297919E+00  0.13496838854E+00  0.19329930700E-01 0.  0.
         14    1    1    2    0    0 -0.10408538038E-01  0.25844272820E-02 -0.18915017115E-01  0.21743845128E-01  0.00000000000E+00 0. -1.
     999901    1    3    3    0    0 -0.56557142271E-01  0.49942722078E-01 -0.84037962077E-01  0.88721776633E+00  0.88000000000E+00 0. -1.
        -11    1    4    4    0    0  0.52190526261E-01 -0.38671224446E-01  0.64710913587E-01  0.91690119914E-01  0.51100000000E-03 0. -1.
         11    1    4    4    0    0  0.14775154049E-01 -0.13855924913E-01  0.38242065604E-01  0.43278268624E-01  0.51100000000E-03 0.  1.
</event>
<event>
 8    1  0.1109553E+005  0.1043930E+01  0.7957747E-01            NaN
         13   -1    0    0    0    0  0.00000000000E+00  0.00000000000E+00  0.74505805969E-08  0.10566000000E+00  0.10566000000E+00 0.  1.
     999900   -1    0    0    0    0 -0.00000000000E+00 -0.00000000000E+00 -0.74505805969E-08  0.93827000000E+00  0.93827000000E+00 0. -1.
     999902    2    1    2    0    0 -0.14341090649E-02  0.23468249456E-01 -0.22293991754E-02  0.10203125145E+01  0.10200391373E+01 0.  0.
     999903    2    3    3    0    0  0.11953167462E+00  0.46714302361E-01  0.21123184187E-01  0.13142644589E+00  0.18885827626E-01 0.  0.
         14    1    1    2    0    0  0.14341090649E-02 -0.23468249456E-01  0.22293991754E-02  0.23617485514E-01  0.00000000000E+00 0.  1.
     999901    1    3    3    0    0 -0.12096578369E+00 -0.23246052906E-01 -0.23352583362E-01  0.88888606860E+00  0.88000000000E+00 0. -1.
        -11    1    4    4    0    0  0.40495344682E-01  0.20177293582E-01  0.15635943351E-01  0.47872120933E-01  0.51100000000E-03 0. -1.
         11    1    4    4    0    0  0.79036329942E-01  0.26537008779E-01  0.54872408360E-02  0.83554324954E-01  0.51100000000E-03 0.  1.
</event>
<event>
 7    1  0.1109553E+005  0.1043930E+01  0.7957747E-01            NaN
         13   -1    0    0    0    0  0.00000000000E+00  0.00000000000E+00  0.74505805969E-08  0.10566000000E+00  0.10566000000E+00 0.  1.
     999900   -1    0    0    0    0 -0.00000000000E+00 -0.00000000000E+00 -0.74505805969E-08  0.93827000000E+00  0.93827000000E+00 0.  1.
     999902    2    1    2    0    0  0.10849192520E-01 -0.12182835010E-01 -0.16487616445E-01  0.10207358640E+01  0.10204723103E+01 0.  0.
         14    1    1    2    0    0 -0.10849192520E-01  0.12182835010E-01  0.16487616445E-01  0.23194135967E-01  0.00000000000E+00 0.  1.
     999901    1    3    3    0    0  0.67981840200E-01 -0.59247895666E-01  0.81701764924E-01  0.88837324483E+00  0.88000000000E+00 0. -1.
        -11    1    3    3    0    0 -0.58277462132E-01  0.22334612952E-01 -0.58264367742E-01  0.85382054307E-01  0.51100000000E-03 0. -1.
         11    1    3    3    0    0  0.11448144517E-02  0.24730447705E-01 -0.39925013628E-01  0.46980564896E-01  0.51100000000E-03 0.  1.
</event>
<event>
 8    1  0.1109553E+005  0.1043930E+01  0.7957747E-01            NaN
         13   -1    0    0    0    0  0.00000000000E+00  0.00000000000E+00  0.74505805969E-08  0.10566000000E+00  0.10566000000E+00 0.  1.
     999900   -1    0    0    0    0 -0.00000000000E+00 -0.00000000000E+00 -0.74505805969E-08  0.93827000000E+00  0.93827000000E+00 0. -1.
     999902    2    1    2    0    0  0.98268549223E-02 -0.10582280091E-01 -0.15630537181E-01  0.10226493651E+01  0.10224279234E+01 0.  0.
     999903    2    3    3    0    0  0.37856130217E-01  0.62237606128E-01  0.10376176566E+00  0.13116582734E+00  0.33635755331E-01 0.  0.
         14    1    1    2    0    0 -0.98268549223E-02  0.10582280091E-01  0.15630537181E-01  0.21280634909E-01  0.00000000000E+00 0.  1.
     999901    1    3    3    0    0 -0.28029275295E-01 -0.72819886219E-01 -0.11939230284E+00  0.89148353775E+00  0.88000000000E+00 0. -1.
        -11    1    4    4    0    0  0.74602816015E-02  0.32909080333E-01  0.67617159241E-01  0.75571189714E-01  0.51100000000E-03 0.  1.
         11    1    4    4    0    0  0.30395848616E-01  0.29328525795E-01  0.36144606421E-01  0.55594637625E-01  0.51100000000E-03 0. -1.
</event>
<event>
 8    1  0.1109553E+005  0.1043930E+01  0.7957747E-01            NaN
         13   -1    0    0    0    0  0.00000000000E+00  0.00000000000E+00  0.74505805969E-08  0.10566000000E+00  0.10566000000E+00 0.  1.
     999900   -1    0    0    0    0 -0.00000000000E+00 -0.00000000000E+00 -0.74505805969E-08  0.93827000000E+00  0.93827000000E+00 0.  1.
     999902    2    1    2    0    0  0.20144499687E-01  0.23580995657E-02 -0.13698461912E-01  0.10194553323E+01  0.10191615010E+01 0.  0.
     999903    2    3    3    0    0  0.32458099040E-01 -0.23814681834E-01 -0.12428176305E+00  0.13206291305E+00  0.19338798124E-01 0.  0.
         14    1    1    2    0    0 -0.20144499687E-01 -0.23580995657E-02  0.13698461912E-01  0.24474667719E-01  0.00000000000E+00 0.  1.
     999901    1    3    3    0    0 -0.12313599353E-01  0.26172781400E-01  0.11058330114E+00  0.88739241923E+00  0.88000000000E+00 0. -1.
        -11    1    4    4    0    0  0.18716359130E-01 -0.16009934888E-01 -0.45808162073E-01  0.52012199989E-01  0.51100000000E-03 0.  1.
         11    1    4    4    0    0  0.13741739910E-01 -0.78047469464E-02 -0.78473600976E-01  0.80050713062E-01  0.51100000000E-03 0. -1.
</event>
<event>
 8    1  0.1109553E+005  0.1043930E+01  0.7957747E-01            NaN
         13   -1    0    0    0    0  0.00000000000E+00  0.00000000000E+00  0.74505805969E-08  0.10566000000E+00  0.10566000000E+00 0.  1.
     999900   -1    0    0    0    0 -0.00000000000E+00 -0.00000000000E+00 -0.74505805969E-08  0.93827000000E+00  0.93827000000E+00 0. -1.
     999902    2    1    2    0    0 -0.14216962568E-01 -0.16729927534E-01  0.96002061232E-02  0.10199680206E+01  0.10196865139E+01 0.  0.
     999903    2    3    3    0    0  0.30651160936E-01  0.18619192468E-01  0.12411947477E+00  0.13071138064E+00  0.19840690931E-01 0.  0.
         14    1    1    2    0    0  0.14216962568E-01  0.16729927534E-01 -0.96002061232E-02  0.23961979417E-01  0.00000000000E+00 0. -1.
     999901    1    3    3    0    0 -0.44868123505E-01 -0.35349120003E-01 -0.11451926865E+00  0.88925663994E+00  0.88000000000E+00 0. -1.
        -11    1    4    4    0    0  0.16630913011E-02  0.78961027581E-02  0.12472043989E-01  0.14863623841E-01  0.51100000000E-03 0. -1.
         11    1    4    4    0    0  0.28988069635E-01  0.10723089710E-01  0.11164743078E+00  0.11584775680E+00  0.51100000000E-03 0.  1.
</event>
<event>
 8    1  0.1109553E+005  0.1043930E+01  0.7957747E-01            NaN
         13   -1    0    0    0    0  0.00000000000E+00  0.00000000000E+00  0.74505805969E-08  0.10566000000E+00  0.10566000000E+00 0.  1.
     999900   -1    0    0    0    0 -0.00000000000E+00 -0.00000000000E+00 -0.74505805969E-08  0.93827000000E+00  0.93827000000E+00 0.  1.
     999902    2    1    2    0    0  0.16278133643E-01 -0.10840357131E-01 -0.15019731347E-01  0.10192706548E+01  0.10189723178E+01 0.  0.
     999903    2    3    3    0    0 -0.41600911821E-01  0.76369930437E-01 -0.93862534707E-01  0.12956744256E+00  0.20360368653E-01 0.  0.
         14    1    1    2    0    0 -0.16278133643E-01  0.10840357131E-01  0.15019731347E-01  0.24659345234E-01  0.00000000000E+00 0. -1.
     999901    1    3    3    0    0  0.57879045464E-01 -0.87210287568E-01  0.78842803359E-01  0.88970321220E+00  0.88000000000E+00 0. -1.
        -11    1    4    4    0    0 -0.19987444075E-01  0.43518856810E-01 -0.65221535964E-01  0.80916615681E-01  0.51100000000E-03 0. -1.
         11    1    4    4    0    0 -0.21613467745E-01  0.32851073627E-01 -0.28640998743E-01  0.48650826883E-01  0.51100000000E-03 0.  1.
</event>
<event>
 8    1  0.1109553E+005  0.1043930E+01  0.7957747E-01            NaN
         13   -1    0    0    0    0  0.00000000000E+00  0.00000000000E+00  0.74505805969E-08  0.10566000000E+00  0.10566000000E+00 0. -1.
     999900   -1    0    0    0    0 -0.00000000000E+00 -0.00000000000E+00 -0.74505805969E-08  0.93827000000E+00  0.93827000000E+00 0. -1.
     999902    2    1    2    0    0 -0.89814673360E-02 -0.66748533188E-02 -0.20773817938E-01  0.10203339848E+01  0.10200611102E+01 0.  0.
     999903    2    3    3    0    0  0.89300345315E-01 -0.84852444279E-01  0.35046470930E-01  0.12966740571E+00  0.20270471283E-01 0.  0.
         14    1    1    2    0    0  0.89814673360E-02  0.66748533188E-02  0.20773817938E-01  0.23596015216E-01  0.00000000000E+00 0. -1.
     999901    1    3    3    0    0 -0.98281812651E-01  0.78177590960E-01 -0.55820288868E-01  0.89066657907E+00  0.88000000000E+00 0.  1.
        -11    1    4    4    0    0  0.38687378501E-01 -0.23397206888E-01  0.13503903599E-01  0.47188548174E-01  0.51100000000E-03 0. -1.
         11    1    4    4    0    0  0.50612966814E-01 -0.61455237391E-01  0.21542567331E-01  0.82478857538E-01  0.51100000000E-03 0.  1.
</event>
<event>
 8    1  0.1109553E+005  0.1043930E+01  0.7957747E-01            NaN
         13   -1    0    0    0    0  0.00000000000E+00  0.00000000000E+00  0.74505805969E-08  0.10566000000E+00  0.10566000000E+00 0. -1.
     999900   -1    0    0    0    0 -0.00000000000E+00 -0.00000000000E+00 -0.74505805969E-08  0.93827000000E+00  0.93827000000E+00 0.  1.
     999902    2    1    2    0    0  0.11231083151E-01 -0.16462024342E-03  0.18731851068E-01  0.10220886041E+01  0.10218552090E+01 0.  0.
     999903    2    3    3    0    0 -0.78686328396E-01  0.42880414084E-01  0.96176170462E-01  0.13308037106E+00  0.20742738693E-01 0.  0.
         14    1    1    2    0    0 -0.11231083151E-01  0.16462024342E-03 -0.18731851068E-01  0.21841395858E-01  0.00000000000E+00 0.  1.
     999901    1    3    3    0    0  0.89917411548E-01 -0.43045034328E-01 -0.77444319394E-01  0.88900823308E+00  0.88000000000E+00 0.  1.
        -11    1    4    4    0    0 -0.25286565151E-01  0.24186004232E-01  0.30778614712E-01  0.46604263994E-01  0.51100000000E-03 0. -1.
         11    1    4    4    0    0 -0.53399763245E-01  0.18694409853E-01  0.65397555751E-01  0.86476107067E-01  0.51100000000E-03 0.  1.
</event>
<event>
 8    1  0.1109553E+005  0.1043930E+01  0.7957747E-01            NaN
         13   -1    0    0    0    0  0.00000000000E+00  0.00000000000E+00  0.74505805969E-08  0.10566000000E+00  0.10566000000E+00 0. -1.
     999900   -1    0    0    0    0 -0.00000000000E+00 -0.00000000000E+00 -0.74505805969E-08  0.93827000000E+00  0.93827000000E+00 0.  1.
     999902    2    1    2    0    0 -0.11438258366E-01  0.10806677833E-01 -0.17976711354E-01  0.10200389935E+01  0.10197591716E+01 0.  0.
     999903    2    3    3    0    0 -0.28627970086E-01  0.12070668264E+00 -0.41067685515E-01  0.13273595038E+00  0.23294072781E-01 0.  0.
         14    1    1    2    0    0  0.11438258366E-01 -0.10806677833E-01  0.17976711354E-01  0.23891006495E-01  0.00000000000E+00 0. -1.
     999901    1    3    3    0    0  0.17189711719E-01 -0.10990000480E+00  0.23090974162E-01  0.88730304312E+00  0.88000000000E+00 0. -1.
        -11    1    4    4    0    0 -0.13486856530E-01  0.90685141892E-01 -0.36980261716E-01  0.98860968722E-01  0.51100000000E-03 0. -1.
         11    1    4    4    0    0 -0.15141113555E-01  0.30021540743E-01 -0.40874237991E-02  0.33874981662E-01  0.51100000000E-03 0.  1.
</event>
<event>
 8    1  0.1109553E+005  0.1043930E+01  0.7957747E-01            NaN
         13   -1    0    0    0    0  0.00000000000E+00  0.00000000000E+00  0.74505805969E-08  0.10566000000E+00  0.10566000000E+00 0.  1.
     999900   -1    0    0    0    0 -0.00000000000E+00 -0.00000000000E+00 -0.74505805969E-08  0.93827000000E+00  0.93827000000E+00 0.  1.
     999902    2    1    2    0    0 -0.69903719391E-02 -0.19083208771E-01 -0.12329573601E-01  0.10201591661E+01  0.10198821852E+01 0.  0.
     999903    2    3    3    0    0 -0.24726530947E-01 -0.61274378462E-01  0.11060443777E+00  0.13043592981E+00  0.20352870612E-01 0.  0.
         14    1    1    2    0    0  0.69903719391E-02  0.19083208771E-01  0.12329573601E-01  0.23770833852E-01  0.00000000000E+00 0.  1.
     999901    1    3    3    0    0  0.17736159008E-01  0.42191169691E-01 -0.12293401137E+00  0.88972323634E+00  0.88000000000E+00 0.  1.
        -11    1    4    4    0    0 -0.17911086221E-04 -0.25310297521E-01  0.45301579686E-01  0.51895141627E-01  0.51100000000E-03 0. -1.
         11    1    4    4    0    0 -0.24708619861E-01 -0.35964080942E-01  0.65302858080E-01  0.78540788179E-01  0.51100000000E-03 0.  1.
</event>
<event>
 8    1  0.1109553E+005  0.1043930E+01  0.7957747E-01            NaN
         13   -1    0    0    0    0  0.00000000000E+00  0.00000000000E+00  0.74505805969E-08  0.10566000000E+00  0.10566000000E+00 0. -1.
     999900   -1    0    0    0    0 -0.00000000000E+00 -0.00000000000E+00 -0.74505805969E-08  0.93827000000E+00  0.93827000000E+00 0.  1.
     999902    2    1    2    0    0  0.52754472116E-02  0.22345153117E-01 -0.50283669851E-02  0.10204263687E+01  0.10201556515E+01 0.  0.
     999903    2    3    3    0    0  0.15980060508E-01  0.12961157226E+00 -0.20565296854E-01  0.13371217029E+00  0.20037241622E-01 0.  0.
         14    1    1    2    0    0 -0.52754472116E-02 -0.22345153117E-01  0.50283669851E-02  0.23503631329E-01  0.00000000000E+00 0.  1.
     999901    1    3    3    0    0 -0.10704613296E-01 -0.10726641914E+00  0.15536929869E-01  0.88671419838E+00  0.88000000000E+00 0.  1.
        -11    1    4    4    0    0  0.13378853507E-01  0.11215775804E+00 -0.24602752735E-01  0.11560239172E+00  0.51100000000E-03 0.  1.
         11    1    4    4    0    0  0.26012070003E-02  0.17453814223E-01  0.40374558809E-02  0.18109778568E-01  0.51100000000E-03 0. -1.
</event>
<event>
 8    1  0.1109553E+005  0.1043930E+01  0.7957747E-01            NaN
         13   -1    0    0    0    0  0.00000000000E+00  0.00000000000E+00  0.74505805969E-08  0.10566000000E+00  0.10566000000E+00 0.  1.
     999900   -1    0    0    0    0 -0.00000000000E+00 -0.00000000000E+00 -0.74505805969E-08  0.93827000000E+00  0.93827000000E+00 0.  1.
     999902    2    1    2    0    0  0.34356390609E-02 -0.71966373179E-02  0.22193812939E-01  0.10203469439E+01  0.10200743724E+01 0.  0.
     999903    2    3    3    0    0  0.30073881601E-01 -0.92803834789E-01 -0.82978900249E-01  0.12956106171E+00  0.19585216857E-01 0.  0.
         14    1    1    2    0    0 -0.34356390609E-02  0.71966373179E-02 -0.22193812939E-01  0.23583056146E-01  0.00000000000E+00 0. -1.
     999901    1    3    3    0    0 -0.26638242540E-01  0.85607197471E-01  0.10517271319E+00  0.89078588214E+00  0.88000000000E+00 0. -1.
        -11    1    4    4    0    0  0.18951907512E-01 -0.63751337356E-01 -0.44263259120E-01  0.79893085069E-01  0.51100000000E-03 0.  1.
         11    1    4    4    0    0  0.11121974089E-01 -0.29052497433E-01 -0.38715641129E-01  0.49667976643E-01  0.51100000000E-03 0. -1.
</event>
<event>
 8    1  0.1109553E+005  0.1043930E+01  0.7957747E-01            NaN
         13   -1    0    0    0    0  0.00000000000E+00  0.00000000000E+00  0.74505805969E-08  0.10566000000E+00  0.10566000000E+00 0. -1.
     999900   -1    0    0    0    0 -0.00000000000E+00 -0.00000000000E+00 -0.74505805969E-08  0.93827000000E+00  0.93827000000E+00 0.  1.
     999902    2    1    2    0    0 -0.55778399396E-02  0.18749245077E-01 -0.11956010112E-01  0.10210041921E+01  0.10207467696E+01 0.  0.
     999903    2    3    3    0    0 -0.11083888472E+00 -0.38441871671E-01  0.54733674233E-01  0.13038742527E+00  0.15558589576E-01 0.  0.
         14    1    1    2    0    0  0.55778399396E-02 -0.18749245077E-01  0.11956010112E-01  0.22925807884E-01  0.00000000000E+00 0.  1.
     999901    1    3    3    0    0  0.10526104479E+00  0.57191116748E-01 -0.66689684345E-01  0.89061676684E+00  0.88000000000E+00 0.  1.
        -11    1    4    4    0    0 -0.43757161096E-01 -0.99547868073E-02  0.14641232850E-01  0.47206077447E-01  0.51100000000E-03 0. -1.
         11    1    4    4    0    0 -0.67081723629E-01 -0.28487084864E-01  0.40092441383E-01  0.83181347826E-01  0.51100000000E-03 0.  1.
</event>
<event>
 8    1  0.1109553E+005  0.1043930E+01  0.7957747E-01            NaN
         13   -1    0    0    0    0  0.00000000000E+00  0.00000000000E+00  0.74505805969E-08  0.10566000000E+00  0.10566000000E+00 0. -1.
     999900   -1    0    0    0    0 -0.00000000000E+00 -0.00000000000E+00 -0.74505805969E-08  0.93827000000E+00  0.93827000000E+00 0.  1.
     999902    2    1    2    0    0  0.98010656336E-02  0.92874952453E-02 -0.19385335711E-01  0.10203056546E+01  0.10200321167E+01 0.  0.
     999903    2    3    3    0    0  0.54898237022E-01 -0.80092407937E-01  0.82662332649E-01  0.12876976155E+00  0.17887985162E-01 0.  0.
         14    1    1    2    0    0 -0.98010656336E-02 -0.92874952453E-02  0.19385335711E-01  0.23624345411E-01  0.00000000000E+00 0. -1.
     999901    1    3    3    0    0 -0.45097171389E-01  0.89379903182E-01 -0.10204766836E+00  0.89153589304E+00  0.88000000000E+00 0.  1.
        -11    1    4    4    0    0  0.43773101216E-01 -0.50191427801E-01  0.59910269642E-01  0.89581054606E-01  0.51100000000E-03 0. -1.
         11    1    4    4    0    0  0.11125135806E-01 -0.29900980136E-01  0.22752063008E-01  0.39188706943E-01  0.51100000000E-03 0.  1.
</event>
<event>
 8    1  0.1109553E+005  0.1043930E+01  0.7957747E-01            NaN
         13   -1    0    0    0    0  0.00000000000E+00  0.00000000000E+00  0.74505805969E-08  0.10566000000E+00  0.10566000000E+00 0.  1.
     999900   -1    0    0    0    0 -0.00000000000E+00 -0.00000000000E+00 -0.74505805969E-08  0.93827000000E+00  0.93827000000E+00 0.  1.
     999902    2    1    2    0    0 -0.11205686695E-02 -0.21713588484E-01  0.60438859437E-02  0.10213631182E+01  0.10211137816E+01 0.  0.
     999903    2    3    3    0    0 -0.11849017842E+00  0.90374245116E-02 -0.51380162787E-01  0.13118405107E+00  0.21159789804E-01 0.  0.
         14    1    1    2    0    0  0.11205686695E-02  0.21713588484E-01 -0.60438859437E-02  0.22566881847E-01  0.00000000000E+00 0. -1.
     999901    1    3    3    0    0  0.11736960975E+00 -0.30751012996E-01  0.57424048731E-01  0.89017906708E+00  0.88000000000E+00 0. -1.
        -11    1    4    4    0    0 -0.20058420390E-01 -0.64456876999E-06 -0.17701061840E-01  0.26756848473E-01  0.51100000000E-03 0. -1.
         11    1    4    4    0    0 -0.98431758029E-01  0.90380690804E-02 -0.33679100947E-01  0.10442720260E+00  0.51100000000E-03 0.  1.
</event>
<event>
 8    1  0.1109553E+005  0.1043930E+01  0.7957747E-01            NaN
         13   -1    0    0    0    0  0.00000000000E+00  0.00000000000E+00  0.74505805969E-08  0.10566000000E+00  0.10566000000E+00 0. -1.
     999900   -1    0    0    0    0 -0.00000000000E+00 -0.00000000000E+00 -0.74505805969E-08  0.93827000000E+00  0.93827000000E+00 0.  1.
     999902    2    1    2    0    0  0.15776146942E-01 -0.13367713945E-01  0.11468872805E-01  0.10202843316E+01  0.10200102940E+01 0.  0.
     999903    2    3    3    0    0  0.90068976186E-01 -0.63905827372E-01  0.72425399438E-01  0.13361121064E+00  0.20251959914E-01 0.  0.
         14    1    1    2    0    0 -0.15776146942E-01  0.13367713945E-01 -0.11468872805E-01  0.23645668353E-01  0.00000000000E+00 0. -1.
     999901    1    3    3    0    0 -0.74292829244E-01  0.50538113427E-01 -0.60956526633E-01  0.88667312101E+00  0.88000000000E+00 0.  1.
        -11    1    4    4    0    0  0.36402085069E-01 -0.20974947768E-01  0.38410272183E-01  0.56926886103E-01  0.51100000000E-03 0.  1.
         11    1    4    4    0    0  0.53666891117E-01 -0.42930879604E-01  0.34015127255E-01  0.76684324532E-01  0.51100000000E-03 0. -1.
</event>
<event>
 8    1  0.1109553E+005  0.1043930E+01  0.7957747E-01            NaN
         13   -1    0    0    0    0  0.00000000000E+00  0.00000000000E+00  0.74505805969E-08  0.10566000000E+00  0.10566000000E+00 0.  1.
     999900   -1    0    0    0    0 -0.00000000000E+00 -0.00000000000E+00 -0.74505805969E-08  0.93827000000E+00  0.93827000000E+00 0.  1.
     999902    2    1    2    0    0 -0.21102765487E-01 -0.68119193754E-02  0.85978214383E-02  0.10201465711E+01  0.10198692931E+01 0.  0.
     999903    2    3    3    0    0 -0.10883322636E+00  0.25240157648E-01  0.69083942339E-01  0.13313893853E+00  0.21717484809E-01 0.  0.
         14    1    1    2    0    0  0.21102765487E-01  0.68119193754E-02 -0.85978214383E-02  0.23783428901E-01  0.00000000000E+00 0. -1.
     999901    1    3    3    0    0  0.87730460875E-01 -0.32052077024E-01 -0.60486120901E-01  0.88700763256E+00  0.88000000000E+00 0. -1.
        -11    1    4    4    0    0 -0.10598151961E+00  0.27863267498E-01  0.68377823922E-01  0.12916745759E+00  0.51100000000E-03 0.  1.
         11    1    4    4    0    0 -0.28517067490E-02 -0.26231098495E-02  0.70611841661E-03  0.39714809433E-02  0.51100000000E-03 0. -1.
</event>
<event>
 7    1  0.1109553E+005  0.1043930E+01  0.7957747E-01            NaN
         13   -1    0    0    0    0  0.00000000000E+00  0.00000000000E+00  0.74505805969E-08  0.10566000000E+00  0.10566000000E+00 0. -1.
     999900   -1    0    0    0    0 -0.00000000000E+00 -0.00000000000E+00 -0.74505805969E-08  0.93827000000E+00  0.93827000000E+00 0.  1.
     999902    2    1    2    0    0 -0.21455130248E-01  0.41113673355E-02  0.95423490941E-02  0.10200913259E+01  0.10198127430E+01 0.  0.
         14    1    1    2    0    0  0.21455130248E-01 -0.41113673355E-02 -0.95423490941E-02  0.23838674073E-01  0.00000000000E+00 0.  1.
     999901    1    3    3    0    0  0.83274334777E-01  0.62446146944E-01 -0.28215272878E-01  0.88658346348E+00  0.88000000000E+00 0. -1.
        -11    1    3    3    0    0 -0.42397012259E-01 -0.16857134082E-01  0.36815789805E-01  0.58628773805E-01  0.51100000000E-03 0.  1.
         11    1    3    3    0    0 -0.62332452766E-01 -0.41477645527E-01  0.94183216737E-03  0.74879088637E-01  0.51100000000E-03 0. -1.
</event>
<event>
 8    1  0.1109553E+005  0.1043930E+01  0.7957747E-01            NaN
         13   -1    0    0    0    0  0.00000000000E+00  0.00000000000E+00  0.74505805969E-08  0.10566000000E+00  0.10566000000E+00 0.  1.
     999900   -1    0    0    0    0 -0.00000000000E+00 -0.00000000000E+00 -0.74505805969E-08  0.93827000000E+00  0.93827000000E+00 0.  1.
     999902    2    1    2    0    0 -0.31584115214E-01  0.44857698684E-02 -0.19300712791E-01  0.10066446680E+01  0.10059539213E+01 0.  0.
     999903    2    3    3    0    0  0.82394162877E-01 -0.20160452000E-02  0.77171200783E-01  0.11404164789E+00  0.16038725270E-01 0.  0.
         14    1    1    2    0    0  0.31584115214E-01 -0.44857698684E-02  0.19300712791E-01  0.37285331960E-01  0.00000000000E+00 0.  1.
     999901    1    3    3    0    0 -0.11397827809E+00  0.65018150684E-02 -0.96471913574E-01  0.89260302015E+00  0.88000000000E+00 0. -1.
        -11    1    4    4    0    0  0.33411443085E-01  0.62281772548E-02  0.36133448367E-01  0.49608486500E-01  0.51100000000E-03 0. -1.
         11    1    4    4    0    0  0.48982719791E-01 -0.82442224548E-02  0.41037752416E-01  0.64433161388E-01  0.51100000000E-03 0.  1.
</event>
<event>
 8    1  0.1109553E+005  0.1043930E+01  0.7957747E-01            NaN
         13   -1    0    0    0    0  0.00000000000E+00  0.00000000000E+00  0.74505805969E-08  0.10566000000E+00  0.10566000000E+00 0.  1.
     999900   -1    0    0    0    0 -0.00000000000E+00 -0.00000000000E+00 -0.74505805969E-08  0.93827000000E+00  0.93827000000E+00 0.  1.
     999902    2    1    2    0    0  0.16193087093E-01  0.61356257729E-02  0.15146635548E-01  0.10209238586E+01  0.10206646083E+01 0.  0.
     999903    2    3    3    0    0  0.10233493723E+00 -0.16918450554E-01 -0.78320124057E-01  0.13149261117E+00  0.19939699365E-01 0.  0.
         14    1    1    2    0    0 -0.16193087093E-01 -0.61356257729E-02 -0.15146635548E-01  0.23006141389E-01  0.00000000000E+00 0. -1.
     999901    1    3    3    0    0 -0.86141850142E-01  0.23054076327E-01  0.93466759605E-01  0.88943124745E+00  0.88000000000E+00 0. -1.
        -11    1    4    4    0    0  0.31358947943E-01 -0.13208627248E-01 -0.31580410628E-01  0.46426661589E-01  0.51100000000E-03 0.  1.
         11    1    4    4    0    0  0.70975989292E-01 -0.37098233061E-02 -0.46739713429E-01  0.85065949576E-01  0.51100000000E-03 0. -1.
</event>
<event>
 8    1  0.1109553E+005  0.1043930E+01  0.7957747E-01            NaN
         13   -1    0    0    0    0  0.00000000000E+00  0.00000000000E+00  0.74505805969E-08  0.10566000000E+00  0.10566000000E+00 0. -1.
     999900   -1    0    0    0    0 -0.00000000000E+00 -0.00000000000E+00 -0.74505805969E-08  0.93827000000E+00  0.93827000000E+00 0.  1.
     999902    2    1    2    0    0 -0.12528928373E-01 -0.16824493129E-01 -0.96498228254E-02  0.10208398139E+01  0.10205786441E+01 0.  0.
     999903    2    3    3    0    0 -0.11505104996E+00 -0.15502998389E-01 -0.62424618552E-01  0.13331645596E+00  0.19983927861E-01 0.  0.
         14    1    1    2    0    0  0.12528928373E-01  0.16824493129E-01  0.96498228254E-02  0.23090186136E-01  0.00000000000E+00 0.  1.
     999901    1    3    3    0    0  0.10252212159E+00 -0.13214947397E-02  0.52774795726E-01  0.88752335790E+00  0.88000000000E+00 0. -1.
        -11    1    4    4    0    0 -0.34747768046E-01 -0.95313744970E-02 -0.28467661436E-01  0.45923015500E-01  0.51100000000E-03 0. -1.
         11    1    4    4    0    0 -0.80303281912E-01 -0.59716238921E-02 -0.33956957115E-01  0.87393440459E-01  0.51100000000E-03 0.  1.
</event>
<event>
 8    1  0.1109553E+005  0.1043930E+01  0.7957747E-01            NaN
         13   -1    0    0    0    0  0.00000000000E+00  0.00000000000E+00  0.74505805969E-08  0.10566000000E+00  0.10566000000E+00 0. -1.
     999900   -1    0    0    0    0 -0.00000000000E+00 -0.00000000000E+00 -0.74505805969E-08  0.93827000000E+00  0.93827000000E+00 0.  1.
     999902    2    1    2    0    0 -0.15547620975E-01 -0.10716815620E-01  0.11516547322E-01  0.10218119188E+01  0.10215725074E+01 0.  0.
     999903    2    3    3    0    0 -0.22225344824E-02  0.86916096476E-01  0.97375160185E-01  0.13215948953E+00  0.20612165471E-01 0.  0.
         14    1    1    2    0    0  0.15547620975E-01  0.10716815620E-01 -0.11516547322E-01  0.22118081228E-01  0.00000000000E+00 0. -1.
     999901    1    3    3    0    0 -0.13325086492E-01 -0.97632912096E-01 -0.85858612863E-01  0.88965242924E+00  0.88000000000E+00 0.  1.
        -11    1    4    4    0    0  0.62237490082E-02  0.66793063541E-01  0.67574936201E-01  0.95219123670E-01  0.51100000000E-03 0.  1.
         11    1    4    4    0    0 -0.84462834906E-02  0.20123032935E-01  0.29800223984E-01  0.36940365859E-01  0.51100000000E-03 0. -1.
</event>
<event>
 8    1  0.1109553E+005  0.1043930E+01  0.7957747E-01            NaN
         13   -1    0    0    0    0  0.00000000000E+00  0.00000000000E+00  0.74505805969E-08  0.10566000000E+00  0.10566000000E+00 0.  1.
     999900   -1    0    0    0    0 -0.00000000000E+00 -0.00000000000E+00 -0.74505805969E-08  0.93827000000E+00  0.93827000000E+00 0. -1.
     999902    2    1    2    0    0  0.17306111580E-02 -0.14513280416E-01 -0.17805734811E-01  0.10208936262E+01  0.10206336863E+01 0.  0.
     999903    2    3    3    0    0 -0.94742968952E-01 -0.51194712132E-01 -0.75067689112E-01  0.13301322298E+00  0.21452991024E-01 0.  0.
         14    1    1    2    0    0 -0.17306111580E-02  0.14513280416E-01  0.17805734811E-01  0.23036373751E-01  0.00000000000E+00 0.  1.
     999901    1    3    3    0    0  0.96473580110E-01  0.36681431716E-01  0.57261954301E-01  0.88788040327E+00  0.88000000000E+00 0.  1.
        -11    1    4    4    0    0 -0.51306483716E-01 -0.28696077654E-01 -0.53727092106E-01  0.79640954861E-01  0.51100000000E-03 0. -1.
         11    1    4    4    0    0 -0.43436485236E-01 -0.22498634479E-01 -0.21340597006E-01  0.53372268123E-01  0.51100000000E-03 0.  1.
</event>
<event>
 8    1  0.1109553E+005  0.1043930E+01  0.7957747E-01            NaN
         13   -1    0    0    0    0  0.00000000000E+00  0.00000000000E+00  0.74505805969E-08  0.10566000000E+00  0.10566000000E+00 0.  1.
     999900   -1    0    0    0    0 -0.00000000000E+00 -0.00000000000E+00 -0.74505805969E-08  0.93827000000E+00  0.93827000000E+00 0.  1.
     999902    2    1    2    0    0 -0.21195093215E-01  0.95893468941E-02  0.23649256710E-02  0.10205466635E+01  0.10202787423E+01 0.  0.
     999903    2    3    3    0    0  0.71747943926E-01 -0.93722234406E-01 -0.46072765661E-01  0.12832589438E+00  0.20327586039E-01 0.  0.
         14    1    1    2    0    0  0.21195093215E-01 -0.95893468941E-02 -0.23649256710E-02  0.23383336453E-01  0.00000000000E+00 0.  1.
     999901    1    3    3    0    0 -0.92943037141E-01  0.10331158130E+00  0.48437691332E-01  0.89222076916E+00  0.88000000000E+00 0.  1.
        -11    1    4    4    0    0  0.29593454432E-01 -0.25833048750E-01 -0.93759484631E-02  0.40389212465E-01  0.51100000000E-03 0.  1.
         11    1    4    4    0    0  0.42154489494E-01 -0.67889185655E-01 -0.36696817198E-01  0.87936681919E-01  0.51100000000E-03 0. -1.
</event>
<event>
 8    1  0.1109553E+005  0.1043930E+01  0.7957747E-01            NaN
         13   -1    0    0    0    0  0.00000000000E+00  0.00000000000E+00  0.74505805969E-08  0.10566000000E+00  0.10566000000E+00 0. -1.
     999900   -1    0    0    0    0 -0.00000000000E+00 -0.00000000000E+00 -0.74505805969E-08  0.93827000000E+00  0.93827000000E+00 0.  1.
     999902    2    1    2    0    0 -0.15248699003E-01 -0.59977964847E-02 -0.15736780647E-01  0.10212112269E+01  0.10209584847E+01 0.  0.
     999903    2    3    3    0    0 -0.96641070797E-01 -0.96807963621E-02 -0.91179216397E-01  0.13423329949E+00  0.16483774070E-01 0.  0.
         14    1    1    2    0    0  0.15248699003E-01  0.59977964847E-02  0.15736780647E-01  0.22718773054E-01  0.00000000000E+00 0. -1.
     999901    1    3    3    0    0  0.81392371794E-01  0.36829998774E-02  0.75442435750E-01  0.88697792745E+00  0.88000000000E+00 0. -1.
        -11    1    4    4    0    0 -0.31774582195E-01 -0.26894366821E-02 -0.19848228545E-01  0.37564217558E-01  0.51100000000E-03 0. -1.
         11    1    4    4    0    0 -0.64866488602E-01 -0.69913596800E-02 -0.71330987851E-01  0.96669081937E-01  0.51100000000E-03 0.  1.
</event>
<event>
 8    1  0.1109553E+005  0.1043930E+01  0.7957747E-01            NaN
         13   -1    0    0    0    0  0.00000000000E+00  0.00000000000E+00  0.74505805969E-08  0.10566000000E+00  0.10566000000E+00 0. -1.
     999900   -1    0    0    0    0 -0.00000000000E+00 -0.00000000000E+00 -0.74505805969E-08  0.93827000000E+00  0.93827000000E+00 0. -1.
     999902    2    1    2    0    0  0.12515844963E-01  0.69175806465E-02 -0.19841037537E-01  0.10194725662E+01  0.10191791536E+01 0.  0.
     999903    2    3    3    0    0 -0.15487306771E-01  0.13519741754E-02 -0.12968327587E+00  0.13218429862E+00  0.20328606812E-01 0.  0.
         14    1    1    2    0    0 -0.12515844963E-01 -0.69175806465E-02  0.19841037537E-01  0.24457433792E-01  0.00000000000E+00 0. -1.
     999901    1    3    3    0    0  0.28003151734E-01  0.55656064711E-02  0.10984223833E+00  0.88728826759E+00  0.88000000000E+00 0.  1.
        -11    1    4    4    0    0 -0.19716486806E-01  0.34844156301E-02 -0.11546432935E+00  0.11718853817E+00  0.51100000000E-03 0.  1.
         11    1    4    4    0    0  0.42291800347E-02 -0.21324414547E-02 -0.14218946523E-01  0.14995760452E-01  0.51100000000E-03 0. -1.
</event>
<event>
 8    1  0.1109553E+005  0.1043930E+01  0.7957747E-01            NaN
         13   -1    0    0    0    0  0.00000000000E+00  0.00000000000E+00  0.74505805969E-08  0.10566000000E+00  0.10566000000E+00 0.  1.
     999900   -1    0    0    0    0 -0.00000000000E+00 -0.00000000000E+00 -0.74505805969E-08  0.93827000000E+00  0.93827000000E+00 0.  1.
     999902    2    1    2    0    0  0.20775332108E-01 -0.21322605575E-02  0.10741310724E-01  0.10204451812E+01  0.10201749022E+01 0.  0.
     999903    2    3    3    0    0  0.63938156293E-01  0.67219763912E-01  0.92846367111E-01  0.13285632761E+00  0.20585708849E-01 0.  0.
         14    1    1    2    0    0 -0.20775332108E-01  0.21322605575E-02 -0.10741310724E-01  0.23484818828E-01  0.00000000000E+00 0. -1.
     999901    1    3    3    0    0 -0.43162824185E-01 -0.69352024470E-01 -0.82105056387E-01  0.88758885357E+00  0.88000000000E+00 0.  1.
        -11    1    4    4    0    0  0.33039911642E-01  0.26271674585E-01  0.53808425802E-01  0.68391844946E-01  0.51100000000E-03 0.  1.
         11    1    4    4    0    0  0.30898244651E-01  0.40948089327E-01  0.39037941309E-01  0.64464482661E-01  0.51100000000E-03 0. -1.
</event>
<event>
 8    1  0.1109553E+005  0.1043930E+01  0.7957747E-01            NaN
         13   -1    0    0    0    0  0.00000000000E+00  0.00000000000E+00  0.74505805969E-08  0.10566000000E+00  0.10566000000E+00 0.  1.
     999900   -1    0    0    0    0 -0.00000000000E+00 -0.00000000000E+00 -0.74505805969E-08  0.93827000000E+00  0.93827000000E+00 0.  1.
     999902    2    1    2    0    0  0.12391913386E-01  0.19147191736E-01  0.80060458159E-02  0.10197582967E+01  0.10194717811E+01 0.  0.
     999903    2    3    3    0    0  0.55232717544E-01 -0.43917661458E-01 -0.10637523004E+00  0.12908687221E+00  0.19191585008E-01 0.  0.
         14    1    1    2    0    0 -0.12391913386E-01 -0.19147191736E-01 -0.80060458159E-02  0.24171703257E-01  0.00000000000E+00 0.  1.
     999901    1    3    3    0    0 -0.42840804159E-01  0.63064853194E-01  0.11438127586E+00  0.89067142453E+00  0.88000000000E+00 0. -1.
        -11    1    4    4    0    0  0.97184668960E-02 -0.10555601385E-01 -0.10324336558E-01  0.17683957865E-01  0.51100000000E-03 0. -1.
         11    1    4    4    0    0  0.45514250648E-01 -0.33362060073E-01 -0.96050893487E-01  0.11140291435E+00  0.51100000000E-03 0.  1.
</event>
<event>
 7    1  0.1109553E+005  0.1043930E+01  0.7957747E-01            NaN
         13   -1    0    0    0    0  0.00000000000E+00  0.00000000000E+00  0.74505805969E-08  0.10566000000E+00  0.10566000000E+00 0. -1.
     999900   -1    0    0    0    0 -0.00000000000E+00 -0.00000000000E+00 -0.74505805969E-08  0.93827000000E+00  0.93827000000E+00 0.  1.
     999903    2    1    2    0    0  0.19786022206E-01  0.54875423980E-02  0.75526106533E-01  0.80688401418E-01  0.19616971199E-01 0.  0.
         14    1    1    2    0    0  0.33243117031E-01 -0.20772062086E-01  0.59481738559E-01  0.71236652190E-01  0.00000000000E+00 0. -1.
     999901    1    1    2    0    0 -0.53029139237E-01  0.15284519688E-01 -0.13500784509E+00  0.89200494639E+00  0.88000000000E+00 0.  1.
        -11    1    3    3    0    0  0.23201218584E-01  0.20204420083E-02  0.65778743986E-01  0.69781681057E-01  0.51100000000E-03 0. -1.
         11    1    3    3    0    0 -0.34151963783E-02  0.34671003898E-02  0.97473625473E-02  0.10906720361E-01  0.51100000000E-03 0.  1.
</event>
<event>
 8    1  0.1109553E+005  0.1043930E+01  0.7957747E-01            NaN
         13   -1    0    0    0    0  0.00000000000E+00  0.00000000000E+00  0.74505805969E-08  0.10566000000E+00  0.10566000000E+00 0. -1.
     999900   -1    0    0    0    0 -0.00000000000E+00 -0.00000000000E+00 -0.74505805969E-08  0.93827000000E+00  0.93827000000E+00 0.  1.
     999902    2    1    2    0    0 -0.65167681240E-02  0.12397636222E-01  0.19713517908E-01  0.10197475179E+01  0.10194607437E+01 0.  0.
     999903    2    3    3    0    0 -0.81644935843E-02 -0.12660899946E+00 -0.50559450248E-02  0.12849049212E+00  0.19691274362E-01 0.  0.
         14    1    1    2    0    0  0.65167681240E-02 -0.12397636222E-01 -0.19713517908E-01  0.24182482068E-01  0.00000000000E+00 0.  1.
     999901    1    3    3    0    0  0.16477254603E-02  0.13900663568E+00  0.24769462932E-01  0.89125702581E+00  0.88000000000E+00 0. -1.
        -11    1    4    4    0    0 -0.10810658125E-01 -0.41058879579E-01  0.27011751920E-02  0.42547143145E-01  0.51100000000E-03 0.  1.
         11    1    4    4    0    0  0.26461645402E-02 -0.85550119880E-01 -0.77571202168E-02  0.85943348976E-01  0.51100000000E-03 0. -1.
</event>
<event>
 8    1  0.1109553E+005  0.1043930E+01  0.7957747E-01            NaN
         13   -1    0    0    0    0  0.00000000000E+00  0.00000000000E+00  0.74505805969E-08  0.10566000000E+00  0.10566000000E+00 0.  1.
     999900   -1    0    0    0    0 -0.00000000000E+00 -0.00000000000E+00 -0.74505805969E-08  0.93827000000E+00  0.93827000000E+00 0.  1.
     999902    2    1    2    0    0  0.22927033236E-01  0.42795928929E-02  0.48798036620E-02  0.10201019440E+01  0.10198236122E+01 0.  0.
     999903    2    3    3    0    0 -0.10609969193E+00 -0.39001414824E-01  0.57050150172E-01  0.12811377902E+00  0.19497839698E-01 0.  0.
         14    1    1    2    0    0 -0.22927033236E-01 -0.42795928929E-02 -0.48798036620E-02  0.23828055987E-01  0.00000000000E+00 0. -1.
     999901    1    3    3    0    0  0.12902672517E+00  0.43281007717E-01 -0.52170346510E-01  0.89198816500E+00  0.88000000000E+00 0. -1.
        -11    1    4    4    0    0 -0.98261189431E-01 -0.41076794722E-01  0.54222449503E-01  0.11951108553E+00  0.51100000000E-03 0.  1.
         11    1    4    4    0    0 -0.78385025022E-02  0.20753798978E-02  0.28277006685E-02  0.86026934892E-02  0.51100000000E-03 0. -1.
</event>
<event>
 8    1  0.1109553E+005  0.1043930E+01  0.7957747E-01            NaN
         13   -1    0    0    0    0  0.00000000000E+00  0.00000000000E+00  0.74505805969E-08  0.10566000000E+00  0.10566000000E+00 0.  1.
     999900   -1    0    0    0    0 -0.00000000000E+00 -0.00000000000E+00 -0.74505805969E-08  0.93827000000E+00  0.93827000000E+00 0.  1.
     999902    2    1    2    0    0 -0.55609876162E-03  0.23335841769E-01 -0.92586388523E-02  0.10188183861E+01  0.10185088663E+01 0.  0.
     999903    2    3    3    0    0  0.67196630234E-01  0.86331061956E-01 -0.71630987026E-01  0.13177321262E+00  0.16270890872E-01 0.  0.
         14    1    1    2    0    0  0.55609876162E-03 -0.23335841769E-01  0.92586388523E-02  0.25111613853E-01  0.00000000000E+00 0.  1.
     999901    1    3    3    0    0 -0.67752728996E-01 -0.62995220187E-01  0.62372348174E-01  0.88704517352E+00  0.88000000000E+00 0.  1.
        -11    1    4    4    0    0  0.19852124438E-01  0.19351009128E-01 -0.11261540679E-01  0.29927442564E-01  0.51100000000E-03 0.  1.
         11    1    4    4    0    0  0.47344505797E-01  0.66980052828E-01 -0.60369446347E-01  0.10184577006E+00  0.51100000000E-03 0. -1.
</event>
<event>
 8    1  0.1109553E+005  0.1043930E+01  0.7957747E-01            NaN
         13   -1    0    0    0    0  0.00000000000E+00  0.00000000000E+00  0.74505805969E-08  0.10566000000E+00  0.10566000000E+00 0. -1.
     999900   -1    0    0    0    0 -0.00000000000E+00 -0.00000000000E+00 -0.74505805969E-08  0.93827000000E+00  0.93827000000E+00 0. -1.
     999902    2    1    2    0    0  0.15897306362E-01 -0.13283666593E-01 -0.12032255963E-01  0.10199726351E+01  0.10196912381E+01 0.  0.
     999903    2    3    3    0    0  0.46147128824E-01  0.11529445095E+00  0.29216506709E-01  0.12915904942E+00  0.20151621881E-01 0.  0.
         14    1    1    2    0    0 -0.15897306362E-01  0.13283666593E-01  0.12032255963E-01  0.23957364865E-01  0.00000000000E+00 0. -1.
     999901    1    3    3    0    0 -0.30249822461E-01 -0.12857811754E+00 -0.41248762671E-01  0.89081358571E+00  0.88000000000E+00 0. -1.
        -11    1    4    4    0    0  0.16446960363E-01  0.66964978862E-01  0.13152383656E-01  0.70200122621E-01  0.51100000000E-03 0. -1.
         11    1    4    4    0    0  0.29700168461E-01  0.48329472088E-01  0.16064123053E-01  0.58958926800E-01  0.51100000000E-03 0.  1.
</event>
<event>
 8    1  0.1109553E+005  0.1043930E+01  0.7957747E-01            NaN
         13   -1    0    0    0    0  0.00000000000E+00  0.00000000000E+00  0.74505805969E-08  0.10566000000E+00  0.10566000000E+00 0.  1.
     999900   -1    0    0    0    0 -0.00000000000E+00 -0.00000000000E+00 -0.74505805969E-08  0.93827000000E+00  0.93827000000E+00 0. -1.
     999902    2    1    2    0    0  0.21189402521E-01  0.11120672095E-01 -0.24358575577E-02  0.10198760288E+01  0.10195923306E+01 0.  0.
     999903    2    3    3    0    0 -0.57925500962E-01  0.11339194078E+00  0.19077033372E-01  0.13016743337E+00  0.19145015344E-01 0.  0.
         14    1    1    2    0    0 -0.21189402521E-01 -0.11120672095E-01  0.24358575577E-02  0.24053971171E-01  0.00000000000E+00 0. -1.
     999901    1    3    3    0    0  0.79114903483E-01 -0.10227126869E+00 -0.21512890930E-01  0.88970859546E+00  0.88000000000E+00 0.  1.
        -11    1    4    4    0    0 -0.21784954733E-01  0.26973117965E-01  0.54997686056E-03  0.34679921295E-01  0.51100000000E-03 0.  1.
         11    1    4    4    0    0 -0.36140546229E-01  0.86418822817E-01  0.18527056512E-01  0.95487512078E-01  0.51100000000E-03 0. -1.
</event>
<event>
 8    1  0.1109553E+005  0.1043930E+01  0.7957747E-01            NaN
         13   -1    0    0    0    0  0.00000000000E+00  0.00000000000E+00  0.74505805969E-08  0.10566000000E+00  0.10566000000E+00 0. -1.
     999900   -1    0    0    0    0 -0.00000000000E+00 -0.00000000000E+00 -0.74505805969E-08  0.93827000000E+00  0.93827000000E+00 0.  1.
     999902    2    1    2    0    0 -0.39069688949E-02  0.84085468558E-02 -0.21670681642E-01  0.10203591173E+01  0.10200868305E+01 0.  0.
     999903    2    3    3    0    0 -0.85886954659E-01  0.64783921742E-02  0.94072414351E-01  0.12900009438E+00  0.19309755612E-01 0.  0.
         14    1    1    2    0    0  0.39069688949E-02 -0.84085468558E-02  0.21670681642E-01  0.23570882652E-01  0.00000000000E+00 0. -1.
     999901    1    3    3    0    0  0.81979985764E-01  0.19301546816E-02 -0.11574309599E+00  0.89135902297E+00  0.88000000000E+00 0.  1.
        -11    1    4    4    0    0 -0.60825180126E-01  0.13225795148E-01  0.64172433571E-01  0.89403504104E-01  0.51100000000E-03 0. -1.
         11    1    4    4    0    0 -0.25061774533E-01 -0.67474029737E-02  0.29899980780E-01  0.39596590273E-01  0.51100000000E-03 0.  1.
</event>
<event>
 8    1  0.1109553E+005  0.1043930E+01  0.7957747E-01            NaN
         13   -1    0    0    0    0  0.00000000000E+00  0.00000000000E+00  0.74505805969E-08  0.10566000000E+00  0.10566000000E+00 0.  1.
     999900   -1    0    0    0    0 -0.00000000000E+00 -0.00000000000E+00 -0.74505805969E-08  0.93827000000E+00  0.93827000000E+00 0.  1.
     999902    2    1    2    0    0  0.81974490381E-02 -0.16125712925E-02  0.22383154266E-01  0.10200384921E+01  0.10197586583E+01 0.  0.
     999903    2    3    3    0    0  0.10147796983E-01  0.41805437683E-01  0.12453011194E+00  0.13306446294E+00  0.18647523027E-01 0.  0.
         14    1    1    2    0    0 -0.81974490381E-02  0.16125712925E-02 -0.22383154266E-01  0.23891507943E-01  0.00000000000E+00 0. -1.
     999901    1    3    3    0    0 -0.19503479452E-02 -0.43418008975E-01 -0.10214695767E+00  0.88697402911E+00  0.88000000000E+00 0.  1.
        -11    1    4    4    0    0  0.12461382972E-01  0.22745402805E-01  0.53104331683E-01  0.59101358519E-01  0.51100000000E-03 0. -1.
         11    1    4    4    0    0 -0.23135859883E-02  0.19060034878E-01  0.71425780257E-01  0.73963104424E-01  0.51100000000E-03 0.  1.
</event>
<event>
 8    1  0.1109553E+005  0.1043930E+01  0.7957747E-01            NaN
         13   -1    0    0    0    0  0.00000000000E+00  0.00000000000E+00  0.74505805969E-08  0.10566000000E+00  0.10566000000E+00 0. -1.
     999900   -1    0    0    0    0 -0.00000000000E+00 -0.00000000000E+00 -0.74505805969E-08  0.93827000000E+00  0.93827000000E+00 0. -1.
     999902    2    1    2    0    0 -0.14451338766E-01  0.14187560006E-02 -0.19077609082E-01  0.10199548206E+01  0.10196729999E+01 0.  0.
     999903    2    3    3    0    0 -0.34417368651E-01  0.81743219958E-01  0.92447090209E-01  0.12906289647E+00  0.15628739027E-01 0.  0.
         14    1    1    2    0    0  0.14451338766E-01 -0.14187560006E-02  0.19077609082E-01  0.23975179436E-01  0.00000000000E+00 0. -1.
     999901    1    3    3    0    0  0.19966029885E-01 -0.80324463957E-01 -0.11152469929E+00  0.89089192409E+00  0.88000000000E+00 0. -1.
        -11    1    4    4    0    0 -0.18495994455E-01  0.24873222096E-01  0.31665103373E-01  0.44313867817E-01  0.51100000000E-03 0.  1.
         11    1    4    4    0    0 -0.15921374196E-01  0.56869997862E-01  0.60781986836E-01  0.84749028655E-01  0.51100000000E-03 0. -1.
</event>
<event>
 8    1  0.1109553E+005  0.1043930E+01  0.7957747E-01            NaN
         13   -1    0    0    0    0  0.00000000000E+00  0.00000000000E+00  0.74505805969E-08  0.10566000000E+00  0.10566000000E+00 0.  1.
     999900   -1    0    0    0    0 -0.00000000000E+00 -0.00000000000E+00 -0.74505805969E-08  0.93827000000E+00  0.93827000000E+00 0. -1.
     999902    2    1    2    0    0 -0.10201637193E-01 -0.12334200419E-01  0.17186440680E-01  0.10204442672E+01  0.10201739669E+01 0.  0.
     999903    2    3    3    0    0 -0.40501298506E-01 -0.39942997848E-01 -0.11468372765E+00  0.12967490510E+00  0.20674268252E-01 0.  0.
         14    1    1    2    0    0  0.10201637193E-01  0.12334200419E-01 -0.17186440680E-01  0.23485732789E-01  0.00000000000E+00 0. -1.
     999901    1    3    3    0    0  0.30299661313E-01  0.27608797429E-01  0.13187016833E+00  0.89076936211E+00  0.88000000000E+00 0.  1.
        -11    1    4    4    0    0 -0.21759545176E-01 -0.34770508511E-01 -0.75193836859E-01  0.85655357632E-01  0.51100000000E-03 0. -1.
         11    1    4    4    0    0 -0.18741753330E-01 -0.51724893365E-02 -0.39489890794E-01  0.44019547473E-01  0.51100000000E-03 0.  1.
</event>
<event>
 8    1  0.1109553E+005  0.1043930E+01  0.7957747E-01            NaN
         13   -1    0    0    0    0  0.00000000000E+00  0.00000000000E+00  0.74505805969E-08  0.10566000000E+00  0.10566000000E+00 0. -1.
     999900   -1    0    0    0    0 -0.00000000000E+00 -0.00000000000E+00 -0.74505805969E-08  0.93827000000E+00  0.93827000000E+00 0.  1.
     999902    2    1    2    0    0 -0.14112600999E-01 -0.12636172458E-01  0.10239911895E-01  0.10223964411E+01  0.10221696477E+01 0.  0.
     999903    2    3    3    0    0 -0.10901557063E+00  0.59429002753E-01 -0.39466395915E-01  0.13297489870E+00  0.26618156764E-01 0.  0.
         14    1    1    2    0    0  0.14112600999E-01  0.12636172458E-01 -0.10239911895E-01  0.21533558855E-01  0.00000000000E+00 0.  1.
     999901    1    3    3    0    0  0.94902969636E-01 -0.72065175211E-01  0.49706307810E-01  0.88942154244E+00  0.88000000000E+00 0. -1.
        -11    1    4    4    0    0 -0.10033772175E+00  0.57911320509E-01 -0.29273734068E-01  0.11949306288E+00  0.51100000000E-03 0. -1.
         11    1    4    4    0    0 -0.86778488872E-02  0.15176822441E-02 -0.10192661846E-01  0.13481835825E-01  0.51100000000E-03 0.  1.
</event>
<event>
 8    1  0.1109553E+005  0.1043930E+01  0.7957747E-01            NaN
         13   -1    0    0    0    0  0.00000000000E+00  0.00000000000E+00  0.74505805969E-08  0.10566000000E+00  0.10566000000E+00 0. -1.
     999900   -1    0    0    0    0 -0.00000000000E+00 -0.00000000000E+00 -0.74505805969E-08  0.93827000000E+00  0.93827000000E+00 0.  1.
     999902    2    1    2    0    0  0.15650208284E-01  0.17127461402E-01 -0.71033118435E-02  0.10196661175E+01  0.10193773861E+01 0.  0.
     999903    2    3    3    0    0  0.97110138498E-01 -0.23656628814E-01 -0.83828396888E-01  0.13164258129E+00  0.17679196741E-01 0.  0.
         14    1    1    2    0    0 -0.15650208284E-01 -0.17127461402E-01  0.71033118435E-02  0.24263882470E-01  0.00000000000E+00 0.  1.
     999901    1    3    3    0    0 -0.81459930214E-01  0.40784090215E-01  0.76725085044E-01  0.88802353624E+00  0.88000000000E+00 0. -1.
        -11    1    4    4    0    0  0.51382233508E-01 -0.18354482431E-01 -0.36689413315E-01  0.65752529351E-01  0.51100000000E-03 0. -1.
         11    1    4    4    0    0  0.45727904989E-01 -0.53021463827E-02 -0.47138983572E-01  0.65890051936E-01  0.51100000000E-03 0.  1.
</event>
<event>
 8    1  0.1109553E+005  0.1043930E+01  0.7957747E-01            NaN
         13   -1    0    0    0    0  0.00000000000E+00  0.00000000000E+00  0.74505805969E-08  0.10566000000E+00  0.10566000000E+00 0.  1.
     999900   -1    0    0    0    0 -0.00000000000E+00 -0.00000000000E+00 -0.74505805969E-08  0.93827000000E+00  0.93827000000E+00 0.  1.
     999902    2    1    2    0    0  0.45611330386E-02  0.14216194686E-01 -0.18937618573E-01  0.10198149109E+01  0.10195297519E+01 0.  0.
     999903    2    3    3    0    0 -0.98764438352E-01  0.69499924072E-01 -0.48150866066E-01  0.13156614040E+00  0.20161588909E-01 0.  0.
         14    1    1    2    0    0 -0.45611330386E-02 -0.14216194686E-01  0.18937618573E-01  0.24115089117E-01  0.00000000000E+00 0.  1.
     999901    1    3    3    0    0  0.10332557139E+00 -0.55283729387E-01  0.29213247494E-01  0.88824877048E+00  0.88000000000E+00 0.  1.
        -11    1    4    4    0    0 -0.68685900538E-01  0.59001411613E-01 -0.36821112789E-01  0.97749552291E-01  0.51100000000E-03 0.  1.
         11    1    4    4    0    0 -0.30078537815E-01  0.10498512459E-01 -0.11329753277E-01  0.33816588107E-01  0.51100000000E-03 0. -1.
</event>
<event>
 8    1  0.1109553E+005  0.1043930E+01  0.7957747E-01            NaN
         13   -1    0    0    0    0  0.00000000000E+00  0.00000000000E+00  0.74505805969E-08  0.10566000000E+00  0.10566000000E+00 0.  1.
     999900   -1    0    0    0    0 -0.00000000000E+00 -0.00000000000E+00 -0.74505805969E-08  0.93827000000E+00  0.93827000000E+00 0. -1.
     999902    2    1    2    0    0 -0.17313647237E-01 -0.12452684825E-01 -0.10849447723E-01  0.10200021448E+01  0.10197214488E+01 0.  0.
     999903    2    3    3    0    0  0.17571383786E-01  0.10493421649E+00  0.68332634939E-01  0.12800077022E+00  0.19872213242E-01 0.  0.
         14    1    1    2    0    0  0.17313647237E-01  0.12452684825E-01  0.10849447723E-01  0.23927855230E-01  0.00000000000E+00 0. -1.
     999901    1    3    3    0    0 -0.34885031024E-01 -0.11738690132E+00 -0.79182082662E-01  0.89200137455E+00  0.88000000000E+00 0.  1.
        -11    1    4    4    0    0 -0.43621984837E-02  0.22804480339E-01  0.14978628779E-01  0.27635005703E-01  0.51100000000E-03 0.  1.
         11    1    4    4    0    0  0.21933582270E-01  0.82129736155E-01  0.53354006160E-01  0.10036576451E+00  0.51100000000E-03 0. -1.
</event>
<event>
 8    1  0.1109553E+005  0.1043930E+01  0.7957747E-01            NaN
         13   -1    0    0    0    0  0.00000000000E+00  0.00000000000E+00  0.74505805969E-08  0.10566000000E+00  0.10566000000E+00 0.  1.
     999900   -1    0    0    0    0 -0.00000000000E+00 -0.00000000000E+00 -0.74505805969E-08  0.93827000000E+00  0.93827000000E+00 0.  1.
     999902    2    1    2    0    0 -0.95094484006E-03 -0.19599564542E-01  0.13276507315E-01  0.10202379576E+01  0.10199628313E+01 0.  0.
     999903    2    3    3    0    0 -0.67607499948E-01 -0.23904657286E-02  0.11165879799E+00  0.13208350902E+00  0.20046890309E-01 0.  0.
         14    1    1    2    0    0  0.95094484006E-03  0.19599564542E-01 -0.13276507315E-01  0.23692042394E-01  0.00000000000E+00 0. -1.
     999901    1    3    3    0    0  0.66656555108E-01 -0.17209098813E-01 -0.98382290676E-01  0.88815444858E+00  0.88000000000E+00 0.  1.
        -11    1    4    4    0    0 -0.55548035958E-01  0.46052676515E-02  0.80181331350E-01  0.97652955956E-01  0.51100000000E-03 0. -1.
         11    1    4    4    0    0 -0.12059463990E-01 -0.69957333801E-02  0.31477466641E-01  0.34430553065E-01  0.51100000000E-03 0.  1.
</event>
<event>
 8    1  0.1109553E+005  0.1043930E+01  0.7957747E-01            NaN
         13   -1    0    0    0    0  0.00000000000E+00  0.00000000000E+00  0.74505805969E-08  0.10566000000E+00  0.10566000000E+00 0. -1.
     999900   -1    0    0    0    0 -0.00000000000E+00 -0.00000000000E+00 -0.74505805969E-08  0.93827000000E+00  0.93827000000E+00 0.  1.
     999902    2    1    2    0    0 -0.37804519058E-02  0.60008283993E-02 -0.21942890436E-01  0.10208693799E+01  0.10206088862E+01 0.  0.
     999903    2    3    3    0    0  0.81975881788E-01 -0.93604889882E-01  0.29849623080E-01  0.12960179252E+00  0.20584072039E-01 0.  0.
         14    1    1    2    0    0  0.37804519058E-02 -0.60008283993E-02  0.21942890436E-01  0.23060620086E-01  0.00000000000E+00 0. -1.
     999901    1    3    3    0    0 -0.85756333694E-01  0.99605718281E-01 -0.51792513515E-01  0.89126758739E+00  0.88000000000E+00 0.  1.
        -11    1    4    4    0    0  0.56864423389E-02 -0.65379828617E-03  0.20227856318E-03  0.57502274990E-02  0.51100000000E-03 0. -1.
         11    1    4    4    0    0  0.76289439449E-01 -0.92951091595E-01  0.29647344517E-01  0.12385156502E+00  0.51100000000E-03 0.  1.
</event>
<event>
 8    1  0.1109553E+005  0.1043930E+01  0.7957747E-01            NaN
         13   -1    0    0    0    0  0.00000000000E+00  0.00000000000E+00  0.74505805969E-08  0.10566000000E+00  0.10566000000E+00 0.  1.
     999900   -1    0    0    0    0 -0.00000000000E+00 -0.00000000000E+00 -0.74505805969E-08  0.93827000000E+00  0.93827000000E+00 0. -1.
     999902    2    1    2    0    0 -0.49181220154E-02  0.20066034469E-01  0.12488088581E-01  0.10197890385E+01  0.10195032600E+01 0.  0.
     999903    2    3    3    0    0  0.57451253871E-01  0.12527914099E-01  0.11725624341E+00  0.13135044834E+00  0.68057663534E-02 0.  0.
         14    1    1    2    0    0  0.49181220154E-02 -0.20066034469E-01 -0.12488088581E-01  0.24140961453E-01  0.00000000000E+00 0. -1.
     999901    1    3    3    0    0 -0.62369375887E-01  0.75381203698E-02 -0.10476815483E+00  0.88843859021E+00  0.88000000000E+00 0. -1.
        -11    1    4    4    0    0  0.53423877973E-01  0.10831000512E-01  0.10462692432E+00  0.11797658972E+00  0.51100000000E-03 0. -1.
         11    1    4    4    0    0  0.40273758977E-02  0.16969135876E-02  0.12629319099E-01  0.13373858614E-01  0.51100000000E-03 0.  1.
</event>
<event>
 8    1  0.1109553E+005  0.1043930E+01  0.7957747E-01            NaN
         13   -1    0    0    0    0  0.00000000000E+00  0.00000000000E+00  0.74505805969E-08  0.10566000000E+00  0.10566000000E+00 0. -1.
     999900   -1    0    0    0    0 -0.00000000000E+00 -0.00000000000E+00 -0.74505805969E-08  0.93827000000E+00  0.93827000000E+00 0.  1.
     999902    2    1    2    0    0 -0.34952596525E-02 -0.24013664759E-01 -0.38699068203E-02  0.10193566585E+01  0.10190604241E+01 0.  0.
     999903    2    3    3    0    0  0.10237974240E+00  0.38064529130E-01 -0.65303485661E-01  0.12871795348E+00  0.19319582704E-01 0.  0.
         14    1    1    2    0    0  0.34952596525E-02  0.24013664759E-01  0.38699068203E-02  0.24573341531E-01  0.00000000000E+00 0. -1.
     999901    1    3    3    0    0 -0.10587500206E+00 -0.62078193889E-01  0.61433578840E-01  0.89063870499E+00  0.88000000000E+00 0. -1.
        -11    1    4    4    0    0  0.46271668699E-01  0.71630654766E-02 -0.25876132162E-01  0.53499646428E-01  0.51100000000E-03 0. -1.
         11    1    4    4    0    0  0.56108073705E-01  0.30901463653E-01 -0.39427353499E-01  0.75218307052E-01  0.51100000000E-03 0.  1.
</event>
<event>
 8    1  0.1109553E+005  0.1043930E+01  0.7957747E-01            NaN
         13   -1    0    0    0    0  0.00000000000E+00  0.00000000000E+00  0.74505805969E-08  0.10566000000E+00  0.10566000000E+00 0.  1.
     999900   -1    0    0    0    0 -0.00000000000E+00 -0.00000000000E+00 -0.74505805969E-08  0.93827000000E+00  0.93827000000E+00 0.  1.
     999902    2    1    2    0    0 -0.13257221715E-01 -0.11981524438E-01 -0.16053028509E-01  0.10199089555E+01  0.10196260427E+01 0.  0.
     999903    2    3    3    0    0  0.54266960791E-01 -0.11525951511E+00  0.21178130620E-01  0.13052039147E+00  0.18905039437E-01 0.  0.
         14    1    1    2    0    0  0.13257221715E-01  0.11981524438E-01  0.16053028509E-01  0.24021044519E-01  0.00000000000E+00 0.  1.
     999901    1    3    3    0    0 -0.67524182506E-01  0.10327799067E+00 -0.37231159129E-01  0.88938856401E+00  0.88000000000E+00 0.  1.
        -11    1    4    4    0    0  0.11524628270E-01 -0.19231474591E-01  0.10818102524E-01  0.24898978592E-01  0.51100000000E-03 0.  1.
         11    1    4    4    0    0  0.42742332521E-01 -0.96028040521E-01  0.10360028097E-01  0.10562141288E+00  0.51100000000E-03 0. -1.
</event>
<event>
 8    1  0.1109553E+005  0.1043930E+01  0.7957747E-01            NaN
         13   -1    0    0    0    0  0.00000000000E+00  0.00000000000E+00  0.74505805969E-08  0.10566000000E+00  0.10566000000E+00 0. -1.
     999900   -1    0    0    0    0 -0.00000000000E+00 -0.00000000000E+00 -0.74505805969E-08  0.93827000000E+00  0.93827000000E+00 0. -1.
     999902    2    1    2    0    0 -0.30267352970E-02 -0.15554179109E-02  0.23766433066E-01  0.10199211726E+01  0.10196385509E+01 0.  0.
     999903    2    3    3    0    0  0.32967253128E-01 -0.95119931472E-01 -0.77308337757E-01  0.12848076816E+00  0.19901948632E-01 0.  0.
         14    1    1    2    0    0  0.30267352970E-02  0.15554179109E-02 -0.23766433066E-01  0.24008827379E-01  0.00000000000E+00 0.  1.
     999901    1    3    3    0    0 -0.35993988425E-01  0.93564513561E-01  0.10107477082E+00  0.89144040446E+00  0.88000000000E+00 0.  1.
        -11    1    4    4    0    0 -0.33272653872E-03 -0.24734252607E-01 -0.17862046941E-01  0.30515697614E-01  0.51100000000E-03 0. -1.
         11    1    4    4    0    0  0.33299979666E-01 -0.70385678865E-01 -0.59446290816E-01  0.97965070550E-01  0.51100000000E-03 0.  1.
</event>
<event>
 8    1  0.1109553E+005  0.1043930E+01  0.7957747E-01            NaN
         13   -1    0    0    0    0  0.00000000000E+00  0.00000000000E+00  0.74505805969E-08  0.10566000000E+00  0.10566000000E+00 0.  1.
     999900   -1    0    0    0    0 -0.00000000000E+00 -0.00000000000E+00 -0.74505805969E-08  0.93827000000E+00  0.93827000000E+00 0.  1.
     999902    2    1    2    0    0 -0.84884112644E-02 -0.21655266304E-01  0.33948392673E-02  0.10204240727E+01  0.10201533020E+01 0.  0.
     999903    2    3    3    0    0  0.10878949506E-01 -0.13106791350E+00 -0.76921697058E-02  0.13336762365E+00  0.20751001719E-01 0.  0.
         14    1    1    2    0    0  0.84884112644E-02  0.21655266304E-01 -0.33948392673E-02  0.23505927298E-01  0.00000000000E+00 0. -1.
     999901    1    3    3    0    0 -0.19367360770E-01  0.10941264720E+00  0.11087008973E-01  0.88705644905E+00  0.88000000000E+00 0.  1.
        -11    1    4    4    0    0  0.13651026500E-01 -0.11597998551E+00 -0.12077220862E-01  0.11740454824E+00  0.51100000000E-03 0. -1.
         11    1    4    4    0    0 -0.27720769940E-02 -0.15087927993E-01  0.43850511560E-02  0.15963075412E-01  0.51100000000E-03 0.  1.
</event>
<event>
 8    1  0.1109553E+005  0.1043930E+01  0.7957747E-01            NaN
         13   -1    0    0    0    0  0.00000000000E+00  0.00000000000E+00  0.74505805969E-08  0.10566000000E+00  0.10566000000E+00 0. -1.
     999900   -1    0    0    0    0 -0.00000000000E+00 -0.00000000000E+00 -0.74505805969E-08  0.93827000000E+00  0.93827000000E+00 0.  1.
     999902    2    1    2    0    0  0.11555959414E-01  0.12466912015E-01 -0.16160656719E-01  0.10204751302E+01  0.10202055481E+01 0.  0.
     999903    2    3    3    0    0  0.62961548823E-01 -0.96903755252E-01  0.54651407381E-01  0.12939779015E+00  0.20062835142E-01 0.  0.
         14    1    1    2    0    0 -0.11555959414E-01 -0.12466912015E-01  0.16160656719E-01  0.23454869830E-01  0.00000000000E+00 0. -1.
     999901    1    3    3    0    0 -0.51405589410E-01  0.10937066727E+00 -0.70812064100E-01  0.89107734002E+00  0.88000000000E+00 0.  1.
        -11    1    4    4    0    0  0.25609859339E-01 -0.52841111889E-01  0.35099065586E-01  0.68412378464E-01  0.51100000000E-03 0. -1.
         11    1    4    4    0    0  0.37351689485E-01 -0.44062643363E-01  0.19552341795E-01  0.60985411683E-01  0.51100000000E-03 0.  1.
</event>
<event>
 8    1  0.1109553E+005  0.1043930E+01  0.7957747E-01            NaN
         13   -1    0    0    0    0  0.00000000000E+00  0.00000000000E+00  0.74505805969E-08  0.10566000000E+00  0.10566000000E+00 0.  1.
     999900   -1    0    0    0    0 -0.00000000000E+00 -0.00000000000E+00 -0.74505805969E-08  0.93827000000E+00  0.93827000000E+00 0.  1.
     999902    2    1    2    0    0  0.18412544751E-01 -0.11496460709E-01 -0.93577115797E-02  0.10202919548E+01  0.10200180959E+01 0.  0.
     999903    2    3    3    0    0 -0.39245304529E-02 -0.94044585069E-01 -0.91082659593E-01  0.13237748548E+00  0.19182332080E-01 0.  0.
         14    1    1    2    0    0 -0.18412544751E-01  0.11496460709E-01  0.93577115797E-02  0.23638045162E-01  0.00000000000E+00 0.  1.
     999901    1    3    3    0    0  0.22337075204E-01  0.82548124360E-01  0.81724948013E-01  0.88791446936E+00  0.88000000000E+00 0. -1.
        -11    1    4    4    0    0  0.36839357175E-02 -0.54825162509E-01 -0.62678219675E-01  0.83355804652E-01  0.51100000000E-03 0.  1.
         11    1    4    4    0    0 -0.76084661703E-02 -0.39219422560E-01 -0.28404439918E-01  0.49021680831E-01  0.51100000000E-03 0. -1.
</event>
<event>
 8    1  0.1109553E+005  0.1043930E+01  0.7957747E-01            NaN
         13   -1    0    0    0    0  0.00000000000E+00  0.00000000000E+00  0.74505805969E-08  0.10566000000E+00  0.10566000000E+00 0. -1.
     999900   -1    0    0    0    0 -0.00000000000E+00 -0.00000000000E+00 -0.74505805969E-08  0.93827000000E+00  0.93827000000E+00 0. -1.
     999902    2    1    2    0    0 -0.46989601362E-02  0.15399174983E-01 -0.17438461646E-01  0.10201957471E+01  0.10199196280E+01 0.  0.
     999903    2    3    3    0    0  0.25433861849E-01  0.66775840813E-01  0.10615940100E+00  0.12956452127E+00  0.20279361612E-01 0.  0.
         14    1    1    2    0    0  0.46989601362E-02 -0.15399174983E-01  0.17438461646E-01  0.23734252908E-01  0.00000000000E+00 0.  1.
     999901    1    3    3    0    0 -0.30132821986E-01 -0.51376665830E-01 -0.12359786265E+00  0.89063122582E+00  0.88000000000E+00 0. -1.
        -11    1    4    4    0    0  0.15210522875E-01  0.39372544548E-01  0.79378878172E-01  0.89904530982E-01  0.51100000000E-03 0.  1.
         11    1    4    4    0    0  0.10223338975E-01  0.27403296265E-01  0.26780522828E-01  0.39659990292E-01  0.51100000000E-03 0. -1.
</event>
<event>
 8    1  0.1109553E+005  0.1043930E+01  0.7957747E-01            NaN
         13   -1    0    0    0    0  0.00000000000E+00  0.00000000000E+00  0.74505805969E-08  0.10566000000E+00  0.10566000000E+00 0. -1.
     999900   -1    0    0    0    0 -0.00000000000E+00 -0.00000000000E+00 -0.74505805969E-08  0.93827000000E+00  0.93827000000E+00 0. -1.
     999902    2    1    2    0    0 -0.46945991145E-02 -0.18853610410E-01 -0.13688677975E-01  0.10201628422E+01  0.10198859479E+01 0.  0.
     999903    2    3    3    0    0  0.19078930396E-01  0.72852602730E-01  0.10113736491E+00  0.12766061229E+00  0.19923805844E-01 0.  0.
         14    1    1    2    0    0  0.46945991145E-02  0.18853610410E-01  0.13688677975E-01  0.23767157824E-01  0.00000000000E+00 0. -1.
     999901    1    3    3    0    0 -0.23773529511E-01 -0.91706213140E-01 -0.11482604288E+00  0.89250222989E+00  0.88000000000E+00 0. -1.
        -11    1    4    4    0    0  0.82459828919E-02  0.20577057980E-01  0.45134051594E-01  0.50286730688E-01  0.51100000000E-03 0.  1.
         11    1    4    4    0    0  0.10832947504E-01  0.52275544750E-01  0.56003313313E-01  0.77373881599E-01  0.51100000000E-03 0. -1.
</event>
<event>
 8    1  0.1109553E+005  0.1043930E+01  0.7957747E-01            NaN
         13   -1    0    0    0    0  0.00000000000E+00  0.00000000000E+00  0.74505805969E-08  0.10566000000E+00  0.10566000000E+00 0. -1.
     999900   -1    0    0    0    0 -0.00000000000E+00 -0.00000000000E+00 -0.74505805969E-08  0.93827000000E+00  0.93827000000E+00 0. -1.
     999902    2    1    2    0    0 -0.63936173474E-03 -0.23338206211E-01 -0.20453109037E-02  0.10204936191E+01  0.10202244668E+01 0.  0.
     999903    2    3    3    0    0  0.12993678721E-02 -0.13121563191E+00  0.13595612562E-01  0.13376596299E+00  0.22119262154E-01 0.  0.
         14    1    1    2    0    0  0.63936173474E-03  0.23338206211E-01  0.20453109037E-02  0.23436380891E-01  0.00000000000E+00 0. -1.
     999901    1    3    3    0    0 -0.19387296068E-02  0.10787742570E+00 -0.15640923465E-01  0.88672765612E+00  0.88000000000E+00 0. -1.
        -11    1    4    4    0    0  0.11348596474E-01 -0.58099350812E-01  0.81817409850E-02  0.59762255758E-01  0.51100000000E-03 0.  1.
         11    1    4    4    0    0 -0.10049228601E-01 -0.73116281097E-01  0.54138715768E-02  0.74003707228E-01  0.51100000000E-03 0. -1.
</event>
<event>
 8    1  0.1109553E+005  0.1043930E+01  0.7957747E-01            NaN
         13   -1    0    0    0    0  0.00000000000E+00  0.00000000000E+00  0.74505805969E-08  0.10566000000E+00  0.10566000000E+00 0. -1.
     999900   -1    0    0    0    0 -0.00000000000E+00 -0.00000000000E+00 -0.74505805969E-08  0.93827000000E+00  0.93827000000E+00 0.  1.
     999902    2    1    2    0    0 -0.28989112970E-03  0.23796147488E-01  0.42624440051E-02  0.10197533770E+01  0.10194667433E+01 0.  0.
     999903    2    3    3    0    0 -0.10698617684E+00  0.71519762616E-01 -0.20914672143E-01  0.13166806125E+00  0.18383045523E-01 0.  0.
         14    1    1    2    0    0  0.28989112970E-03 -0.23796147488E-01 -0.42624440051E-02  0.24176623028E-01  0.00000000000E+00 0.  1.
     999901    1    3    3    0    0  0.10669628571E+00 -0.47723615128E-01  0.25177116148E-01  0.88808531572E+00  0.88000000000E+00 0.  1.
        -11    1    4    4    0    0 -0.84825252989E-01  0.47141759662E-01 -0.15381142808E-01  0.98257364730E-01  0.51100000000E-03 0. -1.
         11    1    4    4    0    0 -0.22160923851E-01  0.24378002954E-01 -0.55335293353E-02  0.33410696519E-01  0.51100000000E-03 0.  1.
</event>
<event>
 8    1  0.1109553E+005  0.1043930E+01  0.7957747E-01            NaN
         13   -1    0    0    0    0  0.00000000000E+00  0.00000000000E+00  0.74505805969E-08  0.10566000000E+00  0.10566000000E+00 0.  1.
     999900   -1    0    0    0    0 -0.00000000000E+00 -0.00000000000E+00 -0.74505805969E-08  0.93827000000E+00  0.93827000000E+00 0. -1.
     999902    2    1    2    0    0 -0.81864625553E-02 -0.80815358037E-02 -0.20045871021E-01  0.10208179613E+01  0.10205562913E+01 0.  0.
     999903    2    3    3    0    0  0.12214795552E+00 -0.18358073315E-01 -0.38942915921E-01  0.13095855322E+00  0.19402321215E-01 0.  0.
         14    1    1    2    0    0  0.81864625553E-02  0.80815358037E-02  0.20045871021E-01  0.23112038748E-01  0.00000000000E+00 0.  1.
     999901    1    3    3    0    0 -0.13033441807E+00  0.10276537511E-01  0.18897044900E-01  0.88985940803E+00  0.88000000000E+00 0. -1.
        -11    1    4    4    0    0  0.10778279542E+00 -0.22420764550E-01 -0.34696930388E-01  0.11542945799E+00  0.51100000000E-03 0. -1.
         11    1    4    4    0    0  0.14365160093E-01  0.40626912349E-02 -0.42459855328E-02  0.15529095232E-01  0.51100000000E-03 0.  1.
</event>
<event>
 8    1  0.1109553E+005  0.1043930E+01  0.7957747E-01            NaN
         13   -1    0    0    0    0  0.00000000000E+00  0.00000000000E+00  0.74505805969E-08  0.10566000000E+00  0.10566000000E+00 0. -1.
     999900   -1    0    0    0    0 -0.00000000000E+00 -0.00000000000E+00 -0.74505805969E-08  0.93827000000E+00  0.93827000000E+00 0.  1.
     999902    2    1    2    0    0 -0.29224683976E-01  0.33969645735E-02  0.25304451706E-02  0.10143999361E+01  0.10139700221E+01 0.  0.
     999903    2    3    3    0    0  0.11194002581E+00 -0.18344257666E-01 -0.39310884743E-01  0.12190295967E+00  0.21163760301E-01 0.  0.
         14    1    1    2    0    0  0.29224683976E-01 -0.33969645735E-02 -0.25304451706E-02  0.29530063910E-01  0.00000000000E+00 0. -1.
     999901    1    3    3    0    0 -0.14116470978E+00  0.21741222240E-01  0.41841329913E-01  0.89249697642E+00  0.88000000000E+00 0. -1.
        -11    1    4    4    0    0  0.59796466215E-01 -0.61006440386E-02 -0.31213591749E-01  0.67730234463E-01  0.51100000000E-03 0.  1.
         11    1    4    4    0    0  0.52143559590E-01 -0.12243613628E-01 -0.80972929940E-02  0.54172725206E-01  0.51100000000E-03 0. -1.
</event>
<event>
 8    1  0.1109553E+005  0.1043930E+01  0.7957747E-01            NaN
         13   -1    0    0    0    0  0.00000000000E+00  0.00000000000E+00  0.74505805969E-08  0.10566000000E+00  0.10566000000E+00 0.  1.
     999900   -1    0    0    0    0 -0.00000000000E+00 -0.00000000000E+00 -0.74505805969E-08  0.93827000000E+00  0.93827000000E+00 0.  1.
     999902    2    1    2    0    0 -0.22475993450E-01  0.59361266747E-04  0.98996729767E-02  0.10193703312E+01  0.10190744305E+01 0.  0.
     999903    2    3    3    0    0  0.72336537003E-01  0.91096978790E-01  0.51193923498E-01  0.12865012888E+00  0.19970070804E-01 0.  0.
         14    1    1    2    0    0  0.22475993450E-01 -0.59361266747E-04 -0.98996729767E-02  0.24559668776E-01  0.00000000000E+00 0. -1.
     999901    1    3    3    0    0 -0.94812530453E-01 -0.91037617523E-01 -0.41294250521E-01  0.89072020234E+00  0.88000000000E+00 0. -1.
        -11    1    4    4    0    0  0.10370401676E-01  0.26068129854E-01  0.95558565558E-02  0.29642336961E-01  0.51100000000E-03 0.  1.
         11    1    4    4    0    0  0.61966135327E-01  0.65028848936E-01  0.41638066942E-01  0.99007791920E-01  0.51100000000E-03 0. -1.
</event>
<event>
 8    1  0.1109553E+005  0.1043930E+01  0.7957747E-01            NaN
         13   -1    0    0    0    0  0.00000000000E+00  0.00000000000E+00  0.74505805969E-08  0.10566000000E+00  0.10566000000E+00 0.  1.
     999900   -1    0    0    0    0 -0.00000000000E+00 -0.00000000000E+00 -0.74505805969E-08  0.93827000000E+00  0.93827000000E+00 0. -1.
     999902    2    1    2    0    0  0.85920184149E-02  0.32129354746E-02 -0.23725271267E-01  0.10184931324E+01  0.10181754400E+01 0.  0.
     999903    2    3    3    0    0 -0.10830475522E+00 -0.22313033761E-01  0.58333708235E-01  0.12661303572E+00  0.20006194514E-01 0.  0.
         14    1    1    2    0    0 -0.85920184149E-02 -0.32129354746E-02  0.23725271267E-01  0.25436867564E-01  0.00000000000E+00 0.  1.
     999901    1    3    3    0    0  0.11689677364E+00  0.25525969235E-01 -0.82058979502E-01  0.89188009671E+00  0.88000000000E+00 0. -1.
        -11    1    4    4    0    0 -0.55172384231E-01 -0.23253926721E-02  0.33974839790E-01  0.64837876990E-01  0.51100000000E-03 0.  1.
         11    1    4    4    0    0 -0.53132370994E-01 -0.19987641089E-01  0.24358868445E-01  0.61775158734E-01  0.51100000000E-03 0. -1.
</event>
<event>
 8    1  0.1109553E+005  0.1043930E+01  0.7957747E-01            NaN
         13   -1    0    0    0    0  0.00000000000E+00  0.00000000000E+00  0.74505805969E-08  0.10566000000E+00  0.10566000000E+00 0.  1.
     999900   -1    0    0    0    0 -0.00000000000E+00 -0.00000000000E+00 -0.74505805969E-08  0.93827000000E+00  0.93827000000E+00 0. -1.
     999902    2    1    2    0    0 -0.18413182438E-01  0.72427311919E-02 -0.12674120176E-01  0.10204324307E+01  0.10201618547E+01 0.  0.
     999903    2    3    3    0    0  0.58702744440E-01  0.83183980096E-01 -0.80687437722E-01  0.13119694395E+00  0.18346355118E-01 0.  0.
         14    1    1    2    0    0  0.18413182438E-01 -0.72427311919E-02  0.12674120176E-01  0.23497569339E-01  0.00000000000E+00 0.  1.
     999901    1    3    3    0    0 -0.77115926878E-01 -0.75941248904E-01  0.68013317547E-01  0.88923548671E+00  0.88000000000E+00 0.  1.
        -11    1    4    4    0    0  0.55223733943E-01  0.70652444165E-01 -0.64689131777E-01  0.11057293316E+00  0.51100000000E-03 0.  1.
         11    1    4    4    0    0  0.34790104973E-02  0.12531535931E-01 -0.15998305945E-01  0.20624010787E-01  0.51100000000E-03 0. -1.
</event>
<event>
 8    1  0.1109553E+005  0.1043930E+01  0.7957747E-01            NaN
         13   -1    0    0    0    0  0.00000000000E+00  0.00000000000E+00  0.74505805969E-08  0.10566000000E+00  0.10566000000E+00 0. -1.
     999900   -1    0    0    0    0 -0.00000000000E+00 -0.00000000000E+00 -0.74505805969E-08  0.93827000000E+00  0.93827000000E+00 0. -1.
     999902    2    1    2    0    0 -0.15168171566E-01 -0.12174369553E-01  0.13309127686E-01  0.10203626161E+01  0.10200904111E+01 0.  0.
     999903    2    3    3    0    0 -0.20412084458E-02 -0.64771765123E-01 -0.11086435141E+00  0.12999311076E+00  0.20192977556E-01 0.  0.
         14    1    1    2    0    0  0.15168171566E-01  0.12174369553E-01 -0.13309127686E-01  0.23567383869E-01  0.00000000000E+00 0. -1.
     999901    1    3    3    0    0 -0.13126963120E-01  0.52597395571E-01  0.12417347910E+00  0.89036950537E+00  0.88000000000E+00 0.  1.
        -11    1    4    4    0    0 -0.99951567202E-02 -0.21981005085E-01 -0.44413021311E-01  0.50555368907E-01  0.51100000000E-03 0. -1.
         11    1    4    4    0    0  0.79539482744E-02 -0.42790760038E-01 -0.66451330100E-01  0.79437741854E-01  0.51100000000E-03 0.  1.
</event>
<event>
 8    1  0.1109553E+005  0.1043930E+01  0.7957747E-01            NaN
         13   -1    0    0    0    0  0.00000000000E+00  0.00000000000E+00  0.74505805969E-08  0.10566000000E+00  0.10566000000E+00 0. -1.
     999900   -1    0    0    0    0 -0.00000000000E+00 -0.00000000000E+00 -0.74505805969E-08  0.93827000000E+00  0.93827000000E+00 0. -1.
     999902    2    1    2    0    0  0.20852991538E-01 -0.89750252342E-02 -0.26299550380E-02  0.10210757882E+01  0.10208199891E+01 0.  0.
     999903    2    3    3    0    0 -0.59670327268E-01 -0.82588575159E-01  0.79123747359E-01  0.13057782218E+00  0.20213350712E-01 0.  0.
         14    1    1    2    0    0 -0.20852991538E-01  0.89750252342E-02  0.26299550380E-02  0.22854211812E-01  0.00000000000E+00 0.  1.
     999901    1    3    3    0    0  0.80523318806E-01  0.73613549924E-01 -0.81753702397E-01  0.89049796601E+00  0.88000000000E+00 0. -1.
        -11    1    4    4    0    0 -0.33458109867E-01 -0.60038368447E-01  0.58894015423E-01  0.90514181073E-01  0.51100000000E-03 0.  1.
         11    1    4    4    0    0 -0.26212217401E-01 -0.22550206711E-01  0.20229731936E-01  0.40063641111E-01  0.51100000000E-03 0. -1.
</event>
<event>
 8    1  0.1109553E+005  0.1043930E+01  0.7957747E-01            NaN
         13   -1    0    0    0    0  0.00000000000E+00  0.00000000000E+00  0.74505805969E-08  0.10566000000E+00  0.10566000000E+00 0.  1.
     999900   -1    0    0    0    0 -0.00000000000E+00 -0.00000000000E+00 -0.74505805969E-08  0.93827000000E+00  0.93827000000E+00 0.  1.
     999902    2    1    2    0    0  0.46892125268E-02  0.13404913528E-01  0.19415352181E-01  0.10198751393E+01  0.10195914199E+01 0.  0.
     999903    2    3    3    0    0 -0.38604198391E-02  0.10773856482E+00  0.75440019411E-01  0.13302075597E+00  0.19514707220E-01 0.  0.
         14    1    1    2    0    0 -0.46892125268E-02 -0.13404913528E-01 -0.19415352181E-01  0.24054860655E-01  0.00000000000E+00 0. -1.
     999901    1    3    3    0    0  0.85496323659E-02 -0.94333651294E-01 -0.56024667230E-01  0.88685438338E+00  0.88000000000E+00 0.  1.
        -11    1    4    4    0    0 -0.46777990957E-02  0.81953500166E-01  0.46883729042E-01  0.94533608646E-01  0.51100000000E-03 0.  1.
         11    1    4    4    0    0  0.81737925666E-03  0.25785064655E-01  0.28556290370E-01  0.38487147320E-01  0.51100000000E-03 0. -1.
</event>
<event>
 8    1  0.1109553E+005  0.1043930E+01  0.7957747E-01            NaN
         13   -1    0    0    0    0  0.00000000000E+00  0.00000000000E+00  0.74505805969E-08  0.10566000000E+00  0.10566000000E+00 0.  1.
     999900   -1    0    0    0    0 -0.00000000000E+00 -0.00000000000E+00 -0.74505805969E-08  0.93827000000E+00  0.93827000000E+00 0.  1.
     999902    2    1    2    0    0  0.16602643531E-01  0.83566429306E-02 -0.14145236357E-01  0.10205725822E+01  0.10203052615E+01 0.  0.
     999903    2    3    3    0    0 -0.52641885508E-01  0.99533585493E-01 -0.64697336814E-01  0.13171738901E+00  0.22036842453E-01 0.  0.
         14    1    1    2    0    0 -0.16602643531E-01 -0.83566429306E-02  0.14145236357E-01  0.23357417770E-01  0.00000000000E+00 0.  1.
     999901    1    3    3    0    0  0.69244529040E-01 -0.91176942562E-01  0.50552100457E-01  0.88885519322E+00  0.88000000000E+00 0.  1.
        -11    1    4    4    0    0 -0.33839870296E-01  0.41204897400E-01 -0.33170455878E-01  0.62797457397E-01  0.51100000000E-03 0.  1.
         11    1    4    4    0    0 -0.18802015212E-01  0.58328688093E-01 -0.31526880936E-01  0.68919931611E-01  0.51100000000E-03 0. -1.
</event>
<event>
 8    1  0.1109553E+005  0.1043930E+01  0.7957747E-01            NaN
         13   -1    0    0    0    0  0.00000000000E+00  0.00000000000E+00  0.74505805969E-08  0.10566000000E+00  0.10566000000E+00 0.  1.
     999900   -1    0    0    0    0 -0.00000000000E+00 -0.00000000000E+00 -0.74505805969E-08  0.93827000000E+00  0.93827000000E+00 0.  1.
     999902    2    1    2    0    0  0.20202263567E-01 -0.10688355536E-01  0.72776214607E-02  0.10199438337E+01  0.10196617517E+01 0.  0.
     999903    2    3    3    0    0 -0.70810363200E-01 -0.34723743125E-01 -0.99567737412E-01  0.12849729649E+00  0.19441579091E-01 0.  0.
         14    1    1    2    0    0 -0.20202263567E-01  0.10688355536E-01 -0.72776214607E-02  0.23986166251E-01  0.00000000000E+00 0.  1.
     999901    1    3    3    0    0  0.91012626766E-01  0.24035387590E-01  0.10684535887E+00  0.89144653726E+00  0.88000000000E+00 0. -1.
        -11    1    4    4    0    0 -0.29028859817E-01 -0.22275891133E-01 -0.35368293981E-01  0.50892704469E-01  0.51100000000E-03 0. -1.
         11    1    4    4    0    0 -0.41781503383E-01 -0.12447851992E-01 -0.64199443431E-01  0.77604592016E-01  0.51100000000E-03 0.  1.
</event>
<event>
 8    1  0.1109553E+005  0.1043930E+01  0.7957747E-01            NaN
         13   -1    0    0    0    0  0.00000000000E+00  0.00000000000E+00  0.74505805969E-08  0.10566000000E+00  0.10566000000E+00 0. -1.
     999900   -1    0    0    0    0 -0.00000000000E+00 -0.00000000000E+00 -0.74505805969E-08  0.93827000000E+00  0.93827000000E+00 0.  1.
     999902    2    1    2    0    0 -0.22580225227E-01 -0.64273829787E-02 -0.10890829221E-01  0.10180497376E+01  0.10177207280E+01 0.  0.
     999903    2    3    3    0    0 -0.11039643279E+00  0.86381255938E-02  0.65700283309E-01  0.13024071846E+00  0.19599181927E-01 0.  0.
         14    1    1    2    0    0  0.22580225227E-01  0.64273829787E-02  0.10890829221E-01  0.25880262448E-01  0.00000000000E+00 0. -1.
     999901    1    3    3    0    0  0.87816207563E-01 -0.15065508572E-01 -0.76591112531E-01  0.88780901909E+00  0.88000000000E+00 0.  1.
        -11    1    4    4    0    0 -0.57593827593E-01  0.14288275331E-01  0.35371926166E-01  0.69084282369E-01  0.51100000000E-03 0. -1.
         11    1    4    4    0    0 -0.52802605197E-01 -0.56501497377E-02  0.30328357143E-01  0.61156436093E-01  0.51100000000E-03 0.  1.
</event>
<event>
 8    1  0.1109553E+005  0.1043930E+01  0.7957747E-01            NaN
         13   -1    0    0    0    0  0.00000000000E+00  0.00000000000E+00  0.74505805969E-08  0.10566000000E+00  0.10566000000E+00 0.  1.
     999900   -1    0    0    0    0 -0.00000000000E+00 -0.00000000000E+00 -0.74505805969E-08  0.93827000000E+00  0.93827000000E+00 0.  1.
     999902    2    1    2    0    0 -0.14618603299E-01  0.12463385067E-01 -0.14289782896E-01  0.10199876228E+01  0.10197065820E+01 0.  0.
     999903    2    3    3    0    0  0.89213784926E-01  0.66936915298E-01 -0.65201727979E-01  0.13075168310E+00  0.20126779465E-01 0.  0.
         14    1    1    2    0    0  0.14618603299E-01 -0.12463385067E-01  0.14289782896E-01  0.23942377179E-01  0.00000000000E+00 0.  1.
     999901    1    3    3    0    0 -0.10383238822E+00 -0.54473530232E-01  0.50911945082E-01  0.88923593972E+00  0.88000000000E+00 0. -1.
        -11    1    4    4    0    0  0.48144673628E-02  0.93726838504E-03 -0.77286270451E-02  0.91678986150E-02  0.51100000000E-03 0.  1.
         11    1    4    4    0    0  0.84399317563E-01  0.65999646913E-01 -0.57473100934E-01  0.12158378448E+00  0.51100000000E-03 0. -1.
</event>
<event>
 8    1  0.1109553E+005  0.1043930E+01  0.7957747E-01            NaN
         13   -1    0    0    0    0  0.00000000000E+00  0.00000000000E+00  0.74505805969E-08  0.10566000000E+00  0.10566000000E+00 0.  1.
     999900   -1    0    0    0    0 -0.00000000000E+00 -0.00000000000E+00 -0.74505805969E-08  0.93827000000E+00  0.93827000000E+00 0.  1.
     999902    2    1    2    0    0 -0.24488208616E-02  0.20959756291E-01 -0.10954922837E-01  0.10201535738E+01  0.10198764610E+01 0.  0.
     999903    2    3    3    0    0 -0.37294156866E-01 -0.12064661997E+00 -0.87218146597E-02  0.12814934176E+00  0.19993066233E-01 0.  0.
         14    1    1    2    0    0  0.24488208616E-02 -0.20959756291E-01  0.10954922837E-01  0.23776426177E-01  0.00000000000E+00 0.  1.
     999901    1    3    3    0    0  0.34845336004E-01  0.14160637626E+00 -0.22331081772E-02  0.89200423206E+00  0.88000000000E+00 0.  1.
        -11    1    4    4    0    0 -0.14962876153E-01 -0.57711812712E-01  0.54840534342E-02  0.59873841971E-01  0.51100000000E-03 0.  1.
         11    1    4    4    0    0 -0.22331280713E-01 -0.62934807257E-01 -0.14205868094E-01  0.68275499793E-01  0.51100000000E-03 0. -1.
</event>
<event>
 8    1  0.1109553E+005  0.1043930E+01  0.7957747E-01            NaN
         13   -1    0    0    0    0  0.00000000000E+00  0.00000000000E+00  0.74505805969E-08  0.10566000000E+00  0.10566000000E+00 0. -1.
     999900   -1    0    0    0    0 -0.00000000000E+00 -0.00000000000E+00 -0.74505805969E-08  0.93827000000E+00  0.93827000000E+00 0. -1.
     999902    2    1    2    0    0  0.73378329349E-02 -0.11123495243E-02 -0.22847693569E-01  0.10199071314E+01  0.10196241751E+01 0.  0.
     999903    2    3    3    0    0 -0.99951600334E-01  0.79239028953E-01 -0.93598564410E-02  0.12965475806E+00  0.21297963664E-01 0.  0.
         14    1    1    2    0    0 -0.73378329349E-02  0.11123495243E-02  0.22847693569E-01  0.24022868585E-01  0.00000000000E+00 0. -1.
     999901    1    3    3    0    0  0.10728943327E+00 -0.80351378477E-01 -0.13487837128E-01  0.89025237336E+00  0.88000000000E+00 0.  1.
        -11    1    4    4    0    0 -0.90086664390E-01  0.77552957785E-01 -0.57730569710E-02  0.11901116616E+00  0.51100000000E-03 0. -1.
         11    1    4    4    0    0 -0.98649359445E-02  0.16860711675E-02 -0.35867994701E-02  0.10643591904E-01  0.51100000000E-03 0.  1.
</event>
<event>
 8    1  0.1109553E+005  0.1043930E+01  0.7957747E-01            NaN
         13   -1    0    0    0    0  0.00000000000E+00  0.00000000000E+00  0.74505805969E-08  0.10566000000E+00  0.10566000000E+00 0.  1.
     999900   -1    0    0    0    0 -0.00000000000E+00 -0.00000000000E+00 -0.74505805969E-08  0.93827000000E+00  0.93827000000E+00 0.  1.
     999902    2    1    2    0    0 -0.18572670302E-01 -0.74683203961E-02  0.13779056188E-01  0.10196281013E+01  0.10193384534E+01 0.  0.
     999903    2    3    3    0    0 -0.38552189035E-03  0.12646805924E+00  0.18129950590E-01  0.12929745684E+00  0.19870042793E-01 0.  0.
         14    1    1    2    0    0  0.18572670302E-01  0.74683203961E-02 -0.13779056188E-01  0.24301898714E-01  0.00000000000E+00 0. -1.
     999901    1    3    3    0    0 -0.18187148412E-01 -0.13393637964E+00 -0.43508944020E-02  0.89033064445E+00  0.88000000000E+00 0.  1.
        -11    1    4    4    0    0 -0.86281517721E-02  0.50880945657E-01  0.12183081710E-01  0.53028334265E-01  0.51100000000E-03 0. -1.
         11    1    4    4    0    0  0.82426298818E-02  0.75587113587E-01  0.59468688807E-02  0.76269122574E-01  0.51100000000E-03 0.  1.
</event>
<event>
 8    1  0.1109553E+005  0.1043930E+01  0.7957747E-01            NaN
         13   -1    0    0    0    0  0.00000000000E+00  0.00000000000E+00  0.74505805969E-08  0.10566000000E+00  0.10566000000E+00 0.  1.
     999900   -1    0    0    0    0 -0.00000000000E+00 -0.00000000000E+00 -0.74505805969E-08  0.93827000000E+00  0.93827000000E+00 0.  1.
     999902    2    1    2    0    0 -0.90195071143E-02 -0.25448785163E-01  0.42892177777E-02  0.10165915735E+01  0.10162239112E+01 0.  0.
     999903    2    3    3    0    0  0.96327782779E-01  0.39159821784E-01 -0.67616558761E-01  0.12505202626E+00  0.15920957108E-01 0.  0.
         14    1    1    2    0    0  0.90195071143E-02  0.25448785163E-01 -0.42892177777E-02  0.27338426510E-01  0.00000000000E+00 0.  1.
     999901    1    3    3    0    0 -0.10534728989E+00 -0.64608606948E-01  0.71905776538E-01  0.89153954723E+00  0.88000000000E+00 0. -1.
        -11    1    4    4    0    0  0.44229130456E-01  0.22848063117E-01 -0.40036873019E-01  0.63886323194E-01  0.51100000000E-03 0. -1.
         11    1    4    4    0    0  0.52098652323E-01  0.16311758667E-01 -0.27579685742E-01  0.61165703064E-01  0.51100000000E-03 0.  1.
</event>
<event>
 8    1  0.1109553E+005  0.1043930E+01  0.7957747E-01            NaN
         13   -1    0    0    0    0  0.00000000000E+00  0.00000000000E+00  0.74505805969E-08  0.10566000000E+00  0.10566000000E+00 0.  1.
     999900   -1    0    0    0    0 -0.00000000000E+00 -0.00000000000E+00 -0.74505805969E-08  0.93827000000E+00  0.93827000000E+00 0. -1.
     999902    2    1    2    0    0  0.22634629038E-01 -0.18745523213E-02 -0.16324717061E-02  0.10211592876E+01  0.10209053753E+01 0.  0.
     999903    2    3    3    0    0  0.10459832605E+00  0.66732516185E-01 -0.44844033081E-01  0.13363902503E+00  0.21315796478E-01 0.  0.
         14    1    1    2    0    0 -0.22634629038E-01  0.18745523213E-02  0.16324717061E-02  0.22770712372E-01  0.00000000000E+00 0.  1.
     999901    1    3    3    0    0 -0.81963697016E-01 -0.68607068507E-01  0.43211561375E-01  0.88752026259E+00  0.88000000000E+00 0. -1.
        -11    1    4    4    0    0  0.14734184937E-01  0.16855259373E-01 -0.13670618907E-01  0.26236290069E-01  0.51100000000E-03 0.  1.
         11    1    4    4    0    0  0.89864141117E-01  0.49877256813E-01 -0.31173414175E-01  0.10740273497E+00  0.51100000000E-03 0. -1.
</event>
<event>
 8    1  0.1109553E+005  0.1043930E+01  0.7957747E-01            NaN
         13   -1    0    0    0    0  0.00000000000E+00  0.00000000000E+00  0.74505805969E-08  0.10566000000E+00  0.10566000000E+00 0.  1.
     999900   -1    0    0    0    0 -0.00000000000E+00 -0.00000000000E+00 -0.74505805969E-08  0.93827000000E+00  0.93827000000E+00 0.  1.
     999902    2    1    2    0    0  0.50998579228E-02 -0.21315056265E-01  0.11555033970E-01  0.10191538222E+01  0.10188526166E+01 0.  0.
     999903    2    3    3    0    0 -0.59091514949E-01  0.43594074655E-01 -0.10192683457E+00  0.12718304799E+00  0.19854410241E-01 0.  0.
         14    1    1    2    0    0 -0.50998579228E-02  0.21315056265E-01 -0.11555033970E-01  0.24776177761E-01  0.00000000000E+00 0. -1.
     999901    1    3    3    0    0  0.64191372872E-01 -0.64909130920E-01  0.11348186854E+00  0.89197077425E+00  0.88000000000E+00 0. -1.
        -11    1    4    4    0    0 -0.38585627896E-01  0.38508509347E-01 -0.67214863921E-01  0.86543948519E-01  0.51100000000E-03 0.  1.
         11    1    4    4    0    0 -0.20505887053E-01  0.50855653078E-02 -0.34711970651E-01  0.40639099471E-01  0.51100000000E-03 0. -1.
</event>
<event>
 8    1  0.1109553E+005  0.1043930E+01  0.7957747E-01            NaN
         13   -1    0    0    0    0  0.00000000000E+00  0.00000000000E+00  0.74505805969E-08  0.10566000000E+00  0.10566000000E+00 0.  1.
     999900   -1    0    0    0    0 -0.00000000000E+00 -0.00000000000E+00 -0.74505805969E-08  0.93827000000E+00  0.93827000000E+00 0. -1.
     999902    2    1    2    0    0 -0.50022546962E-02 -0.24456326151E-01  0.11498654463E-01  0.10164463049E+01  0.10160746711E+01 0.  0.
     999903    2    3    3    0    0  0.32484399504E-01 -0.35447838457E-03 -0.11943386867E+00  0.12564359167E+00  0.21598640644E-01 0.  0.
         14    1    1    2    0    0  0.50022546962E-02  0.24456326151E-01 -0.11498654463E-01  0.27483695081E-01  0.00000000000E+00 0.  1.
     999901    1    3    3    0    0 -0.37486654200E-01 -0.24101847767E-01  0.13093252313E+00  0.89080271324E+00  0.88000000000E+00 0.  1.
        -11    1    4    4    0    0  0.15752558215E-01  0.30273711812E-02 -0.25213060585E-01  0.29887582900E-01  0.51100000000E-03 0. -1.
         11    1    4    4    0    0  0.16731841290E-01 -0.33818495657E-02 -0.94220808084E-01  0.95756008774E-01  0.51100000000E-03 0.  1.
</event>
<event>
 8    1  0.1109553E+005  0.1043930E+01  0.7957747E-01            NaN
         13   -1    0    0    0    0  0.00000000000E+00  0.00000000000E+00  0.74505805969E-08  0.10566000000E+00  0.10566000000E+00 0.  1.
     999900   -1    0    0    0    0 -0.00000000000E+00 -0.00000000000E+00 -0.74505805969E-08  0.93827000000E+00  0.93827000000E+00 0. -1.
     999902    2    1    2    0    0 -0.17037578552E-01 -0.10956533528E-01  0.14078621203E-01  0.10192615528E+01  0.10189629929E+01 0.  0.
     999903    2    3    3    0    0  0.69268517591E-01  0.86009490112E-02  0.10768601139E+00  0.12988335385E+00  0.20032591084E-01 0.  0.
         14    1    1    2    0    0  0.17037578552E-01  0.10956533528E-01 -0.14078621203E-01  0.24668447151E-01  0.00000000000E+00 0. -1.
     999901    1    3    3    0    0 -0.86306096143E-01 -0.19557482539E-01 -0.93607390187E-01  0.88937819900E+00  0.88000000000E+00 0. -1.
        -11    1    4    4    0    0  0.74562864136E-02  0.61987648346E-02  0.23380705960E-01  0.25316781485E-01  0.51100000000E-03 0. -1.
         11    1    4    4    0    0  0.61812231178E-01  0.24021841766E-02  0.84305305430E-01  0.10456657237E+00  0.51100000000E-03 0.  1.
</event>
<event>
 8    1  0.1109553E+005  0.1043930E+01  0.7957747E-01            NaN
         13   -1    0    0    0    0  0.00000000000E+00  0.00000000000E+00  0.74505805969E-08  0.10566000000E+00  0.10566000000E+00 0.  1.
     999900   -1    0    0    0    0 -0.00000000000E+00 -0.00000000000E+00 -0.74505805969E-08  0.93827000000E+00  0.93827000000E+00 0.  1.
     999902    2    1    2    0    0 -0.17605515455E-01  0.16562713588E-01  0.24771933263E-02  0.10196315609E+01  0.10193419965E+01 0.  0.
     999903    2    3    3    0    0  0.47883092890E-01  0.15820229597E-01  0.11788336597E+00  0.12968330747E+00  0.19447416666E-01 0.  0.
         14    1    1    2    0    0  0.17605515455E-01 -0.16562713588E-01 -0.24771933263E-02  0.24298439098E-01  0.00000000000E+00 0. -1.
     999901    1    3    3    0    0 -0.65488608345E-01  0.74248399138E-03 -0.11540617264E+00  0.88994825343E+00  0.88000000000E+00 0. -1.
        -11    1    4    4    0    0  0.43083370216E-01  0.12492873297E-01  0.83350165078E-01  0.94656007796E-01  0.51100000000E-03 0.  1.
         11    1    4    4    0    0  0.47997226747E-02  0.33273562999E-02  0.34533200889E-01  0.35027299672E-01  0.51100000000E-03 0. -1.
</event>
