<event>
 8    1  0.1076043E+005  0.1043930E+01  0.7957747E-01            NaN
         13   -1    0    0    0    0  0.00000000000E+00  0.00000000000E+00  0.74505805969E-08  0.10566000000E+00  0.10566000000E+00 0. -1.
     999900   -1    0    0    0    0 -0.00000000000E+00 -0.00000000000E+00 -0.74505805969E-08  0.93827000000E+00  0.93827000000E+00 0. -1.
     999902    2    1    2    0    0 -0.34910884962E-02 -0.23303008922E-01  0.40931669252E-02  0.10200140652E+01  0.10197336521E+01 0.  0.
     999903    2    3    3    0    0  0.52545552938E-01 -0.10502430171E+00 -0.57814762827E-01  0.13229166112E+00  0.19167621578E-01 0.  0.
         14    1    1    2    0    0  0.34910884962E-02  0.23303008922E-01 -0.40931669252E-02  0.23915934838E-01  0.00000000000E+00 0. -1.
     999901    1    3    3    0    0 -0.56036641434E-01  0.81721292788E-01  0.61907929752E-01  0.88772240405E+00  0.88000000000E+00 0. -1.
        -11    1    4    4    0    0  0.42905493845E-01 -0.80540666789E-01 -0.35976834770E-01  0.98093191251E-01  0.51100000000E-03 0.  1.
         11    1    4    4    0    0  0.96400590933E-02 -0.24483634921E-01 -0.21837928057E-01  0.34198469865E-01  0.51100000000E-03 0. -1.
</event>
<event>
 8    1  0.1076043E+005  0.1043930E+01  0.7957747E-01            NaN
         13   -1    0    0    0    0  0.00000000000E+00  0.00000000000E+00  0.74505805969E-08  0.10566000000E+00  0.10566000000E+00 0.  1.
     999900   -1    0    0    0    0 -0.00000000000E+00 -0.00000000000E+00 -0.74505805969E-08  0.93827000000E+00  0.93827000000E+00 0. -1.
     999902    2    1    2    0    0  0.15264012501E-01  0.17057268898E-01  0.79395349672E-02  0.10197023977E+01  0.10194145394E+01 0.  0.
     999903    2    3    3    0    0 -0.77441454291E-01  0.10161124195E+00  0.21509364797E-01  0.13069856290E+00  0.17246397756E-01 0.  0.
         14    1    1    2    0    0 -0.15264012501E-01 -0.17057268898E-01 -0.79395349672E-02  0.24227602345E-01  0.00000000000E+00 0.  1.
     999901    1    3    3    0    0  0.92705466792E-01 -0.84553973055E-01 -0.13569829830E-01  0.88900383476E+00  0.88000000000E+00 0.  1.
        -11    1    4    4    0    0 -0.55606323746E-01  0.69345204056E-01  0.71557728761E-02  0.89175595162E-01  0.51100000000E-03 0.  1.
         11    1    4    4    0    0 -0.21835130544E-01  0.32266037897E-01  0.14353591921E-01  0.41522967735E-01  0.51100000000E-03 0. -1.
</event>
<event>
 8    1  0.1076043E+005  0.1043930E+01  0.7957747E-01            NaN
         13   -1    0    0    0    0  0.00000000000E+00  0.00000000000E+00  0.74505805969E-08  0.10566000000E+00  0.10566000000E+00 0. -1.
     999900   -1    0    0    0    0 -0.00000000000E+00 -0.00000000000E+00 -0.74505805969E-08  0.93827000000E+00  0.93827000000E+00 0. -1.
     999902    2    1    2    0    0  0.91148389743E-03  0.11070084806E-01  0.22815193040E-01  0.10185546061E+01  0.10182384667E+01 0.  0.
     999903    2    3    3    0    0 -0.11906033953E-01 -0.52954359410E-01 -0.11181626707E+00  0.12592419646E+00  0.20201679336E-01 0.  0.
         14    1    1    2    0    0 -0.91148389743E-03 -0.11070084806E-01 -0.22815193040E-01  0.25375393868E-01  0.00000000000E+00 0.  1.
     999901    1    3    3    0    0  0.12817517851E-01  0.64024444216E-01  0.13463146011E+00  0.89263040967E+00  0.88000000000E+00 0.  1.
        -11    1    4    4    0    0 -0.14059160860E-01 -0.29537125294E-01 -0.49680967807E-01  0.59485808879E-01  0.51100000000E-03 0.  1.
         11    1    4    4    0    0  0.21531269066E-02 -0.23417234116E-01 -0.62135299260E-01  0.66438387580E-01  0.51100000000E-03 0. -1.
</event>
<event>
 8    1  0.1076043E+005  0.1043930E+01  0.7957747E-01            NaN
         13   -1    0    0    0    0  0.00000000000E+00  0.00000000000E+00  0.74505805969E-08  0.10566000000E+00  0.10566000000E+00 0. -1.
     999900   -1    0    0    0    0 -0.00000000000E+00 -0.00000000000E+00 -0.74505805969E-08  0.93827000000E+00  0.93827000000E+00 0. -1.
     999902    2    1    2    0    0 -0.98979206314E-02  0.16708059303E-01 -0.13349804537E-01  0.10203642333E+01  0.10200920661E+01 0.  0.
     999903    2    3    3    0    0  0.71199967733E-01  0.10824584410E+00  0.11482431409E-01  0.13156016408E+00  0.19739107660E-01 0.  0.
         14    1    1    2    0    0  0.98979206314E-02 -0.16708059303E-01  0.13349804537E-01  0.23565766690E-01  0.00000000000E+00 0. -1.
     999901    1    3    3    0    0 -0.81097888364E-01 -0.91537784796E-01 -0.24832235945E-01  0.88880406923E+00  0.88000000000E+00 0. -1.
        -11    1    4    4    0    0  0.58247487547E-01  0.75837665581E-01  0.13615159417E-01  0.96590656967E-01  0.51100000000E-03 0.  1.
         11    1    4    4    0    0  0.12952480185E-01  0.32408178518E-01 -0.21327280081E-02  0.34969507111E-01  0.51100000000E-03 0. -1.
</event>
<event>
 8    1  0.1076043E+005  0.1043930E+01  0.7957747E-01            NaN
         13   -1    0    0    0    0  0.00000000000E+00  0.00000000000E+00  0.74505805969E-08  0.10566000000E+00  0.10566000000E+00 0.  1.
     999900   -1    0    0    0    0 -0.00000000000E+00 -0.00000000000E+00 -0.74505805969E-08  0.93827000000E+00  0.93827000000E+00 0. -1.
     999902    2    1    2    0    0  0.18658193969E-02  0.24342547681E-01 -0.10108715160E-01  0.10175060141E+01  0.10171628491E+01 0.  0.
     999903    2    3    3    0    0  0.79351902983E-01  0.10046212004E+00  0.13928027246E-01  0.13050204147E+00  0.21152560470E-01 0.  0.
         14    1    1    2    0    0 -0.18658193969E-02 -0.24342547681E-01  0.10108715160E-01  0.26423985918E-01  0.00000000000E+00 0.  1.
     999901    1    3    3    0    0 -0.77486083586E-01 -0.76119572360E-01 -0.24036742406E-01  0.88700397261E+00  0.88000000000E+00 0. -1.
        -11    1    4    4    0    0  0.71606263259E-01  0.77517919387E-01  0.10920904078E-01  0.10609435438E+00  0.51100000000E-03 0.  1.
         11    1    4    4    0    0  0.77456397242E-02  0.22944200654E-01  0.30071231683E-02  0.24407687091E-01  0.51100000000E-03 0. -1.
</event>
<event>
 8    1  0.1076043E+005  0.1043930E+01  0.7957747E-01            NaN
         13   -1    0    0    0    0  0.00000000000E+00  0.00000000000E+00  0.74505805969E-08  0.10566000000E+00  0.10566000000E+00 0. -1.
     999900   -1    0    0    0    0 -0.00000000000E+00 -0.00000000000E+00 -0.74505805969E-08  0.93827000000E+00  0.93827000000E+00 0.  1.
     999902    2    1    2    0    0 -0.18936526444E-02 -0.15273445789E-01  0.17570753479E-01  0.10205720154E+01  0.10203046815E+01 0.  0.
     999903    2    3    3    0    0 -0.20116538370E-02  0.50203259471E-01  0.12062387722E+00  0.13214241258E+00  0.19674436051E-01 0.  0.
         14    1    1    2    0    0  0.18936526444E-02  0.15273445789E-01 -0.17570753479E-01  0.23357984597E-01  0.00000000000E+00 0.  1.
     999901    1    3    3    0    0  0.11800119258E-03 -0.65476705260E-01 -0.10305312374E+00  0.88842960282E+00  0.88000000000E+00 0.  1.
        -11    1    4    4    0    0  0.20274969670E-02  0.26370800895E-01  0.39877695352E-01  0.47854170052E-01  0.51100000000E-03 0. -1.
         11    1    4    4    0    0 -0.40391508039E-02  0.23832458576E-01  0.80746181871E-01  0.84288242530E-01  0.51100000000E-03 0.  1.
</event>
<event>
 8    1  0.1076043E+005  0.1043930E+01  0.7957747E-01            NaN
         13   -1    0    0    0    0  0.00000000000E+00  0.00000000000E+00  0.74505805969E-08  0.10566000000E+00  0.10566000000E+00 0.  1.
     999900   -1    0    0    0    0 -0.00000000000E+00 -0.00000000000E+00 -0.74505805969E-08  0.93827000000E+00  0.93827000000E+00 0. -1.
     999902    2    1    2    0    0 -0.59749316579E-02  0.15921505614E-01  0.91061827975E-02  0.10246396730E+01  0.10244580728E+01 0.  0.
     999903    2    3    3    0    0 -0.62126129311E-01 -0.10078717309E+00 -0.56327731245E-01  0.13275656982E+00  0.20827465545E-01 0.  0.
         14    1    1    2    0    0  0.59749316579E-02 -0.15921505614E-01 -0.91061827975E-02  0.19290326967E-01  0.00000000000E+00 0. -1.
     999901    1    3    3    0    0  0.56151197653E-01  0.11670867871E+00  0.65433914042E-01  0.89188310321E+00  0.88000000000E+00 0.  1.
        -11    1    4    4    0    0 -0.40626783735E-01 -0.61282466844E-01 -0.45586735541E-01  0.86512934741E-01  0.51100000000E-03 0.  1.
         11    1    4    4    0    0 -0.21499345576E-01 -0.39504706249E-01 -0.10740995703E-01  0.46243635083E-01  0.51100000000E-03 0. -1.
</event>
<event>
 8    1  0.1103264E+005  0.1043930E+01  0.7957747E-01            NaN
         13   -1    0    0    0    0  0.00000000000E+00  0.00000000000E+00  0.74505805969E-08  0.10566000000E+00  0.10566000000E+00 0.  1.
     999900   -1    0    0    0    0 -0.00000000000E+00 -0.00000000000E+00 -0.74505805969E-08  0.93827000000E+00  0.93827000000E+00 0. -1.
     999902    2    1    2    0    0  0.37355209360E-02 -0.19555460691E-01 -0.12113266171E-01  0.10206254645E+01  0.10203593668E+01 0.  0.
     999903    2    3    3    0    0  0.10608863295E+00  0.73058050959E-01  0.53885026200E-02  0.12969351757E+00  0.14110127152E-01 0.  0.
         14    1    1    2    0    0 -0.37355209360E-02  0.19555460691E-01  0.12113266171E-01  0.23304535542E-01  0.00000000000E+00 0. -1.
     999901    1    3    3    0    0 -0.10235311201E+00 -0.92613511650E-01 -0.17501768791E-01  0.89093194689E+00  0.88000000000E+00 0. -1.
        -11    1    4    4    0    0  0.63776474845E-01  0.35585681247E-01  0.42962815248E-02  0.73160772340E-01  0.51100000000E-03 0.  1.
         11    1    4    4    0    0  0.42312158101E-01  0.37472369712E-01  0.10922210952E-02  0.56532745228E-01  0.51100000000E-03 0. -1.
</event>
<event>
 8    1  0.1076043E+005  0.1043930E+01  0.7957747E-01            NaN
         13   -1    0    0    0    0  0.00000000000E+00  0.00000000000E+00  0.74505805969E-08  0.10566000000E+00  0.10566000000E+00 0.  1.
     999900   -1    0    0    0    0 -0.00000000000E+00 -0.00000000000E+00 -0.74505805969E-08  0.93827000000E+00  0.93827000000E+00 0.  1.
     999902    2    1    2    0    0  0.11296065328E-01 -0.21714312135E-01  0.18885083100E-02  0.10193804805E+01  0.10190848273E+01 0.  0.
     999903    2    3    3    0    0 -0.33230141366E-01 -0.10493758431E+00 -0.69049322966E-01  0.13149486174E+00  0.20173020788E-01 0.  0.
         14    1    1    2    0    0 -0.11296065328E-01  0.21714312135E-01 -0.18885083100E-02  0.24549519487E-01  0.00000000000E+00 0. -1.
     999901    1    3    3    0    0  0.44526206693E-01  0.83223272170E-01  0.70937831276E-01  0.88788561877E+00  0.88000000000E+00 0. -1.
        -11    1    4    4    0    0 -0.24692871154E-01 -0.68096828888E-01 -0.34354178374E-01  0.80170984048E-01  0.51100000000E-03 0.  1.
         11    1    4    4    0    0 -0.85372702116E-02 -0.36840755417E-01 -0.34695144593E-01  0.51323877695E-01  0.51100000000E-03 0. -1.
</event>
<event>
 8    1  0.1076043E+005  0.1043930E+01  0.7957747E-01            NaN
         13   -1    0    0    0    0  0.00000000000E+00  0.00000000000E+00  0.74505805969E-08  0.10566000000E+00  0.10566000000E+00 0. -1.
     999900   -1    0    0    0    0 -0.00000000000E+00 -0.00000000000E+00 -0.74505805969E-08  0.93827000000E+00  0.93827000000E+00 0.  1.
     999902    2    1    2    0    0 -0.62862481668E-02 -0.10448962505E-01  0.20377078136E-01  0.10201829360E+01  0.10199065153E+01 0.  0.
     999903    2    3    3    0    0  0.31349283470E-01  0.10178223262E+00 -0.67866810182E-01  0.12788295384E+00  0.20143125577E-01 0.  0.
         14    1    1    2    0    0  0.62862481668E-02  0.10448962505E-01 -0.20377078136E-01  0.23747063961E-01  0.00000000000E+00 0.  1.
     999901    1    3    3    0    0 -0.37635531637E-01 -0.11223119513E+00  0.88243888318E-01  0.89229998220E+00  0.88000000000E+00 0. -1.
        -11    1    4    4    0    0  0.11302843090E-01  0.13224666028E-01 -0.82464099155E-02  0.19259035566E-01  0.51100000000E-03 0. -1.
         11    1    4    4    0    0  0.20046440380E-01  0.88557566593E-01 -0.59620400267E-01  0.10862391828E+00  0.51100000000E-03 0.  1.
</event>
<event>
 8    1  0.1116191E+005  0.1043930E+01  0.7957747E-01            NaN
         13   -1    0    0    0    0  0.00000000000E+00  0.00000000000E+00  0.74505805969E-08  0.10566000000E+00  0.10566000000E+00 0.  1.
     999900   -1    0    0    0    0 -0.00000000000E+00 -0.00000000000E+00 -0.74505805969E-08  0.93827000000E+00  0.93827000000E+00 0.  1.
     999902    2    1    2    0    0 -0.14661837085E-01 -0.63090146348E-02 -0.18507327364E-01  0.10194903949E+01  0.10191974151E+01 0.  0.
     999903    2    3    3    0    0 -0.78364435374E-01 -0.85922839719E-01 -0.60235092731E-01  0.13262085060E+00  0.20887903186E-01 0.  0.
         14    1    1    2    0    0  0.14661837085E-01  0.63090146348E-02  0.18507327364E-01  0.24439605122E-01  0.00000000000E+00 0.  1.
     999901    1    3    3    0    0  0.63702598288E-01  0.79613825084E-01  0.41727765368E-01  0.88686954428E+00  0.88000000000E+00 0.  1.
        -11    1    4    4    0    0 -0.48810363765E-01 -0.50708706515E-01 -0.24988881974E-01  0.74689556637E-01  0.51100000000E-03 0. -1.
         11    1    4    4    0    0 -0.29554071609E-01 -0.35214133204E-01 -0.35246210758E-01  0.57931293959E-01  0.51100000000E-03 0.  1.
</event>
<event>
 8    1  0.1076043E+005  0.1043930E+01  0.7957747E-01            NaN
         13   -1    0    0    0    0  0.00000000000E+00  0.00000000000E+00  0.74505805969E-08  0.10566000000E+00  0.10566000000E+00 0.  1.
     999900   -1    0    0    0    0 -0.00000000000E+00 -0.00000000000E+00 -0.74505805969E-08  0.93827000000E+00  0.93827000000E+00 0.  1.
     999902    2    1    2    0    0  0.59310857833E-02  0.14906555835E-01  0.17079302222E-01  0.10204974212E+01  0.10202283572E+01 0.  0.
     999903    2    3    3    0    0  0.10032778267E+00 -0.80466313921E-01 -0.23334701021E-02  0.13011347232E+00  0.19585171540E-01 0.  0.
         14    1    1    2    0    0 -0.59310857833E-02 -0.14906555835E-01 -0.17079302222E-01  0.23432578813E-01  0.00000000000E+00 0. -1.
     999901    1    3    3    0    0 -0.94396696891E-01  0.95372869757E-01  0.19412772324E-01  0.89038394887E+00  0.88000000000E+00 0. -1.
        -11    1    4    4    0    0  0.65736794296E-01 -0.40753307569E-01  0.82966779064E-03  0.77350550559E-01  0.51100000000E-03 0. -1.
         11    1    4    4    0    0  0.34590988378E-01 -0.39713006352E-01 -0.31631378928E-02  0.52762921761E-01  0.51100000000E-03 0.  1.
</event>
<event>
 8    1  0.1076043E+005  0.1043930E+01  0.7957747E-01            NaN
         13   -1    0    0    0    0  0.00000000000E+00  0.00000000000E+00  0.74505805969E-08  0.10566000000E+00  0.10566000000E+00 0.  1.
     999900   -1    0    0    0    0 -0.00000000000E+00 -0.00000000000E+00 -0.74505805969E-08  0.93827000000E+00  0.93827000000E+00 0.  1.
     999902    2    1    2    0    0 -0.19804629292E-01  0.12574460376E-01 -0.46049513781E-02  0.10200229723E+01  0.10197427706E+01 0.  0.
     999903    2    3    3    0    0  0.39674617653E-01  0.57099913228E-01 -0.10870230119E+00  0.13077803700E+00  0.21265683627E-01 0.  0.
         14    1    1    2    0    0  0.19804629292E-01 -0.12574460376E-01  0.46049513781E-02  0.23907027676E-01  0.00000000000E+00 0. -1.
     999901    1    3    3    0    0 -0.59479246944E-01 -0.44525452852E-01  0.10409734981E+00  0.88924493533E+00  0.88000000000E+00 0. -1.
        -11    1    4    4    0    0  0.10250480771E-01  0.29842275578E-01 -0.58987785080E-01  0.66898831659E-01  0.51100000000E-03 0. -1.
         11    1    4    4    0    0  0.29424136881E-01  0.27257637650E-01 -0.49714516109E-01  0.63879205336E-01  0.51100000000E-03 0.  1.
</event>
<event>
 8    1  0.1076043E+005  0.1043930E+01  0.7957747E-01            NaN
         13   -1    0    0    0    0  0.00000000000E+00  0.00000000000E+00  0.74505805969E-08  0.10566000000E+00  0.10566000000E+00 0. -1.
     999900   -1    0    0    0    0 -0.00000000000E+00 -0.00000000000E+00 -0.74505805969E-08  0.93827000000E+00  0.93827000000E+00 0. -1.
     999902    2    1    2    0    0 -0.17688543847E-01 -0.13944308797E-01 -0.53921643085E-02  0.10207696078E+01  0.10205068292E+01 0.  0.
     999903    2    3    3    0    0 -0.75055705843E-01  0.10501006302E+00 -0.82489603521E-02  0.13091046437E+00  0.20224540063E-01 0.  0.
         14    1    1    2    0    0  0.17688543847E-01  0.13944308797E-01  0.53921643085E-02  0.23160392207E-01  0.00000000000E+00 0.  1.
     999901    1    3    3    0    0  0.57367161996E-01 -0.11895437181E+00  0.28567960436E-02  0.88985914342E+00  0.88000000000E+00 0. -1.
        -11    1    4    4    0    0 -0.86251445413E-02  0.10908320603E-01  0.53777228944E-02  0.14918632687E-01  0.51100000000E-03 0.  1.
         11    1    4    4    0    0 -0.66430561301E-01  0.94101742413E-01 -0.13626683247E-01  0.11599183168E+00  0.51100000000E-03 0. -1.
</event>
<event>
 8    1  0.1076043E+005  0.1043930E+01  0.7957747E-01            NaN
         13   -1    0    0    0    0  0.00000000000E+00  0.00000000000E+00  0.74505805969E-08  0.10566000000E+00  0.10566000000E+00 0.  1.
     999900   -1    0    0    0    0 -0.00000000000E+00 -0.00000000000E+00 -0.74505805969E-08  0.93827000000E+00  0.93827000000E+00 0.  1.
     999902    2    1    2    0    0 -0.74076957808E-02 -0.14868645405E-01  0.16422790097E-01  0.10205706634E+01  0.10203032982E+01 0.  0.
     999903    2    3    3    0    0 -0.10446828453E+00  0.35083182209E-01 -0.65770438119E-01  0.13002494881E+00  0.20887427693E-01 0.  0.
         14    1    1    2    0    0  0.74076957808E-02  0.14868645405E-01 -0.16422790097E-01  0.23359336624E-01  0.00000000000E+00 0.  1.
     999901    1    3    3    0    0  0.97060588749E-01 -0.49951827614E-01  0.82193228216E-01  0.89054571457E+00  0.88000000000E+00 0.  1.
        -11    1    4    4    0    0 -0.22654579478E-01  0.12650441541E-01 -0.71908874600E-02  0.26930162011E-01  0.51100000000E-03 0. -1.
         11    1    4    4    0    0 -0.81813705052E-01  0.22432740668E-01 -0.58579550659E-01  0.10309478680E+00  0.51100000000E-03 0.  1.
</event>
<event>
 8    1  0.1076043E+005  0.1043930E+01  0.7957747E-01            NaN
         13   -1    0    0    0    0  0.00000000000E+00  0.00000000000E+00  0.74505805969E-08  0.10566000000E+00  0.10566000000E+00 0.  1.
     999900   -1    0    0    0    0 -0.00000000000E+00 -0.00000000000E+00 -0.74505805969E-08  0.93827000000E+00  0.93827000000E+00 0. -1.
     999902    2    1    2    0    0 -0.23723002342E-01 -0.75324583164E-02  0.60097520503E-02  0.10183246121E+01  0.10180026423E+01 0.  0.
     999903    2    3    3    0    0 -0.48715192100E-02 -0.89413207711E-01  0.92374650561E-01  0.13011363987E+00  0.19442988513E-01 0.  0.
         14    1    1    2    0    0  0.23723002342E-01  0.75324583164E-02 -0.60097520503E-02  0.25605387872E-01  0.00000000000E+00 0. -1.
     999901    1    3    3    0    0 -0.18851483132E-01  0.81880749394E-01 -0.86364898511E-01  0.88821097225E+00  0.88000000000E+00 0. -1.
        -11    1    4    4    0    0  0.70036532609E-02 -0.35396353170E-01  0.31951285415E-01  0.48198534598E-01  0.51100000000E-03 0.  1.
         11    1    4    4    0    0 -0.11875172471E-01 -0.54016854541E-01  0.60423365147E-01  0.81915105276E-01  0.51100000000E-03 0. -1.
</event>
<event>
 8    1  0.1076043E+005  0.1043930E+01  0.7957747E-01            NaN
         13   -1    0    0    0    0  0.00000000000E+00  0.00000000000E+00  0.74505805969E-08  0.10566000000E+00  0.10566000000E+00 0.  1.
     999900   -1    0    0    0    0 -0.00000000000E+00 -0.00000000000E+00 -0.74505805969E-08  0.93827000000E+00  0.93827000000E+00 0.  1.
     999902    2    1    2    0    0 -0.23400054969E-01 -0.20537942329E-02  0.38791236516E-02  0.10201218450E+01  0.10198439834E+01 0.  0.
     999903    2    3    3    0    0 -0.11163545427E+00 -0.53751981185E-01  0.44954608391E-01  0.13324790602E+00  0.19553452672E-01 0.  0.
         14    1    1    2    0    0  0.23400054969E-01  0.20537942329E-02 -0.38791236516E-02  0.23808154981E-01  0.00000000000E+00 0.  1.
     999901    1    3    3    0    0  0.88235399306E-01  0.51698186952E-01 -0.41075484739E-01  0.88687393900E+00  0.88000000000E+00 0.  1.
        -11    1    4    4    0    0 -0.15834716357E-01 -0.65910952550E-03  0.44648949636E-02  0.16473283690E-01  0.51100000000E-03 0.  1.
         11    1    4    4    0    0 -0.95800737917E-01 -0.53092871659E-01  0.40489713427E-01  0.11677462233E+00  0.51100000000E-03 0. -1.
</event>
<event>
 8    1  0.1076043E+005  0.1043930E+01  0.7957747E-01            NaN
         13   -1    0    0    0    0  0.00000000000E+00  0.00000000000E+00  0.74505805969E-08  0.10566000000E+00  0.10566000000E+00 0.  1.
     999900   -1    0    0    0    0 -0.00000000000E+00 -0.00000000000E+00 -0.74505805969E-08  0.93827000000E+00  0.93827000000E+00 0. -1.
     999902    2    1    2    0    0  0.86405321005E-02 -0.15071681346E-01  0.16121000999E-01  0.10202297669E+01  0.10199544482E+01 0.  0.
     999903    2    3    3    0    0  0.12551487720E+00 -0.34050777689E-01 -0.93791652390E-02  0.13193360174E+00  0.20126268111E-01 0.  0.
         14    1    1    2    0    0 -0.86405321005E-02  0.15071681346E-01 -0.16121000999E-01  0.23700233053E-01  0.00000000000E+00 0. -1.
     999901    1    3    3    0    0 -0.11687434510E+00  0.18979096343E-01  0.25500166238E-01  0.88829616521E+00  0.88000000000E+00 0. -1.
        -11    1    4    4    0    0  0.26904589708E-01 -0.10513583484E-01 -0.99334044998E-02  0.30550385120E-01  0.51100000000E-03 0.  1.
         11    1    4    4    0    0  0.98610287492E-01 -0.23537194205E-01  0.55423926074E-03  0.10138321662E+00  0.51100000000E-03 0. -1.
</event>
<event>
 8    1  0.1076043E+005  0.1043930E+01  0.7957747E-01            NaN
         13   -1    0    0    0    0  0.00000000000E+00  0.00000000000E+00  0.74505805969E-08  0.10566000000E+00  0.10566000000E+00 0. -1.
     999900   -1    0    0    0    0 -0.00000000000E+00 -0.00000000000E+00 -0.74505805969E-08  0.93827000000E+00  0.93827000000E+00 0.  1.
     999902    2    1    2    0    0 -0.13215730838E-01 -0.19649895335E-01  0.55255560343E-02  0.10196132219E+01  0.10193232150E+01 0.  0.
     999903    2    3    3    0    0 -0.20599273277E-01 -0.16606575458E-01  0.12709195971E+00  0.13122019569E+00  0.19138054413E-01 0.  0.
         14    1    1    2    0    0  0.13215730838E-01  0.19649895335E-01 -0.55255560343E-02  0.24316778111E-01  0.00000000000E+00 0.  1.
     999901    1    3    3    0    0  0.73835424396E-02 -0.30433198768E-02 -0.12156640367E+00  0.88839302620E+00  0.88000000000E+00 0.  1.
        -11    1    4    4    0    0  0.48873183300E-03 -0.98882385750E-02  0.51840881504E-01  0.52780244761E-01  0.51100000000E-03 0.  1.
         11    1    4    4    0    0 -0.21088005110E-01 -0.67183368829E-02  0.75251078204E-01  0.78439950930E-01  0.51100000000E-03 0. -1.
</event>
<event>
 8    1  0.1076043E+005  0.1043930E+01  0.7957747E-01            NaN
         13   -1    0    0    0    0  0.00000000000E+00  0.00000000000E+00  0.74505805969E-08  0.10566000000E+00  0.10566000000E+00 0. -1.
     999900   -1    0    0    0    0 -0.00000000000E+00 -0.00000000000E+00 -0.74505805969E-08  0.93827000000E+00  0.93827000000E+00 0. -1.
     999902    2    1    2    0    0 -0.74898885053E-03  0.22433460917E-01  0.71974612986E-02  0.10203583093E+01  0.10200860036E+01 0.  0.
     999903    2    3    3    0    0  0.41775111325E-01 -0.10159835539E+00 -0.61777293006E-01  0.12797402701E+00  0.22215578210E-01 0.  0.
         14    1    1    2    0    0  0.74898885053E-03 -0.22433460917E-01 -0.71974612986E-02  0.23571690694E-01  0.00000000000E+00 0.  1.
     999901    1    3    3    0    0 -0.42524100175E-01  0.12403181630E+00  0.68974754305E-01  0.89238428229E+00  0.88000000000E+00 0.  1.
        -11    1    4    4    0    0  0.15872586541E-01 -0.15685985619E-01 -0.11340468752E-01  0.25037102486E-01  0.51100000000E-03 0. -1.
         11    1    4    4    0    0  0.25902524783E-01 -0.85912369769E-01 -0.50436824254E-01  0.10293692453E+00  0.51100000000E-03 0.  1.
</event>
<event>
 8    1  0.1076043E+005  0.1043930E+01  0.7957747E-01            NaN
         13   -1    0    0    0    0  0.00000000000E+00  0.00000000000E+00  0.74505805969E-08  0.10566000000E+00  0.10566000000E+00 0.  1.
     999900   -1    0    0    0    0 -0.00000000000E+00 -0.00000000000E+00 -0.74505805969E-08  0.93827000000E+00  0.93827000000E+00 0.  1.
     999902    2    1    2    0    0 -0.22604260730E-01  0.13677683702E-01 -0.44859440953E-02  0.10171315797E+01  0.10167784887E+01 0.  0.
     999903    2    3    3    0    0 -0.44339253619E-01 -0.23930698781E-01 -0.11683896332E+00  0.12892552184E+00  0.20779775639E-01 0.  0.
         14    1    1    2    0    0  0.22604260730E-01 -0.13677683702E-01  0.44859440953E-02  0.26798420271E-01  0.00000000000E+00 0. -1.
     999901    1    3    3    0    0  0.21734992889E-01  0.37608382483E-01  0.11235301922E+00  0.88820605789E+00  0.88000000000E+00 0. -1.
        -11    1    4    4    0    0 -0.22997881905E-01 -0.22862958218E-01 -0.80169721217E-01  0.86481574636E-01  0.51100000000E-03 0.  1.
         11    1    4    4    0    0 -0.21341371714E-01 -0.10677405627E-02 -0.36669242102E-01  0.42443947200E-01  0.51100000000E-03 0. -1.
</event>
<event>
 8    1  0.1076043E+005  0.1043930E+01  0.7957747E-01            NaN
         13   -1    0    0    0    0  0.00000000000E+00  0.00000000000E+00  0.74505805969E-08  0.10566000000E+00  0.10566000000E+00 0. -1.
     999900   -1    0    0    0    0 -0.00000000000E+00 -0.00000000000E+00 -0.74505805969E-08  0.93827000000E+00  0.93827000000E+00 0. -1.
     999902    2    1    2    0    0 -0.90983487062E-02 -0.20107584646E-01 -0.80717310457E-02  0.10204300478E+01  0.10201594164E+01 0.  0.
     999903    2    3    3    0    0  0.11446068418E+00 -0.16771628480E-01  0.54824977269E-01  0.12956868987E+00  0.19993286797E-01 0.  0.
         14    1    1    2    0    0  0.90983487062E-02  0.20107584646E-01  0.80717310457E-02  0.23499952160E-01  0.00000000000E+00 0. -1.
     999901    1    3    3    0    0 -0.12355903288E+00 -0.33359561657E-02 -0.62896708315E-01  0.89086135797E+00  0.88000000000E+00 0. -1.
        -11    1    4    4    0    0  0.29369011236E-01 -0.22180756394E-02  0.23675071814E-01  0.37791914836E-01  0.51100000000E-03 0. -1.
         11    1    4    4    0    0  0.85091672942E-01 -0.14553552841E-01  0.31149905455E-01  0.91776775032E-01  0.51100000000E-03 0.  1.
</event>
<event>
 8    1  0.1076043E+005  0.1043930E+01  0.7957747E-01            NaN
         13   -1    0    0    0    0  0.00000000000E+00  0.00000000000E+00  0.74505805969E-08  0.10566000000E+00  0.10566000000E+00 0. -1.
     999900   -1    0    0    0    0 -0.00000000000E+00 -0.00000000000E+00 -0.74505805969E-08  0.93827000000E+00  0.93827000000E+00 0. -1.
     999902    2    1    2    0    0 -0.90378878519E-02 -0.19814923979E-01 -0.97667845558E-02  0.10200615122E+01  0.10197822238E+01 0.  0.
     999903    2    3    3    0    0  0.66050197038E-01 -0.27478087502E-01 -0.10808045779E+00  0.13137567181E+00  0.21459449365E-01 0.  0.
         14    1    1    2    0    0  0.90378878519E-02  0.19814923979E-01  0.97667845558E-02  0.23868487796E-01  0.00000000000E+00 0.  1.
     999901    1    3    3    0    0 -0.75088084890E-01  0.76631635231E-02  0.98313673232E-01  0.88868584039E+00  0.88000000000E+00 0.  1.
        -11    1    4    4    0    0  0.28881133120E-01 -0.52844139646E-02 -0.59173504820E-01  0.66059137710E-01  0.51100000000E-03 0. -1.
         11    1    4    4    0    0  0.37169063918E-01 -0.22193673538E-01 -0.48906952967E-01  0.65316534103E-01  0.51100000000E-03 0.  1.
</event>
<event>
 8    1  0.1076043E+005  0.1043930E+01  0.7957747E-01            NaN
         13   -1    0    0    0    0  0.00000000000E+00  0.00000000000E+00  0.74505805969E-08  0.10566000000E+00  0.10566000000E+00 0.  1.
     999900   -1    0    0    0    0 -0.00000000000E+00 -0.00000000000E+00 -0.74505805969E-08  0.93827000000E+00  0.93827000000E+00 0.  1.
     999902    2    1    2    0    0  0.87252751480E-02  0.20246489736E-01 -0.78040251410E-02  0.10205429613E+01  0.10202749542E+01 0.  0.
     999903    2    3    3    0    0 -0.82252521771E-01 -0.91160298425E-01  0.28940209913E-01  0.12810889041E+00  0.22331025660E-01 0.  0.
         14    1    1    2    0    0 -0.87252751480E-02 -0.20246489736E-01  0.78040251410E-02  0.23387038748E-01  0.00000000000E+00 0. -1.
     999901    1    3    3    0    0  0.90977796919E-01  0.11140678816E+00 -0.36744235054E-01  0.89243407084E+00  0.88000000000E+00 0.  1.
        -11    1    4    4    0    0 -0.47527450887E-01 -0.45000473041E-01  0.52139266713E-02  0.65660850696E-01  0.51100000000E-03 0. -1.
         11    1    4    4    0    0 -0.34725070883E-01 -0.46159825383E-01  0.23726283242E-01  0.62448039719E-01  0.51100000000E-03 0.  1.
</event>
<event>
 8    1  0.1076043E+005  0.1043930E+01  0.7957747E-01            NaN
         13   -1    0    0    0    0  0.00000000000E+00  0.00000000000E+00  0.74505805969E-08  0.10566000000E+00  0.10566000000E+00 0. -1.
     999900   -1    0    0    0    0 -0.00000000000E+00 -0.00000000000E+00 -0.74505805969E-08  0.93827000000E+00  0.93827000000E+00 0. -1.
     999902    2    1    2    0    0  0.13379267091E-01  0.11455649674E-01 -0.15840740535E-01  0.10202410625E+01  0.10199660092E+01 0.  0.
     999903    2    3    3    0    0 -0.77201965170E-01  0.38764172606E-01  0.92530491841E-01  0.12856004386E+00  0.22427404077E-01 0.  0.
         14    1    1    2    0    0 -0.13379267091E-01 -0.11455649674E-01  0.15840740535E-01  0.23688937461E-01  0.00000000000E+00 0. -1.
     999901    1    3    3    0    0  0.90581232260E-01 -0.27308522932E-01 -0.10837123238E+00  0.89168101868E+00  0.88000000000E+00 0. -1.
        -11    1    4    4    0    0 -0.57242850875E-01  0.17252655526E-01  0.65072902921E-01  0.88369349407E-01  0.51100000000E-03 0.  1.
         11    1    4    4    0    0 -0.19959114294E-01  0.21511517080E-01  0.27457588920E-01  0.40190694455E-01  0.51100000000E-03 0. -1.
</event>
<event>
 8    1  0.1076043E+005  0.1043930E+01  0.7957747E-01            NaN
         13   -1    0    0    0    0  0.00000000000E+00  0.00000000000E+00  0.74505805969E-08  0.10566000000E+00  0.10566000000E+00 0.  1.
     999900   -1    0    0    0    0 -0.00000000000E+00 -0.00000000000E+00 -0.74505805969E-08  0.93827000000E+00  0.93827000000E+00 0. -1.
     999902    2    1    2    0    0 -0.25863876079E-02 -0.22524321765E-01 -0.62509813675E-02  0.10204117254E+01  0.10201406668E+01 0.  0.
     999903    2    3    3    0    0  0.12045189790E+00  0.41940916982E-01  0.76948973002E-02  0.12940741889E+00  0.20478486130E-01 0.  0.
         14    1    1    2    0    0  0.25863876079E-02  0.22524321765E-01  0.62509813675E-02  0.23518274594E-01  0.00000000000E+00 0. -1.
     999901    1    3    3    0    0 -0.12303828550E+00 -0.64465238747E-01 -0.13945878668E-01  0.89100430652E+00  0.88000000000E+00 0. -1.
        -11    1    4    4    0    0  0.33202633014E-01  0.66649083528E-02  0.98451796895E-02  0.35270731868E-01  0.51100000000E-03 0. -1.
         11    1    4    4    0    0  0.87249264882E-01  0.35276008630E-01 -0.21502823893E-02  0.94136687017E-01  0.51100000000E-03 0.  1.
</event>
<event>
 8    1  0.1076043E+005  0.1043930E+01  0.7957747E-01            NaN
         13   -1    0    0    0    0  0.00000000000E+00  0.00000000000E+00  0.74505805969E-08  0.10566000000E+00  0.10566000000E+00 0.  1.
     999900   -1    0    0    0    0 -0.00000000000E+00 -0.00000000000E+00 -0.74505805969E-08  0.93827000000E+00  0.93827000000E+00 0. -1.
     999902    2    1    2    0    0  0.45669264482E-02 -0.12220717010E-01 -0.20059251540E-01  0.10200014331E+01  0.10197207202E+01 0.  0.
     999903    2    3    3    0    0 -0.11826209032E+00  0.30438006668E-01 -0.40542262623E-01  0.13021140854E+00  0.19973522425E-01 0.  0.
         14    1    1    2    0    0 -0.45669264482E-02  0.12220717010E-01  0.20059251540E-01  0.23928566898E-01  0.00000000000E+00 0.  1.
     999901    1    3    3    0    0  0.12282901677E+00 -0.42658723678E-01  0.20483011083E-01  0.88979002456E+00  0.88000000000E+00 0. -1.
        -11    1    4    4    0    0 -0.43515462505E-02 -0.86910416337E-03  0.16581867800E-02  0.47646617104E-02  0.51100000000E-03 0.  1.
         11    1    4    4    0    0 -0.11391054407E+00  0.31307110831E-01 -0.42200449403E-01  0.12544674683E+00  0.51100000000E-03 0. -1.
</event>
<event>
 8    1  0.1076043E+005  0.1043930E+01  0.7957747E-01            NaN
         13   -1    0    0    0    0  0.00000000000E+00  0.00000000000E+00  0.74505805969E-08  0.10566000000E+00  0.10566000000E+00 0. -1.
     999900   -1    0    0    0    0 -0.00000000000E+00 -0.00000000000E+00 -0.74505805969E-08  0.93827000000E+00  0.93827000000E+00 0.  1.
     999902    2    1    2    0    0  0.10631041369E-01  0.14413428280E-01  0.13921003256E-01  0.10212460787E+01  0.10209941199E+01 0.  0.
     999903    2    3    3    0    0 -0.54903706878E-01 -0.93606144282E-01  0.69688471591E-01  0.13047504085E+00  0.19766788726E-01 0.  0.
         14    1    1    2    0    0 -0.10631041369E-01 -0.14413428280E-01 -0.13921003256E-01  0.22683921333E-01  0.00000000000E+00 0.  1.
     999901    1    3    3    0    0  0.65534748247E-01  0.10801957256E+00 -0.55767468335E-01  0.89077103781E+00  0.88000000000E+00 0.  1.
        -11    1    4    4    0    0 -0.46406675353E-01 -0.61543305246E-01  0.46886237949E-01  0.90220498602E-01  0.51100000000E-03 0. -1.
         11    1    4    4    0    0 -0.84970315254E-02 -0.32062839036E-01  0.22802233642E-01  0.40254542251E-01  0.51100000000E-03 0.  1.
</event>
<event>
 8    1  0.1076043E+005  0.1043930E+01  0.7957747E-01            NaN
         13   -1    0    0    0    0  0.00000000000E+00  0.00000000000E+00  0.74505805969E-08  0.10566000000E+00  0.10566000000E+00 0.  1.
     999900   -1    0    0    0    0 -0.00000000000E+00 -0.00000000000E+00 -0.74505805969E-08  0.93827000000E+00  0.93827000000E+00 0.  1.
     999902    2    1    2    0    0  0.13555432789E-01  0.17518598635E-01 -0.99338046101E-02  0.10196538485E+01  0.10193648215E+01 0.  0.
     999903    2    3    3    0    0  0.57811394360E-01  0.96382499399E-01  0.65690088228E-01  0.13179289199E+00  0.20553227955E-01 0.  0.
         14    1    1    2    0    0 -0.13555432789E-01 -0.17518598635E-01  0.99338046101E-02  0.24276151471E-01  0.00000000000E+00 0.  1.
     999901    1    3    3    0    0 -0.44255961571E-01 -0.78863900764E-01 -0.75623892838E-01  0.88786095654E+00  0.88000000000E+00 0.  1.
        -11    1    4    4    0    0  0.51180699278E-01  0.69586385570E-01  0.45869695701E-01  0.97806028137E-01  0.51100000000E-03 0.  1.
         11    1    4    4    0    0  0.66306950824E-02  0.26796113829E-01  0.19820392527E-01  0.33986863853E-01  0.51100000000E-03 0. -1.
</event>
<event>
 8    1  0.1076043E+005  0.1043930E+01  0.7957747E-01            NaN
         13   -1    0    0    0    0  0.00000000000E+00  0.00000000000E+00  0.74505805969E-08  0.10566000000E+00  0.10566000000E+00 0. -1.
     999900   -1    0    0    0    0 -0.00000000000E+00 -0.00000000000E+00 -0.74505805969E-08  0.93827000000E+00  0.93827000000E+00 0. -1.
     999902    2    1    2    0    0  0.77842458428E-02  0.15010789806E-02 -0.22435770257E-01  0.10201348007E+01  0.10198572450E+01 0.  0.
     999903    2    3    3    0    0 -0.10554825800E+00  0.27499918957E-02  0.69810127059E-01  0.12808372496E+00  0.19595650970E-01 0.  0.
         14    1    1    2    0    0 -0.77842458428E-02 -0.15010789806E-02  0.22435770257E-01  0.23795199274E-01  0.00000000000E+00 0. -1.
     999901    1    3    3    0    0  0.11333250384E+00 -0.12489129150E-02 -0.92245897316E-01  0.89205107577E+00  0.88000000000E+00 0.  1.
        -11    1    4    4    0    0 -0.22835608015E-01 -0.55193577303E-02  0.93281358802E-02  0.25282475021E-01  0.51100000000E-03 0.  1.
         11    1    4    4    0    0 -0.82712649982E-01  0.82693496259E-02  0.60481991179E-01  0.10280124994E+00  0.51100000000E-03 0. -1.
</event>
<event>
 8    1  0.1076043E+005  0.1043930E+01  0.7957747E-01            NaN
         13   -1    0    0    0    0  0.00000000000E+00  0.00000000000E+00  0.74505805969E-08  0.10566000000E+00  0.10566000000E+00 0.  1.
     999900   -1    0    0    0    0 -0.00000000000E+00 -0.00000000000E+00 -0.74505805969E-08  0.93827000000E+00  0.93827000000E+00 0. -1.
     999902    2    1    2    0    0 -0.91854195560E-02  0.18598052053E-01 -0.11634406463E-01  0.10201472565E+01  0.10198699947E+01 0.  0.
     999903    2    3    3    0    0 -0.64914986410E-01 -0.27291640600E-01  0.10659352212E+00  0.12931085652E+00  0.20008237020E-01 0.  0.
         14    1    1    2    0    0  0.91854195560E-02 -0.18598052053E-01  0.11634406463E-01  0.23782743457E-01  0.00000000000E+00 0.  1.
     999901    1    3    3    0    0  0.55729566854E-01  0.45889692653E-01 -0.11822792858E+00  0.89083640003E+00  0.88000000000E+00 0. -1.
        -11    1    4    4    0    0 -0.54230520461E-01 -0.14414647070E-01  0.76504163777E-01  0.94878235628E-01  0.51100000000E-03 0.  1.
         11    1    4    4    0    0 -0.10684465949E-01 -0.12876993530E-01  0.30089358341E-01  0.34432620890E-01  0.51100000000E-03 0. -1.
</event>
<event>
 8    1  0.1076043E+005  0.1043930E+01  0.7957747E-01            NaN
         13   -1    0    0    0    0  0.00000000000E+00  0.00000000000E+00  0.74505805969E-08  0.10566000000E+00  0.10566000000E+00 0. -1.
     999900   -1    0    0    0    0 -0.00000000000E+00 -0.00000000000E+00 -0.74505805969E-08  0.93827000000E+00  0.93827000000E+00 0. -1.
     999902    2    1    2    0    0 -0.38904335136E-02  0.22635469194E-01 -0.23726043143E-02  0.10208404095E+01  0.10205792534E+01 0.  0.
     999903    2    3    3    0    0  0.81387699334E-01 -0.97254802355E-01  0.46188614798E-02  0.12859889637E+00  0.20829980341E-01 0.  0.
         14    1    1    2    0    0  0.38904335136E-02 -0.22635469194E-01  0.23726043143E-02  0.23089590507E-01  0.00000000000E+00 0. -1.
     999901    1    3    3    0    0 -0.85278132847E-01  0.11989027155E+00 -0.69914657942E-02  0.89224151313E+00  0.88000000000E+00 0. -1.
        -11    1    4    4    0    0  0.47165496779E-01 -0.40175326865E-01  0.18135529652E-02  0.61985410142E-01  0.51100000000E-03 0. -1.
         11    1    4    4    0    0  0.34222202555E-01 -0.57079475491E-01  0.28053085147E-02  0.66613486224E-01  0.51100000000E-03 0.  1.
</event>
<event>
 8    1  0.1076043E+005  0.1043930E+01  0.7957747E-01            NaN
         13   -1    0    0    0    0  0.00000000000E+00  0.00000000000E+00  0.74505805969E-08  0.10566000000E+00  0.10566000000E+00 0.  1.
     999900   -1    0    0    0    0 -0.00000000000E+00 -0.00000000000E+00 -0.74505805969E-08  0.93827000000E+00  0.93827000000E+00 0. -1.
     999902    2    1    2    0    0  0.19595954307E-01 -0.12837728237E-01 -0.75510658247E-02  0.10193164410E+01  0.10190192244E+01 0.  0.
     999903    2    3    3    0    0  0.11197060036E+00 -0.16572593845E-01 -0.66033863309E-01  0.13254292874E+00  0.19876887162E-01 0.  0.
         14    1    1    2    0    0 -0.19595954307E-01  0.12837728237E-01  0.75510658247E-02  0.24613558999E-01  0.00000000000E+00 0.  1.
     999901    1    3    3    0    0 -0.92374646050E-01  0.37348656078E-02  0.58482797485E-01  0.88677351227E+00  0.88000000000E+00 0.  1.
        -11    1    4    4    0    0  0.60221880150E-01 -0.18289933445E-01 -0.40131986390E-01  0.74646057946E-01  0.51100000000E-03 0.  1.
         11    1    4    4    0    0  0.51748720206E-01  0.17173395994E-02 -0.25901876919E-01  0.57896870789E-01  0.51100000000E-03 0. -1.
</event>
<event>
 8    1  0.1076043E+005  0.1043930E+01  0.7957747E-01            NaN
         13   -1    0    0    0    0  0.00000000000E+00  0.00000000000E+00  0.74505805969E-08  0.10566000000E+00  0.10566000000E+00 0. -1.
     999900   -1    0    0    0    0 -0.00000000000E+00 -0.00000000000E+00 -0.74505805969E-08  0.93827000000E+00  0.93827000000E+00 0.  1.
     999902    2    1    2    0    0 -0.65053735436E-02  0.83094238315E-02  0.21463493262E-01  0.10200124760E+01  0.10197320253E+01 0.  0.
     999903    2    3    3    0    0  0.20895384717E-01 -0.11755062713E+00  0.47832200548E-01  0.13024460592E+00  0.20517575869E-01 0.  0.
         14    1    1    2    0    0  0.65053735436E-02 -0.83094238315E-02 -0.21463493262E-01  0.23917523960E-01  0.00000000000E+00 0.  1.
     999901    1    3    3    0    0 -0.27400758260E-01  0.12586005096E+00 -0.26368707286E-01  0.88976787012E+00  0.88000000000E+00 0.  1.
        -11    1    4    4    0    0  0.17756152819E-01 -0.10221982707E+00  0.33521489097E-01  0.10903268025E+00  0.51100000000E-03 0. -1.
         11    1    4    4    0    0  0.31392318973E-02 -0.15330800061E-01  0.14310711451E-01  0.21211925670E-01  0.51100000000E-03 0.  1.
</event>
<event>
 8    1  0.1076043E+005  0.1043930E+01  0.7957747E-01            NaN
         13   -1    0    0    0    0  0.00000000000E+00  0.00000000000E+00  0.74505805969E-08  0.10566000000E+00  0.10566000000E+00 0.  1.
     999900   -1    0    0    0    0 -0.00000000000E+00 -0.00000000000E+00 -0.74505805969E-08  0.93827000000E+00  0.93827000000E+00 0.  1.
     999902    2    1    2    0    0  0.85583206325E-02 -0.94601452310E-02 -0.20567423908E-01  0.10197275595E+01  0.10194403060E+01 0.  0.
     999903    2    3    3    0    0 -0.95772944005E-01  0.82991174195E-01  0.67096705046E-02  0.12833746581E+00  0.19117888373E-01 0.  0.
         14    1    1    2    0    0 -0.85583206325E-02  0.94601452310E-02  0.20567423908E-01  0.24202440498E-01  0.00000000000E+00 0.  1.
     999901    1    3    3    0    0  0.10433126464E+00 -0.92451319426E-01 -0.27277094413E-01  0.89139009369E+00  0.88000000000E+00 0.  1.
        -11    1    4    4    0    0 -0.56560101838E-01  0.60176360068E-01  0.84931696788E-03  0.82590688889E-01  0.51100000000E-03 0. -1.
         11    1    4    4    0    0 -0.39212842167E-01  0.22814814127E-01  0.58603535367E-02  0.45746776925E-01  0.51100000000E-03 0.  1.
</event>
<event>
 8    1  0.1076043E+005  0.1043930E+01  0.7957747E-01            NaN
         13   -1    0    0    0    0  0.00000000000E+00  0.00000000000E+00  0.74505805969E-08  0.10566000000E+00  0.10566000000E+00 0. -1.
     999900   -1    0    0    0    0 -0.00000000000E+00 -0.00000000000E+00 -0.74505805969E-08  0.93827000000E+00  0.93827000000E+00 0. -1.
     999902    2    1    2    0    0 -0.17814868015E-01  0.10881299328E-01  0.17606910899E-02  0.10229807224E+01  0.10227661933E+01 0.  0.
     999903    2    3    3    0    0  0.12312424018E+00  0.32020936393E-01  0.27719891225E-01  0.13113735247E+00  0.15610700017E-01 0.  0.
         14    1    1    2    0    0  0.17814868015E-01 -0.10881299328E-01 -0.17606910899E-02  0.20949277566E-01  0.00000000000E+00 0. -1.
     999901    1    3    3    0    0 -0.14093910820E+00 -0.21139637065E-01 -0.25959200135E-01  0.89184336996E+00  0.88000000000E+00 0.  1.
        -11    1    4    4    0    0  0.34321369278E-01  0.87573307418E-02  0.14959636145E-01  0.38453856314E-01  0.51100000000E-03 0.  1.
         11    1    4    4    0    0  0.88802870907E-01  0.23263605651E-01  0.12760255080E-01  0.92683496157E-01  0.51100000000E-03 0. -1.
</event>
<event>
 8    1  0.1076043E+005  0.1043930E+01  0.7957747E-01            NaN
         13   -1    0    0    0    0  0.00000000000E+00  0.00000000000E+00  0.74505805969E-08  0.10566000000E+00  0.10566000000E+00 0.  1.
     999900   -1    0    0    0    0 -0.00000000000E+00 -0.00000000000E+00 -0.74505805969E-08  0.93827000000E+00  0.93827000000E+00 0.  1.
     999902    2    1    2    0    0  0.58741533787E-02 -0.21606128283E-01  0.97369971671E-02  0.10195140304E+01  0.10192216239E+01 0.  0.
     999903    2    3    3    0    0  0.46063712243E-01 -0.11913294502E+00  0.31168447291E-01  0.13295552265E+00  0.19778137453E-01 0.  0.
         14    1    1    2    0    0 -0.58741533787E-02  0.21606128283E-01 -0.97369971671E-02  0.24415969592E-01  0.00000000000E+00 0. -1.
     999901    1    3    3    0    0 -0.40189558864E-01  0.97526816739E-01 -0.21431450124E-01  0.88655850776E+00  0.88000000000E+00 0. -1.
        -11    1    4    4    0    0  0.22089592909E-01 -0.39648127547E-01  0.18306423494E-01  0.48941908371E-01  0.51100000000E-03 0.  1.
         11    1    4    4    0    0  0.23974119334E-01 -0.79484817475E-01  0.12862023797E-01  0.84013614278E-01  0.51100000000E-03 0. -1.
</event>
<event>
 8    1  0.1076043E+005  0.1043930E+01  0.7957747E-01            NaN
         13   -1    0    0    0    0  0.00000000000E+00  0.00000000000E+00  0.74505805969E-08  0.10566000000E+00  0.10566000000E+00 0. -1.
     999900   -1    0    0    0    0 -0.00000000000E+00 -0.00000000000E+00 -0.74505805969E-08  0.93827000000E+00  0.93827000000E+00 0. -1.
     999902    2    1    2    0    0  0.20888519145E-01  0.35503974230E-02 -0.93783384119E-02  0.10207591393E+01  0.10204961204E+01 0.  0.
     999903    2    3    3    0    0 -0.15780759233E-01 -0.87524259830E-01  0.91951933786E-01  0.12952008426E+00  0.20267355025E-01 0.  0.
         14    1    1    2    0    0 -0.20888519145E-01 -0.35503974230E-02  0.93783384119E-02  0.23170860694E-01  0.00000000000E+00 0. -1.
     999901    1    3    3    0    0  0.36669278379E-01  0.91074657253E-01 -0.10133027220E+00  0.89123905504E+00  0.88000000000E+00 0. -1.
        -11    1    4    4    0    0 -0.19764528669E-01 -0.57475205695E-01  0.58198996718E-01  0.84151174699E-01  0.51100000000E-03 0. -1.
         11    1    4    4    0    0  0.39837694358E-02 -0.30049054134E-01  0.33752937068E-01  0.45368909564E-01  0.51100000000E-03 0.  1.
</event>
<event>
 8    1  0.1076043E+005  0.1043930E+01  0.7957747E-01            NaN
         13   -1    0    0    0    0  0.00000000000E+00  0.00000000000E+00  0.74505805969E-08  0.10566000000E+00  0.10566000000E+00 0. -1.
     999900   -1    0    0    0    0 -0.00000000000E+00 -0.00000000000E+00 -0.74505805969E-08  0.93827000000E+00  0.93827000000E+00 0. -1.
     999902    2    1    2    0    0  0.10063818971E-01 -0.15413341461E-01 -0.50036718264E-02  0.10248541441E+01  0.10246765970E+01 0.  0.
     999903    2    3    3    0    0  0.28804587307E-02 -0.87719571591E-01 -0.10269835905E+00  0.13647131923E+00  0.19350652154E-01 0.  0.
         14    1    1    2    0    0 -0.10063818971E-01  0.15413341461E-01  0.50036718264E-02  0.19075855918E-01  0.00000000000E+00 0. -1.
     999901    1    3    3    0    0  0.71833602398E-02  0.72306230130E-01  0.97694687222E-01  0.88838282485E+00  0.88000000000E+00 0. -1.
        -11    1    4    4    0    0  0.88739904708E-02 -0.76209569565E-01 -0.90583148286E-01  0.11871063168E+00  0.51100000000E-03 0.  1.
         11    1    4    4    0    0 -0.59935317401E-02 -0.11510002026E-01 -0.12115210762E-01  0.17760687548E-01  0.51100000000E-03 0. -1.
</event>
<event>
 8    1  0.1076043E+005  0.1043930E+01  0.7957747E-01            NaN
         13   -1    0    0    0    0  0.00000000000E+00  0.00000000000E+00  0.74505805969E-08  0.10566000000E+00  0.10566000000E+00 0.  1.
     999900   -1    0    0    0    0 -0.00000000000E+00 -0.00000000000E+00 -0.74505805969E-08  0.93827000000E+00  0.93827000000E+00 0.  1.
     999902    2    1    2    0    0  0.16388495021E-01 -0.28473508417E-02  0.16628723715E-01  0.10204096975E+01  0.10201385917E+01 0.  0.
     999903    2    3    3    0    0 -0.12297846473E+00  0.71539215944E-02  0.33410174108E-01  0.12922801460E+00  0.20217780303E-01 0.  0.
         14    1    1    2    0    0 -0.16388495021E-01  0.28473508417E-02 -0.16628723715E-01  0.23520302470E-01  0.00000000000E+00 0. -1.
     999901    1    3    3    0    0  0.13936695975E+00 -0.10001272436E-01 -0.16781450393E-01  0.89118168293E+00  0.88000000000E+00 0. -1.
        -11    1    4    4    0    0 -0.98682842663E-01  0.13565852997E-01  0.24700950346E-01  0.10262910831E+00  0.51100000000E-03 0. -1.
         11    1    4    4    0    0 -0.24295622068E-01 -0.64119314030E-02  0.87092237617E-02  0.26598906284E-01  0.51100000000E-03 0.  1.
</event>
<event>
 8    1  0.1076043E+005  0.1043930E+01  0.7957747E-01            NaN
         13   -1    0    0    0    0  0.00000000000E+00  0.00000000000E+00  0.74505805969E-08  0.10566000000E+00  0.10566000000E+00 0.  1.
     999900   -1    0    0    0    0 -0.00000000000E+00 -0.00000000000E+00 -0.74505805969E-08  0.93827000000E+00  0.93827000000E+00 0. -1.
     999902    2    1    2    0    0 -0.18654057140E-01  0.58830172304E-02 -0.93861390890E-02  0.10222347621E+01  0.10220045135E+01 0.  0.
     999903    2    3    3    0    0 -0.53160299171E-01  0.95095299520E-01 -0.76370511291E-01  0.13452060871E+00  0.19854615949E-01 0.  0.
         14    1    1    2    0    0  0.18654057140E-01 -0.58830172304E-02  0.93861390890E-02  0.21695237876E-01  0.00000000000E+00 0.  1.
     999901    1    3    3    0    0  0.34506242032E-01 -0.89212282289E-01  0.66984372202E-01  0.88771415341E+00  0.88000000000E+00 0.  1.
        -11    1    4    4    0    0 -0.27255968817E-01  0.67928663658E-01 -0.51047188299E-01  0.89237143258E-01  0.51100000000E-03 0.  1.
         11    1    4    4    0    0 -0.25904330354E-01  0.27166635861E-01 -0.25323322991E-01  0.45283465453E-01  0.51100000000E-03 0. -1.
</event>
<event>
 8    1  0.1076043E+005  0.1043930E+01  0.7957747E-01            NaN
         13   -1    0    0    0    0  0.00000000000E+00  0.00000000000E+00  0.74505805969E-08  0.10566000000E+00  0.10566000000E+00 0.  1.
     999900   -1    0    0    0    0 -0.00000000000E+00 -0.00000000000E+00 -0.74505805969E-08  0.93827000000E+00  0.93827000000E+00 0.  1.
     999902    2    1    2    0    0  0.14226683361E-01 -0.14239832273E-01 -0.12367052873E-01  0.10203055352E+01  0.10200319945E+01 0.  0.
     999903    2    3    3    0    0 -0.67912606389E-01  0.52980123691E-01  0.92101157243E-01  0.12779279444E+00  0.20720992582E-01 0.  0.
         14    1    1    2    0    0 -0.14226683361E-01  0.14239832273E-01  0.12367052873E-01  0.23624464848E-01  0.00000000000E+00 0.  1.
     999901    1    3    3    0    0  0.82139289749E-01 -0.67219955963E-01 -0.10446821012E+00  0.89251274071E+00  0.88000000000E+00 0. -1.
        -11    1    4    4    0    0 -0.40189720855E-01  0.36810769705E-01  0.70467156046E-01  0.89084946152E-01  0.51100000000E-03 0. -1.
         11    1    4    4    0    0 -0.27722885534E-01  0.16169353986E-01  0.21634001197E-01  0.38707848292E-01  0.51100000000E-03 0.  1.
</event>
<event>
 8    1  0.1076043E+005  0.1043930E+01  0.7957747E-01            NaN
         13   -1    0    0    0    0  0.00000000000E+00  0.00000000000E+00  0.74505805969E-08  0.10566000000E+00  0.10566000000E+00 0.  1.
     999900   -1    0    0    0    0 -0.00000000000E+00 -0.00000000000E+00 -0.74505805969E-08  0.93827000000E+00  0.93827000000E+00 0.  1.
     999902    2    1    2    0    0  0.57359685191E-02  0.17965124982E-01 -0.11627531871E-01  0.10217749431E+01  0.10215347217E+01 0.  0.
     999903    2    3    3    0    0  0.52689526620E-01  0.12117229986E+00 -0.14832718925E-01  0.13449447400E+00  0.20244542875E-01 0.  0.
         14    1    1    2    0    0 -0.57359685191E-02 -0.17965124982E-01  0.11627531871E-01  0.22155056937E-01  0.00000000000E+00 0. -1.
     999901    1    3    3    0    0 -0.46953558101E-01 -0.10320717488E+00  0.32051870546E-02  0.88728046907E+00  0.88000000000E+00 0. -1.
        -11    1    4    4    0    0  0.43935635985E-01  0.78557164633E-01 -0.13037865732E-01  0.90949520550E-01  0.51100000000E-03 0.  1.
         11    1    4    4    0    0  0.87538906356E-02  0.42615135226E-01 -0.17948531939E-02  0.43544953445E-01  0.51100000000E-03 0. -1.
</event>
<event>
 8    1  0.1076043E+005  0.1043930E+01  0.7957747E-01            NaN
         13   -1    0    0    0    0  0.00000000000E+00  0.00000000000E+00  0.74505805969E-08  0.10566000000E+00  0.10566000000E+00 0. -1.
     999900   -1    0    0    0    0 -0.00000000000E+00 -0.00000000000E+00 -0.74505805969E-08  0.93827000000E+00  0.93827000000E+00 0.  1.
     999902    2    1    2    0    0 -0.16817731678E-01 -0.12582443724E-01 -0.10444153698E-01  0.10204729257E+01  0.10202032924E+01 0.  0.
     999903    2    3    3    0    0  0.95382886884E-02  0.10176149605E+00 -0.78035343275E-01  0.13011471391E+00  0.19847996047E-01 0.  0.
         14    1    1    2    0    0  0.16817731678E-01  0.12582443724E-01  0.10444153698E-01  0.23457074313E-01  0.00000000000E+00 0.  1.
     999901    1    3    3    0    0 -0.26356020367E-01 -0.11434393977E+00  0.67591189577E-01  0.89035821178E+00  0.88000000000E+00 0. -1.
        -11    1    4    4    0    0  0.13482073102E-01  0.86076725617E-01 -0.59477323406E-01  0.10549304294E+00  0.51100000000E-03 0.  1.
         11    1    4    4    0    0 -0.39437844132E-02  0.15684770429E-01 -0.18558019868E-01  0.24621670970E-01  0.51100000000E-03 0. -1.
</event>
<event>
 8    1  0.1076043E+005  0.1043930E+01  0.7957747E-01            NaN
         13   -1    0    0    0    0  0.00000000000E+00  0.00000000000E+00  0.74505805969E-08  0.10566000000E+00  0.10566000000E+00 0. -1.
     999900   -1    0    0    0    0 -0.00000000000E+00 -0.00000000000E+00 -0.74505805969E-08  0.93827000000E+00  0.93827000000E+00 0. -1.
     999902    2    1    2    0    0  0.19658747371E-01  0.13407046482E-01 -0.93237893848E-02  0.10183732339E+01  0.10180525012E+01 0.  0.
     999903    2    3    3    0    0 -0.77804649325E-01  0.67488196285E-01  0.72706987064E-01  0.12755735354E+00  0.19399803627E-01 0.  0.
         14    1    1    2    0    0 -0.19658747371E-01 -0.13407046482E-01  0.93237893848E-02  0.25556766072E-01  0.00000000000E+00 0. -1.
     999901    1    3    3    0    0  0.97463396696E-01 -0.54081149803E-01 -0.82030776449E-01  0.89081588038E+00  0.88000000000E+00 0. -1.
        -11    1    4    4    0    0 -0.17688657959E-01  0.27085902476E-01  0.23608251802E-01  0.40051784074E-01  0.51100000000E-03 0. -1.
         11    1    4    4    0    0 -0.60115991366E-01  0.40402293809E-01  0.49098735262E-01  0.87505569470E-01  0.51100000000E-03 0.  1.
</event>
<event>
 8    1  0.1076043E+005  0.1043930E+01  0.7957747E-01            NaN
         13   -1    0    0    0    0  0.00000000000E+00  0.00000000000E+00  0.74505805969E-08  0.10566000000E+00  0.10566000000E+00 0. -1.
     999900   -1    0    0    0    0 -0.00000000000E+00 -0.00000000000E+00 -0.74505805969E-08  0.93827000000E+00  0.93827000000E+00 0. -1.
     999902    2    1    2    0    0 -0.22163122859E-01  0.51995686026E-02 -0.31419942470E-02  0.10209493199E+01  0.10206906496E+01 0.  0.
     999903    2    3    3    0    0  0.11877373370E+00 -0.34088407496E-01  0.28340649220E-01  0.12831395236E+00  0.19800470409E-01 0.  0.
         14    1    1    2    0    0  0.22163122859E-01 -0.51995686026E-02  0.31419942470E-02  0.22980680068E-01  0.00000000000E+00 0. -1.
     999901    1    3    3    0    0 -0.14093685656E+00  0.39287976099E-01 -0.31482643467E-01  0.89263536757E+00  0.88000000000E+00 0.  1.
        -11    1    4    4    0    0  0.31678530176E-01 -0.11370227272E-01 -0.89859238730E-03  0.33673133677E-01  0.51100000000E-03 0.  1.
         11    1    4    4    0    0  0.87095203526E-01 -0.22718180224E-01  0.29239241608E-01  0.94640818682E-01  0.51100000000E-03 0. -1.
</event>
<event>
 8    1  0.1076043E+005  0.1043930E+01  0.7957747E-01            NaN
         13   -1    0    0    0    0  0.00000000000E+00  0.00000000000E+00  0.74505805969E-08  0.10566000000E+00  0.10566000000E+00 0. -1.
     999900   -1    0    0    0    0 -0.00000000000E+00 -0.00000000000E+00 -0.74505805969E-08  0.93827000000E+00  0.93827000000E+00 0. -1.
     999902    2    1    2    0    0 -0.14668331660E-01  0.17282810254E-01  0.59390394234E-02  0.10204965267E+01  0.10202274419E+01 0.  0.
     999903    2    3    3    0    0  0.94572705293E-02 -0.12580941533E+00  0.13272784138E-01  0.12858217341E+00  0.20970445111E-01 0.  0.
         14    1    1    2    0    0  0.14668331660E-01 -0.17282810254E-01 -0.59390394234E-02  0.23433473350E-01  0.00000000000E+00 0. -1.
     999901    1    3    3    0    0 -0.24125602189E-01  0.14309222559E+00 -0.73337447146E-02  0.89191435324E+00  0.88000000000E+00 0.  1.
        -11    1    4    4    0    0  0.13354010224E-01 -0.11891177064E+00  0.10291421431E-01  0.12010209516E+00  0.51100000000E-03 0. -1.
         11    1    4    4    0    0 -0.38967396948E-02 -0.68976446940E-02  0.29813627072E-02  0.84800782523E-02  0.51100000000E-03 0.  1.
</event>
<event>
 8    1  0.1076043E+005  0.1043930E+01  0.7957747E-01            NaN
         13   -1    0    0    0    0  0.00000000000E+00  0.00000000000E+00  0.74505805969E-08  0.10566000000E+00  0.10566000000E+00 0.  1.
     999900   -1    0    0    0    0 -0.00000000000E+00 -0.00000000000E+00 -0.74505805969E-08  0.93827000000E+00  0.93827000000E+00 0. -1.
     999902    2    1    2    0    0 -0.58178590806E-02  0.13721677796E-01  0.19553220593E-01  0.10193442244E+01  0.10190476866E+01 0.  0.
     999903    2    3    3    0    0  0.49482454093E-01  0.63584234197E-01 -0.97800503524E-01  0.12843665584E+00  0.20965876390E-01 0.  0.
         14    1    1    2    0    0  0.58178590806E-02 -0.13721677796E-01 -0.19553220593E-01  0.24585775590E-01  0.00000000000E+00 0. -1.
     999901    1    3    3    0    0 -0.55300313174E-01 -0.49862556401E-01  0.11735372412E+00  0.89090756857E+00  0.88000000000E+00 0.  1.
        -11    1    4    4    0    0  0.24124509852E-01  0.44881268237E-01 -0.51670065094E-01  0.72569807510E-01  0.51100000000E-03 0. -1.
         11    1    4    4    0    0  0.25357944241E-01  0.18702965960E-01 -0.46130438429E-01  0.55866848332E-01  0.51100000000E-03 0.  1.
</event>
<event>
 8    1  0.1076043E+005  0.1043930E+01  0.7957747E-01            NaN
         13   -1    0    0    0    0  0.00000000000E+00  0.00000000000E+00  0.74505805969E-08  0.10566000000E+00  0.10566000000E+00 0. -1.
     999900   -1    0    0    0    0 -0.00000000000E+00 -0.00000000000E+00 -0.74505805969E-08  0.93827000000E+00  0.93827000000E+00 0.  1.
     999902    2    1    2    0    0 -0.18527395178E-02  0.24108555531E-01  0.11244342544E-02  0.10197242270E+01  0.10194368934E+01 0.  0.
     999903    2    3    3    0    0  0.27354111823E-01  0.12824957467E+00 -0.87466182255E-02  0.13304738074E+00  0.20709933776E-01 0.  0.
         14    1    1    2    0    0  0.18527395178E-02 -0.24108555531E-01 -0.11244342544E-02  0.24205772987E-01  0.00000000000E+00 0.  1.
     999901    1    3    3    0    0 -0.29206851341E-01 -0.10414101913E+00  0.98710524799E-02  0.88667684627E+00  0.88000000000E+00 0.  1.
        -11    1    4    4    0    0  0.42125838071E-02  0.59678406572E-01  0.21029640602E-02  0.59866030870E-01  0.51100000000E-03 0.  1.
         11    1    4    4    0    0  0.23141528016E-01  0.68571168093E-01 -0.10849582286E-01  0.73181349874E-01  0.51100000000E-03 0. -1.
</event>
<event>
 8    1  0.1076043E+005  0.1043930E+01  0.7957747E-01            NaN
         13   -1    0    0    0    0  0.00000000000E+00  0.00000000000E+00  0.74505805969E-08  0.10566000000E+00  0.10566000000E+00 0.  1.
     999900   -1    0    0    0    0 -0.00000000000E+00 -0.00000000000E+00 -0.74505805969E-08  0.93827000000E+00  0.93827000000E+00 0.  1.
     999902    2    1    2    0    0 -0.17002919702E-01 -0.16668883408E-01  0.31429703306E-02  0.10199127309E+01  0.10196299081E+01 0.  0.
     999903    2    3    3    0    0 -0.21434047619E-01 -0.12813717009E+00  0.18174631663E-01  0.13274264311E+00  0.20291360382E-01 0.  0.
         14    1    1    2    0    0  0.17002919702E-01  0.16668883408E-01 -0.31429703306E-02  0.24017269099E-01  0.00000000000E+00 0.  1.
     999901    1    3    3    0    0  0.44311279171E-02  0.11146828669E+00 -0.15031661333E-01  0.88717008779E+00  0.88000000000E+00 0.  1.
        -11    1    4    4    0    0 -0.21524791778E-02 -0.65253828526E-01  0.37145155201E-02  0.65396896337E-01  0.51100000000E-03 0. -1.
         11    1    4    4    0    0 -0.19281568442E-01 -0.62883341568E-01  0.14460116143E-01  0.67345746772E-01  0.51100000000E-03 0.  1.
</event>
<event>
 8    1  0.1076043E+005  0.1043930E+01  0.7957747E-01            NaN
         13   -1    0    0    0    0  0.00000000000E+00  0.00000000000E+00  0.74505805969E-08  0.10566000000E+00  0.10566000000E+00 0.  1.
     999900   -1    0    0    0    0 -0.00000000000E+00 -0.00000000000E+00 -0.74505805969E-08  0.93827000000E+00  0.93827000000E+00 0. -1.
     999902    2    1    2    0    0  0.57947750742E-02  0.22418018339E-01  0.64638011971E-02  0.10198898733E+01  0.10196065055E+01 0.  0.
     999903    2    3    3    0    0  0.30263614945E-01  0.12745312315E+00  0.12743225542E-02  0.13329073727E+00  0.24588854297E-01 0.  0.
         14    1    1    2    0    0 -0.57947750742E-02 -0.22418018339E-01 -0.64638011971E-02  0.24040126671E-01  0.00000000000E+00 0.  1.
     999901    1    3    3    0    0 -0.24468839871E-01 -0.10503510481E+00  0.51894786428E-02  0.88659913606E+00  0.88000000000E+00 0.  1.
        -11    1    4    4    0    0  0.28291364270E-01  0.66938597815E-01 -0.13343769054E-02  0.72685754122E-01  0.51100000000E-03 0.  1.
         11    1    4    4    0    0  0.19722506753E-02  0.60514525332E-01  0.26086994597E-02  0.60604983151E-01  0.51100000000E-03 0. -1.
</event>
<event>
 8    1  0.1076043E+005  0.1043930E+01  0.7957747E-01            NaN
         13   -1    0    0    0    0  0.00000000000E+00  0.00000000000E+00  0.74505805969E-08  0.10566000000E+00  0.10566000000E+00 0. -1.
     999900   -1    0    0    0    0 -0.00000000000E+00 -0.00000000000E+00 -0.74505805969E-08  0.93827000000E+00  0.93827000000E+00 0.  1.
     999902    2    1    2    0    0 -0.11650947061E-01  0.78220025808E-02  0.17893036778E-01  0.10211904077E+01  0.10209371968E+01 0.  0.
     999903    2    3    3    0    0  0.12532543691E+00 -0.10438869312E-02  0.30329717705E-01  0.13046272499E+00  0.19826144289E-01 0.  0.
         14    1    1    2    0    0  0.11650947061E-01 -0.78220025808E-02 -0.17893036778E-01  0.22739592277E-01  0.00000000000E+00 0.  1.
     999901    1    3    3    0    0 -0.13697638397E+00  0.88658895120E-02 -0.12436680928E-01  0.89072768274E+00  0.88000000000E+00 0. -1.
        -11    1    4    4    0    0  0.90709131876E-01 -0.70469021529E-02  0.28232436807E-01  0.95263513712E-01  0.51100000000E-03 0.  1.
         11    1    4    4    0    0  0.34616305036E-01  0.60030152217E-02  0.20972808981E-02  0.35199211273E-01  0.51100000000E-03 0. -1.
</event>
<event>
 8    1  0.1076043E+005  0.1043930E+01  0.7957747E-01            NaN
         13   -1    0    0    0    0  0.00000000000E+00  0.00000000000E+00  0.74505805969E-08  0.10566000000E+00  0.10566000000E+00 0. -1.
     999900   -1    0    0    0    0 -0.00000000000E+00 -0.00000000000E+00 -0.74505805969E-08  0.93827000000E+00  0.93827000000E+00 0.  1.
     999902    2    1    2    0    0  0.50937439228E-02  0.14955025946E-01  0.16839222081E-01  0.10208397763E+01  0.10205786058E+01 0.  0.
     999903    2    3    3    0    0 -0.98964972682E-01 -0.38477667334E-01  0.75211476680E-01  0.13118220777E+00  0.16655590943E-01 0.  0.
         14    1    1    2    0    0 -0.50937439228E-02 -0.14955025946E-01 -0.16839222081E-01  0.23090223656E-01  0.00000000000E+00 0.  1.
     999901    1    3    3    0    0  0.10405871660E+00  0.53432693281E-01 -0.58372254599E-01  0.88965756857E+00  0.88000000000E+00 0.  1.
        -11    1    4    4    0    0 -0.56068252275E-01 -0.17187175169E-01  0.32712265585E-01  0.67152076246E-01  0.51100000000E-03 0. -1.
         11    1    4    4    0    0 -0.42896720408E-01 -0.21290492165E-01  0.42499211095E-01  0.64030131525E-01  0.51100000000E-03 0.  1.
</event>
<event>
 8    1  0.1076043E+005  0.1043930E+01  0.7957747E-01            NaN
         13   -1    0    0    0    0  0.00000000000E+00  0.00000000000E+00  0.74505805969E-08  0.10566000000E+00  0.10566000000E+00 0.  1.
     999900   -1    0    0    0    0 -0.00000000000E+00 -0.00000000000E+00 -0.74505805969E-08  0.93827000000E+00  0.93827000000E+00 0.  1.
     999902    2    1    2    0    0  0.12719098378E-01  0.25176011826E-02 -0.20002027921E-01  0.10200931609E+01  0.10198146214E+01 0.  0.
     999903    2    3    3    0    0 -0.95102936549E-01 -0.73787420849E-01 -0.45579743382E-01  0.12986719677E+00  0.17286520051E-01 0.  0.
         14    1    1    2    0    0 -0.12719098378E-01 -0.25176011826E-02  0.20002027921E-01  0.23836839140E-01  0.00000000000E+00 0.  1.
     999901    1    3    3    0    0  0.10782203493E+00  0.76305022032E-01  0.25577715461E-01  0.89022596409E+00  0.88000000000E+00 0. -1.
        -11    1    4    4    0    0 -0.35693632567E-01 -0.26246295376E-01 -0.25700947914E-01  0.51222097492E-01  0.51100000000E-03 0.  1.
         11    1    4    4    0    0 -0.59409303982E-01 -0.47541125474E-01 -0.19878795467E-01  0.78645099283E-01  0.51100000000E-03 0. -1.
</event>
<event>
 8    1  0.1076043E+005  0.1043930E+01  0.7957747E-01            NaN
         13   -1    0    0    0    0  0.00000000000E+00  0.00000000000E+00  0.74505805969E-08  0.10566000000E+00  0.10566000000E+00 0. -1.
     999900   -1    0    0    0    0 -0.00000000000E+00 -0.00000000000E+00 -0.74505805969E-08  0.93827000000E+00  0.93827000000E+00 0.  1.
     999902    2    1    2    0    0  0.46692130128E-02  0.85515891160E-02  0.21758472872E-01  0.10200896483E+01  0.10198110257E+01 0.  0.
     999903    2    3    3    0    0 -0.40370573718E-01 -0.87162584501E-01  0.87110108410E-01  0.13134861647E+00  0.20909057908E-01 0.  0.
         14    1    1    2    0    0 -0.46692130128E-02 -0.85515891160E-02 -0.21758472872E-01  0.23840351681E-01  0.00000000000E+00 0.  1.
     999901    1    3    3    0    0  0.45039786731E-01  0.95714173617E-01 -0.65351635538E-01  0.88874103185E+00  0.88000000000E+00 0.  1.
        -11    1    4    4    0    0 -0.41086604485E-01 -0.84484433510E-01  0.78950548831E-01  0.12271584598E+00  0.51100000000E-03 0. -1.
         11    1    4    4    0    0  0.71603076666E-03 -0.26781509917E-02  0.81595595794E-02  0.86327704894E-02  0.51100000000E-03 0.  1.
</event>
<event>
 8    1  0.1076043E+005  0.1043930E+01  0.7957747E-01            NaN
         13   -1    0    0    0    0  0.00000000000E+00  0.00000000000E+00  0.74505805969E-08  0.10566000000E+00  0.10566000000E+00 0. -1.
     999900   -1    0    0    0    0 -0.00000000000E+00 -0.00000000000E+00 -0.74505805969E-08  0.93827000000E+00  0.93827000000E+00 0.  1.
     999902    2    1    2    0    0  0.12163822346E-01  0.15041030395E-01  0.13474737885E-01  0.10203554432E+01  0.10200830705E+01 0.  0.
     999903    2    3    3    0    0 -0.10268982298E+00 -0.73495442629E-01 -0.92971729633E-02  0.12819591324E+00  0.20024358017E-01 0.  0.
         14    1    1    2    0    0 -0.12163822346E-01 -0.15041030395E-01 -0.13474737885E-01  0.23574556846E-01  0.00000000000E+00 0.  1.
     999901    1    3    3    0    0  0.11485364533E+00  0.88536473023E-01  0.22771910848E-01  0.89215952992E+00  0.88000000000E+00 0. -1.
        -11    1    4    4    0    0 -0.54287139679E-01 -0.37007541503E-01  0.50725870464E-02  0.65898739919E-01  0.51100000000E-03 0.  1.
         11    1    4    4    0    0 -0.48402683304E-01 -0.36487901126E-01 -0.14369760010E-01  0.62297173317E-01  0.51100000000E-03 0. -1.
</event>
<event>
 8    1  0.1076043E+005  0.1043930E+01  0.7957747E-01            NaN
         13   -1    0    0    0    0  0.00000000000E+00  0.00000000000E+00  0.74505805969E-08  0.10566000000E+00  0.10566000000E+00 0.  1.
     999900   -1    0    0    0    0 -0.00000000000E+00 -0.00000000000E+00 -0.74505805969E-08  0.93827000000E+00  0.93827000000E+00 0.  1.
     999902    2    1    2    0    0  0.18850702023E-01 -0.53306306359E-02  0.84964030260E-02  0.10225769334E+01  0.10223539657E+01 0.  0.
     999903    2    3    3    0    0 -0.57147236315E-01  0.14325003373E-01  0.11700850699E+00  0.13244384935E+00  0.19477427496E-01 0.  0.
         14    1    1    2    0    0 -0.18850702023E-01  0.53306306359E-02 -0.84964030260E-02  0.21353066621E-01  0.00000000000E+00 0. -1.
     999901    1    3    3    0    0  0.75997938338E-01 -0.19655634009E-01 -0.10851210396E+00  0.89013308403E+00  0.88000000000E+00 0.  1.
        -11    1    4    4    0    0 -0.28870109271E-01  0.85694707858E-02  0.39062268520E-01  0.49325865242E-01  0.51100000000E-03 0.  1.
         11    1    4    4    0    0 -0.28277127043E-01  0.57555325873E-02  0.77946238470E-01  0.83117984106E-01  0.51100000000E-03 0. -1.
</event>
<event>
 8    1  0.1076043E+005  0.1043930E+01  0.7957747E-01            NaN
         13   -1    0    0    0    0  0.00000000000E+00  0.00000000000E+00  0.74505805969E-08  0.10566000000E+00  0.10566000000E+00 0. -1.
     999900   -1    0    0    0    0 -0.00000000000E+00 -0.00000000000E+00 -0.74505805969E-08  0.93827000000E+00  0.93827000000E+00 0.  1.
     999902    2    1    2    0    0 -0.27178732557E-01  0.30397264343E-02  0.10195121481E-01  0.10147432917E+01  0.10143234613E+01 0.  0.
     999903    2    3    3    0    0  0.68607875569E-01 -0.92465500121E-01 -0.38863643215E-01  0.12305776136E+00  0.19388671043E-01 0.  0.
         14    1    1    2    0    0  0.27178732557E-01 -0.30397264343E-02 -0.10195121481E-01  0.29186708314E-01  0.00000000000E+00 0. -1.
     999901    1    3    3    0    0 -0.95786608125E-01  0.95505226556E-01  0.49058764696E-01  0.89168553032E+00  0.88000000000E+00 0.  1.
        -11    1    4    4    0    0  0.16224069828E-01 -0.12870482751E-01 -0.12483447856E-01  0.24186098474E-01  0.51100000000E-03 0.  1.
         11    1    4    4    0    0  0.52383805740E-01 -0.79595017371E-01 -0.26380195359E-01  0.98871662888E-01  0.51100000000E-03 0. -1.
</event>
<event>
 7    1  0.1076043E+005  0.1043930E+01  0.7957747E-01            NaN
         13   -1    0    0    0    0  0.00000000000E+00  0.00000000000E+00  0.74505805969E-08  0.10566000000E+00  0.10566000000E+00 0.  1.
     999900   -1    0    0    0    0 -0.00000000000E+00 -0.00000000000E+00 -0.74505805969E-08  0.93827000000E+00  0.93827000000E+00 0.  1.
     999903    2    1    2    0    0  0.92760163890E-01  0.43903106094E-01  0.43720384503E-01  0.11343671831E+00  0.20603065540E-01 0.  0.
         14    1    1    2    0    0  0.37476505699E-01  0.45309479160E-02  0.59104988066E-02  0.38209317772E-01  0.00000000000E+00 0.  1.
     999901    1    1    2    0    0 -0.13023666959E+00 -0.48434054010E-01 -0.49630883309E-01  0.89228396392E+00  0.88000000000E+00 0.  1.
        -11    1    3    3    0    0  0.53185085000E-01  0.16890963591E-01  0.15889788658E-01  0.58023309300E-01  0.51100000000E-03 0. -1.
         11    1    3    3    0    0  0.39575078889E-01  0.27012142503E-01  0.27830595845E-01  0.55413409007E-01  0.51100000000E-03 0.  1.
</event>
<event>
 8    1  0.1076043E+005  0.1043930E+01  0.7957747E-01            NaN
         13   -1    0    0    0    0  0.00000000000E+00  0.00000000000E+00  0.74505805969E-08  0.10566000000E+00  0.10566000000E+00 0.  1.
     999900   -1    0    0    0    0 -0.00000000000E+00 -0.00000000000E+00 -0.74505805969E-08  0.93827000000E+00  0.93827000000E+00 0.  1.
     999902    2    1    2    0    0 -0.20814431525E-01 -0.12345713544E-01 -0.76530489210E-03  0.10197175467E+01  0.10194300526E+01 0.  0.
     999903    2    3    3    0    0 -0.39638790301E-01  0.99740914209E-01  0.70652843161E-01  0.12953873295E+00  0.16400470211E-01 0.  0.
         14    1    1    2    0    0  0.20814431525E-01  0.12345713544E-01  0.76530489210E-03  0.24212453288E-01  0.00000000000E+00 0. -1.
     999901    1    3    3    0    0  0.18824358776E-01 -0.11208662775E+00 -0.71418148053E-01  0.89017881376E+00  0.88000000000E+00 0.  1.
        -11    1    4    4    0    0 -0.11778221446E-01  0.33752072461E-01  0.32813748581E-01  0.48527642769E-01  0.51100000000E-03 0.  1.
         11    1    4    4    0    0 -0.27860568855E-01  0.65988841748E-01  0.37839094580E-01  0.81011090178E-01  0.51100000000E-03 0. -1.
</event>
<event>
 8    1  0.1076043E+005  0.1043930E+01  0.7957747E-01            NaN
         13   -1    0    0    0    0  0.00000000000E+00  0.00000000000E+00  0.74505805969E-08  0.10566000000E+00  0.10566000000E+00 0. -1.
     999900   -1    0    0    0    0 -0.00000000000E+00 -0.00000000000E+00 -0.74505805969E-08  0.93827000000E+00  0.93827000000E+00 0. -1.
     999902    2    1    2    0    0 -0.12365807244E-01  0.94633030664E-03  0.20871208013E-01  0.10196521077E+01  0.10193630387E+01 0.  0.
     999903    2    3    3    0    0 -0.17535190432E-01 -0.81614405651E-01 -0.95183916534E-01  0.12818601774E+00  0.20081908869E-01 0.  0.
         14    1    1    2    0    0  0.12365807244E-01 -0.94633030664E-03 -0.20871208013E-01  0.24277892285E-01  0.00000000000E+00 0.  1.
     999901    1    3    3    0    0  0.51693831879E-02  0.82560735958E-01  0.11605512455E+00  0.89146608998E+00  0.88000000000E+00 0.  1.
        -11    1    4    4    0    0 -0.13776190751E-01 -0.21333647209E-01 -0.30360609908E-01  0.39584538519E-01  0.51100000000E-03 0.  1.
         11    1    4    4    0    0 -0.37589996810E-02 -0.60280758442E-01 -0.64823306626E-01  0.88601479219E-01  0.51100000000E-03 0. -1.
</event>
<event>
 8    1  0.1076043E+005  0.1043930E+01  0.7957747E-01            NaN
         13   -1    0    0    0    0  0.00000000000E+00  0.00000000000E+00  0.74505805969E-08  0.10566000000E+00  0.10566000000E+00 0.  1.
     999900   -1    0    0    0    0 -0.00000000000E+00 -0.00000000000E+00 -0.74505805969E-08  0.93827000000E+00  0.93827000000E+00 0. -1.
     999902    2    1    2    0    0 -0.17193465982E-01  0.11522362669E-01  0.11472341106E-01  0.10202657923E+01  0.10199913197E+01 0.  0.
     999903    2    3    3    0    0  0.96788880451E-01  0.77428160004E-01  0.34675669763E-01  0.13016807642E+00  0.19445274597E-01 0.  0.
         14    1    1    2    0    0  0.17193465982E-01 -0.11522362669E-01 -0.11472341106E-01  0.23664207665E-01  0.00000000000E+00 0. -1.
     999901    1    3    3    0    0 -0.11398234643E+00 -0.65905797336E-01 -0.23203328658E-01  0.89009771592E+00  0.88000000000E+00 0.  1.
        -11    1    4    4    0    0  0.49520934711E-01  0.34966065914E-01  0.26278290946E-01  0.66073886189E-01  0.51100000000E-03 0. -1.
         11    1    4    4    0    0  0.47267945740E-01  0.42462094090E-01  0.83973788178E-02  0.64094190228E-01  0.51100000000E-03 0.  1.
</event>
<event>
 8    1  0.1076043E+005  0.1043930E+01  0.7957747E-01            NaN
         13   -1    0    0    0    0  0.00000000000E+00  0.00000000000E+00  0.74505805969E-08  0.10566000000E+00  0.10566000000E+00 0.  1.
     999900   -1    0    0    0    0 -0.00000000000E+00 -0.00000000000E+00 -0.74505805969E-08  0.93827000000E+00  0.93827000000E+00 0.  1.
     999902    2    1    2    0    0 -0.63797098758E-02  0.22105966513E-01  0.49723363803E-02  0.10203907013E+01  0.10201191522E+01 0.  0.
     999903    2    3    3    0    0  0.31140620698E-01 -0.85398064240E-01 -0.88205540063E-01  0.12817603628E+00  0.19654804667E-01 0.  0.
         14    1    1    2    0    0  0.63797098758E-02 -0.22105966513E-01 -0.49723363803E-02  0.23539298686E-01  0.00000000000E+00 0.  1.
     999901    1    3    3    0    0 -0.37520330574E-01  0.10750403075E+00  0.93177876443E-01  0.89221466503E+00  0.88000000000E+00 0. -1.
        -11    1    4    4    0    0  0.18605573786E-01 -0.40065862656E-01 -0.55264227595E-01  0.70751937775E-01  0.51100000000E-03 0.  1.
         11    1    4    4    0    0  0.12535046912E-01 -0.45332201584E-01 -0.32941312468E-01  0.57424098510E-01  0.51100000000E-03 0. -1.
</event>
<event>
 8    1  0.1076043E+005  0.1043930E+01  0.7957747E-01            NaN
         13   -1    0    0    0    0  0.00000000000E+00  0.00000000000E+00  0.74505805969E-08  0.10566000000E+00  0.10566000000E+00 0.  1.
     999900   -1    0    0    0    0 -0.00000000000E+00 -0.00000000000E+00 -0.74505805969E-08  0.93827000000E+00  0.93827000000E+00 0. -1.
     999902    2    1    2    0    0  0.17716919600E-01 -0.87673102042E-02 -0.13118644747E-01  0.10202054598E+01  0.10199295693E+01 0.  0.
     999903    2    3    3    0    0 -0.11616803193E+00  0.32563519195E-01 -0.39973318559E-01  0.12871536382E+00  0.20356430436E-01 0.  0.
         14    1    1    2    0    0 -0.17716919600E-01  0.87673102042E-02  0.13118644747E-01  0.23724540213E-01  0.00000000000E+00 0.  1.
     999901    1    3    3    0    0  0.13388495153E+00 -0.41330829400E-01  0.26854673812E-01  0.89149009597E+00  0.88000000000E+00 0. -1.
        -11    1    4    4    0    0 -0.37901684554E-01  0.14060373849E-01 -0.23017448193E-01  0.46521993155E-01  0.51100000000E-03 0.  1.
         11    1    4    4    0    0 -0.78266347380E-01  0.18503145346E-01 -0.16955870367E-01  0.82193370662E-01  0.51100000000E-03 0. -1.
</event>
<event>
 8    1  0.1076043E+005  0.1043930E+01  0.7957747E-01            NaN
         13   -1    0    0    0    0  0.00000000000E+00  0.00000000000E+00  0.74505805969E-08  0.10566000000E+00  0.10566000000E+00 0. -1.
     999900   -1    0    0    0    0 -0.00000000000E+00 -0.00000000000E+00 -0.74505805969E-08  0.93827000000E+00  0.93827000000E+00 0. -1.
     999902    2    1    2    0    0 -0.19039667188E-01  0.14255969121E-01 -0.64980909736E-03  0.10201358025E+01  0.10198582704E+01 0.  0.
     999903    2    3    3    0    0  0.17197252137E-01 -0.86012422115E-01  0.92394241379E-01  0.12883110717E+00  0.19154009936E-01 0.  0.
         14    1    1    2    0    0  0.19039667188E-01 -0.14255969121E-01  0.64980909736E-03  0.23794197487E-01  0.00000000000E+00 0.  1.
     999901    1    3    3    0    0 -0.36236919325E-01  0.10026839124E+00 -0.93044050476E-01  0.89130469534E+00  0.88000000000E+00 0. -1.
        -11    1    4    4    0    0  0.20964163660E-01 -0.67870520059E-01  0.69580770439E-01  0.99436655147E-01  0.51100000000E-03 0. -1.
         11    1    4    4    0    0 -0.37669115229E-02 -0.18141902056E-01  0.22813470940E-01  0.29394452027E-01  0.51100000000E-03 0.  1.
</event>
<event>
 8    1  0.1076043E+005  0.1043930E+01  0.7957747E-01            NaN
         13   -1    0    0    0    0  0.00000000000E+00  0.00000000000E+00  0.74505805969E-08  0.10566000000E+00  0.10566000000E+00 0. -1.
     999900   -1    0    0    0    0 -0.00000000000E+00 -0.00000000000E+00 -0.74505805969E-08  0.93827000000E+00  0.93827000000E+00 0.  1.
     999902    2    1    2    0    0  0.24685598122E-01 -0.87676903941E-02 -0.14959569384E-01  0.10137631330E+01  0.10133141911E+01 0.  0.
     999903    2    3    3    0    0  0.11977143248E+00  0.15883903997E-02  0.37461406327E-01  0.12702950725E+00  0.19632109550E-01 0.  0.
         14    1    1    2    0    0 -0.24685598122E-01  0.87676903941E-02  0.14959569384E-01  0.30166867017E-01  0.00000000000E+00 0. -1.
     999901    1    3    3    0    0 -0.95085834363E-01 -0.10356080794E-01 -0.52420975710E-01  0.88673362573E+00  0.88000000000E+00 0. -1.
        -11    1    4    4    0    0  0.61980257813E-01  0.83041236833E-02  0.12780385677E-01  0.63828756903E-01  0.51100000000E-03 0.  1.
         11    1    4    4    0    0  0.57791174672E-01 -0.67157332836E-02  0.24681020649E-01  0.63200750350E-01  0.51100000000E-03 0. -1.
</event>
<event>
 8    1  0.1076043E+005  0.1043930E+01  0.7957747E-01            NaN
         13   -1    0    0    0    0  0.00000000000E+00  0.00000000000E+00  0.74505805969E-08  0.10566000000E+00  0.10566000000E+00 0. -1.
     999900   -1    0    0    0    0 -0.00000000000E+00 -0.00000000000E+00 -0.74505805969E-08  0.93827000000E+00  0.93827000000E+00 0. -1.
     999902    2    1    2    0    0 -0.20521851526E-01  0.11531632232E-01 -0.17530641868E-02  0.10203249546E+01  0.10200518687E+01 0.  0.
     999903    2    3    3    0    0 -0.35363181346E-01 -0.11222012110E+00  0.51622577380E-01  0.12994092479E+00  0.19386677519E-01 0.  0.
         14    1    1    2    0    0  0.20521851526E-01 -0.11531632232E-01  0.17530641868E-02  0.23605045351E-01  0.00000000000E+00 0.  1.
     999901    1    3    3    0    0  0.14841329819E-01  0.12375175333E+00 -0.53375641567E-01  0.89038402986E+00  0.88000000000E+00 0.  1.
        -11    1    4    4    0    0 -0.24855215445E-01 -0.79950539697E-01  0.26869521477E-01  0.87932376507E-01  0.51100000000E-03 0.  1.
         11    1    4    4    0    0 -0.10507965901E-01 -0.32269581399E-01  0.24753055903E-01  0.42008548279E-01  0.51100000000E-03 0. -1.
</event>
<event>
 8    1  0.1076043E+005  0.1043930E+01  0.7957747E-01            NaN
         13   -1    0    0    0    0  0.00000000000E+00  0.00000000000E+00  0.74505805969E-08  0.10566000000E+00  0.10566000000E+00 0. -1.
     999900   -1    0    0    0    0 -0.00000000000E+00 -0.00000000000E+00 -0.74505805969E-08  0.93827000000E+00  0.93827000000E+00 0.  1.
     999902    2    1    2    0    0  0.16717481039E-01 -0.78346564185E-02 -0.13527301254E-01  0.10210423638E+01  0.10207858075E+01 0.  0.
     999903    2    3    3    0    0  0.56959338365E-01 -0.89938013174E-01 -0.78827649607E-01  0.13389834852E+00  0.19538601642E-01 0.  0.
         14    1    1    2    0    0 -0.16717481039E-01  0.78346564185E-02  0.13527301254E-01  0.22887636241E-01  0.00000000000E+00 0. -1.
     999901    1    3    3    0    0 -0.40241857326E-01  0.82103356756E-01  0.65300348353E-01  0.88714401523E+00  0.88000000000E+00 0. -1.
        -11    1    4    4    0    0  0.10825538216E-01 -0.93200221202E-02 -0.17486868267E-01  0.22585543447E-01  0.51100000000E-03 0. -1.
         11    1    4    4    0    0  0.46133800150E-01 -0.80617991054E-01 -0.61340781340E-01  0.11131280508E+00  0.51100000000E-03 0.  1.
</event>
<event>
 8    1  0.1094677E+005  0.1043930E+01  0.7957747E-01            NaN
         13   -1    0    0    0    0  0.00000000000E+00  0.00000000000E+00  0.74505805969E-08  0.10566000000E+00  0.10566000000E+00 0.  1.
     999900   -1    0    0    0    0 -0.00000000000E+00 -0.00000000000E+00 -0.74505805969E-08  0.93827000000E+00  0.93827000000E+00 0. -1.
     999902    2    1    2    0    0 -0.19417722675E-01 -0.89273699273E-02 -0.12415727500E-01  0.10192136860E+01  0.10189139520E+01 0.  0.
     999903    2    3    3    0    0 -0.21312143623E-01 -0.61761552149E-01  0.10970041334E+00  0.12920953350E+00  0.19804698182E-01 0.  0.
         14    1    1    2    0    0  0.19417722675E-01  0.89273699273E-02  0.12415727500E-01  0.24716313986E-01  0.00000000000E+00 0. -1.
     999901    1    3    3    0    0  0.18944209472E-02  0.52834182222E-01 -0.12211614084E+00  0.89000415252E+00  0.88000000000E+00 0. -1.
        -11    1    4    4    0    0 -0.20210752919E-01 -0.36591633955E-01  0.55930290220E-01  0.69827506716E-01  0.51100000000E-03 0. -1.
         11    1    4    4    0    0 -0.11013907037E-02 -0.25169918193E-01  0.53770123120E-01  0.59382026782E-01  0.51100000000E-03 0.  1.
</event>
<event>
 8    1  0.1076043E+005  0.1043930E+01  0.7957747E-01            NaN
         13   -1    0    0    0    0  0.00000000000E+00  0.00000000000E+00  0.74505805969E-08  0.10566000000E+00  0.10566000000E+00 0.  1.
     999900   -1    0    0    0    0 -0.00000000000E+00 -0.00000000000E+00 -0.74505805969E-08  0.93827000000E+00  0.93827000000E+00 0.  1.
     999902    2    1    2    0    0  0.17201569552E-01  0.69266133201E-02 -0.14099585227E-01  0.10206347157E+01  0.10203688317E+01 0.  0.
     999903    2    3    3    0    0  0.11417838383E+00 -0.34917047456E-01 -0.55846515897E-01  0.13333645656E+00  0.20096610953E-01 0.  0.
         14    1    1    2    0    0 -0.17201569552E-01 -0.69266133201E-02  0.14099585227E-01  0.23295284302E-01  0.00000000000E+00 0.  1.
     999901    1    3    3    0    0 -0.96976814280E-01  0.41843660776E-01  0.41746930669E-01  0.88729825914E+00  0.88000000000E+00 0. -1.
        -11    1    4    4    0    0  0.51399445286E-01 -0.25320604962E-01 -0.22072628198E-01  0.61404381342E-01  0.51100000000E-03 0. -1.
         11    1    4    4    0    0  0.62778938545E-01 -0.95964424934E-02 -0.33773887699E-01  0.71932075215E-01  0.51100000000E-03 0.  1.
</event>
<event>
 8    1  0.1076043E+005  0.1043930E+01  0.7957747E-01            NaN
         13   -1    0    0    0    0  0.00000000000E+00  0.00000000000E+00  0.74505805969E-08  0.10566000000E+00  0.10566000000E+00 0. -1.
     999900   -1    0    0    0    0 -0.00000000000E+00 -0.00000000000E+00 -0.74505805969E-08  0.93827000000E+00  0.93827000000E+00 0. -1.
     999902    2    1    2    0    0  0.20603198576E-01 -0.94512958478E-02  0.42422876535E-02  0.10208688684E+01  0.10206083631E+01 0.  0.
     999903    2    3    3    0    0 -0.86111910742E-01  0.69607026324E-01 -0.61980497221E-01  0.12844307874E+00  0.19890780676E-01 0.  0.
         14    1    1    2    0    0 -0.20603198576E-01  0.94512958478E-02 -0.42422876535E-02  0.23061131571E-01  0.00000000000E+00 0.  1.
     999901    1    3    3    0    0  0.10671510932E+00 -0.79058322172E-01  0.66222784874E-01  0.89242578969E+00  0.88000000000E+00 0.  1.
        -11    1    4    4    0    0 -0.36560491235E-01  0.27644293093E-01 -0.14765021357E-01  0.48157485780E-01  0.51100000000E-03 0. -1.
         11    1    4    4    0    0 -0.49551419506E-01  0.41962733231E-01 -0.47215475864E-01  0.80285592963E-01  0.51100000000E-03 0.  1.
</event>
<event>
 8    1  0.1076043E+005  0.1043930E+01  0.7957747E-01            NaN
         13   -1    0    0    0    0  0.00000000000E+00  0.00000000000E+00  0.74505805969E-08  0.10566000000E+00  0.10566000000E+00 0.  1.
     999900   -1    0    0    0    0 -0.00000000000E+00 -0.00000000000E+00 -0.74505805969E-08  0.93827000000E+00  0.93827000000E+00 0.  1.
     999902    2    1    2    0    0 -0.13533918144E-01  0.14435407406E-01  0.12594292330E-01  0.10204744223E+01  0.10202048237E+01 0.  0.
     999903    2    3    3    0    0 -0.93568231958E-01  0.32499495929E-01  0.87335653450E-01  0.13350312976E+00  0.19604540902E-01 0.  0.
         14    1    1    2    0    0  0.13533918144E-01 -0.14435407406E-01 -0.12594292330E-01  0.23455577729E-01  0.00000000000E+00 0. -1.
     999901    1    3    3    0    0  0.80034313814E-01 -0.18064088523E-01 -0.74741361120E-01  0.88697129251E+00  0.88000000000E+00 0.  1.
        -11    1    4    4    0    0 -0.39723295216E-01  0.23639710891E-01  0.36166135241E-01  0.58694348732E-01  0.51100000000E-03 0.  1.
         11    1    4    4    0    0 -0.53844936742E-01  0.88597850384E-02  0.51169518209E-01  0.74808781025E-01  0.51100000000E-03 0. -1.
</event>
<event>
 8    1  0.1076043E+005  0.1043930E+01  0.7957747E-01            NaN
         13   -1    0    0    0    0  0.00000000000E+00  0.00000000000E+00  0.74505805969E-08  0.10566000000E+00  0.10566000000E+00 0.  1.
     999900   -1    0    0    0    0 -0.00000000000E+00 -0.00000000000E+00 -0.74505805969E-08  0.93827000000E+00  0.93827000000E+00 0. -1.
     999902    2    1    2    0    0  0.15038123095E-01 -0.82672523912E-02 -0.14957972320E-01  0.10211652566E+01  0.10209114788E+01 0.  0.
     999903    2    3    3    0    0  0.67156872746E-01  0.65584031370E-01  0.88440356168E-01  0.13051291668E+00  0.20015346475E-01 0.  0.
         14    1    1    2    0    0 -0.15038123095E-01  0.82672523912E-02  0.14957972320E-01  0.22764743448E-01  0.00000000000E+00 0.  1.
     999901    1    3    3    0    0 -0.52118749651E-01 -0.73851283761E-01 -0.10339832849E+00  0.89065233987E+00  0.88000000000E+00 0. -1.
        -11    1    4    4    0    0  0.32221886130E-01  0.43494560186E-01  0.43421463645E-01  0.69395326483E-01  0.51100000000E-03 0. -1.
         11    1    4    4    0    0  0.34934986617E-01  0.22089471184E-01  0.45018892523E-01  0.61117590202E-01  0.51100000000E-03 0.  1.
</event>
<event>
 8    1  0.1186046E+005  0.1043930E+01  0.7957747E-01            NaN
         13   -1    0    0    0    0  0.00000000000E+00  0.00000000000E+00  0.74505805969E-08  0.10566000000E+00  0.10566000000E+00 0. -1.
     999900   -1    0    0    0    0 -0.00000000000E+00 -0.00000000000E+00 -0.74505805969E-08  0.93827000000E+00  0.93827000000E+00 0.  1.
     999902    2    1    2    0    0 -0.20370871806E-01  0.84464507236E-02 -0.87441246845E-02  0.10202071278E+01  0.10199312766E+01 0.  0.
     999903    2    3    3    0    0 -0.86702799924E-01 -0.96490649933E-01 -0.70217061612E-02  0.13149193919E+00  0.20322516439E-01 0.  0.
         14    1    1    2    0    0  0.20370871806E-01 -0.84464507236E-02  0.87441246845E-02  0.23722872180E-01  0.00000000000E+00 0. -1.
     999901    1    3    3    0    0  0.66331928119E-01  0.10493710066E+00 -0.17224185232E-02  0.88871518863E+00  0.88000000000E+00 0. -1.
        -11    1    4    4    0    0 -0.35201661693E-01 -0.44242613971E-01  0.64251270820E-02  0.56904386966E-01  0.51100000000E-03 0. -1.
         11    1    4    4    0    0 -0.51501138231E-01 -0.52248035963E-01 -0.13446833243E-01  0.74587552221E-01  0.51100000000E-03 0.  1.
</event>
<event>
 8    1  0.1076043E+005  0.1043930E+01  0.7957747E-01            NaN
         13   -1    0    0    0    0  0.00000000000E+00  0.00000000000E+00  0.74505805969E-08  0.10566000000E+00  0.10566000000E+00 0.  1.
     999900   -1    0    0    0    0 -0.00000000000E+00 -0.00000000000E+00 -0.74505805969E-08  0.93827000000E+00  0.93827000000E+00 0.  1.
     999902    2    1    2    0    0  0.19300240518E-01 -0.10745210875E-01 -0.56004036235E-02  0.10211413326E+01  0.10208870152E+01 0.  0.
     999903    2    3    3    0    0  0.67380580073E-01 -0.94295462374E-01 -0.64173583799E-01  0.13394170399E+00  0.19757388889E-01 0.  0.
         14    1    1    2    0    0 -0.19300240518E-01  0.10745210875E-01  0.56004036235E-02  0.22788667393E-01  0.00000000000E+00 0.  1.
     999901    1    3    3    0    0 -0.48080339555E-01  0.83550251498E-01  0.58573180176E-01  0.88719962861E+00  0.88000000000E+00 0.  1.
        -11    1    4    4    0    0  0.13954480101E-01 -0.31931103951E-01 -0.25413777758E-01  0.43132866069E-01  0.51100000000E-03 0. -1.
         11    1    4    4    0    0  0.53426099972E-01 -0.62364358423E-01 -0.38759806041E-01  0.90808837923E-01  0.51100000000E-03 0.  1.
</event>
<event>
 8    1  0.1076043E+005  0.1043930E+01  0.7957747E-01            NaN
         13   -1    0    0    0    0  0.00000000000E+00  0.00000000000E+00  0.74505805969E-08  0.10566000000E+00  0.10566000000E+00 0. -1.
     999900   -1    0    0    0    0 -0.00000000000E+00 -0.00000000000E+00 -0.74505805969E-08  0.93827000000E+00  0.93827000000E+00 0. -1.
     999902    2    1    2    0    0  0.17478834929E-02 -0.82702410905E-02  0.22601603452E-01  0.10197994289E+01  0.10195138992E+01 0.  0.
     999903    2    3    3    0    0  0.32567071696E-01 -0.47462157986E-01 -0.11257015681E+00  0.12808353607E+00  0.20495887578E-01 0.  0.
         14    1    1    2    0    0 -0.17478834929E-02  0.82702410905E-02 -0.22601603452E-01  0.24130571128E-01  0.00000000000E+00 0.  1.
     999901    1    3    3    0    0 -0.30819188204E-01  0.39191916896E-01  0.13517176026E+00  0.89171589281E+00  0.88000000000E+00 0.  1.
        -11    1    4    4    0    0  0.10156654686E-01 -0.96514387412E-02 -0.47744279971E-01  0.49760278286E-01  0.51100000000E-03 0.  1.
         11    1    4    4    0    0  0.22410417010E-01 -0.37810719245E-01 -0.64825876837E-01  0.78323257779E-01  0.51100000000E-03 0. -1.
</event>
<event>
 8    1  0.1076043E+005  0.1043930E+01  0.7957747E-01            NaN
         13   -1    0    0    0    0  0.00000000000E+00  0.00000000000E+00  0.74505805969E-08  0.10566000000E+00  0.10566000000E+00 0.  1.
     999900   -1    0    0    0    0 -0.00000000000E+00 -0.00000000000E+00 -0.74505805969E-08  0.93827000000E+00  0.93827000000E+00 0.  1.
     999902    2    1    2    0    0 -0.13785445110E-01 -0.13241531160E-01  0.13619422687E-01  0.10204594798E+01  0.10201895337E+01 0.  0.
     999903    2    3    3    0    0  0.18680740041E-01 -0.12041816064E+00 -0.45010609985E-01  0.13142721727E+00  0.19941288006E-01 0.  0.
         14    1    1    2    0    0  0.13785445110E-01  0.13241531160E-01 -0.13619422687E-01  0.23470520205E-01  0.00000000000E+00 0.  1.
     999901    1    3    3    0    0 -0.32466185151E-01  0.10717662948E+00  0.58630032672E-01  0.88903226253E+00  0.88000000000E+00 0.  1.
        -11    1    4    4    0    0  0.17420888874E-01 -0.71783671186E-01 -0.19072839479E-01  0.76291658422E-01  0.51100000000E-03 0.  1.
         11    1    4    4    0    0  0.12598511669E-02 -0.48634489453E-01 -0.25937770506E-01  0.55135558845E-01  0.51100000000E-03 0. -1.
</event>
<event>
 8    1  0.1076043E+005  0.1043930E+01  0.7957747E-01            NaN
         13   -1    0    0    0    0  0.00000000000E+00  0.00000000000E+00  0.74505805969E-08  0.10566000000E+00  0.10566000000E+00 0.  1.
     999900   -1    0    0    0    0 -0.00000000000E+00 -0.00000000000E+00 -0.74505805969E-08  0.93827000000E+00  0.93827000000E+00 0. -1.
     999902    2    1    2    0    0 -0.15649921958E-01 -0.14595047900E-01 -0.10210292201E-01  0.10202195477E+01  0.10199439887E+01 0.  0.
     999903    2    3    3    0    0 -0.13720121363E-01 -0.12935993306E+00  0.15387839615E-02  0.13268772080E+00  0.26104202431E-01 0.  0.
         14    1    1    2    0    0  0.15649921958E-01  0.14595047900E-01  0.10210292201E-01  0.23710452280E-01  0.00000000000E+00 0.  1.
     999901    1    3    3    0    0 -0.19298005953E-02  0.11476488516E+00 -0.11749076162E-01  0.88753182691E+00  0.88000000000E+00 0.  1.
        -11    1    4    4    0    0  0.73227211518E-02 -0.24849012935E-01  0.28769094649E-02  0.26069779784E-01  0.51100000000E-03 0. -1.
         11    1    4    4    0    0 -0.21042842515E-01 -0.10451092013E+00 -0.13381255033E-02  0.10661794102E+00  0.51100000000E-03 0.  1.
</event>
<event>
 8    1  0.1076043E+005  0.1043930E+01  0.7957747E-01            NaN
         13   -1    0    0    0    0  0.00000000000E+00  0.00000000000E+00  0.74505805969E-08  0.10566000000E+00  0.10566000000E+00 0. -1.
     999900   -1    0    0    0    0 -0.00000000000E+00 -0.00000000000E+00 -0.74505805969E-08  0.93827000000E+00  0.93827000000E+00 0. -1.
     999902    2    1    2    0    0  0.14060453910E-01 -0.14814523990E-01 -0.62261727164E-02  0.10225774425E+01  0.10223544856E+01 0.  0.
     999903    2    3    3    0    0 -0.20423767840E-01  0.12080623971E+00  0.40178236989E-01  0.13031317540E+00  0.18866772644E-01 0.  0.
         14    1    1    2    0    0 -0.14060453910E-01  0.14814523990E-01  0.62261727164E-02  0.21352557503E-01  0.00000000000E+00 0.  1.
     999901    1    3    3    0    0  0.34484221750E-01 -0.13562076370E+00 -0.46404409705E-01  0.89226426710E+00  0.88000000000E+00 0. -1.
        -11    1    4    4    0    0 -0.64251981010E-02  0.11597047379E-01  0.49755163208E-03  0.13277174292E-01  0.51100000000E-03 0. -1.
         11    1    4    4    0    0 -0.13998569739E-01  0.10920919233E+00  0.39680685357E-01  0.11703600111E+00  0.51100000000E-03 0.  1.
</event>
<event>
 8    1  0.1076043E+005  0.1043930E+01  0.7957747E-01            NaN
         13   -1    0    0    0    0  0.00000000000E+00  0.00000000000E+00  0.74505805969E-08  0.10566000000E+00  0.10566000000E+00 0. -1.
     999900   -1    0    0    0    0 -0.00000000000E+00 -0.00000000000E+00 -0.74505805969E-08  0.93827000000E+00  0.93827000000E+00 0.  1.
     999902    2    1    2    0    0  0.98349571135E-02 -0.15234625650E-01  0.15406755609E-01  0.10201352880E+01  0.10198577438E+01 0.  0.
     999903    2    3    3    0    0 -0.86846190744E-01 -0.25868723181E-01  0.93015583607E-01  0.13138140838E+00  0.19943018532E-01 0.  0.
         14    1    1    2    0    0 -0.98349571135E-02  0.15234625650E-01 -0.15406755609E-01  0.23794711987E-01  0.00000000000E+00 0.  1.
     999901    1    3    3    0    0  0.96681147858E-01  0.10634097531E-01 -0.77608827998E-01  0.88875387963E+00  0.88000000000E+00 0.  1.
        -11    1    4    4    0    0 -0.24110755288E-01 -0.31169526220E-02  0.14403083839E-01  0.28262233798E-01  0.51100000000E-03 0. -1.
         11    1    4    4    0    0 -0.62735435456E-01 -0.22751770559E-01  0.78612499768E-01  0.10311917458E+00  0.51100000000E-03 0.  1.
</event>
<event>
 8    1  0.1076043E+005  0.1043930E+01  0.7957747E-01            NaN
         13   -1    0    0    0    0  0.00000000000E+00  0.00000000000E+00  0.74505805969E-08  0.10566000000E+00  0.10566000000E+00 0. -1.
     999900   -1    0    0    0    0 -0.00000000000E+00 -0.00000000000E+00 -0.74505805969E-08  0.93827000000E+00  0.93827000000E+00 0.  1.
     999902    2    1    2    0    0  0.13197376350E-02  0.10184623709E-01 -0.20962902733E-01  0.10205866592E+01  0.10203196643E+01 0.  0.
     999903    2    3    3    0    0 -0.77241604057E-01  0.10480902568E+00 -0.26370935022E-02  0.13184513485E+00  0.20615238552E-01 0.  0.
         14    1    1    2    0    0 -0.13197376350E-02 -0.10184623709E-01  0.20962902733E-01  0.23343340775E-01  0.00000000000E+00 0. -1.
     999901    1    3    3    0    0  0.78561341692E-01 -0.94624401974E-01 -0.18325809231E-01  0.88874152437E+00  0.88000000000E+00 0. -1.
        -11    1    4    4    0    0 -0.74059192142E-01  0.93625844848E-01  0.17979032147E-02  0.11939035280E+00  0.51100000000E-03 0.  1.
         11    1    4    4    0    0 -0.31824119155E-02  0.11183180835E-01 -0.44349967169E-02  0.12454782056E-01  0.51100000000E-03 0. -1.
</event>
<event>
 8    1  0.1076043E+005  0.1043930E+01  0.7957747E-01            NaN
         13   -1    0    0    0    0  0.00000000000E+00  0.00000000000E+00  0.74505805969E-08  0.10566000000E+00  0.10566000000E+00 0. -1.
     999900   -1    0    0    0    0 -0.00000000000E+00 -0.00000000000E+00 -0.74505805969E-08  0.93827000000E+00  0.93827000000E+00 0.  1.
     999902    2    1    2    0    0 -0.96541772087E-02  0.18591992537E-01 -0.10978746116E-01  0.10202783998E+01  0.10200042230E+01 0.  0.
     999903    2    3    3    0    0 -0.64014749262E-01 -0.25517465661E-01  0.10810227672E+00  0.12950289159E+00  0.18326688754E-01 0.  0.
         14    1    1    2    0    0  0.96541772087E-02 -0.18591992537E-01  0.10978746116E-01  0.23651600165E-01  0.00000000000E+00 0. -1.
     999901    1    3    3    0    0  0.54360572053E-01  0.44109458198E-01 -0.11908102284E+00  0.89077550825E+00  0.88000000000E+00 0.  1.
        -11    1    4    4    0    0 -0.38508160506E-01 -0.16652211594E-01  0.48914941706E-01  0.64444605823E-01  0.51100000000E-03 0.  1.
         11    1    4    4    0    0 -0.25506588756E-01 -0.88652540668E-02  0.59187335013E-01  0.65058285764E-01  0.51100000000E-03 0. -1.
</event>
<event>
 8    1  0.1076043E+005  0.1043930E+01  0.7957747E-01            NaN
         13   -1    0    0    0    0  0.00000000000E+00  0.00000000000E+00  0.74505805969E-08  0.10566000000E+00  0.10566000000E+00 0. -1.
     999900   -1    0    0    0    0 -0.00000000000E+00 -0.00000000000E+00 -0.74505805969E-08  0.93827000000E+00  0.93827000000E+00 0. -1.
     999902    2    1    2    0    0  0.49107259112E-03  0.51308589229E-02 -0.22939622717E-01  0.10204184463E+01  0.10201475445E+01 0.  0.
     999903    2    3    3    0    0 -0.43027520406E-01  0.11278883025E+00 -0.50910742595E-01  0.13234947926E+00  0.18756151163E-01 0.  0.
         14    1    1    2    0    0 -0.49107259112E-03 -0.51308589229E-02  0.22939622717E-01  0.23511553670E-01  0.00000000000E+00 0. -1.
     999901    1    3    3    0    0  0.43518592997E-01 -0.10765797133E+00  0.27971119878E-01  0.88806896707E+00  0.88000000000E+00 0. -1.
        -11    1    4    4    0    0 -0.23636783887E-01  0.68505109766E-01 -0.20809088933E-01  0.75398454359E-01  0.51100000000E-03 0.  1.
         11    1    4    4    0    0 -0.19390736518E-01  0.44283720487E-01 -0.30101653662E-01  0.56951024900E-01  0.51100000000E-03 0. -1.
</event>
<event>
 8    1  0.1076043E+005  0.1043930E+01  0.7957747E-01            NaN
         13   -1    0    0    0    0  0.00000000000E+00  0.00000000000E+00  0.74505805969E-08  0.10566000000E+00  0.10566000000E+00 0. -1.
     999900   -1    0    0    0    0 -0.00000000000E+00 -0.00000000000E+00 -0.74505805969E-08  0.93827000000E+00  0.93827000000E+00 0. -1.
     999902    2    1    2    0    0 -0.33656482850E-02 -0.19188664254E-01 -0.12710618037E-01  0.10206686106E+01  0.10204035087E+01 0.  0.
     999903    2    3    3    0    0  0.10070028553E+00 -0.83252461468E-01 -0.81764262412E-02  0.13221239473E+00  0.18486306469E-01 0.  0.
         14    1    1    2    0    0  0.33656482850E-02  0.19188664254E-01  0.12710618037E-01  0.23261389363E-01  0.00000000000E+00 0. -1.
     999901    1    3    3    0    0 -0.10406593382E+00  0.64063797214E-01 -0.45341917958E-02  0.88845621591E+00  0.88000000000E+00 0. -1.
        -11    1    4    4    0    0  0.65225986132E-01 -0.42918583119E-01 -0.80510582978E-02  0.78495316449E-01  0.51100000000E-03 0. -1.
         11    1    4    4    0    0  0.35474299399E-01 -0.40333878349E-01 -0.12536794341E-03  0.53717078277E-01  0.51100000000E-03 0.  1.
</event>
<event>
 8    1  0.1076043E+005  0.1043930E+01  0.7957747E-01            NaN
         13   -1    0    0    0    0  0.00000000000E+00  0.00000000000E+00  0.74505805969E-08  0.10566000000E+00  0.10566000000E+00 0. -1.
     999900   -1    0    0    0    0 -0.00000000000E+00 -0.00000000000E+00 -0.74505805969E-08  0.93827000000E+00  0.93827000000E+00 0. -1.
     999902    2    1    2    0    0 -0.74874456775E-02  0.21242821089E-01 -0.10945661089E-01  0.10188875004E+01  0.10185797031E+01 0.  0.
     999903    2    3    3    0    0  0.96621193186E-01 -0.17899100136E-01 -0.81165912027E-01  0.12911135869E+00  0.20635040790E-01 0.  0.
         14    1    1    2    0    0  0.74874456775E-02 -0.21242821089E-01  0.10945661089E-01  0.25042499621E-01  0.00000000000E+00 0. -1.
     999901    1    3    3    0    0 -0.10410863886E+00  0.39141921225E-01  0.70220250937E-01  0.88977614169E+00  0.88000000000E+00 0.  1.
        -11    1    4    4    0    0  0.57961974465E-01 -0.17488441066E-01 -0.39615077173E-01  0.72353655852E-01  0.51100000000E-03 0. -1.
         11    1    4    4    0    0  0.38659218722E-01 -0.41065907023E-03 -0.41550834853E-01  0.56757702835E-01  0.51100000000E-03 0.  1.
</event>
<event>
 8    1  0.1076043E+005  0.1043930E+01  0.7957747E-01            NaN
         13   -1    0    0    0    0  0.00000000000E+00  0.00000000000E+00  0.74505805969E-08  0.10566000000E+00  0.10566000000E+00 0. -1.
     999900   -1    0    0    0    0 -0.00000000000E+00 -0.00000000000E+00 -0.74505805969E-08  0.93827000000E+00  0.93827000000E+00 0. -1.
     999902    2    1    2    0    0 -0.22156034653E-02 -0.11249942718E-01  0.22045586901E-01  0.10190808952E+01  0.10187778918E+01 0.  0.
     999903    2    3    3    0    0  0.44937931674E-01  0.10716562532E+00  0.53251670565E-01  0.12935086740E+00  0.19799432456E-01 0.  0.
         14    1    1    2    0    0  0.22156034653E-02  0.11249942718E-01 -0.22045586901E-01  0.24849104846E-01  0.00000000000E+00 0.  1.
     999901    1    3    3    0    0 -0.47153535139E-01 -0.11841556804E+00 -0.31206083664E-01  0.88973002775E+00  0.88000000000E+00 0. -1.
        -11    1    4    4    0    0  0.65181983863E-02  0.30313661466E-01  0.21567511385E-01  0.37773319288E-01  0.51100000000E-03 0.  1.
         11    1    4    4    0    0  0.38419733288E-01  0.76851963854E-01  0.31684159179E-01  0.91577548111E-01  0.51100000000E-03 0. -1.
</event>
<event>
 8    1  0.1076043E+005  0.1043930E+01  0.7957747E-01            NaN
         13   -1    0    0    0    0  0.00000000000E+00  0.00000000000E+00  0.74505805969E-08  0.10566000000E+00  0.10566000000E+00 0. -1.
     999900   -1    0    0    0    0 -0.00000000000E+00 -0.00000000000E+00 -0.74505805969E-08  0.93827000000E+00  0.93827000000E+00 0.  1.
     999902    2    1    2    0    0 -0.15073165527E-01  0.11360619400E-01  0.13011646058E-01  0.10210047535E+01  0.10207473438E+01 0.  0.
     999903    2    3    3    0    0 -0.49993016529E-01 -0.10410014673E+00  0.59859580406E-01  0.13154125599E+00  0.19590569433E-01 0.  0.
         14    1    1    2    0    0  0.15073165527E-01 -0.11360619400E-01 -0.13011646058E-01  0.22925246462E-01  0.00000000000E+00 0.  1.
     999901    1    3    3    0    0  0.34919851002E-01  0.11546076613E+00 -0.46847934348E-01  0.88946349754E+00  0.88000000000E+00 0. -1.
        -11    1    4    4    0    0 -0.43038416927E-02 -0.28194302749E-01  0.15299227577E-01  0.32369263913E-01  0.51100000000E-03 0.  1.
         11    1    4    4    0    0 -0.45689174837E-01 -0.75905843985E-01  0.44560352829E-01  0.99171992082E-01  0.51100000000E-03 0. -1.
</event>
<event>
 8    1  0.1076043E+005  0.1043930E+01  0.7957747E-01            NaN
         13   -1    0    0    0    0  0.00000000000E+00  0.00000000000E+00  0.74505805969E-08  0.10566000000E+00  0.10566000000E+00 0. -1.
     999900   -1    0    0    0    0 -0.00000000000E+00 -0.00000000000E+00 -0.74505805969E-08  0.93827000000E+00  0.93827000000E+00 0. -1.
     999902    2    1    2    0    0  0.74001193794E-02  0.41201420288E-03  0.23388238902E-01  0.10193955091E+01  0.10191002222E+01 0.  0.
     999903    2    3    3    0    0 -0.75686118212E-01  0.28653503667E-02  0.10600276418E+00  0.13162611255E+00  0.18768291579E-01 0.  0.
         14    1    1    2    0    0 -0.74001193794E-02 -0.41201420288E-03 -0.23388238902E-01  0.24534490855E-01  0.00000000000E+00 0.  1.
     999901    1    3    3    0    0  0.83086237591E-01 -0.24533361638E-02 -0.82614525282E-01  0.88776939659E+00  0.88000000000E+00 0. -1.
        -11    1    4    4    0    0 -0.32021369736E-01  0.34698067545E-02  0.30268735787E-01  0.44202547051E-01  0.51100000000E-03 0.  1.
         11    1    4    4    0    0 -0.43664748476E-01 -0.60445638781E-03  0.75734028398E-01  0.87423565504E-01  0.51100000000E-03 0. -1.
</event>
<event>
 8    1  0.1076043E+005  0.1043930E+01  0.7957747E-01            NaN
         13   -1    0    0    0    0  0.00000000000E+00  0.00000000000E+00  0.74505805969E-08  0.10566000000E+00  0.10566000000E+00 0. -1.
     999900   -1    0    0    0    0 -0.00000000000E+00 -0.00000000000E+00 -0.74505805969E-08  0.93827000000E+00  0.93827000000E+00 0.  1.
     999902    2    1    2    0    0  0.71202659341E-02  0.17665103796E-01  0.13198116545E-01  0.10207579401E+01  0.10204948936E+01 0.  0.
     999903    2    3    3    0    0 -0.11906551285E+00 -0.35896430004E-01  0.31736318729E-01  0.12995192666E+00  0.20375457720E-01 0.  0.
         14    1    1    2    0    0 -0.71202659341E-02 -0.17665103796E-01 -0.13198116545E-01  0.23172059887E-01  0.00000000000E+00 0.  1.
     999901    1    3    3    0    0  0.12618577879E+00  0.53561533799E-01 -0.18538202185E-01  0.89080601346E+00  0.88000000000E+00 0.  1.
        -11    1    4    4    0    0 -0.10939935475E+00 -0.31098859770E-01  0.34403269450E-01  0.11882425665E+00  0.51100000000E-03 0. -1.
         11    1    4    4    0    0 -0.96661581026E-02 -0.47975702333E-02 -0.26669507205E-02  0.11127670006E-01  0.51100000000E-03 0.  1.
</event>
<event>
 7    1  0.1076043E+005  0.1043930E+01  0.7957747E-01            NaN
         13   -1    0    0    0    0  0.00000000000E+00  0.00000000000E+00  0.74505805969E-08  0.10566000000E+00  0.10566000000E+00 0. -1.
     999900   -1    0    0    0    0 -0.00000000000E+00 -0.00000000000E+00 -0.74505805969E-08  0.93827000000E+00  0.93827000000E+00 0. -1.
     999902    2    1    2    0    0  0.49845221749E-02 -0.14897419446E-01  0.18875877741E-01  0.10193723672E+01  0.10190765161E+01 0.  0.
         14    1    1    2    0    0 -0.49845221749E-02  0.14897419446E-01 -0.18875877741E-01  0.24557632784E-01  0.00000000000E+00 0.  1.
     999901    1    3    3    0    0  0.27532974368E-01  0.10521810880E+00 -0.17114477546E-02  0.88669715470E+00  0.88000000000E+00 0.  1.
        -11    1    3    3    0    0 -0.19039616104E-02 -0.76290949709E-01 -0.74860126649E-02  0.76682694162E-01  0.51100000000E-03 0.  1.
         11    1    3    3    0    0 -0.20644490583E-01 -0.43824578536E-01  0.28073338160E-01  0.55992518355E-01  0.51100000000E-03 0. -1.
</event>
<event>
 8    1  0.1076043E+005  0.1043930E+01  0.7957747E-01            NaN
         13   -1    0    0    0    0  0.00000000000E+00  0.00000000000E+00  0.74505805969E-08  0.10566000000E+00  0.10566000000E+00 0. -1.
     999900   -1    0    0    0    0 -0.00000000000E+00 -0.00000000000E+00 -0.74505805969E-08  0.93827000000E+00  0.93827000000E+00 0. -1.
     999902    2    1    2    0    0  0.13201195420E-01 -0.96251061598E-02 -0.18407429482E-01  0.10193180580E+01  0.10190208809E+01 0.  0.
     999903    2    3    3    0    0  0.49708177338E-01 -0.91343952958E-01 -0.79762101626E-01  0.13265288701E+00  0.20498169163E-01 0.  0.
         14    1    1    2    0    0 -0.13201195420E-01  0.96251061598E-02  0.18407429482E-01  0.24611942005E-01  0.00000000000E+00 0. -1.
     999901    1    3    3    0    0 -0.36506981918E-01  0.81718846798E-01  0.61354672144E-01  0.88666517099E+00  0.88000000000E+00 0.  1.
        -11    1    4    4    0    0  0.15278407935E-01 -0.44609540564E-01 -0.27780798517E-01  0.54730930429E-01  0.51100000000E-03 0.  1.
         11    1    4    4    0    0  0.34429769403E-01 -0.46734412394E-01 -0.51981303109E-01  0.77921956577E-01  0.51100000000E-03 0. -1.
</event>
<event>
 8    1  0.1076043E+005  0.1043930E+01  0.7957747E-01            NaN
         13   -1    0    0    0    0  0.00000000000E+00  0.00000000000E+00  0.74505805969E-08  0.10566000000E+00  0.10566000000E+00 0.  1.
     999900   -1    0    0    0    0 -0.00000000000E+00 -0.00000000000E+00 -0.74505805969E-08  0.93827000000E+00  0.93827000000E+00 0.  1.
     999902    2    1    2    0    0  0.16521328571E-01 -0.13392732137E-01 -0.12948295481E-01  0.10190306440E+01  0.10187263988E+01 0.  0.
     999903    2    3    3    0    0 -0.97122080607E-01  0.78687216895E-01  0.50243507458E-02  0.12677700438E+00  0.20561811548E-01 0.  0.
         14    1    1    2    0    0 -0.16521328571E-01  0.13392732137E-01  0.12948295481E-01  0.24899355970E-01  0.00000000000E+00 0.  1.
     999901    1    3    3    0    0  0.11364340918E+00 -0.92079949031E-01 -0.17972646226E-01  0.89225363965E+00  0.88000000000E+00 0.  1.
        -11    1    4    4    0    0 -0.56471424384E-01  0.46176106162E-01  0.13050862032E-01  0.74106954283E-01  0.51100000000E-03 0. -1.
         11    1    4    4    0    0 -0.40650656223E-01  0.32511110732E-01 -0.80265112867E-02  0.52670050094E-01  0.51100000000E-03 0.  1.
</event>
<event>
 8    1  0.1076043E+005  0.1043930E+01  0.7957747E-01            NaN
         13   -1    0    0    0    0  0.00000000000E+00  0.00000000000E+00  0.74505805969E-08  0.10566000000E+00  0.10566000000E+00 0. -1.
     999900   -1    0    0    0    0 -0.00000000000E+00 -0.00000000000E+00 -0.74505805969E-08  0.93827000000E+00  0.93827000000E+00 0.  1.
     999902    2    1    2    0    0  0.84649093042E-02 -0.65387467272E-02 -0.20786546668E-01  0.10205528654E+01  0.10202850880E+01 0.  0.
     999903    2    3    3    0    0 -0.28537218872E-01 -0.12373035466E+00  0.23493547208E-01  0.13091037703E+00  0.21494337124E-01 0.  0.
         14    1    1    2    0    0 -0.84649093042E-02  0.65387467272E-02  0.20786546668E-01  0.23377134570E-01  0.00000000000E+00 0. -1.
     999901    1    3    3    0    0  0.37002128177E-01  0.11719160793E+00 -0.44280093876E-01  0.88964248840E+00  0.88000000000E+00 0.  1.
        -11    1    4    4    0    0 -0.16818697732E-02 -0.26807703419E-01 -0.26405515218E-02  0.26994726927E-01  0.51100000000E-03 0. -1.
         11    1    4    4    0    0 -0.26855349099E-01 -0.96922651238E-01  0.26134098730E-01  0.10391565010E+00  0.51100000000E-03 0.  1.
</event>
<event>
 8    1  0.1076043E+005  0.1043930E+01  0.7957747E-01            NaN
         13   -1    0    0    0    0  0.00000000000E+00  0.00000000000E+00  0.74505805969E-08  0.10566000000E+00  0.10566000000E+00 0. -1.
     999900   -1    0    0    0    0 -0.00000000000E+00 -0.00000000000E+00 -0.74505805969E-08  0.93827000000E+00  0.93827000000E+00 0. -1.
     999902    2    1    2    0    0 -0.19681630929E-01 -0.19978566576E-01  0.52697059607E-03  0.10158802689E+01  0.10154929509E+01 0.  0.
     999903    2    3    3    0    0 -0.37562911191E-01  0.35952986749E-01  0.11351419373E+00  0.12671538459E+00  0.21626996098E-01 0.  0.
         14    1    1    2    0    0  0.19681630929E-01  0.19978566576E-01 -0.52697059607E-03  0.28049731130E-01  0.00000000000E+00 0. -1.
     999901    1    3    3    0    0  0.17881280262E-01 -0.55931553325E-01 -0.11298722314E+00  0.88916488428E+00  0.88000000000E+00 0. -1.
        -11    1    4    4    0    0 -0.22796503994E-01  0.70975601180E-02  0.49594461505E-01  0.55044778925E-01  0.51100000000E-03 0.  1.
         11    1    4    4    0    0 -0.14766407197E-01  0.28855426631E-01  0.63919732227E-01  0.71670605666E-01  0.51100000000E-03 0. -1.
</event>
<event>
 8    1  0.1076043E+005  0.1043930E+01  0.7957747E-01            NaN
         13   -1    0    0    0    0  0.00000000000E+00  0.00000000000E+00  0.74505805969E-08  0.10566000000E+00  0.10566000000E+00 0.  1.
     999900   -1    0    0    0    0 -0.00000000000E+00 -0.00000000000E+00 -0.74505805969E-08  0.93827000000E+00  0.93827000000E+00 0.  1.
     999902    2    1    2    0    0 -0.20320468206E-02 -0.23547517829E-01  0.49321838350E-03  0.10202898208E+01  0.10200159118E+01 0.  0.
     999903    2    3    3    0    0 -0.12629160498E+00  0.11894887810E-02  0.27511760884E-01  0.13080549885E+00  0.20054854026E-01 0.  0.
         14    1    1    2    0    0  0.20320468206E-02  0.23547517829E-01 -0.49321838350E-03  0.23640179242E-01  0.00000000000E+00 0.  1.
     999901    1    3    3    0    0  0.12425955816E+00 -0.24737006610E-01 -0.27018542501E-01  0.88948432191E+00  0.88000000000E+00 0.  1.
        -11    1    4    4    0    0 -0.63820764467E-01  0.17869532044E-02  0.24072544811E-01  0.68235120822E-01  0.51100000000E-03 0. -1.
         11    1    4    4    0    0 -0.62470840511E-01 -0.59746442338E-03  0.34392160727E-02  0.62570378024E-01  0.51100000000E-03 0.  1.
</event>
<event>
 8    1  0.1076043E+005  0.1043930E+01  0.7957747E-01            NaN
         13   -1    0    0    0    0  0.00000000000E+00  0.00000000000E+00  0.74505805969E-08  0.10566000000E+00  0.10566000000E+00 0.  1.
     999900   -1    0    0    0    0 -0.00000000000E+00 -0.00000000000E+00 -0.74505805969E-08  0.93827000000E+00  0.93827000000E+00 0. -1.
     999902    2    1    2    0    0 -0.17661801937E-02  0.90952552672E-02 -0.24075989667E-01  0.10181327843E+01  0.10178059098E+01 0.  0.
     999903    2    3    3    0    0 -0.12091487350E+00 -0.38120357005E-01 -0.11109270569E-01  0.12875442780E+00  0.19512010016E-01 0.  0.
         14    1    1    2    0    0  0.17661801937E-02 -0.90952552672E-02  0.24075989667E-01  0.25797215727E-01  0.00000000000E+00 0.  1.
     999901    1    3    3    0    0  0.11914869330E+00  0.47215612272E-01 -0.12966719097E-01  0.88937835647E+00  0.88000000000E+00 0.  1.
        -11    1    4    4    0    0 -0.67319354011E-01 -0.12333185194E-01 -0.10708478899E-01  0.69274349674E-01  0.51100000000E-03 0.  1.
         11    1    4    4    0    0 -0.53595519485E-01 -0.25787171811E-01 -0.40079166993E-03  0.59480078126E-01  0.51100000000E-03 0. -1.
</event>
<event>
 8    1  0.1076043E+005  0.1043930E+01  0.7957747E-01            NaN
         13   -1    0    0    0    0  0.00000000000E+00  0.00000000000E+00  0.74505805969E-08  0.10566000000E+00  0.10566000000E+00 0.  1.
     999900   -1    0    0    0    0 -0.00000000000E+00 -0.00000000000E+00 -0.74505805969E-08  0.93827000000E+00  0.93827000000E+00 0.  1.
     999902    2    1    2    0    0 -0.18559620194E-02  0.17372682657E-01  0.19842943597E-01  0.10174914466E+01  0.10171478981E+01 0.  0.
     999903    2    3    3    0    0 -0.74054398246E-01 -0.58794983496E-01  0.85049159690E-01  0.12885992664E+00  0.20751316746E-01 0.  0.
         14    1    1    2    0    0  0.18559620194E-02 -0.17372682657E-01 -0.19842943597E-01  0.26438553446E-01  0.00000000000E+00 0. -1.
     999901    1    3    3    0    0  0.72198436226E-01  0.76167666153E-01 -0.65206216093E-01  0.88863151991E+00  0.88000000000E+00 0.  1.
        -11    1    4    4    0    0 -0.34353684148E-01 -0.22084670073E-01  0.24279221964E-01  0.47514734630E-01  0.51100000000E-03 0. -1.
         11    1    4    4    0    0 -0.39700714098E-01 -0.36710313423E-01  0.60769937726E-01  0.81345192014E-01  0.51100000000E-03 0.  1.
</event>
<event>
 8    1  0.1076043E+005  0.1043930E+01  0.7957747E-01            NaN
         13   -1    0    0    0    0  0.00000000000E+00  0.00000000000E+00  0.74505805969E-08  0.10566000000E+00  0.10566000000E+00 0.  1.
     999900   -1    0    0    0    0 -0.00000000000E+00 -0.00000000000E+00 -0.74505805969E-08  0.93827000000E+00  0.93827000000E+00 0. -1.
     999902    2    1    2    0    0 -0.22892382299E-01  0.87730372093E-02  0.13217129044E-02  0.10193785382E+01  0.10190828376E+01 0.  0.
     999903    2    3    3    0    0  0.78413064972E-01  0.10007457748E+00 -0.52486069757E-02  0.12884951906E+00  0.20276115790E-01 0.  0.
         14    1    1    2    0    0  0.22892382299E-01 -0.87730372093E-02 -0.13217129044E-02  0.24551461753E-01  0.00000000000E+00 0.  1.
     999901    1    3    3    0    0 -0.10130544727E+00 -0.91301540273E-01  0.65703198801E-02  0.89052901918E+00  0.88000000000E+00 0. -1.
        -11    1    4    4    0    0  0.48449724014E-01  0.54756848788E-01 -0.12025734047E-01  0.74098364668E-01  0.51100000000E-03 0.  1.
         11    1    4    4    0    0  0.29963340958E-01  0.45317728694E-01  0.67771270710E-02  0.54751154396E-01  0.51100000000E-03 0. -1.
</event>
<event>
 8    1  0.1076043E+005  0.1043930E+01  0.7957747E-01            NaN
         13   -1    0    0    0    0  0.00000000000E+00  0.00000000000E+00  0.74505805969E-08  0.10566000000E+00  0.10566000000E+00 0. -1.
     999900   -1    0    0    0    0 -0.00000000000E+00 -0.00000000000E+00 -0.74505805969E-08  0.93827000000E+00  0.93827000000E+00 0. -1.
     999902    2    1    2    0    0 -0.13629023705E-01  0.37336780538E-02  0.19994977581E-01  0.10194455199E+01  0.10191514501E+01 0.  0.
     999903    2    3    3    0    0 -0.11407711682E+00 -0.60000332339E-01 -0.70893656710E-03  0.13119977935E+00  0.24479604725E-01 0.  0.
         14    1    1    2    0    0  0.13629023705E-01 -0.37336780538E-02 -0.19994977581E-01  0.24484480134E-01  0.00000000000E+00 0.  1.
     999901    1    3    3    0    0  0.10044809311E+00  0.63734010393E-01  0.20703914148E-01  0.88824574052E+00  0.88000000000E+00 0.  1.
        -11    1    4    4    0    0 -0.48162983902E-01 -0.12173039909E-01 -0.24669113092E-02  0.49741357957E-01  0.51100000000E-03 0. -1.
         11    1    4    4    0    0 -0.65914132915E-01 -0.47827292431E-01  0.17579747421E-02  0.81458421390E-01  0.51100000000E-03 0.  1.
</event>
<event>
 8    1  0.1076043E+005  0.1043930E+01  0.7957747E-01            NaN
         13   -1    0    0    0    0  0.00000000000E+00  0.00000000000E+00  0.74505805969E-08  0.10566000000E+00  0.10566000000E+00 0.  1.
     999900   -1    0    0    0    0 -0.00000000000E+00 -0.00000000000E+00 -0.74505805969E-08  0.93827000000E+00  0.93827000000E+00 0. -1.
     999902    2    1    2    0    0 -0.12468425279E-01  0.12548119936E-01  0.15245073799E-01  0.10205777149E+01  0.10203105130E+01 0.  0.
     999903    2    3    3    0    0 -0.55207997267E-01 -0.10526284461E+00  0.51307936354E-01  0.13096733705E+00  0.19792665863E-01 0.  0.
         14    1    1    2    0    0  0.12468425279E-01 -0.12548119936E-01 -0.15245073799E-01  0.23352285070E-01  0.00000000000E+00 0. -1.
     999901    1    3    3    0    0  0.42739571989E-01  0.11781096455E+00 -0.36062862556E-01  0.88961037788E+00  0.88000000000E+00 0. -1.
        -11    1    4    4    0    0 -0.39555582180E-02 -0.11901518780E-01 -0.43191684200E-03  0.12559469067E-01  0.51100000000E-03 0. -1.
         11    1    4    4    0    0 -0.51252439049E-01 -0.93361325833E-01  0.51739853196E-01  0.11840786798E+00  0.51100000000E-03 0.  1.
</event>
<event>
 8    1  0.1076043E+005  0.1043930E+01  0.7957747E-01            NaN
         13   -1    0    0    0    0  0.00000000000E+00  0.00000000000E+00  0.74505805969E-08  0.10566000000E+00  0.10566000000E+00 0. -1.
     999900   -1    0    0    0    0 -0.00000000000E+00 -0.00000000000E+00 -0.74505805969E-08  0.93827000000E+00  0.93827000000E+00 0. -1.
     999902    2    1    2    0    0 -0.10070485205E-01  0.18939271885E-01  0.76281986755E-02  0.10211637946E+01  0.10209099840E+01 0.  0.
     999903    2    3    3    0    0 -0.10609161188E+00  0.15301796421E-02  0.73072484713E-01  0.13335408088E+00  0.34437643692E-01 0.  0.
         14    1    1    2    0    0  0.10070485205E-01 -0.18939271885E-01 -0.76281986755E-02  0.22766205367E-01  0.00000000000E+00 0.  1.
     999901    1    3    3    0    0  0.96021126679E-01  0.17409092243E-01 -0.65444286037E-01  0.88780971375E+00  0.88000000000E+00 0. -1.
        -11    1    4    4    0    0 -0.27886494064E-01  0.82038293972E-02  0.50887952518E-02  0.29514679840E-01  0.51100000000E-03 0. -1.
         11    1    4    4    0    0 -0.78205117820E-01 -0.66736497550E-02  0.67983689461E-01  0.10383940104E+00  0.51100000000E-03 0.  1.
</event>
<event>
 8    1  0.1076043E+005  0.1043930E+01  0.7957747E-01            NaN
         13   -1    0    0    0    0  0.00000000000E+00  0.00000000000E+00  0.74505805969E-08  0.10566000000E+00  0.10566000000E+00 0. -1.
     999900   -1    0    0    0    0 -0.00000000000E+00 -0.00000000000E+00 -0.74505805969E-08  0.93827000000E+00  0.93827000000E+00 0.  1.
     999902    2    1    2    0    0  0.19706035917E-01 -0.19424394414E-02  0.12052115048E-01  0.10207490941E+01  0.10204858444E+01 0.  0.
     999903    2    3    3    0    0  0.63995099653E-01 -0.63844524874E-01  0.96141274879E-01  0.13346989554E+00  0.19989300736E-01 0.  0.
         14    1    1    2    0    0 -0.19706035917E-01  0.19424394414E-02 -0.12052115048E-01  0.23180905928E-01  0.00000000000E+00 0. -1.
     999901    1    3    3    0    0 -0.44289063736E-01  0.61902085432E-01 -0.84089159831E-01  0.88727919853E+00  0.88000000000E+00 0.  1.
        -11    1    4    4    0    0  0.58309179231E-02 -0.97872971025E-02  0.46261337385E-02  0.12306625157E-01  0.51100000000E-03 0.  1.
         11    1    4    4    0    0  0.58164181730E-01 -0.54057227771E-01  0.91515141140E-01  0.12116327038E+00  0.51100000000E-03 0. -1.
</event>
<event>
 8    1  0.1076043E+005  0.1043930E+01  0.7957747E-01            NaN
         13   -1    0    0    0    0  0.00000000000E+00  0.00000000000E+00  0.74505805969E-08  0.10566000000E+00  0.10566000000E+00 0. -1.
     999900   -1    0    0    0    0 -0.00000000000E+00 -0.00000000000E+00 -0.74505805969E-08  0.93827000000E+00  0.93827000000E+00 0. -1.
     999902    2    1    2    0    0  0.75093711703E-02 -0.74486132174E-02 -0.26349290046E-01  0.10155370857E+01  0.10151400962E+01 0.  0.
     999903    2    3    3    0    0 -0.43617522636E-01 -0.65499867772E-01  0.93672680015E-01  0.12402759015E+00  0.20385072454E-01 0.  0.
         14    1    1    2    0    0 -0.75093711703E-02  0.74486132174E-02  0.26349290046E-01  0.28392914260E-01  0.00000000000E+00 0. -1.
     999901    1    3    3    0    0  0.51126893806E-01  0.58051254555E-01 -0.12002197006E+00  0.89150949559E+00  0.88000000000E+00 0. -1.
        -11    1    4    4    0    0 -0.95753719722E-02 -0.34678568389E-02  0.15829014055E-01  0.18829035727E-01  0.51100000000E-03 0. -1.
         11    1    4    4    0    0 -0.34042150664E-01 -0.62032010933E-01  0.77843665960E-01  0.10519855443E+00  0.51100000000E-03 0.  1.
</event>
<event>
 7    1  0.1076043E+005  0.1043930E+01  0.7957747E-01            NaN
         13   -1    0    0    0    0  0.00000000000E+00  0.00000000000E+00  0.74505805969E-08  0.10566000000E+00  0.10566000000E+00 0.  1.
     999900   -1    0    0    0    0 -0.00000000000E+00 -0.00000000000E+00 -0.74505805969E-08  0.93827000000E+00  0.93827000000E+00 0.  1.
     999903    2    1    2    0    0  0.83642635870E-02  0.81413642031E-01  0.54456715795E-01  0.10023625640E+00  0.19586505248E-01 0.  0.
         14    1    1    2    0    0 -0.51638158063E-01  0.18796843723E-02  0.20373973146E-01  0.55543958837E-01  0.00000000000E+00 0. -1.
     999901    1    1    2    0    0  0.43273894476E-01 -0.83293326404E-01 -0.74830688941E-01  0.88814978476E+00  0.88000000000E+00 0. -1.
        -11    1    3    3    0    0 -0.47097257975E-02  0.37194975907E-01  0.18798116635E-01  0.41943748757E-01  0.51100000000E-03 0.  1.
         11    1    3    3    0    0  0.13073989385E-01  0.44218666125E-01  0.35658599160E-01  0.58292507643E-01  0.51100000000E-03 0. -1.
</event>
<event>
 8    1  0.1076043E+005  0.1043930E+01  0.7957747E-01            NaN
         13   -1    0    0    0    0  0.00000000000E+00  0.00000000000E+00  0.74505805969E-08  0.10566000000E+00  0.10566000000E+00 0.  1.
     999900   -1    0    0    0    0 -0.00000000000E+00 -0.00000000000E+00 -0.74505805969E-08  0.93827000000E+00  0.93827000000E+00 0.  1.
     999902    2    1    2    0    0 -0.18255705971E-01  0.35300670486E-02  0.14985506574E-01  0.10200490959E+01  0.10197695134E+01 0.  0.
     999903    2    3    3    0    0 -0.12094099301E+00  0.48413455609E-01  0.13577235114E-01  0.13294100215E+00  0.22768009692E-01 0.  0.
         14    1    1    2    0    0  0.18255705971E-01 -0.35300670486E-02 -0.14985506574E-01  0.23880904110E-01  0.00000000000E+00 0. -1.
     999901    1    3    3    0    0  0.10268528704E+00 -0.44883388560E-01  0.14082714596E-02  0.88710809374E+00  0.88000000000E+00 0. -1.
        -11    1    4    4    0    0 -0.87503561158E-01  0.45286407761E-01  0.75571950569E-02  0.98818542093E-01  0.51100000000E-03 0.  1.
         11    1    4    4    0    0 -0.33437431855E-01  0.31270478474E-02  0.60200400571E-02  0.34122460061E-01  0.51100000000E-03 0. -1.
</event>
<event>
 8    1  0.1076043E+005  0.1043930E+01  0.7957747E-01            NaN
         13   -1    0    0    0    0  0.00000000000E+00  0.00000000000E+00  0.74505805969E-08  0.10566000000E+00  0.10566000000E+00 0.  1.
     999900   -1    0    0    0    0 -0.00000000000E+00 -0.00000000000E+00 -0.74505805969E-08  0.93827000000E+00  0.93827000000E+00 0.  1.
     999902    2    1    2    0    0 -0.15942122054E-01  0.85990563879E-02 -0.95817912531E-02  0.10234383981E+01  0.10232332329E+01 0.  0.
     999903    2    3    3    0    0 -0.28749796662E-01 -0.12763230194E+00  0.86725537863E-02  0.13267679099E+00  0.20282070234E-01 0.  0.
         14    1    1    2    0    0  0.15942122054E-01 -0.85990563879E-02  0.95817912531E-02  0.20491601938E-01  0.00000000000E+00 0. -1.
     999901    1    3    3    0    0  0.12807674608E-01  0.13623135832E+00 -0.18254345039E-01  0.89076160707E+00  0.88000000000E+00 0. -1.
        -11    1    4    4    0    0 -0.17033293063E-01 -0.10394901435E+00  0.12092913478E-01  0.10602844115E+00  0.51100000000E-03 0. -1.
         11    1    4    4    0    0 -0.11716503599E-01 -0.23683287590E-01 -0.34203596914E-02  0.26648349838E-01  0.51100000000E-03 0.  1.
</event>
<event>
 8    1  0.1076043E+005  0.1043930E+01  0.7957747E-01            NaN
         13   -1    0    0    0    0  0.00000000000E+00  0.00000000000E+00  0.74505805969E-08  0.10566000000E+00  0.10566000000E+00 0. -1.
     999900   -1    0    0    0    0 -0.00000000000E+00 -0.00000000000E+00 -0.74505805969E-08  0.93827000000E+00  0.93827000000E+00 0. -1.
     999902    2    1    2    0    0  0.11123565171E-01 -0.13849183044E-01  0.14426060057E-01  0.10210467139E+01  0.10207902562E+01 0.  0.
     999903    2    3    3    0    0 -0.12517286484E+00  0.15453550776E-01 -0.21227598011E-01  0.12935924043E+00  0.19394428156E-01 0.  0.
         14    1    1    2    0    0 -0.11123565171E-01  0.13849183044E-01 -0.14426060057E-01  0.22883286081E-01  0.00000000000E+00 0.  1.
     999901    1    3    3    0    0  0.13629643001E+00 -0.29302733820E-01  0.35653658068E-01  0.89168747349E+00  0.88000000000E+00 0. -1.
        -11    1    4    4    0    0 -0.87537456743E-01  0.10924573668E-01 -0.23768333808E-01  0.91363819184E-01  0.51100000000E-03 0.  1.
         11    1    4    4    0    0 -0.37635408097E-01  0.45289771077E-02  0.25407357975E-02  0.37995421247E-01  0.51100000000E-03 0. -1.
</event>
<event>
 8    1  0.1076043E+005  0.1043930E+01  0.7957747E-01            NaN
         13   -1    0    0    0    0  0.00000000000E+00  0.00000000000E+00  0.74505805969E-08  0.10566000000E+00  0.10566000000E+00 0.  1.
     999900   -1    0    0    0    0 -0.00000000000E+00 -0.00000000000E+00 -0.74505805969E-08  0.93827000000E+00  0.93827000000E+00 0.  1.
     999902    2    1    2    0    0 -0.42392404723E-02 -0.11218181198E-01  0.20508625198E-01  0.10201724232E+01  0.10198957547E+01 0.  0.
     999903    2    3    3    0    0  0.15460886784E-02 -0.12341008670E+00 -0.38906934512E-01  0.13104324109E+00  0.20643197274E-01 0.  0.
         14    1    1    2    0    0  0.42392404723E-02  0.11218181198E-01 -0.20508625198E-01  0.23757576827E-01  0.00000000000E+00 0.  1.
     999901    1    3    3    0    0 -0.57853291507E-02  0.11219190550E+00  0.59415559710E-01  0.88912918208E+00  0.88000000000E+00 0. -1.
        -11    1    4    4    0    0  0.96720091505E-02 -0.47447319239E-01 -0.10618813217E-01  0.49576367143E-01  0.51100000000E-03 0. -1.
         11    1    4    4    0    0 -0.81259204721E-02 -0.75962767459E-01 -0.28288121295E-01  0.81466873948E-01  0.51100000000E-03 0.  1.
</event>
<event>
 8    1  0.1076043E+005  0.1043930E+01  0.7957747E-01            NaN
         13   -1    0    0    0    0  0.00000000000E+00  0.00000000000E+00  0.74505805969E-08  0.10566000000E+00  0.10566000000E+00 0.  1.
     999900   -1    0    0    0    0 -0.00000000000E+00 -0.00000000000E+00 -0.74505805969E-08  0.93827000000E+00  0.93827000000E+00 0.  1.
     999902    2    1    2    0    0  0.16183383604E-01 -0.22427789060E-02  0.17201734013E-01  0.10202059275E+01  0.10199300481E+01 0.  0.
     999903    2    3    3    0    0 -0.11589309784E+00 -0.51304790204E-01  0.13785636954E-01  0.12899161680E+00  0.19631652864E-01 0.  0.
         14    1    1    2    0    0 -0.16183383604E-01  0.22427789060E-02 -0.17201734013E-01  0.23724072483E-01  0.00000000000E+00 0. -1.
     999901    1    3    3    0    0  0.13207648144E+00  0.49062011298E-01  0.34160970591E-02  0.89121431071E+00  0.88000000000E+00 0.  1.
        -11    1    4    4    0    0 -0.84778052501E-01 -0.31117927756E-01  0.16476628197E-01  0.91800784373E-01  0.51100000000E-03 0. -1.
         11    1    4    4    0    0 -0.31115045339E-01 -0.20186862448E-01 -0.26909912423E-02  0.37190832430E-01  0.51100000000E-03 0.  1.
</event>
<event>
 8    1  0.1076043E+005  0.1043930E+01  0.7957747E-01            NaN
         13   -1    0    0    0    0  0.00000000000E+00  0.00000000000E+00  0.74505805969E-08  0.10566000000E+00  0.10566000000E+00 0.  1.
     999900   -1    0    0    0    0 -0.00000000000E+00 -0.00000000000E+00 -0.74505805969E-08  0.93827000000E+00  0.93827000000E+00 0.  1.
     999902    2    1    2    0    0  0.14405413561E-01 -0.58995736466E-02  0.18212812073E-01  0.10199711304E+01  0.10196896976E+01 0.  0.
     999903    2    3    3    0    0  0.29257775630E-01 -0.12663820580E+00 -0.36116725095E-03  0.13140858186E+00  0.19360587313E-01 0.  0.
         14    1    1    2    0    0 -0.14405413561E-01  0.58995736466E-02 -0.18212812073E-01  0.23958869604E-01  0.00000000000E+00 0. -1.
     999901    1    3    3    0    0 -0.14852362069E-01  0.12073863216E+00  0.18573979324E-01  0.88856254854E+00  0.88000000000E+00 0. -1.
        -11    1    4    4    0    0  0.63794520860E-02 -0.19472512922E-01 -0.69116901423E-02  0.21631198535E-01  0.51100000000E-03 0.  1.
         11    1    4    4    0    0  0.22878323544E-01 -0.10716569288E+00  0.65505228914E-02  0.10977738333E+00  0.51100000000E-03 0. -1.
</event>
<event>
 8    1  0.1076043E+005  0.1043930E+01  0.7957747E-01            NaN
         13   -1    0    0    0    0  0.00000000000E+00  0.00000000000E+00  0.74505805969E-08  0.10566000000E+00  0.10566000000E+00 0.  1.
     999900   -1    0    0    0    0 -0.00000000000E+00 -0.00000000000E+00 -0.74505805969E-08  0.93827000000E+00  0.93827000000E+00 0.  1.
     999902    2    1    2    0    0  0.55094221845E-02  0.13000055500E-01 -0.16053989323E-01  0.10225504362E+01  0.10223269090E+01 0.  0.
     999903    2    3    3    0    0 -0.11998100286E+00 -0.22617387562E-01 -0.47463265221E-01  0.13238023243E+00  0.19099139399E-01 0.  0.
         14    1    1    2    0    0 -0.55094221845E-02 -0.13000055500E-01  0.16053989323E-01  0.21379563817E-01  0.00000000000E+00 0. -1.
     999901    1    3    3    0    0  0.12549042505E+00  0.35617443062E-01  0.31409275898E-01  0.89017020375E+00  0.88000000000E+00 0.  1.
        -11    1    4    4    0    0 -0.83244376054E-01 -0.24355132558E-01 -0.31399979675E-01  0.92244341134E-01  0.51100000000E-03 0.  1.
         11    1    4    4    0    0 -0.36736626809E-01  0.17377449966E-02 -0.16063285546E-01  0.40135891301E-01  0.51100000000E-03 0. -1.
</event>
<event>
 8    1  0.1076043E+005  0.1043930E+01  0.7957747E-01            NaN
         13   -1    0    0    0    0  0.00000000000E+00  0.00000000000E+00  0.74505805969E-08  0.10566000000E+00  0.10566000000E+00 0. -1.
     999900   -1    0    0    0    0 -0.00000000000E+00 -0.00000000000E+00 -0.74505805969E-08  0.93827000000E+00  0.93827000000E+00 0.  1.
     999902    2    1    2    0    0 -0.13557274995E-01  0.68455250834E-03  0.19323912693E-01  0.10203147101E+01  0.10200413843E+01 0.  0.
     999903    2    3    3    0    0  0.81655719686E-01  0.86485075928E-01 -0.45162760279E-01  0.12869496198E+00  0.19375071768E-01 0.  0.
         14    1    1    2    0    0  0.13557274995E-01 -0.68455250834E-03 -0.19323912693E-01  0.23615289945E-01  0.00000000000E+00 0.  1.
     999901    1    3    3    0    0 -0.95212994681E-01 -0.85800523420E-01  0.64486672971E-01  0.89161974808E+00  0.88000000000E+00 0. -1.
        -11    1    4    4    0    0  0.69303432434E-01  0.62283598053E-01 -0.32211217517E-01  0.98590242866E-01  0.51100000000E-03 0. -1.
         11    1    4    4    0    0  0.12352287253E-01  0.24201477875E-01 -0.12951542762E-01  0.30104719109E-01  0.51100000000E-03 0.  1.
</event>
<event>
 8    1  0.1076043E+005  0.1043930E+01  0.7957747E-01            NaN
         13   -1    0    0    0    0  0.00000000000E+00  0.00000000000E+00  0.74505805969E-08  0.10566000000E+00  0.10566000000E+00 0.  1.
     999900   -1    0    0    0    0 -0.00000000000E+00 -0.00000000000E+00 -0.74505805969E-08  0.93827000000E+00  0.93827000000E+00 0. -1.
     999902    2    1    2    0    0  0.21936799502E-01  0.48423901969E-03 -0.83739087971E-02  0.10204442595E+01  0.10201739590E+01 0.  0.
     999903    2    3    3    0    0 -0.16155741943E-01  0.76887345937E-01  0.10111574834E+00  0.12955904718E+00  0.19709900572E-01 0.  0.
         14    1    1    2    0    0 -0.21936799502E-01 -0.48423901969E-03  0.83739087971E-02  0.23485740532E-01  0.00000000000E+00 0.  1.
     999901    1    3    3    0    0  0.38092541445E-01 -0.76403106917E-01 -0.10948965713E+00  0.89088521229E+00  0.88000000000E+00 0. -1.
        -11    1    4    4    0    0 -0.20714203973E-01  0.66215464859E-01  0.86204139848E-01  0.11065704171E+00  0.51100000000E-03 0.  1.
         11    1    4    4    0    0  0.45584620296E-02  0.10671881078E-01  0.14911608489E-01  0.18902005463E-01  0.51100000000E-03 0. -1.
</event>
<event>
 8    1  0.1076043E+005  0.1043930E+01  0.7957747E-01            NaN
         13   -1    0    0    0    0  0.00000000000E+00  0.00000000000E+00  0.74505805969E-08  0.10566000000E+00  0.10566000000E+00 0. -1.
     999900   -1    0    0    0    0 -0.00000000000E+00 -0.00000000000E+00 -0.74505805969E-08  0.93827000000E+00  0.93827000000E+00 0. -1.
     999902    2    1    2    0    0  0.66416124836E-03  0.23299357912E-01  0.26386749505E-02  0.10204722978E+01  0.10202026498E+01 0.  0.
     999903    2    3    3    0    0  0.94692607761E-01  0.86057819949E-01 -0.28541083548E-01  0.13269296106E+00  0.20498539624E-01 0.  0.
         14    1    1    2    0    0 -0.66416124836E-03 -0.23299357912E-01 -0.26386749505E-02  0.23457702249E-01  0.00000000000E+00 0. -1.
     999901    1    3    3    0    0 -0.94028446512E-01 -0.62758462036E-01  0.31179758499E-01  0.88777933669E+00  0.88000000000E+00 0.  1.
        -11    1    4    4    0    0  0.44494878593E-01  0.54152663352E-01 -0.16485871115E-01  0.72002432157E-01  0.51100000000E-03 0.  1.
         11    1    4    4    0    0  0.50197729168E-01  0.31905156597E-01 -0.12055212434E-01  0.60690528906E-01  0.51100000000E-03 0. -1.
</event>
<event>
 8    1  0.1076043E+005  0.1043930E+01  0.7957747E-01            NaN
         13   -1    0    0    0    0  0.00000000000E+00  0.00000000000E+00  0.74505805969E-08  0.10566000000E+00  0.10566000000E+00 0.  1.
     999900   -1    0    0    0    0 -0.00000000000E+00 -0.00000000000E+00 -0.74505805969E-08  0.93827000000E+00  0.93827000000E+00 0.  1.
     999902    2    1    2    0    0  0.21584611529E-01 -0.77947136002E-02  0.12439308109E-01  0.10178265634E+01  0.10174917807E+01 0.  0.
     999903    2    3    3    0    0  0.25394415160E-01  0.43321152169E-01 -0.11503177041E+00  0.12716600957E+00  0.20427609727E-01 0.  0.
         14    1    1    2    0    0 -0.21584611529E-01  0.77947136002E-02 -0.12439308109E-01  0.26103436578E-01  0.00000000000E+00 0. -1.
     999901    1    3    3    0    0 -0.38098036311E-02 -0.51115865769E-01  0.12747107852E+00  0.89066055386E+00  0.88000000000E+00 0. -1.
        -11    1    4    4    0    0  0.23702696548E-01  0.44907304669E-01 -0.10225200517E+00  0.11416749764E+00  0.51100000000E-03 0.  1.
         11    1    4    4    0    0  0.16917186118E-02 -0.15861524996E-02 -0.12779765240E-01  0.12998511923E-01  0.51100000000E-03 0. -1.
</event>
<event>
 8    1  0.1076043E+005  0.1043930E+01  0.7957747E-01            NaN
         13   -1    0    0    0    0  0.00000000000E+00  0.00000000000E+00  0.74505805969E-08  0.10566000000E+00  0.10566000000E+00 0.  1.
     999900   -1    0    0    0    0 -0.00000000000E+00 -0.00000000000E+00 -0.74505805969E-08  0.93827000000E+00  0.93827000000E+00 0.  1.
     999902    2    1    2    0    0  0.79831251275E-03 -0.21566475747E-01  0.86962224484E-02  0.10206625450E+01  0.10203973031E+01 0.  0.
     999903    2    3    3    0    0  0.64798979043E-01  0.89077313413E-01 -0.63151232690E-01  0.12853016117E+00  0.19956169251E-01 0.  0.
         14    1    1    2    0    0 -0.79831251275E-03  0.21566475747E-01 -0.86962224484E-02  0.23267455037E-01  0.00000000000E+00 0. -1.
     999901    1    3    3    0    0 -0.64000666530E-01 -0.11064378916E+00  0.71847455139E-01  0.89213238379E+00  0.88000000000E+00 0. -1.
        -11    1    4    4    0    0  0.58365154226E-01  0.86486383225E-01 -0.62300357201E-01  0.12152358347E+00  0.51100000000E-03 0.  1.
         11    1    4    4    0    0  0.64338248164E-02  0.25909301875E-02 -0.85087548937E-03  0.70065777026E-02  0.51100000000E-03 0. -1.
</event>
<event>
 8    1  0.1076043E+005  0.1043930E+01  0.7957747E-01            NaN
         13   -1    0    0    0    0  0.00000000000E+00  0.00000000000E+00  0.74505805969E-08  0.10566000000E+00  0.10566000000E+00 0.  1.
     999900   -1    0    0    0    0 -0.00000000000E+00 -0.00000000000E+00 -0.74505805969E-08  0.93827000000E+00  0.93827000000E+00 0.  1.
     999902    2    1    2    0    0 -0.21408584685E-01 -0.57881531692E-02 -0.91085833001E-02  0.10199550859E+01  0.10196732716E+01 0.  0.
     999903    2    3    3    0    0 -0.73846905189E-01  0.10247864232E+00  0.28689451835E-01  0.13096680258E+00  0.19338593368E-01 0.  0.
         14    1    1    2    0    0  0.21408584685E-01  0.57881531692E-02  0.91085833001E-02  0.23974914078E-01  0.00000000000E+00 0.  1.
     999901    1    3    3    0    0  0.52438320504E-01 -0.10826679549E+00 -0.37798035135E-01  0.88898828334E+00  0.88000000000E+00 0. -1.
        -11    1    4    4    0    0 -0.34401236550E-01  0.50169789523E-01  0.40432623155E-02  0.60967712341E-01  0.51100000000E-03 0.  1.
         11    1    4    4    0    0 -0.39445668640E-01  0.52308852795E-01  0.24646189519E-01  0.69999090237E-01  0.51100000000E-03 0. -1.
</event>
<event>
 8    1  0.1076043E+005  0.1043930E+01  0.7957747E-01            NaN
         13   -1    0    0    0    0  0.00000000000E+00  0.00000000000E+00  0.74505805969E-08  0.10566000000E+00  0.10566000000E+00 0. -1.
     999900   -1    0    0    0    0 -0.00000000000E+00 -0.00000000000E+00 -0.74505805969E-08  0.93827000000E+00  0.93827000000E+00 0.  1.
     999902    2    1    2    0    0 -0.31599770083E-02 -0.17333697993E-02  0.23068681487E-01  0.10205814649E+01  0.10203143498E+01 0.  0.
     999903    2    3    3    0    0  0.49336148111E-01 -0.29288145868E-01 -0.11276970269E+00  0.12818739531E+00  0.20570645887E-01 0.  0.
         14    1    1    2    0    0  0.31599770083E-02  0.17333697993E-02 -0.23068681487E-01  0.23348535096E-01  0.00000000000E+00 0.  1.
     999901    1    3    3    0    0 -0.52496125119E-01  0.27554776069E-01  0.13583838418E+00  0.89239406960E+00  0.88000000000E+00 0. -1.
        -11    1    4    4    0    0  0.80807089394E-02 -0.67232887056E-02 -0.75964641168E-02  0.12979516788E-01  0.51100000000E-03 0. -1.
         11    1    4    4    0    0  0.41255439171E-01 -0.22564857162E-01 -0.10517323857E+00  0.11520787852E+00  0.51100000000E-03 0.  1.
</event>
<event>
 8    1  0.1076043E+005  0.1043930E+01  0.7957747E-01            NaN
         13   -1    0    0    0    0  0.00000000000E+00  0.00000000000E+00  0.74505805969E-08  0.10566000000E+00  0.10566000000E+00 0.  1.
     999900   -1    0    0    0    0 -0.00000000000E+00 -0.00000000000E+00 -0.74505805969E-08  0.93827000000E+00  0.93827000000E+00 0.  1.
     999902    2    1    2    0    0  0.16137746237E-01  0.89166629058E-02  0.13280787090E-01  0.10212074773E+01  0.10209546507E+01 0.  0.
     999903    2    3    3    0    0  0.11802259448E+00 -0.56513376935E-01  0.12493021010E-01  0.13291572740E+00  0.19682998644E-01 0.  0.
         14    1    1    2    0    0 -0.16137746237E-01 -0.89166629058E-02 -0.13280787090E-01  0.22722522675E-01  0.00000000000E+00 0.  1.
     999901    1    3    3    0    0 -0.10188484824E+00  0.65430039841E-01  0.78776608055E-03  0.88829174993E+00  0.88000000000E+00 0. -1.
        -11    1    4    4    0    0  0.47218019953E-01 -0.12529794834E-01  0.19203021115E-02  0.48892595023E-01  0.51100000000E-03 0.  1.
         11    1    4    4    0    0  0.70804574525E-01 -0.43983582101E-01  0.10572718898E-01  0.84023132374E-01  0.51100000000E-03 0. -1.
</event>
<event>
 8    1  0.1076043E+005  0.1043930E+01  0.7957747E-01            NaN
         13   -1    0    0    0    0  0.00000000000E+00  0.00000000000E+00  0.74505805969E-08  0.10566000000E+00  0.10566000000E+00 0. -1.
     999900   -1    0    0    0    0 -0.00000000000E+00 -0.00000000000E+00 -0.74505805969E-08  0.93827000000E+00  0.93827000000E+00 0.  1.
     999902    2    1    2    0    0 -0.15146019270E-01  0.14897146724E-01  0.12118970399E-01  0.10194719477E+01  0.10191785201E+01 0.  0.
     999903    2    3    3    0    0  0.17978568618E-01 -0.12371968568E+00  0.12556479484E-01  0.12800570828E+00  0.24454173910E-01 0.  0.
         14    1    1    2    0    0  0.15146019270E-01 -0.14897146724E-01 -0.12118970399E-01  0.24458052330E-01  0.00000000000E+00 0. -1.
     999901    1    3    3    0    0 -0.33124587888E-01  0.13861683241E+00 -0.43750908473E-03  0.89146623939E+00  0.88000000000E+00 0.  1.
        -11    1    4    4    0    0  0.46343654865E-02 -0.98900914650E-01  0.12700538106E-01  0.99822006848E-01  0.51100000000E-03 0. -1.
         11    1    4    4    0    0  0.13344203132E-01 -0.24818771032E-01 -0.14405862201E-03  0.28183701436E-01  0.51100000000E-03 0.  1.
</event>
<event>
 8    1  0.1076043E+005  0.1043930E+01  0.7957747E-01            NaN
         13   -1    0    0    0    0  0.00000000000E+00  0.00000000000E+00  0.74505805969E-08  0.10566000000E+00  0.10566000000E+00 0.  1.
     999900   -1    0    0    0    0 -0.00000000000E+00 -0.00000000000E+00 -0.74505805969E-08  0.93827000000E+00  0.93827000000E+00 0.  1.
     999902    2    1    2    0    0 -0.19681858916E-01  0.13979807603E-01 -0.69061581009E-02  0.10188201292E+01  0.10185106529E+01 0.  0.
     999903    2    3    3    0    0 -0.12216782608E+00 -0.37862044445E-01  0.20284011065E-01  0.13094048851E+00  0.19376746064E-01 0.  0.
         14    1    1    2    0    0  0.19681858916E-01 -0.13979807603E-01  0.69061581009E-02  0.25109870783E-01  0.00000000000E+00 0.  1.
     999901    1    3    3    0    0  0.10248596716E+00  0.51841852048E-01 -0.27190169165E-01  0.88787964071E+00  0.88000000000E+00 0.  1.
        -11    1    4    4    0    0 -0.10104972885E+00 -0.25888181258E-01  0.10799375033E-01  0.10487198506E+00  0.51100000000E-03 0.  1.
         11    1    4    4    0    0 -0.21118097228E-01 -0.11973863186E-01  0.94846360317E-02  0.26068503444E-01  0.51100000000E-03 0. -1.
</event>
<event>
 8    1  0.1076043E+005  0.1043930E+01  0.7957747E-01            NaN
         13   -1    0    0    0    0  0.00000000000E+00  0.00000000000E+00  0.74505805969E-08  0.10566000000E+00  0.10566000000E+00 0.  1.
     999900   -1    0    0    0    0 -0.00000000000E+00 -0.00000000000E+00 -0.74505805969E-08  0.93827000000E+00  0.93827000000E+00 0. -1.
     999902    2    1    2    0    0  0.19896706355E-01  0.12847373783E-01  0.46022189326E-02  0.10198029538E+01  0.10195175086E+01 0.  0.
     999903    2    3    3    0    0  0.70526965377E-02  0.12788626466E+00  0.22337442678E-01  0.13204541197E+00  0.23073626943E-01 0.  0.
         14    1    1    2    0    0 -0.19896706355E-01 -0.12847373783E-01 -0.46022189326E-02  0.24127046152E-01  0.00000000000E+00 0. -1.
     999901    1    3    3    0    0  0.12844009818E-01 -0.11503889087E+00 -0.17735223745E-01  0.88775754188E+00  0.88000000000E+00 0.  1.
        -11    1    4    4    0    0  0.53567867588E-02  0.59557834162E-01  0.21924378133E-01  0.63692780219E-01  0.51100000000E-03 0. -1.
         11    1    4    4    0    0  0.16959097789E-02  0.68328430495E-01  0.41306454493E-03  0.68352631750E-01  0.51100000000E-03 0.  1.
</event>
<event>
 8    1  0.1076043E+005  0.1043930E+01  0.7957747E-01            NaN
         13   -1    0    0    0    0  0.00000000000E+00  0.00000000000E+00  0.74505805969E-08  0.10566000000E+00  0.10566000000E+00 0. -1.
     999900   -1    0    0    0    0 -0.00000000000E+00 -0.00000000000E+00 -0.74505805969E-08  0.93827000000E+00  0.93827000000E+00 0.  1.
     999902    2    1    2    0    0  0.95802008707E-03 -0.40751980899E-02  0.22489777384E-01  0.10210539180E+01  0.10207976236E+01 0.  0.
     999903    2    3    3    0    0  0.42566946283E-01  0.11287617033E+00 -0.43791191688E-01  0.12987374979E+00  0.19913504718E-01 0.  0.
         14    1    1    2    0    0 -0.95802008707E-03  0.40751980899E-02 -0.22489777384E-01  0.22876082024E-01  0.00000000000E+00 0.  1.
     999901    1    3    3    0    0 -0.41608926196E-01 -0.11695136842E+00  0.66280969072E-01  0.89118016819E+00  0.88000000000E+00 0. -1.
        -11    1    4    4    0    0  0.35908434100E-01  0.77865703185E-01 -0.37891616095E-01  0.93747101626E-01  0.51100000000E-03 0. -1.
         11    1    4    4    0    0  0.66585121832E-02  0.35010467144E-01 -0.58995755934E-02  0.36126648160E-01  0.51100000000E-03 0.  1.
</event>
<event>
 8    1  0.1076043E+005  0.1043930E+01  0.7957747E-01            NaN
         13   -1    0    0    0    0  0.00000000000E+00  0.00000000000E+00  0.74505805969E-08  0.10566000000E+00  0.10566000000E+00 0. -1.
     999900   -1    0    0    0    0 -0.00000000000E+00 -0.00000000000E+00 -0.74505805969E-08  0.93827000000E+00  0.93827000000E+00 0. -1.
     999902    2    1    2    0    0  0.36583800606E-02  0.22641107029E-01  0.21652572778E-02  0.10208932509E+01  0.10206333023E+01 0.  0.
     999903    2    3    3    0    0 -0.10129394169E+00 -0.63362892068E-02  0.79964982349E-01  0.13077669862E+00  0.20187503974E-01 0.  0.
         14    1    1    2    0    0 -0.36583800606E-02 -0.22641107029E-01 -0.21652572778E-02  0.23036749146E-01  0.00000000000E+00 0.  1.
     999901    1    3    3    0    0  0.10495232175E+00  0.28977396236E-01 -0.77799725071E-01  0.89011655223E+00  0.88000000000E+00 0. -1.
        -11    1    4    4    0    0 -0.95652723456E-01 -0.10599207081E-02  0.72578167065E-01  0.12007671878E+00  0.51100000000E-03 0. -1.
         11    1    4    4    0    0 -0.56412182342E-02 -0.52763684987E-02  0.73868152838E-02  0.10699979847E-01  0.51100000000E-03 0.  1.
</event>
<event>
 8    1  0.1076043E+005  0.1043930E+01  0.7957747E-01            NaN
         13   -1    0    0    0    0  0.00000000000E+00  0.00000000000E+00  0.74505805969E-08  0.10566000000E+00  0.10566000000E+00 0. -1.
     999900   -1    0    0    0    0 -0.00000000000E+00 -0.00000000000E+00 -0.74505805969E-08  0.93827000000E+00  0.93827000000E+00 0.  1.
     999902    2    1    2    0    0  0.62681359339E-02  0.18259537575E-01 -0.13473511116E-01  0.10203877881E+01  0.10201161710E+01 0.  0.
     999903    2    3    3    0    0  0.20786609883E-01  0.16918290296E-01  0.12498315128E+00  0.12944287822E+00  0.20404874952E-01 0.  0.
         14    1    1    2    0    0 -0.62681359339E-02 -0.18259537575E-01  0.13473511116E-01  0.23542211925E-01  0.00000000000E+00 0. -1.
     999901    1    3    3    0    0 -0.14518473949E-01  0.13412472788E-02 -0.13845666240E+00  0.89094490985E+00  0.88000000000E+00 0.  1.
        -11    1    4    4    0    0  0.21513490948E-01  0.55755736326E-02  0.78431019782E-01  0.81520569792E-01  0.51100000000E-03 0. -1.
         11    1    4    4    0    0 -0.72688106502E-03  0.11342716663E-01  0.46552131498E-01  0.47922308431E-01  0.51100000000E-03 0.  1.
</event>
<event>
 8    1  0.1076043E+005  0.1043930E+01  0.7957747E-01            NaN
         13   -1    0    0    0    0  0.00000000000E+00  0.00000000000E+00  0.74505805969E-08  0.10566000000E+00  0.10566000000E+00 0. -1.
     999900   -1    0    0    0    0 -0.00000000000E+00 -0.00000000000E+00 -0.74505805969E-08  0.93827000000E+00  0.93827000000E+00 0. -1.
     999902    2    1    2    0    0  0.13003806579E-01 -0.12321152649E-01  0.16263005950E-01  0.10197350594E+01  0.10194479860E+01 0.  0.
     999903    2    3    3    0    0  0.10679820989E-01  0.16027799350E-01  0.12895331290E+00  0.13209314440E+00  0.21182373826E-01 0.  0.
         14    1    1    2    0    0 -0.13003806579E-01  0.12321152649E-01 -0.16263005950E-01  0.24194940600E-01  0.00000000000E+00 0.  1.
     999901    1    3    3    0    0  0.23239855899E-02 -0.28348951998E-01 -0.11269030695E+00  0.88764191500E+00  0.88000000000E+00 0. -1.
        -11    1    4    4    0    0 -0.65010006830E-02  0.48320906057E-02  0.36403834794E-01  0.37297619471E-01  0.51100000000E-03 0. -1.
         11    1    4    4    0    0  0.17180821672E-01  0.11195708744E-01  0.92549478105E-01  0.94795524927E-01  0.51100000000E-03 0.  1.
</event>
<event>
 8    1  0.1076043E+005  0.1043930E+01  0.7957747E-01            NaN
         13   -1    0    0    0    0  0.00000000000E+00  0.00000000000E+00  0.74505805969E-08  0.10566000000E+00  0.10566000000E+00 0. -1.
     999900   -1    0    0    0    0 -0.00000000000E+00 -0.00000000000E+00 -0.74505805969E-08  0.93827000000E+00  0.93827000000E+00 0.  1.
     999902    2    1    2    0    0 -0.16093749478E-01  0.92839858845E-02 -0.11334185698E-01  0.10221661554E+01  0.10219344325E+01 0.  0.
     999903    2    3    3    0    0 -0.78214633541E-01  0.66501561071E-01 -0.85238857579E-01  0.13503890654E+00  0.20732990954E-01 0.  0.
         14    1    1    2    0    0  0.16093749478E-01 -0.92839858845E-02  0.11334185698E-01  0.21763844596E-01  0.00000000000E+00 0. -1.
     999901    1    3    3    0    0  0.62120884064E-01 -0.57217575187E-01  0.73904671880E-01  0.88712724886E+00  0.88000000000E+00 0. -1.
        -11    1    4    4    0    0 -0.13444536546E-01  0.22231101620E-01 -0.25718368929E-01  0.36560539705E-01  0.51100000000E-03 0.  1.
         11    1    4    4    0    0 -0.64770096995E-01  0.44270459451E-01 -0.59520488650E-01  0.98478366837E-01  0.51100000000E-03 0. -1.
</event>
<event>
 8    1  0.1076043E+005  0.1043930E+01  0.7957747E-01            NaN
         13   -1    0    0    0    0  0.00000000000E+00  0.00000000000E+00  0.74505805969E-08  0.10566000000E+00  0.10566000000E+00 0.  1.
     999900   -1    0    0    0    0 -0.00000000000E+00 -0.00000000000E+00 -0.74505805969E-08  0.93827000000E+00  0.93827000000E+00 0.  1.
     999902    2    1    2    0    0 -0.90798872185E-02 -0.19255157433E-01 -0.10987878731E-01  0.10199729777E+01  0.10196915888E+01 0.  0.
     999903    2    3    3    0    0  0.23799388236E-01  0.74288248557E-01 -0.10169677342E+00  0.12977102355E+00  0.20325601439E-01 0.  0.
         14    1    1    2    0    0  0.90798872185E-02  0.19255157433E-01  0.10987878731E-01  0.23957022325E-01  0.00000000000E+00 0. -1.
     999901    1    3    3    0    0 -0.32879275454E-01 -0.93543405990E-01  0.90708894691E-01  0.89020195413E+00  0.88000000000E+00 0.  1.
        -11    1    4    4    0    0  0.24758157449E-01  0.48708171024E-01 -0.74852086175E-01  0.92674420476E-01  0.51100000000E-03 0.  1.
         11    1    4    4    0    0 -0.95876921372E-03  0.25580077533E-01 -0.26844687247E-01  0.37096603071E-01  0.51100000000E-03 0. -1.
</event>
<event>
 8    1  0.1076043E+005  0.1043930E+01  0.7957747E-01            NaN
         13   -1    0    0    0    0  0.00000000000E+00  0.00000000000E+00  0.74505805969E-08  0.10566000000E+00  0.10566000000E+00 0.  1.
     999900   -1    0    0    0    0 -0.00000000000E+00 -0.00000000000E+00 -0.74505805969E-08  0.93827000000E+00  0.93827000000E+00 0.  1.
     999902    2    1    2    0    0  0.15312026615E-01  0.18378633144E-01 -0.98756816248E-03  0.10199882455E+01  0.10197072195E+01 0.  0.
     999903    2    3    3    0    0  0.85483952846E-01  0.57571587854E-01  0.80883334693E-01  0.13254076448E+00  0.20073527209E-01 0.  0.
         14    1    1    2    0    0 -0.15312026615E-01 -0.18378633144E-01  0.98756816248E-03  0.23941754450E-01  0.00000000000E+00 0. -1.
     999901    1    3    3    0    0 -0.70171926231E-01 -0.39192954710E-01 -0.81870902855E-01  0.88744748107E+00  0.88000000000E+00 0.  1.
        -11    1    4    4    0    0  0.27937131545E-01  0.23454815249E-01  0.39993171270E-01  0.54132490674E-01  0.51100000000E-03 0. -1.
         11    1    4    4    0    0  0.57546821302E-01  0.34116772605E-01  0.40890163422E-01  0.78408273802E-01  0.51100000000E-03 0.  1.
</event>
<event>
 8    1  0.1076043E+005  0.1043930E+01  0.7957747E-01            NaN
         13   -1    0    0    0    0  0.00000000000E+00  0.00000000000E+00  0.74505805969E-08  0.10566000000E+00  0.10566000000E+00 0. -1.
     999900   -1    0    0    0    0 -0.00000000000E+00 -0.00000000000E+00 -0.74505805969E-08  0.93827000000E+00  0.93827000000E+00 0. -1.
     999902    2    1    2    0    0 -0.16598119330E-01 -0.10065556069E-01 -0.11932482618E-01  0.10211441025E+01  0.10208898476E+01 0.  0.
     999903    2    3    3    0    0 -0.57516818125E-01 -0.60707409999E-01 -0.10260380735E+00  0.13409267984E+00  0.21441350408E-01 0.  0.
         14    1    1    2    0    0  0.16598119330E-01  0.10065556069E-01  0.11932482618E-01  0.22785897517E-01  0.00000000000E+00 0. -1.
     999901    1    3    3    0    0  0.40918698796E-01  0.50641853931E-01  0.90671324737E-01  0.88705142264E+00  0.88000000000E+00 0. -1.
        -11    1    4    4    0    0 -0.21567216022E-01 -0.11384363735E-01 -0.38515733798E-01  0.45590255709E-01  0.51100000000E-03 0. -1.
         11    1    4    4    0    0 -0.35949602103E-01 -0.49323046264E-01 -0.64088073557E-01  0.88502424133E-01  0.51100000000E-03 0.  1.
</event>
<event>
 8    1  0.1076043E+005  0.1043930E+01  0.7957747E-01            NaN
         13   -1    0    0    0    0  0.00000000000E+00  0.00000000000E+00  0.74505805969E-08  0.10566000000E+00  0.10566000000E+00 0.  1.
     999900   -1    0    0    0    0 -0.00000000000E+00 -0.00000000000E+00 -0.74505805969E-08  0.93827000000E+00  0.93827000000E+00 0. -1.
     999902    2    1    2    0    0  0.53144064992E-02  0.18297356959E-01  0.14155995417E-01  0.10201933533E+01  0.10199171779E+01 0.  0.
     999903    2    3    3    0    0 -0.81166192227E-01 -0.66552124780E-01 -0.70443385514E-01  0.12787312845E+00  0.19290680212E-01 0.  0.
         14    1    1    2    0    0 -0.53144064992E-02 -0.18297356959E-01 -0.14155995417E-01  0.23736646654E-01  0.00000000000E+00 0. -1.
     999901    1    3    3    0    0  0.86480598726E-01  0.84849481739E-01  0.84599380932E-01  0.89232022490E+00  0.88000000000E+00 0.  1.
        -11    1    4    4    0    0 -0.61036255946E-01 -0.48234504828E-01 -0.41629671207E-01  0.88234248689E-01  0.51100000000E-03 0.  1.
         11    1    4    4    0    0 -0.20129936281E-01 -0.18317619952E-01 -0.28813714307E-01  0.39638879759E-01  0.51100000000E-03 0. -1.
</event>
<event>
 8    1  0.1076043E+005  0.1043930E+01  0.7957747E-01            NaN
         13   -1    0    0    0    0  0.00000000000E+00  0.00000000000E+00  0.74505805969E-08  0.10566000000E+00  0.10566000000E+00 0. -1.
     999900   -1    0    0    0    0 -0.00000000000E+00 -0.00000000000E+00 -0.74505805969E-08  0.93827000000E+00  0.93827000000E+00 0.  1.
     999902    2    1    2    0    0  0.10564106418E-02 -0.19736956031E-01 -0.12810834495E-01  0.10203762123E+01  0.10201043249E+01 0.  0.
     999903    2    3    3    0    0 -0.23733558141E-01 -0.12672639305E+00  0.25202018833E-01  0.13273537317E+00  0.18991499670E-01 0.  0.
         14    1    1    2    0    0 -0.10564106418E-02  0.19736956031E-01  0.12810834495E-01  0.23553787748E-01  0.00000000000E+00 0. -1.
     999901    1    3    3    0    0  0.24789968783E-01  0.10698943702E+00 -0.38012853329E-01  0.88764083908E+00  0.88000000000E+00 0. -1.
        -11    1    4    4    0    0 -0.14541058086E-01 -0.49483827879E-01  0.22374181565E-02  0.51627112575E-01  0.51100000000E-03 0.  1.
         11    1    4    4    0    0 -0.91925000557E-02 -0.77242565172E-01  0.22964600677E-01  0.81108260596E-01  0.51100000000E-03 0. -1.
</event>
<event>
 8    1  0.1076043E+005  0.1043930E+01  0.7957747E-01            NaN
         13   -1    0    0    0    0  0.00000000000E+00  0.00000000000E+00  0.74505805969E-08  0.10566000000E+00  0.10566000000E+00 0.  1.
     999900   -1    0    0    0    0 -0.00000000000E+00 -0.00000000000E+00 -0.74505805969E-08  0.93827000000E+00  0.93827000000E+00 0. -1.
     999902    2    1    2    0    0  0.19613522055E-01 -0.36994547101E-02 -0.12819457476E-01  0.10202083917E+01  0.10199325702E+01 0.  0.
     999903    2    3    3    0    0 -0.45313713330E-01  0.38893636432E-01 -0.11481818731E+00  0.13092021665E+00  0.19769659070E-01 0.  0.
         14    1    1    2    0    0 -0.19613522055E-01  0.36994547101E-02  0.12819457476E-01  0.23721608346E-01  0.00000000000E+00 0.  1.
     999901    1    3    3    0    0  0.64927235385E-01 -0.42593091142E-01  0.10199872984E+00  0.88928817500E+00  0.88000000000E+00 0.  1.
        -11    1    4    4    0    0 -0.39861789708E-01  0.29836310030E-01 -0.77397218217E-01  0.92031289155E-01  0.51100000000E-03 0. -1.
         11    1    4    4    0    0 -0.54519236221E-02  0.90573264027E-02 -0.37420969097E-01  0.38888927498E-01  0.51100000000E-03 0.  1.
</event>
<event>
 8    1  0.1076043E+005  0.1043930E+01  0.7957747E-01            NaN
         13   -1    0    0    0    0  0.00000000000E+00  0.00000000000E+00  0.74505805969E-08  0.10566000000E+00  0.10566000000E+00 0.  1.
     999900   -1    0    0    0    0 -0.00000000000E+00 -0.00000000000E+00 -0.74505805969E-08  0.93827000000E+00  0.93827000000E+00 0.  1.
     999902    2    1    2    0    0  0.57402234366E-02  0.16754416583E-02 -0.23508614323E-01  0.10196727904E+01  0.10193842197E+01 0.  0.
     999903    2    3    3    0    0 -0.88356423256E-01  0.50533932580E-01 -0.80562289931E-01  0.13147435934E+00  0.20849190190E-01 0.  0.
         14    1    1    2    0    0 -0.57402234366E-02 -0.16754416583E-02  0.23508614323E-01  0.24257209594E-01  0.00000000000E+00 0.  1.
     999901    1    3    3    0    0  0.94096646693E-01 -0.48858490921E-01  0.57053675607E-01  0.88819843107E+00  0.88000000000E+00 0. -1.
        -11    1    4    4    0    0 -0.16511235406E-01  0.14100911475E-01 -0.82835794098E-02  0.23245115786E-01  0.51100000000E-03 0.  1.
         11    1    4    4    0    0 -0.71845187850E-01  0.36433021104E-01 -0.72278710521E-01  0.10822924355E+00  0.51100000000E-03 0. -1.
</event>
<event>
 8    1  0.1076043E+005  0.1043930E+01  0.7957747E-01            NaN
         13   -1    0    0    0    0  0.00000000000E+00  0.00000000000E+00  0.74505805969E-08  0.10566000000E+00  0.10566000000E+00 0.  1.
     999900   -1    0    0    0    0 -0.00000000000E+00 -0.00000000000E+00 -0.74505805969E-08  0.93827000000E+00  0.93827000000E+00 0. -1.
     999902    2    1    2    0    0  0.20723952294E-02 -0.21099982785E-01 -0.83341519932E-02  0.10211492585E+01  0.10208951199E+01 0.  0.
     999903    2    3    3    0    0  0.36094763001E-01  0.72353931085E-01 -0.10073868318E+00  0.13073937930E+00  0.20163822860E-01 0.  0.
         14    1    1    2    0    0 -0.20723952294E-02  0.21099982785E-01  0.83341519932E-02  0.22780741536E-01  0.00000000000E+00 0.  1.
     999901    1    3    3    0    0 -0.34022367771E-01 -0.93453913870E-01  0.92404531184E-01  0.89040987916E+00  0.88000000000E+00 0.  1.
        -11    1    4    4    0    0  0.36307786012E-01  0.59266610506E-01 -0.77814562363E-01  0.10433673218E+00  0.51100000000E-03 0.  1.
         11    1    4    4    0    0 -0.21302301118E-03  0.13087320579E-01 -0.22924120814E-01  0.26402647118E-01  0.51100000000E-03 0. -1.
</event>
<event>
 8    1  0.1076043E+005  0.1043930E+01  0.7957747E-01            NaN
         13   -1    0    0    0    0  0.00000000000E+00  0.00000000000E+00  0.74505805969E-08  0.10566000000E+00  0.10566000000E+00 0. -1.
     999900   -1    0    0    0    0 -0.00000000000E+00 -0.00000000000E+00 -0.74505805969E-08  0.93827000000E+00  0.93827000000E+00 0. -1.
     999902    2    1    2    0    0  0.47345076702E-02 -0.17713550262E-01 -0.13181693128E-01  0.10213480944E+01  0.10210984221E+01 0.  0.
     999903    2    3    3    0    0 -0.10683206029E-01  0.11855433736E+00  0.45334068262E-01  0.12880636575E+00  0.19147854016E-01 0.  0.
         14    1    1    2    0    0 -0.47345076702E-02  0.17713550262E-01  0.13181693128E-01  0.22581905577E-01  0.00000000000E+00 0. -1.
     999901    1    3    3    0    0  0.15417713700E-01 -0.13626788763E+00 -0.58515761390E-01  0.89254172867E+00  0.88000000000E+00 0. -1.
        -11    1    4    4    0    0 -0.70240636592E-02  0.97587929549E-01  0.29237825253E-01  0.10211685958E+00  0.51100000000E-03 0. -1.
         11    1    4    4    0    0 -0.36591423701E-02  0.20966407815E-01  0.16096243009E-01  0.26689506169E-01  0.51100000000E-03 0.  1.
</event>
<event>
 8    1  0.1076043E+005  0.1043930E+01  0.7957747E-01            NaN
         13   -1    0    0    0    0  0.00000000000E+00  0.00000000000E+00  0.74505805969E-08  0.10566000000E+00  0.10566000000E+00 0.  1.
     999900   -1    0    0    0    0 -0.00000000000E+00 -0.00000000000E+00 -0.74505805969E-08  0.93827000000E+00  0.93827000000E+00 0.  1.
     999902    2    1    2    0    0  0.14153915905E-01 -0.57693057485E-04  0.16183154554E-01  0.10224304383E+01  0.10222043680E+01 0.  0.
     999903    2    3    3    0    0 -0.17189055851E-01  0.11425899291E+00 -0.59132239997E-01  0.13129459270E+00  0.19775418183E-01 0.  0.
         14    1    1    2    0    0 -0.14153915905E-01  0.57693057485E-04 -0.16183154554E-01  0.21499561745E-01  0.00000000000E+00 0. -1.
     999901    1    3    3    0    0  0.31342971756E-01 -0.11431668597E+00  0.75315394551E-01  0.89113584555E+00  0.88000000000E+00 0. -1.
        -11    1    4    4    0    0 -0.31116384378E-02  0.15387466899E-01 -0.10028189905E-02  0.15739224831E-01  0.51100000000E-03 0. -1.
         11    1    4    4    0    0 -0.14077417413E-01  0.98871526011E-01 -0.58129421006E-01  0.11555536787E+00  0.51100000000E-03 0.  1.
</event>
<event>
 8    1  0.1076043E+005  0.1043930E+01  0.7957747E-01            NaN
         13   -1    0    0    0    0  0.00000000000E+00  0.00000000000E+00  0.74505805969E-08  0.10566000000E+00  0.10566000000E+00 0. -1.
     999900   -1    0    0    0    0 -0.00000000000E+00 -0.00000000000E+00 -0.74505805969E-08  0.93827000000E+00  0.93827000000E+00 0. -1.
     999902    2    1    2    0    0  0.94850928409E-02  0.13375644327E-01  0.10566682087E-01  0.10244228316E+01  0.10242370860E+01 0.  0.
     999903    2    3    3    0    0 -0.11662070839E+00  0.47019177512E-01 -0.39409102538E-01  0.13339413430E+00  0.20729809996E-01 0.  0.
         14    1    1    2    0    0 -0.94850928409E-02 -0.13375644327E-01 -0.10566682087E-01  0.19507168367E-01  0.00000000000E+00 0.  1.
     999901    1    3    3    0    0  0.12610580123E+00 -0.33643533185E-01  0.49975784625E-01  0.89102869734E+00  0.88000000000E+00 0.  1.
        -11    1    4    4    0    0 -0.59563502304E-01  0.13161159892E-01 -0.21365562402E-01  0.64635712375E-01  0.51100000000E-03 0. -1.
         11    1    4    4    0    0 -0.57057206086E-01  0.33858017620E-01 -0.18043540136E-01  0.68758421921E-01  0.51100000000E-03 0.  1.
</event>
<event>
 8    1  0.1076043E+005  0.1043930E+01  0.7957747E-01            NaN
         13   -1    0    0    0    0  0.00000000000E+00  0.00000000000E+00  0.74505805969E-08  0.10566000000E+00  0.10566000000E+00 0. -1.
     999900   -1    0    0    0    0 -0.00000000000E+00 -0.00000000000E+00 -0.74505805969E-08  0.93827000000E+00  0.93827000000E+00 0.  1.
     999902    2    1    2    0    0  0.24097970920E-02 -0.68852209097E-02  0.22122143478E-01  0.10206361677E+01  0.10203703172E+01 0.  0.
     999903    2    3    3    0    0 -0.34465794327E-01  0.36924718645E-01 -0.11583155779E+00  0.12804984490E+00  0.20699931703E-01 0.  0.
         14    1    1    2    0    0 -0.24097970920E-02  0.68852209097E-02 -0.22122143478E-01  0.23293832253E-01  0.00000000000E+00 0.  1.
     999901    1    3    3    0    0  0.36875591419E-01 -0.43809939555E-01  0.13795370127E+00  0.89258632285E+00  0.88000000000E+00 0. -1.
        -11    1    4    4    0    0 -0.31280914454E-01  0.27266264108E-01 -0.72493029892E-01  0.83531103616E-01  0.51100000000E-03 0. -1.
         11    1    4    4    0    0 -0.31848798735E-02  0.96584545374E-02 -0.43338527897E-01  0.44518741280E-01  0.51100000000E-03 0.  1.
</event>
<event>
 8    1  0.1076043E+005  0.1043930E+01  0.7957747E-01            NaN
         13   -1    0    0    0    0  0.00000000000E+00  0.00000000000E+00  0.74505805969E-08  0.10566000000E+00  0.10566000000E+00 0.  1.
     999900   -1    0    0    0    0 -0.00000000000E+00 -0.00000000000E+00 -0.74505805969E-08  0.93827000000E+00  0.93827000000E+00 0. -1.
     999902    2    1    2    0    0 -0.20865212224E-03  0.10197419815E-01  0.22035513329E-01  0.10196484277E+01  0.10193592700E+01 0.  0.
     999903    2    3    3    0    0 -0.91618954275E-01  0.90195674230E-01  0.14051272729E-01  0.13126826573E+00  0.22463901942E-01 0.  0.
         14    1    1    2    0    0  0.20865212224E-03 -0.10197419815E-01 -0.22035513329E-01  0.24281572319E-01  0.00000000000E+00 0.  1.
     999901    1    3    3    0    0  0.91410302153E-01 -0.79998254414E-01  0.79842405997E-02  0.88838016195E+00  0.88000000000E+00 0.  1.
        -11    1    4    4    0    0 -0.57100617472E-01  0.51116616293E-01 -0.21373466210E-02  0.76669539900E-01  0.51100000000E-03 0.  1.
         11    1    4    4    0    0 -0.34518336803E-01  0.39079057936E-01  0.16188619350E-01  0.54598725831E-01  0.51100000000E-03 0. -1.
</event>
<event>
 8    1  0.1076043E+005  0.1043930E+01  0.7957747E-01            NaN
         13   -1    0    0    0    0  0.00000000000E+00  0.00000000000E+00  0.74505805969E-08  0.10566000000E+00  0.10566000000E+00 0.  1.
     999900   -1    0    0    0    0 -0.00000000000E+00 -0.00000000000E+00 -0.74505805969E-08  0.93827000000E+00  0.93827000000E+00 0. -1.
     999902    2    1    2    0    0  0.14365370659E-01 -0.15175327188E-01  0.10435237056E-01  0.10205730181E+01  0.10203057075E+01 0.  0.
     999903    2    3    3    0    0 -0.32984579701E-01  0.88617222198E-01 -0.84128348528E-01  0.12818454733E+00  0.20315131801E-01 0.  0.
         14    1    1    2    0    0 -0.14365370659E-01  0.15175327188E-01 -0.10435237056E-01  0.23356981865E-01  0.00000000000E+00 0. -1.
     999901    1    3    3    0    0  0.47349950360E-01 -0.10379254939E+00  0.94563585584E-01  0.89238847080E+00  0.88000000000E+00 0.  1.
        -11    1    4    4    0    0 -0.44981610808E-02  0.12253861225E-01 -0.22443540008E-01  0.25968522814E-01  0.51100000000E-03 0. -1.
         11    1    4    4    0    0 -0.28486418620E-01  0.76363360972E-01 -0.61684808521E-01  0.10221602452E+00  0.51100000000E-03 0.  1.
</event>
<event>
 8    1  0.1076043E+005  0.1043930E+01  0.7957747E-01            NaN
         13   -1    0    0    0    0  0.00000000000E+00  0.00000000000E+00  0.74505805969E-08  0.10566000000E+00  0.10566000000E+00 0.  1.
     999900   -1    0    0    0    0 -0.00000000000E+00 -0.00000000000E+00 -0.74505805969E-08  0.93827000000E+00  0.93827000000E+00 0.  1.
     999902    2    1    2    0    0  0.11696030040E-01  0.76209107561E-02  0.18864529134E-01  0.10204620248E+01  0.10201921379E+01 0.  0.
     999903    2    3    3    0    0 -0.10859510988E+00  0.51753244006E-01 -0.42049905223E-01  0.12909891728E+00  0.20664940281E-01 0.  0.
         14    1    1    2    0    0 -0.11696030040E-01 -0.76209107561E-02 -0.18864529134E-01  0.23467975177E-01  0.00000000000E+00 0. -1.
     999901    1    3    3    0    0  0.12029113992E+00 -0.44132333250E-01  0.60914434358E-01  0.89136310755E+00  0.88000000000E+00 0.  1.
        -11    1    4    4    0    0 -0.10213937340E+00  0.51412918774E-01 -0.35152008452E-01  0.11963136977E+00  0.51100000000E-03 0. -1.
         11    1    4    4    0    0 -0.64557364882E-02  0.34032523272E-03 -0.68978967712E-02  0.94675475037E-02  0.51100000000E-03 0.  1.
</event>
<event>
 8    1  0.1076043E+005  0.1043930E+01  0.7957747E-01            NaN
         13   -1    0    0    0    0  0.00000000000E+00  0.00000000000E+00  0.74505805969E-08  0.10566000000E+00  0.10566000000E+00 0.  1.
     999900   -1    0    0    0    0 -0.00000000000E+00 -0.00000000000E+00 -0.74505805969E-08  0.93827000000E+00  0.93827000000E+00 0. -1.
     999902    2    1    2    0    0 -0.40974066691E-02  0.71627938260E-02 -0.23380835289E-01  0.10191356899E+01  0.10188340378E+01 0.  0.
     999903    2    3    3    0    0  0.33559342107E-01  0.52292935716E-01 -0.11522953454E+00  0.13240520995E+00  0.19811951510E-01 0.  0.
         14    1    1    2    0    0  0.40974066691E-02 -0.71627938260E-02  0.23380835289E-01  0.24794310146E-01  0.00000000000E+00 0.  1.
     999901    1    3    3    0    0 -0.37656748777E-01 -0.45130141890E-01  0.91848699254E-01  0.88673047990E+00  0.88000000000E+00 0.  1.
        -11    1    4    4    0    0  0.47019400159E-02  0.20518832084E-01 -0.50740620735E-01  0.54936348838E-01  0.51100000000E-03 0. -1.
         11    1    4    4    0    0  0.28857402091E-01  0.31774103632E-01 -0.64488913808E-01  0.77468861113E-01  0.51100000000E-03 0.  1.
</event>
<event>
 8    1  0.1076043E+005  0.1043930E+01  0.7957747E-01            NaN
         13   -1    0    0    0    0  0.00000000000E+00  0.00000000000E+00  0.74505805969E-08  0.10566000000E+00  0.10566000000E+00 0. -1.
     999900   -1    0    0    0    0 -0.00000000000E+00 -0.00000000000E+00 -0.74505805969E-08  0.93827000000E+00  0.93827000000E+00 0.  1.
     999902    2    1    2    0    0 -0.42981791017E-02 -0.11486083078E-01  0.19029429024E-01  0.10212910155E+01  0.10210400652E+01 0.  0.
     999903    2    3    3    0    0 -0.87477357068E-01 -0.86984588630E-01 -0.42487420956E-01  0.13201989670E+00  0.20136174562E-01 0.  0.
         14    1    1    2    0    0  0.42981791017E-02  0.11486083078E-01 -0.19029429024E-01  0.22638984452E-01  0.00000000000E+00 0.  1.
     999901    1    3    3    0    0  0.83179177966E-01  0.75498505552E-01  0.61516849980E-01  0.88927111885E+00  0.88000000000E+00 0. -1.
        -11    1    4    4    0    0 -0.31627739218E-01 -0.43633153456E-01 -0.13157914250E-01  0.55475740616E-01  0.51100000000E-03 0.  1.
         11    1    4    4    0    0 -0.55849617851E-01 -0.43351435174E-01 -0.29329506706E-01  0.76544156082E-01  0.51100000000E-03 0. -1.
</event>
<event>
 8    1  0.1076043E+005  0.1043930E+01  0.7957747E-01            NaN
         13   -1    0    0    0    0  0.00000000000E+00  0.00000000000E+00  0.74505805969E-08  0.10566000000E+00  0.10566000000E+00 0. -1.
     999900   -1    0    0    0    0 -0.00000000000E+00 -0.00000000000E+00 -0.74505805969E-08  0.93827000000E+00  0.93827000000E+00 0. -1.
     999902    2    1    2    0    0 -0.18622673859E-01  0.65374794161E-02 -0.13897164517E-01  0.10197913629E+01  0.10195056400E+01 0.  0.
     999903    2    3    3    0    0  0.16729948549E-01  0.10010544857E+00 -0.81293993168E-01  0.13156441822E+00  0.19987266073E-01 0.  0.
         14    1    1    2    0    0  0.18622673859E-01 -0.65374794161E-02  0.13897164517E-01  0.24138637086E-01  0.00000000000E+00 0. -1.
     999901    1    3    3    0    0 -0.35352622408E-01 -0.93567969155E-01  0.67396828651E-01  0.88822694469E+00  0.88000000000E+00 0. -1.
        -11    1    4    4    0    0  0.32926150082E-02  0.48590564128E-01 -0.27748568736E-01  0.56054691363E-01  0.51100000000E-03 0. -1.
         11    1    4    4    0    0  0.13437333541E-01  0.51514884442E-01 -0.53545424433E-01  0.75509726860E-01  0.51100000000E-03 0.  1.
</event>
<event>
 8    1  0.1076043E+005  0.1043930E+01  0.7957747E-01            NaN
         13   -1    0    0    0    0  0.00000000000E+00  0.00000000000E+00  0.74505805969E-08  0.10566000000E+00  0.10566000000E+00 0.  1.
     999900   -1    0    0    0    0 -0.00000000000E+00 -0.00000000000E+00 -0.74505805969E-08  0.93827000000E+00  0.93827000000E+00 0. -1.
     999902    2    1    2    0    0 -0.54037938287E-02  0.22869443147E-02 -0.22861674947E-01  0.10203273035E+01  0.10200542725E+01 0.  0.
     999903    2    3    3    0    0  0.12131271280E+00  0.31074052287E-01  0.25469621716E-01  0.12947283451E+00  0.20788031015E-01 0.  0.
         14    1    1    2    0    0  0.54037938287E-02 -0.22869443147E-02  0.22861674947E-01  0.23602696529E-01  0.00000000000E+00 0.  1.
     999901    1    3    3    0    0 -0.12671650663E+00 -0.28787107972E-01 -0.48331296662E-01  0.89085446896E+00  0.88000000000E+00 0. -1.
        -11    1    4    4    0    0  0.83656958199E-01  0.29180239655E-01  0.11892405547E-01  0.89396104346E-01  0.51100000000E-03 0. -1.
         11    1    4    4    0    0  0.37655754597E-01  0.18938126315E-02  0.13577216168E-01  0.40076730162E-01  0.51100000000E-03 0.  1.
</event>
<event>
 8    1  0.1076043E+005  0.1043930E+01  0.7957747E-01            NaN
         13   -1    0    0    0    0  0.00000000000E+00  0.00000000000E+00  0.74505805969E-08  0.10566000000E+00  0.10566000000E+00 0.  1.
     999900   -1    0    0    0    0 -0.00000000000E+00 -0.00000000000E+00 -0.74505805969E-08  0.93827000000E+00  0.93827000000E+00 0.  1.
     999902    2    1    2    0    0  0.10810358161E-01  0.19822974142E-02  0.20686462207E-01  0.10205051614E+01  0.10202362772E+01 0.  0.
     999903    2    3    3    0    0  0.48493759193E-01  0.49739959885E-01 -0.10715786944E+00  0.12918871578E+00  0.19524523343E-01 0.  0.
         14    1    1    2    0    0 -0.10810358161E-01 -0.19822974142E-02 -0.20686462207E-01  0.23424838638E-01  0.00000000000E+00 0. -1.
     999901    1    3    3    0    0 -0.37683401033E-01 -0.47757662471E-01  0.12784433164E+00  0.89131644559E+00  0.88000000000E+00 0. -1.
        -11    1    4    4    0    0  0.24225109529E-01  0.36193416197E-01 -0.55757126390E-01  0.70752650636E-01  0.51100000000E-03 0. -1.
         11    1    4    4    0    0  0.24268649665E-01  0.13546543688E-01 -0.51400743046E-01  0.58436065141E-01  0.51100000000E-03 0.  1.
</event>
<event>
 8    1  0.1076043E+005  0.1043930E+01  0.7957747E-01            NaN
         13   -1    0    0    0    0  0.00000000000E+00  0.00000000000E+00  0.74505805969E-08  0.10566000000E+00  0.10566000000E+00 0. -1.
     999900   -1    0    0    0    0 -0.00000000000E+00 -0.00000000000E+00 -0.74505805969E-08  0.93827000000E+00  0.93827000000E+00 0. -1.
     999902    2    1    2    0    0  0.12430029100E-01  0.20213680955E-01  0.27310112034E-02  0.10200436662E+01  0.10197639550E+01 0.  0.
     999903    2    3    3    0    0  0.72376742564E-01  0.10986626177E+00 -0.48788636803E-02  0.13342700499E+00  0.21678883966E-01 0.  0.
         14    1    1    2    0    0 -0.12430029100E-01 -0.20213680955E-01 -0.27310112034E-02  0.23886333820E-01  0.00000000000E+00 0.  1.
     999901    1    3    3    0    0 -0.59946713464E-01 -0.89652580817E-01  0.76098748837E-02  0.88661666119E+00  0.88000000000E+00 0. -1.
        -11    1    4    4    0    0  0.40061663933E-01  0.42370464001E-01  0.13935122809E-02  0.58330062011E-01  0.51100000000E-03 0. -1.
         11    1    4    4    0    0  0.32315078631E-01  0.67495797771E-01 -0.62723759611E-02  0.75096942980E-01  0.51100000000E-03 0.  1.
</event>
<event>
 8    1  0.1076043E+005  0.1043930E+01  0.7957747E-01            NaN
         13   -1    0    0    0    0  0.00000000000E+00  0.00000000000E+00  0.74505805969E-08  0.10566000000E+00  0.10566000000E+00 0.  1.
     999900   -1    0    0    0    0 -0.00000000000E+00 -0.00000000000E+00 -0.74505805969E-08  0.93827000000E+00  0.93827000000E+00 0.  1.
     999902    2    1    2    0    0 -0.17419296785E-01 -0.11901354202E-01  0.10715544601E-01  0.10202678566E+01  0.10199934325E+01 0.  0.
     999903    2    3    3    0    0 -0.20388151466E-01  0.51896342403E-01  0.11729861836E+00  0.13153903872E+00  0.20848159724E-01 0.  0.
         14    1    1    2    0    0  0.17419296785E-01  0.11901354202E-01 -0.10715544601E-01  0.23662143361E-01  0.00000000000E+00 0. -1.
     999901    1    3    3    0    0  0.29688546806E-02 -0.63797696605E-01 -0.10658307376E+00  0.88872881792E+00  0.88000000000E+00 0.  1.
        -11    1    4    4    0    0 -0.23855635444E-01  0.42356087411E-01  0.88114738452E-01  0.10063596642E+00  0.51100000000E-03 0.  1.
         11    1    4    4    0    0  0.34674839781E-02  0.95402549924E-02  0.29183879905E-01  0.30903072303E-01  0.51100000000E-03 0. -1.
</event>
<event>
 8    1  0.1076043E+005  0.1043930E+01  0.7957747E-01            NaN
         13   -1    0    0    0    0  0.00000000000E+00  0.00000000000E+00  0.74505805969E-08  0.10566000000E+00  0.10566000000E+00 0.  1.
     999900   -1    0    0    0    0 -0.00000000000E+00 -0.00000000000E+00 -0.74505805969E-08  0.93827000000E+00  0.93827000000E+00 0.  1.
     999902    2    1    2    0    0 -0.21506740323E-01 -0.66324138559E-02  0.58096571046E-02  0.10206860565E+01  0.10204213566E+01 0.  0.
     999903    2    3    3    0    0  0.65865367128E-01 -0.50032649560E-01  0.98643080612E-01  0.13044142152E+00  0.21047434222E-01 0.  0.
         14    1    1    2    0    0  0.21506740323E-01  0.66324138559E-02 -0.58096571046E-02  0.23243943481E-01  0.00000000000E+00 0.  1.
     999901    1    3    3    0    0 -0.87372107451E-01  0.43400235704E-01 -0.92833423507E-01  0.89024463500E+00  0.88000000000E+00 0.  1.
        -11    1    4    4    0    0  0.28165246016E-01 -0.25103548791E-01  0.60481382304E-01  0.71286239706E-01  0.51100000000E-03 0. -1.
         11    1    4    4    0    0  0.37700121111E-01 -0.24929100769E-01  0.38161698308E-01  0.59155181817E-01  0.51100000000E-03 0.  1.
</event>
<event>
 8    1  0.1076043E+005  0.1043930E+01  0.7957747E-01            NaN
         13   -1    0    0    0    0  0.00000000000E+00  0.00000000000E+00  0.74505805969E-08  0.10566000000E+00  0.10566000000E+00 0. -1.
     999900   -1    0    0    0    0 -0.00000000000E+00 -0.00000000000E+00 -0.74505805969E-08  0.93827000000E+00  0.93827000000E+00 0.  1.
     999902    2    1    2    0    0  0.18727260702E-01  0.13384294845E-01  0.27065926785E-02  0.10207529578E+01  0.10204897969E+01 0.  0.
     999903    2    3    3    0    0  0.70052765662E-01 -0.43778964522E-01  0.10091723256E+00  0.13196317642E+00  0.20149550629E-01 0.  0.
         14    1    1    2    0    0 -0.18727260702E-01 -0.13384294845E-01 -0.27065926785E-02  0.23177042215E-01  0.00000000000E+00 0.  1.
     999901    1    3    3    0    0 -0.51325504960E-01  0.57163259367E-01 -0.98210639882E-01  0.88878978137E+00  0.88000000000E+00 0.  1.
        -11    1    4    4    0    0  0.59320995379E-01 -0.37092838330E-01  0.71982622141E-01  0.10038235980E+00  0.51100000000E-03 0. -1.
         11    1    4    4    0    0  0.10731770283E-01 -0.66861261925E-02  0.28934610420E-01  0.31580816614E-01  0.51100000000E-03 0.  1.
</event>
<event>
 8    1  0.1076043E+005  0.1043930E+01  0.7957747E-01            NaN
         13   -1    0    0    0    0  0.00000000000E+00  0.00000000000E+00  0.74505805969E-08  0.10566000000E+00  0.10566000000E+00 0.  1.
     999900   -1    0    0    0    0 -0.00000000000E+00 -0.00000000000E+00 -0.74505805969E-08  0.93827000000E+00  0.93827000000E+00 0. -1.
     999902    2    1    2    0    0 -0.17242199400E-01  0.12510698625E-01 -0.73869602551E-03  0.10226143557E+01  0.10223921771E+01 0.  0.
     999903    2    3    3    0    0  0.11234870841E+00  0.29593966411E-01 -0.57309472913E-01  0.13116278987E+00  0.20524780914E-01 0.  0.
         14    1    1    2    0    0  0.17242199400E-01 -0.12510698625E-01  0.73869602551E-03  0.21315644303E-01  0.00000000000E+00 0.  1.
     999901    1    3    3    0    0 -0.12959090781E+00 -0.17083267785E-01  0.56570776887E-01  0.89145156583E+00  0.88000000000E+00 0. -1.
        -11    1    4    4    0    0  0.62967829882E-01  0.25131445131E-01 -0.26553573859E-01  0.72814082017E-01  0.51100000000E-03 0.  1.
         11    1    4    4    0    0  0.49380878524E-01  0.44625212795E-02 -0.30755899054E-01  0.58348707849E-01  0.51100000000E-03 0. -1.
</event>
<event>
 8    1  0.1076043E+005  0.1043930E+01  0.7957747E-01            NaN
         13   -1    0    0    0    0  0.00000000000E+00  0.00000000000E+00  0.74505805969E-08  0.10566000000E+00  0.10566000000E+00 0.  1.
     999900   -1    0    0    0    0 -0.00000000000E+00 -0.00000000000E+00 -0.74505805969E-08  0.93827000000E+00  0.93827000000E+00 0.  1.
     999902    2    1    2    0    0 -0.96850732444E-02 -0.12894663420E-02  0.20870677768E-01  0.10208855092E+01  0.10206253839E+01 0.  0.
     999903    2    3    3    0    0  0.34343579215E-01 -0.70977849123E-01  0.10538762859E+00  0.13300144697E+00  0.19117953257E-01 0.  0.
         14    1    1    2    0    0  0.96850732444E-02  0.12894663420E-02 -0.20870677768E-01  0.23044490832E-01  0.00000000000E+00 0.  1.
     999901    1    3    3    0    0 -0.44028652459E-01  0.69688382781E-01 -0.84516950821E-01  0.88788406220E+00  0.88000000000E+00 0.  1.
        -11    1    4    4    0    0  0.24647553749E-02 -0.87674547045E-02  0.24220204839E-01  0.25880933610E-01  0.51100000000E-03 0.  1.
         11    1    4    4    0    0  0.31878823840E-01 -0.62210394418E-01  0.81167423750E-01  0.10712051336E+00  0.51100000000E-03 0. -1.
</event>
<event>
 8    1  0.1076043E+005  0.1043930E+01  0.7957747E-01            NaN
         13   -1    0    0    0    0  0.00000000000E+00  0.00000000000E+00  0.74505805969E-08  0.10566000000E+00  0.10566000000E+00 0. -1.
     999900   -1    0    0    0    0 -0.00000000000E+00 -0.00000000000E+00 -0.74505805969E-08  0.93827000000E+00  0.93827000000E+00 0. -1.
     999902    2    1    2    0    0 -0.13450223001E-01 -0.13579532320E-01 -0.18660166496E-01  0.10172183170E+01  0.10168675383E+01 0.  0.
     999903    2    3    3    0    0  0.40549476149E-01  0.93917759935E-01  0.68706250709E-01  0.12474729435E+00  0.19404456053E-01 0.  0.
         14    1    1    2    0    0  0.13450223001E-01  0.13579532320E-01  0.18660166496E-01  0.26711683033E-01  0.00000000000E+00 0.  1.
     999901    1    3    3    0    0 -0.53999699149E-01 -0.10749729225E+00 -0.87366417206E-01  0.89247102261E+00  0.88000000000E+00 0. -1.
        -11    1    4    4    0    0  0.21411073407E-01  0.61944896790E-01  0.34064334356E-01  0.73866394923E-01  0.51100000000E-03 0. -1.
         11    1    4    4    0    0  0.19138402741E-01  0.31972863145E-01  0.34641916354E-01  0.50880899430E-01  0.51100000000E-03 0.  1.
</event>
<event>
 8    1  0.1076043E+005  0.1043930E+01  0.7957747E-01            NaN
         13   -1    0    0    0    0  0.00000000000E+00  0.00000000000E+00  0.74505805969E-08  0.10566000000E+00  0.10566000000E+00 0.  1.
     999900   -1    0    0    0    0 -0.00000000000E+00 -0.00000000000E+00 -0.74505805969E-08  0.93827000000E+00  0.93827000000E+00 0. -1.
     999902    2    1    2    0    0 -0.21195271065E-01 -0.12502629945E-01  0.22088395661E-02  0.10192230325E+01  0.10189235279E+01 0.  0.
     999903    2    3    3    0    0  0.46907335537E-02 -0.76619143175E-01 -0.10324254404E+00  0.13023427733E+00  0.20234821739E-01 0.  0.
         14    1    1    2    0    0  0.21195271065E-01  0.12502629945E-01 -0.22088395661E-02  0.24706967504E-01  0.00000000000E+00 0. -1.
     999901    1    3    3    0    0 -0.25886004618E-01  0.64116513230E-01  0.10545138360E+00  0.88898875516E+00  0.88000000000E+00 0.  1.
        -11    1    4    4    0    0 -0.61980412325E-02 -0.52935200445E-01 -0.68199800143E-01  0.86556484574E-01  0.51100000000E-03 0. -1.
         11    1    4    4    0    0  0.10888774786E-01 -0.23683942729E-01 -0.35042743894E-01  0.43677792758E-01  0.51100000000E-03 0.  1.
</event>
<event>
 8    1  0.1076043E+005  0.1043930E+01  0.7957747E-01            NaN
         13   -1    0    0    0    0  0.00000000000E+00  0.00000000000E+00  0.74505805969E-08  0.10566000000E+00  0.10566000000E+00 0.  1.
     999900   -1    0    0    0    0 -0.00000000000E+00 -0.00000000000E+00 -0.74505805969E-08  0.93827000000E+00  0.93827000000E+00 0.  1.
     999902    2    1    2    0    0 -0.21932865156E-01 -0.93139718183E-03 -0.42499312457E-02  0.10215697677E+01  0.10213250267E+01 0.  0.
     999903    2    3    3    0    0 -0.32086422425E-01  0.11788628598E+00  0.45994718853E-01  0.13210629937E+00  0.20244634961E-01 0.  0.
         14    1    1    2    0    0  0.21932865156E-01  0.93139718183E-03  0.42499312457E-02  0.22360232339E-01  0.00000000000E+00 0.  1.
     999901    1    3    3    0    0  0.10153557269E-01 -0.11881768316E+00 -0.50244650098E-01  0.88946346829E+00  0.88000000000E+00 0.  1.
        -11    1    4    4    0    0 -0.27887684865E-01  0.91979783256E-01  0.27423493015E-01  0.99951551189E-01  0.51100000000E-03 0.  1.
         11    1    4    4    0    0 -0.41987375604E-02  0.25906502726E-01  0.18571225838E-01  0.32154748183E-01  0.51100000000E-03 0. -1.
</event>
<event>
 8    1  0.1076043E+005  0.1043930E+01  0.7957747E-01            NaN
         13   -1    0    0    0    0  0.00000000000E+00  0.00000000000E+00  0.74505805969E-08  0.10566000000E+00  0.10566000000E+00 0. -1.
     999900   -1    0    0    0    0 -0.00000000000E+00 -0.00000000000E+00 -0.74505805969E-08  0.93827000000E+00  0.93827000000E+00 0.  1.
     999902    2    1    2    0    0  0.93774710777E-02  0.68896486855E-02 -0.83687707648E-02  0.10295968026E+01  0.10294970303E+01 0.  0.
     999903    2    3    3    0    0 -0.84058030495E-01  0.85124254104E-01 -0.68366446855E-01  0.13917523529E+00  0.19592956277E-01 0.  0.
         14    1    1    2    0    0 -0.93774710777E-02 -0.68896486855E-02  0.83687707648E-02  0.14333197373E-01  0.00000000000E+00 0.  1.
     999901    1    3    3    0    0  0.93435501573E-01 -0.78234605418E-01  0.59997676090E-01  0.89042156733E+00  0.88000000000E+00 0. -1.
        -11    1    4    4    0    0 -0.44193924524E-01  0.58263426114E-01 -0.39886577016E-01  0.83300239703E-01  0.51100000000E-03 0.  1.
         11    1    4    4    0    0 -0.39864105971E-01  0.26860827990E-01 -0.28479869838E-01  0.55874995589E-01  0.51100000000E-03 0. -1.
</event>
<event>
 8    1  0.1076043E+005  0.1043930E+01  0.7957747E-01            NaN
         13   -1    0    0    0    0  0.00000000000E+00  0.00000000000E+00  0.74505805969E-08  0.10566000000E+00  0.10566000000E+00 0.  1.
     999900   -1    0    0    0    0 -0.00000000000E+00 -0.00000000000E+00 -0.74505805969E-08  0.93827000000E+00  0.93827000000E+00 0. -1.
     999902    2    1    2    0    0 -0.33760843936E-02 -0.10253358159E-01  0.20997070334E-01  0.10203205472E+01  0.10200473581E+01 0.  0.
     999903    2    3    3    0    0 -0.89985151924E-01  0.59884325219E-01  0.72733049177E-01  0.13178408946E+00  0.19836577795E-01 0.  0.
         14    1    1    2    0    0  0.33760843936E-02  0.10253358159E-01 -0.20997070334E-01  0.23609452810E-01  0.00000000000E+00 0. -1.
     999901    1    3    3    0    0  0.86609067530E-01 -0.70137683378E-01 -0.51735978843E-01  0.88853645773E+00  0.88000000000E+00 0. -1.
        -11    1    4    4    0    0 -0.35174351631E-01  0.27612563729E-01  0.19284303196E-01  0.48701480050E-01  0.51100000000E-03 0. -1.
         11    1    4    4    0    0 -0.54810800293E-01  0.32271761490E-01  0.53448745981E-01  0.83082609410E-01  0.51100000000E-03 0.  1.
</event>
<event>
 8    1  0.1076043E+005  0.1043930E+01  0.7957747E-01            NaN
         13   -1    0    0    0    0  0.00000000000E+00  0.00000000000E+00  0.74505805969E-08  0.10566000000E+00  0.10566000000E+00 0.  1.
     999900   -1    0    0    0    0 -0.00000000000E+00 -0.00000000000E+00 -0.74505805969E-08  0.93827000000E+00  0.93827000000E+00 0. -1.
     999902    2    1    2    0    0 -0.21372984658E-01  0.12042169247E-01  0.20833088042E-02  0.10193097139E+01  0.10190123328E+01 0.  0.
     999903    2    3    3    0    0  0.50332706960E-01 -0.10939122882E+00  0.36555657670E-01  0.12741503443E+00  0.19961276480E-01 0.  0.
         14    1    1    2    0    0  0.21372984658E-01 -0.12042169247E-01 -0.20833088042E-02  0.24620286127E-01  0.00000000000E+00 0. -1.
     999901    1    3    3    0    0 -0.71705691618E-01  0.12143339807E+00 -0.34472348866E-01  0.89189467944E+00  0.88000000000E+00 0.  1.
        -11    1    4    4    0    0  0.20825100268E-01 -0.61719531856E-01  0.12138369764E-01  0.66261501305E-01  0.51100000000E-03 0.  1.
         11    1    4    4    0    0  0.29507606692E-01 -0.47671696967E-01  0.24417287906E-01  0.61153533128E-01  0.51100000000E-03 0. -1.
</event>
<event>
 8    1  0.1076043E+005  0.1043930E+01  0.7957747E-01            NaN
         13   -1    0    0    0    0  0.00000000000E+00  0.00000000000E+00  0.74505805969E-08  0.10566000000E+00  0.10566000000E+00 0.  1.
     999900   -1    0    0    0    0 -0.00000000000E+00 -0.00000000000E+00 -0.74505805969E-08  0.93827000000E+00  0.93827000000E+00 0.  1.
     999902    2    1    2    0    0 -0.20821309530E-01  0.77948793723E-02 -0.73376360153E-02  0.10205178669E+01  0.10202492777E+01 0.  0.
     999903    2    3    3    0    0  0.61826705943E-01  0.57914556349E-01  0.95452803293E-01  0.12927797162E+00  0.20613560725E-01 0.  0.
         14    1    1    2    0    0  0.20821309530E-01 -0.77948793723E-02  0.73376360153E-02  0.23412133121E-01  0.00000000000E+00 0.  1.
     999901    1    3    3    0    0 -0.82648015473E-01 -0.50119676977E-01 -0.10279043931E+00  0.89123989526E+00  0.88000000000E+00 0.  1.
        -11    1    4    4    0    0  0.31415905154E-01  0.35619656624E-01  0.39356074398E-01  0.61683715417E-01  0.51100000000E-03 0.  1.
         11    1    4    4    0    0  0.30410800788E-01  0.22294899725E-01  0.56096728895E-01  0.67594256206E-01  0.51100000000E-03 0. -1.
</event>
<event>
 7    1  0.1076043E+005  0.1043930E+01  0.7957747E-01            NaN
         13   -1    0    0    0    0  0.00000000000E+00  0.00000000000E+00  0.74505805969E-08  0.10566000000E+00  0.10566000000E+00 0. -1.
     999900   -1    0    0    0    0 -0.00000000000E+00 -0.00000000000E+00 -0.74505805969E-08  0.93827000000E+00  0.93827000000E+00 0.  1.
     999902    2    1    2    0    0  0.48286960967E-02 -0.49230096255E-02  0.24244319121E-01  0.10187240614E+01  0.10184121828E+01 0.  0.
         14    1    1    2    0    0 -0.48286960967E-02  0.49230096255E-02 -0.24244319121E-01  0.25205938574E-01  0.00000000000E+00 0.  1.
     999901    1    3    3    0    0  0.10155240963E+00  0.53288368917E-01  0.53682323989E-01  0.88906374016E+00  0.88000000000E+00 0. -1.
        -11    1    3    3    0    0 -0.23622273233E-01 -0.35799733176E-01  0.93828565740E-02  0.43908220263E-01  0.51100000000E-03 0.  1.
         11    1    3    3    0    0 -0.73101440299E-01 -0.22411645366E-01 -0.38820861442E-01  0.85752101000E-01  0.51100000000E-03 0. -1.
</event>
<event>
 8    1  0.1076043E+005  0.1043930E+01  0.7957747E-01            NaN
         13   -1    0    0    0    0  0.00000000000E+00  0.00000000000E+00  0.74505805969E-08  0.10566000000E+00  0.10566000000E+00 0. -1.
     999900   -1    0    0    0    0 -0.00000000000E+00 -0.00000000000E+00 -0.74505805969E-08  0.93827000000E+00  0.93827000000E+00 0. -1.
     999902    2    1    2    0    0 -0.87471234244E-02 -0.18376597771E-01  0.12409690301E-01  0.10200928037E+01  0.10198142558E+01 0.  0.
     999903    2    3    3    0    0  0.98265920612E-01  0.28460577689E-01  0.77506366896E-01  0.12998995015E+00  0.20590157724E-01 0.  0.
         14    1    1    2    0    0  0.87471234244E-02  0.18376597771E-01 -0.12409690301E-01  0.23837196295E-01  0.00000000000E+00 0.  1.
     999901    1    3    3    0    0 -0.10701304404E+00 -0.46837175460E-01 -0.65096676595E-01  0.89010285355E+00  0.88000000000E+00 0.  1.
        -11    1    4    4    0    0  0.66559069068E-01  0.10744639146E-01  0.43540937309E-01  0.80259773787E-01  0.51100000000E-03 0. -1.
         11    1    4    4    0    0  0.31706851543E-01  0.17715938544E-01  0.33965429587E-01  0.49730176365E-01  0.51100000000E-03 0.  1.
</event>
<event>
 8    1  0.1076043E+005  0.1043930E+01  0.7957747E-01            NaN
         13   -1    0    0    0    0  0.00000000000E+00  0.00000000000E+00  0.74505805969E-08  0.10566000000E+00  0.10566000000E+00 0.  1.
     999900   -1    0    0    0    0 -0.00000000000E+00 -0.00000000000E+00 -0.74505805969E-08  0.93827000000E+00  0.93827000000E+00 0. -1.
     999902    2    1    2    0    0  0.67908894387E-02  0.17257795982E-01 -0.13388723177E-01  0.10210563118E+01  0.10208000717E+01 0.  0.
     999903    2    3    3    0    0 -0.12770983336E+00  0.18619972071E-01 -0.83668581325E-02  0.13082178146E+00  0.19693381987E-01 0.  0.
         14    1    1    2    0    0 -0.67908894387E-02 -0.17257795982E-01  0.13388723177E-01  0.22873688156E-01  0.00000000000E+00 0.  1.
     999901    1    3    3    0    0  0.13450072279E+00 -0.13621760881E-02 -0.50218650450E-02  0.89023453038E+00  0.88000000000E+00 0. -1.
        -11    1    4    4    0    0 -0.50255040689E-01  0.69750108860E-02 -0.12933621479E-01  0.52361814112E-01  0.51100000000E-03 0. -1.
         11    1    4    4    0    0 -0.77454792667E-01  0.11644961185E-01  0.45667633467E-02  0.78459967350E-01  0.51100000000E-03 0.  1.
</event>
<event>
 8    1  0.1076043E+005  0.1043930E+01  0.7957747E-01            NaN
         13   -1    0    0    0    0  0.00000000000E+00  0.00000000000E+00  0.74505805969E-08  0.10566000000E+00  0.10566000000E+00 0. -1.
     999900   -1    0    0    0    0 -0.00000000000E+00 -0.00000000000E+00 -0.74505805969E-08  0.93827000000E+00  0.93827000000E+00 0.  1.
     999902    2    1    2    0    0  0.18046441824E-01  0.14559292373E-01 -0.58829177886E-02  0.10200081318E+01  0.10197275779E+01 0.  0.
     999903    2    3    3    0    0  0.33785418573E-02  0.71322021275E-01  0.10756692183E+00  0.13079048645E+00  0.20910844309E-01 0.  0.
         14    1    1    2    0    0 -0.18046441824E-01 -0.14559292373E-01  0.58829177886E-02  0.23921868209E-01  0.00000000000E+00 0. -1.
     999901    1    3    3    0    0  0.14667899967E-01 -0.56762728902E-01 -0.11344983962E+00  0.88921764534E+00  0.88000000000E+00 0.  1.
        -11    1    4    4    0    0  0.14273159401E-03  0.18942790490E-01  0.46838694819E-01  0.50526964457E-01  0.51100000000E-03 0.  1.
         11    1    4    4    0    0  0.32358102632E-02  0.52379230784E-01  0.60728227009E-01  0.80263521990E-01  0.51100000000E-03 0. -1.
</event>
<event>
 8    1  0.1076043E+005  0.1043930E+01  0.7957747E-01            NaN
         13   -1    0    0    0    0  0.00000000000E+00  0.00000000000E+00  0.74505805969E-08  0.10566000000E+00  0.10566000000E+00 0. -1.
     999900   -1    0    0    0    0 -0.00000000000E+00 -0.00000000000E+00 -0.74505805969E-08  0.93827000000E+00  0.93827000000E+00 0. -1.
     999902    2    1    2    0    0 -0.13114466697E-01  0.12732526495E-01 -0.14689688187E-01  0.10204801939E+01  0.10202107296E+01 0.  0.
     999903    2    3    3    0    0 -0.31324079136E-01  0.10818585110E+00 -0.67207121149E-01  0.13357489571E+00  0.25299788944E-01 0.  0.
         14    1    1    2    0    0  0.13114466697E-01 -0.12732526495E-01  0.14689688187E-01  0.23449806113E-01  0.00000000000E+00 0. -1.
     999901    1    3    3    0    0  0.18209612440E-01 -0.95453324602E-01  0.52517432962E-01  0.88690529817E+00  0.88000000000E+00 0.  1.
        -11    1    4    4    0    0 -0.39143952190E-02  0.50875117898E-01 -0.38164268083E-01  0.63721052961E-01  0.51100000000E-03 0.  1.
         11    1    4    4    0    0 -0.27409683917E-01  0.57310733199E-01 -0.29042853066E-01  0.69853842754E-01  0.51100000000E-03 0. -1.
</event>
<event>
 7    1  0.1076043E+005  0.1043930E+01  0.7957747E-01            NaN
         13   -1    0    0    0    0  0.00000000000E+00  0.00000000000E+00  0.74505805969E-08  0.10566000000E+00  0.10566000000E+00 0. -1.
     999900   -1    0    0    0    0 -0.00000000000E+00 -0.00000000000E+00 -0.74505805969E-08  0.93827000000E+00  0.93827000000E+00 0.  1.
     999902    2    1    2    0    0 -0.18929105077E-01 -0.18948251627E-02 -0.13663252276E-01  0.10205080905E+01  0.10202392744E+01 0.  0.
         14    1    1    2    0    0  0.18929105077E-01  0.18948251627E-02  0.13663252276E-01  0.23421909491E-01  0.00000000000E+00 0. -1.
     999901    1    3    3    0    0 -0.12769606608E+00 -0.64921375192E-01  0.14113606459E-01  0.89169516323E+00  0.88000000000E+00 0.  1.
        -11    1    3    3    0    0  0.77056424643E-01  0.43784181498E-01 -0.21364055663E-01  0.91167050647E-01  0.51100000000E-03 0. -1.
         11    1    3    3    0    0  0.31710536358E-01  0.19242368532E-01 -0.64128030725E-02  0.37645876628E-01  0.51100000000E-03 0.  1.
</event>
<event>
 8    1  0.1076043E+005  0.1043930E+01  0.7957747E-01            NaN
         13   -1    0    0    0    0  0.00000000000E+00  0.00000000000E+00  0.74505805969E-08  0.10566000000E+00  0.10566000000E+00 0.  1.
     999900   -1    0    0    0    0 -0.00000000000E+00 -0.00000000000E+00 -0.74505805969E-08  0.93827000000E+00  0.93827000000E+00 0.  1.
     999902    2    1    2    0    0  0.15564090027E-01  0.21363672647E-02 -0.18882119037E-01  0.10193670323E+01  0.10190710511E+01 0.  0.
     999903    2    3    3    0    0 -0.59325452735E-01  0.11226108416E+00 -0.15518520478E-01  0.12934050983E+00  0.19133286368E-01 0.  0.
         14    1    1    2    0    0 -0.15564090027E-01 -0.21363672647E-02  0.18882119037E-01  0.24562967711E-01  0.00000000000E+00 0.  1.
     999901    1    3    3    0    0  0.74889542762E-01 -0.11012471689E+00 -0.33635985587E-02  0.89002652246E+00  0.88000000000E+00 0. -1.
        -11    1    4    4    0    0 -0.15950772247E-01  0.15176753022E-01 -0.40084922909E-02  0.22385041859E-01  0.51100000000E-03 0. -1.
         11    1    4    4    0    0 -0.43374680488E-01  0.97084331133E-01 -0.11510028187E-01  0.10695546797E+00  0.51100000000E-03 0.  1.
</event>
<event>
 8    1  0.1331342E+005  0.1043930E+01  0.7957747E-01            NaN
         13   -1    0    0    0    0  0.00000000000E+00  0.00000000000E+00  0.74505805969E-08  0.10566000000E+00  0.10566000000E+00 0. -1.
     999900   -1    0    0    0    0 -0.00000000000E+00 -0.00000000000E+00 -0.74505805969E-08  0.93827000000E+00  0.93827000000E+00 0.  1.
     999902    2    1    2    0    0 -0.98478518713E-02  0.18155451092E-01 -0.10907299981E-01  0.10205725647E+01  0.10203052436E+01 0.  0.
     999903    2    3    3    0    0  0.94953882692E-01 -0.37073487869E-01 -0.79534236619E-01  0.12998663639E+00  0.13421903950E-01 0.  0.
         14    1    1    2    0    0  0.98478518713E-02 -0.18155451092E-01  0.10907299981E-01  0.23357435298E-01  0.00000000000E+00 0. -1.
     999901    1    3    3    0    0 -0.10480173456E+00  0.55228938961E-01  0.68626936638E-01  0.89058592831E+00  0.88000000000E+00 0. -1.
        -11    1    4    4    0    0  0.59137494933E-01 -0.26912334398E-01 -0.43649397112E-01  0.78275462559E-01  0.51100000000E-03 0. -1.
         11    1    4    4    0    0  0.35816387759E-01 -0.10161153470E-01 -0.35884839507E-01  0.51711173835E-01  0.51100000000E-03 0.  1.
</event>
<event>
 8    1  0.1076043E+005  0.1043930E+01  0.7957747E-01            NaN
         13   -1    0    0    0    0  0.00000000000E+00  0.00000000000E+00  0.74505805969E-08  0.10566000000E+00  0.10566000000E+00 0. -1.
     999900   -1    0    0    0    0 -0.00000000000E+00 -0.00000000000E+00 -0.74505805969E-08  0.93827000000E+00  0.93827000000E+00 0. -1.
     999902    2    1    2    0    0 -0.31567308883E-03 -0.60899244672E-02 -0.22910928642E-01  0.10202214049E+01  0.10199458895E+01 0.  0.
     999903    2    3    3    0    0  0.78266146520E-01 -0.10295039197E+00  0.80085375291E-02  0.13088847180E+00  0.18527883825E-01 0.  0.
         14    1    1    2    0    0  0.31567308883E-03  0.60899244672E-02  0.22910928642E-01  0.23708595082E-01  0.00000000000E+00 0. -1.
     999901    1    3    3    0    0 -0.78581819609E-01  0.96860467503E-01 -0.30919466172E-01  0.88933293312E+00  0.88000000000E+00 0. -1.
        -11    1    4    4    0    0  0.45017081095E-01 -0.72776184142E-01  0.83749523617E-02  0.85984367862E-01  0.51100000000E-03 0.  1.
         11    1    4    4    0    0  0.33249065425E-01 -0.30174207828E-01 -0.36641483259E-03  0.44904103939E-01  0.51100000000E-03 0. -1.
</event>
<event>
 8    1  0.1076043E+005  0.1043930E+01  0.7957747E-01            NaN
         13   -1    0    0    0    0  0.00000000000E+00  0.00000000000E+00  0.74505805969E-08  0.10566000000E+00  0.10566000000E+00 0.  1.
     999900   -1    0    0    0    0 -0.00000000000E+00 -0.00000000000E+00 -0.74505805969E-08  0.93827000000E+00  0.93827000000E+00 0. -1.
     999902    2    1    2    0    0 -0.18099528073E-01 -0.10246271681E-01  0.24438564189E-02  0.10229883803E+01  0.10227740097E+01 0.  0.
     999903    2    3    3    0    0  0.32841991657E-01 -0.11555147992E+00 -0.54792054019E-01  0.13340410959E+00  0.19072135302E-01 0.  0.
         14    1    1    2    0    0  0.18099528073E-01  0.10246271681E-01 -0.24438564189E-02  0.20941619661E-01  0.00000000000E+00 0.  1.
     999901    1    3    3    0    0 -0.50941519730E-01  0.10530520824E+00  0.57235910438E-01  0.88958427075E+00  0.88000000000E+00 0.  1.
        -11    1    4    4    0    0  0.11308743968E-01 -0.71671388155E-01 -0.36387631892E-01  0.81172633602E-01  0.51100000000E-03 0.  1.
         11    1    4    4    0    0  0.21533247689E-01 -0.43880091764E-01 -0.18404422127E-01  0.52231475990E-01  0.51100000000E-03 0. -1.
</event>
<event>
 8    1  0.1076043E+005  0.1043930E+01  0.7957747E-01            NaN
         13   -1    0    0    0    0  0.00000000000E+00  0.00000000000E+00  0.74505805969E-08  0.10566000000E+00  0.10566000000E+00 0. -1.
     999900   -1    0    0    0    0 -0.00000000000E+00 -0.00000000000E+00 -0.74505805969E-08  0.93827000000E+00  0.93827000000E+00 0.  1.
     999902    2    1    2    0    0 -0.19188417531E-01 -0.42044611024E-02  0.12635694571E-01  0.10205733385E+01  0.10203060352E+01 0.  0.
     999903    2    3    3    0    0 -0.12412234594E+00  0.31358954000E-01 -0.28428348666E-01  0.13267574219E+00  0.20123140914E-01 0.  0.
         14    1    1    2    0    0  0.19188417531E-01  0.42044611024E-02 -0.12635694571E-01  0.23356661529E-01  0.00000000000E+00 0.  1.
     999901    1    3    3    0    0  0.10493392841E+00 -0.35563415103E-01  0.41064043237E-01  0.88789759628E+00  0.88000000000E+00 0.  1.
        -11    1    4    4    0    0 -0.10001107194E+00  0.17120022559E-01 -0.24622542185E-01  0.10441187858E+00  0.51100000000E-03 0.  1.
         11    1    4    4    0    0 -0.24111274005E-01  0.14238931441E-01 -0.38058064810E-02  0.28263863619E-01  0.51100000000E-03 0. -1.
</event>
<event>
 8    1  0.1076043E+005  0.1043930E+01  0.7957747E-01            NaN
         13   -1    0    0    0    0  0.00000000000E+00  0.00000000000E+00  0.74505805969E-08  0.10566000000E+00  0.10566000000E+00 0.  1.
     999900   -1    0    0    0    0 -0.00000000000E+00 -0.00000000000E+00 -0.74505805969E-08  0.93827000000E+00  0.93827000000E+00 0. -1.
     999902    2    1    2    0    0  0.12066784850E-01 -0.20497671045E-01  0.76751471013E-03  0.10201318721E+01  0.10198542472E+01 0.  0.
     999903    2    3    3    0    0  0.10833236556E+00  0.28781525241E-01 -0.63836733288E-01  0.13116100072E+00  0.23744514546E-01 0.  0.
         14    1    1    2    0    0 -0.12066784850E-01  0.20497671045E-01 -0.76751471013E-03  0.23798127945E-01  0.00000000000E+00 0. -1.
     999901    1    3    3    0    0 -0.96265580710E-01 -0.49279196286E-01  0.64604247998E-01  0.88897087133E+00  0.88000000000E+00 0.  1.
        -11    1    4    4    0    0  0.57876039086E-01  0.55286541225E-02 -0.24535312392E-01  0.63106612901E-01  0.51100000000E-03 0. -1.
         11    1    4    4    0    0  0.50456326474E-01  0.23252871119E-01 -0.39301420895E-01  0.68054387822E-01  0.51100000000E-03 0.  1.
</event>
<event>
 8    1  0.1076043E+005  0.1043930E+01  0.7957747E-01            NaN
         13   -1    0    0    0    0  0.00000000000E+00  0.00000000000E+00  0.74505805969E-08  0.10566000000E+00  0.10566000000E+00 0. -1.
     999900   -1    0    0    0    0 -0.00000000000E+00 -0.00000000000E+00 -0.74505805969E-08  0.93827000000E+00  0.93827000000E+00 0. -1.
     999902    2    1    2    0    0 -0.25020248566E-02 -0.30978063664E-03 -0.23530937746E-01  0.10202643894E+01  0.10199898839E+01 0.  0.
     999903    2    3    3    0    0  0.10498935820E+00  0.34564630618E-01 -0.68928833131E-01  0.13187731675E+00  0.20566079179E-01 0.  0.
         14    1    1    2    0    0  0.25020248566E-02  0.30978063664E-03  0.23530937746E-01  0.23665610570E-01  0.00000000000E+00 0. -1.
     999901    1    3    3    0    0 -0.10749138306E+00 -0.34874411255E-01  0.45397895385E-01  0.88838707268E+00  0.88000000000E+00 0.  1.
        -11    1    4    4    0    0  0.13831494127E-01  0.11952540887E-01 -0.82723203475E-02  0.20071518836E-01  0.51100000000E-03 0. -1.
         11    1    4    4    0    0  0.91157864072E-01  0.22612089730E-01 -0.60656512784E-01  0.11180579792E+00  0.51100000000E-03 0.  1.
</event>
<event>
 8    1  0.1076043E+005  0.1043930E+01  0.7957747E-01            NaN
         13   -1    0    0    0    0  0.00000000000E+00  0.00000000000E+00  0.74505805969E-08  0.10566000000E+00  0.10566000000E+00 0.  1.
     999900   -1    0    0    0    0 -0.00000000000E+00 -0.00000000000E+00 -0.74505805969E-08  0.93827000000E+00  0.93827000000E+00 0. -1.
     999902    2    1    2    0    0  0.21706470149E-02  0.81398264010E-02 -0.22790241960E-01  0.10196326007E+01  0.10193430614E+01 0.  0.
     999903    2    3    3    0    0 -0.89235469915E-02  0.10624194779E+00 -0.76181605841E-01  0.13250366699E+00  0.19662236300E-01 0.  0.
         14    1    1    2    0    0 -0.21706470149E-02 -0.81398264010E-02  0.22790241960E-01  0.24297399262E-01  0.00000000000E+00 0.  1.
     999901    1    3    3    0    0  0.11094194006E-01 -0.98102121385E-01  0.53391363881E-01  0.88712893375E+00  0.88000000000E+00 0.  1.
        -11    1    4    4    0    0  0.56707002287E-02  0.39606630318E-01 -0.24478605450E-01  0.46907411482E-01  0.51100000000E-03 0.  1.
         11    1    4    4    0    0 -0.14594247220E-01  0.66635317468E-01 -0.51703000391E-01  0.85596255505E-01  0.51100000000E-03 0. -1.
</event>
<event>
 8    1  0.1076043E+005  0.1043930E+01  0.7957747E-01            NaN
         13   -1    0    0    0    0  0.00000000000E+00  0.00000000000E+00  0.74505805969E-08  0.10566000000E+00  0.10566000000E+00 0.  1.
     999900   -1    0    0    0    0 -0.00000000000E+00 -0.00000000000E+00 -0.74505805969E-08  0.93827000000E+00  0.93827000000E+00 0. -1.
     999902    2    1    2    0    0  0.15191472116E-01  0.15277506819E-01 -0.95591520206E-02  0.10203596706E+01  0.10200873967E+01 0.  0.
     999903    2    3    3    0    0 -0.62247125707E-02 -0.12530421726E+00 -0.25056941338E-01  0.12880930436E+00  0.14969725079E-01 0.  0.
         14    1    1    2    0    0 -0.15191472116E-01 -0.15277506819E-01  0.95591520206E-02  0.23570329379E-01  0.00000000000E+00 0. -1.
     999901    1    3    3    0    0  0.21416184687E-01  0.14058172408E+00  0.15497789318E-01  0.89155036626E+00  0.88000000000E+00 0. -1.
        -11    1    4    4    0    0  0.33416183934E-02 -0.84309527503E-02 -0.18175762106E-02  0.92634810977E-02  0.51100000000E-03 0. -1.
         11    1    4    4    0    0 -0.95663309641E-02 -0.11687326451E+00 -0.23239365128E-01  0.11954582326E+00  0.51100000000E-03 0.  1.
</event>
<event>
 8    1  0.1076043E+005  0.1043930E+01  0.7957747E-01            NaN
         13   -1    0    0    0    0  0.00000000000E+00  0.00000000000E+00  0.74505805969E-08  0.10566000000E+00  0.10566000000E+00 0. -1.
     999900   -1    0    0    0    0 -0.00000000000E+00 -0.00000000000E+00 -0.74505805969E-08  0.93827000000E+00  0.93827000000E+00 0. -1.
     999902    2    1    2    0    0 -0.11151594071E-01  0.19386811796E-01  0.79227290137E-02  0.10202028814E+01  0.10199269303E+01 0.  0.
     999903    2    3    3    0    0  0.83327991671E-01 -0.79765052036E-01 -0.50270695771E-01  0.12770976719E+00  0.21831721435E-01 0.  0.
         14    1    1    2    0    0  0.11151594071E-01 -0.19386811796E-01 -0.79227290137E-02  0.23727118598E-01  0.00000000000E+00 0.  1.
     999901    1    3    3    0    0 -0.94479585743E-01  0.99151863832E-01  0.58193424784E-01  0.89249311421E+00  0.88000000000E+00 0.  1.
        -11    1    4    4    0    0  0.33837168232E-01 -0.19006802892E-01 -0.20366826971E-01  0.43832422611E-01  0.51100000000E-03 0.  1.
         11    1    4    4    0    0  0.49490823439E-01 -0.60758249145E-01 -0.29903868800E-01  0.83877344581E-01  0.51100000000E-03 0. -1.
</event>
<event>
 8    1  0.1076043E+005  0.1043930E+01  0.7957747E-01            NaN
         13   -1    0    0    0    0  0.00000000000E+00  0.00000000000E+00  0.74505805969E-08  0.10566000000E+00  0.10566000000E+00 0.  1.
     999900   -1    0    0    0    0 -0.00000000000E+00 -0.00000000000E+00 -0.74505805969E-08  0.93827000000E+00  0.93827000000E+00 0.  1.
     999902    2    1    2    0    0 -0.12348845587E-01  0.94451315753E-02 -0.21495415972E-01  0.10174015736E+01  0.10170556546E+01 0.  0.
     999903    2    3    3    0    0 -0.66224380161E-01  0.10958865522E+00  0.51749738912E-02  0.12968393370E+00  0.19894733574E-01 0.  0.
         14    1    1    2    0    0  0.12348845587E-01 -0.94451315753E-02  0.21495415972E-01  0.26528426369E-01  0.00000000000E+00 0.  1.
     999901    1    3    3    0    0  0.53875534574E-01 -0.10014352364E+00 -0.26670389863E-01  0.88771763993E+00  0.88000000000E+00 0. -1.
        -11    1    4    4    0    0 -0.41846308116E-01  0.52030030372E-01 -0.17222734982E-02  0.66794198179E-01  0.51100000000E-03 0.  1.
         11    1    4    4    0    0 -0.24378072045E-01  0.57558624848E-01  0.68972473894E-02  0.62889735518E-01  0.51100000000E-03 0. -1.
</event>
<event>
 8    1  0.1076043E+005  0.1043930E+01  0.7957747E-01            NaN
         13   -1    0    0    0    0  0.00000000000E+00  0.00000000000E+00  0.74505805969E-08  0.10566000000E+00  0.10566000000E+00 0. -1.
     999900   -1    0    0    0    0 -0.00000000000E+00 -0.00000000000E+00 -0.74505805969E-08  0.93827000000E+00  0.93827000000E+00 0. -1.
     999902    2    1    2    0    0 -0.66283321531E-02 -0.13674433954E-01  0.19202362646E-01  0.10194421323E+01  0.10191479802E+01 0.  0.
     999903    2    3    3    0    0  0.66484288216E-01 -0.99830993627E-01 -0.45440430711E-01  0.12986521113E+00  0.20340905824E-01 0.  0.
         14    1    1    2    0    0  0.66283321531E-02  0.13674433954E-01 -0.19202362646E-01  0.24487867655E-01  0.00000000000E+00 0.  1.
     999901    1    3    3    0    0 -0.73112620369E-01  0.86156559672E-01  0.64642793357E-01  0.88957692122E+00  0.88000000000E+00 0.  1.
        -11    1    4    4    0    0  0.91970564946E-02 -0.26702838377E-01 -0.56554741629E-02  0.28807515244E-01  0.51100000000E-03 0. -1.
         11    1    4    4    0    0  0.57287231721E-01 -0.73128155250E-01 -0.39784956548E-01  0.10105769588E+00  0.51100000000E-03 0.  1.
</event>
<event>
 8    1  0.1076043E+005  0.1043930E+01  0.7957747E-01            NaN
         13   -1    0    0    0    0  0.00000000000E+00  0.00000000000E+00  0.74505805969E-08  0.10566000000E+00  0.10566000000E+00 0.  1.
     999900   -1    0    0    0    0 -0.00000000000E+00 -0.00000000000E+00 -0.74505805969E-08  0.93827000000E+00  0.93827000000E+00 0.  1.
     999902    2    1    2    0    0 -0.28453862943E-02  0.13987009817E-01 -0.18576255333E-01  0.10205033073E+01  0.10202343801E+01 0.  0.
     999903    2    3    3    0    0  0.12126098302E+00 -0.40323656481E-02 -0.45765540650E-01  0.13119664143E+00  0.19939609693E-01 0.  0.
         14    1    1    2    0    0  0.28453862943E-02 -0.13987009817E-01  0.18576255333E-01  0.23426692660E-01  0.00000000000E+00 0.  1.
     999901    1    3    3    0    0 -0.12410636932E+00  0.18019375465E-01  0.27189285317E-01  0.88930666591E+00  0.88000000000E+00 0.  1.
        -11    1    4    4    0    0  0.82740562353E-01  0.63369541039E-02 -0.28734599205E-01  0.87818539946E-01  0.51100000000E-03 0.  1.
         11    1    4    4    0    0  0.38520420670E-01 -0.10369319752E-01 -0.17030941445E-01  0.43378101483E-01  0.51100000000E-03 0. -1.
</event>
<event>
 8    1  0.1076043E+005  0.1043930E+01  0.7957747E-01            NaN
         13   -1    0    0    0    0  0.00000000000E+00  0.00000000000E+00  0.74505805969E-08  0.10566000000E+00  0.10566000000E+00 0.  1.
     999900   -1    0    0    0    0 -0.00000000000E+00 -0.00000000000E+00 -0.74505805969E-08  0.93827000000E+00  0.93827000000E+00 0. -1.
     999902    2    1    2    0    0  0.20518085924E-01  0.16340382306E-01  0.12556705759E-01  0.10148495804E+01  0.10144328465E+01 0.  0.
     999903    2    3    3    0    0  0.68658751876E-01 -0.44434426327E-01 -0.92653666286E-01  0.12519778141E+00  0.20033475519E-01 0.  0.
         14    1    1    2    0    0 -0.20518085924E-01 -0.16340382306E-01 -0.12556705759E-01  0.29080419588E-01  0.00000000000E+00 0. -1.
     999901    1    3    3    0    0 -0.48140665952E-01  0.60774808633E-01  0.10521037204E+00  0.88965179900E+00  0.88000000000E+00 0.  1.
        -11    1    4    4    0    0  0.27484375695E-01 -0.23074987358E-01 -0.53881266405E-01  0.64740234316E-01  0.51100000000E-03 0. -1.
         11    1    4    4    0    0  0.41174376181E-01 -0.21359438968E-01 -0.38772399881E-01  0.60457547093E-01  0.51100000000E-03 0.  1.
</event>
<event>
 8    1  0.1076043E+005  0.1043930E+01  0.7957747E-01            NaN
         13   -1    0    0    0    0  0.00000000000E+00  0.00000000000E+00  0.74505805969E-08  0.10566000000E+00  0.10566000000E+00 0. -1.
     999900   -1    0    0    0    0 -0.00000000000E+00 -0.00000000000E+00 -0.74505805969E-08  0.93827000000E+00  0.93827000000E+00 0. -1.
     999902    2    1    2    0    0  0.97467353440E-03 -0.26705030878E-02 -0.23056073595E-01  0.10206993284E+01  0.10204349341E+01 0.  0.
     999903    2    3    3    0    0  0.11963302627E-02  0.88125780001E-01  0.91398678703E-01  0.12865453998E+00  0.20753021026E-01 0.  0.
         14    1    1    2    0    0 -0.97467353440E-03  0.26705030878E-02  0.23056073595E-01  0.23230671640E-01  0.00000000000E+00 0. -1.
     999901    1    3    3    0    0 -0.22165672828E-03 -0.90796283088E-01 -0.11445475230E+00  0.89204478838E+00  0.88000000000E+00 0. -1.
        -11    1    4    4    0    0 -0.88053850989E-02  0.22692417094E-01  0.25018771061E-01  0.34909606510E-01  0.51100000000E-03 0.  1.
         11    1    4    4    0    0  0.10001715362E-01  0.65433362907E-01  0.66379907642E-01  0.93744933468E-01  0.51100000000E-03 0. -1.
</event>
<event>
 8    1  0.1076043E+005  0.1043930E+01  0.7957747E-01            NaN
         13   -1    0    0    0    0  0.00000000000E+00  0.00000000000E+00  0.74505805969E-08  0.10566000000E+00  0.10566000000E+00 0.  1.
     999900   -1    0    0    0    0 -0.00000000000E+00 -0.00000000000E+00 -0.74505805969E-08  0.93827000000E+00  0.93827000000E+00 0.  1.
     999902    2    1    2    0    0 -0.21653634306E-01 -0.61097895215E-02 -0.58184025146E-02  0.10206907398E+01  0.10204261478E+01 0.  0.
     999903    2    3    3    0    0 -0.13086307915E-03  0.90484681407E-01  0.90919501488E-01  0.12987541463E+00  0.20341408009E-01 0.  0.
         14    1    1    2    0    0  0.21653634306E-01  0.61097895215E-02  0.58184025146E-02  0.23239260196E-01  0.00000000000E+00 0.  1.
     999901    1    3    3    0    0 -0.21522771227E-01 -0.96594470928E-01 -0.96737904003E-01  0.89081532517E+00  0.88000000000E+00 0.  1.
        -11    1    4    4    0    0  0.42612773130E-02  0.86623140152E-01  0.86798911457E-01  0.12270305231E+00  0.51100000000E-03 0. -1.
         11    1    4    4    0    0 -0.43921403921E-02  0.38615412549E-02  0.41205900314E-02  0.71723623232E-02  0.51100000000E-03 0.  1.
</event>
<event>
 8    1  0.1076043E+005  0.1043930E+01  0.7957747E-01            NaN
         13   -1    0    0    0    0  0.00000000000E+00  0.00000000000E+00  0.74505805969E-08  0.10566000000E+00  0.10566000000E+00 0.  1.
     999900   -1    0    0    0    0 -0.00000000000E+00 -0.00000000000E+00 -0.74505805969E-08  0.93827000000E+00  0.93827000000E+00 0.  1.
     999902    2    1    2    0    0 -0.43566235216E-03 -0.63177016141E-02 -0.22164878150E-01  0.10208782109E+01  0.10206179190E+01 0.  0.
     999903    2    3    3    0    0 -0.73938541963E-01  0.47474656797E-01 -0.97805415702E-01  0.13294928245E+00  0.19719567373E-01 0.  0.
         14    1    1    2    0    0  0.43566235216E-03  0.63177016141E-02  0.22164878150E-01  0.23051789058E-01  0.00000000000E+00 0.  1.
     999901    1    3    3    0    0  0.73502879611E-01 -0.53792358411E-01  0.75640537553E-01  0.88792892849E+00  0.88000000000E+00 0. -1.
        -11    1    4    4    0    0 -0.48211506122E-01  0.34950275229E-01 -0.52638633781E-01  0.79479292577E-01  0.51100000000E-03 0.  1.
         11    1    4    4    0    0 -0.25727035841E-01  0.12524381567E-01 -0.45166781921E-01  0.53469989872E-01  0.51100000000E-03 0. -1.
</event>
<event>
 8    1  0.1076043E+005  0.1043930E+01  0.7957747E-01            NaN
         13   -1    0    0    0    0  0.00000000000E+00  0.00000000000E+00  0.74505805969E-08  0.10566000000E+00  0.10566000000E+00 0.  1.
     999900   -1    0    0    0    0 -0.00000000000E+00 -0.00000000000E+00 -0.74505805969E-08  0.93827000000E+00  0.93827000000E+00 0. -1.
     999902    2    1    2    0    0 -0.17866698122E-01 -0.10139609913E-01  0.11028118875E-01  0.10206136968E+01  0.10203473271E+01 0.  0.
     999903    2    3    3    0    0 -0.12683635201E+00  0.91293319491E-02 -0.32029064898E-01  0.13263869786E+00  0.19908748838E-01 0.  0.
         14    1    1    2    0    0  0.17866698122E-01  0.10139609913E-01 -0.11028118875E-01  0.23316303242E-01  0.00000000000E+00 0.  1.
     999901    1    3    3    0    0  0.10896965388E+00 -0.19268941862E-01  0.43057183773E-01  0.88797499890E+00  0.88000000000E+00 0. -1.
        -11    1    4    4    0    0 -0.93794034541E-01  0.14566776924E-01 -0.19642730193E-01  0.96930954168E-01  0.51100000000E-03 0.  1.
         11    1    4    4    0    0 -0.33042317465E-01 -0.54374449750E-02 -0.12386334705E-01  0.35707743695E-01  0.51100000000E-03 0. -1.
</event>
<event>
 8    1  0.1076043E+005  0.1043930E+01  0.7957747E-01            NaN
         13   -1    0    0    0    0  0.00000000000E+00  0.00000000000E+00  0.74505805969E-08  0.10566000000E+00  0.10566000000E+00 0.  1.
     999900   -1    0    0    0    0 -0.00000000000E+00 -0.00000000000E+00 -0.74505805969E-08  0.93827000000E+00  0.93827000000E+00 0.  1.
     999902    2    1    2    0    0  0.19698822831E-01  0.11827417911E-01  0.10873850205E-01  0.10185100855E+01  0.10181928217E+01 0.  0.
     999903    2    3    3    0    0  0.10695990609E+00  0.74532772309E-01  0.43013313129E-02  0.13194950881E+00  0.19915214424E-01 0.  0.
         14    1    1    2    0    0 -0.19698822831E-01 -0.11827417911E-01 -0.10873850205E-01  0.25419914509E-01  0.00000000000E+00 0. -1.
     999901    1    3    3    0    0 -0.87261083257E-01 -0.62705354398E-01  0.65725188919E-02  0.88656057668E+00  0.88000000000E+00 0. -1.
        -11    1    4    4    0    0  0.30223862251E-01  0.10871088658E-01  0.25897900043E-02  0.32227791598E-01  0.51100000000E-03 0.  1.
         11    1    4    4    0    0  0.76736043836E-01  0.63661683651E-01  0.17115413086E-02  0.99721717212E-01  0.51100000000E-03 0. -1.
</event>
<event>
 8    1  0.1076043E+005  0.1043930E+01  0.7957747E-01            NaN
         13   -1    0    0    0    0  0.00000000000E+00  0.00000000000E+00  0.74505805969E-08  0.10566000000E+00  0.10566000000E+00 0.  1.
     999900   -1    0    0    0    0 -0.00000000000E+00 -0.00000000000E+00 -0.74505805969E-08  0.93827000000E+00  0.93827000000E+00 0.  1.
     999902    2    1    2    0    0 -0.12345280494E-01 -0.10444790852E-01 -0.17199532983E-01  0.10203222991E+01  0.10200491510E+01 0.  0.
     999903    2    3    3    0    0 -0.88628978727E-01  0.50651925332E-01 -0.81609813814E-01  0.13257194252E+00  0.22236115302E-01 0.  0.
         14    1    1    2    0    0  0.12345280494E-01  0.10444790852E-01  0.17199532983E-01  0.23607700888E-01  0.00000000000E+00 0.  1.
     999901    1    3    3    0    0  0.76283698234E-01 -0.61096716184E-01  0.64410280832E-01  0.88775035659E+00  0.88000000000E+00 0.  1.
        -11    1    4    4    0    0 -0.34622818993E-01  0.94787827470E-02 -0.35474424144E-01  0.50470613298E-01  0.51100000000E-03 0. -1.
         11    1    4    4    0    0 -0.54006159734E-01  0.41173142585E-01 -0.46135389671E-01  0.82101329226E-01  0.51100000000E-03 0.  1.
</event>
<event>
 8    1  0.1076043E+005  0.1043930E+01  0.7957747E-01            NaN
         13   -1    0    0    0    0  0.00000000000E+00  0.00000000000E+00  0.74505805969E-08  0.10566000000E+00  0.10566000000E+00 0.  1.
     999900   -1    0    0    0    0 -0.00000000000E+00 -0.00000000000E+00 -0.74505805969E-08  0.93827000000E+00  0.93827000000E+00 0.  1.
     999902    2    1    2    0    0  0.34127512344E-02  0.83471754342E-02  0.22224210160E-01  0.10199458860E+01  0.10196638527E+01 0.  0.
     999903    2    3    3    0    0 -0.11145465725E+00 -0.62455922119E-01  0.87474504752E-02  0.12955876611E+00  0.19648744386E-01 0.  0.
         14    1    1    2    0    0 -0.34127512344E-02 -0.83471754342E-02 -0.22224210160E-01  0.23984114033E-01  0.00000000000E+00 0. -1.
     999901    1    3    3    0    0  0.11486740848E+00  0.70803097553E-01  0.13476759685E-01  0.89038711986E+00  0.88000000000E+00 0.  1.
        -11    1    4    4    0    0 -0.26220579932E-01 -0.24747445792E-01  0.25727408786E-02  0.36150172916E-01  0.51100000000E-03 0. -1.
         11    1    4    4    0    0 -0.85234077317E-01 -0.37708476327E-01  0.61747095966E-02  0.93408593194E-01  0.51100000000E-03 0.  1.
</event>
<event>
 7    1  0.1076043E+005  0.1043930E+01  0.7957747E-01            NaN
         13   -1    0    0    0    0  0.00000000000E+00  0.00000000000E+00  0.74505805969E-08  0.10566000000E+00  0.10566000000E+00 0. -1.
     999900   -1    0    0    0    0 -0.00000000000E+00 -0.00000000000E+00 -0.74505805969E-08  0.93827000000E+00  0.93827000000E+00 0. -1.
     999903    2    1    2    0    0 -0.32925063761E-01 -0.88796814648E-01 -0.61544157475E-01  0.11478235144E+00  0.20454113683E-01 0.  0.
         14    1    1    2    0    0  0.18010945107E-01  0.42043645686E-01  0.33005942731E-02  0.45858000488E-01  0.00000000000E+00 0. -1.
     999901    1    1    2    0    0  0.14914118654E-01  0.46753168962E-01  0.58243563202E-01  0.88328964808E+00  0.88000000000E+00 0.  1.
        -11    1    3    3    0    0 -0.17658054757E-01 -0.28452105859E-01 -0.30165160981E-01  0.45072467025E-01  0.51100000000E-03 0.  1.
         11    1    3    3    0    0 -0.15267009004E-01 -0.60344708789E-01 -0.31378996493E-01  0.69709884411E-01  0.51100000000E-03 0. -1.
</event>
<event>
 8    1  0.1076043E+005  0.1043930E+01  0.7957747E-01            NaN
         13   -1    0    0    0    0  0.00000000000E+00  0.00000000000E+00  0.74505805969E-08  0.10566000000E+00  0.10566000000E+00 0. -1.
     999900   -1    0    0    0    0 -0.00000000000E+00 -0.00000000000E+00 -0.74505805969E-08  0.93827000000E+00  0.93827000000E+00 0.  1.
     999902    2    1    2    0    0  0.30534888801E-02  0.19135725247E-01  0.13619355197E-01  0.10202448441E+01  0.10199698796E+01 0.  0.
     999903    2    3    3    0    0 -0.10796174849E+00 -0.61589061436E-01 -0.26595709620E-01  0.12869668186E+00  0.20163147741E-01 0.  0.
         14    1    1    2    0    0 -0.30534888801E-02 -0.19135725247E-01 -0.13619355197E-01  0.23685155922E-01  0.00000000000E+00 0.  1.
     999901    1    3    3    0    0  0.11101523737E+00  0.80724786683E-01  0.40215064817E-01  0.89154816222E+00  0.88000000000E+00 0.  1.
        -11    1    4    4    0    0 -0.22490786225E-01 -0.17129143709E-01 -0.13938868772E-01  0.31524533508E-01  0.51100000000E-03 0.  1.
         11    1    4    4    0    0 -0.85470962263E-01 -0.44459917726E-01 -0.12656840847E-01  0.97172148353E-01  0.51100000000E-03 0. -1.
</event>
<event>
 8    1  0.1076043E+005  0.1043930E+01  0.7957747E-01            NaN
         13   -1    0    0    0    0  0.00000000000E+00  0.00000000000E+00  0.74505805969E-08  0.10566000000E+00  0.10566000000E+00 0. -1.
     999900   -1    0    0    0    0 -0.00000000000E+00 -0.00000000000E+00 -0.74505805969E-08  0.93827000000E+00  0.93827000000E+00 0.  1.
     999902    2    1    2    0    0 -0.20294221934E-01  0.42308950544E-02 -0.10475574484E-01  0.10207029990E+01  0.10204386892E+01 0.  0.
     999903    2    3    3    0    0 -0.68826743270E-01  0.97346643224E-01  0.53407160824E-01  0.13216096165E+00  0.20017627750E-01 0.  0.
         14    1    1    2    0    0  0.20294221934E-01 -0.42308950544E-02  0.10475574484E-01  0.23227001047E-01  0.00000000000E+00 0. -1.
     999901    1    3    3    0    0  0.48532521336E-01 -0.93115748170E-01 -0.63882735307E-01  0.88854203730E+00  0.88000000000E+00 0.  1.
        -11    1    4    4    0    0 -0.15893247132E-01  0.11507045261E-01  0.12857188319E-01  0.23464351845E-01  0.51100000000E-03 0.  1.
         11    1    4    4    0    0 -0.52933496138E-01  0.85839597963E-01  0.40549972504E-01  0.10869660980E+00  0.51100000000E-03 0. -1.
</event>
<event>
 8    1  0.1076043E+005  0.1043930E+01  0.7957747E-01            NaN
         13   -1    0    0    0    0  0.00000000000E+00  0.00000000000E+00  0.74505805969E-08  0.10566000000E+00  0.10566000000E+00 0.  1.
     999900   -1    0    0    0    0 -0.00000000000E+00 -0.00000000000E+00 -0.74505805969E-08  0.93827000000E+00  0.93827000000E+00 0.  1.
     999902    2    1    2    0    0 -0.23107454684E-01 -0.42114299523E-02  0.38673176951E-02  0.10201256569E+01  0.10198478853E+01 0.  0.
     999903    2    3    3    0    0 -0.12663040945E+00  0.33952801178E-01 -0.11702185047E-01  0.13309920853E+00  0.19758665684E-01 0.  0.
         14    1    1    2    0    0  0.23107454684E-01  0.42114299523E-02 -0.38673176951E-02  0.23804343099E-01  0.00000000000E+00 0.  1.
     999901    1    3    3    0    0  0.10352295477E+00 -0.38164231130E-01  0.15569502742E-01  0.88702644838E+00  0.88000000000E+00 0.  1.
        -11    1    4    4    0    0 -0.58585306330E-01  0.25083286156E-01 -0.95504138666E-02  0.64442849784E-01  0.51100000000E-03 0.  1.
         11    1    4    4    0    0 -0.68045103121E-01  0.88695150214E-02 -0.21517711799E-02  0.68656358742E-01  0.51100000000E-03 0. -1.
</event>
<event>
 8    1  0.1076043E+005  0.1043930E+01  0.7957747E-01            NaN
         13   -1    0    0    0    0  0.00000000000E+00  0.00000000000E+00  0.74505805969E-08  0.10566000000E+00  0.10566000000E+00 0.  1.
     999900   -1    0    0    0    0 -0.00000000000E+00 -0.00000000000E+00 -0.74505805969E-08  0.93827000000E+00  0.93827000000E+00 0. -1.
     999902    2    1    2    0    0 -0.16780220481E-01  0.13931607135E-01  0.98370569485E-02  0.10200044244E+01  0.10197237826E+01 0.  0.
     999903    2    3    3    0    0  0.41090330732E-01  0.11858173318E+00  0.34116161859E-01  0.13158440861E+00  0.20012530240E-01 0.  0.
         14    1    1    2    0    0  0.16780220481E-01 -0.13931607135E-01 -0.98370569485E-02  0.23925575566E-01  0.00000000000E+00 0. -1.
     999901    1    3    3    0    0 -0.57870551213E-01 -0.10465012604E+00 -0.24279104911E-01  0.88842001582E+00  0.88000000000E+00 0.  1.
        -11    1    4    4    0    0  0.19008462382E-01  0.66885576480E-01  0.93800569808E-02  0.70165864729E-01  0.51100000000E-03 0.  1.
         11    1    4    4    0    0  0.22081868349E-01  0.51696156698E-01  0.24736104879E-01  0.61418543883E-01  0.51100000000E-03 0. -1.
</event>
<event>
 8    1  0.1076043E+005  0.1043930E+01  0.7957747E-01            NaN
         13   -1    0    0    0    0  0.00000000000E+00  0.00000000000E+00  0.74505805969E-08  0.10566000000E+00  0.10566000000E+00 0. -1.
     999900   -1    0    0    0    0 -0.00000000000E+00 -0.00000000000E+00 -0.74505805969E-08  0.93827000000E+00  0.93827000000E+00 0. -1.
     999902    2    1    2    0    0  0.14388882497E-01 -0.58677659928E-02  0.13545652957E-01  0.10233155553E+01  0.10231078977E+01 0.  0.
     999903    2    3    3    0    0 -0.11871752317E+00 -0.42956823512E-01 -0.30580696251E-01  0.13144109768E+00  0.20061011500E-01 0.  0.
         14    1    1    2    0    0 -0.14388882497E-01  0.58677659928E-02 -0.13545652957E-01  0.20614444725E-01  0.00000000000E+00 0.  1.
     999901    1    3    3    0    0  0.13310640567E+00  0.37089057519E-01  0.44126349209E-01  0.89187445760E+00  0.88000000000E+00 0. -1.
        -11    1    4    4    0    0 -0.88628809515E-01 -0.23155152352E-01 -0.18572851717E-01  0.93468919425E-01  0.51100000000E-03 0.  1.
         11    1    4    4    0    0 -0.30088713653E-01 -0.19801671160E-01 -0.12007844534E-01  0.37972178254E-01  0.51100000000E-03 0. -1.
</event>
<event>
 8    1  0.1076043E+005  0.1043930E+01  0.7957747E-01            NaN
         13   -1    0    0    0    0  0.00000000000E+00  0.00000000000E+00  0.74505805969E-08  0.10566000000E+00  0.10566000000E+00 0. -1.
     999900   -1    0    0    0    0 -0.00000000000E+00 -0.00000000000E+00 -0.74505805969E-08  0.93827000000E+00  0.93827000000E+00 0.  1.
     999902    2    1    2    0    0 -0.14520823297E-01 -0.11442052743E-01  0.13038070549E-01  0.10213077507E+01  0.10210571754E+01 0.  0.
     999903    2    3    3    0    0 -0.37265841227E-01  0.25964747049E-02 -0.12325864689E+00  0.13041426027E+00  0.20486596723E-01 0.  0.
         14    1    1    2    0    0  0.14520823297E-01  0.11442052743E-01 -0.13038070549E-01  0.22622249310E-01  0.00000000000E+00 0. -1.
     999901    1    3    3    0    0  0.22745017930E-01 -0.14038527448E-01  0.13629671744E+00  0.89089349042E+00  0.88000000000E+00 0. -1.
        -11    1    4    4    0    0 -0.20227695521E-01 -0.16961860277E-02 -0.35361010717E-01  0.40776205231E-01  0.51100000000E-03 0.  1.
         11    1    4    4    0    0 -0.17038145706E-01  0.42926607326E-02 -0.87897636171E-01  0.89638055036E-01  0.51100000000E-03 0. -1.
</event>
<event>
 8    1  0.1076043E+005  0.1043930E+01  0.7957747E-01            NaN
         13   -1    0    0    0    0  0.00000000000E+00  0.00000000000E+00  0.74505805969E-08  0.10566000000E+00  0.10566000000E+00 0. -1.
     999900   -1    0    0    0    0 -0.00000000000E+00 -0.00000000000E+00 -0.74505805969E-08  0.93827000000E+00  0.93827000000E+00 0.  1.
     999902    2    1    2    0    0 -0.27505705548E-03  0.81597261692E-02  0.21775522281E-01  0.10206742446E+01  0.10204092725E+01 0.  0.
     999903    2    3    3    0    0 -0.86302833730E-01  0.58212662250E-01 -0.74992235208E-01  0.12979261744E+00  0.19631480930E-01 0.  0.
         14    1    1    2    0    0  0.27505705548E-03 -0.81597261692E-02 -0.21775522281E-01  0.23255755377E-01  0.00000000000E+00 0.  1.
     999901    1    3    3    0    0  0.86027776674E-01 -0.50052936081E-01  0.96767757489E-01  0.89088162719E+00  0.88000000000E+00 0. -1.
        -11    1    4    4    0    0 -0.60140857007E-01  0.46556512917E-01 -0.45255720307E-01  0.88502954289E-01  0.51100000000E-03 0. -1.
         11    1    4    4    0    0 -0.26161976723E-01  0.11656149333E-01 -0.29736514901E-01  0.41289663147E-01  0.51100000000E-03 0.  1.
</event>
<event>
 8    1  0.1076043E+005  0.1043930E+01  0.7957747E-01            NaN
         13   -1    0    0    0    0  0.00000000000E+00  0.00000000000E+00  0.74505805969E-08  0.10566000000E+00  0.10566000000E+00 0.  1.
     999900   -1    0    0    0    0 -0.00000000000E+00 -0.00000000000E+00 -0.74505805969E-08  0.93827000000E+00  0.93827000000E+00 0.  1.
     999902    2    1    2    0    0  0.15483730996E-01 -0.13814898745E-01 -0.10947929736E-01  0.10204682328E+01  0.10201984903E+01 0.  0.
     999903    2    3    3    0    0  0.82176156991E-01  0.30367003577E-01  0.94886299722E-01  0.13052396250E+00  0.18921396038E-01 0.  0.
         14    1    1    2    0    0 -0.15483730996E-01  0.13814898745E-01  0.10947929736E-01  0.23461767162E-01  0.00000000000E+00 0. -1.
     999901    1    3    3    0    0 -0.66692425996E-01 -0.44181902322E-01 -0.10583422946E+00  0.88994427034E+00  0.88000000000E+00 0.  1.
        -11    1    4    4    0    0  0.26869722942E-01  0.79443503695E-02  0.18468344342E-01  0.33562413165E-01  0.51100000000E-03 0. -1.
         11    1    4    4    0    0  0.55306434050E-01  0.22422653208E-01  0.76417955381E-01  0.96961549337E-01  0.51100000000E-03 0.  1.
</event>
<event>
 8    1  0.1076043E+005  0.1043930E+01  0.7957747E-01            NaN
         13   -1    0    0    0    0  0.00000000000E+00  0.00000000000E+00  0.74505805969E-08  0.10566000000E+00  0.10566000000E+00 0. -1.
     999900   -1    0    0    0    0 -0.00000000000E+00 -0.00000000000E+00 -0.74505805969E-08  0.93827000000E+00  0.93827000000E+00 0.  1.
     999902    2    1    2    0    0  0.66408679715E-02  0.12651427372E-01  0.17384972001E-01  0.10214267337E+01  0.10211788165E+01 0.  0.
     999903    2    3    3    0    0 -0.95913103182E-02 -0.76848564777E-01  0.10551041762E+00  0.13235990475E+00  0.19723108721E-01 0.  0.
         14    1    1    2    0    0 -0.66408679715E-02 -0.12651427372E-01 -0.17384972001E-01  0.22503266284E-01  0.00000000000E+00 0.  1.
     999901    1    3    3    0    0  0.16232178290E-01  0.89499992149E-01 -0.88125445615E-01  0.88906682897E+00  0.88000000000E+00 0.  1.
        -11    1    4    4    0    0 -0.88999185355E-02 -0.57395305229E-01  0.63509976882E-01  0.86065137523E-01  0.51100000000E-03 0.  1.
         11    1    4    4    0    0 -0.69139178272E-03 -0.19453259548E-01  0.42000440734E-01  0.46294767226E-01  0.51100000000E-03 0. -1.
</event>
<event>
 8    1  0.1076043E+005  0.1043930E+01  0.7957747E-01            NaN
         13   -1    0    0    0    0  0.00000000000E+00  0.00000000000E+00  0.74505805969E-08  0.10566000000E+00  0.10566000000E+00 0.  1.
     999900   -1    0    0    0    0 -0.00000000000E+00 -0.00000000000E+00 -0.74505805969E-08  0.93827000000E+00  0.93827000000E+00 0.  1.
     999902    2    1    2    0    0 -0.10117459990E-01 -0.70747426627E-02 -0.20632829129E-01  0.10198856947E+01  0.10196022271E+01 0.  0.
     999903    2    3    3    0    0  0.37382305578E-01 -0.90411318919E-01  0.81373344817E-01  0.12881528658E+00  0.20002836073E-01 0.  0.
         14    1    1    2    0    0  0.10117459990E-01  0.70747426627E-02  0.20632829129E-01  0.24044305319E-01  0.00000000000E+00 0.  1.
     999901    1    3    3    0    0 -0.47499765568E-01  0.83336576256E-01 -0.10200617395E+00  0.89107040810E+00  0.88000000000E+00 0.  1.
        -11    1    4    4    0    0  0.24020450216E-02 -0.22257944106E-01  0.11712541563E-01  0.25271142574E-01  0.51100000000E-03 0. -1.
         11    1    4    4    0    0  0.34980260556E-01 -0.68153374813E-01  0.69660803254E-01  0.10354414401E+00  0.51100000000E-03 0.  1.
</event>
<event>
 8    1  0.1076043E+005  0.1043930E+01  0.7957747E-01            NaN
         13   -1    0    0    0    0  0.00000000000E+00  0.00000000000E+00  0.74505805969E-08  0.10566000000E+00  0.10566000000E+00 0.  1.
     999900   -1    0    0    0    0 -0.00000000000E+00 -0.00000000000E+00 -0.74505805969E-08  0.93827000000E+00  0.93827000000E+00 0. -1.
     999902    2    1    2    0    0 -0.17576386855E-01  0.15736745358E-01 -0.11468710307E-01  0.10176982283E+01  0.10173601025E+01 0.  0.
     999903    2    3    3    0    0 -0.11657321590E+00 -0.50685515352E-01  0.13079410582E-01  0.12932055012E+00  0.19859445384E-01 0.  0.
         14    1    1    2    0    0  0.17576386855E-01 -0.15736745358E-01  0.11468710307E-01  0.26231771679E-01  0.00000000000E+00 0.  1.
     999901    1    3    3    0    0  0.98996829047E-01  0.66422260710E-01 -0.24548120889E-01  0.88837767820E+00  0.88000000000E+00 0.  1.
        -11    1    4    4    0    0 -0.61762925236E-01 -0.33270907003E-01  0.15139782373E-01  0.71771068808E-01  0.51100000000E-03 0. -1.
         11    1    4    4    0    0 -0.54810290666E-01 -0.17414608349E-01 -0.20603717912E-02  0.57549481316E-01  0.51100000000E-03 0.  1.
</event>
<event>
 8    1  0.1189764E+005  0.1043930E+01  0.7957747E-01            NaN
         13   -1    0    0    0    0  0.00000000000E+00  0.00000000000E+00  0.74505805969E-08  0.10566000000E+00  0.10566000000E+00 0.  1.
     999900   -1    0    0    0    0 -0.00000000000E+00 -0.00000000000E+00 -0.74505805969E-08  0.93827000000E+00  0.93827000000E+00 0.  1.
     999902    2    1    2    0    0 -0.10574011733E-01 -0.13383985553E-01 -0.16666146091E-01  0.10200825427E+01  0.10198037521E+01 0.  0.
     999903    2    3    3    0    0  0.10301324350E-01 -0.46361469856E-01  0.11820726144E+00  0.12895172730E+00  0.20002203511E-01 0.  0.
         14    1    1    2    0    0  0.10574011733E-01  0.13383985553E-01  0.16666146091E-01  0.23847457284E-01  0.00000000000E+00 0.  1.
     999901    1    3    3    0    0 -0.20875336082E-01  0.32977484302E-01 -0.13487340753E+00  0.89113081542E+00  0.88000000000E+00 0.  1.
        -11    1    4    4    0    0  0.93181075028E-02 -0.36437046976E-01  0.67515946545E-01  0.77286154508E-01  0.51100000000E-03 0. -1.
         11    1    4    4    0    0  0.98321684675E-03 -0.99244228797E-02  0.50691314896E-01  0.51665572790E-01  0.51100000000E-03 0.  1.
</event>
<event>
 8    1  0.1076043E+005  0.1043930E+01  0.7957747E-01            NaN
         13   -1    0    0    0    0  0.00000000000E+00  0.00000000000E+00  0.74505805969E-08  0.10566000000E+00  0.10566000000E+00 0. -1.
     999900   -1    0    0    0    0 -0.00000000000E+00 -0.00000000000E+00 -0.74505805969E-08  0.93827000000E+00  0.93827000000E+00 0. -1.
     999902    2    1    2    0    0 -0.13780761045E-02  0.23534475370E-02  0.21644050644E-01  0.10221148049E+01  0.10218819754E+01 0.  0.
     999903    2    3    3    0    0 -0.33062108849E-01 -0.83120056766E-01  0.97317812777E-01  0.13417555239E+00  0.23027707164E-01 0.  0.
         14    1    1    2    0    0  0.13780761045E-02 -0.23534475370E-02 -0.21644050644E-01  0.21815195102E-01  0.00000000000E+00 0.  1.
     999901    1    3    3    0    0  0.31684032745E-01  0.85473504303E-01 -0.75673762133E-01  0.88793925251E+00  0.88000000000E+00 0.  1.
        -11    1    4    4    0    0 -0.25892412484E-01 -0.79479336057E-01  0.83322719192E-01  0.11802677043E+00  0.51100000000E-03 0.  1.
         11    1    4    4    0    0 -0.71696963650E-02 -0.36407207087E-02  0.13995093585E-01  0.16148781957E-01  0.51100000000E-03 0. -1.
</event>
<event>
 8    1  0.1076043E+005  0.1043930E+01  0.7957747E-01            NaN
         13   -1    0    0    0    0  0.00000000000E+00  0.00000000000E+00  0.74505805969E-08  0.10566000000E+00  0.10566000000E+00 0. -1.
     999900   -1    0    0    0    0 -0.00000000000E+00 -0.00000000000E+00 -0.74505805969E-08  0.93827000000E+00  0.93827000000E+00 0.  1.
     999902    2    1    2    0    0  0.22968113999E-01 -0.10920796573E-02  0.63145342692E-02  0.10200846600E+01  0.10198059194E+01 0.  0.
     999903    2    3    3    0    0  0.47783951189E-01 -0.22065068501E-01 -0.11802877627E+00  0.13074954263E+00  0.19861460932E-01 0.  0.
         14    1    1    2    0    0 -0.22968113999E-01  0.10920796573E-02 -0.63145342692E-02  0.23845340041E-01  0.00000000000E+00 0.  1.
     999901    1    3    3    0    0 -0.24815837190E-01  0.20972988843E-01  0.12434331054E+00  0.88933511733E+00  0.88000000000E+00 0. -1.
        -11    1    4    4    0    0  0.12984872548E-01 -0.68680064863E-02 -0.15254594524E-01  0.21183488931E-01  0.51100000000E-03 0. -1.
         11    1    4    4    0    0  0.34799078641E-01 -0.15197062014E-01 -0.10277418175E+00  0.10956605370E+00  0.51100000000E-03 0.  1.
</event>
<event>
 8    1  0.1076043E+005  0.1043930E+01  0.7957747E-01            NaN
         13   -1    0    0    0    0  0.00000000000E+00  0.00000000000E+00  0.74505805969E-08  0.10566000000E+00  0.10566000000E+00 0.  1.
     999900   -1    0    0    0    0 -0.00000000000E+00 -0.00000000000E+00 -0.74505805969E-08  0.93827000000E+00  0.93827000000E+00 0. -1.
     999902    2    1    2    0    0 -0.82318046424E-02 -0.21187565894E-01  0.11309703684E-02  0.10211713829E+01  0.10209177434E+01 0.  0.
     999903    2    3    3    0    0  0.10774915039E+00  0.57017194910E-01 -0.38234229621E-01  0.12925368186E+00  0.19591274423E-01 0.  0.
         14    1    1    2    0    0  0.82318046424E-02  0.21187565894E-01 -0.11309703684E-02  0.22758617052E-01  0.00000000000E+00 0. -1.
     999901    1    3    3    0    0 -0.11598095504E+00 -0.78204760803E-01  0.39365199989E-01  0.89191770109E+00  0.88000000000E+00 0.  1.
        -11    1    4    4    0    0  0.32995778062E-01  0.24414941584E-01 -0.20101363915E-01  0.45707074887E-01  0.51100000000E-03 0. -1.
         11    1    4    4    0    0  0.74753372332E-01  0.32602253326E-01 -0.18132865706E-01  0.83546606973E-01  0.51100000000E-03 0.  1.
</event>
<event>
 8    1  0.1076043E+005  0.1043930E+01  0.7957747E-01            NaN
         13   -1    0    0    0    0  0.00000000000E+00  0.00000000000E+00  0.74505805969E-08  0.10566000000E+00  0.10566000000E+00 0. -1.
     999900   -1    0    0    0    0 -0.00000000000E+00 -0.00000000000E+00 -0.74505805969E-08  0.93827000000E+00  0.93827000000E+00 0.  1.
     999902    2    1    2    0    0  0.22742223086E-01 -0.12913297647E-02 -0.53717306514E-02  0.10205263308E+01  0.10202579380E+01 0.  0.
     999903    2    3    3    0    0 -0.94484091733E-01 -0.44068162019E-02 -0.85534451419E-01  0.12913540814E+00  0.20326033446E-01 0.  0.
         14    1    1    2    0    0 -0.22742223086E-01  0.12913297647E-02  0.53717306514E-02  0.23403669235E-01  0.00000000000E+00 0.  1.
     999901    1    3    3    0    0  0.11722631482E+00  0.31154864373E-02  0.80162720768E-01  0.89139092263E+00  0.88000000000E+00 0. -1.
        -11    1    4    4    0    0 -0.44078797050E-01  0.10584040209E-02 -0.27041789530E-01  0.51726009612E-01  0.51100000000E-03 0. -1.
         11    1    4    4    0    0 -0.50405294683E-01 -0.54652202228E-02 -0.58492661889E-01  0.77409398525E-01  0.51100000000E-03 0.  1.
</event>
<event>
 8    1  0.1359486E+005  0.1043930E+01  0.7957747E-01            NaN
         13   -1    0    0    0    0  0.00000000000E+00  0.00000000000E+00  0.74505805969E-08  0.10566000000E+00  0.10566000000E+00 0. -1.
     999900   -1    0    0    0    0 -0.00000000000E+00 -0.00000000000E+00 -0.74505805969E-08  0.93827000000E+00  0.93827000000E+00 0. -1.
     999902    2    1    2    0    0  0.20160787195E-01  0.16256731184E-01 -0.24563908766E-02  0.10179151484E+01  0.10175826634E+01 0.  0.
     999903    2    3    3    0    0 -0.99063099001E-01  0.74031414792E-01 -0.27468899391E-01  0.12764671993E+00  0.15652370885E-01 0.  0.
         14    1    1    2    0    0 -0.20160787195E-01 -0.16256731184E-01  0.24563908766E-02  0.26014851628E-01  0.00000000000E+00 0.  1.
     999901    1    3    3    0    0  0.11922388620E+00 -0.57774683608E-01  0.25012508514E-01  0.89026842845E+00  0.88000000000E+00 0.  1.
        -11    1    4    4    0    0 -0.49314029368E-01  0.27562041504E-01 -0.14762879675E-01  0.58393007815E-01  0.51100000000E-03 0. -1.
         11    1    4    4    0    0 -0.49749069633E-01  0.46469373288E-01 -0.12706019716E-01  0.69253712111E-01  0.51100000000E-03 0.  1.
</event>
<event>
 8    1  0.1076043E+005  0.1043930E+01  0.7957747E-01            NaN
         13   -1    0    0    0    0  0.00000000000E+00  0.00000000000E+00  0.74505805969E-08  0.10566000000E+00  0.10566000000E+00 0. -1.
     999900   -1    0    0    0    0 -0.00000000000E+00 -0.00000000000E+00 -0.74505805969E-08  0.93827000000E+00  0.93827000000E+00 0. -1.
     999902    2    1    2    0    0 -0.20904885775E-01  0.10369673234E-01  0.52793919239E-02  0.10200047758E+01  0.10197241423E+01 0.  0.
     999903    2    3    3    0    0  0.17389535708E-01  0.76708203993E-01 -0.10181295819E+00  0.13020927414E+00  0.20050738264E-01 0.  0.
         14    1    1    2    0    0  0.20904885775E-01 -0.10369673234E-01 -0.52793919239E-02  0.23925224165E-01  0.00000000000E+00 0.  1.
     999901    1    3    3    0    0 -0.38294421483E-01 -0.66338530759E-01  0.10709235012E+00  0.88979550169E+00  0.88000000000E+00 0.  1.
        -11    1    4    4    0    0  0.33596333212E-02  0.50135942807E-01 -0.72625291176E-01  0.88315309752E-01  0.51100000000E-03 0.  1.
         11    1    4    4    0    0  0.14029902386E-01  0.26572261186E-01 -0.29187667016E-01  0.41893964390E-01  0.51100000000E-03 0. -1.
</event>
<event>
 8    1  0.1076043E+005  0.1043930E+01  0.7957747E-01            NaN
         13   -1    0    0    0    0  0.00000000000E+00  0.00000000000E+00  0.74505805969E-08  0.10566000000E+00  0.10566000000E+00 0. -1.
     999900   -1    0    0    0    0 -0.00000000000E+00 -0.00000000000E+00 -0.74505805969E-08  0.93827000000E+00  0.93827000000E+00 0. -1.
     999902    2    1    2    0    0  0.97937566670E-02 -0.77831578123E-02  0.19957482785E-01  0.10203758850E+01  0.10201039900E+01 0.  0.
     999903    2    3    3    0    0  0.10411165394E+00 -0.12577256377E-01  0.79934588640E-01  0.13329296757E+00  0.19494944962E-01 0.  0.
         14    1    1    2    0    0 -0.97937566670E-02  0.77831578123E-02 -0.19957482785E-01  0.23554115019E-01  0.00000000000E+00 0.  1.
     999901    1    3    3    0    0 -0.94317897276E-01  0.47940985646E-02 -0.59977105855E-01  0.88708291741E+00  0.88000000000E+00 0. -1.
        -11    1    4    4    0    0  0.22367732171E-01 -0.10267596347E-01  0.22604774847E-01  0.33421190047E-01  0.51100000000E-03 0.  1.
         11    1    4    4    0    0  0.81743921772E-01 -0.23096600294E-02  0.57329813793E-01  0.99871777528E-01  0.51100000000E-03 0. -1.
</event>
<event>
 8    1  0.1076043E+005  0.1043930E+01  0.7957747E-01            NaN
         13   -1    0    0    0    0  0.00000000000E+00  0.00000000000E+00  0.74505805969E-08  0.10566000000E+00  0.10566000000E+00 0. -1.
     999900   -1    0    0    0    0 -0.00000000000E+00 -0.00000000000E+00 -0.74505805969E-08  0.93827000000E+00  0.93827000000E+00 0.  1.
     999902    2    1    2    0    0  0.20116044792E-02  0.41882527959E-02  0.23166063875E-01  0.10203025894E+01  0.10200289797E+01 0.  0.
     999903    2    3    3    0    0  0.11295934041E+00  0.63329201825E-01  0.49571872743E-02  0.13118020465E+00  0.20329092359E-01 0.  0.
         14    1    1    2    0    0 -0.20116044792E-02 -0.41882527959E-02 -0.23166063875E-01  0.23627410555E-01  0.00000000000E+00 0.  1.
     999901    1    3    3    0    0 -0.11094773593E+00 -0.59140949029E-01  0.18208876601E-01  0.88912238480E+00  0.88000000000E+00 0. -1.
        -11    1    4    4    0    0  0.65732047042E-01  0.28036995233E-01 -0.38470883958E-02  0.71567005806E-01  0.51100000000E-03 0. -1.
         11    1    4    4    0    0  0.47227293368E-01  0.35292206592E-01  0.88042756701E-02  0.59613198841E-01  0.51100000000E-03 0.  1.
</event>
<event>
 8    1  0.1076043E+005  0.1043930E+01  0.7957747E-01            NaN
         13   -1    0    0    0    0  0.00000000000E+00  0.00000000000E+00  0.74505805969E-08  0.10566000000E+00  0.10566000000E+00 0.  1.
     999900   -1    0    0    0    0 -0.00000000000E+00 -0.00000000000E+00 -0.74505805969E-08  0.93827000000E+00  0.93827000000E+00 0. -1.
     999902    2    1    2    0    0 -0.86440409061E-02 -0.20347157563E-01  0.10961005621E-01  0.10192547106E+01  0.10189559829E+01 0.  0.
     999903    2    3    3    0    0  0.89155469130E-02 -0.53078178493E-01 -0.11591488215E+00  0.12937991615E+00  0.20152488429E-01 0.  0.
         14    1    1    2    0    0  0.86440409061E-02  0.20347157563E-01 -0.10961005621E-01  0.24675289427E-01  0.00000000000E+00 0.  1.
     999901    1    3    3    0    0 -0.17559587819E-01  0.32731020930E-01  0.12687588777E+00  0.88987479443E+00  0.88000000000E+00 0.  1.
        -11    1    4    4    0    0 -0.35078701476E-02 -0.32110338348E-01 -0.55268261607E-01  0.64017347991E-01  0.51100000000E-03 0.  1.
         11    1    4    4    0    0  0.12423417061E-01 -0.20967840145E-01 -0.60646620543E-01  0.65362568157E-01  0.51100000000E-03 0. -1.
</event>
<event>
 8    1  0.1076043E+005  0.1043930E+01  0.7957747E-01            NaN
         13   -1    0    0    0    0  0.00000000000E+00  0.00000000000E+00  0.74505805969E-08  0.10566000000E+00  0.10566000000E+00 0. -1.
     999900   -1    0    0    0    0 -0.00000000000E+00 -0.00000000000E+00 -0.74505805969E-08  0.93827000000E+00  0.93827000000E+00 0.  1.
     999902    2    1    2    0    0 -0.48404210404E-02  0.32486581166E-01  0.12106615320E-01  0.10089246038E+01  0.10083171516E+01 0.  0.
     999903    2    3    3    0    0  0.72029334424E-01 -0.89164054915E-01  0.13588965594E-01  0.11723517692E+00  0.20517626951E-01 0.  0.
         14    1    1    2    0    0  0.48404210404E-02 -0.32486581166E-01 -0.12106615320E-01  0.35005396244E-01  0.00000000000E+00 0.  1.
     999901    1    3    3    0    0 -0.76869755464E-01  0.12165063608E+00 -0.14823502741E-02  0.89168942683E+00  0.88000000000E+00 0.  1.
        -11    1    4    4    0    0  0.71569061016E-01 -0.82527646016E-01  0.10097508393E-01  0.10970489346E+00  0.51100000000E-03 0. -1.
         11    1    4    4    0    0  0.46027340737E-03 -0.66364088993E-02  0.34914572003E-02  0.75302834654E-02  0.51100000000E-03 0.  1.
</event>
<event>
 8    1  0.1076043E+005  0.1043930E+01  0.7957747E-01            NaN
         13   -1    0    0    0    0  0.00000000000E+00  0.00000000000E+00  0.74505805969E-08  0.10566000000E+00  0.10566000000E+00 0. -1.
     999900   -1    0    0    0    0 -0.00000000000E+00 -0.00000000000E+00 -0.74505805969E-08  0.93827000000E+00  0.93827000000E+00 0. -1.
     999902    2    1    2    0    0  0.60451591134E-02  0.17637800160E-01 -0.41768697632E-02  0.10248228761E+01  0.10246447410E+01 0.  0.
     999903    2    3    3    0    0  0.13524214083E-01 -0.11427411951E+00  0.62721120387E-01  0.13244849731E+00  0.19162117313E-01 0.  0.
         14    1    1    2    0    0 -0.60451591134E-02 -0.17637800160E-01  0.41768697632E-02  0.19107123913E-01  0.00000000000E+00 0. -1.
     999901    1    3    3    0    0 -0.74790549695E-02  0.13191191967E+00 -0.66897990151E-01  0.89237437878E+00  0.88000000000E+00 0. -1.
        -11    1    4    4    0    0  0.15721764919E-01 -0.54815908923E-01  0.33784599884E-01  0.66284372770E-01  0.51100000000E-03 0.  1.
         11    1    4    4    0    0 -0.21975508360E-02 -0.59458210589E-01  0.28936520503E-01  0.66164124538E-01  0.51100000000E-03 0. -1.
</event>
<event>
 8    1  0.1076043E+005  0.1043930E+01  0.7957747E-01            NaN
         13   -1    0    0    0    0  0.00000000000E+00  0.00000000000E+00  0.74505805969E-08  0.10566000000E+00  0.10566000000E+00 0.  1.
     999900   -1    0    0    0    0 -0.00000000000E+00 -0.00000000000E+00 -0.74505805969E-08  0.93827000000E+00  0.93827000000E+00 0.  1.
     999902    2    1    2    0    0 -0.12330897303E-01 -0.12095713873E-01 -0.32507423878E-02  0.10263537476E+01  0.10262032404E+01 0.  0.
     999903    2    3    3    0    0 -0.49860609069E-01  0.12388141373E+00  0.31468064190E-02  0.13509666509E+00  0.20211915329E-01 0.  0.
         14    1    1    2    0    0  0.12330897303E-01  0.12095713873E-01  0.32507423878E-02  0.17576252401E-01  0.00000000000E+00 0. -1.
     999901    1    3    3    0    0  0.37529711766E-01 -0.13597712761E+00 -0.63975488068E-02  0.89125708251E+00  0.88000000000E+00 0. -1.
        -11    1    4    4    0    0 -0.27882171482E-01  0.80011874966E-01  0.10855787523E-01  0.85424966292E-01  0.51100000000E-03 0.  1.
         11    1    4    4    0    0 -0.21978437587E-01  0.43869538769E-01 -0.77089811044E-02  0.49671698795E-01  0.51100000000E-03 0. -1.
</event>
<event>
 8    1  0.1076043E+005  0.1043930E+01  0.7957747E-01            NaN
         13   -1    0    0    0    0  0.00000000000E+00  0.00000000000E+00  0.74505805969E-08  0.10566000000E+00  0.10566000000E+00 0.  1.
     999900   -1    0    0    0    0 -0.00000000000E+00 -0.00000000000E+00 -0.74505805969E-08  0.93827000000E+00  0.93827000000E+00 0. -1.
     999902    2    1    2    0    0  0.57846277744E-02 -0.18910109214E-01 -0.11650551976E-01  0.10209781044E+01  0.10207200891E+01 0.  0.
     999903    2    3    3    0    0 -0.35889906877E-01 -0.12610759685E+00 -0.15085443375E-01  0.13348733452E+00  0.20002161766E-01 0.  0.
         14    1    1    2    0    0 -0.57846277744E-02  0.18910109214E-01  0.11650551976E-01  0.22951895572E-01  0.00000000000E+00 0. -1.
     999901    1    3    3    0    0  0.41674534652E-01  0.10719748764E+00  0.34348913985E-02  0.88749076991E+00  0.88000000000E+00 0.  1.
        -11    1    4    4    0    0 -0.24420934516E-01 -0.58665551540E-01 -0.13975416255E-01  0.65066138357E-01  0.51100000000E-03 0.  1.
         11    1    4    4    0    0 -0.11468972361E-01 -0.67442045314E-01 -0.11100271203E-02  0.68421196162E-01  0.51100000000E-03 0. -1.
</event>
<event>
 8    1  0.1076043E+005  0.1043930E+01  0.7957747E-01            NaN
         13   -1    0    0    0    0  0.00000000000E+00  0.00000000000E+00  0.74505805969E-08  0.10566000000E+00  0.10566000000E+00 0.  1.
     999900   -1    0    0    0    0 -0.00000000000E+00 -0.00000000000E+00 -0.74505805969E-08  0.93827000000E+00  0.93827000000E+00 0. -1.
     999902    2    1    2    0    0 -0.11196396452E-01 -0.11933357161E-01  0.17348447878E-01  0.10200818774E+01  0.10198030710E+01 0.  0.
     999903    2    3    3    0    0 -0.29255519894E-01  0.32486742521E-01  0.12320906463E+00  0.13244132665E+00  0.21188617592E-01 0.  0.
         14    1    1    2    0    0  0.11196396452E-01  0.11933357161E-01 -0.17348447878E-01  0.23848122576E-01  0.00000000000E+00 0.  1.
     999901    1    3    3    0    0  0.18059123442E-01 -0.44420099682E-01 -0.10586061675E+00  0.88764055077E+00  0.88000000000E+00 0. -1.
        -11    1    4    4    0    0 -0.22675784693E-01  0.15079389661E-01  0.50386513023E-01  0.57276880324E-01  0.51100000000E-03 0. -1.
         11    1    4    4    0    0 -0.65797352014E-02  0.17407352860E-01  0.72822551603E-01  0.75164446329E-01  0.51100000000E-03 0.  1.
</event>
<event>
 8    1  0.1076043E+005  0.1043930E+01  0.7957747E-01            NaN
         13   -1    0    0    0    0  0.00000000000E+00  0.00000000000E+00  0.74505805969E-08  0.10566000000E+00  0.10566000000E+00 0. -1.
     999900   -1    0    0    0    0 -0.00000000000E+00 -0.00000000000E+00 -0.74505805969E-08  0.93827000000E+00  0.93827000000E+00 0. -1.
     999902    2    1    2    0    0 -0.10964158873E-01 -0.88898423212E-02 -0.20660162766E-01  0.10189083214E+01  0.10186010421E+01 0.  0.
     999903    2    3    3    0    0 -0.89549256247E-01  0.37282071453E-01  0.81517469411E-01  0.12831990258E+00  0.20294763689E-01 0.  0.
         14    1    1    2    0    0  0.10964158873E-01  0.88898423212E-02  0.20660162766E-01  0.25021678637E-01  0.00000000000E+00 0. -1.
     999901    1    3    3    0    0  0.78585097374E-01 -0.46171913774E-01 -0.10217763218E+00  0.89058841878E+00  0.88000000000E+00 0. -1.
        -11    1    4    4    0    0 -0.16220284663E-01  0.39906096280E-02  0.24452343530E-01  0.29617576283E-01  0.51100000000E-03 0.  1.
         11    1    4    4    0    0 -0.73328971584E-01  0.33291461825E-01  0.57065125881E-01  0.98702326299E-01  0.51100000000E-03 0. -1.
</event>
<event>
 8    1  0.1076043E+005  0.1043930E+01  0.7957747E-01            NaN
         13   -1    0    0    0    0  0.00000000000E+00  0.00000000000E+00  0.74505805969E-08  0.10566000000E+00  0.10566000000E+00 0. -1.
     999900   -1    0    0    0    0 -0.00000000000E+00 -0.00000000000E+00 -0.74505805969E-08  0.93827000000E+00  0.93827000000E+00 0.  1.
     999902    2    1    2    0    0 -0.19483510899E-01 -0.32180769562E-02 -0.14192942728E-01  0.10196112245E+01  0.10193211694E+01 0.  0.
     999903    2    3    3    0    0 -0.61172761555E-01  0.87462864611E-01  0.70320421440E-01  0.12994638006E+00  0.23435882279E-01 0.  0.
         14    1    1    2    0    0  0.19483510899E-01  0.32180769562E-02  0.14192942728E-01  0.24318775453E-01  0.00000000000E+00 0.  1.
     999901    1    3    3    0    0  0.41689250656E-01 -0.90680941567E-01 -0.84513364169E-01  0.88966484448E+00  0.88000000000E+00 0.  1.
        -11    1    4    4    0    0 -0.40075396663E-01  0.71972831970E-01  0.46749549188E-01  0.94720153240E-01  0.51100000000E-03 0.  1.
         11    1    4    4    0    0 -0.21097364891E-01  0.15490032641E-01  0.23570872253E-01  0.35226226825E-01  0.51100000000E-03 0. -1.
</event>
<event>
 8    1  0.1076043E+005  0.1043930E+01  0.7957747E-01            NaN
         13   -1    0    0    0    0  0.00000000000E+00  0.00000000000E+00  0.74505805969E-08  0.10566000000E+00  0.10566000000E+00 0.  1.
     999900   -1    0    0    0    0 -0.00000000000E+00 -0.00000000000E+00 -0.74505805969E-08  0.93827000000E+00  0.93827000000E+00 0.  1.
     999902    2    1    2    0    0  0.19576711625E-02  0.41995627445E-02  0.23602597223E-01  0.10198769046E+01  0.10195932273E+01 0.  0.
     999903    2    3    3    0    0  0.52261056670E-01 -0.86961026370E-01  0.81835295858E-01  0.13182750799E+00  0.19698681729E-01 0.  0.
         14    1    1    2    0    0 -0.19576711625E-02 -0.41995627445E-02 -0.23602597223E-01  0.24053095420E-01  0.00000000000E+00 0. -1.
     999901    1    3    3    0    0 -0.50303385508E-01  0.91160589115E-01 -0.58232698635E-01  0.88804939659E+00  0.88000000000E+00 0.  1.
        -11    1    4    4    0    0  0.23981171178E-01 -0.27374358027E-01  0.20580503985E-01  0.41812322511E-01  0.51100000000E-03 0. -1.
         11    1    4    4    0    0  0.28279885492E-01 -0.59586668343E-01  0.61254791872E-01  0.90015185475E-01  0.51100000000E-03 0.  1.
</event>
<event>
 8    1  0.1076043E+005  0.1043930E+01  0.7957747E-01            NaN
         13   -1    0    0    0    0  0.00000000000E+00  0.00000000000E+00  0.74505805969E-08  0.10566000000E+00  0.10566000000E+00 0.  1.
     999900   -1    0    0    0    0 -0.00000000000E+00 -0.00000000000E+00 -0.74505805969E-08  0.93827000000E+00  0.93827000000E+00 0. -1.
     999902    2    1    2    0    0 -0.73309754695E-02 -0.91869170627E-02 -0.21693116930E-01  0.10192574653E+01  0.10189588052E+01 0.  0.
     999903    2    3    3    0    0 -0.41663864607E-01 -0.11773216691E+00  0.31609761757E-01  0.13032438828E+00  0.19711123853E-01 0.  0.
         14    1    1    2    0    0  0.73309754695E-02  0.91869170627E-02  0.21693116930E-01  0.24672534701E-01  0.00000000000E+00 0.  1.
     999901    1    3    3    0    0  0.34332889138E-01  0.10854524985E+00 -0.53302878687E-01  0.88893307702E+00  0.88000000000E+00 0.  1.
        -11    1    4    4    0    0 -0.31642852412E-01 -0.61549261198E-01  0.14137745354E-01  0.70637940425E-01  0.51100000000E-03 0. -1.
         11    1    4    4    0    0 -0.10021012195E-01 -0.56182905710E-01  0.17472016403E-01  0.59686447855E-01  0.51100000000E-03 0.  1.
</event>
<event>
 8    1  0.1076043E+005  0.1043930E+01  0.7957747E-01            NaN
         13   -1    0    0    0    0  0.00000000000E+00  0.00000000000E+00  0.74505805969E-08  0.10566000000E+00  0.10566000000E+00 0.  1.
     999900   -1    0    0    0    0 -0.00000000000E+00 -0.00000000000E+00 -0.74505805969E-08  0.93827000000E+00  0.93827000000E+00 0.  1.
     999902    2    1    2    0    0  0.13347648082E-01  0.70565155075E-02 -0.18036498428E-01  0.10204083207E+01  0.10201371827E+01 0.  0.
     999903    2    3    3    0    0 -0.10710349056E+00 -0.17552223264E-01 -0.69899283020E-01  0.13034999946E+00  0.18054760043E-01 0.  0.
         14    1    1    2    0    0 -0.13347648082E-01 -0.70565155075E-02  0.18036498428E-01  0.23521679276E-01  0.00000000000E+00 0. -1.
     999901    1    3    3    0    0  0.12045113865E+00  0.24608738771E-01  0.51862784592E-01  0.89005832126E+00  0.88000000000E+00 0. -1.
        -11    1    4    4    0    0 -0.84170283488E-01 -0.17677808745E-01 -0.62239399577E-01  0.10616565134E+00  0.51100000000E-03 0. -1.
         11    1    4    4    0    0 -0.22933207076E-01  0.12558548101E-03 -0.76598834432E-02  0.24184348118E-01  0.51100000000E-03 0.  1.
</event>
<event>
 8    1  0.1076043E+005  0.1043930E+01  0.7957747E-01            NaN
         13   -1    0    0    0    0  0.00000000000E+00  0.00000000000E+00  0.74505805969E-08  0.10566000000E+00  0.10566000000E+00 0.  1.
     999900   -1    0    0    0    0 -0.00000000000E+00 -0.00000000000E+00 -0.74505805969E-08  0.93827000000E+00  0.93827000000E+00 0.  1.
     999902    2    1    2    0    0  0.48817943616E-02 -0.25266077967E-01  0.76548835642E-03  0.10181852416E+01  0.10178597122E+01 0.  0.
     999903    2    3    3    0    0  0.42103502575E-01  0.10081237209E+00  0.60009355120E-01  0.12645037806E+00  0.21277596523E-01 0.  0.
         14    1    1    2    0    0 -0.48817943616E-02  0.25266077967E-01 -0.76548835642E-03  0.25744758387E-01  0.00000000000E+00 0.  1.
     999901    1    3    3    0    0 -0.37221708213E-01 -0.12607845006E+00 -0.59243866763E-01  0.89173486356E+00  0.88000000000E+00 0.  1.
        -11    1    4    4    0    0  0.79536598651E-02  0.45016277158E-01  0.28122637425E-01  0.53673734463E-01  0.51100000000E-03 0.  1.
         11    1    4    4    0    0  0.34149842710E-01  0.55796094931E-01  0.31886717694E-01  0.72776643595E-01  0.51100000000E-03 0. -1.
</event>
<event>
 8    1  0.1076043E+005  0.1043930E+01  0.7957747E-01            NaN
         13   -1    0    0    0    0  0.00000000000E+00  0.00000000000E+00  0.74505805969E-08  0.10566000000E+00  0.10566000000E+00 0. -1.
     999900   -1    0    0    0    0 -0.00000000000E+00 -0.00000000000E+00 -0.74505805969E-08  0.93827000000E+00  0.93827000000E+00 0. -1.
     999902    2    1    2    0    0  0.14747299536E-01  0.80659879240E-02  0.18370909723E-01  0.10190295316E+01  0.10187252588E+01 0.  0.
     999903    2    3    3    0    0 -0.68239093092E-01 -0.61905967270E-01 -0.84286388702E-01  0.12643705075E+00  0.19829520197E-01 0.  0.
         14    1    1    2    0    0 -0.14747299536E-01 -0.80659879240E-02 -0.18370909723E-01  0.24900468446E-01  0.00000000000E+00 0.  1.
     999901    1    3    3    0    0  0.82986392628E-01  0.69971955194E-01  0.10265729842E+00  0.89259248081E+00  0.88000000000E+00 0.  1.
        -11    1    4    4    0    0 -0.34942364202E-01 -0.21036342781E-01 -0.29022220857E-01  0.50060433059E-01  0.51100000000E-03 0. -1.
         11    1    4    4    0    0 -0.33296728890E-01 -0.40869624489E-01 -0.55264167845E-01  0.76376617687E-01  0.51100000000E-03 0.  1.
</event>
<event>
 8    1  0.1076043E+005  0.1043930E+01  0.7957747E-01            NaN
         13   -1    0    0    0    0  0.00000000000E+00  0.00000000000E+00  0.74505805969E-08  0.10566000000E+00  0.10566000000E+00 0. -1.
     999900   -1    0    0    0    0 -0.00000000000E+00 -0.00000000000E+00 -0.74505805969E-08  0.93827000000E+00  0.93827000000E+00 0.  1.
     999902    2    1    2    0    0  0.92886474319E-02 -0.82714317012E-02 -0.21089756018E-01  0.10194458549E+01  0.10191517932E+01 0.  0.
     999903    2    3    3    0    0  0.40878530603E-01 -0.41905780302E-01  0.11225435901E+00  0.12820523465E+00  0.20208720577E-01 0.  0.
         14    1    1    2    0    0 -0.92886474319E-02  0.82714317012E-02  0.21089756018E-01  0.24484145123E-01  0.00000000000E+00 0. -1.
     999901    1    3    3    0    0 -0.31589883171E-01  0.33634348601E-01 -0.13334411503E+00  0.89124062022E+00  0.88000000000E+00 0.  1.
        -11    1    4    4    0    0  0.26677160547E-01 -0.38858846296E-01  0.90546557120E-01  0.10208144277E+00  0.51100000000E-03 0.  1.
         11    1    4    4    0    0  0.14201370056E-01 -0.30469340066E-02  0.21707801895E-01  0.26123791885E-01  0.51100000000E-03 0. -1.
</event>
<event>
 8    1  0.1076043E+005  0.1043930E+01  0.7957747E-01            NaN
         13   -1    0    0    0    0  0.00000000000E+00  0.00000000000E+00  0.74505805969E-08  0.10566000000E+00  0.10566000000E+00 0. -1.
     999900   -1    0    0    0    0 -0.00000000000E+00 -0.00000000000E+00 -0.74505805969E-08  0.93827000000E+00  0.93827000000E+00 0.  1.
     999902    2    1    2    0    0  0.87679522244E-02  0.21198426080E-01  0.17652353628E-02  0.10209220381E+01  0.10206627463E+01 0.  0.
     999903    2    3    3    0    0  0.11462124309E+00 -0.39920050863E-01 -0.45657218642E-01  0.13120900766E+00  0.19989553466E-01 0.  0.
         14    1    1    2    0    0 -0.87679522244E-02 -0.21198426080E-01 -0.17652353628E-02  0.23007961891E-01  0.00000000000E+00 0.  1.
     999901    1    3    3    0    0 -0.10585329087E+00  0.61118476943E-01  0.47422454004E-01  0.88971303045E+00  0.88000000000E+00 0.  1.
        -11    1    4    4    0    0  0.69927492983E-01 -0.34299403748E-01 -0.31085288121E-01  0.83862146591E-01  0.51100000000E-03 0. -1.
         11    1    4    4    0    0  0.44693750109E-01 -0.56206471146E-02 -0.14571930521E-01  0.47346861067E-01  0.51100000000E-03 0.  1.
</event>
<event>
 8    1  0.1076043E+005  0.1043930E+01  0.7957747E-01            NaN
         13   -1    0    0    0    0  0.00000000000E+00  0.00000000000E+00  0.74505805969E-08  0.10566000000E+00  0.10566000000E+00 0. -1.
     999900   -1    0    0    0    0 -0.00000000000E+00 -0.00000000000E+00 -0.74505805969E-08  0.93827000000E+00  0.93827000000E+00 0. -1.
     999902    2    1    2    0    0  0.31834612565E-02  0.23691796612E-02  0.22147520957E-01  0.10214297751E+01  0.10211819256E+01 0.  0.
     999903    2    3    3    0    0 -0.11544587545E+00 -0.54762646066E-01  0.25215348922E-01  0.13162846206E+00  0.19066741769E-01 0.  0.
         14    1    1    2    0    0 -0.31834612565E-02 -0.23691796612E-02 -0.22147520957E-01  0.22500224941E-01  0.00000000000E+00 0.  1.
     999901    1    3    3    0    0  0.11862933671E+00  0.57131825727E-01 -0.30678279656E-02  0.88980131299E+00  0.88000000000E+00 0. -1.
        -11    1    4    4    0    0 -0.52436642372E-01 -0.22489516800E-01  0.18899316018E-02  0.57089515601E-01  0.51100000000E-03 0.  1.
         11    1    4    4    0    0 -0.63009233079E-01 -0.32273129265E-01  0.23325417321E-01  0.74538946464E-01  0.51100000000E-03 0. -1.
</event>
<event>
 8    1  0.1076043E+005  0.1043930E+01  0.7957747E-01            NaN
         13   -1    0    0    0    0  0.00000000000E+00  0.00000000000E+00  0.74505805969E-08  0.10566000000E+00  0.10566000000E+00 0. -1.
     999900   -1    0    0    0    0 -0.00000000000E+00 -0.00000000000E+00 -0.74505805969E-08  0.93827000000E+00  0.93827000000E+00 0. -1.
     999902    2    1    2    0    0  0.68633531961E-02  0.17635620229E-01 -0.12988382996E-01  0.10209774661E+01  0.10207194363E+01 0.  0.
     999903    2    3    3    0    0  0.63688584414E-01  0.10808925561E+00  0.39610158596E-01  0.13295856226E+00  0.19222165629E-01 0.  0.
         14    1    1    2    0    0 -0.68633531961E-02 -0.17635620229E-01  0.12988382996E-01  0.22952533865E-01  0.00000000000E+00 0. -1.
     999901    1    3    3    0    0 -0.56825231218E-01 -0.90453635383E-01 -0.52598541592E-01  0.88801890387E+00  0.88000000000E+00 0. -1.
        -11    1    4    4    0    0  0.55028441735E-01  0.78148528318E-01  0.32795843896E-01  0.10105023689E+00  0.51100000000E-03 0. -1.
         11    1    4    4    0    0  0.86601426791E-02  0.29940727294E-01  0.68143146998E-02  0.31908325371E-01  0.51100000000E-03 0.  1.
</event>
<event>
 8    1  0.1076043E+005  0.1043930E+01  0.7957747E-01            NaN
         13   -1    0    0    0    0  0.00000000000E+00  0.00000000000E+00  0.74505805969E-08  0.10566000000E+00  0.10566000000E+00 0. -1.
     999900   -1    0    0    0    0 -0.00000000000E+00 -0.00000000000E+00 -0.74505805969E-08  0.93827000000E+00  0.93827000000E+00 0.  1.
     999902    2    1    2    0    0  0.57494883685E-03  0.19513361887E-01 -0.10945882470E-01  0.10215488874E+01  0.10213036841E+01 0.  0.
     999903    2    3    3    0    0 -0.51337305887E-01 -0.56057599040E-01 -0.10562729508E+00  0.13173406272E+00  0.20463734471E-01 0.  0.
         14    1    1    2    0    0 -0.57494883685E-03 -0.19513361887E-01  0.10945882470E-01  0.22381112603E-01  0.00000000000E+00 0. -1.
     999901    1    3    3    0    0  0.51912254724E-01  0.75570960926E-01  0.94681412609E-01  0.88981482468E+00  0.88000000000E+00 0. -1.
        -11    1    4    4    0    0 -0.19291101927E-01 -0.24676952913E-01 -0.27687079859E-01  0.41808302175E-01  0.51100000000E-03 0. -1.
         11    1    4    4    0    0 -0.32046203960E-01 -0.31380646126E-01 -0.77940215221E-01  0.89925760543E-01  0.51100000000E-03 0.  1.
</event>
<event>
 8    1  0.1076043E+005  0.1043930E+01  0.7957747E-01            NaN
         13   -1    0    0    0    0  0.00000000000E+00  0.00000000000E+00  0.74505805969E-08  0.10566000000E+00  0.10566000000E+00 0.  1.
     999900   -1    0    0    0    0 -0.00000000000E+00 -0.00000000000E+00 -0.74505805969E-08  0.93827000000E+00  0.93827000000E+00 0.  1.
     999902    2    1    2    0    0 -0.95548119869E-02 -0.21758729268E-02 -0.20493235682E-01  0.10212143322E+01  0.10209616598E+01 0.  0.
     999903    2    3    3    0    0  0.34847105066E-01  0.11144276763E+00 -0.58175151103E-01  0.13200083001E+00  0.20150923750E-01 0.  0.
         14    1    1    2    0    0  0.95548119869E-02  0.21758729268E-02  0.20493235682E-01  0.22715667805E-01  0.00000000000E+00 0.  1.
     999901    1    3    3    0    0 -0.44401917053E-01 -0.11361864056E+00  0.37681915421E-01  0.88921350219E+00  0.88000000000E+00 0.  1.
        -11    1    4    4    0    0  0.13652628113E-01  0.59875622792E-01 -0.20647470087E-01  0.64792465620E-01  0.51100000000E-03 0. -1.
         11    1    4    4    0    0  0.21194476953E-01  0.51567144841E-01 -0.37527681016E-01  0.67208364389E-01  0.51100000000E-03 0.  1.
</event>
<event>
 8    1  0.1076043E+005  0.1043930E+01  0.7957747E-01            NaN
         13   -1    0    0    0    0  0.00000000000E+00  0.00000000000E+00  0.74505805969E-08  0.10566000000E+00  0.10566000000E+00 0.  1.
     999900   -1    0    0    0    0 -0.00000000000E+00 -0.00000000000E+00 -0.74505805969E-08  0.93827000000E+00  0.93827000000E+00 0.  1.
     999902    2    1    2    0    0  0.25329923523E-02 -0.16968423277E-01 -0.18796930384E-01  0.10184806772E+01  0.10181626696E+01 0.  0.
     999903    2    3    3    0    0 -0.63585441404E-01 -0.88889456761E-01  0.65783265285E-01  0.12904372506E+00  0.19503874100E-01 0.  0.
         14    1    1    2    0    0 -0.25329923523E-02  0.16968423277E-01  0.18796930384E-01  0.25449322793E-01  0.00000000000E+00 0.  1.
     999901    1    3    3    0    0  0.66118433756E-01  0.71921033484E-01 -0.84580195668E-01  0.88943695214E+00  0.88000000000E+00 0.  1.
        -11    1    4    4    0    0 -0.56851417925E-01 -0.83248803239E-01  0.65537973688E-01  0.12024114968E+00  0.51100000000E-03 0.  1.
         11    1    4    4    0    0 -0.67340234791E-02 -0.56406535217E-02  0.24529159683E-03  0.88025753809E-02  0.51100000000E-03 0. -1.
</event>
<event>
 8    1  0.1076043E+005  0.1043930E+01  0.7957747E-01            NaN
         13   -1    0    0    0    0  0.00000000000E+00  0.00000000000E+00  0.74505805969E-08  0.10566000000E+00  0.10566000000E+00 0. -1.
     999900   -1    0    0    0    0 -0.00000000000E+00 -0.00000000000E+00 -0.74505805969E-08  0.93827000000E+00  0.93827000000E+00 0.  1.
     999902    2    1    2    0    0 -0.11436559878E-01  0.15876476528E-01  0.17382893602E-01  0.10177570674E+01  0.10174204765E+01 0.  0.
     999903    2    3    3    0    0  0.41865863526E-01  0.11786131631E+00 -0.26124337651E-01  0.12919928369E+00  0.19129387797E-01 0.  0.
         14    1    1    2    0    0  0.11436559878E-01 -0.15876476528E-01 -0.17382893602E-01  0.26172932559E-01  0.00000000000E+00 0.  1.
     999901    1    3    3    0    0 -0.53302423403E-01 -0.10198483978E+00  0.43507231253E-01  0.88855778375E+00  0.88000000000E+00 0.  1.
        -11    1    4    4    0    0  0.21106107009E-01  0.50380350254E-01 -0.20597165455E-01  0.58379378128E-01  0.51100000000E-03 0. -1.
         11    1    4    4    0    0  0.20759756516E-01  0.67480966059E-01 -0.55271721955E-02  0.70819905565E-01  0.51100000000E-03 0.  1.
</event>
<event>
 8    1  0.1076043E+005  0.1043930E+01  0.7957747E-01            NaN
         13   -1    0    0    0    0  0.00000000000E+00  0.00000000000E+00  0.74505805969E-08  0.10566000000E+00  0.10566000000E+00 0. -1.
     999900   -1    0    0    0    0 -0.00000000000E+00 -0.00000000000E+00 -0.74505805969E-08  0.93827000000E+00  0.93827000000E+00 0.  1.
     999902    2    1    2    0    0 -0.17502394684E-01  0.48948956886E-02  0.14818829263E-01  0.10204802340E+01  0.10202107706E+01 0.  0.
     999903    2    3    3    0    0 -0.42528036511E-01 -0.12617419044E-01  0.12400309115E+00  0.13320678860E+00  0.19986214317E-01 0.  0.
         14    1    1    2    0    0  0.17502394684E-01 -0.48948956886E-02 -0.14818829263E-01  0.23449765973E-01  0.00000000000E+00 0.  1.
     999901    1    3    3    0    0  0.25025641827E-01  0.17512314732E-01 -0.10918426188E+00  0.88727344543E+00  0.88000000000E+00 0.  1.
        -11    1    4    4    0    0 -0.16349303632E-01  0.23002048894E-02  0.27212415861E-01  0.31833431637E-01  0.51100000000E-03 0.  1.
         11    1    4    4    0    0 -0.26178732879E-01 -0.14917623933E-01  0.96790675285E-01  0.10137335696E+00  0.51100000000E-03 0. -1.
</event>
<event>
 8    1  0.1076043E+005  0.1043930E+01  0.7957747E-01            NaN
         13   -1    0    0    0    0  0.00000000000E+00  0.00000000000E+00  0.74505805969E-08  0.10566000000E+00  0.10566000000E+00 0. -1.
     999900   -1    0    0    0    0 -0.00000000000E+00 -0.00000000000E+00 -0.74505805969E-08  0.93827000000E+00  0.93827000000E+00 0.  1.
     999902    2    1    2    0    0  0.18277491107E-01  0.55082537754E-02  0.13357595198E-01  0.10206312256E+01  0.10203652609E+01 0.  0.
     999903    2    3    3    0    0 -0.11184903294E+00  0.69097058450E-02 -0.58946050973E-01  0.12812761572E+00  0.19598438242E-01 0.  0.
         14    1    1    2    0    0 -0.18277491107E-01 -0.55082537754E-02 -0.13357595198E-01  0.23298774437E-01  0.00000000000E+00 0.  1.
     999901    1    3    3    0    0  0.13012652404E+00 -0.14014520696E-02  0.72303646172E-01  0.89250360984E+00  0.88000000000E+00 0. -1.
        -11    1    4    4    0    0 -0.41930863550E-01  0.40850345042E-02 -0.11811941684E-01  0.43756918451E-01  0.51100000000E-03 0. -1.
         11    1    4    4    0    0 -0.69918169387E-01  0.28246713407E-02 -0.47134109289E-01  0.84370697272E-01  0.51100000000E-03 0.  1.
</event>
<event>
 8    1  0.1076043E+005  0.1043930E+01  0.7957747E-01            NaN
         13   -1    0    0    0    0  0.00000000000E+00  0.00000000000E+00  0.74505805969E-08  0.10566000000E+00  0.10566000000E+00 0. -1.
     999900   -1    0    0    0    0 -0.00000000000E+00 -0.00000000000E+00 -0.74505805969E-08  0.93827000000E+00  0.93827000000E+00 0.  1.
     999902    2    1    2    0    0 -0.20489758660E-01  0.77659208246E-02  0.25205427684E-02  0.10218734166E+01  0.10216353492E+01 0.  0.
     999903    2    3    3    0    0 -0.10407044102E+00  0.72076822372E-01  0.41622200534E-01  0.13471471479E+00  0.19746437331E-01 0.  0.
         14    1    1    2    0    0  0.20489758660E-01 -0.77659208246E-02 -0.25205427684E-02  0.22056583418E-01  0.00000000000E+00 0.  1.
     999901    1    3    3    0    0  0.83580682358E-01 -0.64310901548E-01 -0.39101657765E-01  0.88715870179E+00  0.88000000000E+00 0. -1.
        -11    1    4    4    0    0 -0.79214263109E-01  0.64383215363E-01  0.34090387692E-01  0.10762208674E+00  0.51100000000E-03 0.  1.
         11    1    4    4    0    0 -0.24856177909E-01  0.76936070091E-02  0.75318128420E-02  0.27092628052E-01  0.51100000000E-03 0. -1.
</event>
<event>
 8    1  0.1076043E+005  0.1043930E+01  0.7957747E-01            NaN
         13   -1    0    0    0    0  0.00000000000E+00  0.00000000000E+00  0.74505805969E-08  0.10566000000E+00  0.10566000000E+00 0. -1.
     999900   -1    0    0    0    0 -0.00000000000E+00 -0.00000000000E+00 -0.74505805969E-08  0.93827000000E+00  0.93827000000E+00 0.  1.
     999902    2    1    2    0    0  0.18983281878E-03  0.13312505481E-01  0.19009839115E-01  0.10207215356E+01  0.10204576524E+01 0.  0.
     999903    2    3    3    0    0 -0.82303851825E-01 -0.36707918536E-01  0.94530274539E-01  0.13223372642E+00  0.20697591378E-01 0.  0.
         14    1    1    2    0    0 -0.18983281878E-03 -0.13312505481E-01 -0.19009839115E-01  0.23208464444E-01  0.00000000000E+00 0.  1.
     999901    1    3    3    0    0  0.82493684644E-01  0.50020424016E-01 -0.75520435424E-01  0.88848780914E+00  0.88000000000E+00 0.  1.
        -11    1    4    4    0    0 -0.25709048700E-01 -0.38216449555E-02  0.18498221385E-01  0.31906197997E-01  0.51100000000E-03 0.  1.
         11    1    4    4    0    0 -0.56594803125E-01 -0.32886273580E-01  0.76032053153E-01  0.10032752842E+00  0.51100000000E-03 0. -1.
</event>
<event>
 8    1  0.1076043E+005  0.1043930E+01  0.7957747E-01            NaN
         13   -1    0    0    0    0  0.00000000000E+00  0.00000000000E+00  0.74505805969E-08  0.10566000000E+00  0.10566000000E+00 0. -1.
     999900   -1    0    0    0    0 -0.00000000000E+00 -0.00000000000E+00 -0.74505805969E-08  0.93827000000E+00  0.93827000000E+00 0.  1.
     999902    2    1    2    0    0  0.14787533452E-01  0.15254651775E-01 -0.11957323008E-01  0.10195506415E+01  0.10192591219E+01 0.  0.
     999903    2    3    3    0    0 -0.57939464683E-01  0.74545962024E-01  0.86223838752E-01  0.12913264066E+00  0.18072257563E-01 0.  0.
         14    1    1    2    0    0 -0.14787533452E-01 -0.15254651775E-01  0.11957323008E-01  0.24379358479E-01  0.00000000000E+00 0.  1.
     999901    1    3    3    0    0  0.72726998135E-01 -0.59291310249E-01 -0.98181161759E-01  0.89041800086E+00  0.88000000000E+00 0.  1.
        -11    1    4    4    0    0 -0.34146027436E-01  0.43834203221E-01  0.38540577789E-01  0.67624151151E-01  0.51100000000E-03 0. -1.
         11    1    4    4    0    0 -0.23793437247E-01  0.30711758803E-01  0.47683260963E-01  0.61508489511E-01  0.51100000000E-03 0.  1.
</event>
<event>
 8    1  0.1076043E+005  0.1043930E+01  0.7957747E-01            NaN
         13   -1    0    0    0    0  0.00000000000E+00  0.00000000000E+00  0.74505805969E-08  0.10566000000E+00  0.10566000000E+00 0. -1.
     999900   -1    0    0    0    0 -0.00000000000E+00 -0.00000000000E+00 -0.74505805969E-08  0.93827000000E+00  0.93827000000E+00 0.  1.
     999902    2    1    2    0    0  0.22381534380E-01  0.75171684671E-02  0.76370349325E-02  0.10191153832E+01  0.10188132307E+01 0.  0.
     999903    2    3    3    0    0 -0.10998253923E+00  0.46077911935E-01 -0.39003140152E-01  0.12716107675E+00  0.20721042270E-01 0.  0.
         14    1    1    2    0    0 -0.22381534380E-01 -0.75171684671E-02 -0.76370349325E-02  0.24814616772E-01  0.00000000000E+00 0.  1.
     999901    1    3    3    0    0  0.13236407361E+00 -0.38560743468E-01  0.46640175085E-01  0.89195430648E+00  0.88000000000E+00 0. -1.
        -11    1    4    4    0    0 -0.54836523941E-01  0.15469623773E-01 -0.10464655084E-01  0.57932061456E-01  0.51100000000E-03 0. -1.
         11    1    4    4    0    0 -0.55146015294E-01  0.30608288162E-01 -0.28538485068E-01  0.69229015289E-01  0.51100000000E-03 0.  1.
</event>
<event>
 8    1  0.1076043E+005  0.1043930E+01  0.7957747E-01            NaN
         13   -1    0    0    0    0  0.00000000000E+00  0.00000000000E+00  0.74505805969E-08  0.10566000000E+00  0.10566000000E+00 0.  1.
     999900   -1    0    0    0    0 -0.00000000000E+00 -0.00000000000E+00 -0.74505805969E-08  0.93827000000E+00  0.93827000000E+00 0.  1.
     999902    2    1    2    0    0 -0.18675206316E-01  0.12905633791E-01 -0.71104527462E-02  0.10201418254E+01  0.10198644354E+01 0.  0.
     999903    2    3    3    0    0 -0.51008705146E-01  0.56188832626E-01 -0.10728769706E+00  0.13281191449E+00  0.19216705665E-01 0.  0.
         14    1    1    2    0    0  0.18675206316E-01 -0.12905633791E-01  0.71104527462E-02  0.23788174641E-01  0.00000000000E+00 0. -1.
     999901    1    3    3    0    0  0.32333498830E-01 -0.43283198834E-01  0.10017724432E+00  0.88732991087E+00  0.88000000000E+00 0. -1.
        -11    1    4    4    0    0 -0.29451695540E-01  0.29023928686E-01 -0.73825979674E-01  0.84618716620E-01  0.51100000000E-03 0. -1.
         11    1    4    4    0    0 -0.21557009606E-01  0.27164903940E-01 -0.33461717387E-01  0.48193197868E-01  0.51100000000E-03 0.  1.
</event>
<event>
 8    1  0.1076043E+005  0.1043930E+01  0.7957747E-01            NaN
         13   -1    0    0    0    0  0.00000000000E+00  0.00000000000E+00  0.74505805969E-08  0.10566000000E+00  0.10566000000E+00 0.  1.
     999900   -1    0    0    0    0 -0.00000000000E+00 -0.00000000000E+00 -0.74505805969E-08  0.93827000000E+00  0.93827000000E+00 0. -1.
     999902    2    1    2    0    0 -0.79183577462E-02  0.20442102986E-01  0.75305482636E-02  0.10207505021E+01  0.10204872848E+01 0.  0.
     999903    2    3    3    0    0 -0.14720543570E-01  0.88048470308E-02  0.12972200858E+00  0.13220537192E+00  0.18874350902E-01 0.  0.
         14    1    1    2    0    0  0.79183577462E-02 -0.20442102986E-01 -0.75305482636E-02  0.23179497860E-01  0.00000000000E+00 0.  1.
     999901    1    3    3    0    0  0.68021858235E-02  0.11637255955E-01 -0.12219146031E+00  0.88854513022E+00  0.88000000000E+00 0. -1.
        -11    1    4    4    0    0 -0.42125320743E-02  0.13078331155E-01  0.59254162272E-01  0.60828488719E-01  0.51100000000E-03 0.  1.
         11    1    4    4    0    0 -0.10508011495E-01 -0.42734841238E-02  0.70467846305E-01  0.71376883204E-01  0.51100000000E-03 0. -1.
</event>
<event>
 8    1  0.1076043E+005  0.1043930E+01  0.7957747E-01            NaN
         13   -1    0    0    0    0  0.00000000000E+00  0.00000000000E+00  0.74505805969E-08  0.10566000000E+00  0.10566000000E+00 0. -1.
     999900   -1    0    0    0    0 -0.00000000000E+00 -0.00000000000E+00 -0.74505805969E-08  0.93827000000E+00  0.93827000000E+00 0.  1.
     999902    2    1    2    0    0  0.12544665206E-01  0.75451120031E-02  0.18777622906E-01  0.10201204124E+01  0.10198425169E+01 0.  0.
     999903    2    3    3    0    0 -0.53947696117E-01 -0.55685143957E-01 -0.99245209038E-01  0.12751261036E+00  0.19966599850E-01 0.  0.
         14    1    1    2    0    0 -0.12544665206E-01 -0.75451120031E-02 -0.18777622906E-01  0.23809587612E-01  0.00000000000E+00 0.  1.
     999901    1    3    3    0    0  0.66492361323E-01  0.63230255960E-01  0.11802283194E+00  0.89260780203E+00  0.88000000000E+00 0. -1.
        -11    1    4    4    0    0 -0.26197542900E-01 -0.26994418175E-01 -0.32370172420E-01  0.49629618678E-01  0.51100000000E-03 0.  1.
         11    1    4    4    0    0 -0.27750153217E-01 -0.28690725783E-01 -0.66875036618E-01  0.77882991681E-01  0.51100000000E-03 0. -1.
</event>
<event>
 8    1  0.1076043E+005  0.1043930E+01  0.7957747E-01            NaN
         13   -1    0    0    0    0  0.00000000000E+00  0.00000000000E+00  0.74505805969E-08  0.10566000000E+00  0.10566000000E+00 0.  1.
     999900   -1    0    0    0    0 -0.00000000000E+00 -0.00000000000E+00 -0.74505805969E-08  0.93827000000E+00  0.93827000000E+00 0.  1.
     999902    2    1    2    0    0 -0.63320508727E-02 -0.21236467780E-01  0.83130239469E-02  0.10202616921E+01  0.10199871232E+01 0.  0.
     999903    2    3    3    0    0  0.45567602718E-01  0.11703079302E+00 -0.12815026158E-01  0.12770480094E+00  0.19278961437E-01 0.  0.
         14    1    1    2    0    0  0.63320508727E-02  0.21236467780E-01 -0.83130239469E-02  0.23668307907E-01  0.00000000000E+00 0. -1.
     999901    1    3    3    0    0 -0.51899653590E-01 -0.13826726080E+00  0.21128050105E-01  0.89255689116E+00  0.88000000000E+00 0.  1.
        -11    1    4    4    0    0  0.12816109405E-01  0.36892698153E-01  0.48139270855E-02  0.39354273621E-01  0.51100000000E-03 0.  1.
         11    1    4    4    0    0  0.32751493312E-01  0.80138094868E-01 -0.17628953243E-01  0.88350527314E-01  0.51100000000E-03 0. -1.
</event>
<event>
 8    1  0.1076043E+005  0.1043930E+01  0.7957747E-01            NaN
         13   -1    0    0    0    0  0.00000000000E+00  0.00000000000E+00  0.74505805969E-08  0.10566000000E+00  0.10566000000E+00 0.  1.
     999900   -1    0    0    0    0 -0.00000000000E+00 -0.00000000000E+00 -0.74505805969E-08  0.93827000000E+00  0.93827000000E+00 0.  1.
     999902    2    1    2    0    0 -0.59978778510E-02 -0.38051102329E-02 -0.23092599639E-01  0.10197696697E+01  0.10194834269E+01 0.  0.
     999903    2    3    3    0    0  0.93164275894E-01  0.85721164694E-01  0.13744959674E-01  0.12892451344E+00  0.20122272985E-01 0.  0.
         14    1    1    2    0    0  0.59978778510E-02  0.38051102329E-02  0.23092599639E-01  0.24160330310E-01  0.00000000000E+00 0.  1.
     999901    1    3    3    0    0 -0.99162153745E-01 -0.89526274927E-01 -0.36837559313E-01  0.89084515625E+00  0.88000000000E+00 0. -1.
        -11    1    4    4    0    0  0.15653074069E-01  0.25807709564E-01  0.19987137803E-02  0.30254133247E-01  0.51100000000E-03 0. -1.
         11    1    4    4    0    0  0.77511201824E-01  0.59913455130E-01  0.11746245894E-01  0.98670380193E-01  0.51100000000E-03 0.  1.
</event>
<event>
 8    1  0.1076043E+005  0.1043930E+01  0.7957747E-01            NaN
         13   -1    0    0    0    0  0.00000000000E+00  0.00000000000E+00  0.74505805969E-08  0.10566000000E+00  0.10566000000E+00 0.  1.
     999900   -1    0    0    0    0 -0.00000000000E+00 -0.00000000000E+00 -0.74505805969E-08  0.93827000000E+00  0.93827000000E+00 0.  1.
     999902    2    1    2    0    0 -0.27534075363E-01  0.22904474957E-01  0.91128682820E-03  0.10081030447E+01  0.10074662169E+01 0.  0.
     999903    2    3    3    0    0 -0.11633936418E+00  0.10530447886E-01 -0.34780032289E-01  0.12282717467E+00  0.15202835296E-01 0.  0.
         14    1    1    2    0    0  0.27534075363E-01 -0.22904474957E-01 -0.91128682820E-03  0.35826955255E-01  0.00000000000E+00 0. -1.
     999901    1    3    3    0    0  0.88805288821E-01  0.12374027072E-01  0.35691319117E-01  0.88527587007E+00  0.88000000000E+00 0. -1.
        -11    1    4    4    0    0 -0.55578314851E-01 -0.17388348055E-02 -0.20045622699E-01  0.59110580597E-01  0.51100000000E-03 0. -1.
         11    1    4    4    0    0 -0.60761049333E-01  0.12269282691E-01 -0.14734409590E-01  0.63716594077E-01  0.51100000000E-03 0.  1.
</event>
<event>
 8    1  0.1076043E+005  0.1043930E+01  0.7957747E-01            NaN
         13   -1    0    0    0    0  0.00000000000E+00  0.00000000000E+00  0.74505805969E-08  0.10566000000E+00  0.10566000000E+00 0. -1.
     999900   -1    0    0    0    0 -0.00000000000E+00 -0.00000000000E+00 -0.74505805969E-08  0.93827000000E+00  0.93827000000E+00 0. -1.
     999902    2    1    2    0    0  0.59435122823E-02  0.22180217670E-02 -0.22194315002E-01  0.10208468335E+01  0.10205858243E+01 0.  0.
     999903    2    3    3    0    0  0.10671170020E-01  0.10040824349E+00  0.78883982587E-01  0.12962267949E+00  0.19587421953E-01 0.  0.
         14    1    1    2    0    0 -0.59435122823E-02 -0.22180217670E-02  0.22194315002E-01  0.23083166533E-01  0.00000000000E+00 0. -1.
     999901    1    3    3    0    0 -0.47276577378E-02 -0.98190221723E-01 -0.10107829759E+00  0.89122415398E+00  0.88000000000E+00 0. -1.
        -11    1    4    4    0    0  0.10773024358E-01  0.81850316756E-01  0.54292791138E-01  0.98810428081E-01  0.51100000000E-03 0. -1.
         11    1    4    4    0    0 -0.10185433787E-03  0.18557926734E-01  0.24591191449E-01  0.30812251408E-01  0.51100000000E-03 0.  1.
</event>
<event>
 8    1  0.1076043E+005  0.1043930E+01  0.7957747E-01            NaN
         13   -1    0    0    0    0  0.00000000000E+00  0.00000000000E+00  0.74505805969E-08  0.10566000000E+00  0.10566000000E+00 0. -1.
     999900   -1    0    0    0    0 -0.00000000000E+00 -0.00000000000E+00 -0.74505805969E-08  0.93827000000E+00  0.93827000000E+00 0. -1.
     999902    2    1    2    0    0  0.39790303930E-02 -0.16322183667E-01  0.16438298743E-01  0.10204254467E+01  0.10201547079E+01 0.  0.
     999903    2    3    3    0    0 -0.55253695183E-01  0.11461054427E+00  0.30035803124E-02  0.12866741519E+00  0.18913871834E-01 0.  0.
         14    1    1    2    0    0 -0.39790303930E-02  0.16322183667E-01 -0.16438298743E-01  0.23504553347E-01  0.00000000000E+00 0.  1.
     999901    1    3    3    0    0  0.59232725576E-01 -0.13093272793E+00  0.13434718430E-01  0.89175803147E+00  0.88000000000E+00 0. -1.
        -11    1    4    4    0    0 -0.53951410770E-01  0.10031282298E+00 -0.40417040468E-03  0.11390277281E+00  0.51100000000E-03 0.  1.
         11    1    4    4    0    0 -0.13022844134E-02  0.14297721286E-01  0.34077507170E-02  0.14764642380E-01  0.51100000000E-03 0. -1.
</event>
<event>
 8    1  0.1076043E+005  0.1043930E+01  0.7957747E-01            NaN
         13   -1    0    0    0    0  0.00000000000E+00  0.00000000000E+00  0.74505805969E-08  0.10566000000E+00  0.10566000000E+00 0. -1.
     999900   -1    0    0    0    0 -0.00000000000E+00 -0.00000000000E+00 -0.74505805969E-08  0.93827000000E+00  0.93827000000E+00 0. -1.
     999902    2    1    2    0    0  0.12802582763E-01  0.15690509599E-02 -0.29411682997E-01  0.10118143474E+01  0.10113045330E+01 0.  0.
     999903    2    3    3    0    0 -0.58301933698E-01 -0.63721869388E-01 -0.87561421931E-01  0.12462769922E+00  0.20136253150E-01 0.  0.
         14    1    1    2    0    0 -0.12802582763E-01 -0.15690509599E-02  0.29411682997E-01  0.32115652617E-01  0.00000000000E+00 0. -1.
     999901    1    3    3    0    0  0.71104516461E-01  0.65290920348E-01  0.58149738934E-01  0.88718664816E+00  0.88000000000E+00 0.  1.
        -11    1    4    4    0    0 -0.46392914134E-01 -0.51418923518E-01 -0.57443935184E-01  0.89979303109E-01  0.51100000000E-03 0.  1.
         11    1    4    4    0    0 -0.11909019565E-01 -0.12302945870E-01 -0.30117486748E-01  0.34648396111E-01  0.51100000000E-03 0. -1.
</event>
<event>
 8    1  0.1076043E+005  0.1043930E+01  0.7957747E-01            NaN
         13   -1    0    0    0    0  0.00000000000E+00  0.00000000000E+00  0.74505805969E-08  0.10566000000E+00  0.10566000000E+00 0. -1.
     999900   -1    0    0    0    0 -0.00000000000E+00 -0.00000000000E+00 -0.74505805969E-08  0.93827000000E+00  0.93827000000E+00 0.  1.
     999902    2    1    2    0    0  0.22492393600E-01  0.56054624286E-02 -0.18323592810E-02  0.10206773331E+01  0.10204124322E+01 0.  0.
     999903    2    3    3    0    0 -0.99953088870E-01  0.57914784746E-01 -0.54294693374E-01  0.12911608566E+00  0.19450130622E-01 0.  0.
         14    1    1    2    0    0 -0.22492393600E-01 -0.56054624286E-02  0.18323592810E-02  0.23252666931E-01  0.00000000000E+00 0. -1.
     999901    1    3    3    0    0  0.12244548247E+00 -0.52309322317E-01  0.52462334093E-01  0.89156124741E+00  0.88000000000E+00 0.  1.
        -11    1    4    4    0    0 -0.16814141858E-01  0.16768936399E-01 -0.16635188138E-01  0.28998330982E-01  0.51100000000E-03 0.  1.
         11    1    4    4    0    0 -0.83138947012E-01  0.41145848347E-01 -0.37659505236E-01  0.10011775468E+00  0.51100000000E-03 0. -1.
</event>
<event>
 8    1  0.1076043E+005  0.1043930E+01  0.7957747E-01            NaN
         13   -1    0    0    0    0  0.00000000000E+00  0.00000000000E+00  0.74505805969E-08  0.10566000000E+00  0.10566000000E+00 0.  1.
     999900   -1    0    0    0    0 -0.00000000000E+00 -0.00000000000E+00 -0.74505805969E-08  0.93827000000E+00  0.93827000000E+00 0. -1.
     999902    2    1    2    0    0 -0.16849738511E-01  0.13920873830E-01  0.93030587425E-02  0.10201760252E+01  0.10198994417E+01 0.  0.
     999903    2    3    3    0    0  0.41769128586E-01  0.12219784062E+00  0.15322285963E-01  0.13158370913E+00  0.20063093141E-01 0.  0.
         14    1    1    2    0    0  0.16849738511E-01 -0.13920873830E-01 -0.93030587425E-02  0.23753974784E-01  0.00000000000E+00 0. -1.
     999901    1    3    3    0    0 -0.58618867097E-01 -0.10827696679E+00 -0.60192272207E-02  0.88859231609E+00  0.88000000000E+00 0.  1.
        -11    1    4    4    0    0  0.11202594056E-01  0.59006255430E-01  0.12374280432E-01  0.61323896081E-01  0.51100000000E-03 0. -1.
         11    1    4    4    0    0  0.30566534530E-01  0.63191585186E-01  0.29480055310E-02  0.70259813045E-01  0.51100000000E-03 0.  1.
</event>
<event>
 8    1  0.1076043E+005  0.1043930E+01  0.7957747E-01            NaN
         13   -1    0    0    0    0  0.00000000000E+00  0.00000000000E+00  0.74505805969E-08  0.10566000000E+00  0.10566000000E+00 0.  1.
     999900   -1    0    0    0    0 -0.00000000000E+00 -0.00000000000E+00 -0.74505805969E-08  0.93827000000E+00  0.93827000000E+00 0.  1.
     999902    2    1    2    0    0 -0.23266208397E-01 -0.28662582890E-02  0.43133622612E-02  0.10200943757E+01  0.10198158650E+01 0.  0.
     999903    2    3    3    0    0  0.86279643206E-01 -0.55973738645E-01  0.75159751642E-01  0.12889299055E+00  0.19676851815E-01 0.  0.
         14    1    1    2    0    0  0.23266208397E-01  0.28662582890E-02 -0.43133622612E-02  0.23835624258E-01  0.00000000000E+00 0. -1.
     999901    1    3    3    0    0 -0.10954585160E+00  0.53107480356E-01 -0.70846389381E-01  0.89120138519E+00  0.88000000000E+00 0.  1.
        -11    1    4    4    0    0  0.26851773678E-01 -0.11523408374E-01  0.30674041641E-01  0.42367023047E-01  0.51100000000E-03 0. -1.
         11    1    4    4    0    0  0.59427869527E-01 -0.44450330271E-01  0.44485710001E-01  0.86525967507E-01  0.51100000000E-03 0.  1.
</event>
<event>
 8    1  0.1155307E+005  0.1043930E+01  0.7957747E-01            NaN
         13   -1    0    0    0    0  0.00000000000E+00  0.00000000000E+00  0.74505805969E-08  0.10566000000E+00  0.10566000000E+00 0.  1.
     999900   -1    0    0    0    0 -0.00000000000E+00 -0.00000000000E+00 -0.74505805969E-08  0.93827000000E+00  0.93827000000E+00 0. -1.
     999902    2    1    2    0    0  0.48797193236E-02  0.19465577955E-02 -0.25217913636E-01  0.10181706538E+01  0.10178447506E+01 0.  0.
     999903    2    3    3    0    0 -0.53091775337E-02 -0.68443528553E-01 -0.11007747503E+00  0.13123225514E+00  0.19802785526E-01 0.  0.
         14    1    1    2    0    0 -0.48797193236E-02 -0.19465577955E-02  0.25217913636E-01  0.25759346189E-01  0.00000000000E+00 0. -1.
     999901    1    3    3    0    0  0.10188896857E-01  0.70390086349E-01  0.84859561389E-01  0.88693839867E+00  0.88000000000E+00 0.  1.
        -11    1    4    4    0    0  0.29823497775E-03 -0.44493016042E-01 -0.53836716117E-01  0.69845333014E-01  0.51100000000E-03 0.  1.
         11    1    4    4    0    0 -0.56074125114E-02 -0.23950512511E-01 -0.56240758909E-01  0.61386922127E-01  0.51100000000E-03 0. -1.
</event>
<event>
 8    1  0.1076043E+005  0.1043930E+01  0.7957747E-01            NaN
         13   -1    0    0    0    0  0.00000000000E+00  0.00000000000E+00  0.74505805969E-08  0.10566000000E+00  0.10566000000E+00 0. -1.
     999900   -1    0    0    0    0 -0.00000000000E+00 -0.00000000000E+00 -0.74505805969E-08  0.93827000000E+00  0.93827000000E+00 0.  1.
     999902    2    1    2    0    0  0.13300685508E-01 -0.35585190817E-03  0.19371023624E-01  0.10204295442E+01  0.10201589010E+01 0.  0.
     999903    2    3    3    0    0  0.70077073167E-01 -0.86190836194E-01 -0.65288483622E-01  0.13039671624E+00  0.20026509538E-01 0.  0.
         14    1    1    2    0    0 -0.13300685508E-01  0.35585190817E-03 -0.19371023624E-01  0.23500455778E-01  0.00000000000E+00 0.  1.
     999901    1    3    3    0    0 -0.56776387660E-01  0.85834984286E-01  0.84659507245E-01  0.89003282798E+00  0.88000000000E+00 0. -1.
        -11    1    4    4    0    0  0.34965861629E-01 -0.58447924423E-01 -0.40348279037E-01  0.79164487563E-01  0.51100000000E-03 0.  1.
         11    1    4    4    0    0  0.35111211538E-01 -0.27742911771E-01 -0.24940204584E-01  0.51232228674E-01  0.51100000000E-03 0. -1.
</event>
<event>
 8    1  0.1076043E+005  0.1043930E+01  0.7957747E-01            NaN
         13   -1    0    0    0    0  0.00000000000E+00  0.00000000000E+00  0.74505805969E-08  0.10566000000E+00  0.10566000000E+00 0. -1.
     999900   -1    0    0    0    0 -0.00000000000E+00 -0.00000000000E+00 -0.74505805969E-08  0.93827000000E+00  0.93827000000E+00 0.  1.
     999902    2    1    2    0    0 -0.10615378347E-01 -0.77059391778E-02  0.19339260572E-01  0.10205617575E+01  0.10202941861E+01 0.  0.
     999903    2    3    3    0    0  0.78393769923E-01  0.20771015801E-01 -0.96966936071E-01  0.12800324584E+00  0.20130225876E-01 0.  0.
         14    1    1    2    0    0  0.10615378347E-01  0.77059391778E-02 -0.19339260572E-01  0.23368242457E-01  0.00000000000E+00 0.  1.
     999901    1    3    3    0    0 -0.89009148270E-01 -0.28476954979E-01  0.11630619664E+00  0.89255851171E+00  0.88000000000E+00 0. -1.
        -11    1    4    4    0    0  0.23690528801E-01 -0.18769019846E-02 -0.21240275087E-01  0.31877489278E-01  0.51100000000E-03 0. -1.
         11    1    4    4    0    0  0.54703241122E-01  0.22647917786E-01 -0.75726660984E-01  0.96125756560E-01  0.51100000000E-03 0.  1.
</event>
<event>
 8    1  0.1076043E+005  0.1043930E+01  0.7957747E-01            NaN
         13   -1    0    0    0    0  0.00000000000E+00  0.00000000000E+00  0.74505805969E-08  0.10566000000E+00  0.10566000000E+00 0. -1.
     999900   -1    0    0    0    0 -0.00000000000E+00 -0.00000000000E+00 -0.74505805969E-08  0.93827000000E+00  0.93827000000E+00 0.  1.
     999902    2    1    2    0    0 -0.24090482063E-01  0.12150679576E-01  0.12513948413E-01  0.10141879549E+01  0.10137517540E+01 0.  0.
     999903    2    3    3    0    0 -0.11330549499E+00 -0.52251946140E-01  0.15100357320E-01  0.12733187515E+00  0.20420199994E-01 0.  0.
         14    1    1    2    0    0  0.24090482063E-01 -0.12150679576E-01 -0.12513948413E-01  0.29742045072E-01  0.00000000000E+00 0.  1.
     999901    1    3    3    0    0  0.89215012925E-01  0.64402625716E-01 -0.25864089071E-02  0.88685607978E+00  0.88000000000E+00 0.  1.
        -11    1    4    4    0    0 -0.39606999855E-01 -0.21987255033E-01  0.14797364169E-01  0.47658964831E-01  0.51100000000E-03 0. -1.
         11    1    4    4    0    0 -0.73698495133E-01 -0.30264691107E-01  0.30299315109E-03  0.79672910318E-01  0.51100000000E-03 0.  1.
</event>
<event>
 8    1  0.1076043E+005  0.1043930E+01  0.7957747E-01            NaN
         13   -1    0    0    0    0  0.00000000000E+00  0.00000000000E+00  0.74505805969E-08  0.10566000000E+00  0.10566000000E+00 0.  1.
     999900   -1    0    0    0    0 -0.00000000000E+00 -0.00000000000E+00 -0.74505805969E-08  0.93827000000E+00  0.93827000000E+00 0.  1.
     999902    2    1    2    0    0  0.65524263282E-02  0.24004143798E-01  0.11394345682E-02  0.10190215372E+01  0.10187170665E+01 0.  0.
     999903    2    3    3    0    0  0.66307473113E-02  0.11249720240E+00 -0.65872354268E-01  0.13204825266E+00  0.19949601897E-01 0.  0.
         14    1    1    2    0    0 -0.65524263282E-02 -0.24004143798E-01 -0.11394345682E-02  0.24908462847E-01  0.00000000000E+00 0.  1.
     999901    1    3    3    0    0 -0.78320983182E-04 -0.88493058606E-01  0.67011788837E-01  0.88697328449E+00  0.88000000000E+00 0.  1.
        -11    1    4    4    0    0  0.13394543347E-01  0.75590525736E-01 -0.41041352328E-01  0.87051680595E-01  0.51100000000E-03 0.  1.
         11    1    4    4    0    0 -0.67637960356E-02  0.36906676668E-01 -0.24831001941E-01  0.44996572068E-01  0.51100000000E-03 0. -1.
</event>
<event>
 8    1  0.1076043E+005  0.1043930E+01  0.7957747E-01            NaN
         13   -1    0    0    0    0  0.00000000000E+00  0.00000000000E+00  0.74505805969E-08  0.10566000000E+00  0.10566000000E+00 0.  1.
     999900   -1    0    0    0    0 -0.00000000000E+00 -0.00000000000E+00 -0.74505805969E-08  0.93827000000E+00  0.93827000000E+00 0. -1.
     999902    2    1    2    0    0 -0.16445645438E-01 -0.15923258967E-01  0.69223136762E-02  0.10200149868E+01  0.10197345956E+01 0.  0.
     999903    2    3    3    0    0 -0.23325210165E-01  0.98647599609E-01 -0.76596022110E-01  0.12864013722E+00  0.20147455483E-01 0.  0.
         14    1    1    2    0    0  0.16445645438E-01  0.15923258967E-01 -0.69223136762E-02  0.23915013206E-01  0.00000000000E+00 0. -1.
     999901    1    3    3    0    0  0.68795647279E-02 -0.11457085858E+00  0.83518335786E-01  0.89137484958E+00  0.88000000000E+00 0.  1.
        -11    1    4    4    0    0 -0.19017242205E-01  0.52442004201E-01 -0.32181489285E-01  0.64402862353E-01  0.51100000000E-03 0.  1.
         11    1    4    4    0    0 -0.43079679609E-02  0.46205595408E-01 -0.44414532825E-01  0.64237274865E-01  0.51100000000E-03 0. -1.
</event>
<event>
 8    1  0.1076043E+005  0.1043930E+01  0.7957747E-01            NaN
         13   -1    0    0    0    0  0.00000000000E+00  0.00000000000E+00  0.74505805969E-08  0.10566000000E+00  0.10566000000E+00 0. -1.
     999900   -1    0    0    0    0 -0.00000000000E+00 -0.00000000000E+00 -0.74505805969E-08  0.93827000000E+00  0.93827000000E+00 0. -1.
     999902    2    1    2    0    0 -0.17086303418E-01  0.14814406802E-01 -0.50563704659E-02  0.10207572726E+01  0.10204942108E+01 0.  0.
     999903    2    3    3    0    0  0.10290880187E+00  0.77741558816E-01 -0.24602580717E-02  0.13038353558E+00  0.18969502106E-01 0.  0.
         14    1    1    2    0    0  0.17086303418E-01 -0.14814406802E-01  0.50563704659E-02  0.23172727411E-01  0.00000000000E+00 0.  1.
     999901    1    3    3    0    0 -0.11999510529E+00 -0.62927152015E-01 -0.25961123942E-02  0.89037373701E+00  0.88000000000E+00 0.  1.
        -11    1    4    4    0    0  0.45006102306E-01  0.40025597341E-01  0.69882926497E-02  0.60635757127E-01  0.51100000000E-03 0.  1.
         11    1    4    4    0    0  0.57902699569E-01  0.37715961475E-01 -0.94485507214E-02  0.69747778453E-01  0.51100000000E-03 0. -1.
</event>
<event>
 8    1  0.1076043E+005  0.1043930E+01  0.7957747E-01            NaN
         13   -1    0    0    0    0  0.00000000000E+00  0.00000000000E+00  0.74505805969E-08  0.10566000000E+00  0.10566000000E+00 0. -1.
     999900   -1    0    0    0    0 -0.00000000000E+00 -0.00000000000E+00 -0.74505805969E-08  0.93827000000E+00  0.93827000000E+00 0.  1.
     999902    2    1    2    0    0  0.12923435308E-03  0.17890664058E-01  0.15192062007E-01  0.10204589261E+01  0.10201889671E+01 0.  0.
     999903    2    3    3    0    0 -0.51737321616E-01  0.62246004086E-01  0.10417175021E+00  0.13334285662E+00  0.19422883367E-01 0.  0.
         14    1    1    2    0    0 -0.12923435308E-03 -0.17890664058E-01 -0.15192062007E-01  0.23471073899E-01  0.00000000000E+00 0.  1.
     999901    1    3    3    0    0  0.51866555969E-01 -0.44355340028E-01 -0.88979688198E-01  0.88711606948E+00  0.88000000000E+00 0.  1.
        -11    1    4    4    0    0 -0.24964459419E-01  0.27174750542E-01  0.62884574105E-01  0.72913798985E-01  0.51100000000E-03 0.  1.
         11    1    4    4    0    0 -0.26772862197E-01  0.35071253544E-01  0.41287176100E-01  0.60429057636E-01  0.51100000000E-03 0. -1.
</event>
<event>
 8    1  0.1397563E+005  0.1043930E+01  0.7957747E-01            NaN
         13   -1    0    0    0    0  0.00000000000E+00  0.00000000000E+00  0.74505805969E-08  0.10566000000E+00  0.10566000000E+00 0. -1.
     999900   -1    0    0    0    0 -0.00000000000E+00 -0.00000000000E+00 -0.74505805969E-08  0.93827000000E+00  0.93827000000E+00 0.  1.
     999902    2    1    2    0    0  0.15778913219E-01 -0.21500012788E-02 -0.18473870213E-01  0.10195398280E+01  0.10192480466E+01 0.  0.
     999903    2    3    3    0    0 -0.11733456764E+00 -0.22187558642E-01  0.39781894076E-01  0.12739945984E+00  0.19706210957E-01 0.  0.
         14    1    1    2    0    0 -0.15778913219E-01  0.21500012788E-02  0.18473870213E-01  0.24390171965E-01  0.00000000000E+00 0. -1.
     999901    1    3    3    0    0  0.13311348085E+00  0.20037557363E-01 -0.58255764289E-01  0.89214036820E+00  0.88000000000E+00 0.  1.
        -11    1    4    4    0    0 -0.44711332835E-01 -0.18256439072E-01  0.15919514522E-01  0.50853642102E-01  0.51100000000E-03 0.  1.
         11    1    4    4    0    0 -0.72623234802E-01 -0.39311195699E-02  0.23862379553E-01  0.76545817737E-01  0.51100000000E-03 0. -1.
</event>
<event>
 8    1  0.1076043E+005  0.1043930E+01  0.7957747E-01            NaN
         13   -1    0    0    0    0  0.00000000000E+00  0.00000000000E+00  0.74505805969E-08  0.10566000000E+00  0.10566000000E+00 0.  1.
     999900   -1    0    0    0    0 -0.00000000000E+00 -0.00000000000E+00 -0.74505805969E-08  0.93827000000E+00  0.93827000000E+00 0. -1.
     999902    2    1    2    0    0  0.14470709815E-01  0.57869383319E-02  0.14979690454E-01  0.10223133114E+01  0.10220847448E+01 0.  0.
     999903    2    3    3    0    0 -0.17705153990E-01 -0.11403230968E+00 -0.57881723733E-01  0.13062910497E+00  0.19920567096E-01 0.  0.
         14    1    1    2    0    0 -0.14470709815E-01 -0.57869383319E-02 -0.14979690454E-01  0.21616688551E-01  0.00000000000E+00 0.  1.
     999901    1    3    3    0    0  0.32175863805E-01  0.11981924802E+00  0.72861414187E-01  0.89168420648E+00  0.88000000000E+00 0. -1.
        -11    1    4    4    0    0 -0.15838807985E-01 -0.47478302138E-01 -0.30660274294E-01  0.58697278924E-01  0.51100000000E-03 0. -1.
         11    1    4    4    0    0 -0.18663460051E-02 -0.66554007545E-01 -0.27221449439E-01  0.71931826046E-01  0.51100000000E-03 0.  1.
</event>
<event>
 8    1  0.1076043E+005  0.1043930E+01  0.7957747E-01            NaN
         13   -1    0    0    0    0  0.00000000000E+00  0.00000000000E+00  0.74505805969E-08  0.10566000000E+00  0.10566000000E+00 0. -1.
     999900   -1    0    0    0    0 -0.00000000000E+00 -0.00000000000E+00 -0.74505805969E-08  0.93827000000E+00  0.93827000000E+00 0.  1.
     999902    2    1    2    0    0 -0.22951639390E-01  0.80329905316E-02  0.74792173593E-02  0.10184889823E+01  0.10181711849E+01 0.  0.
     999903    2    3    3    0    0 -0.52130059357E-01 -0.10471405700E+00 -0.48742378024E-01  0.12903738460E+00  0.24336195027E-01 0.  0.
         14    1    1    2    0    0  0.22951639390E-01 -0.80329905316E-02 -0.74792173593E-02  0.25441017666E-01  0.00000000000E+00 0.  1.
     999901    1    3    3    0    0  0.29178419967E-01  0.11274704753E+00  0.56221595383E-01  0.88945159773E+00  0.88000000000E+00 0. -1.
        -11    1    4    4    0    0 -0.20716691616E-01 -0.40982657102E-01 -0.32184489829E-01  0.56079069190E-01  0.51100000000E-03 0. -1.
         11    1    4    4    0    0 -0.31413367741E-01 -0.63731399895E-01 -0.16557888195E-01  0.72958315413E-01  0.51100000000E-03 0.  1.
</event>
<event>
 8    1  0.1076043E+005  0.1043930E+01  0.7957747E-01            NaN
         13   -1    0    0    0    0  0.00000000000E+00  0.00000000000E+00  0.74505805969E-08  0.10566000000E+00  0.10566000000E+00 0.  1.
     999900   -1    0    0    0    0 -0.00000000000E+00 -0.00000000000E+00 -0.74505805969E-08  0.93827000000E+00  0.93827000000E+00 0. -1.
     999902    2    1    2    0    0 -0.17361739560E-01  0.12254698359E-01 -0.14385770866E-01  0.10182676144E+01  0.10179441912E+01 0.  0.
     999903    2    3    3    0    0 -0.60254140400E-01  0.89461256464E-01  0.66521390662E-01  0.13015355670E+00  0.29681224061E-01 0.  0.
         14    1    1    2    0    0  0.17361739560E-01 -0.12254698359E-01  0.14385770866E-01  0.25662385622E-01  0.00000000000E+00 0.  1.
     999901    1    3    3    0    0  0.42892400839E-01 -0.77206558105E-01 -0.80907161528E-01  0.88811405768E+00  0.88000000000E+00 0.  1.
        -11    1    4    4    0    0 -0.47790857531E-01  0.86694909039E-01  0.60597927701E-01  0.11607042379E+00  0.51100000000E-03 0.  1.
         11    1    4    4    0    0 -0.12463282868E-01  0.27663474251E-02  0.59234629616E-02  0.14083132904E-01  0.51100000000E-03 0. -1.
</event>
<event>
 8    1  0.1076043E+005  0.1043930E+01  0.7957747E-01            NaN
         13   -1    0    0    0    0  0.00000000000E+00  0.00000000000E+00  0.74505805969E-08  0.10566000000E+00  0.10566000000E+00 0.  1.
     999900   -1    0    0    0    0 -0.00000000000E+00 -0.00000000000E+00 -0.74505805969E-08  0.93827000000E+00  0.93827000000E+00 0.  1.
     999902    2    1    2    0    0  0.17961732276E-01  0.21635392719E-02 -0.14884932879E-01  0.10205021116E+01  0.10202331566E+01 0.  0.
     999903    2    3    3    0    0 -0.28647012629E-02  0.12047736035E+00  0.44928736507E-01  0.13032820968E+00  0.21067747979E-01 0.  0.
         14    1    1    2    0    0 -0.17961732276E-01 -0.21635392719E-02  0.14884932879E-01  0.23427888410E-01  0.00000000000E+00 0. -1.
     999901    1    3    3    0    0  0.20826433538E-01 -0.11831382108E+00 -0.59813669386E-01  0.89017390191E+00  0.88000000000E+00 0.  1.
        -11    1    4    4    0    0 -0.14533484479E-02  0.71822885744E-01  0.15652072800E-01  0.73524741701E-01  0.51100000000E-03 0.  1.
         11    1    4    4    0    0 -0.14113528149E-02  0.48654474605E-01  0.29276663707E-01  0.56803467981E-01  0.51100000000E-03 0. -1.
</event>
<event>
 8    1  0.1076043E+005  0.1043930E+01  0.7957747E-01            NaN
         13   -1    0    0    0    0  0.00000000000E+00  0.00000000000E+00  0.74505805969E-08  0.10566000000E+00  0.10566000000E+00 0. -1.
     999900   -1    0    0    0    0 -0.00000000000E+00 -0.00000000000E+00 -0.74505805969E-08  0.93827000000E+00  0.93827000000E+00 0.  1.
     999902    2    1    2    0    0 -0.33471967619E-02 -0.21156551901E-01  0.10327087325E-01  0.10201507623E+01  0.10198735832E+01 0.  0.
     999903    2    3    3    0    0  0.10741591385E-01 -0.37732804444E-02  0.12980302880E+00  0.13179544334E+00  0.19788713142E-01 0.  0.
         14    1    1    2    0    0  0.33471967619E-02  0.21156551901E-01 -0.10327087325E-01  0.23779237732E-01  0.00000000000E+00 0.  1.
     999901    1    3    3    0    0 -0.14088788147E-01 -0.17383271457E-01 -0.11947594148E+00  0.88835531893E+00  0.88000000000E+00 0.  1.
        -11    1    4    4    0    0  0.28879590082E-04 -0.83884405279E-02  0.87754252225E-01  0.88155752354E-01  0.51100000000E-03 0. -1.
         11    1    4    4    0    0  0.10712711795E-01  0.46151600836E-02  0.42048776576E-01  0.43639690984E-01  0.51100000000E-03 0.  1.
</event>
<event>
 8    1  0.1076043E+005  0.1043930E+01  0.7957747E-01            NaN
         13   -1    0    0    0    0  0.00000000000E+00  0.00000000000E+00  0.74505805969E-08  0.10566000000E+00  0.10566000000E+00 0. -1.
     999900   -1    0    0    0    0 -0.00000000000E+00 -0.00000000000E+00 -0.74505805969E-08  0.93827000000E+00  0.93827000000E+00 0. -1.
     999902    2    1    2    0    0  0.12243951319E-01  0.58382417925E-02 -0.20129192504E-01  0.10196568914E+01  0.10193679377E+01 0.  0.
     999903    2    3    3    0    0 -0.71341920510E-01  0.46869960529E-01  0.92323400498E-01  0.12762786406E+00  0.21881466656E-01 0.  0.
         14    1    1    2    0    0 -0.12243951319E-01 -0.58382417925E-02  0.20129192504E-01  0.24273108618E-01  0.00000000000E+00 0. -1.
     999901    1    3    3    0    0  0.83585871829E-01 -0.41031718736E-01 -0.11245259300E+00  0.89202902732E+00  0.88000000000E+00 0. -1.
        -11    1    4    4    0    0 -0.48639670051E-01  0.42485258496E-01  0.73199364975E-01  0.97617738378E-01  0.51100000000E-03 0.  1.
         11    1    4    4    0    0 -0.22702250459E-01  0.43847020325E-02  0.19124035523E-01  0.30010125682E-01  0.51100000000E-03 0. -1.
</event>
<event>
 8    1  0.1076043E+005  0.1043930E+01  0.7957747E-01            NaN
         13   -1    0    0    0    0  0.00000000000E+00  0.00000000000E+00  0.74505805969E-08  0.10566000000E+00  0.10566000000E+00 0. -1.
     999900   -1    0    0    0    0 -0.00000000000E+00 -0.00000000000E+00 -0.74505805969E-08  0.93827000000E+00  0.93827000000E+00 0.  1.
     999902    2    1    2    0    0  0.13021907533E-01  0.19221313744E-01  0.36121778830E-02  0.10204336852E+01  0.10201631385E+01 0.  0.
     999903    2    3    3    0    0 -0.88846259200E-01  0.94357464238E-01  0.40745183710E-02  0.13137644397E+00  0.21122961440E-01 0.  0.
         14    1    1    2    0    0 -0.13021907533E-01 -0.19221313744E-01 -0.36121778830E-02  0.23496314751E-01  0.00000000000E+00 0.  1.
     999901    1    3    3    0    0  0.10186816673E+00 -0.75136150495E-01 -0.46234048800E-03  0.88905724127E+00  0.88000000000E+00 0.  1.
        -11    1    4    4    0    0 -0.80709758093E-01  0.77861733552E-01  0.84463988408E-02  0.11246384920E+00  0.51100000000E-03 0.  1.
         11    1    4    4    0    0 -0.81365011074E-02  0.16495730686E-01 -0.43718804698E-02  0.18912594771E-01  0.51100000000E-03 0. -1.
</event>
<event>
 8    1  0.1076043E+005  0.1043930E+01  0.7957747E-01            NaN
         13   -1    0    0    0    0  0.00000000000E+00  0.00000000000E+00  0.74505805969E-08  0.10566000000E+00  0.10566000000E+00 0. -1.
     999900   -1    0    0    0    0 -0.00000000000E+00 -0.00000000000E+00 -0.74505805969E-08  0.93827000000E+00  0.93827000000E+00 0. -1.
     999902    2    1    2    0    0 -0.16732001408E-01 -0.95692448739E-03  0.23403781445E-01  0.10151443688E+01  0.10147361613E+01 0.  0.
     999903    2    3    3    0    0  0.12107033220E+00 -0.13769956143E-01 -0.48891218248E-02  0.12387889475E+00  0.21781644131E-01 0.  0.
         14    1    1    2    0    0  0.16732001408E-01  0.95692448739E-03 -0.23403781445E-01  0.28785631164E-01  0.00000000000E+00 0.  1.
     999901    1    3    3    0    0 -0.13780233361E+00  0.12813031656E-01  0.28292903269E-01  0.89126547409E+00  0.88000000000E+00 0.  1.
        -11    1    4    4    0    0  0.42034296520E-01 -0.10869653899E-01 -0.10226902988E-01  0.44608094844E-01  0.51100000000E-03 0.  1.
         11    1    4    4    0    0  0.79036035677E-01 -0.29003022443E-02  0.53377811630E-02  0.79270799904E-01  0.51100000000E-03 0. -1.
</event>
<event>
 8    1  0.1076043E+005  0.1043930E+01  0.7957747E-01            NaN
         13   -1    0    0    0    0  0.00000000000E+00  0.00000000000E+00  0.74505805969E-08  0.10566000000E+00  0.10566000000E+00 0.  1.
     999900   -1    0    0    0    0 -0.00000000000E+00 -0.00000000000E+00 -0.74505805969E-08  0.93827000000E+00  0.93827000000E+00 0. -1.
     999902    2    1    2    0    0  0.14692169587E-01 -0.16022162515E-01 -0.84714472153E-02  0.10205990129E+01  0.10203323038E+01 0.  0.
     999903    2    3    3    0    0 -0.82225681638E-01 -0.96372646400E-01 -0.28026740257E-01  0.13142429467E+00  0.20930775530E-01 0.  0.
         14    1    1    2    0    0 -0.14692169587E-01  0.16022162515E-01  0.84714472153E-02  0.23330987051E-01  0.00000000000E+00 0.  1.
     999901    1    3    3    0    0  0.96917851225E-01  0.80350483885E-01  0.19555293042E-01  0.88917471828E+00  0.88000000000E+00 0.  1.
        -11    1    4    4    0    0 -0.47566811101E-01 -0.49799541298E-01 -0.25080353734E-01  0.73293117659E-01  0.51100000000E-03 0. -1.
         11    1    4    4    0    0 -0.34658870537E-01 -0.46573105102E-01 -0.29463865233E-02  0.58131177008E-01  0.51100000000E-03 0.  1.
</event>
<event>
 8    1  0.1076043E+005  0.1043930E+01  0.7957747E-01            NaN
         13   -1    0    0    0    0  0.00000000000E+00  0.00000000000E+00  0.74505805969E-08  0.10566000000E+00  0.10566000000E+00 0. -1.
     999900   -1    0    0    0    0 -0.00000000000E+00 -0.00000000000E+00 -0.74505805969E-08  0.93827000000E+00  0.93827000000E+00 0.  1.
     999902    2    1    2    0    0  0.14359688201E-01  0.50674603412E-02  0.17298529075E-01  0.10208839828E+01  0.10206238227E+01 0.  0.
     999903    2    3    3    0    0  0.83115823701E-01  0.22932923718E-02  0.10297712546E+00  0.13404920449E+00  0.21246211843E-01 0.  0.
         14    1    1    2    0    0 -0.14359688201E-01 -0.50674603412E-02 -0.17298529075E-01  0.23046017176E-01  0.00000000000E+00 0.  1.
     999901    1    3    3    0    0 -0.68756135501E-01  0.27741679694E-02 -0.85678596386E-01  0.88683477833E+00  0.88000000000E+00 0.  1.
        -11    1    4    4    0    0  0.51323743032E-01  0.10439277552E-01  0.55313013226E-01  0.76176739677E-01  0.51100000000E-03 0.  1.
         11    1    4    4    0    0  0.31792080669E-01 -0.81459851800E-02  0.47664112235E-01  0.57872464817E-01  0.51100000000E-03 0. -1.
</event>
<event>
 8    1  0.1076043E+005  0.1043930E+01  0.7957747E-01            NaN
         13   -1    0    0    0    0  0.00000000000E+00  0.00000000000E+00  0.74505805969E-08  0.10566000000E+00  0.10566000000E+00 0. -1.
     999900   -1    0    0    0    0 -0.00000000000E+00 -0.00000000000E+00 -0.74505805969E-08  0.93827000000E+00  0.93827000000E+00 0. -1.
     999902    2    1    2    0    0  0.18166756509E-01 -0.13709071716E-01  0.70628406678E-02  0.10201003251E+01  0.10198219549E+01 0.  0.
     999903    2    3    3    0    0  0.18734487885E-01 -0.61100465110E-01 -0.11205945375E+00  0.13081050306E+00  0.21675300738E-01 0.  0.
         14    1    1    2    0    0 -0.18166756509E-01  0.13709071716E-01 -0.70628406678E-02  0.23829674938E-01  0.00000000000E+00 0.  1.
     999901    1    3    3    0    0 -0.56773137636E-03  0.47391393395E-01  0.11912229442E+00  0.88928982200E+00  0.88000000000E+00 0.  1.
        -11    1    4    4    0    0  0.14792143616E-02 -0.38427323720E-01 -0.56162552125E-01  0.68068646715E-01  0.51100000000E-03 0.  1.
         11    1    4    4    0    0  0.17255273524E-01 -0.22673141390E-01 -0.55896901629E-01  0.62741856345E-01  0.51100000000E-03 0. -1.
</event>
<event>
 8    1  0.1076043E+005  0.1043930E+01  0.7957747E-01            NaN
         13   -1    0    0    0    0  0.00000000000E+00  0.00000000000E+00  0.74505805969E-08  0.10566000000E+00  0.10566000000E+00 0. -1.
     999900   -1    0    0    0    0 -0.00000000000E+00 -0.00000000000E+00 -0.74505805969E-08  0.93827000000E+00  0.93827000000E+00 0.  1.
     999902    2    1    2    0    0  0.10424908766E-01  0.24242642200E-01  0.13628452632E-01  0.10142295094E+01  0.10137945445E+01 0.  0.
     999903    2    3    3    0    0  0.93585824874E-01 -0.50763758245E-01 -0.60196130054E-01  0.12406561035E+00  0.20819121737E-01 0.  0.
         14    1    1    2    0    0 -0.10424908766E-01 -0.24242642200E-01 -0.13628452632E-01  0.29700490648E-01  0.00000000000E+00 0.  1.
     999901    1    3    3    0    0 -0.83160916108E-01  0.75006400444E-01  0.73824582686E-01  0.89016389900E+00  0.88000000000E+00 0.  1.
        -11    1    4    4    0    0  0.35029681152E-01 -0.22370482209E-01 -0.34786120803E-01  0.54201958981E-01  0.51100000000E-03 0.  1.
         11    1    4    4    0    0  0.58556143722E-01 -0.28393276036E-01 -0.25410009251E-01  0.69863651370E-01  0.51100000000E-03 0. -1.
</event>
<event>
 8    1  0.1076043E+005  0.1043930E+01  0.7957747E-01            NaN
         13   -1    0    0    0    0  0.00000000000E+00  0.00000000000E+00  0.74505805969E-08  0.10566000000E+00  0.10566000000E+00 0.  1.
     999900   -1    0    0    0    0 -0.00000000000E+00 -0.00000000000E+00 -0.74505805969E-08  0.93827000000E+00  0.93827000000E+00 0.  1.
     999902    2    1    2    0    0 -0.23144790919E-02 -0.17910764817E-01  0.12787655665E-01  0.10218013659E+01  0.10215617235E+01 0.  0.
     999903    2    3    3    0    0 -0.20634136956E-01  0.42614451723E-01  0.12232447187E+00  0.13275849527E+00  0.20488595487E-01 0.  0.
         14    1    1    2    0    0  0.23144790919E-02  0.17910764817E-01 -0.12787655665E-01  0.22128634102E-01  0.00000000000E+00 0. -1.
     999901    1    3    3    0    0  0.18319657864E-01 -0.60525216540E-01 -0.10953681621E+00  0.88904287062E+00  0.88000000000E+00 0.  1.
        -11    1    4    4    0    0 -0.25348083282E-02  0.27910949893E-01  0.73017860091E-01  0.78213268634E-01  0.51100000000E-03 0. -1.
         11    1    4    4    0    0 -0.18099328627E-01  0.14703501830E-01  0.49306611782E-01  0.54545226640E-01  0.51100000000E-03 0.  1.
</event>
<event>
 8    1  0.1076043E+005  0.1043930E+01  0.7957747E-01            NaN
         13   -1    0    0    0    0  0.00000000000E+00  0.00000000000E+00  0.74505805969E-08  0.10566000000E+00  0.10566000000E+00 0.  1.
     999900   -1    0    0    0    0 -0.00000000000E+00 -0.00000000000E+00 -0.74505805969E-08  0.93827000000E+00  0.93827000000E+00 0.  1.
     999902    2    1    2    0    0 -0.60539346598E-02  0.12851861172E-01  0.19611092629E-01  0.10197139843E+01  0.10194264046E+01 0.  0.
     999903    2    3    3    0    0 -0.40536034817E-01 -0.10350282700E+00  0.64941297052E-01  0.13022972021E+00  0.19657127141E-01 0.  0.
         14    1    1    2    0    0  0.60539346598E-02 -0.12851861172E-01 -0.19611092629E-01  0.24216015662E-01  0.00000000000E+00 0. -1.
     999901    1    3    3    0    0  0.34482100157E-01  0.11635468818E+00 -0.45330204423E-01  0.88948426412E+00  0.88000000000E+00 0.  1.
        -11    1    4    4    0    0 -0.27098008251E-01 -0.64110809834E-01  0.51159852174E-01  0.86383387200E-01  0.51100000000E-03 0.  1.
         11    1    4    4    0    0 -0.13438026566E-01 -0.39392017171E-01  0.13781444878E-01  0.43846333013E-01  0.51100000000E-03 0. -1.
</event>
<event>
 8    1  0.1076043E+005  0.1043930E+01  0.7957747E-01            NaN
         13   -1    0    0    0    0  0.00000000000E+00  0.00000000000E+00  0.74505805969E-08  0.10566000000E+00  0.10566000000E+00 0.  1.
     999900   -1    0    0    0    0 -0.00000000000E+00 -0.00000000000E+00 -0.74505805969E-08  0.93827000000E+00  0.93827000000E+00 0.  1.
     999902    2    1    2    0    0  0.26854603540E-03  0.50834506094E-02  0.23833609288E-01  0.10195588179E+01  0.10192674961E+01 0.  0.
     999903    2    3    3    0    0  0.40493742264E-01  0.31484644321E-02 -0.11892174589E+00  0.12714585179E+00  0.19339855005E-01 0.  0.
         14    1    1    2    0    0 -0.26854603540E-03 -0.50834506094E-02 -0.23833609288E-01  0.24371182137E-01  0.00000000000E+00 0. -1.
     999901    1    3    3    0    0 -0.40225196229E-01  0.19349861773E-02  0.14275535518E+00  0.89241296607E+00  0.88000000000E+00 0. -1.
        -11    1    4    4    0    0  0.22068273895E-01 -0.59610815486E-02 -0.45827437926E-01  0.51214825918E-01  0.51100000000E-03 0.  1.
         11    1    4    4    0    0  0.18425468369E-01  0.91095459807E-02 -0.73094307963E-01  0.75931025873E-01  0.51100000000E-03 0. -1.
</event>
<event>
 8    1  0.1076043E+005  0.1043930E+01  0.7957747E-01            NaN
         13   -1    0    0    0    0  0.00000000000E+00  0.00000000000E+00  0.74505805969E-08  0.10566000000E+00  0.10566000000E+00 0.  1.
     999900   -1    0    0    0    0 -0.00000000000E+00 -0.00000000000E+00 -0.74505805969E-08  0.93827000000E+00  0.93827000000E+00 0.  1.
     999902    2    1    2    0    0 -0.32835169190E-02 -0.13486725651E-01  0.14966110906E-01  0.10235178044E+01  0.10233142422E+01 0.  0.
     999903    2    3    3    0    0  0.33546750803E-01  0.92458800786E-01  0.88789380783E-01  0.13333198205E+00  0.14827304751E-01 0.  0.
         14    1    1    2    0    0  0.32835169190E-02  0.13486725651E-01 -0.14966110906E-01  0.20412195566E-01  0.00000000000E+00 0. -1.
     999901    1    3    3    0    0 -0.36830267722E-01 -0.10594552644E+00 -0.73823269877E-01  0.89018582238E+00  0.88000000000E+00 0.  1.
        -11    1    4    4    0    0  0.32006784921E-01  0.70874193245E-01  0.71251283059E-01  0.10547318146E+00  0.51100000000E-03 0. -1.
         11    1    4    4    0    0  0.15399658820E-02  0.21584607541E-01  0.17538097724E-01  0.27858800592E-01  0.51100000000E-03 0.  1.
</event>
<event>
 8    1  0.1076043E+005  0.1043930E+01  0.7957747E-01            NaN
         13   -1    0    0    0    0  0.00000000000E+00  0.00000000000E+00  0.74505805969E-08  0.10566000000E+00  0.10566000000E+00 0.  1.
     999900   -1    0    0    0    0 -0.00000000000E+00 -0.00000000000E+00 -0.74505805969E-08  0.93827000000E+00  0.93827000000E+00 0. -1.
     999902    2    1    2    0    0  0.20620388526E-01 -0.11799546907E-01 -0.96915434904E-03  0.10201525108E+01  0.10198753730E+01 0.  0.
     999903    2    3    3    0    0  0.10111954043E+00  0.47286598445E-01  0.67281810623E-01  0.13187919691E+00  0.20102156327E-01 0.  0.
         14    1    1    2    0    0 -0.20620388526E-01  0.11799546907E-01  0.96915434904E-03  0.23777489151E-01  0.00000000000E+00 0.  1.
     999901    1    3    3    0    0 -0.80499151901E-01 -0.59086145353E-01 -0.68250964972E-01  0.88827331394E+00  0.88000000000E+00 0.  1.
        -11    1    4    4    0    0  0.55929582188E-01  0.33694031782E-01  0.47310335505E-01  0.80634576380E-01  0.51100000000E-03 0. -1.
         11    1    4    4    0    0  0.45189958239E-01  0.13592566664E-01  0.19971475118E-01  0.51244620533E-01  0.51100000000E-03 0.  1.
</event>
<event>
 8    1  0.1076043E+005  0.1043930E+01  0.7957747E-01            NaN
         13   -1    0    0    0    0  0.00000000000E+00  0.00000000000E+00  0.74505805969E-08  0.10566000000E+00  0.10566000000E+00 0.  1.
     999900   -1    0    0    0    0 -0.00000000000E+00 -0.00000000000E+00 -0.74505805969E-08  0.93827000000E+00  0.93827000000E+00 0.  1.
     999902    2    1    2    0    0 -0.93800421677E-02 -0.22511111983E-01 -0.93225146783E-02  0.10178216750E+01  0.10174867653E+01 0.  0.
     999903    2    3    3    0    0 -0.37345008589E-01  0.11861733383E+00  0.41927174552E-02  0.12603586044E+00  0.20068325461E-01 0.  0.
         14    1    1    2    0    0  0.93800421677E-02  0.22511111983E-01  0.93225146783E-02  0.26108324989E-01  0.00000000000E+00 0.  1.
     999901    1    3    3    0    0  0.27964966421E-01 -0.14112844581E+00 -0.13515232134E-01  0.89178581457E+00  0.88000000000E+00 0.  1.
        -11    1    4    4    0    0 -0.29969656747E-01  0.84581419336E-01  0.11435423147E-01  0.90461189722E-01  0.51100000000E-03 0.  1.
         11    1    4    4    0    0 -0.73753518420E-02  0.34035914493E-01 -0.72427056918E-02  0.35574670721E-01  0.51100000000E-03 0. -1.
</event>
<event>
 8    1  0.1076043E+005  0.1043930E+01  0.7957747E-01            NaN
         13   -1    0    0    0    0  0.00000000000E+00  0.00000000000E+00  0.74505805969E-08  0.10566000000E+00  0.10566000000E+00 0. -1.
     999900   -1    0    0    0    0 -0.00000000000E+00 -0.00000000000E+00 -0.74505805969E-08  0.93827000000E+00  0.93827000000E+00 0.  1.
     999902    2    1    2    0    0  0.22432530994E-01 -0.59656193688E-03  0.78899278645E-02  0.10201429175E+01  0.10198655533E+01 0.  0.
     999903    2    3    3    0    0  0.41039853143E-01 -0.11802635490E+00  0.36588769938E-01  0.13168379504E+00  0.19682321844E-01 0.  0.
         14    1    1    2    0    0 -0.22432530994E-01  0.59656193688E-03 -0.78899278645E-02  0.23787082517E-01  0.00000000000E+00 0.  1.
     999901    1    3    3    0    0 -0.18607322149E-01  0.11742979297E+00 -0.28698842074E-01  0.88845912244E+00  0.88000000000E+00 0.  1.
        -11    1    4    4    0    0  0.16897973298E-01 -0.71172218667E-01  0.14730909186E-01  0.74620955622E-01  0.51100000000E-03 0. -1.
         11    1    4    4    0    0  0.24141879845E-01 -0.46854136236E-01  0.21857860752E-01  0.57062839419E-01  0.51100000000E-03 0.  1.
</event>
<event>
 7    1  0.1076043E+005  0.1043930E+01  0.7957747E-01            NaN
         13   -1    0    0    0    0  0.00000000000E+00  0.00000000000E+00  0.74505805969E-08  0.10566000000E+00  0.10566000000E+00 0. -1.
     999900   -1    0    0    0    0 -0.00000000000E+00 -0.00000000000E+00 -0.74505805969E-08  0.93827000000E+00  0.93827000000E+00 0. -1.
     999902    2    1    2    0    0  0.24752286703E-01  0.32608415117E-02  0.98495327175E-03  0.10189444258E+01  0.10186380437E+01 0.  0.
         14    1    1    2    0    0 -0.24752286703E-01 -0.32608415117E-02 -0.98495327175E-03  0.24985574184E-01  0.00000000000E+00 0.  1.
     999901    1    3    3    0    0  0.34335429220E-01  0.92104075758E-01 -0.79390962526E-01  0.88902475073E+00  0.88000000000E+00 0. -1.
        -11    1    3    3    0    0 -0.86312723833E-02 -0.18230606298E-01 -0.32787614088E-02  0.20441753014E-01  0.51100000000E-03 0.  1.
         11    1    3    3    0    0 -0.95187013426E-03 -0.70612627949E-01  0.83654677206E-01  0.10947792208E+00  0.51100000000E-03 0. -1.
</event>
<event>
 8    1  0.1490670E+005  0.1043930E+01  0.7957747E-01            NaN
         13   -1    0    0    0    0  0.00000000000E+00  0.00000000000E+00  0.74505805969E-08  0.10566000000E+00  0.10566000000E+00 0. -1.
     999900   -1    0    0    0    0 -0.00000000000E+00 -0.00000000000E+00 -0.74505805969E-08  0.93827000000E+00  0.93827000000E+00 0.  1.
     999902    2    1    2    0    0 -0.24176436835E-01 -0.47354112469E-02  0.10021319320E-01  0.10173339278E+01  0.10169862189E+01 0.  0.
     999903    2    3    3    0    0 -0.12881834159E+00  0.34320415294E-02  0.14093127589E-01  0.13108722670E+00  0.19475644305E-01 0.  0.
         14    1    1    2    0    0  0.24176436835E-01  0.47354112469E-02 -0.10021319320E-01  0.26596072240E-01  0.00000000000E+00 0.  1.
     999901    1    3    3    0    0  0.10464190475E+00 -0.81674527762E-02 -0.40718082697E-02  0.88624670106E+00  0.88000000000E+00 0.  1.
        -11    1    4    4    0    0 -0.76289210775E-01  0.11139897081E-01  0.11257461410E-01  0.77917472662E-01  0.51100000000E-03 0.  1.
         11    1    4    4    0    0 -0.52529130810E-01 -0.77078555520E-02  0.28356661795E-02  0.53169754039E-01  0.51100000000E-03 0. -1.
</event>
<event>
 8    1  0.1076043E+005  0.1043930E+01  0.7957747E-01            NaN
         13   -1    0    0    0    0  0.00000000000E+00  0.00000000000E+00  0.74505805969E-08  0.10566000000E+00  0.10566000000E+00 0. -1.
     999900   -1    0    0    0    0 -0.00000000000E+00 -0.00000000000E+00 -0.74505805969E-08  0.93827000000E+00  0.93827000000E+00 0. -1.
     999902    2    1    2    0    0 -0.18174635645E-01  0.45159714716E-02 -0.75148486559E-02  0.10237511911E+01  0.10235523030E+01 0.  0.
     999903    2    3    3    0    0 -0.60191798400E-01  0.60401953844E-02  0.11782862593E+00  0.13387549647E+00  0.19481450470E-01 0.  0.
         14    1    1    2    0    0  0.18174635645E-01 -0.45159714716E-02  0.75148486559E-02  0.20178808922E-01  0.00000000000E+00 0.  1.
     999901    1    3    3    0    0  0.42017162755E-01 -0.15242239128E-02 -0.12534347459E+00  0.88987569460E+00  0.88000000000E+00 0. -1.
        -11    1    4    4    0    0 -0.52143148606E-01  0.45687848736E-02  0.83256954742E-01  0.98345123802E-01  0.51100000000E-03 0. -1.
         11    1    4    4    0    0 -0.80486497949E-02  0.14714105108E-02  0.34571671189E-01  0.35530372672E-01  0.51100000000E-03 0.  1.
</event>
<event>
 8    1  0.1076043E+005  0.1043930E+01  0.7957747E-01            NaN
         13   -1    0    0    0    0  0.00000000000E+00  0.00000000000E+00  0.74505805969E-08  0.10566000000E+00  0.10566000000E+00 0. -1.
     999900   -1    0    0    0    0 -0.00000000000E+00 -0.00000000000E+00 -0.74505805969E-08  0.93827000000E+00  0.93827000000E+00 0.  1.
     999902    2    1    2    0    0 -0.23960581316E-01  0.18650773240E-02  0.61091032483E-02  0.10191326390E+01  0.10188309118E+01 0.  0.
     999903    2    3    3    0    0  0.24224939066E-01 -0.11132886199E+00  0.57318584874E-01  0.12910054784E+00  0.20014197354E-01 0.  0.
         14    1    1    2    0    0  0.23960581316E-01 -0.18650773240E-02 -0.61091032483E-02  0.24797361007E-01  0.00000000000E+00 0. -1.
     999901    1    3    3    0    0 -0.48185520382E-01  0.11319393932E+00 -0.51209481625E-01  0.89003209115E+00  0.88000000000E+00 0.  1.
        -11    1    4    4    0    0  0.21309589345E-01 -0.10640660286E+00  0.49192610711E-01  0.11914964456E+00  0.51100000000E-03 0. -1.
         11    1    4    4    0    0  0.29153497212E-02 -0.49222591354E-02  0.81259741622E-02  0.99509032795E-02  0.51100000000E-03 0.  1.
</event>
<event>
 8    1  0.1076043E+005  0.1043930E+01  0.7957747E-01            NaN
         13   -1    0    0    0    0  0.00000000000E+00  0.00000000000E+00  0.74505805969E-08  0.10566000000E+00  0.10566000000E+00 0.  1.
     999900   -1    0    0    0    0 -0.00000000000E+00 -0.00000000000E+00 -0.74505805969E-08  0.93827000000E+00  0.93827000000E+00 0. -1.
     999902    2    1    2    0    0 -0.21608240836E-01 -0.91439066928E-02  0.31079159052E-02  0.10202617461E+01  0.10199871785E+01 0.  0.
     999903    2    3    3    0    0 -0.13013289610E+00  0.16062894781E-01 -0.11318486616E-01  0.13311964658E+00  0.20003622917E-01 0.  0.
         14    1    1    2    0    0  0.21608240836E-01  0.91439066928E-02 -0.31079159052E-02  0.23668253905E-01  0.00000000000E+00 0.  1.
     999901    1    3    3    0    0  0.10852465527E+00 -0.25206801473E-01  0.14426402521E-01  0.88714209951E+00  0.88000000000E+00 0. -1.
        -11    1    4    4    0    0 -0.43665317195E-01  0.64450865860E-02 -0.13278237009E-01  0.46095246674E-01  0.51100000000E-03 0.  1.
         11    1    4    4    0    0 -0.86467578907E-01  0.96178081945E-02  0.19597503935E-02  0.87024399907E-01  0.51100000000E-03 0. -1.
</event>
<event>
 8    1  0.1076043E+005  0.1043930E+01  0.7957747E-01            NaN
         13   -1    0    0    0    0  0.00000000000E+00  0.00000000000E+00  0.74505805969E-08  0.10566000000E+00  0.10566000000E+00 0.  1.
     999900   -1    0    0    0    0 -0.00000000000E+00 -0.00000000000E+00 -0.74505805969E-08  0.93827000000E+00  0.93827000000E+00 0.  1.
     999902    2    1    2    0    0  0.19623119549E-01  0.12461858112E-01 -0.50931264158E-02  0.10201328433E+01  0.10198552414E+01 0.  0.
     999903    2    3    3    0    0  0.69229360720E-01 -0.73437044617E-01  0.80033367829E-01  0.13047789861E+00  0.20819177519E-01 0.  0.
         14    1    1    2    0    0 -0.19623119549E-01 -0.12461858112E-01  0.50931264158E-02  0.23797156661E-01  0.00000000000E+00 0.  1.
     999901    1    3    3    0    0 -0.49606241171E-01  0.85898902729E-01 -0.85126494245E-01  0.88965494473E+00  0.88000000000E+00 0. -1.
        -11    1    4    4    0    0  0.16166066416E-01 -0.14158214020E-01  0.73566318291E-02  0.22719548421E-01  0.51100000000E-03 0.  1.
         11    1    4    4    0    0  0.53063294304E-01 -0.59278830597E-01  0.72676736000E-01  0.10775835019E+00  0.51100000000E-03 0. -1.
</event>
<event>
 8    1  0.1076043E+005  0.1043930E+01  0.7957747E-01            NaN
         13   -1    0    0    0    0  0.00000000000E+00  0.00000000000E+00  0.74505805969E-08  0.10566000000E+00  0.10566000000E+00 0.  1.
     999900   -1    0    0    0    0 -0.00000000000E+00 -0.00000000000E+00 -0.74505805969E-08  0.93827000000E+00  0.93827000000E+00 0. -1.
     999902    2    1    2    0    0 -0.21990049698E-02  0.19814257867E-02 -0.22695273373E-01  0.10210425121E+01  0.10207859591E+01 0.  0.
     999903    2    3    3    0    0 -0.40188644890E-01 -0.55733204945E-01  0.10718143003E+00  0.12883057006E+00  0.19701256991E-01 0.  0.
         14    1    1    2    0    0  0.21990049698E-02 -0.19814257867E-02  0.22695273373E-01  0.22887487946E-01  0.00000000000E+00 0.  1.
     999901    1    3    3    0    0  0.37989639920E-01  0.57714630732E-01 -0.12987670341E+00  0.89221194199E+00  0.88000000000E+00 0. -1.
        -11    1    4    4    0    0 -0.18954549319E-01 -0.35604378851E-01  0.76171006679E-01  0.86192981807E-01  0.51100000000E-03 0.  1.
         11    1    4    4    0    0 -0.21234095570E-01 -0.20128826094E-01  0.31010423356E-01  0.42637588256E-01  0.51100000000E-03 0. -1.
</event>
<event>
 8    1  0.1076043E+005  0.1043930E+01  0.7957747E-01            NaN
         13   -1    0    0    0    0  0.00000000000E+00  0.00000000000E+00  0.74505805969E-08  0.10566000000E+00  0.10566000000E+00 0. -1.
     999900   -1    0    0    0    0 -0.00000000000E+00 -0.00000000000E+00 -0.74505805969E-08  0.93827000000E+00  0.93827000000E+00 0. -1.
     999902    2    1    2    0    0 -0.20743905510E-01 -0.73458979309E-02  0.38446322626E-02  0.10215905052E+01  0.10213462230E+01 0.  0.
     999903    2    3    3    0    0  0.63912801442E-01  0.54649353996E-01 -0.96927566673E-01  0.12964588504E+00  0.18485244008E-01 0.  0.
         14    1    1    2    0    0  0.20743905510E-01  0.73458979309E-02 -0.38446322626E-02  0.22339494834E-01  0.00000000000E+00 0.  1.
     999901    1    3    3    0    0 -0.84656706952E-01 -0.61995251927E-01  0.10077219894E+00  0.89194462013E+00  0.88000000000E+00 0.  1.
        -11    1    4    4    0    0  0.36810783233E-01  0.37664252919E-01 -0.71380725101E-01  0.88707940722E-01  0.51100000000E-03 0. -1.
         11    1    4    4    0    0  0.27102018209E-01  0.16985101077E-01 -0.25546841572E-01  0.40937944317E-01  0.51100000000E-03 0.  1.
</event>
<event>
 8    1  0.1076043E+005  0.1043930E+01  0.7957747E-01            NaN
         13   -1    0    0    0    0  0.00000000000E+00  0.00000000000E+00  0.74505805969E-08  0.10566000000E+00  0.10566000000E+00 0. -1.
     999900   -1    0    0    0    0 -0.00000000000E+00 -0.00000000000E+00 -0.74505805969E-08  0.93827000000E+00  0.93827000000E+00 0. -1.
     999902    2    1    2    0    0  0.20326742782E-01 -0.51005890442E-02 -0.11946691147E-01  0.10198070667E+01  0.10195217199E+01 0.  0.
     999903    2    3    3    0    0  0.84982501385E-01  0.21668128613E-01 -0.97680023204E-01  0.13287576409E+00  0.20568140630E-01 0.  0.
         14    1    1    2    0    0 -0.20326742782E-01  0.51005890442E-02  0.11946691147E-01  0.24122933281E-01  0.00000000000E+00 0.  1.
     999901    1    3    3    0    0 -0.64655758603E-01 -0.26768717657E-01  0.85733332058E-01  0.88693130263E+00  0.88000000000E+00 0. -1.
        -11    1    4    4    0    0  0.20770507472E-01 -0.26661178805E-03 -0.13618262902E-01  0.24843575989E-01  0.51100000000E-03 0. -1.
         11    1    4    4    0    0  0.64211993913E-01  0.21934740401E-01 -0.84061760302E-01  0.10803218810E+00  0.51100000000E-03 0.  1.
</event>
<event>
 8    1  0.1076043E+005  0.1043930E+01  0.7957747E-01            NaN
         13   -1    0    0    0    0  0.00000000000E+00  0.00000000000E+00  0.74505805969E-08  0.10566000000E+00  0.10566000000E+00 0.  1.
     999900   -1    0    0    0    0 -0.00000000000E+00 -0.00000000000E+00 -0.74505805969E-08  0.93827000000E+00  0.93827000000E+00 0.  1.
     999902    2    1    2    0    0  0.11216222875E-01  0.11839712874E-01  0.20410407444E-01  0.10178040132E+01  0.10174686442E+01 0.  0.
     999903    2    3    3    0    0 -0.11815574206E+00  0.43463794270E-01  0.94784970748E-02  0.12771598689E+00  0.19278241777E-01 0.  0.
         14    1    1    2    0    0 -0.11216222875E-01 -0.11839712874E-01 -0.20410407444E-01  0.26125986844E-01  0.00000000000E+00 0. -1.
     999901    1    3    3    0    0  0.12937196494E+00 -0.31624081396E-01  0.10931910370E-01  0.89008802627E+00  0.88000000000E+00 0.  1.
        -11    1    4    4    0    0 -0.42357756616E-01  0.11276015536E-01  0.11575517646E-01  0.45338524477E-01  0.51100000000E-03 0. -1.
         11    1    4    4    0    0 -0.75797985446E-01  0.32187778734E-01 -0.20970205712E-02  0.82377462414E-01  0.51100000000E-03 0.  1.
</event>
<event>
 8    1  0.1076043E+005  0.1043930E+01  0.7957747E-01            NaN
         13   -1    0    0    0    0  0.00000000000E+00  0.00000000000E+00  0.74505805969E-08  0.10566000000E+00  0.10566000000E+00 0. -1.
     999900   -1    0    0    0    0 -0.00000000000E+00 -0.00000000000E+00 -0.74505805969E-08  0.93827000000E+00  0.93827000000E+00 0.  1.
     999902    2    1    2    0    0  0.69306712366E-02  0.76772809068E-02  0.20754737531E-01  0.10207409083E+01  0.10204774705E+01 0.  0.
     999903    2    3    3    0    0  0.79731645930E-01  0.84405534307E-01  0.62617978614E-01  0.13341924294E+00  0.19956291154E-01 0.  0.
         14    1    1    2    0    0 -0.69306712366E-02 -0.76772809068E-02 -0.20754737531E-01  0.23189091743E-01  0.00000000000E+00 0.  1.
     999901    1    3    3    0    0 -0.72800974693E-01 -0.76728253400E-01 -0.41863241083E-01  0.88732166532E+00  0.88000000000E+00 0. -1.
        -11    1    4    4    0    0  0.53865679127E-01  0.48514941795E-01  0.30021933018E-01  0.78465205973E-01  0.51100000000E-03 0. -1.
         11    1    4    4    0    0  0.25865966802E-01  0.35890592512E-01  0.32596045596E-01  0.54954036967E-01  0.51100000000E-03 0.  1.
</event>
<event>
 8    1  0.1076043E+005  0.1043930E+01  0.7957747E-01            NaN
         13   -1    0    0    0    0  0.00000000000E+00  0.00000000000E+00  0.74505805969E-08  0.10566000000E+00  0.10566000000E+00 0. -1.
     999900   -1    0    0    0    0 -0.00000000000E+00 -0.00000000000E+00 -0.74505805969E-08  0.93827000000E+00  0.93827000000E+00 0. -1.
     999902    2    1    2    0    0 -0.17172781223E-01  0.33952089906E-02  0.18105610742E-01  0.10187457788E+01  0.10184344440E+01 0.  0.
     999903    2    3    3    0    0 -0.95424576609E-01 -0.46235231907E-01 -0.71493572003E-01  0.12935579811E+00  0.19443383845E-01 0.  0.
         14    1    1    2    0    0  0.17172781223E-01 -0.33952089906E-02 -0.18105610742E-01  0.25184221237E-01  0.00000000000E+00 0.  1.
     999901    1    3    3    0    0  0.78251795386E-01  0.49630440898E-01  0.89599182744E-01  0.88938998066E+00  0.88000000000E+00 0. -1.
        -11    1    4    4    0    0 -0.34513316101E-01 -0.68753470504E-02 -0.25786570933E-01  0.43630811897E-01  0.51100000000E-03 0.  1.
         11    1    4    4    0    0 -0.60911260508E-01 -0.39359884857E-01 -0.45707001069E-01  0.85724986208E-01  0.51100000000E-03 0. -1.
</event>
<event>
 8    1  0.1076043E+005  0.1043930E+01  0.7957747E-01            NaN
         13   -1    0    0    0    0  0.00000000000E+00  0.00000000000E+00  0.74505805969E-08  0.10566000000E+00  0.10566000000E+00 0.  1.
     999900   -1    0    0    0    0 -0.00000000000E+00 -0.00000000000E+00 -0.74505805969E-08  0.93827000000E+00  0.93827000000E+00 0. -1.
     999902    2    1    2    0    0 -0.15193100598E-01 -0.99087341782E-02  0.14689528192E-01  0.10205891440E+01  0.10203222066E+01 0.  0.
     999903    2    3    3    0    0  0.12295485173E-02 -0.11157072146E+00 -0.65594716203E-01  0.13095414980E+00  0.19919459847E-01 0.  0.
         14    1    1    2    0    0  0.15193100598E-01  0.99087341782E-02 -0.14689528192E-01  0.23340855967E-01  0.00000000000E+00 0. -1.
     999901    1    3    3    0    0 -0.16422649115E-01  0.10166198728E+00  0.80284244395E-01  0.88963499423E+00  0.88000000000E+00 0.  1.
        -11    1    4    4    0    0  0.73636767315E-02 -0.40082247864E-01 -0.16274850394E-01  0.43885558048E-01  0.51100000000E-03 0. -1.
         11    1    4    4    0    0 -0.61341282142E-02 -0.71488473593E-01 -0.49319865809E-01  0.87068591754E-01  0.51100000000E-03 0.  1.
</event>
<event>
 8    1  0.1076043E+005  0.1043930E+01  0.7957747E-01            NaN
         13   -1    0    0    0    0  0.00000000000E+00  0.00000000000E+00  0.74505805969E-08  0.10566000000E+00  0.10566000000E+00 0.  1.
     999900   -1    0    0    0    0 -0.00000000000E+00 -0.00000000000E+00 -0.74505805969E-08  0.93827000000E+00  0.93827000000E+00 0.  1.
     999902    2    1    2    0    0  0.18528541114E-01  0.26429002110E-02  0.13236782740E-01  0.10210061222E+01  0.10207487435E+01 0.  0.
     999903    2    3    3    0    0  0.29852311956E-01 -0.12277858273E+00 -0.28064397759E-01  0.13108221325E+00  0.20717029239E-01 0.  0.
         14    1    1    2    0    0 -0.18528541114E-01 -0.26429002110E-02 -0.13236782740E-01  0.22923877827E-01  0.00000000000E+00 0. -1.
     999901    1    3    3    0    0 -0.11323770842E-01  0.12542148294E+00  0.41301180499E-01  0.88992390893E+00  0.88000000000E+00 0. -1.
        -11    1    4    4    0    0  0.65670113133E-02 -0.70490994059E-01 -0.14984751752E-01  0.72366496303E-01  0.51100000000E-03 0.  1.
         11    1    4    4    0    0  0.23285300643E-01 -0.52287588674E-01 -0.13079646007E-01  0.58715716942E-01  0.51100000000E-03 0. -1.
</event>
<event>
 8    1  0.1076043E+005  0.1043930E+01  0.7957747E-01            NaN
         13   -1    0    0    0    0  0.00000000000E+00  0.00000000000E+00  0.74505805969E-08  0.10566000000E+00  0.10566000000E+00 0.  1.
     999900   -1    0    0    0    0 -0.00000000000E+00 -0.00000000000E+00 -0.74505805969E-08  0.93827000000E+00  0.93827000000E+00 0.  1.
     999902    2    1    2    0    0  0.14344348193E-01 -0.18245671762E-01  0.28288314007E-02  0.10205490858E+01  0.10202812207E+01 0.  0.
     999903    2    3    3    0    0 -0.87143201306E-01 -0.77940207386E-01 -0.55084599921E-01  0.13082040476E+00  0.20274409774E-01 0.  0.
         14    1    1    2    0    0 -0.14344348193E-01  0.18245671762E-01 -0.28288314007E-02  0.23380914230E-01  0.00000000000E+00 0.  1.
     999901    1    3    3    0    0  0.10148754950E+00  0.59694535624E-01  0.57913431322E-01  0.88972868101E+00  0.88000000000E+00 0. -1.
        -11    1    4    4    0    0 -0.16617381829E-01 -0.10789088472E-01 -0.20296361200E-02  0.19922910246E-01  0.51100000000E-03 0.  1.
         11    1    4    4    0    0 -0.70525819477E-01 -0.67151118913E-01 -0.53054963801E-01  0.11089749451E+00  0.51100000000E-03 0. -1.
</event>
<event>
 8    1  0.1076043E+005  0.1043930E+01  0.7957747E-01            NaN
         13   -1    0    0    0    0  0.00000000000E+00  0.00000000000E+00  0.74505805969E-08  0.10566000000E+00  0.10566000000E+00 0. -1.
     999900   -1    0    0    0    0 -0.00000000000E+00 -0.00000000000E+00 -0.74505805969E-08  0.93827000000E+00  0.93827000000E+00 0. -1.
     999902    2    1    2    0    0  0.34931664552E-02  0.11179836291E-01  0.20772416624E-01  0.10200828986E+01  0.10198041164E+01 0.  0.
     999903    2    3    3    0    0 -0.48387632191E-01 -0.11510267219E+00 -0.22277093522E-01  0.12851565521E+00  0.20736842638E-01 0.  0.
         14    1    1    2    0    0 -0.34931664552E-02 -0.11179836291E-01 -0.20772416624E-01  0.23847101371E-01  0.00000000000E+00 0.  1.
     999901    1    3    3    0    0  0.51880798647E-01  0.12628250848E+00  0.43049510146E-01  0.89156724342E+00  0.88000000000E+00 0. -1.
        -11    1    4    4    0    0 -0.11786025027E-01 -0.25482582640E-01 -0.13937861525E-01  0.31349601414E-01  0.51100000000E-03 0.  1.
         11    1    4    4    0    0 -0.36601607164E-01 -0.89620089554E-01 -0.83392319977E-02  0.97166053795E-01  0.51100000000E-03 0. -1.
</event>
<event>
 8    1  0.1076043E+005  0.1043930E+01  0.7957747E-01            NaN
         13   -1    0    0    0    0  0.00000000000E+00  0.00000000000E+00  0.74505805969E-08  0.10566000000E+00  0.10566000000E+00 0. -1.
     999900   -1    0    0    0    0 -0.00000000000E+00 -0.00000000000E+00 -0.74505805969E-08  0.93827000000E+00  0.93827000000E+00 0. -1.
     999902    2    1    2    0    0 -0.60241043940E-02 -0.61418556843E-04  0.22926866797E-01  0.10202248354E+01  0.10199494007E+01 0.  0.
     999903    2    3    3    0    0  0.57124549072E-01  0.11184834000E+00  0.30728403585E-01  0.13085853830E+00  0.20160778576E-01 0.  0.
         14    1    1    2    0    0  0.60241043940E-02  0.61418556843E-04 -0.22926866797E-01  0.23705164567E-01  0.00000000000E+00 0.  1.
     999901    1    3    3    0    0 -0.63148653466E-01 -0.11190975856E+00 -0.78015367872E-02  0.88936629713E+00  0.88000000000E+00 0.  1.
        -11    1    4    4    0    0  0.17739847985E-01  0.17919806661E-01  0.37924219224E-02  0.25504220481E-01  0.51100000000E-03 0.  1.
         11    1    4    4    0    0  0.39384701088E-01  0.93928533338E-01  0.26935981662E-01  0.10535431782E+00  0.51100000000E-03 0. -1.
</event>
<event>
 8    1  0.1076043E+005  0.1043930E+01  0.7957747E-01            NaN
         13   -1    0    0    0    0  0.00000000000E+00  0.00000000000E+00  0.74505805969E-08  0.10566000000E+00  0.10566000000E+00 0. -1.
     999900   -1    0    0    0    0 -0.00000000000E+00 -0.00000000000E+00 -0.74505805969E-08  0.93827000000E+00  0.93827000000E+00 0. -1.
     999902    2    1    2    0    0 -0.22698893005E-01 -0.58366708732E-02  0.59512313717E-02  0.10197489408E+01  0.10194622007E+01 0.  0.
     999903    2    3    3    0    0 -0.95706112680E-01  0.70997543136E-01  0.53194811205E-01  0.13213105767E+00  0.20703075283E-01 0.  0.
         14    1    1    2    0    0  0.22698893005E-01  0.58366708732E-02 -0.59512313717E-02  0.24181059228E-01  0.00000000000E+00 0. -1.
     999901    1    3    3    0    0  0.73007219675E-01 -0.76834214009E-01 -0.47243579834E-01  0.88761788310E+00  0.88000000000E+00 0. -1.
        -11    1    4    4    0    0 -0.19267210171E-01  0.25592025628E-01  0.13685535938E-01  0.34838659251E-01  0.51100000000E-03 0.  1.
         11    1    4    4    0    0 -0.76438902509E-01  0.45405517508E-01  0.39509275267E-01  0.97292398419E-01  0.51100000000E-03 0. -1.
</event>
<event>
 8    1  0.1076043E+005  0.1043930E+01  0.7957747E-01            NaN
         13   -1    0    0    0    0  0.00000000000E+00  0.00000000000E+00  0.74505805969E-08  0.10566000000E+00  0.10566000000E+00 0. -1.
     999900   -1    0    0    0    0 -0.00000000000E+00 -0.00000000000E+00 -0.74505805969E-08  0.93827000000E+00  0.93827000000E+00 0.  1.
     999902    2    1    2    0    0 -0.19769980676E-01 -0.77696816570E-02  0.98833963479E-02  0.10205013506E+01  0.10202323779E+01 0.  0.
     999903    2    3    3    0    0 -0.12557047315E+00  0.28089852028E-01 -0.25319066015E-01  0.13274076142E+00  0.20544369638E-01 0.  0.
         14    1    1    2    0    0  0.19769980676E-01  0.77696816570E-02 -0.98833963479E-02  0.23428649392E-01  0.00000000000E+00 0.  1.
     999901    1    3    3    0    0  0.10580049247E+00 -0.35859533685E-01  0.35202462363E-01  0.88776058919E+00  0.88000000000E+00 0.  1.
        -11    1    4    4    0    0 -0.10279958337E-01  0.64953087827E-02  0.19242910371E-02  0.12321955875E-01  0.51100000000E-03 0.  1.
         11    1    4    4    0    0 -0.11529051481E+00  0.21594543246E-01 -0.27243357052E-01  0.12041880554E+00  0.51100000000E-03 0. -1.
</event>
<event>
 8    1  0.1076043E+005  0.1043930E+01  0.7957747E-01            NaN
         13   -1    0    0    0    0  0.00000000000E+00  0.00000000000E+00  0.74505805969E-08  0.10566000000E+00  0.10566000000E+00 0. -1.
     999900   -1    0    0    0    0 -0.00000000000E+00 -0.00000000000E+00 -0.74505805969E-08  0.93827000000E+00  0.93827000000E+00 0.  1.
     999902    2    1    2    0    0 -0.79359076631E-02  0.11798199119E-01 -0.17769655284E-01  0.10211717755E+01  0.10209181448E+01 0.  0.
     999903    2    3    3    0    0 -0.59442978018E-01 -0.97938157152E-01 -0.61987859642E-01  0.13176169249E+00  0.19831757445E-01 0.  0.
         14    1    1    2    0    0  0.79359076631E-02 -0.11798199119E-01  0.17769655284E-01  0.22758224487E-01  0.00000000000E+00 0. -1.
     999901    1    3    3    0    0  0.51507070355E-01  0.10973635627E+00  0.44218204358E-01  0.88941008302E+00  0.88000000000E+00 0.  1.
        -11    1    4    4    0    0 -0.22126238012E-01 -0.20043530781E-01 -0.14480880855E-01  0.33185396879E-01  0.51100000000E-03 0.  1.
         11    1    4    4    0    0 -0.37316740006E-01 -0.77894626371E-01 -0.47506978787E-01  0.98576295612E-01  0.51100000000E-03 0. -1.
</event>
<event>
 8    1  0.1076043E+005  0.1043930E+01  0.7957747E-01            NaN
         13   -1    0    0    0    0  0.00000000000E+00  0.00000000000E+00  0.74505805969E-08  0.10566000000E+00  0.10566000000E+00 0.  1.
     999900   -1    0    0    0    0 -0.00000000000E+00 -0.00000000000E+00 -0.74505805969E-08  0.93827000000E+00  0.93827000000E+00 0. -1.
     999902    2    1    2    0    0 -0.11995039602E-01  0.17759864684E-01 -0.12048241003E-01  0.10193443562E+01  0.10190478216E+01 0.  0.
     999903    2    3    3    0    0 -0.18807525720E-02  0.11317859398E-01  0.12630254857E+00  0.12845449815E+00  0.20410613624E-01 0.  0.
         14    1    1    2    0    0  0.11995039602E-01 -0.17759864684E-01  0.12048241003E-01  0.24585643777E-01  0.00000000000E+00 0.  1.
     999901    1    3    3    0    0 -0.10114287030E-01  0.64420052859E-02 -0.13835078958E+00  0.89088985807E+00  0.88000000000E+00 0. -1.
        -11    1    4    4    0    0  0.55333638383E-02  0.14001075824E-01  0.94021294113E-01  0.95220339777E-01  0.51100000000E-03 0.  1.
         11    1    4    4    0    0 -0.74141164103E-02 -0.26832164265E-02  0.32281254460E-01  0.33234158377E-01  0.51100000000E-03 0. -1.
</event>
<event>
 8    1  0.1076043E+005  0.1043930E+01  0.7957747E-01            NaN
         13   -1    0    0    0    0  0.00000000000E+00  0.00000000000E+00  0.74505805969E-08  0.10566000000E+00  0.10566000000E+00 0.  1.
     999900   -1    0    0    0    0 -0.00000000000E+00 -0.00000000000E+00 -0.74505805969E-08  0.93827000000E+00  0.93827000000E+00 0. -1.
     999902    2    1    2    0    0 -0.19185911956E-01  0.58469517801E-02 -0.14009339718E-01  0.10194647663E+01  0.10191711642E+01 0.  0.
     999903    2    3    3    0    0  0.11246489415E+00 -0.55138860901E-01 -0.13009597169E-01  0.12758349413E+00  0.20485408387E-01 0.  0.
         14    1    1    2    0    0  0.19185911956E-01 -0.58469517801E-02  0.14009339718E-01  0.24465233741E-01  0.00000000000E+00 0. -1.
     999901    1    3    3    0    0 -0.13165080611E+00  0.60985812681E-01 -0.99974254881E-03  0.89188127213E+00  0.88000000000E+00 0.  1.
        -11    1    4    4    0    0  0.43169001180E-01 -0.10416766832E-01 -0.59161139592E-02  0.44803272420E-01  0.51100000000E-03 0. -1.
         11    1    4    4    0    0  0.69295892971E-01 -0.44722094069E-01 -0.70934832098E-02  0.82780221706E-01  0.51100000000E-03 0.  1.
</event>
<event>
 8    1  0.1076043E+005  0.1043930E+01  0.7957747E-01            NaN
         13   -1    0    0    0    0  0.00000000000E+00  0.00000000000E+00  0.74505805969E-08  0.10566000000E+00  0.10566000000E+00 0. -1.
     999900   -1    0    0    0    0 -0.00000000000E+00 -0.00000000000E+00 -0.74505805969E-08  0.93827000000E+00  0.93827000000E+00 0. -1.
     999902    2    1    2    0    0  0.56487065011E-02 -0.21537208568E-01 -0.58492422733E-02  0.10209088603E+01  0.10206492679E+01 0.  0.
     999903    2    3    3    0    0  0.11099760845E+00  0.43579771185E-01  0.48636200166E-01  0.13056775958E+00  0.21512655240E-01 0.  0.
         14    1    1    2    0    0 -0.56487065011E-02  0.21537208568E-01  0.58492422733E-02  0.23021139703E-01  0.00000000000E+00 0. -1.
     999901    1    3    3    0    0 -0.10534890195E+00 -0.65116979753E-01 -0.54485442439E-01  0.89034110072E+00  0.88000000000E+00 0. -1.
        -11    1    4    4    0    0  0.18914251787E-01  0.43197264317E-02  0.31466793625E-03  0.19410540796E-01  0.51100000000E-03 0. -1.
         11    1    4    4    0    0  0.92083356666E-01  0.39260044753E-01  0.48321532230E-01  0.11115721878E+00  0.51100000000E-03 0.  1.
</event>
<event>
 8    1  0.1076043E+005  0.1043930E+01  0.7957747E-01            NaN
         13   -1    0    0    0    0  0.00000000000E+00  0.00000000000E+00  0.74505805969E-08  0.10566000000E+00  0.10566000000E+00 0.  1.
     999900   -1    0    0    0    0 -0.00000000000E+00 -0.00000000000E+00 -0.74505805969E-08  0.93827000000E+00  0.93827000000E+00 0. -1.
     999902    2    1    2    0    0  0.15682832211E-01 -0.11650499136E-01  0.18117902646E-01  0.10172852303E+01  0.10169362301E+01 0.  0.
     999903    2    3    3    0    0 -0.11350616215E+00  0.38316102771E-01  0.34309657329E-01  0.12630339519E+00  0.20582091089E-01 0.  0.
         14    1    1    2    0    0 -0.15682832211E-01  0.11650499136E-01 -0.18117902646E-01  0.26644769704E-01  0.00000000000E+00 0.  1.
     999901    1    3    3    0    0  0.12918899436E+00 -0.49966601907E-01 -0.16191754683E-01  0.89098183511E+00  0.88000000000E+00 0.  1.
        -11    1    4    4    0    0 -0.56671422770E-01  0.29553814073E-01  0.15154357946E-01  0.65688612185E-01  0.51100000000E-03 0. -1.
         11    1    4    4    0    0 -0.56834739377E-01  0.87622886977E-02  0.19155299383E-01  0.60614783005E-01  0.51100000000E-03 0.  1.
</event>
<event>
 8    1  0.1295014E+005  0.1043930E+01  0.7957747E-01            NaN
         13   -1    0    0    0    0  0.00000000000E+00  0.00000000000E+00  0.74505805969E-08  0.10566000000E+00  0.10566000000E+00 0. -1.
     999900   -1    0    0    0    0 -0.00000000000E+00 -0.00000000000E+00 -0.74505805969E-08  0.93827000000E+00  0.93827000000E+00 0. -1.
     999902    2    1    2    0    0  0.33557447031E-02 -0.22949695023E-01 -0.61245293083E-02  0.10199412655E+01  0.10196591223E+01 0.  0.
     999903    2    3    3    0    0  0.11918402266E+00 -0.46601776116E-01 -0.24156628116E-01  0.13185299989E+00  0.20618295352E-01 0.  0.
         14    1    1    2    0    0 -0.33557447031E-02  0.22949695023E-01  0.61245293083E-02  0.23988734511E-01  0.00000000000E+00 0. -1.
     999901    1    3    3    0    0 -0.11582827795E+00  0.23652081093E-01  0.18032098808E-01  0.88808826560E+00  0.88000000000E+00 0. -1.
        -11    1    4    4    0    0  0.52531292814E-01 -0.26671050386E-01 -0.24215999567E-02  0.58966150635E-01  0.51100000000E-03 0. -1.
         11    1    4    4    0    0  0.66652729843E-01 -0.19930725730E-01 -0.21735028159E-01  0.72886849251E-01  0.51100000000E-03 0.  1.
</event>
<event>
 8    1  0.1076043E+005  0.1043930E+01  0.7957747E-01            NaN
         13   -1    0    0    0    0  0.00000000000E+00  0.00000000000E+00  0.74505805969E-08  0.10566000000E+00  0.10566000000E+00 0. -1.
     999900   -1    0    0    0    0 -0.00000000000E+00 -0.00000000000E+00 -0.74505805969E-08  0.93827000000E+00  0.93827000000E+00 0. -1.
     999902    2    1    2    0    0  0.17771357171E-01  0.14902794770E-01  0.49469619935E-02  0.10202153029E+01  0.10199396440E+01 0.  0.
     999903    2    3    3    0    0  0.12557789962E+00  0.33820677701E-01 -0.20075957287E-01  0.13308155681E+00  0.19849674775E-01 0.  0.
         14    1    1    2    0    0 -0.17771357171E-01 -0.14902794770E-01 -0.49469619935E-02  0.23714697143E-01  0.00000000000E+00 0.  1.
     999901    1    3    3    0    0 -0.10780654245E+00 -0.18917882932E-01  0.25022919280E-01  0.88713374605E+00  0.88000000000E+00 0. -1.
        -11    1    4    4    0    0  0.49612568839E-01  0.22629478349E-01 -0.43883053465E-02  0.54708487659E-01  0.51100000000E-03 0. -1.
         11    1    4    4    0    0  0.75965330780E-01  0.11191199353E-01 -0.15687651940E-01  0.78373069149E-01  0.51100000000E-03 0.  1.
</event>
<event>
 8    1  0.1076043E+005  0.1043930E+01  0.7957747E-01            NaN
         13   -1    0    0    0    0  0.00000000000E+00  0.00000000000E+00  0.74505805969E-08  0.10566000000E+00  0.10566000000E+00 0. -1.
     999900   -1    0    0    0    0 -0.00000000000E+00 -0.00000000000E+00 -0.74505805969E-08  0.93827000000E+00  0.93827000000E+00 0.  1.
     999902    2    1    2    0    0  0.43078561285E-02 -0.19887167349E-01 -0.85385525031E-02  0.10218627408E+01  0.10216244403E+01 0.  0.
     999903    2    3    3    0    0 -0.10213030662E+00  0.30204177058E-01 -0.74829702468E-01  0.13156349794E+00  0.19146220991E-01 0.  0.
         14    1    1    2    0    0 -0.43078561285E-02  0.19887167349E-01  0.85385525031E-02  0.22067259197E-01  0.00000000000E+00 0.  1.
     999901    1    3    3    0    0  0.10643816275E+00 -0.50091344408E-01  0.66291149965E-01  0.89029924286E+00  0.88000000000E+00 0. -1.
        -11    1    4    4    0    0 -0.73446125961E-01  0.28415615058E-01 -0.47907113230E-01  0.92179895947E-01  0.51100000000E-03 0. -1.
         11    1    4    4    0    0 -0.28684180656E-01  0.17885620004E-02 -0.26922589238E-01  0.39383601997E-01  0.51100000000E-03 0.  1.
</event>
<event>
 8    1  0.1076043E+005  0.1043930E+01  0.7957747E-01            NaN
         13   -1    0    0    0    0  0.00000000000E+00  0.00000000000E+00  0.74505805969E-08  0.10566000000E+00  0.10566000000E+00 0. -1.
     999900   -1    0    0    0    0 -0.00000000000E+00 -0.00000000000E+00 -0.74505805969E-08  0.93827000000E+00  0.93827000000E+00 0.  1.
     999902    2    1    2    0    0 -0.68408530369E-03  0.12288155791E-01  0.19469867440E-01  0.10208964922E+01  0.10206366176E+01 0.  0.
     999903    2    3    3    0    0  0.14979594300E-01  0.11164985183E+00 -0.64391461183E-01  0.13120507378E+00  0.19453366135E-01 0.  0.
         14    1    1    2    0    0  0.68408530369E-03 -0.12288155791E-01 -0.19469867440E-01  0.23033507843E-01  0.00000000000E+00 0.  1.
     999901    1    3    3    0    0 -0.15663679603E-01 -0.99361696034E-01  0.83861328623E-01  0.88969141838E+00  0.88000000000E+00 0.  1.
        -11    1    4    4    0    0 -0.39555469836E-02  0.30313732892E-01 -0.21002667463E-01  0.37093691045E-01  0.51100000000E-03 0. -1.
         11    1    4    4    0    0  0.18935141283E-01  0.81336118933E-01 -0.43388793720E-01  0.94111382733E-01  0.51100000000E-03 0.  1.
</event>
<event>
 8    1  0.1076043E+005  0.1043930E+01  0.7957747E-01            NaN
         13   -1    0    0    0    0  0.00000000000E+00  0.00000000000E+00  0.74505805969E-08  0.10566000000E+00  0.10566000000E+00 0.  1.
     999900   -1    0    0    0    0 -0.00000000000E+00 -0.00000000000E+00 -0.74505805969E-08  0.93827000000E+00  0.93827000000E+00 0.  1.
     999902    2    1    2    0    0 -0.22803853376E-01 -0.44640279686E-02 -0.22431966011E-02  0.10205852960E+01  0.10203182696E+01 0.  0.
     999903    2    3    3    0    0  0.59147229899E-01  0.72984326508E-01  0.86084509931E-01  0.12900467069E+00  0.20163221208E-01 0.  0.
         14    1    1    2    0    0  0.22803853376E-01  0.44640279686E-02  0.22431966011E-02  0.23344704014E-01  0.00000000000E+00 0.  1.
     999901    1    3    3    0    0 -0.81951083275E-01 -0.77448354476E-01 -0.88327706532E-01  0.89158062530E+00  0.88000000000E+00 0.  1.
        -11    1    4    4    0    0  0.44677807653E-01  0.43315460301E-01  0.64115593243E-01  0.89349907754E-01  0.51100000000E-03 0. -1.
         11    1    4    4    0    0  0.14469422246E-01  0.29668866206E-01  0.21968916688E-01  0.39654762936E-01  0.51100000000E-03 0.  1.
</event>
<event>
 8    1  0.1076043E+005  0.1043930E+01  0.7957747E-01            NaN
         13   -1    0    0    0    0  0.00000000000E+00  0.00000000000E+00  0.74505805969E-08  0.10566000000E+00  0.10566000000E+00 0. -1.
     999900   -1    0    0    0    0 -0.00000000000E+00 -0.00000000000E+00 -0.74505805969E-08  0.93827000000E+00  0.93827000000E+00 0.  1.
     999902    2    1    2    0    0  0.93304460576E-02  0.12591348959E-01 -0.16076211133E-01  0.10214790789E+01  0.10212323266E+01 0.  0.
     999903    2    3    3    0    0  0.13075746252E-01 -0.87315485129E-01  0.92252354890E-01  0.12921763688E+00  0.19792210933E-01 0.  0.
         14    1    1    2    0    0 -0.93304460576E-02 -0.12591348959E-01  0.16076211133E-01  0.22450921064E-01  0.00000000000E+00 0. -1.
     999901    1    3    3    0    0 -0.37453001947E-02  0.99906834088E-01 -0.10832856602E+00  0.89226144206E+00  0.88000000000E+00 0.  1.
        -11    1    4    4    0    0  0.70003933183E-02 -0.77423962761E-01  0.86333402205E-01  0.11617742024E+00  0.51100000000E-03 0.  1.
         11    1    4    4    0    0  0.60753529339E-02 -0.98915223674E-02  0.59189526849E-02  0.13040216636E-01  0.51100000000E-03 0. -1.
</event>
<event>
 8    1  0.1076043E+005  0.1043930E+01  0.7957747E-01            NaN
         13   -1    0    0    0    0  0.00000000000E+00  0.00000000000E+00  0.74505805969E-08  0.10566000000E+00  0.10566000000E+00 0.  1.
     999900   -1    0    0    0    0 -0.00000000000E+00 -0.00000000000E+00 -0.74505805969E-08  0.93827000000E+00  0.93827000000E+00 0.  1.
     999902    2    1    2    0    0 -0.95848656834E-02  0.14041039634E-01  0.16688563809E-01  0.10201071411E+01  0.10198289321E+01 0.  0.
     999903    2    3    3    0    0 -0.46782099420E-01 -0.11432652832E+00  0.34725289414E-01  0.12983348083E+00  0.19793107815E-01 0.  0.
         14    1    1    2    0    0  0.95848656834E-02 -0.14041039634E-01 -0.16688563809E-01  0.23822858900E-01  0.00000000000E+00 0. -1.
     999901    1    3    3    0    0  0.37197233737E-01  0.12836756795E+00 -0.18036725606E-01  0.89027366027E+00  0.88000000000E+00 0.  1.
        -11    1    4    4    0    0 -0.29765748312E-01 -0.62961939034E-01  0.10071885774E-01  0.70369805624E-01  0.51100000000E-03 0.  1.
         11    1    4    4    0    0 -0.17016351108E-01 -0.51364589281E-01  0.24653403640E-01  0.59463675207E-01  0.51100000000E-03 0. -1.
</event>
<event>
 7    1  0.1076043E+005  0.1043930E+01  0.7957747E-01            NaN
         13   -1    0    0    0    0  0.00000000000E+00  0.00000000000E+00  0.74505805969E-08  0.10566000000E+00  0.10566000000E+00 0. -1.
     999900   -1    0    0    0    0 -0.00000000000E+00 -0.00000000000E+00 -0.74505805969E-08  0.93827000000E+00  0.93827000000E+00 0. -1.
     999902    2    1    2    0    0 -0.12984788096E-01  0.14669139688E-01  0.15089531640E-01  0.10192018309E+01  0.10189018058E+01 0.  0.
         14    1    1    2    0    0  0.12984788096E-01 -0.14669139688E-01 -0.15089531640E-01  0.24728169083E-01  0.00000000000E+00 0.  1.
     999901    1    3    3    0    0 -0.32832730041E-01  0.73661423565E-01 -0.92685211770E-01  0.88853505387E+00  0.88000000000E+00 0. -1.
        -11    1    3    3    0    0  0.28312098214E-01 -0.29503980051E-01  0.45070084740E-01  0.60857484368E-01  0.51100000000E-03 0.  1.
         11    1    3    3    0    0 -0.84641562682E-02 -0.29488303825E-01  0.62704658670E-01  0.69809292674E-01  0.51100000000E-03 0. -1.
</event>
<event>
 8    1  0.1076043E+005  0.1043930E+01  0.7957747E-01            NaN
         13   -1    0    0    0    0  0.00000000000E+00  0.00000000000E+00  0.74505805969E-08  0.10566000000E+00  0.10566000000E+00 0. -1.
     999900   -1    0    0    0    0 -0.00000000000E+00 -0.00000000000E+00 -0.74505805969E-08  0.93827000000E+00  0.93827000000E+00 0.  1.
     999902    2    1    2    0    0  0.14663634451E-01  0.18797915803E-01  0.47948118079E-03  0.10200843774E+01  0.10198056302E+01 0.  0.
     999903    2    3    3    0    0  0.25209459243E-01 -0.73768534740E-01 -0.10112407481E+00  0.12935263061E+00  0.20705337153E-01 0.  0.
         14    1    1    2    0    0 -0.14663634451E-01 -0.18797915803E-01 -0.47948118079E-03  0.23845622577E-01  0.00000000000E+00 0. -1.
     999901    1    3    3    0    0 -0.10545824792E-01  0.92566450543E-01  0.10160355599E+00  0.89073174681E+00  0.88000000000E+00 0. -1.
        -11    1    4    4    0    0  0.68599132994E-03 -0.19710549659E-01 -0.37254051339E-01  0.42155685430E-01  0.51100000000E-03 0. -1.
         11    1    4    4    0    0  0.24523467913E-01 -0.54057985081E-01 -0.63870023474E-01  0.87196945182E-01  0.51100000000E-03 0.  1.
</event>
<event>
 8    1  0.1076043E+005  0.1043930E+01  0.7957747E-01            NaN
         13   -1    0    0    0    0  0.00000000000E+00  0.00000000000E+00  0.74505805969E-08  0.10566000000E+00  0.10566000000E+00 0.  1.
     999900   -1    0    0    0    0 -0.00000000000E+00 -0.00000000000E+00 -0.74505805969E-08  0.93827000000E+00  0.93827000000E+00 0.  1.
     999902    2    1    2    0    0 -0.13898428336E-01  0.33119832932E-03 -0.19246602783E-01  0.10201874702E+01  0.10199111562E+01 0.  0.
     999903    2    3    3    0    0 -0.84815133211E-01 -0.31465984962E-01  0.91065372092E-01  0.12990157697E+00  0.19944991167E-01 0.  0.
         14    1    1    2    0    0  0.13898428336E-01 -0.33119832932E-03  0.19246602783E-01  0.23742529798E-01  0.00000000000E+00 0.  1.
     999901    1    3    3    0    0  0.70916704875E-01  0.31797183291E-01 -0.11031197487E+00  0.89028589324E+00  0.88000000000E+00 0.  1.
        -11    1    4    4    0    0 -0.50837349674E-01 -0.84177545347E-02  0.52661676515E-01  0.73680445219E-01  0.51100000000E-03 0. -1.
         11    1    4    4    0    0 -0.33977783537E-01 -0.23048230427E-01  0.38403695576E-01  0.56221131746E-01  0.51100000000E-03 0.  1.
</event>
<event>
 8    1  0.1076043E+005  0.1043930E+01  0.7957747E-01            NaN
         13   -1    0    0    0    0  0.00000000000E+00  0.00000000000E+00  0.74505805969E-08  0.10566000000E+00  0.10566000000E+00 0.  1.
     999900   -1    0    0    0    0 -0.00000000000E+00 -0.00000000000E+00 -0.74505805969E-08  0.93827000000E+00  0.93827000000E+00 0.  1.
     999902    2    1    2    0    0  0.47677510054E-02 -0.87403122678E-02 -0.21338778445E-01  0.10203828564E+01  0.10201111241E+01 0.  0.
     999903    2    3    3    0    0 -0.11541737211E+00 -0.49921300487E-01  0.24181352791E-01  0.13009502652E+00  0.22949337158E-01 0.  0.
         14    1    1    2    0    0 -0.47677510054E-02  0.87403122678E-02  0.21338778445E-01  0.23547143642E-01  0.00000000000E+00 0.  1.
     999901    1    3    3    0    0  0.12018512311E+00  0.41180988219E-01 -0.45520131236E-01  0.89028782984E+00  0.88000000000E+00 0.  1.
        -11    1    4    4    0    0 -0.51475280204E-01 -0.28941637398E-01  0.21150417910E-01  0.62728973738E-01  0.51100000000E-03 0. -1.
         11    1    4    4    0    0 -0.63942091904E-01 -0.20979663089E-01  0.30309348816E-02  0.67366052783E-01  0.51100000000E-03 0.  1.
</event>
<event>
 8    1  0.1076043E+005  0.1043930E+01  0.7957747E-01            NaN
         13   -1    0    0    0    0  0.00000000000E+00  0.00000000000E+00  0.74505805969E-08  0.10566000000E+00  0.10566000000E+00 0.  1.
     999900   -1    0    0    0    0 -0.00000000000E+00 -0.00000000000E+00 -0.74505805969E-08  0.93827000000E+00  0.93827000000E+00 0.  1.
     999902    2    1    2    0    0 -0.10366064850E-01 -0.60221277198E-02  0.20609127897E-01  0.10200876537E+01  0.10198089840E+01 0.  0.
     999903    2    3    3    0    0  0.45106199523E-01  0.95551492390E-01 -0.69672654876E-01  0.12793005963E+00  0.18632347844E-01 0.  0.
         14    1    1    2    0    0  0.10366064850E-01  0.60221277198E-02 -0.20609127897E-01  0.23842346265E-01  0.00000000000E+00 0. -1.
     999901    1    3    3    0    0 -0.55472264373E-01 -0.10157362011E+00  0.90281782773E-01  0.89215759410E+00  0.88000000000E+00 0. -1.
        -11    1    4    4    0    0  0.16778657664E-01  0.38410700245E-01 -0.38603376938E-01  0.56985849808E-01  0.51100000000E-03 0.  1.
         11    1    4    4    0    0  0.28327541859E-01  0.57140792145E-01 -0.31069277938E-01  0.70944209823E-01  0.51100000000E-03 0. -1.
</event>
<event>
 8    1  0.1076043E+005  0.1043930E+01  0.7957747E-01            NaN
         13   -1    0    0    0    0  0.00000000000E+00  0.00000000000E+00  0.74505805969E-08  0.10566000000E+00  0.10566000000E+00 0. -1.
     999900   -1    0    0    0    0 -0.00000000000E+00 -0.00000000000E+00 -0.74505805969E-08  0.93827000000E+00  0.93827000000E+00 0. -1.
     999902    2    1    2    0    0 -0.10865044006E-01 -0.50022554634E-02  0.20350250731E-01  0.10203248216E+01  0.10200517326E+01 0.  0.
     999903    2    3    3    0    0  0.31831311849E-01  0.10160788277E+00  0.74009201993E-01  0.13124215763E+00  0.20242225781E-01 0.  0.
         14    1    1    2    0    0  0.10865044006E-01  0.50022554634E-02 -0.20350250731E-01  0.23605178368E-01  0.00000000000E+00 0.  1.
     999901    1    3    3    0    0 -0.42696355854E-01 -0.10661013824E+00 -0.53658951263E-01  0.88908266400E+00  0.88000000000E+00 0. -1.
        -11    1    4    4    0    0  0.10626431479E-01  0.33584248584E-01  0.13379177230E-01  0.37684032471E-01  0.51100000000E-03 0. -1.
         11    1    4    4    0    0  0.21204880369E-01  0.68023634188E-01  0.60630024764E-01  0.93558125160E-01  0.51100000000E-03 0.  1.
</event>
<event>
 8    1  0.1076043E+005  0.1043930E+01  0.7957747E-01            NaN
         13   -1    0    0    0    0  0.00000000000E+00  0.00000000000E+00  0.74505805969E-08  0.10566000000E+00  0.10566000000E+00 0. -1.
     999900   -1    0    0    0    0 -0.00000000000E+00 -0.00000000000E+00 -0.74505805969E-08  0.93827000000E+00  0.93827000000E+00 0.  1.
     999902    2    1    2    0    0 -0.11499012904E-03  0.20165428075E-01  0.10618011036E-01  0.10211396540E+01  0.10208852987E+01 0.  0.
     999903    2    3    3    0    0  0.66458423371E-01  0.11293845198E+00  0.17974302742E-01  0.13373164842E+00  0.19729730325E-01 0.  0.
         14    1    1    2    0    0  0.11499012904E-03 -0.20165428075E-01 -0.10618011036E-01  0.22790345994E-01  0.00000000000E+00 0.  1.
     999901    1    3    3    0    0 -0.66573413500E-01 -0.92773023901E-01 -0.73562917068E-02  0.88740800559E+00  0.88000000000E+00 0.  1.
        -11    1    4    4    0    0  0.54052483241E-02  0.23221135939E-01  0.81140552136E-03  0.23861210440E-01  0.51100000000E-03 0. -1.
         11    1    4    4    0    0  0.61053175047E-01  0.89717316037E-01  0.17162897221E-01  0.10987043798E+00  0.51100000000E-03 0.  1.
</event>
<event>
 8    1  0.1076043E+005  0.1043930E+01  0.7957747E-01            NaN
         13   -1    0    0    0    0  0.00000000000E+00  0.00000000000E+00  0.74505805969E-08  0.10566000000E+00  0.10566000000E+00 0. -1.
     999900   -1    0    0    0    0 -0.00000000000E+00 -0.00000000000E+00 -0.74505805969E-08  0.93827000000E+00  0.93827000000E+00 0.  1.
     999902    2    1    2    0    0 -0.14889080610E-01  0.96041749489E-02 -0.14581737963E-01  0.10209832795E+01  0.10207253818E+01 0.  0.
     999903    2    3    3    0    0  0.10381285341E+00  0.72767827682E-01  0.20764254294E-01  0.13006850509E+00  0.20356730628E-01 0.  0.
         14    1    1    2    0    0  0.14889080610E-01 -0.96041749489E-02  0.14581737963E-01  0.22946720460E-01  0.00000000000E+00 0. -1.
     999901    1    3    3    0    0 -0.11870193402E+00 -0.63163652733E-01 -0.35345992257E-01  0.89091477445E+00  0.88000000000E+00 0.  1.
        -11    1    4    4    0    0  0.24163136512E-01  0.99038944839E-02  0.10237293461E-01  0.28053655563E-01  0.51100000000E-03 0. -1.
         11    1    4    4    0    0  0.79649716894E-01  0.62863933198E-01  0.10526960833E-01  0.10201484953E+00  0.51100000000E-03 0.  1.
</event>
<event>
 8    1  0.1076043E+005  0.1043930E+01  0.7957747E-01            NaN
         13   -1    0    0    0    0  0.00000000000E+00  0.00000000000E+00  0.74505805969E-08  0.10566000000E+00  0.10566000000E+00 0. -1.
     999900   -1    0    0    0    0 -0.00000000000E+00 -0.00000000000E+00 -0.74505805969E-08  0.93827000000E+00  0.93827000000E+00 0.  1.
     999902    2    1    2    0    0 -0.22630899572E-01  0.44678630930E-02 -0.54769832889E-03  0.10208557852E+01  0.10205949808E+01 0.  0.
     999903    2    3    3    0    0  0.33319648254E-01 -0.50812574131E-01  0.11320308262E+00  0.13005522910E+00  0.20181874392E-01 0.  0.
         14    1    1    2    0    0  0.22630899572E-01 -0.44678630930E-02  0.54769832889E-03  0.23074214819E-01  0.00000000000E+00 0. -1.
     999901    1    3    3    0    0 -0.55950547826E-01  0.55280437224E-01 -0.11375078094E+00  0.89080055608E+00  0.88000000000E+00 0.  1.
        -11    1    4    4    0    0  0.37136086275E-02 -0.22906532641E-01  0.37238245126E-01  0.43879928757E-01  0.51100000000E-03 0. -1.
         11    1    4    4    0    0  0.29606039626E-01 -0.27906041490E-01  0.75964837489E-01  0.86175300346E-01  0.51100000000E-03 0.  1.
</event>
<event>
 8    1  0.1076043E+005  0.1043930E+01  0.7957747E-01            NaN
         13   -1    0    0    0    0  0.00000000000E+00  0.00000000000E+00  0.74505805969E-08  0.10566000000E+00  0.10566000000E+00 0. -1.
     999900   -1    0    0    0    0 -0.00000000000E+00 -0.00000000000E+00 -0.74505805969E-08  0.93827000000E+00  0.93827000000E+00 0.  1.
     999902    2    1    2    0    0  0.49751635935E-02  0.21154768096E-01  0.11278783727E-01  0.10194455676E+01  0.10191514990E+01 0.  0.
     999903    2    3    3    0    0  0.53770919225E-03  0.13016696334E+00  0.17694878891E-01  0.13268488064E+00  0.18666583367E-01 0.  0.
         14    1    1    2    0    0 -0.49751635935E-02 -0.21154768096E-01 -0.11278783727E-01  0.24484432368E-01  0.00000000000E+00 0. -1.
     999901    1    3    3    0    0  0.44374544013E-02 -0.10901219525E+00 -0.64160951635E-02  0.88676068699E+00  0.88000000000E+00 0. -1.
        -11    1    4    4    0    0  0.64310537975E-02  0.17933069176E-01  0.38824505211E-02  0.19449626374E-01  0.51100000000E-03 0. -1.
         11    1    4    4    0    0 -0.58933446053E-02  0.11223389417E+00  0.13812428370E-01  0.11323525427E+00  0.51100000000E-03 0.  1.
</event>
<event>
 8    1  0.1076043E+005  0.1043930E+01  0.7957747E-01            NaN
         13   -1    0    0    0    0  0.00000000000E+00  0.00000000000E+00  0.74505805969E-08  0.10566000000E+00  0.10566000000E+00 0. -1.
     999900   -1    0    0    0    0 -0.00000000000E+00 -0.00000000000E+00 -0.74505805969E-08  0.93827000000E+00  0.93827000000E+00 0. -1.
     999902    2    1    2    0    0 -0.20884787348E-01  0.87477822479E-02  0.61572347054E-02  0.10204649286E+01  0.10201951092E+01 0.  0.
     999903    2    3    3    0    0  0.12170257303E+00 -0.17053963498E-01  0.31200056336E-01  0.12826314181E+00  0.19381333261E-01 0.  0.
         14    1    1    2    0    0  0.20884787348E-01 -0.87477822479E-02 -0.61572347054E-02  0.23465071405E-01  0.00000000000E+00 0. -1.
     999901    1    3    3    0    0 -0.14258736038E+00  0.25801745746E-01 -0.25042821630E-01  0.89220178678E+00  0.88000000000E+00 0. -1.
        -11    1    4    4    0    0  0.29276038400E-01 -0.81509699787E-03  0.15417801713E-01  0.33101669719E-01  0.51100000000E-03 0.  1.
         11    1    4    4    0    0  0.92426534630E-01 -0.16238866500E-01  0.15782254623E-01  0.95161472093E-01  0.51100000000E-03 0. -1.
</event>
<event>
 8    1  0.1076043E+005  0.1043930E+01  0.7957747E-01            NaN
         13   -1    0    0    0    0  0.00000000000E+00  0.00000000000E+00  0.74505805969E-08  0.10566000000E+00  0.10566000000E+00 0.  1.
     999900   -1    0    0    0    0 -0.00000000000E+00 -0.00000000000E+00 -0.74505805969E-08  0.93827000000E+00  0.93827000000E+00 0. -1.
     999902    2    1    2    0    0 -0.13212650051E-01  0.29007187766E-02  0.20719530978E-01  0.10191855611E+01  0.10188851362E+01 0.  0.
     999903    2    3    3    0    0  0.96865822917E-01  0.53142330861E-01  0.65364892709E-01  0.12978424670E+00  0.19086291257E-01 0.  0.
         14    1    1    2    0    0  0.13212650051E-01 -0.29007187766E-02 -0.20719530978E-01  0.24744438865E-01  0.00000000000E+00 0. -1.
     999901    1    3    3    0    0 -0.11007847297E+00 -0.50241612084E-01 -0.44645361732E-01  0.88940131444E+00  0.88000000000E+00 0.  1.
        -11    1    4    4    0    0  0.33431986017E-01  0.19357194178E-01  0.33616433376E-01  0.51212541134E-01  0.51100000000E-03 0. -1.
         11    1    4    4    0    0  0.63433836900E-01  0.33785136683E-01  0.31748459334E-01  0.78571705566E-01  0.51100000000E-03 0.  1.
</event>
<event>
 8    1  0.1443422E+005  0.1043930E+01  0.7957747E-01            NaN
         13   -1    0    0    0    0  0.00000000000E+00  0.00000000000E+00  0.74505805969E-08  0.10566000000E+00  0.10566000000E+00 0. -1.
     999900   -1    0    0    0    0 -0.00000000000E+00 -0.00000000000E+00 -0.74505805969E-08  0.93827000000E+00  0.93827000000E+00 0.  1.
     999902    2    1    2    0    0 -0.16552944860E-01  0.13436049537E-01 -0.11800356486E-01  0.10195624842E+01  0.10192712512E+01 0.  0.
     999903    2    3    3    0    0 -0.56369541652E-02 -0.72368384427E-03  0.12708970445E+00  0.12849003718E+00  0.18044326184E-01 0.  0.
         14    1    1    2    0    0  0.16552944860E-01 -0.13436049537E-01  0.11800356486E-01  0.24367515751E-01  0.00000000000E+00 0.  1.
     999901    1    3    3    0    0 -0.10915990695E-01  0.14159733381E-01 -0.13889006093E+00  0.89107244707E+00  0.88000000000E+00 0.  1.
        -11    1    4    4    0    0 -0.60347067057E-02 -0.79976588090E-02  0.46484916299E-01  0.47555113245E-01  0.51100000000E-03 0.  1.
         11    1    4    4    0    0  0.39775254051E-03  0.72739749647E-02  0.80604788146E-01  0.80934923933E-01  0.51100000000E-03 0. -1.
</event>
<event>
 8    1  0.1076043E+005  0.1043930E+01  0.7957747E-01            NaN
         13   -1    0    0    0    0  0.00000000000E+00  0.00000000000E+00  0.74505805969E-08  0.10566000000E+00  0.10566000000E+00 0.  1.
     999900   -1    0    0    0    0 -0.00000000000E+00 -0.00000000000E+00 -0.74505805969E-08  0.93827000000E+00  0.93827000000E+00 0.  1.
     999902    2    1    2    0    0 -0.15258409629E-01 -0.15543711230E-01 -0.55729877902E-02  0.10214470239E+01  0.10211995585E+01 0.  0.
     999903    2    3    3    0    0 -0.10362413118E+00  0.58757160557E-01 -0.54736738745E-01  0.13254534499E+00  0.19539535068E-01 0.  0.
         14    1    1    2    0    0  0.15258409629E-01  0.15543711230E-01  0.55729877902E-02  0.22482976141E-01  0.00000000000E+00 0. -1.
     999901    1    3    3    0    0  0.88365721547E-01 -0.74300871788E-01  0.49163750955E-01  0.88890167887E+00  0.88000000000E+00 0. -1.
        -11    1    4    4    0    0 -0.57994794843E-01  0.21689793791E-01 -0.27484013992E-01  0.67745667978E-01  0.51100000000E-03 0.  1.
         11    1    4    4    0    0 -0.45629336333E-01  0.37067366766E-01 -0.27252724753E-01  0.64799677010E-01  0.51100000000E-03 0. -1.
</event>
<event>
 8    1  0.1076043E+005  0.1043930E+01  0.7957747E-01            NaN
         13   -1    0    0    0    0  0.00000000000E+00  0.00000000000E+00  0.74505805969E-08  0.10566000000E+00  0.10566000000E+00 0. -1.
     999900   -1    0    0    0    0 -0.00000000000E+00 -0.00000000000E+00 -0.74505805969E-08  0.93827000000E+00  0.93827000000E+00 0.  1.
     999902    2    1    2    0    0 -0.22820500220E-02  0.20816458764E-01 -0.11001030271E-01  0.10202750772E+01  0.10200008224E+01 0.  0.
     999903    2    3    3    0    0 -0.12897119017E-01  0.12827838868E+00 -0.28291419519E-01  0.13350582666E+00  0.20042970142E-01 0.  0.
         14    1    1    2    0    0  0.22820500220E-02 -0.20816458764E-01  0.11001030271E-01  0.23654922845E-01  0.00000000000E+00 0.  1.
     999901    1    3    3    0    0  0.10615068995E-01 -0.10746192991E+00  0.17290389248E-01  0.88676925050E+00  0.88000000000E+00 0.  1.
        -11    1    4    4    0    0 -0.77385900358E-02  0.34092970628E-01 -0.15750609745E-01  0.38347871523E-01  0.51100000000E-03 0.  1.
         11    1    4    4    0    0 -0.51585289814E-02  0.94185418049E-01 -0.12540809774E-01  0.95157955133E-01  0.51100000000E-03 0. -1.
</event>
<event>
 8    1  0.1076043E+005  0.1043930E+01  0.7957747E-01            NaN
         13   -1    0    0    0    0  0.00000000000E+00  0.00000000000E+00  0.74505805969E-08  0.10566000000E+00  0.10566000000E+00 0. -1.
     999900   -1    0    0    0    0 -0.00000000000E+00 -0.00000000000E+00 -0.74505805969E-08  0.93827000000E+00  0.93827000000E+00 0. -1.
     999902    2    1    2    0    0  0.13609766115E-02  0.30980204650E-03  0.21284918451E-01  0.10225993650E+01  0.10223768705E+01 0.  0.
     999903    2    3    3    0    0  0.62810966276E-01 -0.10894928116E+00 -0.34416196815E-01  0.13197247192E+00  0.20422913417E-01 0.  0.
         14    1    1    2    0    0 -0.13609766115E-02 -0.30980204650E-03 -0.21284918451E-01  0.21330634967E-01  0.00000000000E+00 0.  1.
     999901    1    3    3    0    0 -0.61449989664E-01  0.10925908320E+00  0.55701115266E-01  0.89062689311E+00  0.88000000000E+00 0.  1.
        -11    1    4    4    0    0  0.35311451399E-01 -0.79693042822E-01 -0.21330733588E-01  0.89739294573E-01  0.51100000000E-03 0. -1.
         11    1    4    4    0    0  0.27499514876E-01 -0.29256238336E-01 -0.13085463227E-01  0.42233177348E-01  0.51100000000E-03 0.  1.
</event>
<event>
 8    1  0.1076043E+005  0.1043930E+01  0.7957747E-01            NaN
         13   -1    0    0    0    0  0.00000000000E+00  0.00000000000E+00  0.74505805969E-08  0.10566000000E+00  0.10566000000E+00 0.  1.
     999900   -1    0    0    0    0 -0.00000000000E+00 -0.00000000000E+00 -0.74505805969E-08  0.93827000000E+00  0.93827000000E+00 0. -1.
     999902    2    1    2    0    0  0.19042594431E-01  0.37409496348E-02  0.13970433813E-01  0.10200179083E+01  0.10197375864E+01 0.  0.
     999903    2    3    3    0    0  0.18322494046E-01  0.11167038796E+00  0.64986371990E-01  0.13195715132E+00  0.19582438701E-01 0.  0.
         14    1    1    2    0    0 -0.19042594431E-01 -0.37409496348E-02 -0.13970433813E-01  0.23912091664E-01  0.00000000000E+00 0. -1.
     999901    1    3    3    0    0  0.72010038508E-03 -0.10792943832E+00 -0.51015938178E-01  0.88806075701E+00  0.88000000000E+00 0. -1.
        -11    1    4    4    0    0 -0.30383826455E-02  0.28671833360E-01  0.20612096504E-01  0.35446092036E-01  0.51100000000E-03 0. -1.
         11    1    4    4    0    0  0.21360876692E-01  0.82998554598E-01  0.44374275487E-01  0.96511059285E-01  0.51100000000E-03 0.  1.
</event>
<event>
 7    1  0.1076043E+005  0.1043930E+01  0.7957747E-01            NaN
         13   -1    0    0    0    0  0.00000000000E+00  0.00000000000E+00  0.74505805969E-08  0.10566000000E+00  0.10566000000E+00 0. -1.
     999900   -1    0    0    0    0 -0.00000000000E+00 -0.00000000000E+00 -0.74505805969E-08  0.93827000000E+00  0.93827000000E+00 0.  1.
     999902    2    1    2    0    0  0.18982851962E-01  0.13432833097E-01 -0.42110526446E-02  0.10202969165E+01  0.10200231738E+01 0.  0.
         14    1    1    2    0    0 -0.18982851962E-01 -0.13432833097E-01  0.42110526446E-02  0.23633083549E-01  0.00000000000E+00 0. -1.
     999901    1    3    3    0    0 -0.44554295638E-01 -0.97610071152E-01  0.63402228153E-02  0.88653990868E+00  0.88000000000E+00 0. -1.
        -11    1    3    3    0    0  0.55158591525E-01  0.10745518834E+00 -0.13475092489E-02  0.12079389315E+00  0.51100000000E-03 0. -1.
         11    1    3    3    0    0  0.83785560760E-02  0.35877159124E-02 -0.92037662110E-02  0.12963114628E-01  0.51100000000E-03 0.  1.
</event>
<event>
 8    1  0.1076043E+005  0.1043930E+01  0.7957747E-01            NaN
         13   -1    0    0    0    0  0.00000000000E+00  0.00000000000E+00  0.74505805969E-08  0.10566000000E+00  0.10566000000E+00 0. -1.
     999900   -1    0    0    0    0 -0.00000000000E+00 -0.00000000000E+00 -0.74505805969E-08  0.93827000000E+00  0.93827000000E+00 0.  1.
     999902    2    1    2    0    0  0.96403416404E-02 -0.20027472862E-01  0.13692304829E-01  0.10178241564E+01  0.10174893112E+01 0.  0.
     999903    2    3    3    0    0 -0.49895636464E-01 -0.10285427789E+00 -0.56624418558E-01  0.12914578161E+00  0.20093061265E-01 0.  0.
         14    1    1    2    0    0 -0.96403416404E-02  0.20027472862E-01 -0.13692304829E-01  0.26105843555E-01  0.00000000000E+00 0.  1.
     999901    1    3    3    0    0  0.59535978105E-01  0.82826805027E-01  0.70316723387E-01  0.88867837484E+00  0.88000000000E+00 0. -1.
        -11    1    4    4    0    0 -0.25382853760E-01 -0.70913436227E-01 -0.31216641165E-01  0.81533701677E-01  0.51100000000E-03 0. -1.
         11    1    4    4    0    0 -0.24512782704E-01 -0.31940841662E-01 -0.25407777394E-01  0.47612079928E-01  0.51100000000E-03 0.  1.
</event>
<event>
 8    1  0.1076043E+005  0.1043930E+01  0.7957747E-01            NaN
         13   -1    0    0    0    0  0.00000000000E+00  0.00000000000E+00  0.74505805969E-08  0.10566000000E+00  0.10566000000E+00 0. -1.
     999900   -1    0    0    0    0 -0.00000000000E+00 -0.00000000000E+00 -0.74505805969E-08  0.93827000000E+00  0.93827000000E+00 0.  1.
     999902    2    1    2    0    0  0.17706488875E-01  0.14523948161E-01  0.62885831323E-03  0.10210201706E+01  0.10207631109E+01 0.  0.
     999903    2    3    3    0    0 -0.10407254814E+00 -0.70985061745E-01 -0.15505628185E-01  0.12838236824E+00  0.19277803351E-01 0.  0.
         14    1    1    2    0    0 -0.17706488875E-01 -0.14523948161E-01 -0.62885831323E-03  0.22909829358E-01  0.00000000000E+00 0. -1.
     999901    1    3    3    0    0  0.12177903701E+00  0.85509009906E-01  0.16134486498E-01  0.89263780241E+00  0.88000000000E+00 0. -1.
        -11    1    4    4    0    0 -0.58695782637E-01 -0.29925834865E-01 -0.12844730400E-01  0.67126736192E-01  0.51100000000E-03 0. -1.
         11    1    4    4    0    0 -0.45376765499E-01 -0.41059226879E-01 -0.26608977856E-02  0.61255632044E-01  0.51100000000E-03 0.  1.
</event>
<event>
 8    1  0.1076043E+005  0.1043930E+01  0.7957747E-01            NaN
         13   -1    0    0    0    0  0.00000000000E+00  0.00000000000E+00  0.74505805969E-08  0.10566000000E+00  0.10566000000E+00 0.  1.
     999900   -1    0    0    0    0 -0.00000000000E+00 -0.00000000000E+00 -0.74505805969E-08  0.93827000000E+00  0.93827000000E+00 0.  1.
     999902    2    1    2    0    0  0.20885537484E-01 -0.94445157797E-02 -0.70482032154E-02  0.10199491384E+01  0.10196671826E+01 0.  0.
     999903    2    3    3    0    0  0.12202944720E+00  0.29535591810E-01 -0.38112858795E-01  0.13275437282E+00  0.20189015026E-01 0.  0.
         14    1    1    2    0    0 -0.20885537484E-01  0.94445157797E-02  0.70482032154E-02  0.23980861596E-01  0.00000000000E+00 0.  1.
     999901    1    3    3    0    0 -0.10114390972E+00 -0.38980107590E-01  0.31064655580E-01  0.88719476559E+00  0.88000000000E+00 0. -1.
        -11    1    4    4    0    0  0.68845354457E-01  0.76267616889E-02 -0.15738392751E-01  0.71033854264E-01  0.51100000000E-03 0. -1.
         11    1    4    4    0    0  0.53184092747E-01  0.21908830121E-01 -0.22374466044E-01  0.61720518552E-01  0.51100000000E-03 0.  1.
</event>
<event>
 8    1  0.1076043E+005  0.1043930E+01  0.7957747E-01            NaN
         13   -1    0    0    0    0  0.00000000000E+00  0.00000000000E+00  0.74505805969E-08  0.10566000000E+00  0.10566000000E+00 0. -1.
     999900   -1    0    0    0    0 -0.00000000000E+00 -0.00000000000E+00 -0.74505805969E-08  0.93827000000E+00  0.93827000000E+00 0.  1.
     999902    2    1    2    0    0 -0.13048984571E-01  0.14979907241E-01 -0.13146299027E-01  0.10201077667E+01  0.10198295725E+01 0.  0.
     999903    2    3    3    0    0 -0.43613299504E-01  0.11932447983E+00  0.31413449213E-01  0.13229723609E+00  0.19372725791E-01 0.  0.
         14    1    1    2    0    0  0.13048984571E-01 -0.14979907241E-01  0.13146299027E-01  0.23822233257E-01  0.00000000000E+00 0. -1.
     999901    1    3    3    0    0  0.30564314933E-01 -0.10434457259E+00 -0.44559748239E-01  0.88781053065E+00  0.88000000000E+00 0.  1.
        -11    1    4    4    0    0 -0.28750332154E-01  0.62783031563E-01  0.88060862163E-02  0.69613927677E-01  0.51100000000E-03 0. -1.
         11    1    4    4    0    0 -0.14862967350E-01  0.56541448269E-01  0.22607362996E-01  0.62683308411E-01  0.51100000000E-03 0.  1.
</event>
<event>
 8    1  0.1076043E+005  0.1043930E+01  0.7957747E-01            NaN
         13   -1    0    0    0    0  0.00000000000E+00  0.00000000000E+00  0.74505805969E-08  0.10566000000E+00  0.10566000000E+00 0. -1.
     999900   -1    0    0    0    0 -0.00000000000E+00 -0.00000000000E+00 -0.74505805969E-08  0.93827000000E+00  0.93827000000E+00 0. -1.
     999902    2    1    2    0    0  0.20530951357E-02 -0.22925382901E-01  0.66986433835E-02  0.10199579287E+01  0.10196761820E+01 0.  0.
     999903    2    3    3    0    0 -0.31684216495E-01  0.11915278401E+00  0.28135346265E-01  0.12766652787E+00  0.17489114224E-01 0.  0.
         14    1    1    2    0    0 -0.20530951357E-02  0.22925382901E-01 -0.66986433835E-02  0.23972071332E-01  0.00000000000E+00 0.  1.
     999901    1    3    3    0    0  0.33737311631E-01 -0.14207816691E+00 -0.21436702881E-01  0.89229140080E+00  0.88000000000E+00 0. -1.
        -11    1    4    4    0    0 -0.33632138155E-01  0.10853666747E+00  0.24282900159E-01  0.11619487623E+00  0.51100000000E-03 0. -1.
         11    1    4    4    0    0  0.19479216596E-02  0.10616116544E-01  0.38524461062E-02  0.11471651636E-01  0.51100000000E-03 0.  1.
</event>
<event>
 8    1  0.1076043E+005  0.1043930E+01  0.7957747E-01            NaN
         13   -1    0    0    0    0  0.00000000000E+00  0.00000000000E+00  0.74505805969E-08  0.10566000000E+00  0.10566000000E+00 0.  1.
     999900   -1    0    0    0    0 -0.00000000000E+00 -0.00000000000E+00 -0.74505805969E-08  0.93827000000E+00  0.93827000000E+00 0.  1.
     999902    2    1    2    0    0  0.13793357638E-01  0.16000356871E-01 -0.11360522551E-01  0.10199439706E+01  0.10196618918E+01 0.  0.
     999903    2    3    3    0    0 -0.13027875312E-01 -0.57748909303E-01  0.11176583831E+00  0.12791345902E+00  0.19120364176E-01 0.  0.
         14    1    1    2    0    0 -0.13793357638E-01 -0.16000356871E-01  0.11360522551E-01  0.23986029425E-01  0.00000000000E+00 0. -1.
     999901    1    3    3    0    0  0.26821232950E-01  0.73749266174E-01 -0.12312636086E+00  0.89203051155E+00  0.88000000000E+00 0. -1.
        -11    1    4    4    0    0  0.46165518941E-02 -0.80858087971E-02  0.20507144624E-01  0.22527693111E-01  0.51100000000E-03 0.  1.
         11    1    4    4    0    0 -0.17644427206E-01 -0.49663100506E-01  0.91258693684E-01  0.10538576591E+00  0.51100000000E-03 0. -1.
</event>
<event>
 8    1  0.1076043E+005  0.1043930E+01  0.7957747E-01            NaN
         13   -1    0    0    0    0  0.00000000000E+00  0.00000000000E+00  0.74505805969E-08  0.10566000000E+00  0.10566000000E+00 0. -1.
     999900   -1    0    0    0    0 -0.00000000000E+00 -0.00000000000E+00 -0.74505805969E-08  0.93827000000E+00  0.93827000000E+00 0. -1.
     999902    2    1    2    0    0 -0.87095967635E-02 -0.20820204160E-01 -0.46727470888E-02  0.10208828192E+01  0.10206226325E+01 0.  0.
     999903    2    3    3    0    0  0.26024652600E-01 -0.12889111680E+00 -0.12210482847E-01  0.13355953669E+00  0.19971264802E-01 0.  0.
         14    1    1    2    0    0  0.87095967635E-02  0.20820204160E-01  0.46727470888E-02  0.23047180791E-01  0.00000000000E+00 0.  1.
     999901    1    3    3    0    0 -0.34734249363E-01  0.10807091264E+00  0.75377357585E-02  0.88732328252E+00  0.88000000000E+00 0. -1.
        -11    1    4    4    0    0  0.18937844207E-02 -0.57647165858E-01 -0.78447962747E-02  0.58211546109E-01  0.51100000000E-03 0. -1.
         11    1    4    4    0    0  0.24130868179E-01 -0.71243950939E-01 -0.43656865726E-02  0.75347990582E-01  0.51100000000E-03 0.  1.
</event>
<event>
 8    1  0.1076043E+005  0.1043930E+01  0.7957747E-01            NaN
         13   -1    0    0    0    0  0.00000000000E+00  0.00000000000E+00  0.74505805969E-08  0.10566000000E+00  0.10566000000E+00 0. -1.
     999900   -1    0    0    0    0 -0.00000000000E+00 -0.00000000000E+00 -0.74505805969E-08  0.93827000000E+00  0.93827000000E+00 0. -1.
     999902    2    1    2    0    0 -0.14543644529E-02  0.30590978415E-02 -0.23941379214E-01  0.10197501966E+01  0.10194634866E+01 0.  0.
     999903    2    3    3    0    0  0.18271483282E-01  0.11160429149E+00 -0.65192682684E-01  0.13190289090E+00  0.18945230859E-01 0.  0.
         14    1    1    2    0    0  0.14543644529E-02 -0.30590978415E-02  0.23941379214E-01  0.24179803437E-01  0.00000000000E+00 0. -1.
     999901    1    3    3    0    0 -0.19725847735E-01 -0.10854519365E+00  0.41251303470E-01  0.88784730566E+00  0.88000000000E+00 0.  1.
        -11    1    4    4    0    0  0.12926234499E-01  0.62217795618E-01 -0.26147205807E-01  0.68717385881E-01  0.51100000000E-03 0. -1.
         11    1    4    4    0    0  0.53452487835E-02  0.49386495872E-01 -0.39045476877E-01  0.63185505020E-01  0.51100000000E-03 0.  1.
</event>
<event>
 8    1  0.1076043E+005  0.1043930E+01  0.7957747E-01            NaN
         13   -1    0    0    0    0  0.00000000000E+00  0.00000000000E+00  0.74505805969E-08  0.10566000000E+00  0.10566000000E+00 0. -1.
     999900   -1    0    0    0    0 -0.00000000000E+00 -0.00000000000E+00 -0.74505805969E-08  0.93827000000E+00  0.93827000000E+00 0. -1.
     999902    2    1    2    0    0 -0.10478118357E-01  0.12460050592E-01  0.17144804735E-01  0.10202870697E+01  0.10200130962E+01 0.  0.
     999903    2    3    3    0    0  0.34625399972E-01  0.49546957221E-01 -0.11248676375E+00  0.12887576755E+00  0.17374468309E-01 0.  0.
         14    1    1    2    0    0  0.10478118357E-01 -0.12460050592E-01 -0.17144804735E-01  0.23642930327E-01  0.00000000000E+00 0.  1.
     999901    1    3    3    0    0 -0.45103518329E-01 -0.37086906629E-01  0.12963156848E+00  0.89141130213E+00  0.88000000000E+00 0.  1.
        -11    1    4    4    0    0  0.52674962631E-02  0.12120412814E-01 -0.40385358731E-01  0.42495755605E-01  0.51100000000E-03 0.  1.
         11    1    4    4    0    0  0.29357903709E-01  0.37426544407E-01 -0.72101405019E-01  0.86380011942E-01  0.51100000000E-03 0. -1.
</event>
<event>
 8    1  0.1076043E+005  0.1043930E+01  0.7957747E-01            NaN
         13   -1    0    0    0    0  0.00000000000E+00  0.00000000000E+00  0.74505805969E-08  0.10566000000E+00  0.10566000000E+00 0.  1.
     999900   -1    0    0    0    0 -0.00000000000E+00 -0.00000000000E+00 -0.74505805969E-08  0.93827000000E+00  0.93827000000E+00 0. -1.
     999902    2    1    2    0    0 -0.17637604384E-01  0.15742809553E-01  0.48896665496E-02  0.10197881281E+01  0.10195023277E+01 0.  0.
     999903    2    3    3    0    0  0.42198118641E-02 -0.12078069351E+00  0.38312784794E-01  0.12836593946E+00  0.20103785643E-01 0.  0.
         14    1    1    2    0    0  0.17637604384E-01 -0.15742809553E-01 -0.48896665496E-02  0.24141871924E-01  0.00000000000E+00 0.  1.
     999901    1    3    3    0    0 -0.21857416248E-01  0.13652350306E+00 -0.33423118245E-01  0.89142218862E+00  0.88000000000E+00 0. -1.
        -11    1    4    4    0    0  0.79858323380E-02 -0.91428090631E-01  0.21262213246E-01  0.94208344151E-01  0.51100000000E-03 0.  1.
         11    1    4    4    0    0 -0.37660204740E-02 -0.29352602877E-01  0.17050571549E-01  0.34157595304E-01  0.51100000000E-03 0. -1.
</event>
<event>
 8    1  0.1076043E+005  0.1043930E+01  0.7957747E-01            NaN
         13   -1    0    0    0    0  0.00000000000E+00  0.00000000000E+00  0.74505805969E-08  0.10566000000E+00  0.10566000000E+00 0. -1.
     999900   -1    0    0    0    0 -0.00000000000E+00 -0.00000000000E+00 -0.74505805969E-08  0.93827000000E+00  0.93827000000E+00 0.  1.
     999902    2    1    2    0    0  0.76345519346E-02  0.16608450024E-01  0.13913093574E-01  0.10209582528E+01  0.10206997859E+01 0.  0.
     999903    2    3    3    0    0  0.30619238274E-01  0.89591714884E-01 -0.89077531308E-01  0.13165407451E+00  0.20827280734E-01 0.  0.
         14    1    1    2    0    0 -0.76345519346E-02 -0.16608450024E-01 -0.13913093574E-01  0.22971747174E-01  0.00000000000E+00 0.  1.
     999901    1    3    3    0    0 -0.22984686340E-01 -0.72983264860E-01  0.10299062488E+00  0.88930417832E+00  0.88000000000E+00 0. -1.
        -11    1    4    4    0    0  0.20622541325E-01  0.40536857036E-01 -0.31354927689E-01  0.55244172548E-01  0.51100000000E-03 0.  1.
         11    1    4    4    0    0  0.99966969495E-02  0.49054857847E-01 -0.57722603619E-01  0.76409901962E-01  0.51100000000E-03 0. -1.
</event>
<event>
 8    1  0.1076043E+005  0.1043930E+01  0.7957747E-01            NaN
         13   -1    0    0    0    0  0.00000000000E+00  0.00000000000E+00  0.74505805969E-08  0.10566000000E+00  0.10566000000E+00 0. -1.
     999900   -1    0    0    0    0 -0.00000000000E+00 -0.00000000000E+00 -0.74505805969E-08  0.93827000000E+00  0.93827000000E+00 0.  1.
     999902    2    1    2    0    0  0.80988221289E-04 -0.48056407659E-02  0.23964910301E-01  0.10194878710E+01  0.10191948300E+01 0.  0.
     999903    2    3    3    0    0  0.85319379360E-01 -0.70894795239E-01 -0.62245949868E-01  0.12872096995E+00  0.19724638016E-01 0.  0.
         14    1    1    2    0    0 -0.80988221289E-04  0.48056407659E-02 -0.23964910301E-01  0.24442128958E-01  0.00000000000E+00 0.  1.
     999901    1    3    3    0    0 -0.85238391138E-01  0.66089154473E-01  0.86210860168E-01  0.89076690109E+00  0.88000000000E+00 0.  1.
        -11    1    4    4    0    0  0.32545036820E-01 -0.20935751878E-01 -0.12563532045E-01  0.40688924620E-01  0.51100000000E-03 0.  1.
         11    1    4    4    0    0  0.52774342540E-01 -0.49959043361E-01 -0.49682417823E-01  0.88032045335E-01  0.51100000000E-03 0. -1.
</event>
<event>
 8    1  0.1076043E+005  0.1043930E+01  0.7957747E-01            NaN
         13   -1    0    0    0    0  0.00000000000E+00  0.00000000000E+00  0.74505805969E-08  0.10566000000E+00  0.10566000000E+00 0. -1.
     999900   -1    0    0    0    0 -0.00000000000E+00 -0.00000000000E+00 -0.74505805969E-08  0.93827000000E+00  0.93827000000E+00 0. -1.
     999902    2    1    2    0    0 -0.42846559630E-02  0.13297943185E-01  0.13511577082E-01  0.10244940466E+01  0.10243096676E+01 0.  0.
     999903    2    3    3    0    0 -0.12175480764E+00 -0.30211541701E-01  0.45830181986E-01  0.13503533252E+00  0.19928999297E-01 0.  0.
         14    1    1    2    0    0  0.42846559630E-02 -0.13297943185E-01 -0.13511577082E-01  0.19435953409E-01  0.00000000000E+00 0.  1.
     999901    1    3    3    0    0  0.11747015168E+00  0.43509484885E-01 -0.32318604904E-01  0.88945871407E+00  0.88000000000E+00 0. -1.
        -11    1    4    4    0    0 -0.32886717288E-01 -0.16987157869E-01  0.10376006032E-01  0.38445055971E-01  0.51100000000E-03 0.  1.
         11    1    4    4    0    0 -0.88868090353E-01 -0.13224383832E-01  0.35454175953E-01  0.96590276551E-01  0.51100000000E-03 0. -1.
</event>
<event>
 8    1  0.1076043E+005  0.1043930E+01  0.7957747E-01            NaN
         13   -1    0    0    0    0  0.00000000000E+00  0.00000000000E+00  0.74505805969E-08  0.10566000000E+00  0.10566000000E+00 0. -1.
     999900   -1    0    0    0    0 -0.00000000000E+00 -0.00000000000E+00 -0.74505805969E-08  0.93827000000E+00  0.93827000000E+00 0. -1.
     999902    2    1    2    0    0 -0.79027124122E-02 -0.21139351499E-01  0.49782926783E-02  0.10208192137E+01  0.10205575724E+01 0.  0.
     999903    2    3    3    0    0  0.11777728192E+00  0.36259298688E-01 -0.33262208835E-01  0.12921818074E+00  0.20118121675E-01 0.  0.
         14    1    1    2    0    0  0.79027124122E-02  0.21139351499E-01 -0.49782926783E-02  0.23110786296E-01  0.00000000000E+00 0.  1.
     999901    1    3    3    0    0 -0.12567999433E+00 -0.57398650187E-01  0.38240501513E-01  0.89160103296E+00  0.88000000000E+00 0.  1.
        -11    1    4    4    0    0  0.58345598179E-01  0.90802970403E-02 -0.21328825081E-01  0.62784078567E-01  0.51100000000E-03 0. -1.
         11    1    4    4    0    0  0.59431683744E-01  0.27179001648E-01 -0.11933383753E-01  0.66434102176E-01  0.51100000000E-03 0.  1.
</event>
<event>
 8    1  0.1076043E+005  0.1043930E+01  0.7957747E-01            NaN
         13   -1    0    0    0    0  0.00000000000E+00  0.00000000000E+00  0.74505805969E-08  0.10566000000E+00  0.10566000000E+00 0. -1.
     999900   -1    0    0    0    0 -0.00000000000E+00 -0.00000000000E+00 -0.74505805969E-08  0.93827000000E+00  0.93827000000E+00 0. -1.
     999902    2    1    2    0    0 -0.13737400541E-01 -0.17012040644E-01 -0.89159348098E-02  0.10203160297E+01  0.10200427348E+01 0.  0.
     999903    2    3    3    0    0  0.56858641459E-01 -0.95807513263E-01  0.65746474398E-01  0.13084033974E+00  0.19611499224E-01 0.  0.
         14    1    1    2    0    0  0.13737400541E-01  0.17012040644E-01  0.89159348098E-02  0.23613970315E-01  0.00000000000E+00 0. -1.
     999901    1    3    3    0    0 -0.70596042000E-01  0.78795472619E-01 -0.74662409207E-01  0.88947568994E+00  0.88000000000E+00 0. -1.
        -11    1    4    4    0    0  0.19518484878E-01 -0.26975187342E-01  0.29748786821E-01  0.44652921767E-01  0.51100000000E-03 0.  1.
         11    1    4    4    0    0  0.37340156581E-01 -0.68832325921E-01  0.35997687577E-01  0.86187417974E-01  0.51100000000E-03 0. -1.
</event>
<event>
 8    1  0.1076043E+005  0.1043930E+01  0.7957747E-01            NaN
         13   -1    0    0    0    0  0.00000000000E+00  0.00000000000E+00  0.74505805969E-08  0.10566000000E+00  0.10566000000E+00 0.  1.
     999900   -1    0    0    0    0 -0.00000000000E+00 -0.00000000000E+00 -0.74505805969E-08  0.93827000000E+00  0.93827000000E+00 0.  1.
     999902    2    1    2    0    0 -0.57623482248E-02  0.24919533550E-01  0.13914724771E-02  0.10183150824E+01  0.10179928698E+01 0.  0.
     999903    2    3    3    0    0 -0.97108604010E-01  0.78156710073E-01 -0.30668107440E-01  0.13140688415E+00  0.28083519824E-01 0.  0.
         14    1    1    2    0    0  0.57623482248E-02 -0.24919533550E-01 -0.13914724771E-02  0.25614917628E-01  0.00000000000E+00 0. -1.
     999901    1    3    3    0    0  0.91346255785E-01 -0.53237176522E-01  0.32059579917E-01  0.88690819822E+00  0.88000000000E+00 0.  1.
        -11    1    4    4    0    0 -0.52524654445E-01  0.49926858709E-01 -0.30521736665E-01  0.78634394988E-01  0.51100000000E-03 0.  1.
         11    1    4    4    0    0 -0.44583949565E-01  0.28229851363E-01 -0.14637077485E-03  0.52772489161E-01  0.51100000000E-03 0. -1.
</event>
<event>
 8    1  0.1076043E+005  0.1043930E+01  0.7957747E-01            NaN
         13   -1    0    0    0    0  0.00000000000E+00  0.00000000000E+00  0.74505805969E-08  0.10566000000E+00  0.10566000000E+00 0.  1.
     999900   -1    0    0    0    0 -0.00000000000E+00 -0.00000000000E+00 -0.74505805969E-08  0.93827000000E+00  0.93827000000E+00 0. -1.
     999902    2    1    2    0    0  0.21738021386E-02  0.13622801118E-01  0.19345710054E-01  0.10201694734E+01  0.10198927355E+01 0.  0.
     999903    2    3    3    0    0 -0.98945704439E-01  0.69648424198E-01 -0.44048301190E-01  0.13034767906E+00  0.20226447489E-01 0.  0.
         14    1    1    2    0    0 -0.21738021386E-02 -0.13622801118E-01 -0.19345710054E-01  0.23760526584E-01  0.00000000000E+00 0.  1.
     999901    1    3    3    0    0  0.10111950658E+00 -0.56025623080E-01  0.63394011244E-01  0.88982179436E+00  0.88000000000E+00 0.  1.
        -11    1    4    4    0    0 -0.82074021935E-01  0.48747324327E-01 -0.30205820751E-01  0.10012541852E+00  0.51100000000E-03 0. -1.
         11    1    4    4    0    0 -0.16871682504E-01  0.20901099871E-01 -0.13842480439E-01  0.30222260539E-01  0.51100000000E-03 0.  1.
</event>
<event>
 8    1  0.1076043E+005  0.1043930E+01  0.7957747E-01            NaN
         13   -1    0    0    0    0  0.00000000000E+00  0.00000000000E+00  0.74505805969E-08  0.10566000000E+00  0.10566000000E+00 0.  1.
     999900   -1    0    0    0    0 -0.00000000000E+00 -0.00000000000E+00 -0.74505805969E-08  0.93827000000E+00  0.93827000000E+00 0. -1.
     999902    2    1    2    0    0 -0.20549952811E-02  0.22607441046E-01  0.71994162281E-02  0.10201150679E+01  0.10198370462E+01 0.  0.
     999903    2    3    3    0    0  0.11808234166E+00 -0.87304668451E-02 -0.48767116162E-01  0.12963918562E+00  0.20209561276E-01 0.  0.
         14    1    1    2    0    0  0.20549952811E-02 -0.22607441046E-01 -0.71994162281E-02  0.23814932086E-01  0.00000000000E+00 0.  1.
     999901    1    3    3    0    0 -0.12013733694E+00  0.31337907891E-01  0.55966532390E-01  0.89047588229E+00  0.88000000000E+00 0. -1.
        -11    1    4    4    0    0  0.27223532752E-01 -0.30421267425E-04 -0.20512497818E-01  0.34090252987E-01  0.51100000000E-03 0.  1.
         11    1    4    4    0    0  0.90858808905E-01 -0.87000455777E-02 -0.28254618344E-01  0.95548932634E-01  0.51100000000E-03 0. -1.
</event>
<event>
 8    1  0.1076043E+005  0.1043930E+01  0.7957747E-01            NaN
         13   -1    0    0    0    0  0.00000000000E+00  0.00000000000E+00  0.74505805969E-08  0.10566000000E+00  0.10566000000E+00 0.  1.
     999900   -1    0    0    0    0 -0.00000000000E+00 -0.00000000000E+00 -0.74505805969E-08  0.93827000000E+00  0.93827000000E+00 0.  1.
     999902    2    1    2    0    0 -0.15278228267E-01  0.12667644407E-01  0.10956986688E-01  0.10212595560E+01  0.10210078999E+01 0.  0.
     999903    2    3    3    0    0  0.88865089473E-01 -0.84480946219E-01  0.36617031320E-01  0.12944000184E+00  0.19490323061E-01 0.  0.
         14    1    1    2    0    0  0.15278228267E-01 -0.12667644407E-01 -0.10956986688E-01  0.22670443999E-01  0.00000000000E+00 0. -1.
     999901    1    3    3    0    0 -0.10414331774E+00  0.97148590626E-01 -0.25660044632E-01  0.89181955416E+00  0.88000000000E+00 0.  1.
        -11    1    4    4    0    0  0.32894234735E-01 -0.38222729160E-01  0.65789302570E-02  0.50858147308E-01  0.51100000000E-03 0. -1.
         11    1    4    4    0    0  0.55970854738E-01 -0.46258217059E-01  0.30038101063E-01  0.78581854534E-01  0.51100000000E-03 0.  1.
</event>
<event>
 8    1  0.1076043E+005  0.1043930E+01  0.7957747E-01            NaN
         13   -1    0    0    0    0  0.00000000000E+00  0.00000000000E+00  0.74505805969E-08  0.10566000000E+00  0.10566000000E+00 0.  1.
     999900   -1    0    0    0    0 -0.00000000000E+00 -0.00000000000E+00 -0.74505805969E-08  0.93827000000E+00  0.93827000000E+00 0.  1.
     999902    2    1    2    0    0  0.99121816645E-02  0.45971567104E-03 -0.22146810540E-01  0.10196618336E+01  0.10193729989E+01 0.  0.
     999903    2    3    3    0    0 -0.20920990367E-01  0.25308417758E-02 -0.12934032968E+00  0.13261875425E+00  0.20364677715E-01 0.  0.
         14    1    1    2    0    0 -0.99121816645E-02 -0.45971567104E-03  0.22146810540E-01  0.24268166411E-01  0.00000000000E+00 0.  1.
     999901    1    3    3    0    0  0.30833172032E-01 -0.20711261048E-02  0.10719351914E+00  0.88704307934E+00  0.88000000000E+00 0. -1.
        -11    1    4    4    0    0 -0.82810233054E-02  0.94971937404E-02 -0.35493405274E-01  0.37667160430E-01  0.51100000000E-03 0. -1.
         11    1    4    4    0    0 -0.12639967062E-01 -0.69663519646E-02 -0.93846924407E-01  0.94951593818E-01  0.51100000000E-03 0.  1.
</event>
<event>
 8    1  0.1076043E+005  0.1043930E+01  0.7957747E-01            NaN
         13   -1    0    0    0    0  0.00000000000E+00  0.00000000000E+00  0.74505805969E-08  0.10566000000E+00  0.10566000000E+00 0. -1.
     999900   -1    0    0    0    0 -0.00000000000E+00 -0.00000000000E+00 -0.74505805969E-08  0.93827000000E+00  0.93827000000E+00 0.  1.
     999902    2    1    2    0    0 -0.64582683533E-02 -0.21113184792E-01  0.92143732458E-02  0.10200055256E+01  0.10197249098E+01 0.  0.
     999903    2    3    3    0    0 -0.52883413915E-01  0.45094112804E-01 -0.10653499500E+00  0.12874988512E+00  0.19917160497E-01 0.  0.
         14    1    1    2    0    0  0.64582683533E-02  0.21113184792E-01 -0.92143732458E-02  0.23924474424E-01  0.00000000000E+00 0.  1.
     999901    1    3    3    0    0  0.46425145561E-01 -0.66207297596E-01  0.11574936824E+00  0.89125564046E+00  0.88000000000E+00 0. -1.
        -11    1    4    4    0    0 -0.14284748388E-01  0.18712137624E-01 -0.22419483786E-01  0.32512959035E-01  0.51100000000E-03 0. -1.
         11    1    4    4    0    0 -0.38598665526E-01  0.26381975180E-01 -0.84115511212E-01  0.96236926085E-01  0.51100000000E-03 0.  1.
</event>
<event>
 8    1  0.1076043E+005  0.1043930E+01  0.7957747E-01            NaN
         13   -1    0    0    0    0  0.00000000000E+00  0.00000000000E+00  0.74505805969E-08  0.10566000000E+00  0.10566000000E+00 0. -1.
     999900   -1    0    0    0    0 -0.00000000000E+00 -0.00000000000E+00 -0.74505805969E-08  0.93827000000E+00  0.93827000000E+00 0.  1.
     999902    2    1    2    0    0  0.20901431251E-01 -0.99256051713E-02  0.44036983563E-02  0.10203762312E+01  0.10201043442E+01 0.  0.
     999903    2    3    3    0    0  0.80977641053E-01 -0.91829857587E-01 -0.47955739380E-01  0.13298738278E+00  0.19894470188E-01 0.  0.
         14    1    1    2    0    0 -0.20901431251E-01  0.99256051713E-02 -0.44036983563E-02  0.23553768819E-01  0.00000000000E+00 0. -1.
     999901    1    3    3    0    0 -0.60076209802E-01  0.81904252416E-01  0.52359437737E-01  0.88738884840E+00  0.88000000000E+00 0. -1.
        -11    1    4    4    0    0  0.72107741731E-01 -0.84483412496E-01 -0.36973664611E-01  0.11706530827E+00  0.51100000000E-03 0.  1.
         11    1    4    4    0    0  0.88698993216E-02 -0.73464450911E-02 -0.10982074769E-01  0.15922074510E-01  0.51100000000E-03 0. -1.
</event>
<event>
 8    1  0.1076043E+005  0.1043930E+01  0.7957747E-01            NaN
         13   -1    0    0    0    0  0.00000000000E+00  0.00000000000E+00  0.74505805969E-08  0.10566000000E+00  0.10566000000E+00 0. -1.
     999900   -1    0    0    0    0 -0.00000000000E+00 -0.00000000000E+00 -0.74505805969E-08  0.93827000000E+00  0.93827000000E+00 0.  1.
     999902    2    1    2    0    0  0.88490697692E-02  0.17870108299E-01  0.11727682150E-01  0.10207959270E+01  0.10205337521E+01 0.  0.
     999903    2    3    3    0    0  0.58546324638E-01 -0.77168705225E-02 -0.11410701568E+00  0.13008897078E+00  0.20383990548E-01 0.  0.
         14    1    1    2    0    0 -0.88490697692E-02 -0.17870108299E-01 -0.11727682150E-01  0.23134073031E-01  0.00000000000E+00 0. -1.
     999901    1    3    3    0    0 -0.49697254869E-01  0.25586978821E-01  0.12583469783E+00  0.89070695619E+00  0.88000000000E+00 0. -1.
        -11    1    4    4    0    0  0.27534671469E-01 -0.94048677405E-03 -0.73826174832E-01  0.78801065092E-01  0.51100000000E-03 0. -1.
         11    1    4    4    0    0  0.31011653170E-01 -0.67763837485E-02 -0.40280840852E-01  0.51287905687E-01  0.51100000000E-03 0.  1.
</event>
<event>
 8    1  0.1076043E+005  0.1043930E+01  0.7957747E-01            NaN
         13   -1    0    0    0    0  0.00000000000E+00  0.00000000000E+00  0.74505805969E-08  0.10566000000E+00  0.10566000000E+00 0.  1.
     999900   -1    0    0    0    0 -0.00000000000E+00 -0.00000000000E+00 -0.74505805969E-08  0.93827000000E+00  0.93827000000E+00 0.  1.
     999902    2    1    2    0    0  0.16483452200E-01 -0.79187908941E-03  0.24889499533E-01  0.10140666704E+01  0.10136268512E+01 0.  0.
     999903    2    3    3    0    0 -0.15974091392E-01  0.11541676454E+00 -0.36717786150E-01  0.12369966816E+00  0.19421919315E-01 0.  0.
         14    1    1    2    0    0 -0.16483452200E-01  0.79187908941E-03 -0.24889499533E-01  0.29863329619E-01  0.00000000000E+00 0. -1.
     999901    1    3    3    0    0  0.32457543592E-01 -0.11620864363E+00  0.61607285683E-01  0.89036700222E+00  0.88000000000E+00 0.  1.
        -11    1    4    4    0    0 -0.87779032418E-02  0.51593944185E-01 -0.65754150814E-02  0.52749254652E-01  0.51100000000E-03 0.  1.
         11    1    4    4    0    0 -0.71961881505E-02  0.63822820360E-01 -0.30142371069E-01  0.70950413510E-01  0.51100000000E-03 0. -1.
</event>
<event>
 8    1  0.1076043E+005  0.1043930E+01  0.7957747E-01            NaN
         13   -1    0    0    0    0  0.00000000000E+00  0.00000000000E+00  0.74505805969E-08  0.10566000000E+00  0.10566000000E+00 0. -1.
     999900   -1    0    0    0    0 -0.00000000000E+00 -0.00000000000E+00 -0.74505805969E-08  0.93827000000E+00  0.93827000000E+00 0. -1.
     999902    2    1    2    0    0 -0.26672043431E-01 -0.60915783094E-03  0.15160024515E-02  0.10172079634E+01  0.10168569091E+01 0.  0.
     999903    2    3    3    0    0  0.44236151819E-01 -0.10142343623E+00 -0.58258238505E-01  0.12661015817E+00  0.19813108124E-01 0.  0.
         14    1    1    2    0    0  0.26672043431E-01  0.60915783094E-03 -0.15160024515E-02  0.26722036552E-01  0.00000000000E+00 0. -1.
     999901    1    3    3    0    0 -0.70908195250E-01  0.10081427840E+00  0.59774240956E-01  0.89059780528E+00  0.88000000000E+00 0. -1.
        -11    1    4    4    0    0  0.43867864141E-01 -0.92587779414E-01 -0.48261021670E-01  0.11325314007E+00  0.51100000000E-03 0.  1.
         11    1    4    4    0    0  0.36828767797E-03 -0.88356568174E-02 -0.99972168347E-02  0.13357018105E-01  0.51100000000E-03 0. -1.
</event>
<event>
 8    1  0.1076043E+005  0.1043930E+01  0.7957747E-01            NaN
         13   -1    0    0    0    0  0.00000000000E+00  0.00000000000E+00  0.74505805969E-08  0.10566000000E+00  0.10566000000E+00 0.  1.
     999900   -1    0    0    0    0 -0.00000000000E+00 -0.00000000000E+00 -0.74505805969E-08  0.93827000000E+00  0.93827000000E+00 0.  1.
     999902    2    1    2    0    0 -0.14296643202E-01  0.49074327602E-02  0.18328382188E-01  0.10201727591E+01  0.10198960986E+01 0.  0.
     999903    2    3    3    0    0  0.95007681103E-01 -0.80934611461E-01 -0.22656072699E-01  0.12832298617E+00  0.19406708875E-01 0.  0.
         14    1    1    2    0    0  0.14296643202E-01 -0.49074327602E-02 -0.18328382188E-01  0.23757240934E-01  0.00000000000E+00 0. -1.
     999901    1    3    3    0    0 -0.10930432430E+00  0.85842044221E-01  0.40984454887E-01  0.89184977289E+00  0.88000000000E+00 0. -1.
        -11    1    4    4    0    0  0.48904855374E-01 -0.40030121916E-01 -0.21229479055E-01  0.66671188993E-01  0.51100000000E-03 0. -1.
         11    1    4    4    0    0  0.46102825728E-01 -0.40904489545E-01 -0.14265936438E-02  0.61651797180E-01  0.51100000000E-03 0.  1.
</event>
<event>
 8    1  0.1076043E+005  0.1043930E+01  0.7957747E-01            NaN
         13   -1    0    0    0    0  0.00000000000E+00  0.00000000000E+00  0.74505805969E-08  0.10566000000E+00  0.10566000000E+00 0.  1.
     999900   -1    0    0    0    0 -0.00000000000E+00 -0.00000000000E+00 -0.74505805969E-08  0.93827000000E+00  0.93827000000E+00 0. -1.
     999902    2    1    2    0    0 -0.42512591757E-02 -0.21658293255E-01 -0.22437116056E-02  0.10217446645E+01  0.10215037789E+01 0.  0.
     999903    2    3    3    0    0  0.80337161839E-01  0.16791204850E-02  0.10186608248E+00  0.13127361772E+00  0.19979612903E-01 0.  0.
         14    1    1    2    0    0  0.42512591757E-02  0.21658293255E-01  0.22437116056E-02  0.22185335541E-01  0.00000000000E+00 0.  1.
     999901    1    3    3    0    0 -0.84588421014E-01 -0.23337413740E-01 -0.10410979409E+00  0.89047104674E+00  0.88000000000E+00 0. -1.
        -11    1    4    4    0    0  0.33883710374E-01  0.10446128026E-01  0.46224808628E-01  0.58259947418E-01  0.51100000000E-03 0. -1.
         11    1    4    4    0    0  0.46453451465E-01 -0.87670075412E-02  0.55641273855E-01  0.73013670305E-01  0.51100000000E-03 0.  1.
</event>
<event>
 8    1  0.1076043E+005  0.1043930E+01  0.7957747E-01            NaN
         13   -1    0    0    0    0  0.00000000000E+00  0.00000000000E+00  0.74505805969E-08  0.10566000000E+00  0.10566000000E+00 0.  1.
     999900   -1    0    0    0    0 -0.00000000000E+00 -0.00000000000E+00 -0.74505805969E-08  0.93827000000E+00  0.93827000000E+00 0. -1.
     999902    2    1    2    0    0 -0.18969924432E-02 -0.11566092936E-01  0.18613508389E-01  0.10219337326E+01  0.10216969795E+01 0.  0.
     999903    2    3    3    0    0 -0.11350505393E+00  0.90038508320E-02  0.66493555985E-01  0.13335510300E+00  0.19943016584E-01 0.  0.
         14    1    1    2    0    0  0.18969924432E-02  0.11566092936E-01 -0.18613508389E-01  0.21996267426E-01  0.00000000000E+00 0. -1.
     999901    1    3    3    0    0  0.11160806149E+00 -0.20569943768E-01 -0.47880047596E-01  0.88857862957E+00  0.88000000000E+00 0. -1.
        -11    1    4    4    0    0 -0.49540282204E-01  0.32331893297E-02  0.40484489284E-01  0.64062064186E-01  0.51100000000E-03 0.  1.
         11    1    4    4    0    0 -0.63964771729E-01  0.57706615023E-02  0.26009066701E-01  0.69293038815E-01  0.51100000000E-03 0. -1.
</event>
<event>
 8    1  0.1446500E+005  0.1043930E+01  0.7957747E-01            NaN
         13   -1    0    0    0    0  0.00000000000E+00  0.00000000000E+00  0.74505805969E-08  0.10566000000E+00  0.10566000000E+00 0.  1.
     999900   -1    0    0    0    0 -0.00000000000E+00 -0.00000000000E+00 -0.74505805969E-08  0.93827000000E+00  0.93827000000E+00 0. -1.
     999902    2    1    2    0    0 -0.22073724247E-01 -0.32432004922E-02 -0.81050177355E-02  0.10201927094E+01  0.10199165188E+01 0.  0.
     999903    2    3    3    0    0  0.12097295646E+00  0.21796678962E-01  0.28116503462E-01  0.12755541072E+00  0.19243015079E-01 0.  0.
         14    1    1    2    0    0  0.22073724247E-01  0.32432004922E-02  0.81050177355E-02  0.23737290580E-01  0.00000000000E+00 0. -1.
     999901    1    3    3    0    0 -0.14304668071E+00 -0.25039879454E-01 -0.36221521197E-01  0.89263729870E+00  0.88000000000E+00 0. -1.
        -11    1    4    4    0    0  0.80565837062E-01  0.61763680293E-02  0.22432567171E-01  0.83859899919E-01  0.51100000000E-03 0. -1.
         11    1    4    4    0    0  0.40407119400E-01  0.15620310932E-01  0.56839362912E-02  0.43695510806E-01  0.51100000000E-03 0.  1.
</event>
<event>
 8    1  0.1076043E+005  0.1043930E+01  0.7957747E-01            NaN
         13   -1    0    0    0    0  0.00000000000E+00  0.00000000000E+00  0.74505805969E-08  0.10566000000E+00  0.10566000000E+00 0.  1.
     999900   -1    0    0    0    0 -0.00000000000E+00 -0.00000000000E+00 -0.74505805969E-08  0.93827000000E+00  0.93827000000E+00 0.  1.
     999902    2    1    2    0    0 -0.20622655893E-01  0.67031729968E-02  0.14911074674E-01  0.10176133396E+01  0.10172729931E+01 0.  0.
     999903    2    3    3    0    0  0.11593427066E+00  0.29528562627E-01  0.36678846251E-01  0.12652264365E+00  0.18706963139E-01 0.  0.
         14    1    1    2    0    0  0.20622655893E-01 -0.67031729968E-02 -0.14911074674E-01  0.26316660355E-01  0.00000000000E+00 0. -1.
     999901    1    3    3    0    0 -0.13655692656E+00 -0.22825389630E-01 -0.21767771578E-01  0.89109069599E+00  0.88000000000E+00 0.  1.
        -11    1    4    4    0    0  0.34960843332E-01  0.14565884522E-01  0.18678475230E-01  0.42232358640E-01  0.51100000000E-03 0.  1.
         11    1    4    4    0    0  0.80973427331E-01  0.14962678105E-01  0.18000371021E-01  0.84290285014E-01  0.51100000000E-03 0. -1.
</event>
<event>
 8    1  0.1076043E+005  0.1043930E+01  0.7957747E-01            NaN
         13   -1    0    0    0    0  0.00000000000E+00  0.00000000000E+00  0.74505805969E-08  0.10566000000E+00  0.10566000000E+00 0.  1.
     999900   -1    0    0    0    0 -0.00000000000E+00 -0.00000000000E+00 -0.74505805969E-08  0.93827000000E+00  0.93827000000E+00 0.  1.
     999902    2    1    2    0    0  0.18825504577E-01  0.14328181522E-01  0.24108135200E-02  0.10201495788E+01  0.10198723718E+01 0.  0.
     999903    2    3    3    0    0 -0.47313315379E-01 -0.10077670237E+00  0.60462999147E-01  0.12830119821E+00  0.20271399639E-01 0.  0.
         14    1    1    2    0    0 -0.18825504577E-01 -0.14328181522E-01 -0.24108135200E-02  0.23780421151E-01  0.00000000000E+00 0.  1.
     999901    1    3    3    0    0  0.66138819956E-01  0.11510488389E+00 -0.58052185627E-01  0.89184838064E+00  0.88000000000E+00 0.  1.
        -11    1    4    4    0    0 -0.29208891336E-01 -0.42401205137E-01  0.33964514310E-01  0.61683635459E-01  0.51100000000E-03 0. -1.
         11    1    4    4    0    0 -0.18104424043E-01 -0.58375497229E-01  0.26498484837E-01  0.66617562746E-01  0.51100000000E-03 0.  1.
</event>
<event>
 8    1  0.1076043E+005  0.1043930E+01  0.7957747E-01            NaN
         13   -1    0    0    0    0  0.00000000000E+00  0.00000000000E+00  0.74505805969E-08  0.10566000000E+00  0.10566000000E+00 0.  1.
     999900   -1    0    0    0    0 -0.00000000000E+00 -0.00000000000E+00 -0.74505805969E-08  0.93827000000E+00  0.93827000000E+00 0.  1.
     999902    2    1    2    0    0 -0.24051764152E-01  0.81918153957E-02  0.16783550039E-02  0.10184661025E+01  0.10181477260E+01 0.  0.
     999903    2    3    3    0    0 -0.12221140570E+00  0.42206597345E-01 -0.18026849595E-01  0.13213624537E+00  0.20444938039E-01 0.  0.
         14    1    1    2    0    0  0.24051764152E-01 -0.81918153957E-02 -0.16783550039E-02  0.25463897459E-01  0.00000000000E+00 0.  1.
     999901    1    3    3    0    0  0.98159641551E-01 -0.34014781950E-01  0.19705204599E-01  0.88632985717E+00  0.88000000000E+00 0.  1.
        -11    1    4    4    0    0 -0.10134316364E+00  0.34622055158E-01 -0.22616595786E-01  0.10945727498E+00  0.51100000000E-03 0.  1.
         11    1    4    4    0    0 -0.20868242067E-01  0.75845421874E-02  0.45897461911E-02  0.22678970397E-01  0.51100000000E-03 0. -1.
</event>
<event>
 8    1  0.1076043E+005  0.1043930E+01  0.7957747E-01            NaN
         13   -1    0    0    0    0  0.00000000000E+00  0.00000000000E+00  0.74505805969E-08  0.10566000000E+00  0.10566000000E+00 0.  1.
     999900   -1    0    0    0    0 -0.00000000000E+00 -0.00000000000E+00 -0.74505805969E-08  0.93827000000E+00  0.93827000000E+00 0. -1.
     999902    2    1    2    0    0  0.12762979595E-01 -0.47001688441E-02  0.18803501411E-01  0.10207231713E+01  0.10204593257E+01 0.  0.
     999903    2    3    3    0    0  0.10732941723E+00 -0.40034287276E-01  0.65899334580E-01  0.13370043842E+00  0.20266646852E-01 0.  0.
         14    1    1    2    0    0 -0.12762979595E-01  0.47001688441E-02 -0.18803501411E-01  0.23206828750E-01  0.00000000000E+00 0. -1.
     999901    1    3    3    0    0 -0.94566437639E-01  0.35334118432E-01 -0.47095833169E-01  0.88702273283E+00  0.88000000000E+00 0. -1.
        -11    1    4    4    0    0  0.88554794845E-01 -0.33975022119E-01  0.45092267941E-01  0.10502298590E+00  0.51100000000E-03 0. -1.
         11    1    4    4    0    0  0.18774622389E-01 -0.60592651575E-02  0.20807066639E-01  0.28677452523E-01  0.51100000000E-03 0.  1.
</event>
<event>
 8    1  0.1076043E+005  0.1043930E+01  0.7957747E-01            NaN
         13   -1    0    0    0    0  0.00000000000E+00  0.00000000000E+00  0.74505805969E-08  0.10566000000E+00  0.10566000000E+00 0.  1.
     999900   -1    0    0    0    0 -0.00000000000E+00 -0.00000000000E+00 -0.74505805969E-08  0.93827000000E+00  0.93827000000E+00 0.  1.
     999902    2    1    2    0    0  0.68807402168E-02  0.36852364655E-02 -0.23316853094E-01  0.10193413605E+01  0.10190447527E+01 0.  0.
     999903    2    3    3    0    0  0.12131302842E+00 -0.21189065088E-01  0.35332367955E-01  0.12964859860E+00  0.19863422427E-01 0.  0.
         14    1    1    2    0    0 -0.68807402168E-02 -0.36852364655E-02  0.23316853094E-01  0.24588639490E-01  0.00000000000E+00 0.  1.
     999901    1    3    3    0    0 -0.11443228820E+00  0.24874301553E-01 -0.58649221049E-01  0.88969276191E+00  0.88000000000E+00 0.  1.
        -11    1    4    4    0    0  0.51342862456E-02 -0.54397511233E-02  0.19863416784E-02  0.77561886129E-02  0.51100000000E-03 0. -1.
         11    1    4    4    0    0  0.11617874217E+00 -0.15749313964E-01  0.33346026277E-01  0.12189240999E+00  0.51100000000E-03 0.  1.
</event>
<event>
 8    1  0.1076043E+005  0.1043930E+01  0.7957747E-01            NaN
         13   -1    0    0    0    0  0.00000000000E+00  0.00000000000E+00  0.74505805969E-08  0.10566000000E+00  0.10566000000E+00 0.  1.
     999900   -1    0    0    0    0 -0.00000000000E+00 -0.00000000000E+00 -0.74505805969E-08  0.93827000000E+00  0.93827000000E+00 0.  1.
     999902    2    1    2    0    0 -0.16420953949E-01  0.88219454944E-02  0.13926133406E-01  0.10206617460E+01  0.10203964858E+01 0.  0.
     999903    2    3    3    0    0  0.48888426051E-01 -0.10453108655E+00  0.56128113302E-01  0.12999052044E+00  0.20744735382E-01 0.  0.
         14    1    1    2    0    0  0.16420953949E-01 -0.88219454944E-02 -0.13926133406E-01  0.23268253964E-01  0.00000000000E+00 0.  1.
     999901    1    3    3    0    0 -0.65309380001E-01  0.11335303204E+00 -0.42201979897E-01  0.89067122559E+00  0.88000000000E+00 0. -1.
        -11    1    4    4    0    0  0.39888112617E-01 -0.70230327133E-01  0.46680116328E-01  0.93288020446E-01  0.51100000000E-03 0.  1.
         11    1    4    4    0    0  0.90003134346E-02 -0.34300759414E-01  0.94479969741E-02  0.36702499998E-01  0.51100000000E-03 0. -1.
</event>
<event>
 8    1  0.1076043E+005  0.1043930E+01  0.7957747E-01            NaN
         13   -1    0    0    0    0  0.00000000000E+00  0.00000000000E+00  0.74505805969E-08  0.10566000000E+00  0.10566000000E+00 0. -1.
     999900   -1    0    0    0    0 -0.00000000000E+00 -0.00000000000E+00 -0.74505805969E-08  0.93827000000E+00  0.93827000000E+00 0. -1.
     999902    2    1    2    0    0 -0.88320634444E-03 -0.19695658137E-01  0.47309339873E-02  0.10236548739E+01  0.10234540635E+01 0.  0.
     999903    2    3    3    0    0 -0.47665029153E-01  0.53481119337E-01  0.11033411666E+00  0.13309582929E+00  0.20216264407E-01 0.  0.
         14    1    1    2    0    0  0.88320634444E-03  0.19695658137E-01 -0.47309339873E-02  0.20275126122E-01  0.00000000000E+00 0.  1.
     999901    1    3    3    0    0  0.46781822808E-01 -0.73176777474E-01 -0.10560318267E+00  0.89055904459E+00  0.88000000000E+00 0. -1.
        -11    1    4    4    0    0 -0.43109492869E-01  0.35577862637E-01  0.85170739825E-01  0.10187506431E+00  0.51100000000E-03 0. -1.
         11    1    4    4    0    0 -0.45555362839E-02  0.17903256700E-01  0.25163376831E-01  0.31220764979E-01  0.51100000000E-03 0.  1.
</event>
<event>
 8    1  0.1076043E+005  0.1043930E+01  0.7957747E-01            NaN
         13   -1    0    0    0    0  0.00000000000E+00  0.00000000000E+00  0.74505805969E-08  0.10566000000E+00  0.10566000000E+00 0.  1.
     999900   -1    0    0    0    0 -0.00000000000E+00 -0.00000000000E+00 -0.74505805969E-08  0.93827000000E+00  0.93827000000E+00 0.  1.
     999902    2    1    2    0    0 -0.10977733748E-01 -0.18326037753E-01  0.81382049742E-02  0.10210698889E+01  0.10208139563E+01 0.  0.
     999903    2    3    3    0    0 -0.58821986641E-01 -0.11872680236E+00 -0.86417048165E-03  0.13402398886E+00  0.20139590060E-01 0.  0.
         14    1    1    2    0    0  0.10977733748E-01  0.18326037753E-01 -0.81382049742E-02  0.22860111071E-01  0.00000000000E+00 0. -1.
     999901    1    3    3    0    0  0.47844252892E-01  0.10040076461E+00  0.90023754558E-02  0.88704590007E+00  0.88000000000E+00 0. -1.
        -11    1    4    4    0    0 -0.77678399987E-02 -0.31639868586E-01 -0.51248522432E-02  0.32984024222E-01  0.51100000000E-03 0. -1.
         11    1    4    4    0    0 -0.51054146642E-01 -0.87086933775E-01  0.42606817615E-02  0.10103996464E+00  0.51100000000E-03 0.  1.
</event>
<event>
 8    1  0.1076043E+005  0.1043930E+01  0.7957747E-01            NaN
         13   -1    0    0    0    0  0.00000000000E+00  0.00000000000E+00  0.74505805969E-08  0.10566000000E+00  0.10566000000E+00 0. -1.
     999900   -1    0    0    0    0 -0.00000000000E+00 -0.00000000000E+00 -0.74505805969E-08  0.93827000000E+00  0.93827000000E+00 0. -1.
     999902    2    1    2    0    0 -0.37833811643E-02  0.17492267364E-01  0.12086849119E-01  0.10223340441E+01  0.10221059203E+01 0.  0.
     999903    2    3    3    0    0  0.22016254903E-01  0.13073914071E+00 -0.96561635827E-02  0.13443583249E+00  0.20057745859E-01 0.  0.
         14    1    1    2    0    0  0.37833811643E-02 -0.17492267364E-01 -0.12086849119E-01  0.21595955922E-01  0.00000000000E+00 0.  1.
     999901    1    3    3    0    0 -0.25799636068E-01 -0.11324687334E+00  0.21743012702E-01  0.88789821159E+00  0.88000000000E+00 0.  1.
        -11    1    4    4    0    0  0.17811823422E-01  0.49069250080E-01 -0.11770767332E-02  0.52217803359E-01  0.51100000000E-03 0. -1.
         11    1    4    4    0    0  0.42044314817E-02  0.81669890627E-01 -0.84790868496E-02  0.82218029129E-01  0.51100000000E-03 0.  1.
</event>
<event>
 8    1  0.1076043E+005  0.1043930E+01  0.7957747E-01            NaN
         13   -1    0    0    0    0  0.00000000000E+00  0.00000000000E+00  0.74505805969E-08  0.10566000000E+00  0.10566000000E+00 0.  1.
     999900   -1    0    0    0    0 -0.00000000000E+00 -0.00000000000E+00 -0.74505805969E-08  0.93827000000E+00  0.93827000000E+00 0. -1.
     999902    2    1    2    0    0  0.21265838652E-01 -0.21797622416E-02  0.98605220522E-02  0.10203881829E+01  0.10201165750E+01 0.  0.
     999903    2    3    3    0    0 -0.22579850024E-01  0.67092652605E-01 -0.10626657671E+00  0.12898108458E+00  0.18228033179E-01 0.  0.
         14    1    1    2    0    0 -0.21265838652E-01  0.21797622416E-02 -0.98605220522E-02  0.23541817095E-01  0.00000000000E+00 0. -1.
     999901    1    3    3    0    0  0.43845688676E-01 -0.69272414847E-01  0.11612709876E+00  0.89140709832E+00  0.88000000000E+00 0.  1.
        -11    1    4    4    0    0 -0.84462753964E-02  0.31692501546E-01 -0.64959845326E-01  0.72772225802E-01  0.51100000000E-03 0.  1.
         11    1    4    4    0    0 -0.14133574628E-01  0.35400151059E-01 -0.41306731383E-01  0.56208858780E-01  0.51100000000E-03 0. -1.
</event>
<event>
 8    1  0.1076043E+005  0.1043930E+01  0.7957747E-01            NaN
         13   -1    0    0    0    0  0.00000000000E+00  0.00000000000E+00  0.74505805969E-08  0.10566000000E+00  0.10566000000E+00 0. -1.
     999900   -1    0    0    0    0 -0.00000000000E+00 -0.00000000000E+00 -0.74505805969E-08  0.93827000000E+00  0.93827000000E+00 0. -1.
     999902    2    1    2    0    0 -0.66537214443E-02  0.24595855240E-02 -0.23903864057E-01  0.10189957608E+01  0.10186906518E+01 0.  0.
     999903    2    3    3    0    0  0.10820187150E+00  0.66081342613E-01 -0.16224978946E-01  0.12922135087E+00  0.18987331075E-01 0.  0.
         14    1    1    2    0    0  0.66537214443E-02 -0.24595855240E-02  0.23903864057E-01  0.24934239248E-01  0.00000000000E+00 0. -1.
     999901    1    3    3    0    0 -0.11485559294E+00 -0.63621757089E-01 -0.76788851115E-02  0.88977440988E+00  0.88000000000E+00 0.  1.
        -11    1    4    4    0    0  0.50637987462E-01  0.20057808698E-01 -0.82362016693E-02  0.55087363369E-01  0.51100000000E-03 0. -1.
         11    1    4    4    0    0  0.57563884037E-01  0.46023533915E-01 -0.79887772764E-02  0.74133987501E-01  0.51100000000E-03 0.  1.
</event>
<event>
 8    1  0.1076043E+005  0.1043930E+01  0.7957747E-01            NaN
         13   -1    0    0    0    0  0.00000000000E+00  0.00000000000E+00  0.74505805969E-08  0.10566000000E+00  0.10566000000E+00 0.  1.
     999900   -1    0    0    0    0 -0.00000000000E+00 -0.00000000000E+00 -0.74505805969E-08  0.93827000000E+00  0.93827000000E+00 0.  1.
     999902    2    1    2    0    0  0.17387199555E-01  0.13664464598E-01 -0.36157545426E-02  0.10215222785E+01  0.10212764853E+01 0.  0.
     999903    2    3    3    0    0 -0.54400713892E-01  0.14366015210E-01 -0.11722745247E+00  0.13131914743E+00  0.18347283333E-01 0.  0.
         14    1    1    2    0    0 -0.17387199555E-01 -0.13664464598E-01  0.36157545426E-02  0.22407721482E-01  0.00000000000E+00 0. -1.
     999901    1    3    3    0    0  0.71787913447E-01 -0.70155061148E-03  0.11361169792E+00  0.89020313109E+00  0.88000000000E+00 0. -1.
        -11    1    4    4    0    0 -0.41157924583E-01  0.13806421666E-01 -0.70957683352E-01  0.83185611634E-01  0.51100000000E-03 0. -1.
         11    1    4    4    0    0 -0.13242789310E-01  0.55959354392E-03 -0.46269769113E-01  0.48133535798E-01  0.51100000000E-03 0.  1.
</event>
<event>
 8    1  0.1076043E+005  0.1043930E+01  0.7957747E-01            NaN
         13   -1    0    0    0    0  0.00000000000E+00  0.00000000000E+00  0.74505805969E-08  0.10566000000E+00  0.10566000000E+00 0.  1.
     999900   -1    0    0    0    0 -0.00000000000E+00 -0.00000000000E+00 -0.74505805969E-08  0.93827000000E+00  0.93827000000E+00 0. -1.
     999902    2    1    2    0    0 -0.40815005113E-02 -0.76472136273E-02  0.26854328288E-01  0.10157113276E+01  0.10153192639E+01 0.  0.
     999903    2    3    3    0    0  0.23484680728E-01 -0.23113195763E-01  0.12402860325E+00  0.12979827847E+00  0.19461465056E-01 0.  0.
         14    1    1    2    0    0  0.40815005113E-02  0.76472136273E-02 -0.26854328288E-01  0.28218672373E-01  0.00000000000E+00 0. -1.
     999901    1    3    3    0    0 -0.27566181240E-01  0.15465982135E-01 -0.97174274963E-01  0.88591304916E+00  0.88000000000E+00 0. -1.
        -11    1    4    4    0    0 -0.49687114513E-03  0.25023052214E-02  0.16067172499E-01  0.16276472759E-01  0.51100000000E-03 0. -1.
         11    1    4    4    0    0  0.23981551874E-01 -0.25615500984E-01  0.10796143075E+00  0.11352180571E+00  0.51100000000E-03 0.  1.
</event>
<event>
 8    1  0.1076043E+005  0.1043930E+01  0.7957747E-01            NaN
         13   -1    0    0    0    0  0.00000000000E+00  0.00000000000E+00  0.74505805969E-08  0.10566000000E+00  0.10566000000E+00 0. -1.
     999900   -1    0    0    0    0 -0.00000000000E+00 -0.00000000000E+00 -0.74505805969E-08  0.93827000000E+00  0.93827000000E+00 0. -1.
     999902    2    1    2    0    0 -0.21587250813E-01 -0.82686674164E-02 -0.85102714673E-02  0.10192965882E+01  0.10189988860E+01 0.  0.
     999903    2    3    3    0    0 -0.37269888763E-01  0.64904282027E-01  0.10445674772E+00  0.12892488314E+00  0.10430863572E-01 0.  0.
         14    1    1    2    0    0  0.21587250813E-01  0.82686674164E-02  0.85102714673E-02  0.24633411842E-01  0.00000000000E+00 0.  1.
     999901    1    3    3    0    0  0.15682637949E-01 -0.73172949443E-01 -0.11296701919E+00  0.89037170501E+00  0.88000000000E+00 0. -1.
        -11    1    4    4    0    0 -0.49057034528E-02  0.16016644559E-01  0.27020549550E-01  0.31795755193E-01  0.51100000000E-03 0. -1.
         11    1    4    4    0    0 -0.32364185310E-01  0.48887637467E-01  0.77436198175E-01  0.97129127951E-01  0.51100000000E-03 0.  1.
</event>
<event>
 8    1  0.1076043E+005  0.1043930E+01  0.7957747E-01            NaN
         13   -1    0    0    0    0  0.00000000000E+00  0.00000000000E+00  0.74505805969E-08  0.10566000000E+00  0.10566000000E+00 0.  1.
     999900   -1    0    0    0    0 -0.00000000000E+00 -0.00000000000E+00 -0.74505805969E-08  0.93827000000E+00  0.93827000000E+00 0. -1.
     999902    2    1    2    0    0  0.21338258779E-01 -0.53486517774E-02  0.63494772545E-02  0.10210335980E+01  0.10207768429E+01 0.  0.
     999903    2    3    3    0    0 -0.28951187321E-01  0.11569297214E+00 -0.46991752224E-01  0.12972815659E+00  0.19953315110E-01 0.  0.
         14    1    1    2    0    0 -0.21338258779E-01  0.53486517774E-02 -0.63494772545E-02  0.22896402009E-01  0.00000000000E+00 0. -1.
     999901    1    3    3    0    0  0.50289446100E-01 -0.12104162392E+00  0.53341229478E-01  0.89130544140E+00  0.88000000000E+00 0. -1.
        -11    1    4    4    0    0 -0.92783878050E-02  0.76464331917E-01 -0.30375525422E-01  0.82799856289E-01  0.51100000000E-03 0.  1.
         11    1    4    4    0    0 -0.19672799516E-01  0.39228640227E-01 -0.16616226802E-01  0.46928300299E-01  0.51100000000E-03 0. -1.
</event>
<event>
 8    1  0.1076043E+005  0.1043930E+01  0.7957747E-01            NaN
         13   -1    0    0    0    0  0.00000000000E+00  0.00000000000E+00  0.74505805969E-08  0.10566000000E+00  0.10566000000E+00 0. -1.
     999900   -1    0    0    0    0 -0.00000000000E+00 -0.00000000000E+00 -0.74505805969E-08  0.93827000000E+00  0.93827000000E+00 0.  1.
     999902    2    1    2    0    0 -0.14184100487E-01 -0.18620737526E-01  0.22127844217E-02  0.10204179395E+01  0.10201470258E+01 0.  0.
     999903    2    3    3    0    0  0.48186443957E-01 -0.51719708454E-01  0.10856596132E+00  0.13120670201E+00  0.20779053683E-01 0.  0.
         14    1    1    2    0    0  0.14184100487E-01  0.18620737526E-01 -0.22127844217E-02  0.23512060470E-01  0.00000000000E+00 0. -1.
     999901    1    3    3    0    0 -0.62370544445E-01  0.33098970928E-01 -0.10635317690E+00  0.88921123752E+00  0.88000000000E+00 0.  1.
        -11    1    4    4    0    0  0.29613106525E-01 -0.17141877106E-01  0.55464248740E-01  0.65171497130E-01  0.51100000000E-03 0.  1.
         11    1    4    4    0    0  0.18573337432E-01 -0.34577831348E-01  0.53101712580E-01  0.66035204883E-01  0.51100000000E-03 0. -1.
</event>
<event>
 7    1  0.1076043E+005  0.1043930E+01  0.7957747E-01            NaN
         13   -1    0    0    0    0  0.00000000000E+00  0.00000000000E+00  0.74505805969E-08  0.10566000000E+00  0.10566000000E+00 0. -1.
     999900   -1    0    0    0    0 -0.00000000000E+00 -0.00000000000E+00 -0.74505805969E-08  0.93827000000E+00  0.93827000000E+00 0.  1.
     999903    2    1    2    0    0 -0.76061396675E-01  0.24288376357E-01  0.53671788014E-01  0.99732694938E-01  0.26280949767E-01 0.  0.
         14    1    1    2    0    0  0.43278444277E-01  0.39330808778E-01  0.85503677905E-02  0.59101988524E-01  0.00000000000E+00 0.  1.
     999901    1    1    2    0    0  0.32782952399E-01 -0.63619185135E-01 -0.62222155804E-01  0.88509531654E+00  0.88000000000E+00 0.  1.
        -11    1    3    3    0    0 -0.16541395264E-01  0.70263685602E-02  0.35958843010E-03  0.17982714958E-01  0.51100000000E-03 0.  1.
         11    1    3    3    0    0 -0.59520001411E-01  0.17262007797E-01  0.53312199584E-01  0.81749979979E-01  0.51100000000E-03 0. -1.
</event>
<event>
 8    1  0.1076043E+005  0.1043930E+01  0.7957747E-01            NaN
         13   -1    0    0    0    0  0.00000000000E+00  0.00000000000E+00  0.74505805969E-08  0.10566000000E+00  0.10566000000E+00 0. -1.
     999900   -1    0    0    0    0 -0.00000000000E+00 -0.00000000000E+00 -0.74505805969E-08  0.93827000000E+00  0.93827000000E+00 0. -1.
     999902    2    1    2    0    0 -0.19996733735E-01 -0.31781013402E-02 -0.12829318243E-01  0.10199599959E+01  0.10196782984E+01 0.  0.
     999903    2    3    3    0    0 -0.10736819428E-01  0.12673951926E+00 -0.15494962865E-01  0.13036939357E+00  0.24039548067E-01 0.  0.
         14    1    1    2    0    0  0.19996733735E-01  0.31781013402E-02  0.12829318243E-01  0.23970004063E-01  0.00000000000E+00 0. -1.
     999901    1    3    3    0    0 -0.92599143063E-02 -0.12991762060E+00  0.26656446226E-02  0.88959060237E+00  0.88000000000E+00 0. -1.
        -11    1    4    4    0    0 -0.68504509004E-02  0.13940574895E-01  0.34601545727E-02  0.15921749170E-01  0.51100000000E-03 0.  1.
         11    1    4    4    0    0 -0.38863685281E-02  0.11279894437E+00 -0.18955117438E-01  0.11444764440E+00  0.51100000000E-03 0. -1.
</event>
<event>
 8    1  0.1076043E+005  0.1043930E+01  0.7957747E-01            NaN
         13   -1    0    0    0    0  0.00000000000E+00  0.00000000000E+00  0.74505805969E-08  0.10566000000E+00  0.10566000000E+00 0. -1.
     999900   -1    0    0    0    0 -0.00000000000E+00 -0.00000000000E+00 -0.74505805969E-08  0.93827000000E+00  0.93827000000E+00 0.  1.
     999902    2    1    2    0    0  0.15562822388E-01 -0.72226239408E-02 -0.16214679279E-01  0.10203231459E+01  0.10200500176E+01 0.  0.
     999903    2    3    3    0    0  0.63944448945E-02 -0.94774636238E-01  0.86638415476E-01  0.12997030958E+00  0.19051134804E-01 0.  0.
         14    1    1    2    0    0 -0.15562822388E-01  0.72226239408E-02  0.16214679279E-01  0.23606854119E-01  0.00000000000E+00 0. -1.
     999901    1    3    3    0    0  0.91683774939E-02  0.87552012297E-01 -0.10285309476E+00  0.89035283630E+00  0.88000000000E+00 0.  1.
        -11    1    4    4    0    0  0.11509413073E-01 -0.72083302680E-01  0.59128942339E-01  0.93941269194E-01  0.51100000000E-03 0.  1.
         11    1    4    4    0    0 -0.51149681784E-02 -0.22691333557E-01  0.27509473137E-01  0.36029040389E-01  0.51100000000E-03 0. -1.
</event>
<event>
 8    1  0.1076043E+005  0.1043930E+01  0.7957747E-01            NaN
         13   -1    0    0    0    0  0.00000000000E+00  0.00000000000E+00  0.74505805969E-08  0.10566000000E+00  0.10566000000E+00 0. -1.
     999900   -1    0    0    0    0 -0.00000000000E+00 -0.00000000000E+00 -0.74505805969E-08  0.93827000000E+00  0.93827000000E+00 0.  1.
     999902    2    1    2    0    0  0.20529997654E-02  0.20414295457E-01  0.11915774329E-01  0.10202035602E+01  0.10199276250E+01 0.  0.
     999903    2    3    3    0    0 -0.22034802057E-01 -0.11948129165E+00 -0.33568162509E-01  0.12766796653E+00  0.20272557461E-01 0.  0.
         14    1    1    2    0    0 -0.20529997654E-02 -0.20414295457E-01 -0.11915774329E-01  0.23726439785E-01  0.00000000000E+00 0. -1.
     999901    1    3    3    0    0  0.24087801823E-01  0.13989558711E+00  0.45483936837E-01  0.89253559369E+00  0.88000000000E+00 0.  1.
        -11    1    4    4    0    0 -0.13711988777E-01 -0.10544204383E+00 -0.25012027137E-01  0.10923326355E+00  0.51100000000E-03 0.  1.
         11    1    4    4    0    0 -0.83228132807E-02 -0.14039247823E-01 -0.85561353714E-02  0.18434702977E-01  0.51100000000E-03 0. -1.
</event>
<event>
 8    1  0.1076043E+005  0.1043930E+01  0.7957747E-01            NaN
         13   -1    0    0    0    0  0.00000000000E+00  0.00000000000E+00  0.74505805969E-08  0.10566000000E+00  0.10566000000E+00 0. -1.
     999900   -1    0    0    0    0 -0.00000000000E+00 -0.00000000000E+00 -0.74505805969E-08  0.93827000000E+00  0.93827000000E+00 0.  1.
     999902    2    1    2    0    0  0.17532877474E-01  0.13744990310E-01 -0.79204412580E-02  0.10202855516E+01  0.10200115425E+01 0.  0.
     999903    2    3    3    0    0  0.93940588022E-01 -0.31336930719E-01  0.83294394978E-01  0.13113389737E+00  0.21243952105E-01 0.  0.
         14    1    1    2    0    0 -0.17532877474E-01 -0.13744990310E-01  0.79204412580E-02  0.23644448415E-01  0.00000000000E+00 0. -1.
     999901    1    3    3    0    0 -0.76407710548E-01  0.45081921029E-01 -0.91214836236E-01  0.88915165421E+00  0.88000000000E+00 0.  1.
        -11    1    4    4    0    0  0.32605801780E-01 -0.16542349829E-02  0.33152353318E-01  0.46531864938E-01  0.51100000000E-03 0. -1.
         11    1    4    4    0    0  0.61334786243E-01 -0.29682695736E-01  0.50142041661E-01  0.84602032437E-01  0.51100000000E-03 0.  1.
</event>
<event>
 8    1  0.1076043E+005  0.1043930E+01  0.7957747E-01            NaN
         13   -1    0    0    0    0  0.00000000000E+00  0.00000000000E+00  0.74505805969E-08  0.10566000000E+00  0.10566000000E+00 0. -1.
     999900   -1    0    0    0    0 -0.00000000000E+00 -0.00000000000E+00 -0.74505805969E-08  0.93827000000E+00  0.93827000000E+00 0. -1.
     999902    2    1    2    0    0 -0.94735573366E-02  0.13352518345E-01  0.92960944690E-02  0.10251030139E+01  0.10249301116E+01 0.  0.
     999903    2    3    3    0    0  0.78133145907E-01 -0.10131292367E+00 -0.29731104935E-01  0.13249659424E+00  0.17387118590E-01 0.  0.
         14    1    1    2    0    0  0.94735573366E-02 -0.13352518345E-01 -0.92960944690E-02  0.18826986141E-01  0.00000000000E+00 0.  1.
     999901    1    3    3    0    0 -0.87606703243E-01  0.11466544202E+00  0.39027199404E-01  0.89260641962E+00  0.88000000000E+00 0.  1.
        -11    1    4    4    0    0  0.63392411146E-01 -0.74463187730E-01 -0.28397064053E-01  0.10183328771E+00  0.51100000000E-03 0. -1.
         11    1    4    4    0    0  0.14740734760E-01 -0.26849735944E-01 -0.13340408819E-02  0.30663306534E-01  0.51100000000E-03 0.  1.
</event>
<event>
 8    1  0.1076043E+005  0.1043930E+01  0.7957747E-01            NaN
         13   -1    0    0    0    0  0.00000000000E+00  0.00000000000E+00  0.74505805969E-08  0.10566000000E+00  0.10566000000E+00 0.  1.
     999900   -1    0    0    0    0 -0.00000000000E+00 -0.00000000000E+00 -0.74505805969E-08  0.93827000000E+00  0.93827000000E+00 0.  1.
     999902    2    1    2    0    0 -0.57855896750E-02 -0.15055693600E-01 -0.17312302744E-01  0.10202685803E+01  0.10199941731E+01 0.  0.
     999903    2    3    3    0    0 -0.73938140592E-04  0.65037696015E-01  0.10811836209E+00  0.12775503655E+00  0.20046490299E-01 0.  0.
         14    1    1    2    0    0  0.57855896750E-02  0.15055693600E-01  0.17312302744E-01  0.23661419737E-01  0.00000000000E+00 0.  1.
     999901    1    3    3    0    0 -0.57116515344E-02 -0.80093389615E-01 -0.12543066484E+00  0.89251354371E+00  0.88000000000E+00 0.  1.
        -11    1    4    4    0    0  0.39996859228E-02  0.57722430444E-01  0.82279046837E-01  0.10058816597E+00  0.51100000000E-03 0.  1.
         11    1    4    4    0    0 -0.40736240634E-02  0.73152655709E-02  0.25839315257E-01  0.27166870584E-01  0.51100000000E-03 0. -1.
</event>
<event>
 8    1  0.1076043E+005  0.1043930E+01  0.7957747E-01            NaN
         13   -1    0    0    0    0  0.00000000000E+00  0.00000000000E+00  0.74505805969E-08  0.10566000000E+00  0.10566000000E+00 0.  1.
     999900   -1    0    0    0    0 -0.00000000000E+00 -0.00000000000E+00 -0.74505805969E-08  0.93827000000E+00  0.93827000000E+00 0. -1.
     999902    2    1    2    0    0  0.28366039006E-02  0.20068777064E-01 -0.11009098366E-01  0.10208648232E+01  0.10206042254E+01 0.  0.
     999903    2    3    3    0    0  0.38338079284E-01  0.10732793071E+00 -0.67665269171E-01  0.13402524562E+00  0.19876739603E-01 0.  0.
         14    1    1    2    0    0 -0.28366039006E-02 -0.20068777064E-01  0.11009098366E-01  0.23065176812E-01  0.00000000000E+00 0.  1.
     999901    1    3    3    0    0 -0.35501475383E-01 -0.87259153650E-01  0.56656170805E-01  0.88683957757E+00  0.88000000000E+00 0.  1.
        -11    1    4    4    0    0  0.20255922986E-01  0.31072141549E-01 -0.25669594501E-01  0.45110637319E-01  0.51100000000E-03 0. -1.
         11    1    4    4    0    0  0.18082156298E-01  0.76255789164E-01 -0.41995674670E-01  0.88914608302E-01  0.51100000000E-03 0.  1.
</event>
<event>
 8    1  0.1076043E+005  0.1043930E+01  0.7957747E-01            NaN
         13   -1    0    0    0    0  0.00000000000E+00  0.00000000000E+00  0.74505805969E-08  0.10566000000E+00  0.10566000000E+00 0. -1.
     999900   -1    0    0    0    0 -0.00000000000E+00 -0.00000000000E+00 -0.74505805969E-08  0.93827000000E+00  0.93827000000E+00 0. -1.
     999902    2    1    2    0    0  0.21891565715E-02  0.12104264898E-01  0.19861211248E-01  0.10205682075E+01  0.10203007855E+01 0.  0.
     999903    2    3    3    0    0 -0.12534612904E+00  0.28024454296E-01  0.16929331329E-01  0.13122727323E+00  0.20903896190E-01 0.  0.
         14    1    1    2    0    0 -0.21891565715E-02 -0.12104264898E-01 -0.19861211248E-01  0.23361792471E-01  0.00000000000E+00 0.  1.
     999901    1    3    3    0    0  0.12753528561E+00 -0.15920189398E-01  0.29318799183E-02  0.88934093430E+00  0.88000000000E+00 0.  1.
        -11    1    4    4    0    0 -0.28034890525E-01 -0.24460562035E-02  0.28954404159E-02  0.28294574990E-01  0.51100000000E-03 0. -1.
         11    1    4    4    0    0 -0.97311238513E-01  0.30470510500E-01  0.14033890914E-01  0.10293269824E+00  0.51100000000E-03 0.  1.
</event>
<event>
 8    1  0.1076043E+005  0.1043930E+01  0.7957747E-01            NaN
         13   -1    0    0    0    0  0.00000000000E+00  0.00000000000E+00  0.74505805969E-08  0.10566000000E+00  0.10566000000E+00 0. -1.
     999900   -1    0    0    0    0 -0.00000000000E+00 -0.00000000000E+00 -0.74505805969E-08  0.93827000000E+00  0.93827000000E+00 0.  1.
     999902    2    1    2    0    0  0.15490602841E-01  0.17759614070E-01  0.14169473015E-02  0.10203213065E+01  0.10200481352E+01 0.  0.
     999903    2    3    3    0    0  0.54938176502E-01  0.10236323172E+00 -0.61902469820E-01  0.13312164930E+00  0.19824815139E-01 0.  0.
         14    1    1    2    0    0 -0.15490602841E-01 -0.17759614070E-01 -0.14169473015E-02  0.23608693483E-01  0.00000000000E+00 0. -1.
     999901    1    3    3    0    0 -0.39447573660E-01 -0.84603617655E-01  0.63319417121E-01  0.88719965722E+00  0.88000000000E+00 0. -1.
        -11    1    4    4    0    0  0.24217262653E-01  0.37881592351E-01 -0.34271939601E-01  0.56535986897E-01  0.51100000000E-03 0. -1.
         11    1    4    4    0    0  0.30720913849E-01  0.64481639374E-01 -0.27630530219E-01  0.76585662400E-01  0.51100000000E-03 0.  1.
</event>
<event>
 8    1  0.1076043E+005  0.1043930E+01  0.7957747E-01            NaN
         13   -1    0    0    0    0  0.00000000000E+00  0.00000000000E+00  0.74505805969E-08  0.10566000000E+00  0.10566000000E+00 0.  1.
     999900   -1    0    0    0    0 -0.00000000000E+00 -0.00000000000E+00 -0.74505805969E-08  0.93827000000E+00  0.93827000000E+00 0. -1.
     999902    2    1    2    0    0  0.11691518424E-01  0.12562825338E-01  0.15520518318E-01  0.10207912301E+01  0.10205289475E+01 0.  0.
     999903    2    3    3    0    0  0.29910507629E-01 -0.98430012286E-01  0.78933167753E-01  0.13136866142E+00  0.21075446538E-01 0.  0.
         14    1    1    2    0    0 -0.11691518424E-01 -0.12562825338E-01 -0.15520518318E-01  0.23138769898E-01  0.00000000000E+00 0. -1.
     999901    1    3    3    0    0 -0.18218989205E-01  0.11099283762E+00 -0.63412649435E-01  0.88942256868E+00  0.88000000000E+00 0. -1.
        -11    1    4    4    0    0  0.15510075671E-02 -0.30549818907E-01  0.31053681528E-01  0.43592308004E-01  0.51100000000E-03 0. -1.
         11    1    4    4    0    0  0.28359500062E-01 -0.67880193379E-01  0.47879486225E-01  0.87776353416E-01  0.51100000000E-03 0.  1.
</event>
<event>
 8    1  0.1076043E+005  0.1043930E+01  0.7957747E-01            NaN
         13   -1    0    0    0    0  0.00000000000E+00  0.00000000000E+00  0.74505805969E-08  0.10566000000E+00  0.10566000000E+00 0.  1.
     999900   -1    0    0    0    0 -0.00000000000E+00 -0.00000000000E+00 -0.74505805969E-08  0.93827000000E+00  0.93827000000E+00 0.  1.
     999902    2    1    2    0    0 -0.68973754266E-02 -0.22679777037E-01 -0.62253611980E-02  0.10194207936E+01  0.10191261224E+01 0.  0.
     999903    2    3    3    0    0 -0.77736509818E-01  0.96988608205E-01 -0.24496259853E-01  0.12831331913E+00  0.20358930236E-01 0.  0.
         14    1    1    2    0    0  0.68973754266E-02  0.22679777037E-01  0.62253611980E-02  0.24509206357E-01  0.00000000000E+00 0. -1.
     999901    1    3    3    0    0  0.70839134391E-01 -0.11966838524E+00  0.18270898655E-01  0.89110747451E+00  0.88000000000E+00 0. -1.
        -11    1    4    4    0    0 -0.76962898330E-02  0.14965433920E-01 -0.97355961238E-02  0.19448394343E-01  0.51100000000E-03 0. -1.
         11    1    4    4    0    0 -0.70040219985E-01  0.82023174284E-01 -0.14760663730E-01  0.10886492479E+00  0.51100000000E-03 0.  1.
</event>
<event>
 8    1  0.1076043E+005  0.1043930E+01  0.7957747E-01            NaN
         13   -1    0    0    0    0  0.00000000000E+00  0.00000000000E+00  0.74505805969E-08  0.10566000000E+00  0.10566000000E+00 0. -1.
     999900   -1    0    0    0    0 -0.00000000000E+00 -0.00000000000E+00 -0.74505805969E-08  0.93827000000E+00  0.93827000000E+00 0. -1.
     999902    2    1    2    0    0  0.10359101218E-01  0.20360466479E-01 -0.47345434338E-02  0.10206002877E+01  0.10203336081E+01 0.  0.
     999903    2    3    3    0    0  0.18540372012E-01 -0.11417421364E+00 -0.53532399896E-01  0.12900186683E+00  0.19906465065E-01 0.  0.
         14    1    1    2    0    0 -0.10359101218E-01 -0.20360466479E-01  0.47345434338E-02  0.23329712275E-01  0.00000000000E+00 0.  1.
     999901    1    3    3    0    0 -0.81812707946E-02  0.13453468012E+00  0.48797856463E-01  0.89159842090E+00  0.88000000000E+00 0. -1.
        -11    1    4    4    0    0 -0.25721312721E-02 -0.16613832720E-01 -0.13036766189E-01  0.21280359269E-01  0.51100000000E-03 0. -1.
         11    1    4    4    0    0  0.21112503285E-01 -0.97560380924E-01 -0.40495633707E-01  0.10772150756E+00  0.51100000000E-03 0.  1.
</event>
<event>
 8    1  0.1076043E+005  0.1043930E+01  0.7957747E-01            NaN
         13   -1    0    0    0    0  0.00000000000E+00  0.00000000000E+00  0.74505805969E-08  0.10566000000E+00  0.10566000000E+00 0. -1.
     999900   -1    0    0    0    0 -0.00000000000E+00 -0.00000000000E+00 -0.74505805969E-08  0.93827000000E+00  0.93827000000E+00 0. -1.
     999902    2    1    2    0    0 -0.13153642713E-03  0.14271600626E-01 -0.19321320475E-01  0.10199089819E+01  0.10196260697E+01 0.  0.
     999903    2    3    3    0    0 -0.59741674515E-01 -0.87278677224E-01 -0.73606330470E-01  0.13040761044E+00  0.20040404288E-01 0.  0.
         14    1    1    2    0    0  0.13153642713E-03 -0.14271600626E-01  0.19321320475E-01  0.24021018113E-01  0.00000000000E+00 0. -1.
     999901    1    3    3    0    0  0.59610138088E-01  0.10155027785E+00  0.54285009994E-01  0.88950137145E+00  0.88000000000E+00 0.  1.
        -11    1    4    4    0    0 -0.41686295939E-01 -0.44643686073E-01 -0.37332137411E-01  0.71587398193E-01  0.51100000000E-03 0.  1.
         11    1    4    4    0    0 -0.18055378576E-01 -0.42634991150E-01 -0.36274193059E-01  0.58820212249E-01  0.51100000000E-03 0. -1.
</event>
<event>
 8    1  0.1076043E+005  0.1043930E+01  0.7957747E-01            NaN
         13   -1    0    0    0    0  0.00000000000E+00  0.00000000000E+00  0.74505805969E-08  0.10566000000E+00  0.10566000000E+00 0.  1.
     999900   -1    0    0    0    0 -0.00000000000E+00 -0.00000000000E+00 -0.74505805969E-08  0.93827000000E+00  0.93827000000E+00 0. -1.
     999902    2    1    2    0    0 -0.14410479101E-01  0.10554090603E-01 -0.16501134365E-01  0.10196125542E+01  0.10193225311E+01 0.  0.
     999903    2    3    3    0    0  0.83773577893E-02  0.11025894348E+00  0.65440380753E-01  0.12990768451E+00  0.19140227809E-01 0.  0.
         14    1    1    2    0    0  0.14410479101E-01 -0.10554090603E-01  0.16501134365E-01  0.24317445831E-01  0.00000000000E+00 0.  1.
     999901    1    3    3    0    0 -0.22787836891E-01 -0.99704852878E-01 -0.81941515118E-01  0.88970486966E+00  0.88000000000E+00 0.  1.
        -11    1    4    4    0    0 -0.45317611993E-02  0.35438721671E-01  0.27124201619E-01  0.44860041102E-01  0.51100000000E-03 0. -1.
         11    1    4    4    0    0  0.12909118989E-01  0.74820221809E-01  0.38316179134E-01  0.85047643407E-01  0.51100000000E-03 0.  1.
</event>
<event>
 8    1  0.1076043E+005  0.1043930E+01  0.7957747E-01            NaN
         13   -1    0    0    0    0  0.00000000000E+00  0.00000000000E+00  0.74505805969E-08  0.10566000000E+00  0.10566000000E+00 0. -1.
     999900   -1    0    0    0    0 -0.00000000000E+00 -0.00000000000E+00 -0.74505805969E-08  0.93827000000E+00  0.93827000000E+00 0.  1.
     999902    2    1    2    0    0  0.87667866160E-02 -0.61707760659E-02 -0.21098153851E-01  0.10202642627E+01  0.10199897542E+01 0.  0.
     999903    2    3    3    0    0  0.22297833517E-01 -0.10267901191E+00 -0.79068961451E-01  0.13298891462E+00  0.19848876069E-01 0.  0.
         14    1    1    2    0    0 -0.87667866160E-02  0.61707760659E-02  0.21098153851E-01  0.23665737275E-01  0.00000000000E+00 0. -1.
     999901    1    3    3    0    0 -0.13531046901E-01  0.96508235845E-01  0.57970807600E-01  0.88727534810E+00  0.88000000000E+00 0. -1.
        -11    1    4    4    0    0 -0.22605464851E-02 -0.11963066056E-01 -0.14612868706E-01  0.19026877639E-01  0.51100000000E-03 0. -1.
         11    1    4    4    0    0  0.24558380002E-01 -0.90715945855E-01 -0.64456092745E-01  0.11396203698E+00  0.51100000000E-03 0.  1.
</event>
<event>
 8    1  0.1076043E+005  0.1043930E+01  0.7957747E-01            NaN
         13   -1    0    0    0    0  0.00000000000E+00  0.00000000000E+00  0.74505805969E-08  0.10566000000E+00  0.10566000000E+00 0. -1.
     999900   -1    0    0    0    0 -0.00000000000E+00 -0.00000000000E+00 -0.74505805969E-08  0.93827000000E+00  0.93827000000E+00 0. -1.
     999902    2    1    2    0    0 -0.18228803089E-01 -0.14285304213E-01  0.78622418783E-02  0.10194724035E+01  0.10191789870E+01 0.  0.
     999903    2    3    3    0    0  0.41243376190E-02 -0.11512988291E+00  0.60899911072E-01  0.13184506825E+00  0.20060477437E-01 0.  0.
         14    1    1    2    0    0  0.18228803089E-01  0.14285304213E-01 -0.78622418783E-02  0.24457596486E-01  0.00000000000E+00 0. -1.
     999901    1    3    3    0    0 -0.22353140708E-01  0.10084457869E+00 -0.53037669194E-01  0.88762733526E+00  0.88000000000E+00 0.  1.
        -11    1    4    4    0    0  0.53872328290E-02 -0.11616893885E-01  0.27427952218E-02  0.13105668534E-01  0.51100000000E-03 0.  1.
         11    1    4    4    0    0 -0.12628952101E-02 -0.10351298902E+00  0.58157115850E-01  0.11873939972E+00  0.51100000000E-03 0. -1.
</event>
<event>
 8    1  0.1076043E+005  0.1043930E+01  0.7957747E-01            NaN
         13   -1    0    0    0    0  0.00000000000E+00  0.00000000000E+00  0.74505805969E-08  0.10566000000E+00  0.10566000000E+00 0. -1.
     999900   -1    0    0    0    0 -0.00000000000E+00 -0.00000000000E+00 -0.74505805969E-08  0.93827000000E+00  0.93827000000E+00 0. -1.
     999902    2    1    2    0    0  0.21075002245E-01 -0.29202138812E-02 -0.12111893794E-01  0.10194477342E+01  0.10191537182E+01 0.  0.
     999903    2    3    3    0    0 -0.21565588959E-01 -0.60447411483E-01 -0.11137490259E+00  0.13097671979E+00  0.25131017069E-01 0.  0.
         14    1    1    2    0    0 -0.21075002245E-01  0.29202138812E-02  0.12111893794E-01  0.24482265827E-01  0.00000000000E+00 0. -1.
     999901    1    3    3    0    0  0.42640591203E-01  0.57527197602E-01  0.99263008793E-01  0.88847101438E+00  0.88000000000E+00 0. -1.
        -11    1    4    4    0    0  0.52690625896E-02 -0.16973126577E-01 -0.31036490621E-01  0.35768350779E-01  0.51100000000E-03 0. -1.
         11    1    4    4    0    0 -0.26834651548E-01 -0.43474284907E-01 -0.80338411966E-01  0.95208369013E-01  0.51100000000E-03 0.  1.
</event>
<event>
 7    1  0.1076043E+005  0.1043930E+01  0.7957747E-01            NaN
         13   -1    0    0    0    0  0.00000000000E+00  0.00000000000E+00  0.74505805969E-08  0.10566000000E+00  0.10566000000E+00 0.  1.
     999900   -1    0    0    0    0 -0.00000000000E+00 -0.00000000000E+00 -0.74505805969E-08  0.93827000000E+00  0.93827000000E+00 0.  1.
     999903    2    1    2    0    0 -0.31460415967E-01  0.43014237855E-01 -0.70289238688E-01  0.90551802332E-01  0.20471184603E-01 0.  0.
         14    1    1    2    0    0 -0.24978211287E-01 -0.31705313405E-01 -0.48981191005E-01  0.63468850702E-01  0.00000000000E+00 0. -1.
     999901    1    1    2    0    0  0.56438627255E-01 -0.11308924450E-01  0.11927042969E+00  0.88990934697E+00  0.88000000000E+00 0. -1.
        -11    1    3    3    0    0 -0.49733960030E-02  0.21115889016E-01 -0.35780687101E-01  0.41846554544E-01  0.51100000000E-03 0.  1.
         11    1    3    3    0    0 -0.26487019964E-01  0.21898348839E-01 -0.34508551587E-01  0.48705247788E-01  0.51100000000E-03 0. -1.
</event>
<event>
 8    1  0.1076043E+005  0.1043930E+01  0.7957747E-01            NaN
         13   -1    0    0    0    0  0.00000000000E+00  0.00000000000E+00  0.74505805969E-08  0.10566000000E+00  0.10566000000E+00 0.  1.
     999900   -1    0    0    0    0 -0.00000000000E+00 -0.00000000000E+00 -0.74505805969E-08  0.93827000000E+00  0.93827000000E+00 0. -1.
     999902    2    1    2    0    0 -0.15979598722E-01 -0.17814776252E-02  0.17545863699E-01  0.10201312906E+01  0.10198536520E+01 0.  0.
     999903    2    3    3    0    0  0.72547661790E-02  0.95621051825E-01  0.87960967633E-01  0.13165766951E+00  0.20014817717E-01 0.  0.
         14    1    1    2    0    0  0.15979598722E-01  0.17814776252E-02 -0.17545863699E-01  0.23798709436E-01  0.00000000000E+00 0. -1.
     999901    1    3    3    0    0 -0.23234364901E-01 -0.97402529451E-01 -0.70415103933E-01  0.88847362106E+00  0.88000000000E+00 0. -1.
        -11    1    4    4    0    0  0.14088065192E-01  0.70182250517E-01  0.62776380789E-01  0.95211117914E-01  0.51100000000E-03 0. -1.
         11    1    4    4    0    0 -0.68332990133E-02  0.25438801308E-01  0.25184586844E-01  0.36446551591E-01  0.51100000000E-03 0.  1.
</event>
<event>
 8    1  0.1076043E+005  0.1043930E+01  0.7957747E-01            NaN
         13   -1    0    0    0    0  0.00000000000E+00  0.00000000000E+00  0.74505805969E-08  0.10566000000E+00  0.10566000000E+00 0. -1.
     999900   -1    0    0    0    0 -0.00000000000E+00 -0.00000000000E+00 -0.74505805969E-08  0.93827000000E+00  0.93827000000E+00 0. -1.
     999902    2    1    2    0    0 -0.14769971325E-01  0.12461353039E-01 -0.11485060869E-01  0.10214501424E+01  0.10212027465E+01 0.  0.
     999903    2    3    3    0    0  0.64860640855E-01 -0.19397617125E-01  0.10822095900E+00  0.12921387353E+00  0.20031946096E-01 0.  0.
         14    1    1    2    0    0  0.14769971325E-01 -0.12461353039E-01  0.11485060869E-01  0.22479857554E-01  0.00000000000E+00 0.  1.
     999901    1    3    3    0    0 -0.79630612180E-01  0.31858970164E-01 -0.11970601987E+00  0.89223626892E+00  0.88000000000E+00 0. -1.
        -11    1    4    4    0    0  0.49322442681E-01 -0.15470804773E-01  0.64588963679E-01  0.82728740487E-01  0.51100000000E-03 0.  1.
         11    1    4    4    0    0  0.15538198174E-01 -0.39268123520E-02  0.43631995317E-01  0.46485133043E-01  0.51100000000E-03 0. -1.
</event>
<event>
 8    1  0.1076043E+005  0.1043930E+01  0.7957747E-01            NaN
         13   -1    0    0    0    0  0.00000000000E+00  0.00000000000E+00  0.74505805969E-08  0.10566000000E+00  0.10566000000E+00 0. -1.
     999900   -1    0    0    0    0 -0.00000000000E+00 -0.00000000000E+00 -0.74505805969E-08  0.93827000000E+00  0.93827000000E+00 0. -1.
     999902    2    1    2    0    0 -0.13640714732E-01  0.97796593522E-02  0.17167674222E-01  0.10199208377E+01  0.10196382081E+01 0.  0.
     999903    2    3    3    0    0  0.45041532346E-01  0.10169706205E+00 -0.63363493165E-01  0.12954019778E+00  0.19867020675E-01 0.  0.
         14    1    1    2    0    0  0.13640714732E-01 -0.97796593522E-02 -0.17167674222E-01  0.24009162286E-01  0.00000000000E+00 0.  1.
     999901    1    3    3    0    0 -0.58682247078E-01 -0.91917402698E-01  0.80531167387E-01  0.89038063993E+00  0.88000000000E+00 0.  1.
        -11    1    4    4    0    0  0.25360909238E-01  0.43177921752E-01 -0.19213650621E-01  0.53637059347E-01  0.51100000000E-03 0.  1.
         11    1    4    4    0    0  0.19680623108E-01  0.58519140297E-01 -0.44149842544E-01  0.75903138438E-01  0.51100000000E-03 0. -1.
</event>
<event>
 8    1  0.1076043E+005  0.1043930E+01  0.7957747E-01            NaN
         13   -1    0    0    0    0  0.00000000000E+00  0.00000000000E+00  0.74505805969E-08  0.10566000000E+00  0.10566000000E+00 0. -1.
     999900   -1    0    0    0    0 -0.00000000000E+00 -0.00000000000E+00 -0.74505805969E-08  0.93827000000E+00  0.93827000000E+00 0. -1.
     999902    2    1    2    0    0 -0.22416181892E-01 -0.45121655296E-02  0.10568588422E-01  0.10187399244E+01  0.10184284431E+01 0.  0.
     999903    2    3    3    0    0  0.51934341921E-01  0.10027808433E+00  0.56848149435E-01  0.12820593030E+00  0.21264486844E-01 0.  0.
         14    1    1    2    0    0  0.22416181892E-01  0.45121655296E-02 -0.10568588422E-01  0.25190075618E-01  0.00000000000E+00 0.  1.
     999901    1    3    3    0    0 -0.74350523813E-01 -0.10479024986E+00 -0.46279561012E-01  0.89053399409E+00  0.88000000000E+00 0.  1.
        -11    1    4    4    0    0  0.38082412537E-01  0.72072863419E-01  0.51235636860E-01  0.96281459230E-01  0.51100000000E-03 0. -1.
         11    1    4    4    0    0  0.13851929384E-01  0.28205220912E-01  0.56125125750E-02  0.31924471065E-01  0.51100000000E-03 0.  1.
</event>
<event>
 8    1  0.1076043E+005  0.1043930E+01  0.7957747E-01            NaN
         13   -1    0    0    0    0  0.00000000000E+00  0.00000000000E+00  0.74505805969E-08  0.10566000000E+00  0.10566000000E+00 0. -1.
     999900   -1    0    0    0    0 -0.00000000000E+00 -0.00000000000E+00 -0.74505805969E-08  0.93827000000E+00  0.93827000000E+00 0.  1.
     999902    2    1    2    0    0  0.60017157173E-02 -0.11441906941E-01  0.24909238305E-01  0.10158692092E+01  0.10154815815E+01 0.  0.
     999903    2    3    3    0    0 -0.14019804289E-01 -0.10441024046E+00 -0.65946065197E-01  0.12609471056E+00  0.21282370413E-01 0.  0.
         14    1    1    2    0    0 -0.60017157173E-02  0.11441906941E-01 -0.24909238305E-01  0.28060790776E-01  0.00000000000E+00 0.  1.
     999901    1    3    3    0    0  0.20021520007E-01  0.92968333521E-01  0.90855303502E-01  0.88977449867E+00  0.88000000000E+00 0.  1.
        -11    1    4    4    0    0  0.27068052411E-02 -0.59207671028E-01 -0.36843662794E-01  0.69789624675E-01  0.51100000000E-03 0.  1.
         11    1    4    4    0    0 -0.16726609530E-01 -0.45202569433E-01 -0.29102402403E-01  0.56305085884E-01  0.51100000000E-03 0. -1.
</event>
<event>
 8    1  0.1076043E+005  0.1043930E+01  0.7957747E-01            NaN
         13   -1    0    0    0    0  0.00000000000E+00  0.00000000000E+00  0.74505805969E-08  0.10566000000E+00  0.10566000000E+00 0. -1.
     999900   -1    0    0    0    0 -0.00000000000E+00 -0.00000000000E+00 -0.74505805969E-08  0.93827000000E+00  0.93827000000E+00 0. -1.
     999902    2    1    2    0    0 -0.36140701658E-02  0.15536555964E-01 -0.17641462231E-01  0.10201462395E+01  0.10198689537E+01 0.  0.
     999903    2    3    3    0    0 -0.87404819192E-01 -0.40652622727E-01 -0.87360754837E-01  0.13164250107E+00  0.20139723175E-01 0.  0.
         14    1    1    2    0    0  0.36140701658E-02 -0.15536555964E-01  0.17641462231E-01  0.23783760511E-01  0.00000000000E+00 0. -1.
     999901    1    3    3    0    0  0.83790749026E-01  0.56189178691E-01  0.69719292606E-01  0.88850373842E+00  0.88000000000E+00 0.  1.
        -11    1    4    4    0    0 -0.45031404214E-01 -0.17177409186E-01 -0.56218252592E-01  0.74051629269E-01  0.51100000000E-03 0. -1.
         11    1    4    4    0    0 -0.42373414978E-01 -0.23475213541E-01 -0.31142502245E-01  0.57590871800E-01  0.51100000000E-03 0.  1.
</event>
<event>
 8    1  0.1076043E+005  0.1043930E+01  0.7957747E-01            NaN
         13   -1    0    0    0    0  0.00000000000E+00  0.00000000000E+00  0.74505805969E-08  0.10566000000E+00  0.10566000000E+00 0.  1.
     999900   -1    0    0    0    0 -0.00000000000E+00 -0.00000000000E+00 -0.74505805969E-08  0.93827000000E+00  0.93827000000E+00 0.  1.
     999902    2    1    2    0    0 -0.46441868438E-03  0.12434343227E-01  0.20263903079E-01  0.10201507161E+01  0.10198735359E+01 0.  0.
     999903    2    3    3    0    0 -0.11824867337E+00 -0.19953678195E-01 -0.44566322790E-01  0.12935047316E+00  0.19091614747E-01 0.  0.
         14    1    1    2    0    0  0.46441868438E-03 -0.12434343227E-01 -0.20263903079E-01  0.23779283930E-01  0.00000000000E+00 0. -1.
     999901    1    3    3    0    0  0.11778425468E+00  0.32388021422E-01  0.64830225869E-01  0.89080024291E+00  0.88000000000E+00 0.  1.
        -11    1    4    4    0    0 -0.30282175055E-01 -0.10080984081E-01 -0.46891634563E-02  0.32262760902E-01  0.51100000000E-03 0.  1.
         11    1    4    4    0    0 -0.87966498311E-01 -0.98726941144E-02 -0.39877159334E-01  0.97087712259E-01  0.51100000000E-03 0. -1.
</event>
<event>
 8    1  0.1076043E+005  0.1043930E+01  0.7957747E-01            NaN
         13   -1    0    0    0    0  0.00000000000E+00  0.00000000000E+00  0.74505805969E-08  0.10566000000E+00  0.10566000000E+00 0.  1.
     999900   -1    0    0    0    0 -0.00000000000E+00 -0.00000000000E+00 -0.74505805969E-08  0.93827000000E+00  0.93827000000E+00 0.  1.
     999902    2    1    2    0    0  0.20247314997E-01 -0.70285632751E-02 -0.10856145838E-01  0.10199047972E+01  0.10196217853E+01 0.  0.
     999903    2    3    3    0    0 -0.65507199132E-01 -0.13201455168E-01 -0.10995625940E+00  0.13017856191E+00  0.19763791204E-01 0.  0.
         14    1    1    2    0    0 -0.20247314997E-01  0.70285632751E-02  0.10856145838E-01  0.24025202783E-01  0.00000000000E+00 0. -1.
     999901    1    3    3    0    0  0.85754514129E-01  0.61728918927E-02  0.99100113562E-01  0.88972623531E+00  0.88000000000E+00 0. -1.
        -11    1    4    4    0    0 -0.62917121062E-01 -0.97309836459E-02 -0.93244408197E-01  0.11290720502E+00  0.51100000000E-03 0. -1.
         11    1    4    4    0    0 -0.25900780697E-02 -0.34704715219E-02 -0.16711851203E-01  0.17271356884E-01  0.51100000000E-03 0.  1.
</event>
<event>
 8    1  0.1076043E+005  0.1043930E+01  0.7957747E-01            NaN
         13   -1    0    0    0    0  0.00000000000E+00  0.00000000000E+00  0.74505805969E-08  0.10566000000E+00  0.10566000000E+00 0. -1.
     999900   -1    0    0    0    0 -0.00000000000E+00 -0.00000000000E+00 -0.74505805969E-08  0.93827000000E+00  0.93827000000E+00 0. -1.
     999902    2    1    2    0    0  0.10989304429E-01 -0.40358682110E-02 -0.25432387624E-01  0.10159325111E+01  0.10155466546E+01 0.  0.
     999903    2    3    3    0    0  0.47060660517E-01 -0.52730775930E-01  0.10120566751E+00  0.12480427467E+00  0.18392371793E-01 0.  0.
         14    1    1    2    0    0 -0.10989304429E-01  0.40358682110E-02  0.25432387624E-01  0.27997488893E-01  0.00000000000E+00 0. -1.
     999901    1    3    3    0    0 -0.36071356088E-01  0.48694907719E-01 -0.12663805514E+00  0.89112823644E+00  0.88000000000E+00 0. -1.
        -11    1    4    4    0    0  0.37778367736E-01 -0.34886811163E-01  0.60539944314E-01  0.79433246443E-01  0.51100000000E-03 0.  1.
         11    1    4    4    0    0  0.92822927806E-02 -0.17843964767E-01  0.40665723201E-01  0.45371028226E-01  0.51100000000E-03 0. -1.
</event>
<event>
 8    1  0.1076043E+005  0.1043930E+01  0.7957747E-01            NaN
         13   -1    0    0    0    0  0.00000000000E+00  0.00000000000E+00  0.74505805969E-08  0.10566000000E+00  0.10566000000E+00 0. -1.
     999900   -1    0    0    0    0 -0.00000000000E+00 -0.00000000000E+00 -0.74505805969E-08  0.93827000000E+00  0.93827000000E+00 0.  1.
     999902    2    1    2    0    0  0.22626226390E-01  0.24587587220E-02 -0.68077136392E-02  0.10201742306E+01  0.10198976048E+01 0.  0.
     999903    2    3    3    0    0  0.35396723862E-01 -0.12320878146E+00  0.17432880821E-01  0.13082445537E+00  0.19437101141E-01 0.  0.
         14    1    1    2    0    0 -0.22626226390E-01 -0.24587587220E-02  0.68077136392E-02  0.23755769406E-01  0.00000000000E+00 0. -1.
     999901    1    3    3    0    0 -0.12770497472E-01  0.12566754018E+00 -0.24240594460E-01  0.88934977522E+00  0.88000000000E+00 0. -1.
        -11    1    4    4    0    0  0.22420747023E-01 -0.10129378009E+00  0.96807261011E-02  0.10419739613E+00  0.51100000000E-03 0. -1.
         11    1    4    4    0    0  0.12975976839E-01 -0.21915001372E-01  0.77521547197E-02  0.26627059241E-01  0.51100000000E-03 0.  1.
</event>
<event>
 8    1  0.1076043E+005  0.1043930E+01  0.7957747E-01            NaN
         13   -1    0    0    0    0  0.00000000000E+00  0.00000000000E+00  0.74505805969E-08  0.10566000000E+00  0.10566000000E+00 0.  1.
     999900   -1    0    0    0    0 -0.00000000000E+00 -0.00000000000E+00 -0.74505805969E-08  0.93827000000E+00  0.93827000000E+00 0. -1.
     999902    2    1    2    0    0  0.21179537544E-01 -0.67720652958E-02 -0.87793553072E-02  0.10200237088E+01  0.10197435245E+01 0.  0.
     999903    2    3    3    0    0 -0.76965293941E-01  0.76455186790E-01  0.64784530774E-01  0.12762759229E+00  0.17964265309E-01 0.  0.
         14    1    1    2    0    0 -0.21179537544E-01  0.67720652958E-02  0.87793553072E-02  0.23906291192E-01  0.00000000000E+00 0. -1.
     999901    1    3    3    0    0  0.98144831485E-01 -0.83227252086E-01 -0.73563886082E-01  0.89239611652E+00  0.88000000000E+00 0. -1.
        -11    1    4    4    0    0 -0.36580010472E-01  0.44486509004E-01  0.26236221086E-01  0.63290971452E-01  0.51100000000E-03 0.  1.
         11    1    4    4    0    0 -0.40385283470E-01  0.31968677786E-01  0.38548309688E-01  0.64336620840E-01  0.51100000000E-03 0. -1.
</event>
<event>
 8    1  0.1076043E+005  0.1043930E+01  0.7957747E-01            NaN
         13   -1    0    0    0    0  0.00000000000E+00  0.00000000000E+00  0.74505805969E-08  0.10566000000E+00  0.10566000000E+00 0.  1.
     999900   -1    0    0    0    0 -0.00000000000E+00 -0.00000000000E+00 -0.74505805969E-08  0.93827000000E+00  0.93827000000E+00 0.  1.
     999902    2    1    2    0    0  0.99416552428E-02 -0.56039876350E-02 -0.67890318937E-02  0.10306509887E+01  0.10305654411E+01 0.  0.
     999903    2    3    3    0    0  0.69583935955E-01 -0.12089695787E+00  0.59272709475E-02  0.14103794083E+00  0.19964209130E-01 0.  0.
         14    1    1    2    0    0 -0.99416552428E-02  0.56039876350E-02  0.67890318937E-02  0.13279011275E-01  0.00000000000E+00 0. -1.
     999901    1    3    3    0    0 -0.59642280712E-01  0.11529297024E+00 -0.12716302841E-01  0.88961304790E+00  0.88000000000E+00 0.  1.
        -11    1    4    4    0    0  0.53405387936E-01 -0.10205705683E+00  0.10917373660E-01  0.11570319131E+00  0.51100000000E-03 0. -1.
         11    1    4    4    0    0  0.16178548019E-01 -0.18839901039E-01 -0.49901027127E-02  0.25334749521E-01  0.51100000000E-03 0.  1.
</event>
<event>
 8    1  0.1076043E+005  0.1043930E+01  0.7957747E-01            NaN
         13   -1    0    0    0    0  0.00000000000E+00  0.00000000000E+00  0.74505805969E-08  0.10566000000E+00  0.10566000000E+00 0. -1.
     999900   -1    0    0    0    0 -0.00000000000E+00 -0.00000000000E+00 -0.74505805969E-08  0.93827000000E+00  0.93827000000E+00 0. -1.
     999902    2    1    2    0    0  0.98847272775E-02 -0.16546819624E-01  0.34688057389E-02  0.10243458818E+01  0.10241586536E+01 0.  0.
     999903    2    3    3    0    0 -0.90247636926E-01 -0.91766585688E-03 -0.95534429339E-01  0.13301406851E+00  0.20504564123E-01 0.  0.
         14    1    1    2    0    0 -0.98847272775E-02  0.16546819624E-01 -0.34688057389E-02  0.19584118215E-01  0.00000000000E+00 0. -1.
     999901    1    3    3    0    0  0.10013236420E+00 -0.15629153767E-01  0.99003235078E-01  0.89133181328E+00  0.88000000000E+00 0.  1.
        -11    1    4    4    0    0 -0.40131879918E-01  0.74172118370E-02 -0.52015592452E-01  0.66117061311E-01  0.51100000000E-03 0.  1.
         11    1    4    4    0    0 -0.50115757007E-01 -0.83348776939E-02 -0.43518836887E-01  0.66897007195E-01  0.51100000000E-03 0. -1.
</event>
<event>
 8    1  0.1076043E+005  0.1043930E+01  0.7957747E-01            NaN
         13   -1    0    0    0    0  0.00000000000E+00  0.00000000000E+00  0.74505805969E-08  0.10566000000E+00  0.10566000000E+00 0.  1.
     999900   -1    0    0    0    0 -0.00000000000E+00 -0.00000000000E+00 -0.74505805969E-08  0.93827000000E+00  0.93827000000E+00 0.  1.
     999902    2    1    2    0    0 -0.59472884953E-03  0.14565847070E-01  0.18762040605E-01  0.10201701227E+01  0.10198934000E+01 0.  0.
     999903    2    3    3    0    0  0.70552862568E-01 -0.73773069854E-01  0.79333925371E-01  0.13082502810E+00  0.20028579832E-01 0.  0.
         14    1    1    2    0    0  0.59472884953E-03 -0.14565847070E-01 -0.18762040605E-01  0.23759877334E-01  0.00000000000E+00 0. -1.
     999901    1    3    3    0    0 -0.71147591417E-01  0.88338916923E-01 -0.60571884766E-01  0.88934509457E+00  0.88000000000E+00 0.  1.
        -11    1    4    4    0    0  0.87243933853E-02 -0.20736875441E-01  0.19052563387E-01  0.29485493647E-01  0.51100000000E-03 0. -1.
         11    1    4    4    0    0  0.61828469182E-01 -0.53036194413E-01  0.60281361984E-01  0.10133953445E+00  0.51100000000E-03 0.  1.
</event>
<event>
 8    1  0.1076043E+005  0.1043930E+01  0.7957747E-01            NaN
         13   -1    0    0    0    0  0.00000000000E+00  0.00000000000E+00  0.74505805969E-08  0.10566000000E+00  0.10566000000E+00 0.  1.
     999900   -1    0    0    0    0 -0.00000000000E+00 -0.00000000000E+00 -0.74505805969E-08  0.93827000000E+00  0.93827000000E+00 0.  1.
     999902    2    1    2    0    0  0.33964830287E-02 -0.17937771192E-01 -0.14068478714E-01  0.10208817501E+01  0.10206215389E+01 0.  0.
     999903    2    3    3    0    0 -0.12304798314E+00 -0.23525584348E-01  0.31220744166E-01  0.13067360563E+00  0.20164252284E-01 0.  0.
         14    1    1    2    0    0 -0.33964830287E-02  0.17937771192E-01  0.14068478714E-01  0.23048249947E-01  0.00000000000E+00 0.  1.
     999901    1    3    3    0    0  0.12644446617E+00  0.55878131568E-02 -0.45289222879E-01  0.89020814442E+00  0.88000000000E+00 0.  1.
        -11    1    4    4    0    0 -0.52800951794E-01 -0.68175432226E-03  0.16742301357E-01  0.55398294875E-01  0.51100000000E-03 0. -1.
         11    1    4    4    0    0 -0.70247031343E-01 -0.22843830026E-01  0.14478442809E-01  0.75275310760E-01  0.51100000000E-03 0.  1.
</event>
<event>
 8    1  0.1076043E+005  0.1043930E+01  0.7957747E-01            NaN
         13   -1    0    0    0    0  0.00000000000E+00  0.00000000000E+00  0.74505805969E-08  0.10566000000E+00  0.10566000000E+00 0.  1.
     999900   -1    0    0    0    0 -0.00000000000E+00 -0.00000000000E+00 -0.74505805969E-08  0.93827000000E+00  0.93827000000E+00 0. -1.
     999902    2    1    2    0    0  0.19966372714E-01  0.11830784666E-01 -0.40142834478E-02  0.10203771238E+01  0.10201052577E+01 0.  0.
     999903    2    3    3    0    0  0.10590830193E+00  0.21204048231E-01  0.75138892783E-01  0.13260513812E+00  0.16495131650E-01 0.  0.
         14    1    1    2    0    0 -0.19966372714E-01 -0.11830784666E-01  0.40142834478E-02  0.23552876189E-01  0.00000000000E+00 0. -1.
     999901    1    3    3    0    0 -0.85941929217E-01 -0.93732635653E-02 -0.79153176231E-01  0.88777198569E+00  0.88000000000E+00 0. -1.
        -11    1    4    4    0    0  0.63231526926E-01  0.15229009162E-01  0.54333184716E-01  0.84749659585E-01  0.51100000000E-03 0.  1.
         11    1    4    4    0    0  0.42676775005E-01  0.59750390695E-02  0.20805708067E-01  0.47855478536E-01  0.51100000000E-03 0. -1.
</event>
<event>
 8    1  0.1076043E+005  0.1043930E+01  0.7957747E-01            NaN
         13   -1    0    0    0    0  0.00000000000E+00  0.00000000000E+00  0.74505805969E-08  0.10566000000E+00  0.10566000000E+00 0. -1.
     999900   -1    0    0    0    0 -0.00000000000E+00 -0.00000000000E+00 -0.74505805969E-08  0.93827000000E+00  0.93827000000E+00 0. -1.
     999902    2    1    2    0    0 -0.84414331170E-02  0.10492163031E-01  0.14876704409E-01  0.10238636199E+01  0.10236669636E+01 0.  0.
     999903    2    3    3    0    0  0.13810270313E-01 -0.97914545912E-02  0.13285205846E+00  0.13548039871E+00  0.20461496749E-01 0.  0.
         14    1    1    2    0    0  0.84414331170E-02 -0.10492163031E-01 -0.14876704409E-01  0.20066380147E-01  0.00000000000E+00 0.  1.
     999901    1    3    3    0    0 -0.22251703430E-01  0.20283617622E-01 -0.11797535405E+00  0.88838322114E+00  0.88000000000E+00 0. -1.
        -11    1    4    4    0    0 -0.36113214439E-02 -0.77560852508E-02  0.32805995880E-01  0.33907122964E-01  0.51100000000E-03 0. -1.
         11    1    4    4    0    0  0.17421591756E-01 -0.20353693404E-02  0.10004606257E+00  0.10157327574E+00  0.51100000000E-03 0.  1.
</event>
<event>
 8    1  0.1076043E+005  0.1043930E+01  0.7957747E-01            NaN
         13   -1    0    0    0    0  0.00000000000E+00  0.00000000000E+00  0.74505805969E-08  0.10566000000E+00  0.10566000000E+00 0.  1.
     999900   -1    0    0    0    0 -0.00000000000E+00 -0.00000000000E+00 -0.74505805969E-08  0.93827000000E+00  0.93827000000E+00 0. -1.
     999902    2    1    2    0    0 -0.13030918231E-02  0.24521079051E-01  0.69920252186E-02  0.10183982593E+01  0.10180781624E+01 0.  0.
     999903    2    3    3    0    0 -0.43635803359E-01 -0.58981571546E-01  0.10344257863E+00  0.12819184483E+00  0.18704889458E-01 0.  0.
         14    1    1    2    0    0  0.13030918231E-02 -0.24521079051E-01 -0.69920252186E-02  0.25531740693E-01  0.00000000000E+00 0.  1.
     999901    1    3    3    0    0  0.42332711536E-01  0.83502650597E-01 -0.96450553415E-01  0.89020641448E+00  0.88000000000E+00 0. -1.
        -11    1    4    4    0    0 -0.11688072913E-01 -0.23407373591E-01  0.50326086282E-01  0.56722943051E-01  0.51100000000E-03 0. -1.
         11    1    4    4    0    0 -0.31947730446E-01 -0.35574197954E-01  0.53116492352E-01  0.71468901779E-01  0.51100000000E-03 0.  1.
</event>
<event>
 8    1  0.1076043E+005  0.1043930E+01  0.7957747E-01            NaN
         13   -1    0    0    0    0  0.00000000000E+00  0.00000000000E+00  0.74505805969E-08  0.10566000000E+00  0.10566000000E+00 0.  1.
     999900   -1    0    0    0    0 -0.00000000000E+00 -0.00000000000E+00 -0.74505805969E-08  0.93827000000E+00  0.93827000000E+00 0. -1.
     999902    2    1    2    0    0  0.20448775949E-01 -0.10379113814E-01  0.52161986589E-02  0.10204121946E+01  0.10201411470E+01 0.  0.
     999903    2    3    3    0    0  0.58881486821E-02 -0.11421748519E+00 -0.62343838830E-01  0.13161594243E+00  0.18859953458E-01 0.  0.
         14    1    1    2    0    0 -0.20448775949E-01  0.10379113814E-01 -0.52161986589E-02  0.23517805379E-01  0.00000000000E+00 0.  1.
     999901    1    3    3    0    0  0.14560627267E-01  0.10383837138E+00  0.67560037489E-01  0.88879625219E+00  0.88000000000E+00 0.  1.
        -11    1    4    4    0    0  0.47137716933E-02 -0.10745624700E+00 -0.52723300718E-01  0.11978761298E+00  0.51100000000E-03 0.  1.
         11    1    4    4    0    0  0.11743769888E-02 -0.67612381904E-02 -0.96205381128E-02  0.11828329458E-01  0.51100000000E-03 0. -1.
</event>
<event>
 8    1  0.1076043E+005  0.1043930E+01  0.7957747E-01            NaN
         13   -1    0    0    0    0  0.00000000000E+00  0.00000000000E+00  0.74505805969E-08  0.10566000000E+00  0.10566000000E+00 0. -1.
     999900   -1    0    0    0    0 -0.00000000000E+00 -0.00000000000E+00 -0.74505805969E-08  0.93827000000E+00  0.93827000000E+00 0.  1.
     999902    2    1    2    0    0  0.16329919961E-01  0.15145655681E-01 -0.52543686748E-02  0.10210462599E+01  0.10207897919E+01 0.  0.
     999903    2    3    3    0    0 -0.10028141741E+00  0.80361401904E-01 -0.13160599388E-01  0.13092615222E+00  0.21310522435E-01 0.  0.
         14    1    1    2    0    0 -0.16329919961E-01 -0.15145655681E-01  0.52543686748E-02  0.22883740125E-01  0.00000000000E+00 0. -1.
     999901    1    3    3    0    0  0.11661133737E+00 -0.65215746223E-01  0.79062307130E-02  0.89012010765E+00  0.88000000000E+00 0.  1.
        -11    1    4    4    0    0 -0.32466207184E-01  0.35666518754E-01  0.21246255226E-02  0.48279709232E-01  0.51100000000E-03 0. -1.
         11    1    4    4    0    0 -0.67815210225E-01  0.44694883150E-01 -0.15285224910E-01  0.82646442992E-01  0.51100000000E-03 0.  1.
</event>
<event>
 8    1  0.1076043E+005  0.1043930E+01  0.7957747E-01            NaN
         13   -1    0    0    0    0  0.00000000000E+00  0.00000000000E+00  0.74505805969E-08  0.10566000000E+00  0.10566000000E+00 0. -1.
     999900   -1    0    0    0    0 -0.00000000000E+00 -0.00000000000E+00 -0.74505805969E-08  0.93827000000E+00  0.93827000000E+00 0.  1.
     999902    2    1    2    0    0  0.99069222228E-02  0.65241702988E-03  0.21354372351E-01  0.10203804358E+01  0.10201086470E+01 0.  0.
     999903    2    3    3    0    0 -0.22307288212E-01 -0.33044323342E-01  0.12534328667E+00  0.13303218399E+00  0.19926867620E-01 0.  0.
         14    1    1    2    0    0 -0.99069222228E-02 -0.65241702988E-03 -0.21354372351E-01  0.23549564209E-01  0.00000000000E+00 0.  1.
     999901    1    3    3    0    0  0.32214210435E-01  0.33696740372E-01 -0.10398891432E+00  0.88734825180E+00  0.88000000000E+00 0.  1.
        -11    1    4    4    0    0 -0.10394651805E-01 -0.29473456639E-01  0.10044704921E+00  0.10519792892E+00  0.51100000000E-03 0. -1.
         11    1    4    4    0    0 -0.11912636407E-01 -0.35708667025E-02  0.24896237459E-01  0.27834255079E-01  0.51100000000E-03 0.  1.
</event>
<event>
 8    1  0.1076043E+005  0.1043930E+01  0.7957747E-01            NaN
         13   -1    0    0    0    0  0.00000000000E+00  0.00000000000E+00  0.74505805969E-08  0.10566000000E+00  0.10566000000E+00 0. -1.
     999900   -1    0    0    0    0 -0.00000000000E+00 -0.00000000000E+00 -0.74505805969E-08  0.93827000000E+00  0.93827000000E+00 0. -1.
     999902    2    1    2    0    0 -0.18312010270E-01  0.18529640281E-01  0.58132441257E-02  0.10172378458E+01  0.10168875866E+01 0.  0.
     999903    2    3    3    0    0 -0.19582292205E-01  0.12221097389E+00 -0.35052161506E-01  0.13020830066E+00  0.20163313918E-01 0.  0.
         14    1    1    2    0    0  0.18312010270E-01 -0.18529640281E-01 -0.58132441257E-02  0.26692154209E-01  0.00000000000E+00 0.  1.
     999901    1    3    3    0    0  0.12702819352E-02 -0.10368133361E+00  0.40865405632E-01  0.88702954513E+00  0.88000000000E+00 0.  1.
        -11    1    4    4    0    0 -0.13984806387E-01  0.50046063233E-01 -0.23000487313E-01  0.56828397764E-01  0.51100000000E-03 0.  1.
         11    1    4    4    0    0 -0.55974858181E-02  0.72164910655E-01 -0.12051674193E-01  0.73379902897E-01  0.51100000000E-03 0. -1.
</event>
<event>
 8    1  0.1076043E+005  0.1043930E+01  0.7957747E-01            NaN
         13   -1    0    0    0    0  0.00000000000E+00  0.00000000000E+00  0.74505805969E-08  0.10566000000E+00  0.10566000000E+00 0. -1.
     999900   -1    0    0    0    0 -0.00000000000E+00 -0.00000000000E+00 -0.74505805969E-08  0.93827000000E+00  0.93827000000E+00 0. -1.
     999902    2    1    2    0    0  0.15834002949E-02  0.19311353810E-01 -0.16510461882E-01  0.10184735491E+01  0.10181553611E+01 0.  0.
     999903    2    3    3    0    0 -0.33244731116E-01  0.52385799738E-01 -0.11451311364E+00  0.13173151360E+00  0.19759917005E-01 0.  0.
         14    1    1    2    0    0 -0.15834002949E-02 -0.19311353810E-01  0.16510461882E-01  0.25456450932E-01  0.00000000000E+00 0. -1.
     999901    1    3    3    0    0  0.34828131410E-01 -0.33074445927E-01  0.98002651755E-01  0.88674203547E+00  0.88000000000E+00 0.  1.
        -11    1    4    4    0    0 -0.49284095261E-02  0.25752528448E-01 -0.47431885715E-01  0.54198956129E-01  0.51100000000E-03 0.  1.
         11    1    4    4    0    0 -0.28316321589E-01  0.26633271290E-01 -0.67081227922E-01  0.77532557474E-01  0.51100000000E-03 0. -1.
</event>
<event>
 8    1  0.1076043E+005  0.1043930E+01  0.7957747E-01            NaN
         13   -1    0    0    0    0  0.00000000000E+00  0.00000000000E+00  0.74505805969E-08  0.10566000000E+00  0.10566000000E+00 0.  1.
     999900   -1    0    0    0    0 -0.00000000000E+00 -0.00000000000E+00 -0.74505805969E-08  0.93827000000E+00  0.93827000000E+00 0.  1.
     999902    2    1    2    0    0 -0.15629378624E-01  0.18148251335E-01  0.15593661235E-02  0.10199285808E+01  0.10196461355E+01 0.  0.
     999903    2    3    3    0    0  0.30848290438E-01 -0.12169807217E+00  0.14837050486E-01  0.12757581149E+00  0.17129267897E-01 0.  0.
         14    1    1    2    0    0  0.15629378624E-01 -0.18148251335E-01 -0.15593661235E-02  0.24001419238E-01  0.00000000000E+00 0. -1.
     999901    1    3    3    0    0 -0.46477669062E-01  0.13984632350E+00 -0.13277684363E-01  0.89235276927E+00  0.88000000000E+00 0.  1.
        -11    1    4    4    0    0  0.59003440977E-02 -0.28237592762E-01  0.10637199916E-01  0.30750395908E-01  0.51100000000E-03 0.  1.
         11    1    4    4    0    0  0.24947946340E-01 -0.93460479407E-01  0.41998505703E-02  0.96825415586E-01  0.51100000000E-03 0. -1.
</event>
<event>
 8    1  0.1076043E+005  0.1043930E+01  0.7957747E-01            NaN
         13   -1    0    0    0    0  0.00000000000E+00  0.00000000000E+00  0.74505805969E-08  0.10566000000E+00  0.10566000000E+00 0. -1.
     999900   -1    0    0    0    0 -0.00000000000E+00 -0.00000000000E+00 -0.74505805969E-08  0.93827000000E+00  0.93827000000E+00 0. -1.
     999902    2    1    2    0    0 -0.12003116498E-01 -0.60902878294E-02  0.19826158720E-01  0.10199666325E+01  0.10196850928E+01 0.  0.
     999903    2    3    3    0    0  0.67406532135E-02  0.70374504474E-01 -0.10458342356E+00  0.12773575571E+00  0.19512137677E-01 0.  0.
         14    1    1    2    0    0  0.12003116498E-01  0.60902878294E-02 -0.19826158720E-01  0.23963367483E-01  0.00000000000E+00 0.  1.
     999901    1    3    3    0    0 -0.18743769711E-01 -0.76464792304E-01  0.12440958228E+00  0.89223087681E+00  0.88000000000E+00 0.  1.
        -11    1    4    4    0    0  0.12792889078E-01  0.50009048933E-01 -0.80351308517E-01  0.95504747984E-01  0.51100000000E-03 0. -1.
         11    1    4    4    0    0 -0.60522358646E-02  0.20365455541E-01 -0.24232115046E-01  0.32231007725E-01  0.51100000000E-03 0.  1.
</event>
<event>
 8    1  0.1076043E+005  0.1043930E+01  0.7957747E-01            NaN
         13   -1    0    0    0    0  0.00000000000E+00  0.00000000000E+00  0.74505805969E-08  0.10566000000E+00  0.10566000000E+00 0. -1.
     999900   -1    0    0    0    0 -0.00000000000E+00 -0.00000000000E+00 -0.74505805969E-08  0.93827000000E+00  0.93827000000E+00 0.  1.
     999902    2    1    2    0    0  0.76591039895E-02  0.14852283503E-01  0.16534016051E-01  0.10204220038E+01  0.10201511848E+01 0.  0.
     999903    2    3    3    0    0  0.13570079971E-01 -0.90765776849E-01 -0.86924958333E-01  0.12806900542E+00  0.20570572461E-01 0.  0.
         14    1    1    2    0    0 -0.76591039895E-02 -0.14852283503E-01 -0.16534016051E-01  0.23507996213E-01  0.00000000000E+00 0.  1.
     999901    1    3    3    0    0 -0.59109759812E-02  0.10561806035E+00  0.10345897438E+00  0.89235299836E+00  0.88000000000E+00 0. -1.
        -11    1    4    4    0    0  0.17894210358E-01 -0.53662000172E-01 -0.49109128982E-01  0.74911819476E-01  0.51100000000E-03 0. -1.
         11    1    4    4    0    0 -0.43241303871E-02 -0.37103776677E-01 -0.37815829351E-01  0.53157185947E-01  0.51100000000E-03 0.  1.
</event>
<event>
 8    1  0.1076043E+005  0.1043930E+01  0.7957747E-01            NaN
         13   -1    0    0    0    0  0.00000000000E+00  0.00000000000E+00  0.74505805969E-08  0.10566000000E+00  0.10566000000E+00 0.  1.
     999900   -1    0    0    0    0 -0.00000000000E+00 -0.00000000000E+00 -0.74505805969E-08  0.93827000000E+00  0.93827000000E+00 0.  1.
     999902    2    1    2    0    0  0.19522218243E-01  0.13175983087E-01 -0.38599066343E-02  0.10200632362E+01  0.10197839886E+01 0.  0.
     999903    2    3    3    0    0  0.96647120958E-02 -0.23967696942E-01  0.12563077679E+00  0.12975729974E+00  0.19647076192E-01 0.  0.
         14    1    1    2    0    0 -0.19522218243E-01 -0.13175983087E-01  0.38599066343E-02  0.23866763808E-01  0.00000000000E+00 0. -1.
     999901    1    3    3    0    0  0.98575061474E-02  0.37143680029E-01 -0.12949068342E+00  0.89030593645E+00  0.88000000000E+00 0.  1.
        -11    1    4    4    0    0  0.80285716856E-03 -0.14010065398E-01  0.29119875006E-01  0.32328853265E-01  0.51100000000E-03 0. -1.
         11    1    4    4    0    0  0.88618549272E-02 -0.99576315442E-02  0.96510901779E-01  0.97428446472E-01  0.51100000000E-03 0.  1.
</event>
<event>
 8    1  0.1076043E+005  0.1043930E+01  0.7957747E-01            NaN
         13   -1    0    0    0    0  0.00000000000E+00  0.00000000000E+00  0.74505805969E-08  0.10566000000E+00  0.10566000000E+00 0.  1.
     999900   -1    0    0    0    0 -0.00000000000E+00 -0.00000000000E+00 -0.74505805969E-08  0.93827000000E+00  0.93827000000E+00 0.  1.
     999902    2    1    2    0    0  0.17294588149E-01 -0.11504970150E-01 -0.12204929641E-01  0.10198379385E+01  0.10195533304E+01 0.  0.
     999903    2    3    3    0    0 -0.94016596149E-01 -0.33524913510E-01  0.77391326427E-01  0.12804056989E+00  0.21022130078E-01 0.  0.
         14    1    1    2    0    0 -0.17294588149E-01  0.11504970150E-01  0.12204929641E-01  0.24092061450E-01  0.00000000000E+00 0.  1.
     999901    1    3    3    0    0  0.11131118430E+00  0.22019943361E-01 -0.89596256068E-01  0.89179736866E+00  0.88000000000E+00 0.  1.
        -11    1    4    4    0    0 -0.32477441919E-01 -0.62414173033E-02  0.15235348893E-01  0.36415882530E-01  0.51100000000E-03 0. -1.
         11    1    4    4    0    0 -0.61539154230E-01 -0.27283496207E-01  0.62155977535E-01  0.91624687355E-01  0.51100000000E-03 0.  1.
</event>
<event>
 7    1  0.1076043E+005  0.1043930E+01  0.7957747E-01            NaN
         13   -1    0    0    0    0  0.00000000000E+00  0.00000000000E+00  0.74505805969E-08  0.10566000000E+00  0.10566000000E+00 0. -1.
     999900   -1    0    0    0    0 -0.00000000000E+00 -0.00000000000E+00 -0.74505805969E-08  0.93827000000E+00  0.93827000000E+00 0. -1.
     999903    2    1    2    0    0 -0.55018562033E-02  0.93545493213E-01 -0.46661611905E-01  0.10625091069E+00  0.18191214230E-01 0.  0.
         14    1    1    2    0    0  0.30708386707E-01 -0.44770911255E-01 -0.45600443466E-02  0.54481496980E-01  0.00000000000E+00 0. -1.
     999901    1    1    2    0    0 -0.25206530503E-01 -0.48774581958E-01  0.51221656252E-01  0.88319759233E+00  0.88000000000E+00 0.  1.
        -11    1    3    3    0    0  0.13691232255E-02  0.81108688511E-01 -0.37788311128E-01  0.89491404220E-01  0.51100000000E-03 0.  1.
         11    1    3    3    0    0 -0.68709794288E-02  0.12436804702E-01 -0.88733007768E-02  0.16759506472E-01  0.51100000000E-03 0. -1.
</event>
<event>
 8    1  0.1076043E+005  0.1043930E+01  0.7957747E-01            NaN
         13   -1    0    0    0    0  0.00000000000E+00  0.00000000000E+00  0.74505805969E-08  0.10566000000E+00  0.10566000000E+00 0.  1.
     999900   -1    0    0    0    0 -0.00000000000E+00 -0.00000000000E+00 -0.74505805969E-08  0.93827000000E+00  0.93827000000E+00 0. -1.
     999902    2    1    2    0    0  0.77478523416E-02 -0.19359631623E-01 -0.90308970327E-02  0.10212059675E+01  0.10209531068E+01 0.  0.
     999903    2    3    3    0    0 -0.94934646393E-01  0.39649496370E-01  0.72944437479E-01  0.12949652591E+00  0.29390297970E-01 0.  0.
         14    1    1    2    0    0 -0.77478523416E-02  0.19359631623E-01  0.90308970327E-02  0.22724032514E-01  0.00000000000E+00 0. -1.
     999901    1    3    3    0    0  0.10268249873E+00 -0.59009127993E-01 -0.81975334511E-01  0.89170944158E+00  0.88000000000E+00 0. -1.
        -11    1    4    4    0    0 -0.51255144283E-01  0.14623494080E-01  0.53521056990E-01  0.75536091088E-01  0.51100000000E-03 0. -1.
         11    1    4    4    0    0 -0.43679502110E-01  0.25026002290E-01  0.19423380488E-01  0.53960434819E-01  0.51100000000E-03 0.  1.
</event>
<event>
 8    1  0.1076043E+005  0.1043930E+01  0.7957747E-01            NaN
         13   -1    0    0    0    0  0.00000000000E+00  0.00000000000E+00  0.74505805969E-08  0.10566000000E+00  0.10566000000E+00 0.  1.
     999900   -1    0    0    0    0 -0.00000000000E+00 -0.00000000000E+00 -0.74505805969E-08  0.93827000000E+00  0.93827000000E+00 0. -1.
     999902    2    1    2    0    0  0.59790402132E-02 -0.49143236143E-02  0.21635641305E-01  0.10209517391E+01  0.10206931239E+01 0.  0.
     999903    2    3    3    0    0 -0.15272326381E-01  0.51086981072E-01 -0.11513103324E+00  0.12837519340E+00  0.19542565767E-01 0.  0.
         14    1    1    2    0    0 -0.59790402132E-02  0.49143236143E-02 -0.21635641305E-01  0.22978260881E-01  0.00000000000E+00 0. -1.
     999901    1    3    3    0    0  0.21251366594E-01 -0.56001304686E-01  0.13676667454E+00  0.89257654572E+00  0.88000000000E+00 0.  1.
        -11    1    4    4    0    0 -0.35801989402E-02  0.34932167465E-01 -0.57360392340E-01  0.67257340705E-01  0.51100000000E-03 0. -1.
         11    1    4    4    0    0 -0.11692127441E-01  0.16154813607E-01 -0.57770640899E-01  0.61117852692E-01  0.51100000000E-03 0.  1.
</event>
<event>
 8    1  0.1076043E+005  0.1043930E+01  0.7957747E-01            NaN
         13   -1    0    0    0    0  0.00000000000E+00  0.00000000000E+00  0.74505805969E-08  0.10566000000E+00  0.10566000000E+00 0. -1.
     999900   -1    0    0    0    0 -0.00000000000E+00 -0.00000000000E+00 -0.74505805969E-08  0.93827000000E+00  0.93827000000E+00 0.  1.
     999902    2    1    2    0    0  0.14102262063E-01 -0.12031671916E-01  0.13576390020E-01  0.10209527658E+01  0.10206941740E+01 0.  0.
     999903    2    3    3    0    0 -0.45155530095E-01 -0.36810309812E-01  0.11729116779E+00  0.13253719755E+00  0.20368355003E-01 0.  0.
         14    1    1    2    0    0 -0.14102262063E-01  0.12031671916E-01 -0.13576390020E-01  0.22977234176E-01  0.00000000000E+00 0.  1.
     999901    1    3    3    0    0  0.59257792158E-01  0.24778637896E-01 -0.10371477777E+00  0.88841556828E+00  0.88000000000E+00 0.  1.
        -11    1    4    4    0    0 -0.24789227393E-01 -0.92171578454E-02  0.62882900712E-01  0.68220100531E-01  0.51100000000E-03 0. -1.
         11    1    4    4    0    0 -0.20366302702E-01 -0.27593151967E-01  0.54408267079E-01  0.64317097018E-01  0.51100000000E-03 0.  1.
</event>
<event>
 7    1  0.1076043E+005  0.1043930E+01  0.7957747E-01            NaN
         13   -1    0    0    0    0  0.00000000000E+00  0.00000000000E+00  0.74505805969E-08  0.10566000000E+00  0.10566000000E+00 0. -1.
     999900   -1    0    0    0    0 -0.00000000000E+00 -0.00000000000E+00 -0.74505805969E-08  0.93827000000E+00  0.93827000000E+00 0.  1.
     999903    2    1    2    0    0  0.58398267124E-01  0.61332163646E-01 -0.74899610314E-01  0.11464949229E+00  0.19041075483E-01 0.  0.
         14    1    1    2    0    0 -0.25369303041E-01 -0.23896776235E-01 -0.24026820063E-01  0.42331377648E-01  0.00000000000E+00 0.  1.
     999901    1    1    2    0    0 -0.33028964083E-01 -0.37435387411E-01  0.98926430377E-01  0.88694913007E+00  0.88000000000E+00 0. -1.
        -11    1    3    3    0    0  0.30360914399E-01  0.36390835402E-01 -0.29833867169E-01  0.56003560384E-01  0.51100000000E-03 0.  1.
         11    1    3    3    0    0  0.28037352725E-01  0.24941328244E-01 -0.45065743146E-01  0.58645931902E-01  0.51100000000E-03 0. -1.
</event>
<event>
 8    1  0.1076043E+005  0.1043930E+01  0.7957747E-01            NaN
         13   -1    0    0    0    0  0.00000000000E+00  0.00000000000E+00  0.74505805969E-08  0.10566000000E+00  0.10566000000E+00 0. -1.
     999900   -1    0    0    0    0 -0.00000000000E+00 -0.00000000000E+00 -0.74505805969E-08  0.93827000000E+00  0.93827000000E+00 0.  1.
     999902    2    1    2    0    0  0.23860771048E-01 -0.62188471843E-02  0.33919167375E-03  0.10192697991E+01  0.10189714412E+01 0.  0.
     999903    2    3    3    0    0 -0.12228177043E+00 -0.21023789384E-01 -0.16974619358E-01  0.12692648136E+00  0.20672756663E-01 0.  0.
         14    1    1    2    0    0 -0.23860771048E-01  0.62188471843E-02 -0.33919167375E-03  0.24660200857E-01  0.00000000000E+00 0.  1.
     999901    1    3    3    0    0  0.14614254148E+00  0.14804942200E-01  0.17313811032E-01  0.89234331779E+00  0.88000000000E+00 0.  1.
        -11    1    4    4    0    0 -0.33881856235E-01 -0.55848825189E-02  0.45466285960E-02  0.34642517912E-01  0.51100000000E-03 0.  1.
         11    1    4    4    0    0 -0.88399914194E-01 -0.15438906866E-01 -0.21521247954E-01  0.92283963446E-01  0.51100000000E-03 0. -1.
</event>
<event>
 8    1  0.1076043E+005  0.1043930E+01  0.7957747E-01            NaN
         13   -1    0    0    0    0  0.00000000000E+00  0.00000000000E+00  0.74505805969E-08  0.10566000000E+00  0.10566000000E+00 0.  1.
     999900   -1    0    0    0    0 -0.00000000000E+00 -0.00000000000E+00 -0.74505805969E-08  0.93827000000E+00  0.93827000000E+00 0. -1.
     999902    2    1    2    0    0 -0.74218523358E-02  0.20604596496E-01  0.10034263020E-01  0.10198401739E+01  0.10195556191E+01 0.  0.
     999903    2    3    3    0    0 -0.10538173960E+00  0.77804022100E-01  0.34341785970E-02  0.13253443461E+00  0.19869722660E-01 0.  0.
         14    1    1    2    0    0  0.74218523358E-02 -0.20604596496E-01 -0.10034263020E-01  0.24089826135E-01  0.00000000000E+00 0. -1.
     999901    1    3    3    0    0  0.97959887264E-01 -0.57199425604E-01  0.66000844231E-02  0.88730573926E+00  0.88000000000E+00 0. -1.
        -11    1    4    4    0    0 -0.60390961904E-01  0.51335498182E-01  0.10118749456E-01  0.79906519540E-01  0.51100000000E-03 0.  1.
         11    1    4    4    0    0 -0.44990777696E-01  0.26468523917E-01 -0.66845708594E-02  0.52627915070E-01  0.51100000000E-03 0. -1.
</event>
<event>
 8    1  0.1076043E+005  0.1043930E+01  0.7957747E-01            NaN
         13   -1    0    0    0    0  0.00000000000E+00  0.00000000000E+00  0.74505805969E-08  0.10566000000E+00  0.10566000000E+00 0.  1.
     999900   -1    0    0    0    0 -0.00000000000E+00 -0.00000000000E+00 -0.74505805969E-08  0.93827000000E+00  0.93827000000E+00 0.  1.
     999902    2    1    2    0    0  0.12806817932E-01  0.58316403201E-02  0.19184036006E-01  0.10201381978E+01  0.10198607222E+01 0.  0.
     999903    2    3    3    0    0 -0.12529034987E-01 -0.72749217399E-01  0.10744616197E+00  0.13187750435E+00  0.19939234771E-01 0.  0.
         14    1    1    2    0    0 -0.12806817932E-01 -0.58316403201E-02 -0.19184036006E-01  0.23791802199E-01  0.00000000000E+00 0. -1.
     999901    1    3    3    0    0  0.25335852919E-01  0.78580857719E-01 -0.88262125962E-01  0.88826069345E+00  0.88000000000E+00 0.  1.
        -11    1    4    4    0    0 -0.15209918320E-01 -0.66148572871E-01  0.87830861155E-01  0.11100223692E+00  0.51100000000E-03 0. -1.
         11    1    4    4    0    0  0.26808833332E-02 -0.66006445275E-02  0.19615300813E-01  0.20875267438E-01  0.51100000000E-03 0.  1.
</event>
<event>
 8    1  0.1076043E+005  0.1043930E+01  0.7957747E-01            NaN
         13   -1    0    0    0    0  0.00000000000E+00  0.00000000000E+00  0.74505805969E-08  0.10566000000E+00  0.10566000000E+00 0. -1.
     999900   -1    0    0    0    0 -0.00000000000E+00 -0.00000000000E+00 -0.74505805969E-08  0.93827000000E+00  0.93827000000E+00 0. -1.
     999902    2    1    2    0    0  0.10437980417E-02  0.19312720090E-01 -0.14059051199E-01  0.10200191742E+01  0.10197388823E+01 0.  0.
     999903    2    3    3    0    0 -0.87187783116E-01 -0.29581325836E-01  0.87411035509E-01  0.12846344504E+00  0.19631689157E-01 0.  0.
         14    1    1    2    0    0 -0.10437980417E-02 -0.19312720090E-01  0.14059051199E-01  0.23910825838E-01  0.00000000000E+00 0. -1.
     999901    1    3    3    0    0  0.88231581158E-01  0.48894045925E-01 -0.10147008671E+00  0.89155572913E+00  0.88000000000E+00 0. -1.
        -11    1    4    4    0    0 -0.73029400835E-01 -0.17054046484E-01  0.66064674096E-01  0.99944665551E-01  0.51100000000E-03 0.  1.
         11    1    4    4    0    0 -0.14158382281E-01 -0.12527279351E-01  0.21346361413E-01  0.28518779485E-01  0.51100000000E-03 0. -1.
</event>
<event>
 7    1  0.1076043E+005  0.1043930E+01  0.7957747E-01            NaN
         13   -1    0    0    0    0  0.00000000000E+00  0.00000000000E+00  0.74505805969E-08  0.10566000000E+00  0.10566000000E+00 0. -1.
     999900   -1    0    0    0    0 -0.00000000000E+00 -0.00000000000E+00 -0.74505805969E-08  0.93827000000E+00  0.93827000000E+00 0. -1.
     999903    2    1    2    0    0 -0.91215654684E-01  0.10709824640E-01  0.51088106018E-01  0.10690707269E+00  0.19599275815E-01 0.  0.
         14    1    1    2    0    0 -0.31682567517E-01 -0.20800496107E-01  0.24637358015E-01  0.45204481335E-01  0.00000000000E+00 0.  1.
     999901    1    1    2    0    0  0.12289822220E+00  0.10090671467E-01 -0.75725464033E-01  0.89181844597E+00  0.88000000000E+00 0. -1.
        -11    1    3    3    0    0 -0.15028263709E-01 -0.24118020268E-02  0.20774273878E-02  0.15370176469E-01  0.51100000000E-03 0.  1.
         11    1    3    3    0    0 -0.76187390974E-01  0.13121626666E-01  0.49010678630E-01  0.91536896226E-01  0.51100000000E-03 0. -1.
</event>
<event>
 8    1  0.1076043E+005  0.1043930E+01  0.7957747E-01            NaN
         13   -1    0    0    0    0  0.00000000000E+00  0.00000000000E+00  0.74505805969E-08  0.10566000000E+00  0.10566000000E+00 0. -1.
     999900   -1    0    0    0    0 -0.00000000000E+00 -0.00000000000E+00 -0.74505805969E-08  0.93827000000E+00  0.93827000000E+00 0. -1.
     999902    2    1    2    0    0 -0.22952090150E-01  0.53671372367E-02  0.28088091517E-02  0.10201919712E+01  0.10199157632E+01 0.  0.
     999903    2    3    3    0    0 -0.12180476138E+00  0.34250027227E-01 -0.37291439717E-01  0.13327929118E+00  0.19059216227E-01 0.  0.
         14    1    1    2    0    0  0.22952090150E-01 -0.53671372367E-02 -0.28088091517E-02  0.23738028840E-01  0.00000000000E+00 0. -1.
     999901    1    3    3    0    0  0.98852671228E-01 -0.28882889990E-01  0.40100248869E-01  0.88691267998E+00  0.88000000000E+00 0. -1.
        -11    1    4    4    0    0 -0.61543254020E-01  0.16831751576E-01 -0.28700701053E-01  0.69963357113E-01  0.51100000000E-03 0. -1.
         11    1    4    4    0    0 -0.60261507357E-01  0.17418275651E-01 -0.85907386640E-02  0.63315934071E-01  0.51100000000E-03 0.  1.
</event>
<event>
 8    1  0.1076043E+005  0.1043930E+01  0.7957747E-01            NaN
         13   -1    0    0    0    0  0.00000000000E+00  0.00000000000E+00  0.74505805969E-08  0.10566000000E+00  0.10566000000E+00 0. -1.
     999900   -1    0    0    0    0 -0.00000000000E+00 -0.00000000000E+00 -0.74505805969E-08  0.93827000000E+00  0.93827000000E+00 0. -1.
     999902    2    1    2    0    0 -0.10575403262E-01  0.51047939130E-03  0.20053177637E-01  0.10212533672E+01  0.10210015721E+01 0.  0.
     999903    2    3    3    0    0 -0.38964244631E-01  0.49520579349E-01  0.11678228933E+00  0.13414320644E+00  0.19641705474E-01 0.  0.
         14    1    1    2    0    0  0.10575403262E-01 -0.51047939130E-03 -0.20053177637E-01  0.22676632834E-01  0.00000000000E+00 0.  1.
     999901    1    3    3    0    0  0.28388841369E-01 -0.49010099957E-01 -0.96729111695E-01  0.88711016072E+00  0.88000000000E+00 0. -1.
        -11    1    4    4    0    0 -0.20605347277E-01  0.21038370185E-01  0.35818687134E-01  0.46372759520E-01  0.51100000000E-03 0. -1.
         11    1    4    4    0    0 -0.18358897354E-01  0.28482209164E-01  0.80963602198E-01  0.87770446921E-01  0.51100000000E-03 0.  1.
</event>
<event>
 8    1  0.1076043E+005  0.1043930E+01  0.7957747E-01            NaN
         13   -1    0    0    0    0  0.00000000000E+00  0.00000000000E+00  0.74505805969E-08  0.10566000000E+00  0.10566000000E+00 0.  1.
     999900   -1    0    0    0    0 -0.00000000000E+00 -0.00000000000E+00 -0.74505805969E-08  0.93827000000E+00  0.93827000000E+00 0. -1.
     999902    2    1    2    0    0  0.17864027506E-01 -0.22442775225E-01  0.19416475305E-01  0.10092918541E+01  0.10086973013E+01 0.  0.
     999903    2    3    3    0    0 -0.36868630031E-01 -0.31430752262E-01  0.11118710040E+00  0.12278280441E+00  0.19127406924E-01 0.  0.
         14    1    1    2    0    0 -0.17864027506E-01  0.22442775225E-01 -0.19416475305E-01  0.34638145906E-01  0.00000000000E+00 0.  1.
     999901    1    3    3    0    0  0.54732657537E-01  0.89879770372E-02 -0.91770625099E-01  0.88650904968E+00  0.88000000000E+00 0. -1.
        -11    1    4    4    0    0 -0.14741814988E-01 -0.21319333605E-01  0.73351102097E-01  0.77797688875E-01  0.51100000000E-03 0. -1.
         11    1    4    4    0    0 -0.22126815044E-01 -0.10111418657E-01  0.37835998307E-01  0.44985115540E-01  0.51100000000E-03 0.  1.
</event>
<event>
 8    1  0.1076043E+005  0.1043930E+01  0.7957747E-01            NaN
         13   -1    0    0    0    0  0.00000000000E+00  0.00000000000E+00  0.74505805969E-08  0.10566000000E+00  0.10566000000E+00 0. -1.
     999900   -1    0    0    0    0 -0.00000000000E+00 -0.00000000000E+00 -0.74505805969E-08  0.93827000000E+00  0.93827000000E+00 0.  1.
     999902    2    1    2    0    0  0.11632513522E-01 -0.13257042540E-01  0.16914948384E-01  0.10194927328E+01  0.10191998098E+01 0.  0.
     999903    2    3    3    0    0 -0.69698136315E-01 -0.84721748939E-01  0.69187134529E-01  0.13131805389E+00  0.20541829160E-01 0.  0.
         14    1    1    2    0    0 -0.11632513522E-01  0.13257042540E-01 -0.16914948384E-01  0.24437267167E-01  0.00000000000E+00 0.  1.
     999901    1    3    3    0    0  0.81330649837E-01  0.71464706399E-01 -0.52272186144E-01  0.88817467894E+00  0.88000000000E+00 0.  1.
        -11    1    4    4    0    0 -0.52522024260E-01 -0.73930806291E-01  0.61707850869E-01  0.10969251174E+00  0.51100000000E-03 0. -1.
         11    1    4    4    0    0 -0.17176112054E-01 -0.10790942648E-01  0.74792836596E-02  0.21625542157E-01  0.51100000000E-03 0.  1.
</event>
<event>
 8    1  0.1076043E+005  0.1043930E+01  0.7957747E-01            NaN
         13   -1    0    0    0    0  0.00000000000E+00  0.00000000000E+00  0.74505805969E-08  0.10566000000E+00  0.10566000000E+00 0. -1.
     999900   -1    0    0    0    0 -0.00000000000E+00 -0.00000000000E+00 -0.74505805969E-08  0.93827000000E+00  0.93827000000E+00 0. -1.
     999902    2    1    2    0    0  0.23161043779E-03  0.11219956651E-01 -0.21367629250E-01  0.10197946183E+01  0.10195089734E+01 0.  0.
     999903    2    3    3    0    0 -0.37470783479E-01 -0.64468157653E-02 -0.12544605364E+00  0.13268363099E+00  0.20557541508E-01 0.  0.
         14    1    1    2    0    0 -0.23161043779E-03 -0.11219956651E-01  0.21367629250E-01  0.24135381712E-01  0.00000000000E+00 0. -1.
     999901    1    3    3    0    0  0.37702393917E-01  0.17666772416E-01  0.10407842439E+00  0.88711098729E+00  0.88000000000E+00 0.  1.
        -11    1    4    4    0    0 -0.21727993397E-01  0.66563687426E-02 -0.65094441031E-01  0.68948968926E-01  0.51100000000E-03 0.  1.
         11    1    4    4    0    0 -0.15742790082E-01 -0.13103184508E-01 -0.60351612605E-01  0.63734662067E-01  0.51100000000E-03 0. -1.
</event>
<event>
 8    1  0.1076043E+005  0.1043930E+01  0.7957747E-01            NaN
         13   -1    0    0    0    0  0.00000000000E+00  0.00000000000E+00  0.74505805969E-08  0.10566000000E+00  0.10566000000E+00 0. -1.
     999900   -1    0    0    0    0 -0.00000000000E+00 -0.00000000000E+00 -0.74505805969E-08  0.93827000000E+00  0.93827000000E+00 0. -1.
     999902    2    1    2    0    0 -0.60987045585E-02 -0.24108333636E-01  0.36571761893E-02  0.10187947481E+01  0.10184846381E+01 0.  0.
     999903    2    3    3    0    0  0.67450572763E-01  0.42872633161E-01  0.98160874971E-01  0.12816188597E+00  0.20056649777E-01 0.  0.
         14    1    1    2    0    0  0.60987045585E-02  0.24108333636E-01 -0.36571761893E-02  0.25135251852E-01  0.00000000000E+00 0.  1.
     999901    1    3    3    0    0 -0.73549277322E-01 -0.66980966797E-01 -0.94503698781E-01  0.89063286218E+00  0.88000000000E+00 0. -1.
        -11    1    4    4    0    0  0.57943138101E-01  0.43839342516E-01  0.83932906963E-01  0.11101481522E+00  0.51100000000E-03 0. -1.
         11    1    4    4    0    0  0.95074346621E-02 -0.96670935477E-03  0.14227968007E-01  0.17147070754E-01  0.51100000000E-03 0.  1.
</event>
<event>
 8    1  0.1076043E+005  0.1043930E+01  0.7957747E-01            NaN
         13   -1    0    0    0    0  0.00000000000E+00  0.00000000000E+00  0.74505805969E-08  0.10566000000E+00  0.10566000000E+00 0. -1.
     999900   -1    0    0    0    0 -0.00000000000E+00 -0.00000000000E+00 -0.74505805969E-08  0.93827000000E+00  0.93827000000E+00 0. -1.
     999902    2    1    2    0    0  0.11161539904E-01 -0.23675793002E-02  0.21763452751E-01  0.10193569806E+01  0.10190607542E+01 0.  0.
     999903    2    3    3    0    0 -0.12365313275E-01  0.37935479482E-01  0.12441965481E+00  0.13216131722E+00  0.19858542040E-01 0.  0.
         14    1    1    2    0    0 -0.11161539904E-01  0.23675793002E-02 -0.21763452751E-01  0.24573019359E-01  0.00000000000E+00 0.  1.
     999901    1    3    3    0    0  0.23526853180E-01 -0.40303058782E-01 -0.10265620206E+00  0.88719566342E+00  0.88000000000E+00 0. -1.
        -11    1    4    4    0    0 -0.69582149390E-02  0.84397791447E-03  0.17376126011E-01  0.18743530351E-01  0.51100000000E-03 0.  1.
         11    1    4    4    0    0 -0.54070983364E-02  0.37091501567E-01  0.10704352880E+00  0.11341778687E+00  0.51100000000E-03 0. -1.
</event>
<event>
 8    1  0.1076043E+005  0.1043930E+01  0.7957747E-01            NaN
         13   -1    0    0    0    0  0.00000000000E+00  0.00000000000E+00  0.74505805969E-08  0.10566000000E+00  0.10566000000E+00 0.  1.
     999900   -1    0    0    0    0 -0.00000000000E+00 -0.00000000000E+00 -0.74505805969E-08  0.93827000000E+00  0.93827000000E+00 0.  1.
     999902    2    1    2    0    0 -0.51959359760E-02  0.49462886433E-02 -0.23883492472E-01  0.10189923831E+01  0.10186871905E+01 0.  0.
     999903    2    3    3    0    0  0.18826442725E-01  0.49932186629E-01  0.11248683445E+00  0.12702956342E+00  0.25210391712E-01 0.  0.
         14    1    1    2    0    0  0.51959359760E-02 -0.49462886433E-02  0.23883492472E-01  0.24937616860E-01  0.00000000000E+00 0.  1.
     999901    1    3    3    0    0 -0.24022378701E-01 -0.44985897986E-01 -0.13637032692E+00  0.89196281972E+00  0.88000000000E+00 0. -1.
        -11    1    4    4    0    0  0.11008266431E-01  0.43973136438E-01  0.69850469671E-01  0.83271651193E-01  0.51100000000E-03 0.  1.
         11    1    4    4    0    0  0.78181762936E-02  0.59590501911E-02  0.42636364781E-01  0.43757912228E-01  0.51100000000E-03 0. -1.
</event>
<event>
 8    1  0.1076043E+005  0.1043930E+01  0.7957747E-01            NaN
         13   -1    0    0    0    0  0.00000000000E+00  0.00000000000E+00  0.74505805969E-08  0.10566000000E+00  0.10566000000E+00 0.  1.
     999900   -1    0    0    0    0 -0.00000000000E+00 -0.00000000000E+00 -0.74505805969E-08  0.93827000000E+00  0.93827000000E+00 0.  1.
     999902    2    1    2    0    0  0.11356617101E-01 -0.17982945923E-01  0.99811000919E-02  0.10204357144E+01  0.10201652150E+01 0.  0.
     999903    2    3    3    0    0  0.10748255256E+00 -0.62159008916E-01  0.44783767784E-01  0.13341657951E+00  0.19446242248E-01 0.  0.
         14    1    1    2    0    0 -0.11356617101E-01  0.17982945923E-01 -0.99811000919E-02  0.23494285584E-01  0.00000000000E+00 0. -1.
     999901    1    3    3    0    0 -0.96125935458E-01  0.44176062992E-01 -0.34802667692E-01  0.88701913491E+00  0.88000000000E+00 0. -1.
        -11    1    4    4    0    0  0.83777713788E-01 -0.43036017344E-01  0.26312303817E-01  0.97792650897E-01  0.51100000000E-03 0. -1.
         11    1    4    4    0    0  0.23704838771E-01 -0.19122991571E-01  0.18471463967E-01  0.35623928614E-01  0.51100000000E-03 0.  1.
</event>
<event>
 7    1  0.1076043E+005  0.1043930E+01  0.7957747E-01            NaN
         13   -1    0    0    0    0  0.00000000000E+00  0.00000000000E+00  0.74505805969E-08  0.10566000000E+00  0.10566000000E+00 0. -1.
     999900   -1    0    0    0    0 -0.00000000000E+00 -0.00000000000E+00 -0.74505805969E-08  0.93827000000E+00  0.93827000000E+00 0. -1.
     999903    2    1    2    0    0  0.73701759628E-01 -0.30167638382E-01 -0.47910121480E-01  0.95981391066E-01  0.23979406018E-01 0.  0.
         14    1    1    2    0    0  0.19306010962E-01 -0.52737320049E-01  0.16834903760E-01  0.58629011332E-01  0.00000000000E+00 0. -1.
     999901    1    1    2    0    0 -0.93007770589E-01  0.82904958431E-01  0.31075217719E-01  0.88931959760E+00  0.88000000000E+00 0. -1.
        -11    1    3    3    0    0  0.60649875053E-01 -0.31613498584E-01 -0.46625857268E-01  0.82777124398E-01  0.51100000000E-03 0. -1.
         11    1    3    3    0    0  0.13051884575E-01  0.14458602014E-02 -0.12842642117E-02  0.13204266668E-01  0.51100000000E-03 0.  1.
</event>
<event>
 8    1  0.1076043E+005  0.1043930E+01  0.7957747E-01            NaN
         13   -1    0    0    0    0  0.00000000000E+00  0.00000000000E+00  0.74505805969E-08  0.10566000000E+00  0.10566000000E+00 0. -1.
     999900   -1    0    0    0    0 -0.00000000000E+00 -0.00000000000E+00 -0.74505805969E-08  0.93827000000E+00  0.93827000000E+00 0. -1.
     999902    2    1    2    0    0  0.14969336426E-01 -0.46309693726E-02 -0.17629437954E-01  0.10203434786E+01  0.10200708261E+01 0.  0.
     999903    2    3    3    0    0  0.95535364591E-01 -0.14981199090E-01  0.85979107989E-01  0.13054982669E+00  0.17303410749E-01 0.  0.
         14    1    1    2    0    0 -0.14969336426E-01  0.46309693726E-02  0.17629437954E-01  0.23586521425E-01  0.00000000000E+00 0. -1.
     999901    1    3    3    0    0 -0.80566028164E-01  0.10350229718E-01 -0.10360854594E+00  0.88979365189E+00  0.88000000000E+00 0. -1.
        -11    1    4    4    0    0  0.65980008221E-01 -0.14300850030E-01  0.50185408096E-01  0.84123195988E-01  0.51100000000E-03 0.  1.
         11    1    4    4    0    0  0.29555356370E-01 -0.68034905988E-03  0.35793699893E-01  0.46426630699E-01  0.51100000000E-03 0. -1.
</event>
<event>
 8    1  0.1076043E+005  0.1043930E+01  0.7957747E-01            NaN
         13   -1    0    0    0    0  0.00000000000E+00  0.00000000000E+00  0.74505805969E-08  0.10566000000E+00  0.10566000000E+00 0.  1.
     999900   -1    0    0    0    0 -0.00000000000E+00 -0.00000000000E+00 -0.74505805969E-08  0.93827000000E+00  0.93827000000E+00 0. -1.
     999902    2    1    2    0    0  0.24982500974E-02  0.12748686001E-01 -0.20972376205E-01  0.10192599612E+01  0.10189613623E+01 0.  0.
     999903    2    3    3    0    0 -0.63841968873E-02  0.39691638912E-01  0.11951822723E+00  0.12766452035E+00  0.19935870861E-01 0.  0.
         14    1    1    2    0    0 -0.24982500974E-02 -0.12748686001E-01  0.20972376205E-01  0.24670038751E-01  0.00000000000E+00 0.  1.
     999901    1    3    3    0    0  0.88824469847E-02 -0.26942952912E-01 -0.14049060343E+00  0.89159544090E+00  0.88000000000E+00 0. -1.
        -11    1    4    4    0    0 -0.11709036076E-01  0.21155553220E-01  0.81774467025E-01  0.85275925888E-01  0.51100000000E-03 0. -1.
         11    1    4    4    0    0  0.53248391885E-02  0.18536085693E-01  0.37743760205E-01  0.42388594464E-01  0.51100000000E-03 0.  1.
</event>
<event>
 8    1  0.1076043E+005  0.1043930E+01  0.7957747E-01            NaN
         13   -1    0    0    0    0  0.00000000000E+00  0.00000000000E+00  0.74505805969E-08  0.10566000000E+00  0.10566000000E+00 0. -1.
     999900   -1    0    0    0    0 -0.00000000000E+00 -0.00000000000E+00 -0.74505805969E-08  0.93827000000E+00  0.93827000000E+00 0.  1.
     999902    2    1    2    0    0  0.22803126450E-01  0.40232367356E-02  0.45854521438E-02  0.10203250136E+01  0.10200519291E+01 0.  0.
     999903    2    3    3    0    0 -0.67124007710E-01  0.10768292912E+00 -0.16898559363E-01  0.12943007930E+00  0.19113829648E-01 0.  0.
         14    1    1    2    0    0 -0.22803126450E-01 -0.40232367356E-02 -0.45854521438E-02  0.23604986360E-01  0.00000000000E+00 0.  1.
     999901    1    3    3    0    0  0.89927134160E-01 -0.10365969238E+00  0.21484011506E-01  0.89089493434E+00  0.88000000000E+00 0.  1.
        -11    1    4    4    0    0 -0.63094618751E-01  0.92340243955E-01 -0.10546537051E-01  0.11233495508E+00  0.51100000000E-03 0.  1.
         11    1    4    4    0    0 -0.40293889588E-02  0.15342685165E-01 -0.63520223120E-02  0.17095124214E-01  0.51100000000E-03 0. -1.
</event>
<event>
 8    1  0.1076043E+005  0.1043930E+01  0.7957747E-01            NaN
         13   -1    0    0    0    0  0.00000000000E+00  0.00000000000E+00  0.74505805969E-08  0.10566000000E+00  0.10566000000E+00 0.  1.
     999900   -1    0    0    0    0 -0.00000000000E+00 -0.00000000000E+00 -0.74505805969E-08  0.93827000000E+00  0.93827000000E+00 0.  1.
     999902    2    1    2    0    0  0.68920717525E-02  0.15120853583E-01 -0.14986761547E-01  0.10215526926E+01  0.10213075736E+01 0.  0.
     999903    2    3    3    0    0  0.53756002501E-01  0.75239260059E-02 -0.12047620763E+00  0.13398187030E+00  0.22142892665E-01 0.  0.
         14    1    1    2    0    0 -0.68920717525E-02 -0.15120853583E-01  0.14986761547E-01  0.22377307429E-01  0.00000000000E+00 0.  1.
     999901    1    3    3    0    0 -0.46863930748E-01  0.75969275772E-02  0.10548944609E+00  0.88757082227E+00  0.88000000000E+00 0. -1.
        -11    1    4    4    0    0  0.37264686623E-01  0.13460850167E-01 -0.68592455690E-01  0.79215134002E-01  0.51100000000E-03 0. -1.
         11    1    4    4    0    0  0.16491315878E-01 -0.59369241612E-02 -0.51883751943E-01  0.54766736297E-01  0.51100000000E-03 0.  1.
</event>
<event>
 8    1  0.1076043E+005  0.1043930E+01  0.7957747E-01            NaN
         13   -1    0    0    0    0  0.00000000000E+00  0.00000000000E+00  0.74505805969E-08  0.10566000000E+00  0.10566000000E+00 0.  1.
     999900   -1    0    0    0    0 -0.00000000000E+00 -0.00000000000E+00 -0.74505805969E-08  0.93827000000E+00  0.93827000000E+00 0. -1.
     999902    2    1    2    0    0  0.13317398464E-01 -0.17218774581E-01 -0.97239342938E-02  0.10200889808E+01  0.10198103424E+01 0.  0.
     999903    2    3    3    0    0  0.10466772830E+00  0.46601662157E-01  0.58794521315E-01  0.13041898034E+00  0.20621989015E-01 0.  0.
         14    1    1    2    0    0 -0.13317398464E-01  0.17218774581E-01  0.97239342938E-02  0.23841019233E-01  0.00000000000E+00 0.  1.
     999901    1    3    3    0    0 -0.91350329841E-01 -0.63820436739E-01 -0.68518455609E-01  0.88967000043E+00  0.88000000000E+00 0. -1.
        -11    1    4    4    0    0  0.57780161028E-01  0.27483797813E-01  0.21397281406E-01  0.67468592124E-01  0.51100000000E-03 0. -1.
         11    1    4    4    0    0  0.46887567277E-01  0.19117864345E-01  0.37397239909E-01  0.62950388212E-01  0.51100000000E-03 0.  1.
</event>
<event>
 8    1  0.1076043E+005  0.1043930E+01  0.7957747E-01            NaN
         13   -1    0    0    0    0  0.00000000000E+00  0.00000000000E+00  0.74505805969E-08  0.10566000000E+00  0.10566000000E+00 0.  1.
     999900   -1    0    0    0    0 -0.00000000000E+00 -0.00000000000E+00 -0.74505805969E-08  0.93827000000E+00  0.93827000000E+00 0. -1.
     999902    2    1    2    0    0  0.57047062050E-02 -0.59978991641E-02  0.13199921925E-01  0.10283493580E+01  0.10282313191E+01 0.  0.
     999903    2    3    3    0    0 -0.11342469958E+00 -0.32559124232E-01 -0.65492056349E-01  0.13644704188E+00  0.20082996485E-01 0.  0.
         14    1    1    2    0    0 -0.57047062050E-02  0.59978991641E-02 -0.13199921925E-01  0.15580642031E-01  0.00000000000E+00 0. -1.
     999901    1    3    3    0    0  0.11912940578E+00  0.26561225068E-01  0.78691978274E-01  0.89190231609E+00  0.88000000000E+00 0.  1.
        -11    1    4    4    0    0 -0.30832057053E-01 -0.14687137766E-01 -0.27236947271E-01  0.43685697609E-01  0.51100000000E-03 0. -1.
         11    1    4    4    0    0 -0.82592642525E-01 -0.17871986466E-01 -0.38255109077E-01  0.92761344271E-01  0.51100000000E-03 0.  1.
</event>
<event>
 8    1  0.1076043E+005  0.1043930E+01  0.7957747E-01            NaN
         13   -1    0    0    0    0  0.00000000000E+00  0.00000000000E+00  0.74505805969E-08  0.10566000000E+00  0.10566000000E+00 0. -1.
     999900   -1    0    0    0    0 -0.00000000000E+00 -0.00000000000E+00 -0.74505805969E-08  0.93827000000E+00  0.93827000000E+00 0.  1.
     999902    2    1    2    0    0  0.21348219322E-01 -0.10252674009E-01 -0.27291646556E-02  0.10200907019E+01  0.10198121043E+01 0.  0.
     999903    2    3    3    0    0  0.10021606605E+00 -0.14859774402E-01  0.82759142679E-01  0.13242544222E+00  0.20575452842E-01 0.  0.
         14    1    1    2    0    0 -0.21348219322E-01  0.10252674009E-01  0.27291646556E-02  0.23839298066E-01  0.00000000000E+00 0. -1.
     999901    1    3    3    0    0 -0.78867846725E-01  0.46071003932E-02 -0.85488307335E-01  0.88766525972E+00  0.88000000000E+00 0.  1.
        -11    1    4    4    0    0  0.27112553814E-01 -0.12792909660E-01  0.19870602167E-01  0.35970141276E-01  0.51100000000E-03 0. -1.
         11    1    4    4    0    0  0.73103512233E-01 -0.20668647427E-02  0.62888540512E-01  0.96455300939E-01  0.51100000000E-03 0.  1.
</event>
<event>
 8    1  0.1076043E+005  0.1043930E+01  0.7957747E-01            NaN
         13   -1    0    0    0    0  0.00000000000E+00  0.00000000000E+00  0.74505805969E-08  0.10566000000E+00  0.10566000000E+00 0. -1.
     999900   -1    0    0    0    0 -0.00000000000E+00 -0.00000000000E+00 -0.74505805969E-08  0.93827000000E+00  0.93827000000E+00 0. -1.
     999902    2    1    2    0    0 -0.17641616595E-01 -0.35267528789E-03  0.15815680670E-01  0.10202342879E+01  0.10199590754E+01 0.  0.
     999903    2    3    3    0    0 -0.68257354327E-01 -0.87606013143E-01  0.70142897964E-01  0.13280736450E+00  0.19593110313E-01 0.  0.
         14    1    1    2    0    0  0.17641616595E-01  0.35267528789E-03 -0.15815680670E-01  0.23695712081E-01  0.00000000000E+00 0.  1.
     999901    1    3    3    0    0  0.50615737732E-01  0.87253337855E-01 -0.54327217293E-01  0.88742692342E+00  0.88000000000E+00 0.  1.
        -11    1    4    4    0    0 -0.39675293659E-01 -0.36642868255E-01  0.28629017957E-01  0.61128639042E-01  0.51100000000E-03 0. -1.
         11    1    4    4    0    0 -0.28582060667E-01 -0.50963144888E-01  0.41513880007E-01  0.71678725457E-01  0.51100000000E-03 0.  1.
</event>
<event>
 8    1  0.1076043E+005  0.1043930E+01  0.7957747E-01            NaN
         13   -1    0    0    0    0  0.00000000000E+00  0.00000000000E+00  0.74505805969E-08  0.10566000000E+00  0.10566000000E+00 0. -1.
     999900   -1    0    0    0    0 -0.00000000000E+00 -0.00000000000E+00 -0.74505805969E-08  0.93827000000E+00  0.93827000000E+00 0. -1.
     999902    2    1    2    0    0  0.88251443953E-02  0.10682026035E-01 -0.19032182848E-01  0.10203882745E+01  0.10201166688E+01 0.  0.
     999903    2    3    3    0    0 -0.85326568355E-01  0.90114571384E-01 -0.38465516978E-01  0.13159598792E+00  0.20896143119E-01 0.  0.
         14    1    1    2    0    0 -0.88251443953E-02 -0.10682026035E-01  0.19032182848E-01  0.23541725463E-01  0.00000000000E+00 0. -1.
     999901    1    3    3    0    0  0.94151712751E-01 -0.79432545349E-01  0.19433334130E-01  0.88879228662E+00  0.88000000000E+00 0. -1.
        -11    1    4    4    0    0 -0.17686021009E-01  0.28627025374E-01 -0.16970834618E-01  0.37690479826E-01  0.51100000000E-03 0. -1.
         11    1    4    4    0    0 -0.67640547346E-01  0.61487546010E-01 -0.21494682360E-01  0.93905508094E-01  0.51100000000E-03 0.  1.
</event>
<event>
 8    1  0.1076043E+005  0.1043930E+01  0.7957747E-01            NaN
         13   -1    0    0    0    0  0.00000000000E+00  0.00000000000E+00  0.74505805969E-08  0.10566000000E+00  0.10566000000E+00 0.  1.
     999900   -1    0    0    0    0 -0.00000000000E+00 -0.00000000000E+00 -0.74505805969E-08  0.93827000000E+00  0.93827000000E+00 0.  1.
     999902    2    1    2    0    0 -0.13671084685E-01  0.19273655059E-01 -0.30371068216E-02  0.10201057192E+01  0.10198274766E+01 0.  0.
     999903    2    3    3    0    0 -0.15403453987E-01  0.11917641508E+00 -0.53520609919E-01  0.13301375859E+00  0.19695684401E-01 0.  0.
         14    1    1    2    0    0  0.13671084685E-01 -0.19273655059E-01  0.30371068216E-02  0.23824280758E-01  0.00000000000E+00 0.  1.
     999901    1    3    3    0    0  0.17323693018E-02 -0.99902760016E-01  0.50483503098E-01  0.88709196065E+00  0.88000000000E+00 0.  1.
        -11    1    4    4    0    0 -0.15593502838E-01  0.64914930719E-01 -0.22191585995E-01  0.70355050785E-01  0.51100000000E-03 0.  1.
         11    1    4    4    0    0  0.19004885118E-03  0.54261484356E-01 -0.31329023924E-01  0.62658707808E-01  0.51100000000E-03 0. -1.
</event>
<event>
 8    1  0.1076043E+005  0.1043930E+01  0.7957747E-01            NaN
         13   -1    0    0    0    0  0.00000000000E+00  0.00000000000E+00  0.74505805969E-08  0.10566000000E+00  0.10566000000E+00 0. -1.
     999900   -1    0    0    0    0 -0.00000000000E+00 -0.00000000000E+00 -0.74505805969E-08  0.93827000000E+00  0.93827000000E+00 0. -1.
     999902    2    1    2    0    0  0.17785171515E-01  0.78104953862E-03  0.16785128801E-01  0.10194624110E+01  0.10191687517E+01 0.  0.
     999903    2    3    3    0    0  0.14562464794E-01 -0.10077256107E+00  0.80658687874E-01  0.13131639076E+00  0.19261259190E-01 0.  0.
         14    1    1    2    0    0 -0.17785171515E-01 -0.78104953862E-03 -0.16785128801E-01  0.24467589033E-01  0.00000000000E+00 0.  1.
     999901    1    3    3    0    0  0.32227067215E-02  0.10155361061E+00 -0.63873559073E-01  0.88814602021E+00  0.88000000000E+00 0. -1.
        -11    1    4    4    0    0  0.30526191163E-03 -0.48872580134E-01  0.47158521490E-01  0.67917667392E-01  0.51100000000E-03 0.  1.
         11    1    4    4    0    0  0.14257202882E-01 -0.51899980939E-01  0.33500166384E-01  0.63398723365E-01  0.51100000000E-03 0. -1.
</event>
<event>
 8    1  0.1076043E+005  0.1043930E+01  0.7957747E-01            NaN
         13   -1    0    0    0    0  0.00000000000E+00  0.00000000000E+00  0.74505805969E-08  0.10566000000E+00  0.10566000000E+00 0. -1.
     999900   -1    0    0    0    0 -0.00000000000E+00 -0.00000000000E+00 -0.74505805969E-08  0.93827000000E+00  0.93827000000E+00 0.  1.
     999902    2    1    2    0    0  0.19504633228E-01 -0.27983655904E-02  0.13551274891E-01  0.10200155981E+01  0.10197352214E+01 0.  0.
     999903    2    3    3    0    0 -0.58677455192E-01 -0.50253144637E-01  0.10339169715E+00  0.13072616463E+00  0.20762099752E-01 0.  0.
         14    1    1    2    0    0 -0.19504633228E-01  0.27983655904E-02 -0.13551274891E-01  0.23914401905E-01  0.00000000000E+00 0.  1.
     999901    1    3    3    0    0  0.78182088420E-01  0.47454779046E-01 -0.89840422254E-01  0.88928943347E+00  0.88000000000E+00 0.  1.
        -11    1    4    4    0    0 -0.35021532753E-01 -0.41255355465E-01  0.62948980182E-01  0.83014139385E-01  0.51100000000E-03 0.  1.
         11    1    4    4    0    0 -0.23655922439E-01 -0.89977891723E-02  0.40442716963E-01  0.47712025243E-01  0.51100000000E-03 0. -1.
</event>
<event>
 8    1  0.1076043E+005  0.1043930E+01  0.7957747E-01            NaN
         13   -1    0    0    0    0  0.00000000000E+00  0.00000000000E+00  0.74505805969E-08  0.10566000000E+00  0.10566000000E+00 0. -1.
     999900   -1    0    0    0    0 -0.00000000000E+00 -0.00000000000E+00 -0.74505805969E-08  0.93827000000E+00  0.93827000000E+00 0.  1.
     999902    2    1    2    0    0  0.11576926183E-01  0.19671100653E-01 -0.74136396103E-02  0.10199312610E+01  0.10196488796E+01 0.  0.
     999903    2    3    3    0    0  0.54591725018E-01 -0.17884102236E-01  0.11457623493E+00  0.12968287114E+00  0.19744262530E-01 0.  0.
         14    1    1    2    0    0 -0.11576926183E-01 -0.19671100653E-01  0.74136396103E-02  0.23998738988E-01  0.00000000000E+00 0. -1.
     999901    1    3    3    0    0 -0.43014798835E-01  0.37555202889E-01 -0.12198987454E+00  0.89024838987E+00  0.88000000000E+00 0.  1.
        -11    1    4    4    0    0  0.21454899744E-01  0.15137828975E-02  0.31318455645E-01  0.37996197792E-01  0.51100000000E-03 0. -1.
         11    1    4    4    0    0  0.33136825274E-01 -0.19397885133E-01  0.83257779284E-01  0.91686673346E-01  0.51100000000E-03 0.  1.
</event>
<event>
 7    1  0.1726742E+005  0.1043930E+01  0.7957747E-01            NaN
         13   -1    0    0    0    0  0.00000000000E+00  0.00000000000E+00  0.74505805969E-08  0.10566000000E+00  0.10566000000E+00 0. -1.
     999900   -1    0    0    0    0 -0.00000000000E+00 -0.00000000000E+00 -0.74505805969E-08  0.93827000000E+00  0.93827000000E+00 0.  1.
     999903    2    1    2    0    0 -0.32802371933E-01 -0.94140946359E-01  0.39782982157E-01  0.11024683503E+00  0.25162781633E-01 0.  0.
         14    1    1    2    0    0  0.44274920012E-01  0.16793174438E-01 -0.15700734859E-01  0.49887797354E-01  0.00000000000E+00 0.  1.
     999901    1    1    2    0    0 -0.11472548078E-01  0.77347771921E-01 -0.24082247298E-01  0.88379536761E+00  0.88000000000E+00 0.  1.
        -11    1    3    3    0    0 -0.13976671069E-01 -0.68492728772E-01  0.34626631160E-01  0.78011960206E-01  0.51100000000E-03 0.  1.
         11    1    3    3    0    0 -0.18825700864E-01 -0.25648217588E-01  0.51563509965E-02  0.32234874826E-01  0.51100000000E-03 0. -1.
</event>
<event>
 8    1  0.1076043E+005  0.1043930E+01  0.7957747E-01            NaN
         13   -1    0    0    0    0  0.00000000000E+00  0.00000000000E+00  0.74505805969E-08  0.10566000000E+00  0.10566000000E+00 0. -1.
     999900   -1    0    0    0    0 -0.00000000000E+00 -0.00000000000E+00 -0.74505805969E-08  0.93827000000E+00  0.93827000000E+00 0. -1.
     999902    2    1    2    0    0  0.12046724831E-01  0.70502798405E-02  0.19165435501E-01  0.10202204251E+01  0.10199448867E+01 0.  0.
     999903    2    3    3    0    0  0.82989153933E-01 -0.79602230027E-01 -0.56672777415E-01  0.12988738613E+00  0.20861799519E-01 0.  0.
         14    1    1    2    0    0 -0.12046724831E-01 -0.70502798405E-02 -0.19165435501E-01  0.23709574920E-01  0.00000000000E+00 0.  1.
     999901    1    3    3    0    0 -0.70942429102E-01  0.86652509867E-01  0.75838212915E-01  0.89033303895E+00  0.88000000000E+00 0.  1.
        -11    1    4    4    0    0  0.22337340761E-01 -0.33746365866E-01 -0.14877993910E-01  0.43120642681E-01  0.51100000000E-03 0.  1.
         11    1    4    4    0    0  0.60651813172E-01 -0.45855864161E-01 -0.41794783504E-01  0.86766743446E-01  0.51100000000E-03 0. -1.
</event>
<event>
 8    1  0.1076043E+005  0.1043930E+01  0.7957747E-01            NaN
         13   -1    0    0    0    0  0.00000000000E+00  0.00000000000E+00  0.74505805969E-08  0.10566000000E+00  0.10566000000E+00 0. -1.
     999900   -1    0    0    0    0 -0.00000000000E+00 -0.00000000000E+00 -0.74505805969E-08  0.93827000000E+00  0.93827000000E+00 0.  1.
     999902    2    1    2    0    0 -0.22776964911E-01 -0.30106285270E-03  0.73882230709E-02  0.10199828371E+01  0.10197016826E+01 0.  0.
     999903    2    3    3    0    0 -0.46921001031E-01  0.11679232750E+00  0.32136989648E-01  0.13155371897E+00  0.20774185227E-01 0.  0.
         14    1    1    2    0    0  0.22776964911E-01  0.30106285270E-03 -0.73882230709E-02  0.23947162870E-01  0.00000000000E+00 0.  1.
     999901    1    3    3    0    0  0.24144036121E-01 -0.11709339035E+00 -0.24748766577E-01  0.88842911816E+00  0.88000000000E+00 0. -1.
        -11    1    4    4    0    0 -0.24954336540E-01  0.87241328428E-01  0.23173692410E-01  0.93653881067E-01  0.51100000000E-03 0.  1.
         11    1    4    4    0    0 -0.21966664492E-01  0.29550999069E-01  0.89632972376E-02  0.37899837905E-01  0.51100000000E-03 0. -1.
</event>
<event>
 8    1  0.1076043E+005  0.1043930E+01  0.7957747E-01            NaN
         13   -1    0    0    0    0  0.00000000000E+00  0.00000000000E+00  0.74505805969E-08  0.10566000000E+00  0.10566000000E+00 0. -1.
     999900   -1    0    0    0    0 -0.00000000000E+00 -0.00000000000E+00 -0.74505805969E-08  0.93827000000E+00  0.93827000000E+00 0.  1.
     999902    2    1    2    0    0  0.39116924800E-02  0.22013176481E-01  0.41364790211E-02  0.10211925477E+01  0.10209393850E+01 0.  0.
     999903    2    3    3    0    0 -0.51966040582E-01 -0.52828005111E-01  0.10687497570E+00  0.13030606663E+00  0.81328390577E-02 0.  0.
         14    1    1    2    0    0 -0.39116924800E-02 -0.22013176481E-01 -0.41364790211E-02  0.22737452266E-01  0.00000000000E+00 0.  1.
     999901    1    3    3    0    0  0.55877733062E-01  0.74841181593E-01 -0.10273849668E+00  0.89088648110E+00  0.88000000000E+00 0.  1.
        -11    1    4    4    0    0 -0.31317167947E-01 -0.32968605430E-01  0.58702367239E-01  0.74255794337E-01  0.51100000000E-03 0.  1.
         11    1    4    4    0    0 -0.20648872635E-01 -0.19859399682E-01  0.48172608464E-01  0.56050272292E-01  0.51100000000E-03 0. -1.
</event>
<event>
 8    1  0.1076043E+005  0.1043930E+01  0.7957747E-01            NaN
         13   -1    0    0    0    0  0.00000000000E+00  0.00000000000E+00  0.74505805969E-08  0.10566000000E+00  0.10566000000E+00 0. -1.
     999900   -1    0    0    0    0 -0.00000000000E+00 -0.00000000000E+00 -0.74505805969E-08  0.93827000000E+00  0.93827000000E+00 0. -1.
     999902    2    1    2    0    0 -0.93132806809E-03  0.68419916141E-03 -0.23760887674E-01  0.10201410260E+01  0.10198636172E+01 0.  0.
     999903    2    3    3    0    0 -0.13136526097E-01  0.82364162753E-01  0.95372361458E-01  0.12828155594E+00  0.20095935895E-01 0.  0.
         14    1    1    2    0    0  0.93132806809E-03 -0.68419916141E-03  0.23760887674E-01  0.23788973990E-01  0.00000000000E+00 0. -1.
     999901    1    3    3    0    0  0.12205198029E-01 -0.81679963591E-01 -0.11913324913E+00  0.89185947007E+00  0.88000000000E+00 0. -1.
        -11    1    4    4    0    0 -0.20314983339E-02  0.64888512609E-01  0.75547530251E-01  0.99610925616E-01  0.51100000000E-03 0. -1.
         11    1    4    4    0    0 -0.11105027763E-01  0.17475650143E-01  0.19824831207E-01  0.28670630320E-01  0.51100000000E-03 0.  1.
</event>
<event>
 8    1  0.1076043E+005  0.1043930E+01  0.7957747E-01            NaN
         13   -1    0    0    0    0  0.00000000000E+00  0.00000000000E+00  0.74505805969E-08  0.10566000000E+00  0.10566000000E+00 0.  1.
     999900   -1    0    0    0    0 -0.00000000000E+00 -0.00000000000E+00 -0.74505805969E-08  0.93827000000E+00  0.93827000000E+00 0. -1.
     999902    2    1    2    0    0 -0.11575152983E-01  0.16780080847E-01  0.13474559618E-01  0.10194939808E+01  0.10192010880E+01 0.  0.
     999903    2    3    3    0    0 -0.75609210112E-01  0.11918258033E-01 -0.10240516810E+00  0.12957706941E+00  0.21085562254E-01 0.  0.
         14    1    1    2    0    0  0.11575152983E-01 -0.16780080847E-01 -0.13474559618E-01  0.24436019249E-01  0.00000000000E+00 0. -1.
     999901    1    3    3    0    0  0.64034057129E-01  0.48618228140E-02  0.11587972772E+00  0.88991691134E+00  0.88000000000E+00 0.  1.
        -11    1    4    4    0    0 -0.50001030945E-01  0.16217015902E-01 -0.77103983951E-01  0.93318702104E-01  0.51100000000E-03 0. -1.
         11    1    4    4    0    0 -0.25608179167E-01 -0.42987578694E-02 -0.25301184148E-01  0.36258367307E-01  0.51100000000E-03 0.  1.
</event>
<event>
 8    1  0.1076043E+005  0.1043930E+01  0.7957747E-01            NaN
         13   -1    0    0    0    0  0.00000000000E+00  0.00000000000E+00  0.74505805969E-08  0.10566000000E+00  0.10566000000E+00 0.  1.
     999900   -1    0    0    0    0 -0.00000000000E+00 -0.00000000000E+00 -0.74505805969E-08  0.93827000000E+00  0.93827000000E+00 0.  1.
     999902    2    1    2    0    0  0.72188233902E-03 -0.20598945443E-01 -0.12298077683E-01  0.10199283254E+01  0.10196458741E+01 0.  0.
     999903    2    3    3    0    0 -0.66657650114E-01 -0.80789023765E-01  0.76383481078E-01  0.13086856040E+00  0.17945340377E-01 0.  0.
         14    1    1    2    0    0 -0.72188233902E-03  0.20598945443E-01  0.12298077683E-01  0.24001674570E-01  0.00000000000E+00 0.  1.
     999901    1    3    3    0    0  0.67379532453E-01  0.60190078322E-01 -0.88681558761E-01  0.88905976502E+00  0.88000000000E+00 0.  1.
        -11    1    4    4    0    0 -0.16149856957E-02 -0.97262528763E-02  0.59053467598E-02  0.11504017349E-01  0.51100000000E-03 0.  1.
         11    1    4    4    0    0 -0.65042664418E-01 -0.71062770889E-01  0.70478134318E-01  0.11936454306E+00  0.51100000000E-03 0. -1.
</event>
<event>
 8    1  0.1076043E+005  0.1043930E+01  0.7957747E-01            NaN
         13   -1    0    0    0    0  0.00000000000E+00  0.00000000000E+00  0.74505805969E-08  0.10566000000E+00  0.10566000000E+00 0.  1.
     999900   -1    0    0    0    0 -0.00000000000E+00 -0.00000000000E+00 -0.74505805969E-08  0.93827000000E+00  0.93827000000E+00 0.  1.
     999902    2    1    2    0    0  0.97606314425E-02  0.10069398888E-01 -0.21417897091E-01  0.10183294329E+01  0.10180075859E+01 0.  0.
     999903    2    3    3    0    0  0.74972789908E-01 -0.39861433812E-01  0.92512255668E-01  0.12719207347E+00  0.20234944327E-01 0.  0.
         14    1    1    2    0    0 -0.97606314425E-02 -0.10069398888E-01  0.21417897091E-01  0.25600567102E-01  0.00000000000E+00 0.  1.
     999901    1    3    3    0    0 -0.65212158466E-01  0.49930832700E-01 -0.11393015276E+00  0.89113735943E+00  0.88000000000E+00 0.  1.
        -11    1    4    4    0    0  0.49601310944E-01 -0.32838269168E-01  0.74280405231E-01  0.95165548870E-01  0.51100000000E-03 0. -1.
         11    1    4    4    0    0  0.25371478964E-01 -0.70231646433E-02  0.18231850437E-01  0.32026524597E-01  0.51100000000E-03 0.  1.
</event>
<event>
 8    1  0.1076043E+005  0.1043930E+01  0.7957747E-01            NaN
         13   -1    0    0    0    0  0.00000000000E+00  0.00000000000E+00  0.74505805969E-08  0.10566000000E+00  0.10566000000E+00 0. -1.
     999900   -1    0    0    0    0 -0.00000000000E+00 -0.00000000000E+00 -0.74505805969E-08  0.93827000000E+00  0.93827000000E+00 0.  1.
     999902    2    1    2    0    0 -0.22003253703E-01 -0.23313285509E-01  0.12089439220E-01  0.10096691332E+01  0.10090876828E+01 0.  0.
     999903    2    3    3    0    0 -0.53223260837E-01  0.10057525566E+00 -0.30001969597E-01  0.11944739329E+00  0.20480821236E-01 0.  0.
         14    1    1    2    0    0  0.22003253703E-01  0.23313285509E-01 -0.12089439220E-01  0.34260866822E-01  0.00000000000E+00 0.  1.
     999901    1    3    3    0    0  0.31220007134E-01 -0.12388854117E+00  0.42091408817E-01  0.89022173989E+00  0.88000000000E+00 0. -1.
        -11    1    4    4    0    0 -0.36772035359E-01  0.49628370974E-01 -0.20421784526E-01  0.65057422284E-01  0.51100000000E-03 0.  1.
         11    1    4    4    0    0 -0.16451225478E-01  0.50946884684E-01 -0.95801850710E-02  0.54389971003E-01  0.51100000000E-03 0. -1.
</event>
<event>
 8    1  0.1076043E+005  0.1043930E+01  0.7957747E-01            NaN
         13   -1    0    0    0    0  0.00000000000E+00  0.00000000000E+00  0.74505805969E-08  0.10566000000E+00  0.10566000000E+00 0.  1.
     999900   -1    0    0    0    0 -0.00000000000E+00 -0.00000000000E+00 -0.74505805969E-08  0.93827000000E+00  0.93827000000E+00 0. -1.
     999902    2    1    2    0    0 -0.31530353718E-02  0.28338860716E-02 -0.23304077115E-01  0.10202434521E+01  0.10199684549E+01 0.  0.
     999903    2    3    3    0    0  0.63129380120E-01 -0.10755431817E+00  0.28183313376E-01  0.12938439161E+00  0.19818467307E-01 0.  0.
         14    1    1    2    0    0  0.31530353718E-02 -0.28338860716E-02  0.23304077115E-01  0.23686547923E-01  0.00000000000E+00 0.  1.
     999901    1    3    3    0    0 -0.66282415492E-01  0.11038820425E+00 -0.51487390492E-01  0.89085906047E+00  0.88000000000E+00 0. -1.
        -11    1    4    4    0    0  0.37772680950E-01 -0.80321253158E-01  0.15743753241E-01  0.90146580757E-01  0.51100000000E-03 0. -1.
         11    1    4    4    0    0  0.25356699170E-01 -0.27233065017E-01  0.12439560135E-01  0.39237810851E-01  0.51100000000E-03 0.  1.
</event>
<event>
 8    1  0.1076043E+005  0.1043930E+01  0.7957747E-01            NaN
         13   -1    0    0    0    0  0.00000000000E+00  0.00000000000E+00  0.74505805969E-08  0.10566000000E+00  0.10566000000E+00 0. -1.
     999900   -1    0    0    0    0 -0.00000000000E+00 -0.00000000000E+00 -0.74505805969E-08  0.93827000000E+00  0.93827000000E+00 0.  1.
     999902    2    1    2    0    0 -0.65979721024E-02  0.19908569763E-01  0.13598795139E-01  0.10189337680E+01  0.10186271211E+01 0.  0.
     999903    2    3    3    0    0 -0.85084150974E-01  0.78470189338E-01  0.61431865670E-01  0.13221084271E+00  0.17576957913E-01 0.  0.
         14    1    1    2    0    0  0.65979721024E-02 -0.19908569763E-01 -0.13598795139E-01  0.24996232018E-01  0.00000000000E+00 0.  1.
     999901    1    3    3    0    0  0.78486178872E-01 -0.58561619575E-01 -0.47833070531E-01  0.88672292527E+00  0.88000000000E+00 0.  1.
        -11    1    4    4    0    0 -0.46842099292E-01  0.50388254971E-01  0.43976932413E-01  0.81654088756E-01  0.51100000000E-03 0. -1.
         11    1    4    4    0    0 -0.38242051683E-01  0.28081934366E-01  0.17454933257E-01  0.50556753957E-01  0.51100000000E-03 0.  1.
</event>
<event>
 8    1  0.1076043E+005  0.1043930E+01  0.7957747E-01            NaN
         13   -1    0    0    0    0  0.00000000000E+00  0.00000000000E+00  0.74505805969E-08  0.10566000000E+00  0.10566000000E+00 0.  1.
     999900   -1    0    0    0    0 -0.00000000000E+00 -0.00000000000E+00 -0.74505805969E-08  0.93827000000E+00  0.93827000000E+00 0. -1.
     999902    2    1    2    0    0  0.44751478587E-02 -0.22767912855E-01 -0.51674254166E-02  0.10201580188E+01  0.10198810108E+01 0.  0.
     999903    2    3    3    0    0 -0.66203780913E-01 -0.11153894598E+00  0.18838448450E-01  0.13254769368E+00  0.19751629912E-01 0.  0.
         14    1    1    2    0    0 -0.44751478587E-02  0.22767912855E-01  0.51674254166E-02  0.23771981187E-01  0.00000000000E+00 0.  1.
     999901    1    3    3    0    0  0.70678928772E-01  0.88771033124E-01 -0.24005873866E-01  0.88761032513E+00  0.88000000000E+00 0.  1.
        -11    1    4    4    0    0 -0.80713340642E-02 -0.52189590746E-02 -0.12906183699E-02  0.97113739592E-02  0.51100000000E-03 0. -1.
         11    1    4    4    0    0 -0.58132446849E-01 -0.10631998690E+00  0.20129066820E-01  0.12283631973E+00  0.51100000000E-03 0.  1.
</event>
<event>
 8    1  0.1076043E+005  0.1043930E+01  0.7957747E-01            NaN
         13   -1    0    0    0    0  0.00000000000E+00  0.00000000000E+00  0.74505805969E-08  0.10566000000E+00  0.10566000000E+00 0. -1.
     999900   -1    0    0    0    0 -0.00000000000E+00 -0.00000000000E+00 -0.74505805969E-08  0.93827000000E+00  0.93827000000E+00 0.  1.
     999902    2    1    2    0    0  0.23966719733E-01  0.11009203281E-02 -0.21185493901E-03  0.10199370726E+01  0.10196548296E+01 0.  0.
     999903    2    3    3    0    0  0.98628752324E-01  0.46722217186E-01  0.72275576143E-01  0.13263208027E+00  0.21375533822E-01 0.  0.
         14    1    1    2    0    0 -0.23966719733E-01 -0.11009203281E-02  0.21185493901E-03  0.23992927350E-01  0.00000000000E+00 0.  1.
     999901    1    3    3    0    0 -0.74662032591E-01 -0.45621296858E-01 -0.72487431082E-01  0.88730499238E+00  0.88000000000E+00 0.  1.
        -11    1    4    4    0    0  0.33065357170E-01  0.25645502697E-01  0.21355577359E-01  0.46982246207E-01  0.51100000000E-03 0. -1.
         11    1    4    4    0    0  0.65563395154E-01  0.21076714489E-01  0.50919998784E-01  0.85649834063E-01  0.51100000000E-03 0.  1.
</event>
<event>
 8    1  0.1076043E+005  0.1043930E+01  0.7957747E-01            NaN
         13   -1    0    0    0    0  0.00000000000E+00  0.00000000000E+00  0.74505805969E-08  0.10566000000E+00  0.10566000000E+00 0.  1.
     999900   -1    0    0    0    0 -0.00000000000E+00 -0.00000000000E+00 -0.74505805969E-08  0.93827000000E+00  0.93827000000E+00 0.  1.
     999902    2    1    2    0    0 -0.14409938845E-01  0.97778979714E-03 -0.17623673532E-01  0.10211441211E+01  0.10208898666E+01 0.  0.
     999903    2    3    3    0    0 -0.97217021134E-01 -0.85032682300E-01  0.20539646865E-01  0.13226209671E+00  0.19740285587E-01 0.  0.
         14    1    1    2    0    0  0.14409938845E-01 -0.97778979714E-03  0.17623673532E-01  0.22785878942E-01  0.00000000000E+00 0.  1.
     999901    1    3    3    0    0  0.82807082289E-01  0.86010472097E-01 -0.38163320397E-01  0.88888202435E+00  0.88000000000E+00 0.  1.
        -11    1    4    4    0    0 -0.67101295046E-01 -0.70090076897E-01  0.14996363146E-01  0.98185307989E-01  0.51100000000E-03 0.  1.
         11    1    4    4    0    0 -0.30115726088E-01 -0.14942605403E-01  0.55432837184E-02  0.34076788720E-01  0.51100000000E-03 0. -1.
</event>
<event>
 8    1  0.1076043E+005  0.1043930E+01  0.7957747E-01            NaN
         13   -1    0    0    0    0  0.00000000000E+00  0.00000000000E+00  0.74505805969E-08  0.10566000000E+00  0.10566000000E+00 0.  1.
     999900   -1    0    0    0    0 -0.00000000000E+00 -0.00000000000E+00 -0.74505805969E-08  0.93827000000E+00  0.93827000000E+00 0. -1.
     999902    2    1    2    0    0  0.15461738554E-01  0.12727097060E-01  0.12069273876E-01  0.10205481324E+01  0.10202802453E+01 0.  0.
     999903    2    3    3    0    0  0.72358788847E-01  0.83268288885E-01  0.73179335675E-01  0.13378560858E+00  0.19338346233E-01 0.  0.
         14    1    1    2    0    0 -0.15461738554E-01 -0.12727097060E-01 -0.12069273876E-01  0.23381867560E-01  0.00000000000E+00 0. -1.
     999901    1    3    3    0    0 -0.56897050293E-01 -0.70541191826E-01 -0.61110061799E-01  0.88676252386E+00  0.88000000000E+00 0. -1.
        -11    1    4    4    0    0  0.55839405014E-02  0.12487625887E-01  0.35829416861E-02  0.14149904025E-01  0.51100000000E-03 0.  1.
         11    1    4    4    0    0  0.66774848346E-01  0.70780662999E-01  0.69596393989E-01  0.11963570455E+00  0.51100000000E-03 0. -1.
</event>
<event>
 8    1  0.1076043E+005  0.1043930E+01  0.7957747E-01            NaN
         13   -1    0    0    0    0  0.00000000000E+00  0.00000000000E+00  0.74505805969E-08  0.10566000000E+00  0.10566000000E+00 0.  1.
     999900   -1    0    0    0    0 -0.00000000000E+00 -0.00000000000E+00 -0.74505805969E-08  0.93827000000E+00  0.93827000000E+00 0.  1.
     999902    2    1    2    0    0 -0.81496149846E-02  0.35779985306E-02  0.22697474124E-01  0.10195498107E+01  0.10192582710E+01 0.  0.
     999903    2    3    3    0    0 -0.20761885481E-01  0.10321263375E+00 -0.71407474928E-01  0.12885240343E+00  0.20494163563E-01 0.  0.
         14    1    1    2    0    0  0.81496149846E-02 -0.35779985306E-02 -0.22697474124E-01  0.24380189283E-01  0.00000000000E+00 0. -1.
     999901    1    3    3    0    0  0.12612270496E-01 -0.99634635223E-01  0.94104949052E-01  0.89069740728E+00  0.88000000000E+00 0.  1.
        -11    1    4    4    0    0 -0.71561227446E-02  0.74878544967E-01 -0.43989665841E-01  0.87139878420E-01  0.51100000000E-03 0. -1.
         11    1    4    4    0    0 -0.13605762736E-01  0.28334088786E-01 -0.27417809087E-01  0.41712525015E-01  0.51100000000E-03 0.  1.
</event>
<event>
 8    1  0.1076043E+005  0.1043930E+01  0.7957747E-01            NaN
         13   -1    0    0    0    0  0.00000000000E+00  0.00000000000E+00  0.74505805969E-08  0.10566000000E+00  0.10566000000E+00 0. -1.
     999900   -1    0    0    0    0 -0.00000000000E+00 -0.00000000000E+00 -0.74505805969E-08  0.93827000000E+00  0.93827000000E+00 0. -1.
     999902    2    1    2    0    0  0.20902606215E-01  0.99960325222E-02 -0.10192000084E-01  0.10186176220E+01  0.10183030705E+01 0.  0.
     999903    2    3    3    0    0 -0.32556303984E-01  0.11993445743E+00 -0.32353362923E-01  0.12989075828E+00  0.19511073414E-01 0.  0.
         14    1    1    2    0    0 -0.20902606215E-01 -0.99960325222E-02  0.10192000084E-01  0.25312377969E-01  0.00000000000E+00 0. -1.
     999901    1    3    3    0    0  0.53458910198E-01 -0.10993842491E+00  0.22161362839E-01  0.88872686375E+00  0.88000000000E+00 0.  1.
        -11    1    4    4    0    0 -0.89407912660E-04  0.22595866667E-01 -0.10756699515E-01  0.25030958625E-01  0.51100000000E-03 0.  1.
         11    1    4    4    0    0 -0.32466896071E-01  0.97338590763E-01 -0.21596663408E-01  0.10485979965E+00  0.51100000000E-03 0. -1.
</event>
<event>
 8    1  0.1076043E+005  0.1043930E+01  0.7957747E-01            NaN
         13   -1    0    0    0    0  0.00000000000E+00  0.00000000000E+00  0.74505805969E-08  0.10566000000E+00  0.10566000000E+00 0. -1.
     999900   -1    0    0    0    0 -0.00000000000E+00 -0.00000000000E+00 -0.74505805969E-08  0.93827000000E+00  0.93827000000E+00 0.  1.
     999902    2    1    2    0    0 -0.12158468416E-02 -0.54660359368E-02 -0.23917240593E-01  0.10193659973E+01  0.10190699908E+01 0.  0.
     999903    2    3    3    0    0  0.45376941344E-01 -0.11963988374E+00  0.84618714109E-02  0.13017818678E+00  0.22405098912E-01 0.  0.
         14    1    1    2    0    0  0.12158468416E-02  0.54660359368E-02  0.23917240593E-01  0.24564002727E-01  0.00000000000E+00 0. -1.
     999901    1    3    3    0    0 -0.46592788186E-01  0.11417384781E+00 -0.32379112004E-01  0.88918781049E+00  0.88000000000E+00 0.  1.
        -11    1    4    4    0    0  0.29345808255E-01 -0.99306299345E-01  0.11100201670E-01  0.10414601841E+00  0.51100000000E-03 0.  1.
         11    1    4    4    0    0  0.16031133090E-01 -0.20333584400E-01 -0.26383302593E-02  0.26032168374E-01  0.51100000000E-03 0. -1.
</event>
<event>
 8    1  0.1076043E+005  0.1043930E+01  0.7957747E-01            NaN
         13   -1    0    0    0    0  0.00000000000E+00  0.00000000000E+00  0.74505805969E-08  0.10566000000E+00  0.10566000000E+00 0.  1.
     999900   -1    0    0    0    0 -0.00000000000E+00 -0.00000000000E+00 -0.74505805969E-08  0.93827000000E+00  0.93827000000E+00 0.  1.
     999902    2    1    2    0    0  0.86631545276E-02 -0.18718684774E-01 -0.12179091007E-01  0.10199765104E+01  0.10196952055E+01 0.  0.
     999903    2    3    3    0    0  0.10005974651E+00  0.68267104957E-01  0.39867699557E-01  0.12945490312E+00  0.22288741141E-01 0.  0.
         14    1    1    2    0    0 -0.86631545276E-02  0.18718684774E-01  0.12179091007E-01  0.23953489596E-01  0.00000000000E+00 0.  1.
     999901    1    3    3    0    0 -0.91396591983E-01 -0.86985789731E-01 -0.52046790565E-01  0.89052160729E+00  0.88000000000E+00 0.  1.
        -11    1    4    4    0    0  0.83290952530E-01  0.45749042068E-01  0.32357750829E-01  0.10038746328E+00  0.51100000000E-03 0. -1.
         11    1    4    4    0    0  0.16768793980E-01  0.22518062889E-01  0.75099487280E-02  0.29067439838E-01  0.51100000000E-03 0.  1.
</event>
<event>
 8    1  0.1076043E+005  0.1043930E+01  0.7957747E-01            NaN
         13   -1    0    0    0    0  0.00000000000E+00  0.00000000000E+00  0.74505805969E-08  0.10566000000E+00  0.10566000000E+00 0.  1.
     999900   -1    0    0    0    0 -0.00000000000E+00 -0.00000000000E+00 -0.74505805969E-08  0.93827000000E+00  0.93827000000E+00 0.  1.
     999902    2    1    2    0    0  0.10151612012E-01 -0.28544672914E-02 -0.21198094572E-01  0.10202538005E+01  0.10199790463E+01 0.  0.
     999903    2    3    3    0    0 -0.69910623070E-01 -0.46113814503E-01  0.94711157117E-01  0.12800031227E+00  0.19997438651E-01 0.  0.
         14    1    1    2    0    0 -0.10151612012E-01  0.28544672914E-02  0.21198094572E-01  0.23676199514E-01  0.00000000000E+00 0.  1.
     999901    1    3    3    0    0  0.80062235082E-01  0.43259347211E-01 -0.11590925169E+00  0.89225348822E+00  0.88000000000E+00 0.  1.
        -11    1    4    4    0    0 -0.29334259307E-01 -0.31055771986E-01  0.50099058970E-01  0.65841754027E-01  0.51100000000E-03 0. -1.
         11    1    4    4    0    0 -0.40576363763E-01 -0.15058042517E-01  0.44612098147E-01  0.62158558242E-01  0.51100000000E-03 0.  1.
</event>
<event>
 8    1  0.1076043E+005  0.1043930E+01  0.7957747E-01            NaN
         13   -1    0    0    0    0  0.00000000000E+00  0.00000000000E+00  0.74505805969E-08  0.10566000000E+00  0.10566000000E+00 0.  1.
     999900   -1    0    0    0    0 -0.00000000000E+00 -0.00000000000E+00 -0.74505805969E-08  0.93827000000E+00  0.93827000000E+00 0. -1.
     999902    2    1    2    0    0 -0.35098543600E-02  0.17992948469E-01 -0.16018808564E-01  0.10195852367E+01  0.10192945538E+01 0.  0.
     999903    2    3    3    0    0 -0.48036659371E-01  0.12512739113E-01 -0.12080545361E+00  0.13223360965E+00  0.20680440369E-01 0.  0.
         14    1    1    2    0    0  0.35098543600E-02 -0.17992948469E-01  0.16018808564E-01  0.24344763299E-01  0.00000000000E+00 0.  1.
     999901    1    3    3    0    0  0.44526805011E-01  0.54802093568E-02  0.10478664505E+00  0.88735162706E+00  0.88000000000E+00 0.  1.
        -11    1    4    4    0    0 -0.18192135388E-01  0.15318778912E-01 -0.52431284335E-01  0.57575337388E-01  0.51100000000E-03 0. -1.
         11    1    4    4    0    0 -0.29844523983E-01 -0.28060397999E-02 -0.68374169277E-01  0.74658272257E-01  0.51100000000E-03 0.  1.
</event>
<event>
 8    1  0.1076043E+005  0.1043930E+01  0.7957747E-01            NaN
         13   -1    0    0    0    0  0.00000000000E+00  0.00000000000E+00  0.74505805969E-08  0.10566000000E+00  0.10566000000E+00 0. -1.
     999900   -1    0    0    0    0 -0.00000000000E+00 -0.00000000000E+00 -0.74505805969E-08  0.93827000000E+00  0.93827000000E+00 0.  1.
     999902    2    1    2    0    0 -0.15467309835E-02  0.53939865816E-02  0.22961210131E-01  0.10202930662E+01  0.10200192333E+01 0.  0.
     999903    2    3    3    0    0 -0.75258493791E-01  0.10393430653E+00  0.27823502366E-01  0.13171709281E+00  0.10443385099E-01 0.  0.
         14    1    1    2    0    0  0.15467309835E-02 -0.53939865816E-02 -0.22961210131E-01  0.23636933783E-01  0.00000000000E+00 0.  1.
     999901    1    3    3    0    0  0.73711762808E-01 -0.98540319949E-01 -0.48622922349E-02  0.88857597341E+00  0.88000000000E+00 0.  1.
        -11    1    4    4    0    0 -0.45014927182E-01  0.57223307985E-01  0.11407625509E-01  0.73696985601E-01  0.51100000000E-03 0.  1.
         11    1    4    4    0    0 -0.30243566609E-01  0.46710998546E-01  0.16415876857E-01  0.58020107208E-01  0.51100000000E-03 0. -1.
</event>
<event>
 8    1  0.1076043E+005  0.1043930E+01  0.7957747E-01            NaN
         13   -1    0    0    0    0  0.00000000000E+00  0.00000000000E+00  0.74505805969E-08  0.10566000000E+00  0.10566000000E+00 0.  1.
     999900   -1    0    0    0    0 -0.00000000000E+00 -0.00000000000E+00 -0.74505805969E-08  0.93827000000E+00  0.93827000000E+00 0. -1.
     999902    2    1    2    0    0  0.21534103916E-01 -0.74458529777E-02  0.74622763814E-02  0.10199540970E+01  0.10196722591E+01 0.  0.
     999903    2    3    3    0    0 -0.92059749467E-01 -0.71065263435E-01  0.52493936483E-01  0.12923593540E+00  0.20519368709E-01 0.  0.
         14    1    1    2    0    0 -0.21534103916E-01  0.74458529777E-02 -0.74622763814E-02  0.23975903045E-01  0.00000000000E+00 0.  1.
     999901    1    3    3    0    0  0.11359385338E+00  0.63619410457E-01 -0.45031660102E-01  0.89071816156E+00  0.88000000000E+00 0. -1.
        -11    1    4    4    0    0 -0.24272529292E-01 -0.19620548012E-01  0.24396740148E-01  0.39617971091E-01  0.51100000000E-03 0. -1.
         11    1    4    4    0    0 -0.67787220175E-01 -0.51444715423E-01  0.28097196335E-01  0.89617964309E-01  0.51100000000E-03 0.  1.
</event>
<event>
 8    1  0.1076043E+005  0.1043930E+01  0.7957747E-01            NaN
         13   -1    0    0    0    0  0.00000000000E+00  0.00000000000E+00  0.74505805969E-08  0.10566000000E+00  0.10566000000E+00 0. -1.
     999900   -1    0    0    0    0 -0.00000000000E+00 -0.00000000000E+00 -0.74505805969E-08  0.93827000000E+00  0.93827000000E+00 0.  1.
     999902    2    1    2    0    0  0.12838095491E-01  0.15703804209E-01 -0.10970474111E-01  0.10208696994E+01  0.10206092130E+01 0.  0.
     999903    2    3    3    0    0 -0.59319983046E-01 -0.95919942619E-01  0.57523873429E-01  0.12825661142E+00  0.20524779609E-01 0.  0.
         14    1    1    2    0    0 -0.12838095491E-01 -0.15703804209E-01  0.10970474111E-01  0.23060300620E-01  0.00000000000E+00 0. -1.
     999901    1    3    3    0    0  0.72158078536E-01  0.11162374683E+00 -0.68494347540E-01  0.89261308796E+00  0.88000000000E+00 0.  1.
        -11    1    4    4    0    0 -0.14650923747E-01 -0.41626605419E-01  0.18596875516E-01  0.47890800216E-01  0.51100000000E-03 0.  1.
         11    1    4    4    0    0 -0.44669059299E-01 -0.54293337200E-01  0.38926997913E-01  0.80365811204E-01  0.51100000000E-03 0. -1.
</event>
<event>
 8    1  0.1076043E+005  0.1043930E+01  0.7957747E-01            NaN
         13   -1    0    0    0    0  0.00000000000E+00  0.00000000000E+00  0.74505805969E-08  0.10566000000E+00  0.10566000000E+00 0. -1.
     999900   -1    0    0    0    0 -0.00000000000E+00 -0.00000000000E+00 -0.74505805969E-08  0.93827000000E+00  0.93827000000E+00 0.  1.
     999902    2    1    2    0    0 -0.12459617169E-01  0.20005249420E-01  0.43238054226E-02  0.10199686278E+01  0.10196871355E+01 0.  0.
     999903    2    3    3    0    0 -0.36294823918E-01  0.12350329250E+00 -0.25109555534E-01  0.13309418080E+00  0.22653778531E-01 0.  0.
         14    1    1    2    0    0  0.12459617169E-01 -0.20005249420E-01 -0.43238054226E-02  0.23961372200E-01  0.00000000000E+00 0.  1.
     999901    1    3    3    0    0  0.23835206750E-01 -0.10349804308E+00  0.29433360956E-01  0.88687444700E+00  0.88000000000E+00 0. -1.
        -11    1    4    4    0    0 -0.11125401478E-01  0.63375082640E-01 -0.21367613830E-01  0.67801266209E-01  0.51100000000E-03 0. -1.
         11    1    4    4    0    0 -0.25169422441E-01  0.60128209862E-01 -0.37419417032E-02  0.65292914592E-01  0.51100000000E-03 0.  1.
</event>
<event>
 8    1  0.1076043E+005  0.1043930E+01  0.7957747E-01            NaN
         13   -1    0    0    0    0  0.00000000000E+00  0.00000000000E+00  0.74505805969E-08  0.10566000000E+00  0.10566000000E+00 0. -1.
     999900   -1    0    0    0    0 -0.00000000000E+00 -0.00000000000E+00 -0.74505805969E-08  0.93827000000E+00  0.93827000000E+00 0. -1.
     999902    2    1    2    0    0 -0.21676384839E-02  0.23017783755E-01  0.67343844737E-03  0.10208005697E+01  0.10205385013E+01 0.  0.
     999903    2    3    3    0    0  0.26267849122E-01  0.12953753045E+00  0.62434156819E-02  0.13390369971E+00  0.20524348077E-01 0.  0.
         14    1    1    2    0    0  0.21676384839E-02 -0.23017783755E-01 -0.67343844737E-03  0.23129430277E-01  0.00000000000E+00 0. -1.
     999901    1    3    3    0    0 -0.28435487606E-01 -0.10651974670E+00 -0.55699772345E-02  0.88689687001E+00  0.88000000000E+00 0.  1.
        -11    1    4    4    0    0  0.63973510094E-02  0.71083364942E-01 -0.32010303720E-02  0.71444234112E-01  0.51100000000E-03 0. -1.
         11    1    4    4    0    0  0.19870498113E-01  0.58454165509E-01  0.94444460539E-02  0.62459465598E-01  0.51100000000E-03 0.  1.
</event>
<event>
 8    1  0.1076043E+005  0.1043930E+01  0.7957747E-01            NaN
         13   -1    0    0    0    0  0.00000000000E+00  0.00000000000E+00  0.74505805969E-08  0.10566000000E+00  0.10566000000E+00 0.  1.
     999900   -1    0    0    0    0 -0.00000000000E+00 -0.00000000000E+00 -0.74505805969E-08  0.93827000000E+00  0.93827000000E+00 0. -1.
     999902    2    1    2    0    0  0.80404855019E-02  0.22783933124E-01  0.57166613028E-03  0.10197621739E+01  0.10194757513E+01 0.  0.
     999903    2    3    3    0    0  0.12602503611E+00  0.24818090981E-01 -0.21000397619E-01  0.13162375794E+00  0.19635416708E-01 0.  0.
         14    1    1    2    0    0 -0.80404855019E-02 -0.22783933124E-01 -0.57166613028E-03  0.24167826089E-01  0.00000000000E+00 0.  1.
     999901    1    3    3    0    0 -0.11798455061E+00 -0.20341578568E-02  0.21572063749E-01  0.88813841597E+00  0.88000000000E+00 0.  1.
        -11    1    4    4    0    0  0.70126235929E-01  0.20826245547E-01 -0.49272260610E-02  0.73320939348E-01  0.51100000000E-03 0. -1.
         11    1    4    4    0    0  0.55898800179E-01  0.39918454344E-02 -0.16073171558E-01  0.58302818597E-01  0.51100000000E-03 0.  1.
</event>
<event>
 8    1  0.1076043E+005  0.1043930E+01  0.7957747E-01            NaN
         13   -1    0    0    0    0  0.00000000000E+00  0.00000000000E+00  0.74505805969E-08  0.10566000000E+00  0.10566000000E+00 0.  1.
     999900   -1    0    0    0    0 -0.00000000000E+00 -0.00000000000E+00 -0.74505805969E-08  0.93827000000E+00  0.93827000000E+00 0.  1.
     999902    2    1    2    0    0  0.13844852626E-01  0.15051698254E-01  0.12471516799E-01  0.10199764555E+01  0.10196951493E+01 0.  0.
     999903    2    3    3    0    0  0.10495340681E+00 -0.53489750339E-01 -0.51905944042E-01  0.13028934401E+00  0.20117533223E-01 0.  0.
         14    1    1    2    0    0 -0.13844852626E-01 -0.15051698254E-01 -0.12471516799E-01  0.23953544536E-01  0.00000000000E+00 0. -1.
     999901    1    3    3    0    0 -0.91108554186E-01  0.68541448593E-01  0.64377460841E-01  0.88968711145E+00  0.88000000000E+00 0. -1.
        -11    1    4    4    0    0  0.68744743451E-01 -0.42684790508E-01 -0.42246370632E-01  0.91284434848E-01  0.51100000000E-03 0. -1.
         11    1    4    4    0    0  0.36208663361E-01 -0.10804959831E-01 -0.96595734104E-02  0.39004909163E-01  0.51100000000E-03 0.  1.
</event>
<event>
 8    1  0.1076043E+005  0.1043930E+01  0.7957747E-01            NaN
         13   -1    0    0    0    0  0.00000000000E+00  0.00000000000E+00  0.74505805969E-08  0.10566000000E+00  0.10566000000E+00 0.  1.
     999900   -1    0    0    0    0 -0.00000000000E+00 -0.00000000000E+00 -0.74505805969E-08  0.93827000000E+00  0.93827000000E+00 0.  1.
     999902    2    1    2    0    0 -0.25318248388E-01 -0.36102187411E-03 -0.11926726167E-01  0.10159408801E+01  0.10155552574E+01 0.  0.
     999903    2    3    3    0    0 -0.11571323917E+00  0.22376965517E-01 -0.51939524042E-01  0.13011398138E+00  0.18483822320E-01 0.  0.
         14    1    1    2    0    0  0.25318248388E-01  0.36102187411E-03  0.11926726167E-01  0.27989119944E-01  0.00000000000E+00 0.  1.
     999901    1    3    3    0    0  0.90394990780E-01 -0.22737987391E-01  0.40012797876E-01  0.88582689868E+00  0.88000000000E+00 0. -1.
        -11    1    4    4    0    0 -0.81877788140E-01  0.11336547691E-01 -0.28240482846E-01  0.87351448166E-01  0.51100000000E-03 0.  1.
         11    1    4    4    0    0 -0.33835451028E-01  0.11040417826E-01 -0.23699041196E-01  0.42762533211E-01  0.51100000000E-03 0. -1.
</event>
<event>
 8    1  0.1076043E+005  0.1043930E+01  0.7957747E-01            NaN
         13   -1    0    0    0    0  0.00000000000E+00  0.00000000000E+00  0.74505805969E-08  0.10566000000E+00  0.10566000000E+00 0. -1.
     999900   -1    0    0    0    0 -0.00000000000E+00 -0.00000000000E+00 -0.74505805969E-08  0.93827000000E+00  0.93827000000E+00 0.  1.
     999902    2    1    2    0    0 -0.78074272508E-02  0.22502329319E-01 -0.31976250551E-02  0.10198980306E+01  0.10196148574E+01 0.  0.
     999903    2    3    3    0    0  0.41794540929E-01  0.12104397847E+00 -0.27901406344E-01  0.13266576755E+00  0.20573989136E-01 0.  0.
         14    1    1    2    0    0  0.78074272508E-02 -0.22502329319E-01  0.31976250551E-02  0.24031969354E-01  0.00000000000E+00 0. -1.
     999901    1    3    3    0    0 -0.49601968180E-01 -0.98541649150E-01  0.24703781289E-01  0.88723226309E+00  0.88000000000E+00 0. -1.
        -11    1    4    4    0    0  0.51995888844E-02  0.37144392631E-01 -0.21211862149E-02  0.37569963807E-01  0.51100000000E-03 0.  1.
         11    1    4    4    0    0  0.36594952045E-01  0.83899585839E-01 -0.25780220129E-01  0.95095803745E-01  0.51100000000E-03 0. -1.
</event>
<event>
 8    1  0.1076043E+005  0.1043930E+01  0.7957747E-01            NaN
         13   -1    0    0    0    0  0.00000000000E+00  0.00000000000E+00  0.74505805969E-08  0.10566000000E+00  0.10566000000E+00 0.  1.
     999900   -1    0    0    0    0 -0.00000000000E+00 -0.00000000000E+00 -0.74505805969E-08  0.93827000000E+00  0.93827000000E+00 0.  1.
     999902    2    1    2    0    0  0.30711570589E-02 -0.79589607793E-02  0.21969870460E-01  0.10203619651E+01  0.10200897448E+01 0.  0.
     999903    2    3    3    0    0  0.99367979300E-01 -0.25350228837E-02 -0.80057893558E-01  0.12923225414E+00  0.20280225289E-01 0.  0.
         14    1    1    2    0    0 -0.30711570589E-02  0.79589607793E-02 -0.21969870460E-01  0.23568034928E-01  0.00000000000E+00 0. -1.
     999901    1    3    3    0    0 -0.96296822241E-01 -0.54239378957E-02  0.10202776402E+00  0.89112971093E+00  0.88000000000E+00 0. -1.
        -11    1    4    4    0    0  0.51725557181E-01 -0.10326793946E-01 -0.47661757539E-01  0.71092054349E-01  0.51100000000E-03 0. -1.
         11    1    4    4    0    0  0.47642422120E-01  0.77917710623E-02 -0.32396136018E-01  0.58140199790E-01  0.51100000000E-03 0.  1.
</event>
<event>
 8    1  0.1076043E+005  0.1043930E+01  0.7957747E-01            NaN
         13   -1    0    0    0    0  0.00000000000E+00  0.00000000000E+00  0.74505805969E-08  0.10566000000E+00  0.10566000000E+00 0.  1.
     999900   -1    0    0    0    0 -0.00000000000E+00 -0.00000000000E+00 -0.74505805969E-08  0.93827000000E+00  0.93827000000E+00 0. -1.
     999902    2    1    2    0    0 -0.19095034763E-02 -0.24077696525E-01  0.23145215696E-02  0.10196660621E+01  0.10193773293E+01 0.  0.
     999903    2    3    3    0    0 -0.91250244065E-03  0.11783996315E+00  0.44318219468E-01  0.12730631020E+00  0.18860075891E-01 0.  0.
         14    1    1    2    0    0  0.19095034763E-02  0.24077696525E-01 -0.23145215696E-02  0.24263937924E-01  0.00000000000E+00 0. -1.
     999901    1    3    3    0    0 -0.99700103567E-03 -0.14191765968E+00 -0.42003697899E-01  0.89235975188E+00  0.88000000000E+00 0. -1.
        -11    1    4    4    0    0 -0.35722597919E-02  0.57377189385E-01  0.12131603529E-01  0.58756615176E-01  0.51100000000E-03 0.  1.
         11    1    4    4    0    0  0.26597573513E-02  0.60462773766E-01  0.32186615940E-01  0.68549695020E-01  0.51100000000E-03 0. -1.
</event>
<event>
 8    1  0.1076043E+005  0.1043930E+01  0.7957747E-01            NaN
         13   -1    0    0    0    0  0.00000000000E+00  0.00000000000E+00  0.74505805969E-08  0.10566000000E+00  0.10566000000E+00 0. -1.
     999900   -1    0    0    0    0 -0.00000000000E+00 -0.00000000000E+00 -0.74505805969E-08  0.93827000000E+00  0.93827000000E+00 0.  1.
     999902    2    1    2    0    0  0.17425285076E-01  0.15335804195E-01  0.28426401554E-02  0.10205439346E+01  0.10202759502E+01 0.  0.
     999903    2    3    3    0    0 -0.54152385207E-01 -0.63441865413E-01 -0.95930801027E-01  0.12864400931E+00  0.19728442274E-01 0.  0.
         14    1    1    2    0    0 -0.17425285076E-01 -0.15335804195E-01 -0.28426401554E-02  0.23386065367E-01  0.00000000000E+00 0.  1.
     999901    1    3    3    0    0  0.71577670283E-01  0.78777669608E-01  0.98773441182E-01  0.89189992533E+00  0.88000000000E+00 0. -1.
        -11    1    4    4    0    0 -0.96862202969E-02 -0.20895354856E-01 -0.17396775047E-01  0.28867760933E-01  0.51100000000E-03 0. -1.
         11    1    4    4    0    0 -0.44466164910E-01 -0.42546510556E-01 -0.78534025979E-01  0.99776248375E-01  0.51100000000E-03 0.  1.
</event>
<event>
 8    1  0.1076043E+005  0.1043930E+01  0.7957747E-01            NaN
         13   -1    0    0    0    0  0.00000000000E+00  0.00000000000E+00  0.74505805969E-08  0.10566000000E+00  0.10566000000E+00 0.  1.
     999900   -1    0    0    0    0 -0.00000000000E+00 -0.00000000000E+00 -0.74505805969E-08  0.93827000000E+00  0.93827000000E+00 0.  1.
     999902    2    1    2    0    0  0.16049864324E-01  0.99500418221E-02  0.99551056450E-02  0.10225827378E+01  0.10223598926E+01 0.  0.
     999903    2    3    3    0    0  0.25581366807E-01  0.69696378031E-01 -0.10818552321E+00  0.13262898479E+00  0.19348093810E-01 0.  0.
         14    1    1    2    0    0 -0.16049864324E-01 -0.99500418221E-02 -0.99551056450E-02  0.21347262248E-01  0.00000000000E+00 0. -1.
     999901    1    3    3    0    0 -0.95315024829E-02 -0.59746336209E-01  0.11814062886E+00  0.88995375297E+00  0.88000000000E+00 0. -1.
        -11    1    4    4    0    0  0.65824528955E-02  0.45324857471E-01 -0.65797606806E-01  0.80170178828E-01  0.51100000000E-03 0.  1.
         11    1    4    4    0    0  0.18998913911E-01  0.24371520560E-01 -0.42387916408E-01  0.52458805959E-01  0.51100000000E-03 0. -1.
</event>
<event>
 8    1  0.1076043E+005  0.1043930E+01  0.7957747E-01            NaN
         13   -1    0    0    0    0  0.00000000000E+00  0.00000000000E+00  0.74505805969E-08  0.10566000000E+00  0.10566000000E+00 0.  1.
     999900   -1    0    0    0    0 -0.00000000000E+00 -0.00000000000E+00 -0.74505805969E-08  0.93827000000E+00  0.93827000000E+00 0.  1.
     999902    2    1    2    0    0  0.45948613913E-02 -0.50625240399E-03 -0.24728531252E-01  0.10187731063E+01  0.10184624553E+01 0.  0.
     999903    2    3    3    0    0 -0.22688481115E-01 -0.11452795936E+00  0.48223250438E-01  0.12800529543E+00  0.20699109268E-01 0.  0.
         14    1    1    2    0    0 -0.45948613913E-02  0.50625240399E-03  0.24728531252E-01  0.25156893699E-01  0.00000000000E+00 0.  1.
     999901    1    3    3    0    0  0.27283342506E-01  0.11402170696E+00 -0.72951781690E-01  0.89076781087E+00  0.88000000000E+00 0.  1.
        -11    1    4    4    0    0 -0.20424253145E-01 -0.58226596497E-01  0.31167331415E-01  0.69131398978E-01  0.51100000000E-03 0.  1.
         11    1    4    4    0    0 -0.22642279694E-02 -0.56301362862E-01  0.17055919023E-01  0.58873896449E-01  0.51100000000E-03 0. -1.
</event>
<event>
 8    1  0.1076043E+005  0.1043930E+01  0.7957747E-01            NaN
         13   -1    0    0    0    0  0.00000000000E+00  0.00000000000E+00  0.74505805969E-08  0.10566000000E+00  0.10566000000E+00 0. -1.
     999900   -1    0    0    0    0 -0.00000000000E+00 -0.00000000000E+00 -0.74505805969E-08  0.93827000000E+00  0.93827000000E+00 0. -1.
     999902    2    1    2    0    0  0.21914664830E-01  0.49314526993E-03 -0.11368662363E-01  0.10192370413E+01  0.10189378804E+01 0.  0.
     999903    2    3    3    0    0  0.23890323514E-01  0.15324731705E-01  0.12400910450E+00  0.12875906909E+00  0.19875736811E-01 0.  0.
         14    1    1    2    0    0 -0.21914664830E-01 -0.49314526993E-03  0.11368662363E-01  0.24692958729E-01  0.00000000000E+00 0. -1.
     999901    1    3    3    0    0 -0.19756586843E-02 -0.14831586435E-01 -0.13537776686E+00  0.89047797218E+00  0.88000000000E+00 0. -1.
        -11    1    4    4    0    0  0.66825215984E-02  0.87219437021E-02  0.17528716808E-01  0.20694091688E-01  0.51100000000E-03 0. -1.
         11    1    4    4    0    0  0.17207801916E-01  0.66027880033E-02  0.10648038769E+00  0.10806497740E+00  0.51100000000E-03 0.  1.
</event>
<event>
 8    1  0.1076043E+005  0.1043930E+01  0.7957747E-01            NaN
         13   -1    0    0    0    0  0.00000000000E+00  0.00000000000E+00  0.74505805969E-08  0.10566000000E+00  0.10566000000E+00 0.  1.
     999900   -1    0    0    0    0 -0.00000000000E+00 -0.00000000000E+00 -0.74505805969E-08  0.93827000000E+00  0.93827000000E+00 0. -1.
     999902    2    1    2    0    0  0.17546995642E-01 -0.14624359481E-01  0.67429112461E-02  0.10201132874E+01  0.10198352236E+01 0.  0.
     999903    2    3    3    0    0 -0.25560106514E-01 -0.82724818650E-01 -0.95559975443E-01  0.13052811700E+00  0.20227846040E-01 0.  0.
         14    1    1    2    0    0 -0.17546995642E-01  0.14624359481E-01 -0.67429112461E-02  0.23816712585E-01  0.00000000000E+00 0.  1.
     999901    1    3    3    0    0  0.43107102156E-01  0.68100459169E-01  0.10230288669E+00  0.88958517041E+00  0.88000000000E+00 0. -1.
        -11    1    4    4    0    0 -0.21083917558E-01 -0.50612107939E-01 -0.71731998279E-01  0.90287638953E-01  0.51100000000E-03 0.  1.
         11    1    4    4    0    0 -0.44761889556E-02 -0.32112710711E-01 -0.23827977164E-01  0.40240478048E-01  0.51100000000E-03 0. -1.
</event>
<event>
 8    1  0.1076043E+005  0.1043930E+01  0.7957747E-01            NaN
         13   -1    0    0    0    0  0.00000000000E+00  0.00000000000E+00  0.74505805969E-08  0.10566000000E+00  0.10566000000E+00 0.  1.
     999900   -1    0    0    0    0 -0.00000000000E+00 -0.00000000000E+00 -0.74505805969E-08  0.93827000000E+00  0.93827000000E+00 0. -1.
     999902    2    1    2    0    0  0.28623239738E-02  0.11807233059E-01 -0.38382813061E-02  0.10311888833E+01  0.10311101673E+01 0.  0.
     999903    2    3    3    0    0  0.69461989033E-02 -0.75470767258E-01 -0.11578754975E+00  0.13980413693E+00  0.19858339246E-01 0.  0.
         14    1    1    2    0    0 -0.28623239738E-02 -0.11807233059E-01  0.38382813061E-02  0.12741116687E-01  0.00000000000E+00 0.  1.
     999901    1    3    3    0    0 -0.40838749294E-02  0.87278000317E-01  0.11194926844E+00  0.89138474638E+00  0.88000000000E+00 0.  1.
        -11    1    4    4    0    0  0.68911009998E-02 -0.78778688522E-02 -0.11836162423E-01  0.15808350722E-01  0.51100000000E-03 0. -1.
         11    1    4    4    0    0  0.55097903499E-04 -0.67592898406E-01 -0.10395138732E+00  0.12399578621E+00  0.51100000000E-03 0.  1.
</event>
<event>
 8    1  0.1076043E+005  0.1043930E+01  0.7957747E-01            NaN
         13   -1    0    0    0    0  0.00000000000E+00  0.00000000000E+00  0.74505805969E-08  0.10566000000E+00  0.10566000000E+00 0.  1.
     999900   -1    0    0    0    0 -0.00000000000E+00 -0.00000000000E+00 -0.74505805969E-08  0.93827000000E+00  0.93827000000E+00 0. -1.
     999902    2    1    2    0    0  0.82170543328E-02  0.22541189278E-01  0.21835043803E-02  0.10198386553E+01  0.10195540643E+01 0.  0.
     999903    2    3    3    0    0 -0.81731222626E-01  0.19997456640E-01 -0.96828796730E-01  0.12972596648E+00  0.19316300868E-01 0.  0.
         14    1    1    2    0    0 -0.82170543328E-02 -0.22541189278E-01 -0.21835043803E-02  0.24091344657E-01  0.00000000000E+00 0. -1.
     999901    1    3    3    0    0  0.89948276959E-01  0.25437326386E-02  0.99012301110E-01  0.89011268886E+00  0.88000000000E+00 0.  1.
        -11    1    4    4    0    0 -0.21559816024E-01  0.47504829658E-02 -0.13735802862E-01  0.26006271487E-01  0.51100000000E-03 0.  1.
         11    1    4    4    0    0 -0.60171406602E-01  0.15246973674E-01 -0.83092993867E-01  0.10371969499E+00  0.51100000000E-03 0. -1.
</event>
<event>
 7    1  0.1076043E+005  0.1043930E+01  0.7957747E-01            NaN
         13   -1    0    0    0    0  0.00000000000E+00  0.00000000000E+00  0.74505805969E-08  0.10566000000E+00  0.10566000000E+00 0. -1.
     999900   -1    0    0    0    0 -0.00000000000E+00 -0.00000000000E+00 -0.74505805969E-08  0.93827000000E+00  0.93827000000E+00 0.  1.
     999903    2    1    2    0    0  0.61493908786E-01 -0.58425817219E-02 -0.41671799404E-01  0.77215119189E-01  0.20248436649E-01 0.  0.
         14    1    1    2    0    0  0.16893107328E-01 -0.35792005844E-01 -0.64731966688E-01  0.75872737322E-01  0.00000000000E+00 0.  1.
     999901    1    1    2    0    0 -0.78387016114E-01  0.41634587566E-01  0.10640376609E+00  0.89084214349E+00  0.88000000000E+00 0. -1.
        -11    1    3    3    0    0  0.91368419334E-02 -0.35726287973E-02 -0.16196190246E-01  0.18942630665E-01  0.51100000000E-03 0. -1.
         11    1    3    3    0    0  0.52357066853E-01 -0.22699529245E-02 -0.25475609158E-01  0.58272488523E-01  0.51100000000E-03 0.  1.
</event>
<event>
 8    1  0.1076043E+005  0.1043930E+01  0.7957747E-01            NaN
         13   -1    0    0    0    0  0.00000000000E+00  0.00000000000E+00  0.74505805969E-08  0.10566000000E+00  0.10566000000E+00 0.  1.
     999900   -1    0    0    0    0 -0.00000000000E+00 -0.00000000000E+00 -0.74505805969E-08  0.93827000000E+00  0.93827000000E+00 0.  1.
     999902    2    1    2    0    0 -0.13516580046E-01 -0.71961840120E-02 -0.19255287585E-01  0.10193281891E+01  0.10190312596E+01 0.  0.
     999903    2    3    3    0    0  0.12485931338E+00 -0.14103911602E-01 -0.18757475304E-01  0.12848821894E+00  0.19199246489E-01 0.  0.
         14    1    1    2    0    0  0.13516580046E-01  0.71961840120E-02  0.19255287585E-01  0.24601810918E-01  0.00000000000E+00 0.  1.
     999901    1    3    3    0    0 -0.13837589343E+00  0.69077275901E-02 -0.49781228157E-03  0.89083997014E+00  0.88000000000E+00 0. -1.
        -11    1    4    4    0    0  0.60619869785E-01  0.11078145539E-02 -0.14448153678E-01  0.62329817355E-01  0.51100000000E-03 0. -1.
         11    1    4    4    0    0  0.64239443599E-01 -0.15211726156E-01 -0.43093216259E-02  0.66158401586E-01  0.51100000000E-03 0.  1.
</event>
<event>
 8    1  0.1076043E+005  0.1043930E+01  0.7957747E-01            NaN
         13   -1    0    0    0    0  0.00000000000E+00  0.00000000000E+00  0.74505805969E-08  0.10566000000E+00  0.10566000000E+00 0.  1.
     999900   -1    0    0    0    0 -0.00000000000E+00 -0.00000000000E+00 -0.74505805969E-08  0.93827000000E+00  0.93827000000E+00 0. -1.
     999902    2    1    2    0    0 -0.21727238714E-01  0.91968273446E-02  0.72309940947E-03  0.10203253943E+01  0.10200523187E+01 0.  0.
     999903    2    3    3    0    0  0.25303988567E-01  0.11318712673E+00  0.58190166692E-01  0.13109629983E+00  0.18668873408E-01 0.  0.
         14    1    1    2    0    0  0.21727238714E-01 -0.91968273446E-02 -0.72309940947E-03  0.23604605654E-01  0.00000000000E+00 0.  1.
     999901    1    3    3    0    0 -0.47031227281E-01 -0.10399029939E+00 -0.57467067282E-01  0.88922909451E+00  0.88000000000E+00 0.  1.
        -11    1    4    4    0    0  0.15947315629E-01  0.33090721316E-01  0.20671329674E-01  0.42153027228E-01  0.51100000000E-03 0. -1.
         11    1    4    4    0    0  0.93566729382E-02  0.80096405419E-01  0.37518837017E-01  0.88943272605E-01  0.51100000000E-03 0.  1.
</event>
<event>
 8    1  0.1076043E+005  0.1043930E+01  0.7957747E-01            NaN
         13   -1    0    0    0    0  0.00000000000E+00  0.00000000000E+00  0.74505805969E-08  0.10566000000E+00  0.10566000000E+00 0.  1.
     999900   -1    0    0    0    0 -0.00000000000E+00 -0.00000000000E+00 -0.74505805969E-08  0.93827000000E+00  0.93827000000E+00 0. -1.
     999902    2    1    2    0    0 -0.56136639746E-02  0.16435528946E-01 -0.13193271637E-01  0.10221194005E+01  0.10218866701E+01 0.  0.
     999903    2    3    3    0    0 -0.11164110717E+00 -0.28903179152E-01 -0.63796621849E-01  0.13315476889E+00  0.19001393237E-01 0.  0.
         14    1    1    2    0    0  0.56136639746E-02 -0.16435528946E-01  0.13193271637E-01  0.21810599520E-01  0.00000000000E+00 0.  1.
     999901    1    3    3    0    0  0.10602744319E+00  0.45338708098E-01  0.50603350212E-01  0.88896463159E+00  0.88000000000E+00 0.  1.
        -11    1    4    4    0    0 -0.61941201832E-01 -0.25504191182E-01 -0.38857653961E-01  0.77442589346E-01  0.51100000000E-03 0. -1.
         11    1    4    4    0    0 -0.49699905334E-01 -0.33989879698E-02 -0.24938967888E-01  0.55712179546E-01  0.51100000000E-03 0.  1.
</event>
<event>
 8    1  0.1076043E+005  0.1043930E+01  0.7957747E-01            NaN
         13   -1    0    0    0    0  0.00000000000E+00  0.00000000000E+00  0.74505805969E-08  0.10566000000E+00  0.10566000000E+00 0. -1.
     999900   -1    0    0    0    0 -0.00000000000E+00 -0.00000000000E+00 -0.74505805969E-08  0.93827000000E+00  0.93827000000E+00 0.  1.
     999902    2    1    2    0    0  0.67474807426E-02  0.12193041433E-01 -0.17346917749E-01  0.10216788357E+01  0.10214365027E+01 0.  0.
     999903    2    3    3    0    0 -0.93296421142E-01 -0.41931935612E-01  0.76798913139E-01  0.12937746685E+00  0.19440844796E-01 0.  0.
         14    1    1    2    0    0 -0.67474807426E-02 -0.12193041433E-01  0.17346917749E-01  0.22251164265E-01  0.00000000000E+00 0. -1.
     999901    1    3    3    0    0  0.10004390188E+00  0.54124977046E-01 -0.94145830888E-01  0.89230136889E+00  0.88000000000E+00 0.  1.
        -11    1    4    4    0    0 -0.34148968601E-01 -0.58077825596E-02  0.22190382051E-01  0.41140692402E-01  0.51100000000E-03 0.  1.
         11    1    4    4    0    0 -0.59147452541E-01 -0.36124153053E-01  0.54608531088E-01  0.88236774445E-01  0.51100000000E-03 0. -1.
</event>
<event>
 8    1  0.1076043E+005  0.1043930E+01  0.7957747E-01            NaN
         13   -1    0    0    0    0  0.00000000000E+00  0.00000000000E+00  0.74505805969E-08  0.10566000000E+00  0.10566000000E+00 0.  1.
     999900   -1    0    0    0    0 -0.00000000000E+00 -0.00000000000E+00 -0.74505805969E-08  0.93827000000E+00  0.93827000000E+00 0. -1.
     999902    2    1    2    0    0 -0.16272065570E-01  0.10057365167E-01  0.13339516081E-01  0.10206089065E+01  0.10203424262E+01 0.  0.
     999903    2    3    3    0    0 -0.32974799685E-01  0.75172734326E-01 -0.10033503448E+00  0.13075448243E+00  0.17068629971E-01 0.  0.
         14    1    1    2    0    0  0.16272065570E-01 -0.10057365167E-01 -0.13339516081E-01  0.23321093484E-01  0.00000000000E+00 0. -1.
     999901    1    3    3    0    0  0.16702734115E-01 -0.65115369160E-01  0.11367455057E+00  0.88985442409E+00  0.88000000000E+00 0.  1.
        -11    1    4    4    0    0 -0.14299175541E-01  0.52719738146E-01 -0.66162981231E-01  0.85799990779E-01  0.51100000000E-03 0.  1.
         11    1    4    4    0    0 -0.18675624144E-01  0.22452996180E-01 -0.34172053253E-01  0.44954491647E-01  0.51100000000E-03 0. -1.
</event>
<event>
 8    1  0.1076043E+005  0.1043930E+01  0.7957747E-01            NaN
         13   -1    0    0    0    0  0.00000000000E+00  0.00000000000E+00  0.74505805969E-08  0.10566000000E+00  0.10566000000E+00 0.  1.
     999900   -1    0    0    0    0 -0.00000000000E+00 -0.00000000000E+00 -0.74505805969E-08  0.93827000000E+00  0.93827000000E+00 0.  1.
     999902    2    1    2    0    0  0.38976781115E-02  0.73034659284E-02  0.22725260051E-01  0.10197438479E+01  0.10194569855E+01 0.  0.
     999903    2    3    3    0    0  0.68059930147E-01  0.71321362157E-01 -0.80836748225E-01  0.12904739277E+00  0.19993972200E-01 0.  0.
         14    1    1    2    0    0 -0.38976781115E-02 -0.73034659284E-02 -0.22725260051E-01  0.24186152104E-01  0.00000000000E+00 0. -1.
     999901    1    3    3    0    0 -0.64162252036E-01 -0.64017896229E-01  0.10356200828E+00  0.89069645513E+00  0.88000000000E+00 0. -1.
        -11    1    4    4    0    0  0.40561362641E-01  0.35432880598E-01 -0.32722714076E-01  0.63021824032E-01  0.51100000000E-03 0. -1.
         11    1    4    4    0    0  0.27498567506E-01  0.35888481559E-01 -0.48114034149E-01  0.66025568733E-01  0.51100000000E-03 0.  1.
</event>
<event>
 8    1  0.1076043E+005  0.1043930E+01  0.7957747E-01            NaN
         13   -1    0    0    0    0  0.00000000000E+00  0.00000000000E+00  0.74505805969E-08  0.10566000000E+00  0.10566000000E+00 0.  1.
     999900   -1    0    0    0    0 -0.00000000000E+00 -0.00000000000E+00 -0.74505805969E-08  0.93827000000E+00  0.93827000000E+00 0.  1.
     999902    2    1    2    0    0  0.99406888669E-03  0.17771733124E-01 -0.16803294293E-01  0.10194519819E+01  0.10191580692E+01 0.  0.
     999903    2    3    3    0    0 -0.39480407730E-01  0.10150191654E+00  0.69026601923E-01  0.13039872255E+00  0.19437423042E-01 0.  0.
         14    1    1    2    0    0 -0.99406888669E-03 -0.17771733124E-01  0.16803294293E-01  0.24478018104E-01  0.00000000000E+00 0.  1.
     999901    1    3    3    0    0  0.40474476617E-01 -0.83730183412E-01 -0.85829896216E-01  0.88905325935E+00  0.88000000000E+00 0.  1.
        -11    1    4    4    0    0 -0.97786875265E-02  0.50598503831E-01  0.28753647351E-01  0.59015800229E-01  0.51100000000E-03 0.  1.
         11    1    4    4    0    0 -0.29701720204E-01  0.50903412705E-01  0.40272954572E-01  0.71382922320E-01  0.51100000000E-03 0. -1.
</event>
<event>
 7    1  0.1076043E+005  0.1043930E+01  0.7957747E-01            NaN
         13   -1    0    0    0    0  0.00000000000E+00  0.00000000000E+00  0.74505805969E-08  0.10566000000E+00  0.10566000000E+00 0.  1.
     999900   -1    0    0    0    0 -0.00000000000E+00 -0.00000000000E+00 -0.74505805969E-08  0.93827000000E+00  0.93827000000E+00 0. -1.
     999902    2    1    2    0    0 -0.19131640150E-01  0.97999528745E-03 -0.13387158345E-01  0.10205591623E+01  0.10202915308E+01 0.  0.
         14    1    1    2    0    0  0.19131640150E-01 -0.97999528745E-03  0.13387158345E-01  0.23370837686E-01  0.00000000000E+00 0. -1.
     999901    1    3    3    0    0  0.31632802812E-01  0.10608096708E+00  0.37123491742E-01  0.88771164205E+00  0.88000000000E+00 0.  1.
        -11    1    3    3    0    0 -0.39062068438E-01 -0.54547139079E-01 -0.11838989343E-01  0.68129717173E-01  0.51100000000E-03 0.  1.
         11    1    3    3    0    0 -0.11702374524E-01 -0.50553832713E-01 -0.38671660743E-01  0.64717803093E-01  0.51100000000E-03 0. -1.
</event>
<event>
 8    1  0.1076043E+005  0.1043930E+01  0.7957747E-01            NaN
         13   -1    0    0    0    0  0.00000000000E+00  0.00000000000E+00  0.74505805969E-08  0.10566000000E+00  0.10566000000E+00 0.  1.
     999900   -1    0    0    0    0 -0.00000000000E+00 -0.00000000000E+00 -0.74505805969E-08  0.93827000000E+00  0.93827000000E+00 0. -1.
     999902    2    1    2    0    0 -0.10984206229E-01 -0.15563704466E-01 -0.14880857076E-01  0.10197572552E+01  0.10194707146E+01 0.  0.
     999903    2    3    3    0    0 -0.28570239409E-01 -0.88406220236E-01  0.89710237889E-01  0.13040097238E+00  0.18015783622E-01 0.  0.
         14    1    1    2    0    0  0.10984206229E-01  0.15563704466E-01  0.14880857076E-01  0.24172744786E-01  0.00000000000E+00 0.  1.
     999901    1    3    3    0    0  0.17586033180E-01  0.72842515771E-01 -0.10459109497E+00  0.88935628283E+00  0.88000000000E+00 0. -1.
        -11    1    4    4    0    0 -0.15471570810E-01 -0.68787022012E-01  0.72980950024E-01  0.10147661843E+00  0.51100000000E-03 0.  1.
         11    1    4    4    0    0 -0.13098668598E-01 -0.19619198224E-01  0.16729287866E-01  0.28924353951E-01  0.51100000000E-03 0. -1.
</event>
<event>
 8    1  0.1076043E+005  0.1043930E+01  0.7957747E-01            NaN
         13   -1    0    0    0    0  0.00000000000E+00  0.00000000000E+00  0.74505805969E-08  0.10566000000E+00  0.10566000000E+00 0.  1.
     999900   -1    0    0    0    0 -0.00000000000E+00 -0.00000000000E+00 -0.74505805969E-08  0.93827000000E+00  0.93827000000E+00 0.  1.
     999902    2    1    2    0    0  0.19099030778E-02  0.19924156240E-01 -0.81177534189E-02  0.10223309803E+01  0.10221027911E+01 0.  0.
     999903    2    3    3    0    0  0.94942152685E-01 -0.30402027991E-01  0.83185633235E-01  0.13130683208E+00  0.19579042670E-01 0.  0.
         14    1    1    2    0    0 -0.19099030778E-02 -0.19924156240E-01  0.81177534189E-02  0.21599019705E-01  0.00000000000E+00 0.  1.
     999901    1    3    3    0    0 -0.93032249607E-01  0.50326184231E-01 -0.91303386654E-01  0.89102414821E+00  0.88000000000E+00 0.  1.
        -11    1    4    4    0    0  0.52409262004E-01 -0.24131450977E-01  0.38934096846E-01  0.69607346511E-01  0.51100000000E-03 0. -1.
         11    1    4    4    0    0  0.42532890681E-01 -0.62705770140E-02  0.44251536390E-01  0.61699485570E-01  0.51100000000E-03 0.  1.
</event>
<event>
 8    1  0.1076043E+005  0.1043930E+01  0.7957747E-01            NaN
         13   -1    0    0    0    0  0.00000000000E+00  0.00000000000E+00  0.74505805969E-08  0.10566000000E+00  0.10566000000E+00 0.  1.
     999900   -1    0    0    0    0 -0.00000000000E+00 -0.00000000000E+00 -0.74505805969E-08  0.93827000000E+00  0.93827000000E+00 0. -1.
     999902    2    1    2    0    0  0.11139004969E-02 -0.22975107234E-01 -0.56680022221E-02  0.10202398633E+01  0.10199647818E+01 0.  0.
     999903    2    3    3    0    0 -0.48452082888E-01  0.92950706584E-01  0.70627128996E-01  0.12798624015E+00  0.20120838105E-01 0.  0.
         14    1    1    2    0    0 -0.11139004969E-02  0.22975107234E-01  0.56680022221E-02  0.23690136680E-01  0.00000000000E+00 0. -1.
     999901    1    3    3    0    0  0.49565983385E-01 -0.11592581382E+00 -0.76295131218E-01  0.89225362317E+00  0.88000000000E+00 0. -1.
        -11    1    4    4    0    0 -0.37738672960E-01  0.61019217437E-01  0.38444821850E-01  0.81399126417E-01  0.51100000000E-03 0. -1.
         11    1    4    4    0    0 -0.10713409928E-01  0.31931489147E-01  0.32182307146E-01  0.46587113729E-01  0.51100000000E-03 0.  1.
</event>
<event>
 8    1  0.1076043E+005  0.1043930E+01  0.7957747E-01            NaN
         13   -1    0    0    0    0  0.00000000000E+00  0.00000000000E+00  0.74505805969E-08  0.10566000000E+00  0.10566000000E+00 0.  1.
     999900   -1    0    0    0    0 -0.00000000000E+00 -0.00000000000E+00 -0.74505805969E-08  0.93827000000E+00  0.93827000000E+00 0. -1.
     999902    2    1    2    0    0  0.20432819727E-02  0.14662825417E-01 -0.21446618875E-01  0.10178698597E+01  0.10175362010E+01 0.  0.
     999903    2    3    3    0    0  0.12414196264E-01 -0.28067509586E-01 -0.12411024744E+00  0.13081109164E+00  0.27681958265E-01 0.  0.
         14    1    1    2    0    0 -0.20432819727E-02 -0.14662825417E-01  0.21446618875E-01  0.26060140284E-01  0.00000000000E+00 0.  1.
     999901    1    3    3    0    0 -0.10370914291E-01  0.42730335004E-01  0.10266362856E+00  0.88705876808E+00  0.88000000000E+00 0.  1.
        -11    1    4    4    0    0  0.20864987881E-01 -0.24386093742E-01 -0.96504832659E-01  0.10170286690E+00  0.51100000000E-03 0.  1.
         11    1    4    4    0    0 -0.84507916175E-02 -0.36814158447E-02 -0.27605414779E-01  0.29108224743E-01  0.51100000000E-03 0. -1.
</event>
<event>
 8    1  0.1076043E+005  0.1043930E+01  0.7957747E-01            NaN
         13   -1    0    0    0    0  0.00000000000E+00  0.00000000000E+00  0.74505805969E-08  0.10566000000E+00  0.10566000000E+00 0.  1.
     999900   -1    0    0    0    0 -0.00000000000E+00 -0.00000000000E+00 -0.74505805969E-08  0.93827000000E+00  0.93827000000E+00 0.  1.
     999902    2    1    2    0    0  0.18380444267E-03  0.15512052287E-01  0.17793166188E-01  0.10203237654E+01  0.10200506516E+01 0.  0.
     999903    2    3    3    0    0 -0.32185590983E-01  0.12681965336E+00 -0.81312692356E-02  0.13234333982E+00  0.18152281140E-01 0.  0.
         14    1    1    2    0    0 -0.18380444267E-03 -0.15512052287E-01 -0.17793166188E-01  0.23606234626E-01  0.00000000000E+00 0. -1.
     999901    1    3    3    0    0  0.32369395426E-01 -0.11130760107E+00  0.25924435423E-01  0.88798042555E+00  0.88000000000E+00 0. -1.
        -11    1    4    4    0    0 -0.16987120496E-01  0.48366789129E-01 -0.10778011211E-01  0.52386402816E-01  0.51100000000E-03 0.  1.
         11    1    4    4    0    0 -0.15198470487E-01  0.78452864229E-01  0.26467419756E-02  0.79956937003E-01  0.51100000000E-03 0. -1.
</event>
<event>
 8    1  0.1076043E+005  0.1043930E+01  0.7957747E-01            NaN
         13   -1    0    0    0    0  0.00000000000E+00  0.00000000000E+00  0.74505805969E-08  0.10566000000E+00  0.10566000000E+00 0.  1.
     999900   -1    0    0    0    0 -0.00000000000E+00 -0.00000000000E+00 -0.74505805969E-08  0.93827000000E+00  0.93827000000E+00 0.  1.
     999902    2    1    2    0    0  0.12741187376E-02 -0.15576669444E-01  0.19434847290E-01  0.10189906877E+01  0.10186854531E+01 0.  0.
     999903    2    3    3    0    0 -0.31262247249E-01 -0.12088347851E+00  0.37356547329E-01  0.13193413567E+00  0.20517335227E-01 0.  0.
         14    1    1    2    0    0 -0.12741187376E-02  0.15576669444E-01 -0.19434847290E-01  0.24939312314E-01  0.00000000000E+00 0. -1.
     999901    1    3    3    0    0  0.32536365987E-01  0.10530680907E+00 -0.17921700039E-01  0.88705655202E+00  0.88000000000E+00 0. -1.
        -11    1    4    4    0    0 -0.14727703952E-01 -0.89381119893E-01  0.31287103098E-01  0.95838581992E-01  0.51100000000E-03 0.  1.
         11    1    4    4    0    0 -0.16534543297E-01 -0.31502358622E-01  0.60694442307E-02  0.36095553674E-01  0.51100000000E-03 0. -1.
</event>
<event>
 8    1  0.1076043E+005  0.1043930E+01  0.7957747E-01            NaN
         13   -1    0    0    0    0  0.00000000000E+00  0.00000000000E+00  0.74505805969E-08  0.10566000000E+00  0.10566000000E+00 0.  1.
     999900   -1    0    0    0    0 -0.00000000000E+00 -0.00000000000E+00 -0.74505805969E-08  0.93827000000E+00  0.93827000000E+00 0. -1.
     999902    2    1    2    0    0  0.20741389680E-01 -0.87589573005E-02 -0.83204683549E-02  0.10199267758E+01  0.10196442876E+01 0.  0.
     999903    2    3    3    0    0 -0.56607587352E-01 -0.11546195738E+00 -0.45684839700E-02  0.13010518027E+00  0.19251086713E-01 0.  0.
         14    1    1    2    0    0 -0.20741389680E-01  0.87589573005E-02  0.83204683549E-02  0.24003224210E-01  0.00000000000E+00 0. -1.
     999901    1    3    3    0    0  0.77348977032E-01  0.10670300007E+00 -0.37519843848E-02  0.88982159552E+00  0.88000000000E+00 0.  1.
        -11    1    4    4    0    0 -0.10290167948E-01 -0.24527769184E-01 -0.86414369068E-02  0.27972031931E-01  0.51100000000E-03 0.  1.
         11    1    4    4    0    0 -0.46317419404E-01 -0.90934188191E-01  0.40729529367E-02  0.10213314834E+00  0.51100000000E-03 0. -1.
</event>
<event>
 8    1  0.1076043E+005  0.1043930E+01  0.7957747E-01            NaN
         13   -1    0    0    0    0  0.00000000000E+00  0.00000000000E+00  0.74505805969E-08  0.10566000000E+00  0.10566000000E+00 0.  1.
     999900   -1    0    0    0    0 -0.00000000000E+00 -0.00000000000E+00 -0.74505805969E-08  0.93827000000E+00  0.93827000000E+00 0.  1.
     999902    2    1    2    0    0  0.23260523207E-01 -0.64951656629E-02  0.10155392983E-01  0.10177313145E+01  0.10173940521E+01 0.  0.
     999903    2    3    3    0    0  0.71428323187E-01  0.10952945327E-01  0.10739485030E+00  0.13089418986E+00  0.19433545817E-01 0.  0.
         14    1    1    2    0    0 -0.23260523207E-01  0.64951656629E-02 -0.10155392983E-01  0.26198685530E-01  0.00000000000E+00 0. -1.
     999901    1    3    3    0    0 -0.48167799980E-01 -0.17448110990E-01 -0.97239457316E-01  0.88683712461E+00  0.88000000000E+00 0. -1.
        -11    1    4    4    0    0  0.22495808090E-01 -0.37671665602E-02  0.43092506319E-01  0.48759390351E-01  0.51100000000E-03 0.  1.
         11    1    4    4    0    0  0.48932515097E-01  0.14720111887E-01  0.64302343981E-01  0.82134799507E-01  0.51100000000E-03 0. -1.
</event>
<event>
 8    1  0.1076043E+005  0.1043930E+01  0.7957747E-01            NaN
         13   -1    0    0    0    0  0.00000000000E+00  0.00000000000E+00  0.74505805969E-08  0.10566000000E+00  0.10566000000E+00 0.  1.
     999900   -1    0    0    0    0 -0.00000000000E+00 -0.00000000000E+00 -0.74505805969E-08  0.93827000000E+00  0.93827000000E+00 0.  1.
     999902    2    1    2    0    0 -0.76748014331E-03  0.15265765652E-01  0.17939327334E-01  0.10203619689E+01  0.10200897487E+01 0.  0.
     999903    2    3    3    0    0 -0.75709845304E-01  0.48137616338E-01  0.95561032686E-01  0.13316298001E+00  0.23478873388E-01 0.  0.
         14    1    1    2    0    0  0.76748014331E-03 -0.15265765652E-01 -0.17939327334E-01  0.23568031142E-01  0.00000000000E+00 0.  1.
     999901    1    3    3    0    0  0.74942365161E-01 -0.32871850686E-01 -0.77621705353E-01  0.88719898884E+00  0.88000000000E+00 0. -1.
        -11    1    4    4    0    0 -0.22610109930E-01  0.27983855146E-02  0.20593375188E-01  0.30714756309E-01  0.51100000000E-03 0. -1.
         11    1    4    4    0    0 -0.53099735374E-01  0.45339230823E-01  0.74967657499E-01  0.10244822371E+00  0.51100000000E-03 0.  1.
</event>
<event>
 8    1  0.1076043E+005  0.1043930E+01  0.7957747E-01            NaN
         13   -1    0    0    0    0  0.00000000000E+00  0.00000000000E+00  0.74505805969E-08  0.10566000000E+00  0.10566000000E+00 0.  1.
     999900   -1    0    0    0    0 -0.00000000000E+00 -0.00000000000E+00 -0.74505805969E-08  0.93827000000E+00  0.93827000000E+00 0.  1.
     999902    2    1    2    0    0  0.21949755122E-01 -0.77687759132E-02 -0.53121874158E-02  0.10200476851E+01  0.10197680692E+01 0.  0.
     999903    2    3    3    0    0 -0.73987917612E-01 -0.94470372298E-01  0.43896719055E-01  0.12923753680E+00  0.19405045217E-01 0.  0.
         14    1    1    2    0    0 -0.21949755122E-01  0.77687759132E-02  0.53121874158E-02  0.23882314885E-01  0.00000000000E+00 0.  1.
     999901    1    3    3    0    0  0.95937672734E-01  0.86701596384E-01 -0.49208906471E-01  0.89081014832E+00  0.88000000000E+00 0. -1.
        -11    1    4    4    0    0 -0.43619150697E-01 -0.69278292734E-01  0.33276310874E-01  0.88372428608E-01  0.51100000000E-03 0. -1.
         11    1    4    4    0    0 -0.30368766915E-01 -0.25192079563E-01  0.10620408181E-01  0.40865108192E-01  0.51100000000E-03 0.  1.
</event>
<event>
 8    1  0.1076043E+005  0.1043930E+01  0.7957747E-01            NaN
         13   -1    0    0    0    0  0.00000000000E+00  0.00000000000E+00  0.74505805969E-08  0.10566000000E+00  0.10566000000E+00 0.  1.
     999900   -1    0    0    0    0 -0.00000000000E+00 -0.00000000000E+00 -0.74505805969E-08  0.93827000000E+00  0.93827000000E+00 0. -1.
     999902    2    1    2    0    0  0.46781715511E-02  0.22928272412E-01 -0.42648662061E-02  0.10201438686E+01  0.10198665268E+01 0.  0.
     999903    2    3    3    0    0  0.14979214057E-01 -0.85426531810E-01  0.91938645082E-01  0.12823468560E+00  0.21664508776E-01 0.  0.
         14    1    1    2    0    0 -0.46781715511E-02 -0.22928272412E-01  0.42648662061E-02  0.23786131434E-01  0.00000000000E+00 0.  1.
     999901    1    3    3    0    0 -0.10301042506E-01  0.10835480422E+00 -0.96203511288E-01  0.89190918297E+00  0.88000000000E+00 0. -1.
        -11    1    4    4    0    0  0.13844036289E-01 -0.26144672139E-01  0.24320176275E-01  0.38300565493E-01  0.51100000000E-03 0. -1.
         11    1    4    4    0    0  0.11351777686E-02 -0.59281859670E-01  0.67618468807E-01  0.89934120106E-01  0.51100000000E-03 0.  1.
</event>
<event>
 8    1  0.1125059E+005  0.1043930E+01  0.7957747E-01            NaN
         13   -1    0    0    0    0  0.00000000000E+00  0.00000000000E+00  0.74505805969E-08  0.10566000000E+00  0.10566000000E+00 0.  1.
     999900   -1    0    0    0    0 -0.00000000000E+00 -0.00000000000E+00 -0.74505805969E-08  0.93827000000E+00  0.93827000000E+00 0. -1.
     999902    2    1    2    0    0 -0.11059099880E-01 -0.12390528174E-01 -0.17392260698E-01  0.10198817233E+01  0.10195981610E+01 0.  0.
     999903    2    3    3    0    0  0.51925615647E-01  0.11532065822E+00 -0.93435440242E-02  0.12839868740E+00  0.20094709202E-01 0.  0.
         14    1    1    2    0    0  0.11059099880E-01  0.12390528174E-01  0.17392260698E-01  0.24048276669E-01  0.00000000000E+00 0.  1.
     999901    1    3    3    0    0 -0.62984715527E-01 -0.12771118639E+00 -0.80487166738E-02  0.89148303593E+00  0.88000000000E+00 0. -1.
        -11    1    4    4    0    0  0.25315016398E-01  0.48570633267E-01  0.54046928256E-02  0.55040242521E-01  0.51100000000E-03 0.  1.
         11    1    4    4    0    0  0.26610599249E-01  0.66750024950E-01 -0.14748236850E-01  0.73358444875E-01  0.51100000000E-03 0. -1.
</event>
<event>
 8    1  0.1076043E+005  0.1043930E+01  0.7957747E-01            NaN
         13   -1    0    0    0    0  0.00000000000E+00  0.00000000000E+00  0.74505805969E-08  0.10566000000E+00  0.10566000000E+00 0. -1.
     999900   -1    0    0    0    0 -0.00000000000E+00 -0.00000000000E+00 -0.74505805969E-08  0.93827000000E+00  0.93827000000E+00 0.  1.
     999902    2    1    2    0    0 -0.17166504333E-01 -0.12246542981E-01  0.10000258297E-01  0.10205917942E+01  0.10203249181E+01 0.  0.
     999903    2    3    3    0    0  0.59292130366E-01 -0.11532002709E+00  0.82426851537E-02  0.13128130000E+00  0.18776914052E-01 0.  0.
         14    1    1    2    0    0  0.17166504333E-01  0.12246542981E-01 -0.10000258297E-01  0.23338205844E-01  0.00000000000E+00 0.  1.
     999901    1    3    3    0    0 -0.76458634698E-01  0.10307348411E+00  0.17575731437E-02  0.88931049415E+00  0.88000000000E+00 0.  1.
        -11    1    4    4    0    0  0.23147875704E-01 -0.35703789232E-01 -0.49975276426E-02  0.42846483154E-01  0.51100000000E-03 0.  1.
         11    1    4    4    0    0  0.36144254661E-01 -0.79616237856E-01  0.13240212796E-01  0.88434816850E-01  0.51100000000E-03 0. -1.
</event>
<event>
 8    1  0.1076043E+005  0.1043930E+01  0.7957747E-01            NaN
         13   -1    0    0    0    0  0.00000000000E+00  0.00000000000E+00  0.74505805969E-08  0.10566000000E+00  0.10566000000E+00 0.  1.
     999900   -1    0    0    0    0 -0.00000000000E+00 -0.00000000000E+00 -0.74505805969E-08  0.93827000000E+00  0.93827000000E+00 0. -1.
     999902    2    1    2    0    0 -0.24330335537E-01 -0.15781930082E-02 -0.27973812058E-02  0.10193885807E+01  0.10190931249E+01 0.  0.
     999903    2    3    3    0    0 -0.96629855134E-01 -0.32627995091E-01  0.81109209403E-01  0.13190245308E+00  0.20436200992E-01 0.  0.
         14    1    1    2    0    0  0.24330335537E-01  0.15781930082E-02  0.27973812058E-02  0.24541419317E-01  0.00000000000E+00 0.  1.
     999901    1    3    3    0    0  0.72299519597E-01  0.31049802083E-01 -0.83906590609E-01  0.88748612760E+00  0.88000000000E+00 0. -1.
        -11    1    4    4    0    0 -0.90007560149E-01 -0.32448774044E-01  0.68575148189E-01  0.11771616665E+00  0.51100000000E-03 0. -1.
         11    1    4    4    0    0 -0.66222949853E-02 -0.17922104722E-03  0.12534061214E-01  0.14186286426E-01  0.51100000000E-03 0.  1.
</event>
<event>
 8    1  0.1076043E+005  0.1043930E+01  0.7957747E-01            NaN
         13   -1    0    0    0    0  0.00000000000E+00  0.00000000000E+00  0.74505805969E-08  0.10566000000E+00  0.10566000000E+00 0. -1.
     999900   -1    0    0    0    0 -0.00000000000E+00 -0.00000000000E+00 -0.74505805969E-08  0.93827000000E+00  0.93827000000E+00 0.  1.
     999902    2    1    2    0    0  0.17616649566E-01  0.24097566667E-02 -0.17879906704E-01  0.10187140461E+01  0.10184019164E+01 0.  0.
     999903    2    3    3    0    0  0.12655467850E+00 -0.99272226717E-02  0.24614341496E-01  0.13089342435E+00  0.20312221247E-01 0.  0.
         14    1    1    2    0    0 -0.17616649566E-01 -0.24097566667E-02  0.17879906704E-01  0.25215953935E-01  0.00000000000E+00 0. -1.
     999901    1    3    3    0    0 -0.10893802893E+00  0.12336979338E-01 -0.42494248200E-01  0.88782062171E+00  0.88000000000E+00 0.  1.
        -11    1    4    4    0    0  0.58712635446E-01  0.46480340032E-02  0.15512388727E-01  0.60907085845E-01  0.51100000000E-03 0. -1.
         11    1    4    4    0    0  0.67842043052E-01 -0.14575256675E-01  0.91019527693E-02  0.69986338508E-01  0.51100000000E-03 0.  1.
</event>
<event>
 8    1  0.1076043E+005  0.1043930E+01  0.7957747E-01            NaN
         13   -1    0    0    0    0  0.00000000000E+00  0.00000000000E+00  0.74505805969E-08  0.10566000000E+00  0.10566000000E+00 0. -1.
     999900   -1    0    0    0    0 -0.00000000000E+00 -0.00000000000E+00 -0.74505805969E-08  0.93827000000E+00  0.93827000000E+00 0. -1.
     999902    2    1    2    0    0  0.15879462168E-01 -0.62344815941E-02 -0.20248115728E-01  0.10174533637E+01  0.10171088118E+01 0.  0.
     999903    2    3    3    0    0 -0.71094232899E-01 -0.10375796592E+00  0.56960417500E-02  0.12742619954E+00  0.19618511525E-01 0.  0.
         14    1    1    2    0    0 -0.15879462168E-01  0.62344815941E-02  0.20248115728E-01  0.26476636305E-01  0.00000000000E+00 0.  1.
     999901    1    3    3    0    0  0.86973695067E-01  0.97523484324E-01 -0.25944157478E-01  0.89002716416E+00  0.88000000000E+00 0.  1.
        -11    1    4    4    0    0 -0.40469452535E-01 -0.41883026678E-01  0.35844804122E-02  0.58353013058E-01  0.51100000000E-03 0. -1.
         11    1    4    4    0    0 -0.30624780364E-01 -0.61874939240E-01  0.21115613378E-02  0.69073186481E-01  0.51100000000E-03 0.  1.
</event>
<event>
 8    1  0.1076043E+005  0.1043930E+01  0.7957747E-01            NaN
         13   -1    0    0    0    0  0.00000000000E+00  0.00000000000E+00  0.74505805969E-08  0.10566000000E+00  0.10566000000E+00 0. -1.
     999900   -1    0    0    0    0 -0.00000000000E+00 -0.00000000000E+00 -0.74505805969E-08  0.93827000000E+00  0.93827000000E+00 0. -1.
     999902    2    1    2    0    0  0.14206451646E-01 -0.88495148891E-02  0.16777101704E-01  0.10202317232E+01  0.10199564504E+01 0.  0.
     999903    2    3    3    0    0 -0.24042602654E-01  0.11194564768E+00  0.58569287992E-01  0.13017495630E+00  0.20131641159E-01 0.  0.
         14    1    1    2    0    0 -0.14206451646E-01  0.88495148891E-02 -0.16777101704E-01  0.23698276809E-01  0.00000000000E+00 0.  1.
     999901    1    3    3    0    0  0.38249054299E-01 -0.12079516256E+00 -0.41792186288E-01  0.89005676689E+00  0.88000000000E+00 0. -1.
        -11    1    4    4    0    0 -0.27591064227E-01  0.10246015286E+00  0.53194532363E-01  0.11869822722E+00  0.51100000000E-03 0. -1.
         11    1    4    4    0    0  0.35484615737E-02  0.94854948122E-02  0.53747556293E-02  0.11476729083E-01  0.51100000000E-03 0.  1.
</event>
<event>
 8    1  0.1076043E+005  0.1043930E+01  0.7957747E-01            NaN
         13   -1    0    0    0    0  0.00000000000E+00  0.00000000000E+00  0.74505805969E-08  0.10566000000E+00  0.10566000000E+00 0.  1.
     999900   -1    0    0    0    0 -0.00000000000E+00 -0.00000000000E+00 -0.74505805969E-08  0.93827000000E+00  0.93827000000E+00 0.  1.
     999902    2    1    2    0    0  0.18608211018E-01  0.15148535932E-01  0.48905078359E-02  0.10194420290E+01  0.10191478743E+01 0.  0.
     999903    2    3    3    0    0  0.89256785660E-01 -0.19339303368E-01  0.92733523634E-01  0.13158110091E+00  0.19320902398E-01 0.  0.
         14    1    1    2    0    0 -0.18608211018E-01 -0.15148535932E-01 -0.48905078359E-02  0.24487971028E-01  0.00000000000E+00 0. -1.
     999901    1    3    3    0    0 -0.70648574643E-01  0.34487839300E-01 -0.87843015798E-01  0.88786092806E+00  0.88000000000E+00 0.  1.
        -11    1    4    4    0    0  0.36613026975E-01 -0.13097657351E-01  0.50859801284E-01  0.64023768087E-01  0.51100000000E-03 0.  1.
         11    1    4    4    0    0  0.52643758685E-01 -0.62416460165E-02  0.41873722350E-01  0.67557332821E-01  0.51100000000E-03 0. -1.
</event>
<event>
 8    1  0.1076043E+005  0.1043930E+01  0.7957747E-01            NaN
         13   -1    0    0    0    0  0.00000000000E+00  0.00000000000E+00  0.74505805969E-08  0.10566000000E+00  0.10566000000E+00 0.  1.
     999900   -1    0    0    0    0 -0.00000000000E+00 -0.00000000000E+00 -0.74505805969E-08  0.93827000000E+00  0.93827000000E+00 0.  1.
     999902    2    1    2    0    0 -0.16110884318E-01  0.14150106990E-01  0.79024324796E-02  0.10210775480E+01  0.10208217888E+01 0.  0.
     999903    2    3    3    0    0 -0.10455777264E+00 -0.19253752139E-01  0.77841083947E-01  0.13325431968E+00  0.19860628672E-01 0.  0.
         14    1    1    2    0    0  0.16110884318E-01 -0.14150106990E-01 -0.79024324796E-02  0.22852451956E-01  0.00000000000E+00 0. -1.
     999901    1    3    3    0    0  0.88446888324E-01  0.33403859129E-01 -0.69938651467E-01  0.88782322837E+00  0.88000000000E+00 0. -1.
        -11    1    4    4    0    0 -0.44599879156E-01 -0.61049227612E-02  0.44930527535E-01  0.63603716308E-01  0.51100000000E-03 0. -1.
         11    1    4    4    0    0 -0.59957893485E-01 -0.13148829378E-01  0.32910556412E-01  0.69650603368E-01  0.51100000000E-03 0.  1.
</event>
<event>
 8    1  0.1076043E+005  0.1043930E+01  0.7957747E-01            NaN
         13   -1    0    0    0    0  0.00000000000E+00  0.00000000000E+00  0.74505805969E-08  0.10566000000E+00  0.10566000000E+00 0.  1.
     999900   -1    0    0    0    0 -0.00000000000E+00 -0.00000000000E+00 -0.74505805969E-08  0.93827000000E+00  0.93827000000E+00 0. -1.
     999902    2    1    2    0    0 -0.10791353764E-01 -0.16738522198E-01 -0.76559467039E-02  0.10225935298E+01  0.10223709122E+01 0.  0.
     999903    2    3    3    0    0 -0.22578812533E-01  0.69954995229E-01  0.10685675788E+00  0.13087167311E+00  0.17479244473E-01 0.  0.
         14    1    1    2    0    0  0.10791353764E-01  0.16738522198E-01  0.76559467039E-02  0.21336470218E-01  0.00000000000E+00 0.  1.
     999901    1    3    3    0    0  0.11787458769E-01 -0.86693517427E-01 -0.11451270458E+00  0.89172185667E+00  0.88000000000E+00 0. -1.
        -11    1    4    4    0    0 -0.13402699852E-01  0.61727336114E-01  0.87495646950E-01  0.10791499313E+00  0.51100000000E-03 0. -1.
         11    1    4    4    0    0 -0.91761126807E-02  0.82276591146E-02  0.19361110926E-01  0.22956679980E-01  0.51100000000E-03 0.  1.
</event>
<event>
 8    1  0.1076043E+005  0.1043930E+01  0.7957747E-01            NaN
         13   -1    0    0    0    0  0.00000000000E+00  0.00000000000E+00  0.74505805969E-08  0.10566000000E+00  0.10566000000E+00 0. -1.
     999900   -1    0    0    0    0 -0.00000000000E+00 -0.00000000000E+00 -0.74505805969E-08  0.93827000000E+00  0.93827000000E+00 0. -1.
     999902    2    1    2    0    0  0.24620582479E-02  0.22143029398E-01 -0.88877344421E-02  0.10199431848E+01  0.10196610872E+01 0.  0.
     999903    2    3    3    0    0  0.10795984964E+00 -0.58748510458E-01  0.33240134460E-01  0.12896171327E+00  0.20481707308E-01 0.  0.
         14    1    1    2    0    0 -0.24620582479E-02 -0.22143029398E-01  0.88877344421E-02  0.23986815238E-01  0.00000000000E+00 0. -1.
     999901    1    3    3    0    0 -0.10549779139E+00  0.80891539856E-01 -0.42127868902E-01  0.89098147150E+00  0.88000000000E+00 0. -1.
        -11    1    4    4    0    0  0.57971307911E-01 -0.37364140398E-01  0.94627804868E-02  0.69617216722E-01  0.51100000000E-03 0. -1.
         11    1    4    4    0    0  0.49988541730E-01 -0.21384370059E-01  0.23777353973E-01  0.59344496545E-01  0.51100000000E-03 0.  1.
</event>
<event>
 8    1  0.1076043E+005  0.1043930E+01  0.7957747E-01            NaN
         13   -1    0    0    0    0  0.00000000000E+00  0.00000000000E+00  0.74505805969E-08  0.10566000000E+00  0.10566000000E+00 0.  1.
     999900   -1    0    0    0    0 -0.00000000000E+00 -0.00000000000E+00 -0.74505805969E-08  0.93827000000E+00  0.93827000000E+00 0.  1.
     999902    2    1    2    0    0 -0.55194279902E-03  0.18372567104E-01  0.14660102088E-01  0.10204188440E+01  0.10201479514E+01 0.  0.
     999903    2    3    3    0    0 -0.53246274770E-02 -0.99507148728E-02 -0.12665262772E+00  0.12868218197E+00  0.19769862486E-01 0.  0.
         14    1    1    2    0    0  0.55194279902E-03 -0.18372567104E-01 -0.14660102088E-01  0.23511155992E-01  0.00000000000E+00 0.  1.
     999901    1    3    3    0    0  0.47726846780E-02  0.28323281977E-01  0.14131272981E+00  0.89173666204E+00  0.88000000000E+00 0. -1.
        -11    1    4    4    0    0  0.50248040195E-02 -0.10450492310E-01 -0.83346047328E-01  0.84150378318E-01  0.51100000000E-03 0. -1.
         11    1    4    4    0    0 -0.10349431497E-01  0.49977743712E-03 -0.43306580394E-01  0.44531803649E-01  0.51100000000E-03 0.  1.
</event>
<event>
 8    1  0.1076043E+005  0.1043930E+01  0.7957747E-01            NaN
         13   -1    0    0    0    0  0.00000000000E+00  0.00000000000E+00  0.74505805969E-08  0.10566000000E+00  0.10566000000E+00 0. -1.
     999900   -1    0    0    0    0 -0.00000000000E+00 -0.00000000000E+00 -0.74505805969E-08  0.93827000000E+00  0.93827000000E+00 0. -1.
     999902    2    1    2    0    0  0.10787043756E-01  0.19705265454E-01 -0.74862676603E-02  0.10202508530E+01  0.10199760296E+01 0.  0.
     999903    2    3    3    0    0 -0.40252400258E-01  0.17822295483E-01 -0.12198114567E+00  0.13136523183E+00  0.20965073118E-01 0.  0.
         14    1    1    2    0    0 -0.10787043756E-01 -0.19705265454E-01  0.74862676603E-02  0.23679147009E-01  0.00000000000E+00 0.  1.
     999901    1    3    3    0    0  0.51039444014E-01  0.18829699706E-02  0.11449487801E+00  0.88888562116E+00  0.88000000000E+00 0.  1.
        -11    1    4    4    0    0 -0.42313553932E-01  0.14341197009E-01 -0.11162823983E+00  0.12023822947E+00  0.51100000000E-03 0. -1.
         11    1    4    4    0    0  0.20611536735E-02  0.34810984742E-02 -0.10352905840E-01  0.11127002354E-01  0.51100000000E-03 0.  1.
</event>
<event>
 7    1  0.1076043E+005  0.1043930E+01  0.7957747E-01            NaN
         13   -1    0    0    0    0  0.00000000000E+00  0.00000000000E+00  0.74505805969E-08  0.10566000000E+00  0.10566000000E+00 0.  1.
     999900   -1    0    0    0    0 -0.00000000000E+00 -0.00000000000E+00 -0.74505805969E-08  0.93827000000E+00  0.93827000000E+00 0. -1.
     999903    2    1    2    0    0 -0.38528701775E-01  0.82416855978E-01 -0.72564508915E-01  0.11824299805E+00  0.20947544585E-01 0.  0.
         14    1    1    2    0    0  0.70441526161E-02 -0.40578228848E-01  0.47404472193E-03  0.41187831467E-01  0.00000000000E+00 0. -1.
     999901    1    1    2    0    0  0.31484549159E-01 -0.41838627130E-01  0.72090464193E-01  0.88449917048E+00  0.88000000000E+00 0.  1.
        -11    1    3    3    0    0 -0.19373088765E-01  0.42449970766E-01 -0.50403552590E-01  0.68688396553E-01  0.51100000000E-03 0. -1.
         11    1    3    3    0    0 -0.19155613011E-01  0.39966885212E-01 -0.22160956325E-01  0.49554601498E-01  0.51100000000E-03 0.  1.
</event>
<event>
 8    1  0.1076043E+005  0.1043930E+01  0.7957747E-01            NaN
         13   -1    0    0    0    0  0.00000000000E+00  0.00000000000E+00  0.74505805969E-08  0.10566000000E+00  0.10566000000E+00 0.  1.
     999900   -1    0    0    0    0 -0.00000000000E+00 -0.00000000000E+00 -0.74505805969E-08  0.93827000000E+00  0.93827000000E+00 0.  1.
     999902    2    1    2    0    0  0.15473830824E-01 -0.14716758058E-01  0.15740611008E-01  0.10174009736E+01  0.10170550387E+01 0.  0.
     999903    2    3    3    0    0 -0.60513748736E-01 -0.77415376865E-01  0.81711667939E-01  0.12944973088E+00  0.20624785745E-01 0.  0.
         14    1    1    2    0    0 -0.15473830824E-01  0.14716758058E-01 -0.15740611008E-01  0.26529026424E-01  0.00000000000E+00 0. -1.
     999901    1    3    3    0    0  0.75987579560E-01  0.62698618808E-01 -0.65971056931E-01  0.88795124269E+00  0.88000000000E+00 0.  1.
        -11    1    4    4    0    0 -0.15173901879E-01 -0.11849576310E-01  0.25277912625E-01  0.31778825413E-01  0.51100000000E-03 0.  1.
         11    1    4    4    0    0 -0.45339846857E-01 -0.65565800555E-01  0.56433755314E-01  0.97670905470E-01  0.51100000000E-03 0. -1.
</event>
<event>
 8    1  0.1076043E+005  0.1043930E+01  0.7957747E-01            NaN
         13   -1    0    0    0    0  0.00000000000E+00  0.00000000000E+00  0.74505805969E-08  0.10566000000E+00  0.10566000000E+00 0.  1.
     999900   -1    0    0    0    0 -0.00000000000E+00 -0.00000000000E+00 -0.74505805969E-08  0.93827000000E+00  0.93827000000E+00 0.  1.
     999902    2    1    2    0    0  0.11454985154E-01 -0.18418938070E-01  0.12309547970E-01  0.10189900935E+01  0.10186848442E+01 0.  0.
     999903    2    3    3    0    0  0.12799574351E+00  0.14704347947E-01 -0.63817061250E-02  0.13049233695E+00  0.19707755415E-01 0.  0.
         14    1    1    2    0    0 -0.11454985154E-01  0.18418938070E-01 -0.12309547970E-01  0.24939906490E-01  0.00000000000E+00 0. -1.
     999901    1    3    3    0    0 -0.11654075836E+00 -0.33123286016E-01  0.18691254095E-01  0.88849775656E+00  0.88000000000E+00 0.  1.
        -11    1    4    4    0    0  0.76844168403E-01  0.15214007380E-01 -0.11094017339E-01  0.79119091121E-01  0.51100000000E-03 0. -1.
         11    1    4    4    0    0  0.51151575109E-01 -0.50965943362E-03  0.47123112138E-02  0.51373245827E-01  0.51100000000E-03 0.  1.
</event>
<event>
 8    1  0.1076043E+005  0.1043930E+01  0.7957747E-01            NaN
         13   -1    0    0    0    0  0.00000000000E+00  0.00000000000E+00  0.74505805969E-08  0.10566000000E+00  0.10566000000E+00 0. -1.
     999900   -1    0    0    0    0 -0.00000000000E+00 -0.00000000000E+00 -0.74505805969E-08  0.93827000000E+00  0.93827000000E+00 0.  1.
     999902    2    1    2    0    0 -0.18182926394E-01  0.15838494630E-02  0.15207549641E-01  0.10201729598E+01  0.10198963041E+01 0.  0.
     999903    2    3    3    0    0  0.62762837355E-01 -0.81872800886E-01 -0.72988280847E-01  0.12815517208E+00  0.21310319375E-01 0.  0.
         14    1    1    2    0    0  0.18182926394E-01 -0.15838494630E-02 -0.15207549641E-01  0.23757040166E-01  0.00000000000E+00 0.  1.
     999901    1    3    3    0    0 -0.80945763749E-01  0.83456650349E-01  0.88195830488E-01  0.89201778776E+00  0.88000000000E+00 0. -1.
        -11    1    4    4    0    0  0.17300318037E-01 -0.39747278907E-01 -0.29342705170E-01  0.52348855311E-01  0.51100000000E-03 0. -1.
         11    1    4    4    0    0  0.45462519318E-01 -0.42125521978E-01 -0.43645575677E-01  0.75806316767E-01  0.51100000000E-03 0.  1.
</event>
<event>
 8    1  0.1076043E+005  0.1043930E+01  0.7957747E-01            NaN
         13   -1    0    0    0    0  0.00000000000E+00  0.00000000000E+00  0.74505805969E-08  0.10566000000E+00  0.10566000000E+00 0. -1.
     999900   -1    0    0    0    0 -0.00000000000E+00 -0.00000000000E+00 -0.74505805969E-08  0.93827000000E+00  0.93827000000E+00 0. -1.
     999902    2    1    2    0    0 -0.20215751516E-01  0.11832207530E-01 -0.56512603371E-03  0.10204993126E+01  0.10202302926E+01 0.  0.
     999903    2    3    3    0    0 -0.15749872745E-01 -0.11820660864E+00  0.49051776433E-01  0.12954932815E+00  0.12493631835E-01 0.  0.
         14    1    1    2    0    0  0.20215751516E-01 -0.11832207530E-01  0.56512603371E-03  0.23430687395E-01  0.00000000000E+00 0.  1.
     999901    1    3    3    0    0 -0.44658787706E-02  0.13003881617E+00 -0.49616902467E-01  0.89094998445E+00  0.88000000000E+00 0. -1.
        -11    1    4    4    0    0 -0.13684610546E-01 -0.60264127055E-01  0.22386966776E-01  0.65730289654E-01  0.51100000000E-03 0. -1.
         11    1    4    4    0    0 -0.20652621994E-02 -0.57942481583E-01  0.26664809657E-01  0.63819038500E-01  0.51100000000E-03 0.  1.
</event>
<event>
 8    1  0.1076043E+005  0.1043930E+01  0.7957747E-01            NaN
         13   -1    0    0    0    0  0.00000000000E+00  0.00000000000E+00  0.74505805969E-08  0.10566000000E+00  0.10566000000E+00 0.  1.
     999900   -1    0    0    0    0 -0.00000000000E+00 -0.00000000000E+00 -0.74505805969E-08  0.93827000000E+00  0.93827000000E+00 0.  1.
     999902    2    1    2    0    0  0.36936278746E-02  0.17422120325E-01 -0.16068912716E-01  0.10199428551E+01  0.10196607498E+01 0.  0.
     999903    2    3    3    0    0  0.13825803317E-02  0.52891655223E-01  0.11631031182E+00  0.12933200411E+00  0.19980989279E-01 0.  0.
         14    1    1    2    0    0 -0.36936278746E-02 -0.17422120325E-01  0.16068912716E-01  0.23987144878E-01  0.00000000000E+00 0.  1.
     999901    1    3    3    0    0  0.23110475429E-02 -0.35469534897E-01 -0.13237922453E+00  0.89061085101E+00  0.88000000000E+00 0.  1.
        -11    1    4    4    0    0  0.10388762388E-01  0.34553319039E-01  0.76423355395E-01  0.84514191775E-01  0.51100000000E-03 0.  1.
         11    1    4    4    0    0 -0.90061820565E-02  0.18338336184E-01  0.39886956421E-01  0.44817812338E-01  0.51100000000E-03 0. -1.
</event>
<event>
 8    1  0.1076043E+005  0.1043930E+01  0.7957747E-01            NaN
         13   -1    0    0    0    0  0.00000000000E+00  0.00000000000E+00  0.74505805969E-08  0.10566000000E+00  0.10566000000E+00 0.  1.
     999900   -1    0    0    0    0 -0.00000000000E+00 -0.00000000000E+00 -0.74505805969E-08  0.93827000000E+00  0.93827000000E+00 0. -1.
     999902    2    1    2    0    0  0.13522711283E-01  0.15091733174E-01 -0.12537402050E-01  0.10201012237E+01  0.10198228748E+01 0.  0.
     999903    2    3    3    0    0  0.11950393443E+00 -0.29211138712E-01 -0.37581310566E-01  0.13228257020E+00  0.30851944912E-01 0.  0.
         14    1    1    2    0    0 -0.13522711283E-01 -0.15091733174E-01  0.12537402050E-01  0.23828776318E-01  0.00000000000E+00 0.  1.
     999901    1    3    3    0    0 -0.10598122315E+00  0.44302871886E-01  0.25043908516E-01  0.88781865348E+00  0.88000000000E+00 0.  1.
        -11    1    4    4    0    0  0.97260064693E-01 -0.15947847883E-01 -0.18925715717E-01  0.10036083834E+00  0.51100000000E-03 0. -1.
         11    1    4    4    0    0  0.22243869740E-01 -0.13263290829E-01 -0.18655594850E-01  0.31921731858E-01  0.51100000000E-03 0.  1.
</event>
<event>
 8    1  0.1076043E+005  0.1043930E+01  0.7957747E-01            NaN
         13   -1    0    0    0    0  0.00000000000E+00  0.00000000000E+00  0.74505805969E-08  0.10566000000E+00  0.10566000000E+00 0. -1.
     999900   -1    0    0    0    0 -0.00000000000E+00 -0.00000000000E+00 -0.74505805969E-08  0.93827000000E+00  0.93827000000E+00 0.  1.
     999902    2    1    2    0    0 -0.11901261759E-01  0.19339986819E-01  0.50290414803E-02  0.10206713160E+01  0.10204062764E+01 0.  0.
     999903    2    3    3    0    0 -0.60100607233E-01 -0.91501246797E-01 -0.66077465878E-01  0.12956801598E+00  0.20906413223E-01 0.  0.
         14    1    1    2    0    0  0.11901261759E-01 -0.19339986819E-01 -0.50290414803E-02  0.23258683966E-01  0.00000000000E+00 0. -1.
     999901    1    3    3    0    0  0.48199345474E-01  0.11084123362E+00  0.71106507358E-01  0.89110330005E+00  0.88000000000E+00 0. -1.
        -11    1    4    4    0    0 -0.10614582692E-01 -0.13611570064E-01 -0.19995518852E-01  0.26420183582E-01  0.51100000000E-03 0. -1.
         11    1    4    4    0    0 -0.49486024541E-01 -0.77889676733E-01 -0.46081947026E-01  0.10314783240E+00  0.51100000000E-03 0.  1.
</event>
<event>
 8    1  0.1076043E+005  0.1043930E+01  0.7957747E-01            NaN
         13   -1    0    0    0    0  0.00000000000E+00  0.00000000000E+00  0.74505805969E-08  0.10566000000E+00  0.10566000000E+00 0.  1.
     999900   -1    0    0    0    0 -0.00000000000E+00 -0.00000000000E+00 -0.74505805969E-08  0.93827000000E+00  0.93827000000E+00 0.  1.
     999902    2    1    2    0    0 -0.13752364176E-01  0.12843990295E-01 -0.13846184041E-01  0.10205673713E+01  0.10202999299E+01 0.  0.
     999903    2    3    3    0    0  0.85638957302E-01  0.81656368940E-01  0.50477657087E-01  0.12997692964E+00  0.18553026119E-01 0.  0.
         14    1    1    2    0    0  0.13752364176E-01 -0.12843990295E-01  0.13846184041E-01  0.23362628696E-01  0.00000000000E+00 0.  1.
     999901    1    3    3    0    0 -0.99391321478E-01 -0.68812378645E-01 -0.64323841128E-01  0.89059044166E+00  0.88000000000E+00 0.  1.
        -11    1    4    4    0    0  0.12804400935E-01  0.12196550230E-01  0.72854347668E-03  0.17705942997E-01  0.51100000000E-03 0. -1.
         11    1    4    4    0    0  0.72834556366E-01  0.69459818710E-01  0.49749113611E-01  0.11227098665E+00  0.51100000000E-03 0.  1.
</event>
<event>
 8    1  0.1076043E+005  0.1043930E+01  0.7957747E-01            NaN
         13   -1    0    0    0    0  0.00000000000E+00  0.00000000000E+00  0.74505805969E-08  0.10566000000E+00  0.10566000000E+00 0. -1.
     999900   -1    0    0    0    0 -0.00000000000E+00 -0.00000000000E+00 -0.74505805969E-08  0.93827000000E+00  0.93827000000E+00 0.  1.
     999902    2    1    2    0    0  0.23436264329E-01  0.53162296588E-02  0.52549424533E-02  0.10193305040E+01  0.10190336310E+01 0.  0.
     999903    2    3    3    0    0 -0.60294542928E-01  0.42302190728E-01  0.10422931003E+00  0.12906383898E+00  0.19204640490E-01 0.  0.
         14    1    1    2    0    0 -0.23436264329E-01 -0.53162296588E-02 -0.52549424533E-02  0.24599496004E-01  0.00000000000E+00 0. -1.
     999901    1    3    3    0    0  0.83730807257E-01 -0.36985961070E-01 -0.98974367574E-01  0.89026666501E+00  0.88000000000E+00 0.  1.
        -11    1    4    4    0    0 -0.20316876958E-01  0.25541469726E-01  0.48438143596E-01  0.58409391721E-01  0.51100000000E-03 0.  1.
         11    1    4    4    0    0 -0.39977665970E-01  0.16760721002E-01  0.55791166431E-01  0.70654447260E-01  0.51100000000E-03 0. -1.
</event>
<event>
 8    1  0.1076043E+005  0.1043930E+01  0.7957747E-01            NaN
         13   -1    0    0    0    0  0.00000000000E+00  0.00000000000E+00  0.74505805969E-08  0.10566000000E+00  0.10566000000E+00 0.  1.
     999900   -1    0    0    0    0 -0.00000000000E+00 -0.00000000000E+00 -0.74505805969E-08  0.93827000000E+00  0.93827000000E+00 0.  1.
     999902    2    1    2    0    0 -0.21839724701E-01  0.60384678389E-02  0.40948929370E-02  0.10209038232E+01  0.10206441160E+01 0.  0.
     999903    2    3    3    0    0 -0.12479589018E+00 -0.99830711865E-02  0.43423341599E-01  0.13388443866E+00  0.19125386357E-01 0.  0.
         14    1    1    2    0    0  0.21839724701E-01 -0.60384678389E-02 -0.40948929370E-02  0.23026176778E-01  0.00000000000E+00 0. -1.
     999901    1    3    3    0    0  0.10295616548E+00  0.16021539025E-01 -0.39328448662E-01  0.88701938457E+00  0.88000000000E+00 0. -1.
        -11    1    4    4    0    0 -0.28293227065E-01 -0.34637292556E-02  0.18552406416E-01  0.34014070955E-01  0.51100000000E-03 0.  1.
         11    1    4    4    0    0 -0.96502663111E-01 -0.65193419309E-02  0.24870935182E-01  0.99870367700E-01  0.51100000000E-03 0. -1.
</event>
<event>
 8    1  0.1076043E+005  0.1043930E+01  0.7957747E-01            NaN
         13   -1    0    0    0    0  0.00000000000E+00  0.00000000000E+00  0.74505805969E-08  0.10566000000E+00  0.10566000000E+00 0. -1.
     999900   -1    0    0    0    0 -0.00000000000E+00 -0.00000000000E+00 -0.74505805969E-08  0.93827000000E+00  0.93827000000E+00 0.  1.
     999902    2    1    2    0    0 -0.36950754761E-02  0.15912266827E-01 -0.17397778782E-01  0.10200650356E+01  0.10197858306E+01 0.  0.
     999903    2    3    3    0    0 -0.35044512054E-01 -0.12073790806E+00  0.16037476071E-01  0.12833975632E+00  0.20202280705E-01 0.  0.
         14    1    1    2    0    0  0.36950754761E-02 -0.15912266827E-01  0.17397778782E-01  0.23864964381E-01  0.00000000000E+00 0. -1.
     999901    1    3    3    0    0  0.31349436578E-01  0.13665017489E+00 -0.33435254853E-01  0.89172527930E+00  0.88000000000E+00 0.  1.
        -11    1    4    4    0    0 -0.39233703455E-02 -0.44073161395E-01  0.11264014942E-02  0.44264729656E-01  0.51100000000E-03 0. -1.
         11    1    4    4    0    0 -0.31121141709E-01 -0.76664746667E-01  0.14911074576E-01  0.84075026666E-01  0.51100000000E-03 0.  1.
</event>
<event>
 8    1  0.1076043E+005  0.1043930E+01  0.7957747E-01            NaN
         13   -1    0    0    0    0  0.00000000000E+00  0.00000000000E+00  0.74505805969E-08  0.10566000000E+00  0.10566000000E+00 0. -1.
     999900   -1    0    0    0    0 -0.00000000000E+00 -0.00000000000E+00 -0.74505805969E-08  0.93827000000E+00  0.93827000000E+00 0.  1.
     999902    2    1    2    0    0  0.15064214315E-01  0.44804666984E-02 -0.17386190841E-01  0.10204931750E+01  0.10202240124E+01 0.  0.
     999903    2    3    3    0    0  0.79870281100E-01 -0.10155797702E+00 -0.17715617407E-01  0.13176144586E+00  0.18813585928E-01 0.  0.
         14    1    1    2    0    0 -0.15064214315E-01 -0.44804666984E-02  0.17386190841E-01  0.23436825013E-01  0.00000000000E+00 0. -1.
     999901    1    3    3    0    0 -0.64806066785E-01  0.10603844372E+00  0.32942656594E-03  0.88873172913E+00  0.88000000000E+00 0.  1.
        -11    1    4    4    0    0  0.37335318675E-01 -0.49891432324E-01 -0.17900498160E-01  0.64836486606E-01  0.51100000000E-03 0. -1.
         11    1    4    4    0    0  0.42534962425E-01 -0.51666544694E-01  0.18488075326E-03  0.66924959252E-01  0.51100000000E-03 0.  1.
</event>
<event>
 7    1  0.1076043E+005  0.1043930E+01  0.7957747E-01            NaN
         13   -1    0    0    0    0  0.00000000000E+00  0.00000000000E+00  0.74505805969E-08  0.10566000000E+00  0.10566000000E+00 0. -1.
     999900   -1    0    0    0    0 -0.00000000000E+00 -0.00000000000E+00 -0.74505805969E-08  0.93827000000E+00  0.93827000000E+00 0. -1.
     999903    2    1    2    0    0 -0.32622533016E-01  0.89857335085E-01  0.67260234524E-01  0.11749161502E+00  0.11906725959E-01 0.  0.
         14    1    1    2    0    0 -0.98779613833E-02 -0.39064730461E-01  0.67340162815E-02  0.40853081430E-01  0.00000000000E+00 0.  1.
     999901    1    1    2    0    0  0.42500494400E-01 -0.50792604624E-01 -0.73994250806E-01  0.88558530355E+00  0.88000000000E+00 0. -1.
        -11    1    3    3    0    0 -0.25254202494E-01  0.58026780945E-01  0.39383873566E-01  0.74540141323E-01  0.51100000000E-03 0. -1.
         11    1    3    3    0    0 -0.73683305225E-02  0.31830554140E-01  0.27876360958E-01  0.42951473698E-01  0.51100000000E-03 0.  1.
</event>
<event>
 8    1  0.1076043E+005  0.1043930E+01  0.7957747E-01            NaN
         13   -1    0    0    0    0  0.00000000000E+00  0.00000000000E+00  0.74505805969E-08  0.10566000000E+00  0.10566000000E+00 0.  1.
     999900   -1    0    0    0    0 -0.00000000000E+00 -0.00000000000E+00 -0.74505805969E-08  0.93827000000E+00  0.93827000000E+00 0.  1.
     999902    2    1    2    0    0  0.22553010138E-01 -0.58472962422E-02 -0.78176612086E-02  0.10193547082E+01  0.10190584263E+01 0.  0.
     999903    2    3    3    0    0 -0.11189277436E+00 -0.53526340505E-01  0.20930212401E-01  0.12740437301E+00  0.20217279494E-01 0.  0.
         14    1    1    2    0    0 -0.22553010138E-01  0.58472962422E-02  0.78176612086E-02  0.24575291787E-01  0.00000000000E+00 0.  1.
     999901    1    3    3    0    0  0.13444578449E+00  0.47679044263E-01 -0.28747873609E-01  0.89195033520E+00  0.88000000000E+00 0. -1.
        -11    1    4    4    0    0 -0.35630363814E-01 -0.27138490448E-01  0.41988473847E-02  0.44987908706E-01  0.51100000000E-03 0. -1.
         11    1    4    4    0    0 -0.76262410542E-01 -0.26387850057E-01  0.16731365016E-01  0.82416464305E-01  0.51100000000E-03 0.  1.
</event>
<event>
 8    1  0.1076043E+005  0.1043930E+01  0.7957747E-01            NaN
         13   -1    0    0    0    0  0.00000000000E+00  0.00000000000E+00  0.74505805969E-08  0.10566000000E+00  0.10566000000E+00 0. -1.
     999900   -1    0    0    0    0 -0.00000000000E+00 -0.00000000000E+00 -0.74505805969E-08  0.93827000000E+00  0.93827000000E+00 0.  1.
     999902    2    1    2    0    0  0.16977804804E-01 -0.13886273547E-01 -0.10100181754E-01  0.10197827823E+01  0.10194968539E+01 0.  0.
     999903    2    3    3    0    0  0.18283606533E-01  0.10054304330E+00 -0.77383992615E-01  0.12982610650E+00  0.20575271390E-01 0.  0.
         14    1    1    2    0    0 -0.16977804804E-01  0.13886273547E-01  0.10100181754E-01  0.24147217654E-01  0.00000000000E+00 0.  1.
     999901    1    3    3    0    0 -0.13058017292E-02 -0.11442931685E+00  0.67283810861E-01  0.88995667584E+00  0.88000000000E+00 0. -1.
        -11    1    4    4    0    0  0.48905512164E-02  0.53650120073E-01 -0.29252180054E-01  0.61304192629E-01  0.51100000000E-03 0. -1.
         11    1    4    4    0    0  0.13393055317E-01  0.46892923228E-01 -0.48131812561E-01  0.68521913874E-01  0.51100000000E-03 0.  1.
</event>
<event>
 8    1  0.1076043E+005  0.1043930E+01  0.7957747E-01            NaN
         13   -1    0    0    0    0  0.00000000000E+00  0.00000000000E+00  0.74505805969E-08  0.10566000000E+00  0.10566000000E+00 0. -1.
     999900   -1    0    0    0    0 -0.00000000000E+00 -0.00000000000E+00 -0.74505805969E-08  0.93827000000E+00  0.93827000000E+00 0. -1.
     999902    2    1    2    0    0 -0.12250943976E-01  0.47127351867E-02  0.19828146639E-01  0.10201507885E+01  0.10198736100E+01 0.  0.
     999903    2    3    3    0    0  0.99328248975E-01 -0.24541130384E-02  0.82918264642E-01  0.13083552211E+00  0.19245038824E-01 0.  0.
         14    1    1    2    0    0  0.12250943976E-01 -0.47127351867E-02 -0.19828146639E-01  0.23779211517E-01  0.00000000000E+00 0.  1.
     999901    1    3    3    0    0 -0.11157919295E+00  0.71668482252E-02 -0.63090118003E-01  0.88931526637E+00  0.88000000000E+00 0. -1.
        -11    1    4    4    0    0  0.60979720952E-01 -0.62075879982E-02  0.40192987123E-01  0.73299371423E-01  0.51100000000E-03 0.  1.
         11    1    4    4    0    0  0.38348528023E-01  0.37534749598E-02  0.42725277520E-01  0.57536150687E-01  0.51100000000E-03 0. -1.
</event>
<event>
 8    1  0.1076043E+005  0.1043930E+01  0.7957747E-01            NaN
         13   -1    0    0    0    0  0.00000000000E+00  0.00000000000E+00  0.74505805969E-08  0.10566000000E+00  0.10566000000E+00 0. -1.
     999900   -1    0    0    0    0 -0.00000000000E+00 -0.00000000000E+00 -0.74505805969E-08  0.93827000000E+00  0.93827000000E+00 0.  1.
     999902    2    1    2    0    0 -0.18681446119E-01 -0.15855857855E-01  0.58672682734E-03  0.10194198204E+01  0.10191251254E+01 0.  0.
     999903    2    3    3    0    0 -0.11609478699E-01 -0.84269772625E-01  0.97624387715E-01  0.13141825275E+00  0.22451314104E-01 0.  0.
         14    1    1    2    0    0  0.18681446119E-01  0.15855857855E-01 -0.58672682734E-03  0.24510179636E-01  0.00000000000E+00 0.  1.
     999901    1    3    3    0    0 -0.70719674200E-02  0.68413914770E-01 -0.97037660887E-01  0.88800156762E+00  0.88000000000E+00 0.  1.
        -11    1    4    4    0    0 -0.15716797638E-01 -0.54956644023E-01  0.53566598606E-01  0.78338317938E-01  0.51100000000E-03 0. -1.
         11    1    4    4    0    0  0.41073189388E-02 -0.29313128602E-01  0.44057789109E-01  0.53079934810E-01  0.51100000000E-03 0.  1.
</event>
<event>
 8    1  0.1076043E+005  0.1043930E+01  0.7957747E-01            NaN
         13   -1    0    0    0    0  0.00000000000E+00  0.00000000000E+00  0.74505805969E-08  0.10566000000E+00  0.10566000000E+00 0. -1.
     999900   -1    0    0    0    0 -0.00000000000E+00 -0.00000000000E+00 -0.74505805969E-08  0.93827000000E+00  0.93827000000E+00 0. -1.
     999902    2    1    2    0    0 -0.16138748564E-02  0.14548918965E-01  0.17626551744E-01  0.10210177552E+01  0.10207606406E+01 0.  0.
     999903    2    3    3    0    0 -0.45994464199E-01 -0.91083061123E-02 -0.11861608521E+00  0.12911453336E+00  0.20058291999E-01 0.  0.
         14    1    1    2    0    0  0.16138748564E-02 -0.14548918965E-01 -0.17626551744E-01  0.22912244794E-01  0.00000000000E+00 0.  1.
     999901    1    3    3    0    0  0.44380589342E-01  0.23657225078E-01  0.13624263695E+00  0.89190322184E+00  0.88000000000E+00 0.  1.
        -11    1    4    4    0    0 -0.10812855276E-01  0.49580711916E-02 -0.41769896125E-01  0.43433692595E-01  0.51100000000E-03 0. -1.
         11    1    4    4    0    0 -0.35181608923E-01 -0.14066377304E-01 -0.76846189086E-01  0.85680840769E-01  0.51100000000E-03 0.  1.
</event>
<event>
 8    1  0.1076043E+005  0.1043930E+01  0.7957747E-01            NaN
         13   -1    0    0    0    0  0.00000000000E+00  0.00000000000E+00  0.74505805969E-08  0.10566000000E+00  0.10566000000E+00 0. -1.
     999900   -1    0    0    0    0 -0.00000000000E+00 -0.00000000000E+00 -0.74505805969E-08  0.93827000000E+00  0.93827000000E+00 0.  1.
     999902    2    1    2    0    0  0.68855842137E-02 -0.19371784542E-01  0.11033113245E-01  0.10205974713E+01  0.10203307266E+01 0.  0.
     999903    2    3    3    0    0 -0.82156924259E-01  0.92432672305E-01 -0.27365421596E-01  0.12823921796E+00  0.20071661849E-01 0.  0.
         14    1    1    2    0    0 -0.68855842137E-02  0.19371784542E-01 -0.11033113245E-01  0.23332528671E-01  0.00000000000E+00 0. -1.
     999901    1    3    3    0    0  0.89042508473E-01 -0.11180445685E+00  0.38398534841E-01  0.89235825337E+00  0.88000000000E+00 0.  1.
        -11    1    4    4    0    0 -0.51128153983E-01  0.42732712508E-01 -0.16471747135E-01  0.68642205841E-01  0.51100000000E-03 0. -1.
         11    1    4    4    0    0 -0.31028770276E-01  0.49699959797E-01 -0.10893674461E-01  0.59597012114E-01  0.51100000000E-03 0.  1.
</event>
<event>
 8    1  0.1076043E+005  0.1043930E+01  0.7957747E-01            NaN
         13   -1    0    0    0    0  0.00000000000E+00  0.00000000000E+00  0.74505805969E-08  0.10566000000E+00  0.10566000000E+00 0. -1.
     999900   -1    0    0    0    0 -0.00000000000E+00 -0.00000000000E+00 -0.74505805969E-08  0.93827000000E+00  0.93827000000E+00 0. -1.
     999902    2    1    2    0    0 -0.20080847850E-01 -0.20156963942E-03 -0.12652581587E-01  0.10201946066E+01  0.10199184606E+01 0.  0.
     999903    2    3    3    0    0  0.51752565901E-01 -0.89230696995E-02  0.11509923550E+00  0.12803059100E+00  0.19648128938E-01 0.  0.
         14    1    1    2    0    0  0.20080847850E-01  0.20156963942E-03  0.12652581587E-01  0.23735393435E-01  0.00000000000E+00 0. -1.
     999901    1    3    3    0    0 -0.71833413751E-01  0.87215000601E-02 -0.12775181708E+00  0.89216401556E+00  0.88000000000E+00 0. -1.
        -11    1    4    4    0    0  0.37768671564E-01 -0.54916255805E-03  0.94409720641E-01  0.10168692445E+00  0.51100000000E-03 0. -1.
         11    1    4    4    0    0  0.13983894337E-01 -0.83739071415E-02  0.20689514855E-01  0.26343666555E-01  0.51100000000E-03 0.  1.
</event>
<event>
 8    1  0.1076043E+005  0.1043930E+01  0.7957747E-01            NaN
         13   -1    0    0    0    0  0.00000000000E+00  0.00000000000E+00  0.74505805969E-08  0.10566000000E+00  0.10566000000E+00 0. -1.
     999900   -1    0    0    0    0 -0.00000000000E+00 -0.00000000000E+00 -0.74505805969E-08  0.93827000000E+00  0.93827000000E+00 0. -1.
     999902    2    1    2    0    0  0.16655148411E-01 -0.40955231261E-02 -0.16761486821E-01  0.10199484505E+01  0.10196664782E+01 0.  0.
     999903    2    3    3    0    0 -0.92120204701E-01  0.68478843167E-01  0.52194449834E-01  0.12761777336E+00  0.19660910634E-01 0.  0.
         14    1    1    2    0    0 -0.16655148411E-01  0.40955231261E-02  0.16761486821E-01  0.23981549548E-01  0.00000000000E+00 0. -1.
     999901    1    3    3    0    0  0.10877535311E+00 -0.72574366293E-01 -0.68955936656E-01  0.89233067710E+00  0.88000000000E+00 0.  1.
        -11    1    4    4    0    0 -0.73931803861E-01  0.44444233204E-01  0.40254682971E-01  0.95194023496E-01  0.51100000000E-03 0. -1.
         11    1    4    4    0    0 -0.18188400840E-01  0.24034609963E-01  0.11939766863E-01  0.32423749859E-01  0.51100000000E-03 0.  1.
</event>
<event>
 8    1  0.1076043E+005  0.1043930E+01  0.7957747E-01            NaN
         13   -1    0    0    0    0  0.00000000000E+00  0.00000000000E+00  0.74505805969E-08  0.10566000000E+00  0.10566000000E+00 0.  1.
     999900   -1    0    0    0    0 -0.00000000000E+00 -0.00000000000E+00 -0.74505805969E-08  0.93827000000E+00  0.93827000000E+00 0. -1.
     999902    2    1    2    0    0 -0.49847362458E-02  0.94226082243E-02  0.21441075766E-01  0.10199852120E+01  0.10197041139E+01 0.  0.
     999903    2    3    3    0    0 -0.11403929834E+00 -0.16428090592E-01 -0.55552632762E-01  0.12954195875E+00  0.20498301021E-01 0.  0.
         14    1    1    2    0    0  0.49847362458E-02 -0.94226082243E-02 -0.21441075766E-01  0.23944787975E-01  0.00000000000E+00 0. -1.
     999901    1    3    3    0    0  0.10905456209E+00  0.25850698816E-01  0.76993708527E-01  0.89044325327E+00  0.88000000000E+00 0.  1.
        -11    1    4    4    0    0 -0.71701610470E-01 -0.51702474862E-02 -0.24932470425E-01  0.76090351593E-01  0.51100000000E-03 0. -1.
         11    1    4    4    0    0 -0.42337687869E-01 -0.11257843105E-01 -0.30620162337E-01  0.53451607160E-01  0.51100000000E-03 0.  1.
</event>
<event>
 8    1  0.1076043E+005  0.1043930E+01  0.7957747E-01            NaN
         13   -1    0    0    0    0  0.00000000000E+00  0.00000000000E+00  0.74505805969E-08  0.10566000000E+00  0.10566000000E+00 0. -1.
     999900   -1    0    0    0    0 -0.00000000000E+00 -0.00000000000E+00 -0.74505805969E-08  0.93827000000E+00  0.93827000000E+00 0. -1.
     999902    2    1    2    0    0 -0.87336009275E-02 -0.64788329137E-02  0.20816192971E-01  0.10204445800E+01  0.10201742871E+01 0.  0.
     999903    2    3    3    0    0  0.47452285768E-01 -0.12046743078E+00 -0.33990624243E-02  0.13098596217E+00  0.19535796797E-01 0.  0.
         14    1    1    2    0    0  0.87336009275E-02  0.64788329137E-02 -0.20816192971E-01  0.23485419964E-01  0.00000000000E+00 0.  1.
     999901    1    3    3    0    0 -0.56185886695E-01  0.11398859787E+00  0.24215255395E-01  0.88945861787E+00  0.88000000000E+00 0. -1.
        -11    1    4    4    0    0  0.28115753348E-01 -0.46753836989E-01  0.19061990604E-02  0.54592229991E-01  0.51100000000E-03 0.  1.
         11    1    4    4    0    0  0.19336532420E-01 -0.73713593790E-01 -0.53052614848E-02  0.76393732177E-01  0.51100000000E-03 0. -1.
</event>
<event>
 8    1  0.1076043E+005  0.1043930E+01  0.7957747E-01            NaN
         13   -1    0    0    0    0  0.00000000000E+00  0.00000000000E+00  0.74505805969E-08  0.10566000000E+00  0.10566000000E+00 0. -1.
     999900   -1    0    0    0    0 -0.00000000000E+00 -0.00000000000E+00 -0.74505805969E-08  0.93827000000E+00  0.93827000000E+00 0.  1.
     999902    2    1    2    0    0  0.19320655570E-02  0.31614603545E-03  0.23788915902E-01  0.10200606610E+01  0.10197813524E+01 0.  0.
     999903    2    3    3    0    0 -0.49428859284E-01  0.11556263201E+00  0.31413778839E-01  0.13102869548E+00  0.19589780282E-01 0.  0.
         14    1    1    2    0    0 -0.19320655570E-02 -0.31614603545E-03 -0.23788915902E-01  0.23869339024E-01  0.00000000000E+00 0.  1.
     999901    1    3    3    0    0  0.51360924841E-01 -0.11524648598E+00 -0.76248629366E-02  0.88903196549E+00  0.88000000000E+00 0.  1.
        -11    1    4    4    0    0 -0.38052937566E-01  0.72722207226E-01  0.13327992917E-01  0.83153123798E-01  0.51100000000E-03 0. -1.
         11    1    4    4    0    0 -0.11375921719E-01  0.42840424787E-01  0.18085785922E-01  0.47875571686E-01  0.51100000000E-03 0.  1.
</event>
<event>
 8    1  0.1076043E+005  0.1043930E+01  0.7957747E-01            NaN
         13   -1    0    0    0    0  0.00000000000E+00  0.00000000000E+00  0.74505805969E-08  0.10566000000E+00  0.10566000000E+00 0.  1.
     999900   -1    0    0    0    0 -0.00000000000E+00 -0.00000000000E+00 -0.74505805969E-08  0.93827000000E+00  0.93827000000E+00 0.  1.
     999902    2    1    2    0    0  0.12602438370E-01 -0.17787595117E-01 -0.79383412261E-02  0.10207300592E+01  0.10204663720E+01 0.  0.
     999903    2    3    3    0    0  0.33401052320E-01  0.60473915697E-01 -0.10992011015E+00  0.13114716387E+00  0.18558642208E-01 0.  0.
         14    1    1    2    0    0 -0.12602438370E-01  0.17787595117E-01  0.79383412261E-02  0.23199940826E-01  0.00000000000E+00 0. -1.
     999901    1    3    3    0    0 -0.20798613950E-01 -0.78261510814E-01  0.10198176893E+00  0.88958289530E+00  0.88000000000E+00 0. -1.
        -11    1    4    4    0    0  0.93709469889E-02  0.47754458451E-02 -0.12064096684E-01  0.16013215801E-01  0.51100000000E-03 0.  1.
         11    1    4    4    0    0  0.24030105331E-01  0.55698469852E-01 -0.97856013467E-01  0.11513394807E+00  0.51100000000E-03 0. -1.
</event>
<event>
 8    1  0.1076043E+005  0.1043930E+01  0.7957747E-01            NaN
         13   -1    0    0    0    0  0.00000000000E+00  0.00000000000E+00  0.74505805969E-08  0.10566000000E+00  0.10566000000E+00 0.  1.
     999900   -1    0    0    0    0 -0.00000000000E+00 -0.00000000000E+00 -0.74505805969E-08  0.93827000000E+00  0.93827000000E+00 0.  1.
     999902    2    1    2    0    0 -0.13868293186E-01  0.13783290713E-01 -0.13038803705E-01  0.10204285307E+01  0.10201578638E+01 0.  0.
     999903    2    3    3    0    0  0.82180380824E-01 -0.20716711124E-01  0.94082482366E-01  0.12807738463E+00  0.19222535026E-01 0.  0.
         14    1    1    2    0    0  0.13868293186E-01 -0.13783290713E-01  0.13038803705E-01  0.23501469333E-01  0.00000000000E+00 0.  1.
     999901    1    3    3    0    0 -0.96048674010E-01  0.34500001838E-01 -0.10712128607E+00  0.89235114604E+00  0.88000000000E+00 0.  1.
        -11    1    4    4    0    0  0.55983360716E-01 -0.19948109543E-01  0.54733492306E-01  0.80796534904E-01  0.51100000000E-03 0.  1.
         11    1    4    4    0    0  0.26197020108E-01 -0.76860158147E-03  0.39348990061E-01  0.47280849725E-01  0.51100000000E-03 0. -1.
</event>
<event>
 8    1  0.1076043E+005  0.1043930E+01  0.7957747E-01            NaN
         13   -1    0    0    0    0  0.00000000000E+00  0.00000000000E+00  0.74505805969E-08  0.10566000000E+00  0.10566000000E+00 0. -1.
     999900   -1    0    0    0    0 -0.00000000000E+00 -0.00000000000E+00 -0.74505805969E-08  0.93827000000E+00  0.93827000000E+00 0.  1.
     999902    2    1    2    0    0 -0.11242545636E-01 -0.20172112782E-01 -0.58113618957E-02  0.10201165397E+01  0.10198385527E+01 0.  0.
     999903    2    3    3    0    0 -0.11685273157E-01 -0.20436144877E-01  0.12639822437E+00  0.13024034578E+00  0.20781119276E-01 0.  0.
         14    1    1    2    0    0  0.11242545636E-01  0.20172112782E-01  0.58113618957E-02  0.23813460344E-01  0.00000000000E+00 0. -1.
     999901    1    3    3    0    0  0.44272752063E-03  0.26403209502E-03 -0.13220958627E+00  0.88987619387E+00  0.88000000000E+00 0.  1.
        -11    1    4    4    0    0 -0.53587657488E-03 -0.15268141135E-01  0.99450549833E-01  0.10061846888E+00  0.51100000000E-03 0.  1.
         11    1    4    4    0    0 -0.11149396582E-01 -0.51680037418E-02  0.26947674542E-01  0.29621876899E-01  0.51100000000E-03 0. -1.
</event>
<event>
 8    1  0.1076043E+005  0.1043930E+01  0.7957747E-01            NaN
         13   -1    0    0    0    0  0.00000000000E+00  0.00000000000E+00  0.74505805969E-08  0.10566000000E+00  0.10566000000E+00 0. -1.
     999900   -1    0    0    0    0 -0.00000000000E+00 -0.00000000000E+00 -0.74505805969E-08  0.93827000000E+00  0.93827000000E+00 0.  1.
     999902    2    1    2    0    0 -0.87508665722E-02  0.12852362714E-01  0.17938891351E-01  0.10201904820E+01  0.10199142389E+01 0.  0.
     999903    2    3    3    0    0  0.10822881516E+00 -0.30377373427E-01 -0.57935333737E-01  0.12816472335E+00  0.20819033775E-01 0.  0.
         14    1    1    2    0    0  0.87508665722E-02 -0.12852362714E-01 -0.17938891351E-01  0.23739518024E-01  0.00000000000E+00 0.  1.
     999901    1    3    3    0    0 -0.11697968174E+00  0.43229736141E-01  0.75874225088E-01  0.89202575863E+00  0.88000000000E+00 0. -1.
        -11    1    4    4    0    0  0.62243740327E-01 -0.23058151923E-01 -0.43692323458E-01  0.79468495834E-01  0.51100000000E-03 0. -1.
         11    1    4    4    0    0  0.45985074836E-01 -0.73192215035E-02 -0.14243010279E-01  0.48696227512E-01  0.51100000000E-03 0.  1.
</event>
<event>
 8    1  0.1076043E+005  0.1043930E+01  0.7957747E-01            NaN
         13   -1    0    0    0    0  0.00000000000E+00  0.00000000000E+00  0.74505805969E-08  0.10566000000E+00  0.10566000000E+00 0. -1.
     999900   -1    0    0    0    0 -0.00000000000E+00 -0.00000000000E+00 -0.74505805969E-08  0.93827000000E+00  0.93827000000E+00 0.  1.
     999902    2    1    2    0    0  0.97571461375E-03  0.17418785555E-01 -0.15744665361E-01  0.10204297745E+01  0.10201591367E+01 0.  0.
     999903    2    3    3    0    0 -0.40858542024E-01  0.69505209734E-01 -0.10449020636E+00  0.13344675799E+00  0.19734217891E-01 0.  0.
         14    1    1    2    0    0 -0.97571461375E-03 -0.17418785555E-01  0.15744665361E-01  0.23500225457E-01  0.00000000000E+00 0. -1.
     999901    1    3    3    0    0  0.41834256637E-01 -0.52086424179E-01  0.88745540998E-01  0.88698301656E+00  0.88000000000E+00 0. -1.
        -11    1    4    4    0    0 -0.19133923553E-01  0.36398483049E-01 -0.37651632065E-01  0.55757179959E-01  0.51100000000E-03 0.  1.
         11    1    4    4    0    0 -0.21724618471E-01  0.33106726685E-01 -0.66838574294E-01  0.77689578028E-01  0.51100000000E-03 0. -1.
</event>
<event>
 8    1  0.1076043E+005  0.1043930E+01  0.7957747E-01            NaN
         13   -1    0    0    0    0  0.00000000000E+00  0.00000000000E+00  0.74505805969E-08  0.10566000000E+00  0.10566000000E+00 0.  1.
     999900   -1    0    0    0    0 -0.00000000000E+00 -0.00000000000E+00 -0.74505805969E-08  0.93827000000E+00  0.93827000000E+00 0. -1.
     999902    2    1    2    0    0 -0.19883657969E-01 -0.95225864927E-02  0.11161900120E-01  0.10192191214E+01  0.10189195208E+01 0.  0.
     999903    2    3    3    0    0 -0.11766971303E+00  0.48510262978E-01 -0.24739524810E-01  0.13117698472E+00  0.19898498784E-01 0.  0.
         14    1    1    2    0    0  0.19883657969E-01  0.95225864927E-02 -0.11161900120E-01  0.24710878617E-01  0.00000000000E+00 0. -1.
     999901    1    3    3    0    0  0.97786055058E-01 -0.58032849471E-01  0.35901424930E-01  0.88804213667E+00  0.88000000000E+00 0. -1.
        -11    1    4    4    0    0 -0.42936978276E-01  0.12512845876E-01 -0.40018223644E-03  0.44727806589E-01  0.51100000000E-03 0. -1.
         11    1    4    4    0    0 -0.74732734750E-01  0.35997417102E-01 -0.24339342574E-01  0.86449178129E-01  0.51100000000E-03 0.  1.
</event>
<event>
 8    1  0.1076043E+005  0.1043930E+01  0.7957747E-01            NaN
         13   -1    0    0    0    0  0.00000000000E+00  0.00000000000E+00  0.74505805969E-08  0.10566000000E+00  0.10566000000E+00 0. -1.
     999900   -1    0    0    0    0 -0.00000000000E+00 -0.00000000000E+00 -0.74505805969E-08  0.93827000000E+00  0.93827000000E+00 0. -1.
     999902    2    1    2    0    0 -0.20637314330E-01 -0.11591614142E-01  0.21846802441E-02  0.10201594912E+01  0.10198825179E+01 0.  0.
     999903    2    3    3    0    0 -0.11293225762E+00 -0.28586228262E-01 -0.61289044462E-01  0.13289623421E+00  0.18280996629E-01 0.  0.
         14    1    1    2    0    0  0.20637314330E-01  0.11591614142E-01 -0.21846802441E-02  0.23770508807E-01  0.00000000000E+00 0.  1.
     999901    1    3    3    0    0  0.92294943293E-01  0.16994614120E-01  0.63473724706E-01  0.88726325698E+00  0.88000000000E+00 0. -1.
        -11    1    4    4    0    0 -0.51125797694E-01 -0.18802887220E-01 -0.20537656746E-01  0.58219002253E-01  0.51100000000E-03 0. -1.
         11    1    4    4    0    0 -0.61806459928E-01 -0.97833410424E-02 -0.40751387715E-01  0.74677231956E-01  0.51100000000E-03 0.  1.
</event>
<event>
 8    1  0.1076043E+005  0.1043930E+01  0.7957747E-01            NaN
         13   -1    0    0    0    0  0.00000000000E+00  0.00000000000E+00  0.74505805969E-08  0.10566000000E+00  0.10566000000E+00 0. -1.
     999900   -1    0    0    0    0 -0.00000000000E+00 -0.00000000000E+00 -0.74505805969E-08  0.93827000000E+00  0.93827000000E+00 0. -1.
     999902    2    1    2    0    0  0.57667961173E-02 -0.16034845586E-01  0.17511465493E-01  0.10194959329E+01  0.10192030875E+01 0.  0.
     999903    2    3    3    0    0 -0.87291451227E-02  0.11893492402E+00  0.42919273922E-01  0.12872518365E+00  0.22503215458E-01 0.  0.
         14    1    1    2    0    0 -0.57667961173E-02  0.16034845586E-01 -0.17511465493E-01  0.24434067081E-01  0.00000000000E+00 0.  1.
     999901    1    3    3    0    0  0.14495941240E-01 -0.13496976961E+00 -0.25407808429E-01  0.89077074927E+00  0.88000000000E+00 0.  1.
        -11    1    4    4    0    0 -0.61621806738E-02  0.16626505987E-01  0.13337485637E-01  0.22193756241E-01  0.51100000000E-03 0. -1.
         11    1    4    4    0    0 -0.25669644489E-02  0.10230841803E+00  0.29581788285E-01  0.10653142741E+00  0.51100000000E-03 0.  1.
</event>
<event>
 8    1  0.1076043E+005  0.1043930E+01  0.7957747E-01            NaN
         13   -1    0    0    0    0  0.00000000000E+00  0.00000000000E+00  0.74505805969E-08  0.10566000000E+00  0.10566000000E+00 0. -1.
     999900   -1    0    0    0    0 -0.00000000000E+00 -0.00000000000E+00 -0.74505805969E-08  0.93827000000E+00  0.93827000000E+00 0. -1.
     999902    2    1    2    0    0  0.52477503108E-02  0.17041598129E-01 -0.16423146629E-01  0.10196879973E+01  0.10193997926E+01 0.  0.
     999903    2    3    3    0    0 -0.69514640803E-01  0.20973899321E-01 -0.10806262440E+00  0.13176757743E+00  0.20321760067E-01 0.  0.
         14    1    1    2    0    0 -0.52477503108E-02 -0.17041598129E-01  0.16423146629E-01  0.24242002708E-01  0.00000000000E+00 0. -1.
     999901    1    3    3    0    0  0.74762391113E-01 -0.39323011927E-02  0.91639477768E-01  0.88792041986E+00  0.88000000000E+00 0.  1.
        -11    1    4    4    0    0 -0.31403018268E-01  0.11548266757E-01 -0.32684303018E-01  0.46776455682E-01  0.51100000000E-03 0. -1.
         11    1    4    4    0    0 -0.38111622534E-01  0.94256325645E-02 -0.75378321379E-01  0.84991121750E-01  0.51100000000E-03 0.  1.
</event>
<event>
 8    1  0.1076043E+005  0.1043930E+01  0.7957747E-01            NaN
         13   -1    0    0    0    0  0.00000000000E+00  0.00000000000E+00  0.74505805969E-08  0.10566000000E+00  0.10566000000E+00 0. -1.
     999900   -1    0    0    0    0 -0.00000000000E+00 -0.00000000000E+00 -0.74505805969E-08  0.93827000000E+00  0.93827000000E+00 0.  1.
     999902    2    1    2    0    0  0.86051757382E-02  0.18505875691E-01 -0.12718524588E-01  0.10198826020E+01  0.10195990606E+01 0.  0.
     999903    2    3    3    0    0 -0.51586436151E-01  0.71791175893E-01  0.92953035576E-01  0.12992258489E+00  0.20602861730E-01 0.  0.
         14    1    1    2    0    0 -0.86051757382E-02 -0.18505875691E-01  0.12718524588E-01  0.24047398035E-01  0.00000000000E+00 0.  1.
     999901    1    3    3    0    0  0.60191611890E-01 -0.53285300202E-01 -0.10567156016E+00  0.88996001707E+00  0.88000000000E+00 0. -1.
        -11    1    4    4    0    0 -0.27909978096E-01  0.34462181212E-01  0.60812313985E-01  0.75266243857E-01  0.51100000000E-03 0. -1.
         11    1    4    4    0    0 -0.23676458056E-01  0.37328994682E-01  0.32140721591E-01  0.54656341036E-01  0.51100000000E-03 0.  1.
</event>
<event>
 8    1  0.1076043E+005  0.1043930E+01  0.7957747E-01            NaN
         13   -1    0    0    0    0  0.00000000000E+00  0.00000000000E+00  0.74505805969E-08  0.10566000000E+00  0.10566000000E+00 0.  1.
     999900   -1    0    0    0    0 -0.00000000000E+00 -0.00000000000E+00 -0.74505805969E-08  0.93827000000E+00  0.93827000000E+00 0. -1.
     999902    2    1    2    0    0 -0.12459811901E-01  0.17063611990E-01  0.11137306971E-01  0.10200458343E+01  0.10197661745E+01 0.  0.
     999903    2    3    3    0    0  0.11649107417E+00 -0.43577545635E-01 -0.22224783595E-01  0.12795911756E+00  0.20258872553E-01 0.  0.
         14    1    1    2    0    0  0.12459811901E-01 -0.17063611990E-01 -0.11137306971E-01  0.23884165744E-01  0.00000000000E+00 0. -1.
     999901    1    3    3    0    0 -0.12895088607E+00  0.60641157625E-01  0.33362090566E-01  0.89208671669E+00  0.88000000000E+00 0.  1.
        -11    1    4    4    0    0  0.28262439365E-01 -0.15848618418E-01 -0.13351769020E-01  0.35049608295E-01  0.51100000000E-03 0.  1.
         11    1    4    4    0    0  0.88228634801E-01 -0.27728927217E-01 -0.88730145748E-02  0.92909509267E-01  0.51100000000E-03 0. -1.
</event>
<event>
 8    1  0.1076043E+005  0.1043930E+01  0.7957747E-01            NaN
         13   -1    0    0    0    0  0.00000000000E+00  0.00000000000E+00  0.74505805969E-08  0.10566000000E+00  0.10566000000E+00 0. -1.
     999900   -1    0    0    0    0 -0.00000000000E+00 -0.00000000000E+00 -0.74505805969E-08  0.93827000000E+00  0.93827000000E+00 0. -1.
     999902    2    1    2    0    0 -0.18874495277E-01  0.14780484861E-01  0.62129289065E-02  0.10191649078E+01  0.10188639750E+01 0.  0.
     999903    2    3    3    0    0  0.57394756406E-01  0.45514517111E-01  0.10525396779E+00  0.12979956846E+00  0.20094797945E-01 0.  0.
         14    1    1    2    0    0  0.18874495277E-01 -0.14780484861E-01 -0.62129289065E-02  0.24765092172E-01  0.00000000000E+00 0. -1.
     999901    1    3    3    0    0 -0.76269251684E-01 -0.30734032249E-01 -0.99041038887E-01  0.88936533937E+00  0.88000000000E+00 0. -1.
        -11    1    4    4    0    0  0.41944746966E-01  0.21146808486E-01  0.61570416325E-01  0.77444990765E-01  0.51100000000E-03 0. -1.
         11    1    4    4    0    0  0.15450009440E-01  0.24367708625E-01  0.43683551468E-01  0.52354577691E-01  0.51100000000E-03 0.  1.
</event>
<event>
 8    1  0.1076043E+005  0.1043930E+01  0.7957747E-01            NaN
         13   -1    0    0    0    0  0.00000000000E+00  0.00000000000E+00  0.74505805969E-08  0.10566000000E+00  0.10566000000E+00 0. -1.
     999900   -1    0    0    0    0 -0.00000000000E+00 -0.00000000000E+00 -0.74505805969E-08  0.93827000000E+00  0.93827000000E+00 0.  1.
     999902    2    1    2    0    0  0.52638983721E-02 -0.11354478893E-01 -0.20665209701E-01  0.10197704530E+01  0.10194842290E+01 0.  0.
     999903    2    3    3    0    0 -0.68987435835E-01  0.10534058328E+00 -0.19408445965E-01  0.12896599772E+00  0.19990898036E-01 0.  0.
         14    1    1    2    0    0 -0.52638983721E-02  0.11354478893E-01  0.20665209701E-01  0.24159546953E-01  0.00000000000E+00 0. -1.
     999901    1    3    3    0    0  0.74251334207E-01 -0.11669506218E+00 -0.12567637355E-02  0.89080445532E+00  0.88000000000E+00 0. -1.
        -11    1    4    4    0    0 -0.54207566098E-01  0.89935707252E-01 -0.22486272615E-01  0.10739080612E+00  0.51100000000E-03 0. -1.
         11    1    4    4    0    0 -0.14779869737E-01  0.15404876033E-01  0.30778266495E-02  0.21575191608E-01  0.51100000000E-03 0.  1.
</event>
<event>
 8    1  0.1076043E+005  0.1043930E+01  0.7957747E-01            NaN
         13   -1    0    0    0    0  0.00000000000E+00  0.00000000000E+00  0.74505805969E-08  0.10566000000E+00  0.10566000000E+00 0.  1.
     999900   -1    0    0    0    0 -0.00000000000E+00 -0.00000000000E+00 -0.74505805969E-08  0.93827000000E+00  0.93827000000E+00 0.  1.
     999902    2    1    2    0    0 -0.12865409277E-01  0.12366876396E-01  0.15212004101E-01  0.10204808325E+01  0.10202113830E+01 0.  0.
     999903    2    3    3    0    0  0.83764947164E-01  0.71593360695E-02  0.98840696951E-01  0.13123491458E+00  0.19628982798E-01 0.  0.
         14    1    1    2    0    0  0.12865409277E-01 -0.12366876396E-01 -0.15212004101E-01  0.23449167500E-01  0.00000000000E+00 0. -1.
     999901    1    3    3    0    0 -0.96630356441E-01  0.52075403269E-02 -0.83628692850E-01  0.88924591792E+00  0.88000000000E+00 0.  1.
        -11    1    4    4    0    0  0.35218815601E-01  0.12191235731E-02  0.56251815558E-01  0.66380562736E-01  0.51100000000E-03 0. -1.
         11    1    4    4    0    0  0.48546131563E-01  0.59402124964E-02  0.42588881394E-01  0.64854351848E-01  0.51100000000E-03 0.  1.
</event>
<event>
 8    1  0.1076043E+005  0.1043930E+01  0.7957747E-01            NaN
         13   -1    0    0    0    0  0.00000000000E+00  0.00000000000E+00  0.74505805969E-08  0.10566000000E+00  0.10566000000E+00 0.  1.
     999900   -1    0    0    0    0 -0.00000000000E+00 -0.00000000000E+00 -0.74505805969E-08  0.93827000000E+00  0.93827000000E+00 0. -1.
     999902    2    1    2    0    0  0.14545471954E-01 -0.74480186217E-02 -0.17782974309E-01  0.10197788528E+01  0.10194928301E+01 0.  0.
     999903    2    3    3    0    0 -0.11049005722E+00  0.12573187785E-01 -0.62947814657E-01  0.12956843101E+00  0.21433925187E-01 0.  0.
         14    1    1    2    0    0 -0.14545471954E-01  0.74480186217E-02  0.17782974309E-01  0.24151147199E-01  0.00000000000E+00 0.  1.
     999901    1    3    3    0    0  0.12503552917E+00 -0.20021206407E-01  0.45164840348E-01  0.89021042179E+00  0.88000000000E+00 0.  1.
        -11    1    4    4    0    0 -0.85347129640E-01  0.55492437918E-03 -0.48666552549E-01  0.98250368635E-01  0.51100000000E-03 0.  1.
         11    1    4    4    0    0 -0.25142927579E-01  0.12018263406E-01 -0.14281262108E-01  0.31318062375E-01  0.51100000000E-03 0. -1.
</event>
<event>
 8    1  0.1076043E+005  0.1043930E+01  0.7957747E-01            NaN
         13   -1    0    0    0    0  0.00000000000E+00  0.00000000000E+00  0.74505805969E-08  0.10566000000E+00  0.10566000000E+00 0. -1.
     999900   -1    0    0    0    0 -0.00000000000E+00 -0.00000000000E+00 -0.74505805969E-08  0.93827000000E+00  0.93827000000E+00 0. -1.
     999902    2    1    2    0    0 -0.11954145659E-01 -0.79632283417E-02  0.25882166862E-01  0.10143293046E+01  0.10138973011E+01 0.  0.
     999903    2    3    3    0    0  0.74196085023E-01 -0.88638053122E-01 -0.39916154325E-01  0.12401491710E+00  0.20606717176E-01 0.  0.
         14    1    1    2    0    0  0.11954145659E-01  0.79632283417E-02 -0.25882166862E-01  0.29600695356E-01  0.00000000000E+00 0.  1.
     999901    1    3    3    0    0 -0.86150230682E-01  0.80674824780E-01  0.65798321188E-01  0.89031438755E+00  0.88000000000E+00 0.  1.
        -11    1    4    4    0    0  0.55346281704E-01 -0.51280073874E-01 -0.28298953467E-01  0.80585040568E-01  0.51100000000E-03 0.  1.
         11    1    4    4    0    0  0.18849803318E-01 -0.37357979248E-01 -0.11617200858E-01  0.43429876530E-01  0.51100000000E-03 0. -1.
</event>
<event>
 8    1  0.1076043E+005  0.1043930E+01  0.7957747E-01            NaN
         13   -1    0    0    0    0  0.00000000000E+00  0.00000000000E+00  0.74505805969E-08  0.10566000000E+00  0.10566000000E+00 0.  1.
     999900   -1    0    0    0    0 -0.00000000000E+00 -0.00000000000E+00 -0.74505805969E-08  0.93827000000E+00  0.93827000000E+00 0. -1.
     999902    2    1    2    0    0 -0.97110923522E-02  0.21302123365E-01  0.18466258418E-02  0.10204460523E+01  0.10201757936E+01 0.  0.
     999903    2    3    3    0    0 -0.26898216758E-01 -0.10601973291E+00  0.65063043260E-01  0.12887296621E+00  0.20281617100E-01 0.  0.
         14    1    1    2    0    0  0.97110923522E-02 -0.21302123365E-01 -0.18466258418E-02  0.23483947742E-01  0.00000000000E+00 0. -1.
     999901    1    3    3    0    0  0.17187124405E-01  0.12732185627E+00 -0.63216417418E-01  0.89157308605E+00  0.88000000000E+00 0.  1.
        -11    1    4    4    0    0 -0.16455974264E-01 -0.29474539179E-01  0.23618518234E-01  0.41202464409E-01  0.51100000000E-03 0. -1.
         11    1    4    4    0    0 -0.10442242493E-01 -0.76545193727E-01  0.41444525025E-01  0.87670501804E-01  0.51100000000E-03 0.  1.
</event>
<event>
 8    1  0.1076043E+005  0.1043930E+01  0.7957747E-01            NaN
         13   -1    0    0    0    0  0.00000000000E+00  0.00000000000E+00  0.74505805969E-08  0.10566000000E+00  0.10566000000E+00 0.  1.
     999900   -1    0    0    0    0 -0.00000000000E+00 -0.00000000000E+00 -0.74505805969E-08  0.93827000000E+00  0.93827000000E+00 0.  1.
     999902    2    1    2    0    0 -0.13747533629E-01  0.14680636380E-01  0.12346216707E-01  0.10203303213E+01  0.10200573611E+01 0.  0.
     999903    2    3    3    0    0  0.94660865403E-01  0.82072781507E-01 -0.28960390996E-01  0.13016161934E+00  0.20167349807E-01 0.  0.
         14    1    1    2    0    0  0.13747533629E-01 -0.14680636380E-01 -0.12346216707E-01  0.23599678650E-01  0.00000000000E+00 0. -1.
     999901    1    3    3    0    0 -0.10840839903E+00 -0.67392145127E-01  0.41306607703E-01  0.89016870201E+00  0.88000000000E+00 0.  1.
        -11    1    4    4    0    0  0.42661783401E-01  0.24483522666E-01 -0.13942967243E-01  0.51128642673E-01  0.51100000000E-03 0.  1.
         11    1    4    4    0    0  0.51999082003E-01  0.57589258841E-01 -0.15017423753E-01  0.79032976662E-01  0.51100000000E-03 0. -1.
</event>
<event>
 8    1  0.1076043E+005  0.1043930E+01  0.7957747E-01            NaN
         13   -1    0    0    0    0  0.00000000000E+00  0.00000000000E+00  0.74505805969E-08  0.10566000000E+00  0.10566000000E+00 0.  1.
     999900   -1    0    0    0    0 -0.00000000000E+00 -0.00000000000E+00 -0.74505805969E-08  0.93827000000E+00  0.93827000000E+00 0. -1.
     999902    2    1    2    0    0 -0.17610321883E-02 -0.68570794792E-02 -0.22677815116E-01  0.10201728101E+01  0.10198961508E+01 0.  0.
     999903    2    3    3    0    0  0.87721806914E-01  0.87374715907E-01  0.30481420326E-01  0.12904278925E+00  0.19836029937E-01 0.  0.
         14    1    1    2    0    0  0.17610321883E-02  0.68570794792E-02  0.22677815116E-01  0.23757189897E-01  0.00000000000E+00 0.  1.
     999901    1    3    3    0    0 -0.89482839103E-01 -0.94231795387E-01 -0.53159235442E-01  0.89113002085E+00  0.88000000000E+00 0. -1.
        -11    1    4    4    0    0  0.64348517652E-01  0.51144852345E-01  0.17892889284E-01  0.84124575799E-01  0.51100000000E-03 0. -1.
         11    1    4    4    0    0  0.23373289262E-01  0.36229863562E-01  0.12588531042E-01  0.44918213449E-01  0.51100000000E-03 0.  1.
</event>
<event>
 7    1  0.1076043E+005  0.1043930E+01  0.7957747E-01            NaN
         13   -1    0    0    0    0  0.00000000000E+00  0.00000000000E+00  0.74505805969E-08  0.10566000000E+00  0.10566000000E+00 0.  1.
     999900   -1    0    0    0    0 -0.00000000000E+00 -0.00000000000E+00 -0.74505805969E-08  0.93827000000E+00  0.93827000000E+00 0. -1.
     999903    2    1    2    0    0  0.20302196702E-02  0.10070845658E+00  0.38125850992E-01  0.10931560902E+00  0.18708469800E-01 0.  0.
         14    1    1    2    0    0  0.30455827679E-01  0.25931070822E-01  0.16524402879E-01  0.43278560097E-01  0.00000000000E+00 0. -1.
     999901    1    1    2    0    0 -0.32486047349E-01 -0.12663952740E+00 -0.54650253872E-01  0.89133583089E+00  0.88000000000E+00 0. -1.
        -11    1    3    3    0    0  0.20557360228E-02  0.54627840113E-01  0.10755369826E-01  0.55716838272E-01  0.51100000000E-03 0. -1.
         11    1    3    3    0    0 -0.25516352634E-04  0.46080616467E-01  0.27370481166E-01  0.53598770745E-01  0.51100000000E-03 0.  1.
</event>
<event>
 8    1  0.1076043E+005  0.1043930E+01  0.7957747E-01            NaN
         13   -1    0    0    0    0  0.00000000000E+00  0.00000000000E+00  0.74505805969E-08  0.10566000000E+00  0.10566000000E+00 0.  1.
     999900   -1    0    0    0    0 -0.00000000000E+00 -0.00000000000E+00 -0.74505805969E-08  0.93827000000E+00  0.93827000000E+00 0.  1.
     999902    2    1    2    0    0 -0.47974447771E-03 -0.19038368677E-01  0.10351578441E-01  0.10222540960E+01  0.10220242620E+01 0.  0.
     999903    2    3    3    0    0  0.11285056752E+00  0.78783438032E-02 -0.63447753004E-01  0.13151585707E+00  0.21759696860E-01 0.  0.
         14    1    1    2    0    0  0.47974447771E-03  0.19038368677E-01 -0.10351578441E-01  0.21675903969E-01  0.00000000000E+00 0. -1.
     999901    1    3    3    0    0 -0.11333031200E+00 -0.26916712480E-01  0.73799331444E-01  0.89073823896E+00  0.88000000000E+00 0. -1.
        -11    1    4    4    0    0  0.53566989952E-01 -0.42450490629E-02 -0.38281884133E-01  0.65978834695E-01  0.51100000000E-03 0.  1.
         11    1    4    4    0    0  0.59283577573E-01  0.12123392866E-01 -0.25165868871E-01  0.65537022373E-01  0.51100000000E-03 0. -1.
</event>
<event>
 8    1  0.1076043E+005  0.1043930E+01  0.7957747E-01            NaN
         13   -1    0    0    0    0  0.00000000000E+00  0.00000000000E+00  0.74505805969E-08  0.10566000000E+00  0.10566000000E+00 0. -1.
     999900   -1    0    0    0    0 -0.00000000000E+00 -0.00000000000E+00 -0.74505805969E-08  0.93827000000E+00  0.93827000000E+00 0.  1.
     999902    2    1    2    0    0  0.28996664466E-01 -0.11151301295E-01  0.65799257256E-02  0.10121738432E+01  0.10116755584E+01 0.  0.
     999903    2    3    3    0    0 -0.86763526520E-01 -0.66643350960E-02  0.81622355648E-01  0.12141466086E+00  0.22516394753E-01 0.  0.
         14    1    1    2    0    0 -0.28996664466E-01  0.11151301295E-01 -0.65799257256E-02  0.31756156777E-01  0.00000000000E+00 0. -1.
     999901    1    3    3    0    0  0.11576019099E+00 -0.44869661990E-02 -0.75042429922E-01  0.89075918237E+00  0.88000000000E+00 0.  1.
        -11    1    4    4    0    0 -0.44527998632E-01 -0.39130788209E-02  0.57026834771E-01  0.72459477317E-01  0.51100000000E-03 0.  1.
         11    1    4    4    0    0 -0.42235527889E-01 -0.27512562751E-02  0.24595520877E-01  0.48955183539E-01  0.51100000000E-03 0. -1.
</event>
<event>
 8    1  0.1076043E+005  0.1043930E+01  0.7957747E-01            NaN
         13   -1    0    0    0    0  0.00000000000E+00  0.00000000000E+00  0.74505805969E-08  0.10566000000E+00  0.10566000000E+00 0. -1.
     999900   -1    0    0    0    0 -0.00000000000E+00 -0.00000000000E+00 -0.74505805969E-08  0.93827000000E+00  0.93827000000E+00 0. -1.
     999902    2    1    2    0    0  0.11184879255E-01  0.72665905584E-02 -0.20363703592E-01  0.10195869253E+01  0.10192962832E+01 0.  0.
     999903    2    3    3    0    0  0.83266859774E-01  0.97033408334E-01  0.20827681876E-01  0.13113286135E+00  0.20326896589E-01 0.  0.
         14    1    1    2    0    0 -0.11184879255E-01 -0.72665905584E-02  0.20363703592E-01  0.24343074709E-01  0.00000000000E+00 0. -1.
     999901    1    3    3    0    0 -0.72081980519E-01 -0.89766817776E-01 -0.41191385469E-01  0.88845406394E+00  0.88000000000E+00 0.  1.
        -11    1    4    4    0    0  0.69024881424E-01  0.70268459535E-01  0.10312699473E-01  0.99038899189E-01  0.51100000000E-03 0. -1.
         11    1    4    4    0    0  0.14241978350E-01  0.26764948799E-01  0.10514982403E-01  0.32093962165E-01  0.51100000000E-03 0.  1.
</event>
<event>
 8    1  0.1076043E+005  0.1043930E+01  0.7957747E-01            NaN
         13   -1    0    0    0    0  0.00000000000E+00  0.00000000000E+00  0.74505805969E-08  0.10566000000E+00  0.10566000000E+00 0.  1.
     999900   -1    0    0    0    0 -0.00000000000E+00 -0.00000000000E+00 -0.74505805969E-08  0.93827000000E+00  0.93827000000E+00 0. -1.
     999902    2    1    2    0    0  0.69777988218E-02  0.17495393065E-01  0.14467177151E-01  0.10201796806E+01  0.10199031832E+01 0.  0.
     999903    2    3    3    0    0 -0.55293161562E-01 -0.11362871635E+00  0.79311838502E-02  0.12826380805E+00  0.20491019566E-01 0.  0.
         14    1    1    2    0    0 -0.69777988218E-02 -0.17495393065E-01 -0.14467177151E-01  0.23750319358E-01  0.00000000000E+00 0. -1.
     999901    1    3    3    0    0  0.62270960384E-01  0.13112410941E+00  0.65359933011E-02  0.89191587259E+00  0.88000000000E+00 0. -1.
        -11    1    4    4    0    0 -0.13159120879E-01 -0.36015006268E-01  0.11007989865E-01  0.39895865709E-01  0.51100000000E-03 0.  1.
         11    1    4    4    0    0 -0.42134040684E-01 -0.77613710081E-01 -0.30768060151E-02  0.88367942339E-01  0.51100000000E-03 0. -1.
</event>
<event>
 8    1  0.1076043E+005  0.1043930E+01  0.7957747E-01            NaN
         13   -1    0    0    0    0  0.00000000000E+00  0.00000000000E+00  0.74505805969E-08  0.10566000000E+00  0.10566000000E+00 0. -1.
     999900   -1    0    0    0    0 -0.00000000000E+00 -0.00000000000E+00 -0.74505805969E-08  0.93827000000E+00  0.93827000000E+00 0.  1.
     999902    2    1    2    0    0  0.11391069771E-02  0.11922395160E-01 -0.19582484807E-01  0.10209753756E+01  0.10207172982E+01 0.  0.
     999903    2    3    3    0    0  0.24237712854E-01  0.45645482159E-01 -0.12224063736E+00  0.13406529644E+00  0.18967169589E-01 0.  0.
         14    1    1    2    0    0 -0.11391069771E-02 -0.11922395160E-01  0.19582484807E-01  0.22954624420E-01  0.00000000000E+00 0. -1.
     999901    1    3    3    0    0 -0.23098605876E-01 -0.33723087000E-01  0.10265815255E+00  0.88691007914E+00  0.88000000000E+00 0. -1.
        -11    1    4    4    0    0  0.94273425454E-02  0.21318210299E-01 -0.78314033219E-01  0.81711013932E-01  0.51100000000E-03 0.  1.
         11    1    4    4    0    0  0.14810370308E-01  0.24327271860E-01 -0.43926604141E-01  0.52354282510E-01  0.51100000000E-03 0. -1.
</event>
<event>
 8    1  0.1076043E+005  0.1043930E+01  0.7957747E-01            NaN
         13   -1    0    0    0    0  0.00000000000E+00  0.00000000000E+00  0.74505805969E-08  0.10566000000E+00  0.10566000000E+00 0. -1.
     999900   -1    0    0    0    0 -0.00000000000E+00 -0.00000000000E+00 -0.74505805969E-08  0.93827000000E+00  0.93827000000E+00 0.  1.
     999902    2    1    2    0    0  0.13729549271E-01 -0.38101539200E-02  0.23617046818E-01  0.10163477105E+01  0.10159733687E+01 0.  0.
     999903    2    3    3    0    0  0.73911274879E-01 -0.71889775366E-02 -0.96215400129E-01  0.12618307856E+00  0.33914718625E-01 0.  0.
         14    1    1    2    0    0 -0.13729549271E-01  0.38101539200E-02 -0.23617046818E-01  0.27582289543E-01  0.00000000000E+00 0.  1.
     999901    1    3    3    0    0 -0.60181725609E-01  0.33788236166E-02  0.11983244695E+00  0.89016463190E+00  0.88000000000E+00 0. -1.
        -11    1    4    4    0    0  0.26658749069E-01  0.13588371404E-01 -0.38196264630E-01  0.48523690008E-01  0.51100000000E-03 0. -1.
         11    1    4    4    0    0  0.47252525810E-01 -0.20777348941E-01 -0.58019135499E-01  0.77659388547E-01  0.51100000000E-03 0.  1.
</event>
<event>
 8    1  0.1286470E+005  0.1043930E+01  0.7957747E-01            NaN
         13   -1    0    0    0    0  0.00000000000E+00  0.00000000000E+00  0.74505805969E-08  0.10566000000E+00  0.10566000000E+00 0.  1.
     999900   -1    0    0    0    0 -0.00000000000E+00 -0.00000000000E+00 -0.74505805969E-08  0.93827000000E+00  0.93827000000E+00 0.  1.
     999902    2    1    2    0    0  0.14847046219E-01  0.14487425246E-01 -0.11903129602E-01  0.10200133789E+01  0.10197329495E+01 0.  0.
     999903    2    3    3    0    0 -0.10243626817E+00  0.10052246319E-01 -0.76662124914E-01  0.12986239499E+00  0.19822299119E-01 0.  0.
         14    1    1    2    0    0 -0.14847046219E-01 -0.14487425246E-01  0.11903129602E-01  0.23916621124E-01  0.00000000000E+00 0.  1.
     999901    1    3    3    0    0  0.11728331439E+00  0.44351789264E-02  0.64758995312E-01  0.89015098389E+00  0.88000000000E+00 0. -1.
        -11    1    4    4    0    0 -0.73270143208E-01  0.13645482995E-01 -0.47047488003E-01  0.88138756176E-01  0.51100000000E-03 0.  1.
         11    1    4    4    0    0 -0.29166124962E-01 -0.35932366761E-02 -0.29614636911E-01  0.41723638810E-01  0.51100000000E-03 0. -1.
</event>
<event>
 8    1  0.1076043E+005  0.1043930E+01  0.7957747E-01            NaN
         13   -1    0    0    0    0  0.00000000000E+00  0.00000000000E+00  0.74505805969E-08  0.10566000000E+00  0.10566000000E+00 0. -1.
     999900   -1    0    0    0    0 -0.00000000000E+00 -0.00000000000E+00 -0.74505805969E-08  0.93827000000E+00  0.93827000000E+00 0.  1.
     999902    2    1    2    0    0  0.13998610180E-01  0.36065540546E-02 -0.14904331055E-01  0.10231668740E+01  0.10229561792E+01 0.  0.
     999903    2    3    3    0    0  0.57617083963E-01  0.59941112279E-01  0.10145627478E+00  0.13265244718E+00  0.19764380665E-01 0.  0.
         14    1    1    2    0    0 -0.13998610180E-01 -0.36065540546E-02  0.14904331055E-01  0.20763126049E-01  0.00000000000E+00 0. -1.
     999901    1    3    3    0    0 -0.43618473783E-01 -0.56334558225E-01 -0.11636060584E+00  0.89051442678E+00  0.88000000000E+00 0.  1.
        -11    1    4    4    0    0  0.45947186139E-01  0.42650531065E-01  0.87130867172E-01  0.10734179451E+00  0.51100000000E-03 0. -1.
         11    1    4    4    0    0  0.11669897824E-01  0.17290581214E-01  0.14325407611E-01  0.25310652662E-01  0.51100000000E-03 0.  1.
</event>
<event>
 8    1  0.1076043E+005  0.1043930E+01  0.7957747E-01            NaN
         13   -1    0    0    0    0  0.00000000000E+00  0.00000000000E+00  0.74505805969E-08  0.10566000000E+00  0.10566000000E+00 0.  1.
     999900   -1    0    0    0    0 -0.00000000000E+00 -0.00000000000E+00 -0.74505805969E-08  0.93827000000E+00  0.93827000000E+00 0.  1.
     999902    2    1    2    0    0 -0.20148230990E-01  0.10407059803E-01 -0.69674648934E-02  0.10202065164E+01  0.10199306508E+01 0.  0.
     999903    2    3    3    0    0 -0.10132830115E+00  0.83157947050E-01  0.12744546353E-01  0.13326150191E+00  0.20335576174E-01 0.  0.
         14    1    1    2    0    0  0.20148230990E-01 -0.10407059803E-01  0.69674648934E-02  0.23723483573E-01  0.00000000000E+00 0.  1.
     999901    1    3    3    0    0  0.81180070161E-01 -0.72750887247E-01 -0.19712011246E-01  0.88694501452E+00  0.88000000000E+00 0.  1.
        -11    1    4    4    0    0 -0.80050676749E-01  0.61602960793E-01  0.17214167869E-02  0.10102603636E+00  0.51100000000E-03 0.  1.
         11    1    4    4    0    0 -0.21277624403E-01  0.21554986257E-01  0.11023129566E-01  0.32235465550E-01  0.51100000000E-03 0. -1.
</event>
<event>
 8    1  0.1076043E+005  0.1043930E+01  0.7957747E-01            NaN
         13   -1    0    0    0    0  0.00000000000E+00  0.00000000000E+00  0.74505805969E-08  0.10566000000E+00  0.10566000000E+00 0.  1.
     999900   -1    0    0    0    0 -0.00000000000E+00 -0.00000000000E+00 -0.74505805969E-08  0.93827000000E+00  0.93827000000E+00 0.  1.
     999902    2    1    2    0    0 -0.15927015253E-01 -0.11262907410E-02  0.16780678111E-01  0.10207668935E+01  0.10205040526E+01 0.  0.
     999903    2    3    3    0    0  0.88358112152E-01 -0.91099538676E-01  0.22456065741E-01  0.13003529352E+00  0.17280646485E-01 0.  0.
         14    1    1    2    0    0  0.15927015253E-01  0.11262907410E-02 -0.16780678111E-01  0.23163106518E-01  0.00000000000E+00 0. -1.
     999901    1    3    3    0    0 -0.10428512740E+00  0.89973247935E-01 -0.56753876306E-02  0.89073159996E+00  0.88000000000E+00 0.  1.
        -11    1    4    4    0    0  0.10050718225E-01 -0.18353505531E-01  0.60609900087E-03  0.20940309910E-01  0.51100000000E-03 0. -1.
         11    1    4    4    0    0  0.78307393927E-01 -0.72746033145E-01  0.21849966741E-01  0.10909498361E+00  0.51100000000E-03 0.  1.
</event>
<event>
 8    1  0.1076043E+005  0.1043930E+01  0.7957747E-01            NaN
         13   -1    0    0    0    0  0.00000000000E+00  0.00000000000E+00  0.74505805969E-08  0.10566000000E+00  0.10566000000E+00 0.  1.
     999900   -1    0    0    0    0 -0.00000000000E+00 -0.00000000000E+00 -0.74505805969E-08  0.93827000000E+00  0.93827000000E+00 0.  1.
     999902    2    1    2    0    0 -0.16596400665E-01  0.29978454927E-02 -0.15594802622E-01  0.10209599007E+01  0.10207014712E+01 0.  0.
     999903    2    3    3    0    0 -0.12650616446E+00  0.14928578377E-01  0.32180218536E-01  0.13275668567E+00  0.19028899761E-01 0.  0.
         14    1    1    2    0    0  0.16596400665E-01 -0.29978454927E-02  0.15594802622E-01  0.22970099291E-01  0.00000000000E+00 0.  1.
     999901    1    3    3    0    0  0.10990976379E+00 -0.11930732884E-01 -0.47775021158E-01  0.88820321504E+00  0.88000000000E+00 0. -1.
        -11    1    4    4    0    0 -0.10520046464E+00  0.53314118733E-02  0.28211074095E-01  0.10904901437E+00  0.51100000000E-03 0.  1.
         11    1    4    4    0    0 -0.21305699822E-01  0.95971665036E-02  0.39691444402E-02  0.23707671298E-01  0.51100000000E-03 0. -1.
</event>
<event>
 8    1  0.1076043E+005  0.1043930E+01  0.7957747E-01            NaN
         13   -1    0    0    0    0  0.00000000000E+00  0.00000000000E+00  0.74505805969E-08  0.10566000000E+00  0.10566000000E+00 0. -1.
     999900   -1    0    0    0    0 -0.00000000000E+00 -0.00000000000E+00 -0.74505805969E-08  0.93827000000E+00  0.93827000000E+00 0.  1.
     999902    2    1    2    0    0 -0.21703829265E-01  0.40932483124E-02  0.25560344724E-02  0.10216961475E+01  0.10214541955E+01 0.  0.
     999903    2    3    3    0    0 -0.18029949959E-01 -0.60679334693E-01  0.11423531379E+00  0.13226866513E+00  0.20933993982E-01 0.  0.
         14    1    1    2    0    0  0.21703829265E-01 -0.40932483124E-02 -0.25560344724E-02  0.22233852539E-01  0.00000000000E+00 0. -1.
     999901    1    3    3    0    0 -0.36738793059E-02  0.64772583006E-01 -0.11167927932E+00  0.88942748233E+00  0.88000000000E+00 0.  1.
        -11    1    4    4    0    0 -0.40085671466E-02 -0.39457732937E-01  0.55084001140E-01  0.67878491451E-01  0.51100000000E-03 0. -1.
         11    1    4    4    0    0 -0.14021382812E-01 -0.21221601756E-01  0.59151312650E-01  0.64390173678E-01  0.51100000000E-03 0.  1.
</event>
<event>
 8    1  0.1076043E+005  0.1043930E+01  0.7957747E-01            NaN
         13   -1    0    0    0    0  0.00000000000E+00  0.00000000000E+00  0.74505805969E-08  0.10566000000E+00  0.10566000000E+00 0.  1.
     999900   -1    0    0    0    0 -0.00000000000E+00 -0.00000000000E+00 -0.74505805969E-08  0.93827000000E+00  0.93827000000E+00 0.  1.
     999902    2    1    2    0    0 -0.21261193223E-01  0.50236584372E-02  0.64325113166E-02  0.10211560525E+01  0.10209020673E+01 0.  0.
     999903    2    3    3    0    0 -0.86713631369E-01  0.78529663293E-01  0.61878226056E-01  0.13393489539E+00  0.20578616570E-01 0.  0.
         14    1    1    2    0    0  0.21261193223E-01 -0.50236584372E-02 -0.64325113166E-02  0.22773947466E-01  0.00000000000E+00 0. -1.
     999901    1    3    3    0    0  0.65452438146E-01 -0.73506004856E-01 -0.55445714739E-01  0.88722115715E+00  0.88000000000E+00 0.  1.
        -11    1    4    4    0    0 -0.15554439526E-01  0.20461799011E-01  0.59067215961E-02  0.26377571699E-01  0.51100000000E-03 0.  1.
         11    1    4    4    0    0 -0.71159191843E-01  0.58067864283E-01  0.55971504460E-01  0.10755732369E+00  0.51100000000E-03 0. -1.
</event>
<event>
 8    1  0.1076043E+005  0.1043930E+01  0.7957747E-01            NaN
         13   -1    0    0    0    0  0.00000000000E+00  0.00000000000E+00  0.74505805969E-08  0.10566000000E+00  0.10566000000E+00 0.  1.
     999900   -1    0    0    0    0 -0.00000000000E+00 -0.00000000000E+00 -0.74505805969E-08  0.93827000000E+00  0.93827000000E+00 0. -1.
     999902    2    1    2    0    0  0.60770460243E-02 -0.17572124238E-01  0.14390917406E-01  0.10204181191E+01  0.10201472096E+01 0.  0.
     999903    2    3    3    0    0  0.85240945889E-01 -0.99560940866E-01 -0.66064476824E-02  0.13282024934E+00  0.20473731529E-01 0.  0.
         14    1    1    2    0    0 -0.60770460243E-02  0.17572124238E-01 -0.14390917406E-01  0.23511880878E-01  0.00000000000E+00 0.  1.
     999901    1    3    3    0    0 -0.79163899865E-01  0.81988816628E-01  0.20997365089E-01  0.88759786978E+00  0.88000000000E+00 0.  1.
        -11    1    4    4    0    0  0.75579590225E-01 -0.94068058865E-01 -0.17551377348E-02  0.12068312138E+00  0.51100000000E-03 0. -1.
         11    1    4    4    0    0  0.96613556645E-02 -0.54928820006E-02 -0.48513099475E-02  0.12137127962E-01  0.51100000000E-03 0.  1.
</event>
<event>
 8    1  0.1076043E+005  0.1043930E+01  0.7957747E-01            NaN
         13   -1    0    0    0    0  0.00000000000E+00  0.00000000000E+00  0.74505805969E-08  0.10566000000E+00  0.10566000000E+00 0.  1.
     999900   -1    0    0    0    0 -0.00000000000E+00 -0.00000000000E+00 -0.74505805969E-08  0.93827000000E+00  0.93827000000E+00 0. -1.
     999902    2    1    2    0    0  0.13870653259E-01 -0.93745417673E-02 -0.17557253178E-01  0.10196702763E+01  0.10193816450E+01 0.  0.
     999903    2    3    3    0    0 -0.13109498433E-01  0.11550301945E+00  0.48374664380E-01  0.12800366167E+00  0.23065619374E-01 0.  0.
         14    1    1    2    0    0 -0.13870653259E-01  0.93745417673E-02  0.17557253178E-01  0.24259723707E-01  0.00000000000E+00 0.  1.
     999901    1    3    3    0    0  0.26980151693E-01 -0.12487756121E+00 -0.65931917558E-01  0.89166661462E+00  0.88000000000E+00 0. -1.
        -11    1    4    4    0    0 -0.18793966357E-01  0.99701513759E-01  0.38512291938E-01  0.10852217639E+00  0.51100000000E-03 0.  1.
         11    1    4    4    0    0  0.56844679237E-02  0.15801505686E-01  0.98623724423E-02  0.19481485280E-01  0.51100000000E-03 0. -1.
</event>
<event>
 8    1  0.1076043E+005  0.1043930E+01  0.7957747E-01            NaN
         13   -1    0    0    0    0  0.00000000000E+00  0.00000000000E+00  0.74505805969E-08  0.10566000000E+00  0.10566000000E+00 0. -1.
     999900   -1    0    0    0    0 -0.00000000000E+00 -0.00000000000E+00 -0.74505805969E-08  0.93827000000E+00  0.93827000000E+00 0. -1.
     999902    2    1    2    0    0 -0.49930294581E-02  0.11400591121E-01 -0.21185947420E-01  0.10193587121E+01  0.10190625279E+01 0.  0.
     999903    2    3    3    0    0 -0.39770301192E-01 -0.26012134948E-01 -0.12197853096E+00  0.13213364730E+00  0.17950785892E-01 0.  0.
         14    1    1    2    0    0  0.49930294581E-02 -0.11400591121E-01  0.21185947420E-01  0.24571287902E-01  0.00000000000E+00 0. -1.
     999901    1    3    3    0    0  0.34777271733E-01  0.37412726069E-01  0.10079258354E+00  0.88722506479E+00  0.88000000000E+00 0.  1.
        -11    1    4    4    0    0 -0.30412219665E-01 -0.10130937159E-01 -0.70344693019E-01  0.77305730380E-01  0.51100000000E-03 0. -1.
         11    1    4    4    0    0 -0.93580815267E-02 -0.15881197788E-01 -0.51633837938E-01  0.54827916925E-01  0.51100000000E-03 0.  1.
</event>
<event>
 8    1  0.1076043E+005  0.1043930E+01  0.7957747E-01            NaN
         13   -1    0    0    0    0  0.00000000000E+00  0.00000000000E+00  0.74505805969E-08  0.10566000000E+00  0.10566000000E+00 0. -1.
     999900   -1    0    0    0    0 -0.00000000000E+00 -0.00000000000E+00 -0.74505805969E-08  0.93827000000E+00  0.93827000000E+00 0. -1.
     999902    2    1    2    0    0  0.50461157044E-02 -0.61172667411E-02  0.22922641261E-01  0.10196744497E+01  0.10193859189E+01 0.  0.
     999903    2    3    3    0    0 -0.33592338964E-01 -0.48728087711E-01 -0.11183123614E+00  0.12756054461E+00  0.16204795504E-01 0.  0.
         14    1    1    2    0    0 -0.50461157044E-02  0.61172667411E-02 -0.22922641261E-01  0.24255550261E-01  0.00000000000E+00 0.  1.
     999901    1    3    3    0    0  0.38638454669E-01  0.42610820969E-01  0.13475387740E+00  0.89211390512E+00  0.88000000000E+00 0.  1.
        -11    1    4    4    0    0 -0.16882603808E-01 -0.36922468620E-01 -0.68273272166E-01  0.79434198010E-01  0.51100000000E-03 0. -1.
         11    1    4    4    0    0 -0.16709735157E-01 -0.11805619090E-01 -0.43557963971E-01  0.48126346604E-01  0.51100000000E-03 0.  1.
</event>
<event>
 8    1  0.1076043E+005  0.1043930E+01  0.7957747E-01            NaN
         13   -1    0    0    0    0  0.00000000000E+00  0.00000000000E+00  0.74505805969E-08  0.10566000000E+00  0.10566000000E+00 0.  1.
     999900   -1    0    0    0    0 -0.00000000000E+00 -0.00000000000E+00 -0.74505805969E-08  0.93827000000E+00  0.93827000000E+00 0.  1.
     999902    2    1    2    0    0  0.15548792312E-01  0.12957770029E-01  0.45447764055E-02  0.10231857541E+01  0.10229754462E+01 0.  0.
     999903    2    3    3    0    0  0.86601243516E-01 -0.67022829698E-01 -0.73221094919E-01  0.13330212241E+00  0.20403235513E-01 0.  0.
         14    1    1    2    0    0 -0.15548792312E-01 -0.12957770029E-01 -0.45447764055E-02  0.20744245927E-01  0.00000000000E+00 0.  1.
     999901    1    3    3    0    0 -0.71052451203E-01  0.79980599727E-01  0.77765871325E-01  0.88988363166E+00  0.88000000000E+00 0. -1.
        -11    1    4    4    0    0  0.65308692551E-02  0.58725690300E-03 -0.37918716073E-02  0.75918729694E-02  0.51100000000E-03 0. -1.
         11    1    4    4    0    0  0.80070374261E-01 -0.67610086601E-01 -0.69429223312E-01  0.12571024944E+00  0.51100000000E-03 0.  1.
</event>
<event>
 7    1  0.1266710E+005  0.1043930E+01  0.7957747E-01            NaN
         13   -1    0    0    0    0  0.00000000000E+00  0.00000000000E+00  0.74505805969E-08  0.10566000000E+00  0.10566000000E+00 0. -1.
     999900   -1    0    0    0    0 -0.00000000000E+00 -0.00000000000E+00 -0.74505805969E-08  0.93827000000E+00  0.93827000000E+00 0.  1.
     999903    2    1    2    0    0 -0.55621019293E-01 -0.65633982123E-01 -0.55899656387E-02  0.88500743353E-01  0.19990409243E-01 0.  0.
         14    1    1    2    0    0 -0.59287252938E-01  0.11103590252E-02 -0.26697790730E-01  0.65030633458E-01  0.00000000000E+00 0. -1.
     999901    1    1    2    0    0  0.11490827223E+00  0.64523623098E-01  0.32287756369E-01  0.89039862319E+00  0.88000000000E+00 0. -1.
        -11    1    3    3    0    0 -0.29206616876E-01 -0.19511010093E-01 -0.88097535798E-03  0.35138913227E-01  0.51100000000E-03 0. -1.
         11    1    3    3    0    0 -0.26414402417E-01 -0.46122972030E-01 -0.47089902807E-02  0.53361830126E-01  0.51100000000E-03 0.  1.
</event>
<event>
 8    1  0.1076043E+005  0.1043930E+01  0.7957747E-01            NaN
         13   -1    0    0    0    0  0.00000000000E+00  0.00000000000E+00  0.74505805969E-08  0.10566000000E+00  0.10566000000E+00 0. -1.
     999900   -1    0    0    0    0 -0.00000000000E+00 -0.00000000000E+00 -0.74505805969E-08  0.93827000000E+00  0.93827000000E+00 0. -1.
     999902    2    1    2    0    0  0.13500410498E-01  0.95918076726E-02  0.19584106182E-01  0.10182823671E+01  0.10179593204E+01 0.  0.
     999903    2    3    3    0    0 -0.11607088242E+00  0.30454427217E-01  0.40164667189E-01  0.12831184606E+00  0.21232227069E-01 0.  0.
         14    1    1    2    0    0 -0.13500410498E-01 -0.95918076726E-02 -0.19584106182E-01  0.25647632893E-01  0.00000000000E+00 0.  1.
     999901    1    3    3    0    0  0.12957129292E+00 -0.20862619545E-01 -0.20580561006E-01  0.88997052105E+00  0.88000000000E+00 0.  1.
        -11    1    4    4    0    0 -0.76891895139E-01  0.10766953873E-01  0.20837992803E-01  0.80391379505E-01  0.51100000000E-03 0.  1.
         11    1    4    4    0    0 -0.39178987280E-01  0.19687473345E-01  0.19326674385E-01  0.47920466554E-01  0.51100000000E-03 0. -1.
</event>
<event>
 8    1  0.1076043E+005  0.1043930E+01  0.7957747E-01            NaN
         13   -1    0    0    0    0  0.00000000000E+00  0.00000000000E+00  0.74505805969E-08  0.10566000000E+00  0.10566000000E+00 0.  1.
     999900   -1    0    0    0    0 -0.00000000000E+00 -0.00000000000E+00 -0.74505805969E-08  0.93827000000E+00  0.93827000000E+00 0. -1.
     999902    2    1    2    0    0  0.20379431942E-01 -0.27173587095E-02 -0.10981768550E-01  0.10206211063E+01  0.10203549079E+01 0.  0.
     999903    2    3    3    0    0  0.11902275723E+00 -0.36669409430E-01  0.41691673605E-01  0.13289494421E+00  0.20293058412E-01 0.  0.
         14    1    1    2    0    0 -0.20379431942E-01  0.27173587095E-02  0.10981768550E-01  0.23308893691E-01  0.00000000000E+00 0. -1.
     999901    1    3    3    0    0 -0.98643325293E-01  0.33952050721E-01 -0.52673442156E-01  0.88772616210E+00  0.88000000000E+00 0. -1.
        -11    1    4    4    0    0  0.40079570213E-01 -0.11448172389E-01  0.40834492383E-02  0.41885179696E-01  0.51100000000E-03 0. -1.
         11    1    4    4    0    0  0.78943187022E-01 -0.25221237041E-01  0.37608224367E-01  0.91009764510E-01  0.51100000000E-03 0.  1.
</event>
<event>
 8    1  0.1076043E+005  0.1043930E+01  0.7957747E-01            NaN
         13   -1    0    0    0    0  0.00000000000E+00  0.00000000000E+00  0.74505805969E-08  0.10566000000E+00  0.10566000000E+00 0.  1.
     999900   -1    0    0    0    0 -0.00000000000E+00 -0.00000000000E+00 -0.74505805969E-08  0.93827000000E+00  0.93827000000E+00 0.  1.
     999902    2    1    2    0    0 -0.72051963459E-02  0.14702909413E-01 -0.17445467927E-01  0.10200043913E+01  0.10197237486E+01 0.  0.
     999903    2    3    3    0    0 -0.27351770094E-01  0.52934899203E-01 -0.11766193977E+00  0.13326265287E+00  0.19088732217E-01 0.  0.
         14    1    1    2    0    0  0.72051963459E-02 -0.14702909413E-01  0.17445467927E-01  0.23925608682E-01  0.00000000000E+00 0.  1.
     999901    1    3    3    0    0  0.20146573748E-01 -0.38231989790E-01  0.10021647185E+00  0.88674173845E+00  0.88000000000E+00 0. -1.
        -11    1    4    4    0    0 -0.21880277915E-01  0.45509397394E-01 -0.80978181703E-01  0.95433635819E-01  0.51100000000E-03 0. -1.
         11    1    4    4    0    0 -0.54714921785E-02  0.74255018086E-02 -0.36683758071E-01  0.37829017050E-01  0.51100000000E-03 0.  1.
</event>
<event>
 8    1  0.1076043E+005  0.1043930E+01  0.7957747E-01            NaN
         13   -1    0    0    0    0  0.00000000000E+00  0.00000000000E+00  0.74505805969E-08  0.10566000000E+00  0.10566000000E+00 0.  1.
     999900   -1    0    0    0    0 -0.00000000000E+00 -0.00000000000E+00 -0.74505805969E-08  0.93827000000E+00  0.93827000000E+00 0.  1.
     999902    2    1    2    0    0  0.10904555250E-01  0.11582115521E-01 -0.15222174625E-01  0.10219125223E+01  0.10216753075E+01 0.  0.
     999903    2    3    3    0    0 -0.31730618672E-01  0.70231883817E-01 -0.10794798259E+00  0.13407490827E+00  0.19595009972E-01 0.  0.
         14    1    1    2    0    0 -0.10904555250E-01 -0.11582115521E-01  0.15222174625E-01  0.22017477727E-01  0.00000000000E+00 0. -1.
     999901    1    3    3    0    0  0.42635173922E-01 -0.58649768296E-01  0.92725807969E-01  0.88783761400E+00  0.88000000000E+00 0. -1.
        -11    1    4    4    0    0 -0.30971481951E-03  0.17165563314E-01 -0.31224266945E-01  0.35636616765E-01  0.51100000000E-03 0. -1.
         11    1    4    4    0    0 -0.31420903853E-01  0.53066320502E-01 -0.76723715648E-01  0.98438291505E-01  0.51100000000E-03 0.  1.
</event>
<event>
 8    1  0.1076043E+005  0.1043930E+01  0.7957747E-01            NaN
         13   -1    0    0    0    0  0.00000000000E+00  0.00000000000E+00  0.74505805969E-08  0.10566000000E+00  0.10566000000E+00 0.  1.
     999900   -1    0    0    0    0 -0.00000000000E+00 -0.00000000000E+00 -0.74505805969E-08  0.93827000000E+00  0.93827000000E+00 0. -1.
     999902    2    1    2    0    0  0.68050351602E-02 -0.20933620545E-01 -0.52588538276E-02  0.10212985945E+01  0.10210478140E+01 0.  0.
     999903    2    3    3    0    0 -0.11522203796E+00  0.81570388369E-02 -0.57766005658E-01  0.13085270952E+00  0.21044354660E-01 0.  0.
         14    1    1    2    0    0 -0.68050351602E-02  0.20933620545E-01  0.52588538276E-02  0.22631405529E-01  0.00000000000E+00 0.  1.
     999901    1    3    3    0    0  0.12202707312E+00 -0.29090659382E-01  0.52507151831E-01  0.89044588495E+00  0.88000000000E+00 0. -1.
        -11    1    4    4    0    0 -0.26134140233E-01  0.92327700754E-02 -0.19465349070E-01  0.33873267696E-01  0.51100000000E-03 0.  1.
         11    1    4    4    0    0 -0.89087897731E-01 -0.10757312385E-02 -0.38300656588E-01  0.96979441821E-01  0.51100000000E-03 0. -1.
</event>
<event>
 8    1  0.1076043E+005  0.1043930E+01  0.7957747E-01            NaN
         13   -1    0    0    0    0  0.00000000000E+00  0.00000000000E+00  0.74505805969E-08  0.10566000000E+00  0.10566000000E+00 0. -1.
     999900   -1    0    0    0    0 -0.00000000000E+00 -0.00000000000E+00 -0.74505805969E-08  0.93827000000E+00  0.93827000000E+00 0.  1.
     999902    2    1    2    0    0 -0.90691406626E-02 -0.22279137483E-01 -0.20392531688E-02  0.10197894152E+01  0.10195036457E+01 0.  0.
     999903    2    3    3    0    0  0.55584203243E-01 -0.10909046679E+00 -0.44814669121E-01  0.13212619194E+00  0.21415938768E-01 0.  0.
         14    1    1    2    0    0  0.90691406626E-02  0.22279137483E-01  0.20392531688E-02  0.24140584766E-01  0.00000000000E+00 0. -1.
     999901    1    3    3    0    0 -0.64653343905E-01  0.86811329311E-01  0.42775415952E-01  0.88766322329E+00  0.88000000000E+00 0. -1.
        -11    1    4    4    0    0  0.44989435509E-01 -0.80232792333E-01 -0.24225168835E-01  0.95123447157E-01  0.51100000000E-03 0. -1.
         11    1    4    4    0    0  0.10594767734E-01 -0.28857674461E-01 -0.20589500286E-01  0.37002744785E-01  0.51100000000E-03 0.  1.
</event>
<event>
 8    1  0.1076043E+005  0.1043930E+01  0.7957747E-01            NaN
         13   -1    0    0    0    0  0.00000000000E+00  0.00000000000E+00  0.74505805969E-08  0.10566000000E+00  0.10566000000E+00 0. -1.
     999900   -1    0    0    0    0 -0.00000000000E+00 -0.00000000000E+00 -0.74505805969E-08  0.93827000000E+00  0.93827000000E+00 0.  1.
     999902    2    1    2    0    0  0.57972599158E-02  0.16212248316E-01 -0.16616186585E-01  0.10200021318E+01  0.10197214355E+01 0.  0.
     999903    2    3    3    0    0  0.12263091333E+00  0.39197499428E-01  0.16590169709E-01  0.13136211111E+00  0.20149085306E-01 0.  0.
         14    1    1    2    0    0 -0.57972599158E-02 -0.16212248316E-01  0.16616186585E-01  0.23927868158E-01  0.00000000000E+00 0. -1.
     999901    1    3    3    0    0 -0.11683365342E+00 -0.22985251112E-01 -0.33206356294E-01  0.88864002073E+00  0.88000000000E+00 0.  1.
        -11    1    4    4    0    0  0.24705278079E-01  0.16722207053E-01  0.39163203237E-02  0.30092883869E-01  0.51100000000E-03 0. -1.
         11    1    4    4    0    0  0.97925635256E-01  0.22475292375E-01  0.12673849386E-01  0.10126922725E+00  0.51100000000E-03 0.  1.
</event>
<event>
 8    1  0.1076043E+005  0.1043930E+01  0.7957747E-01            NaN
         13   -1    0    0    0    0  0.00000000000E+00  0.00000000000E+00  0.74505805969E-08  0.10566000000E+00  0.10566000000E+00 0.  1.
     999900   -1    0    0    0    0 -0.00000000000E+00 -0.00000000000E+00 -0.74505805969E-08  0.93827000000E+00  0.93827000000E+00 0.  1.
     999902    2    1    2    0    0  0.21949471177E-01  0.27425079293E-02  0.79253871458E-02  0.10204329279E+01  0.10201623635E+01 0.  0.
     999903    2    3    3    0    0  0.75597740976E-01  0.10330527506E+00  0.31652727328E-01  0.13276520087E+00  0.15417688457E-01 0.  0.
         14    1    1    2    0    0 -0.21949471177E-01 -0.27425079293E-02 -0.79253871458E-02  0.23497072075E-01  0.00000000000E+00 0. -1.
     999901    1    3    3    0    0 -0.53648269800E-01 -0.10056276714E+00 -0.23727340182E-01  0.88766772706E+00  0.88000000000E+00 0.  1.
        -11    1    4    4    0    0  0.29369956440E-01  0.51167269210E-01  0.18675058819E-01  0.61884591964E-01  0.51100000000E-03 0. -1.
         11    1    4    4    0    0  0.46227784537E-01  0.52138005855E-01  0.12977668509E-01  0.70880608904E-01  0.51100000000E-03 0.  1.
</event>
<event>
 8    1  0.1076043E+005  0.1043930E+01  0.7957747E-01            NaN
         13   -1    0    0    0    0  0.00000000000E+00  0.00000000000E+00  0.74505805969E-08  0.10566000000E+00  0.10566000000E+00 0. -1.
     999900   -1    0    0    0    0 -0.00000000000E+00 -0.00000000000E+00 -0.74505805969E-08  0.93827000000E+00  0.93827000000E+00 0.  1.
     999902    2    1    2    0    0 -0.84788901780E-02  0.21578397835E-01  0.14573622383E-01  0.10165455281E+01  0.10161766094E+01 0.  0.
     999903    2    3    3    0    0 -0.12160835269E+00 -0.32331680666E-01 -0.15396794743E-02  0.12752122565E+00  0.20624339002E-01 0.  0.
         14    1    1    2    0    0  0.84788901780E-02 -0.21578397835E-01 -0.14573622383E-01  0.27384471898E-01  0.00000000000E+00 0.  1.
     999901    1    3    3    0    0  0.11312946251E+00  0.53910078501E-01  0.16113301857E-01  0.88902430245E+00  0.88000000000E+00 0. -1.
        -11    1    4    4    0    0 -0.29745009226E-01  0.10001019723E-02 -0.13362549837E-02  0.29796182242E-01  0.51100000000E-03 0.  1.
         11    1    4    4    0    0 -0.91863343466E-01 -0.33331782638E-01 -0.20342449052E-03  0.97725043409E-01  0.51100000000E-03 0. -1.
</event>
<event>
 8    1  0.1076043E+005  0.1043930E+01  0.7957747E-01            NaN
         13   -1    0    0    0    0  0.00000000000E+00  0.00000000000E+00  0.74505805969E-08  0.10566000000E+00  0.10566000000E+00 0.  1.
     999900   -1    0    0    0    0 -0.00000000000E+00 -0.00000000000E+00 -0.74505805969E-08  0.93827000000E+00  0.93827000000E+00 0.  1.
     999902    2    1    2    0    0  0.52885494908E-02  0.13012357025E-01  0.20553085004E-01  0.10190358341E+01  0.10187317173E+01 0.  0.
     999903    2    3    3    0    0 -0.23846625502E-01 -0.12205187107E+00 -0.18989750528E-01  0.12737735693E+00  0.19976477486E-01 0.  0.
         14    1    1    2    0    0 -0.52885494908E-02 -0.13012357025E-01 -0.20553085004E-01  0.24894165867E-01  0.00000000000E+00 0. -1.
     999901    1    3    3    0    0  0.29135174992E-01  0.13506422810E+00  0.39542835532E-01  0.89165847721E+00  0.88000000000E+00 0.  1.
        -11    1    4    4    0    0 -0.61321916921E-02 -0.80416061027E-01 -0.10401434734E-01  0.81319109756E-01  0.51100000000E-03 0.  1.
         11    1    4    4    0    0 -0.17714433809E-01 -0.41635810043E-01 -0.85883157940E-02  0.46058247170E-01  0.51100000000E-03 0. -1.
</event>
<event>
 8    1  0.1076043E+005  0.1043930E+01  0.7957747E-01            NaN
         13   -1    0    0    0    0  0.00000000000E+00  0.00000000000E+00  0.74505805969E-08  0.10566000000E+00  0.10566000000E+00 0.  1.
     999900   -1    0    0    0    0 -0.00000000000E+00 -0.00000000000E+00 -0.74505805969E-08  0.93827000000E+00  0.93827000000E+00 0.  1.
     999902    2    1    2    0    0  0.22792784261E-02  0.18256564859E-01 -0.14214379278E-01  0.10206803581E+01  0.10204155269E+01 0.  0.
     999903    2    3    3    0    0  0.40498855596E-02  0.90920570407E-01 -0.96170744041E-01  0.13388836530E+00  0.19857760643E-01 0.  0.
         14    1    1    2    0    0 -0.22792784261E-02 -0.18256564859E-01  0.14214379278E-01  0.23249641908E-01  0.00000000000E+00 0.  1.
     999901    1    3    3    0    0 -0.17706071335E-02 -0.72664005548E-01  0.81956364763E-01  0.88679199279E+00  0.88000000000E+00 0.  1.
        -11    1    4    4    0    0 -0.74134325167E-02  0.20589602325E-01 -0.22277012965E-01  0.31231668755E-01  0.51100000000E-03 0. -1.
         11    1    4    4    0    0  0.11463318076E-01  0.70330968082E-01 -0.73893731076E-01  0.10265669655E+00  0.51100000000E-03 0.  1.
</event>
<event>
 8    1  0.1076043E+005  0.1043930E+01  0.7957747E-01            NaN
         13   -1    0    0    0    0  0.00000000000E+00  0.00000000000E+00  0.74505805969E-08  0.10566000000E+00  0.10566000000E+00 0.  1.
     999900   -1    0    0    0    0 -0.00000000000E+00 -0.00000000000E+00 -0.74505805969E-08  0.93827000000E+00  0.93827000000E+00 0.  1.
     999902    2    1    2    0    0 -0.84777885473E-02  0.13170496084E-01 -0.16841472027E-01  0.10209306512E+01  0.10206715556E+01 0.  0.
     999903    2    3    3    0    0 -0.51473724214E-01 -0.74372398743E-01  0.89781012042E-01  0.12914549599E+00  0.20907678789E-01 0.  0.
         14    1    1    2    0    0  0.84777885473E-02 -0.13170496084E-01  0.16841472027E-01  0.22999348812E-01  0.00000000000E+00 0. -1.
     999901    1    3    3    0    0  0.42995935667E-01  0.87542894827E-01 -0.10662248407E+00  0.89178515520E+00  0.88000000000E+00 0.  1.
        -11    1    4    4    0    0 -0.34602896512E-01 -0.54382332475E-01  0.50209202302E-01  0.81706937584E-01  0.51100000000E-03 0. -1.
         11    1    4    4    0    0 -0.16870827702E-01 -0.19990066268E-01  0.39571809740E-01  0.47438558408E-01  0.51100000000E-03 0.  1.
</event>
<event>
 8    1  0.1076043E+005  0.1043930E+01  0.7957747E-01            NaN
         13   -1    0    0    0    0  0.00000000000E+00  0.00000000000E+00  0.74505805969E-08  0.10566000000E+00  0.10566000000E+00 0.  1.
     999900   -1    0    0    0    0 -0.00000000000E+00 -0.00000000000E+00 -0.74505805969E-08  0.93827000000E+00  0.93827000000E+00 0. -1.
     999902    2    1    2    0    0  0.19312830582E-02 -0.22357536090E-01  0.99675623040E-02  0.10193751314E+01  0.10190793477E+01 0.  0.
     999903    2    3    3    0    0 -0.50723734272E-01  0.70420937718E-01  0.93367204829E-01  0.12901795788E+00  0.19904593166E-01 0.  0.
         14    1    1    2    0    0 -0.19312830582E-02  0.22357536090E-01 -0.99675623040E-02  0.24554868612E-01  0.00000000000E+00 0. -1.
     999901    1    3    3    0    0  0.52655017330E-01 -0.92778473808E-01 -0.83399642525E-01  0.89035717351E+00  0.88000000000E+00 0. -1.
        -11    1    4    4    0    0 -0.21931237017E-01  0.33768244395E-01  0.29351286403E-01  0.49830037338E-01  0.51100000000E-03 0.  1.
         11    1    4    4    0    0 -0.28792497255E-01  0.36652693322E-01  0.64015918427E-01  0.79187920537E-01  0.51100000000E-03 0. -1.
</event>
<event>
 7    1  0.1076043E+005  0.1043930E+01  0.7957747E-01            NaN
         13   -1    0    0    0    0  0.00000000000E+00  0.00000000000E+00  0.74505805969E-08  0.10566000000E+00  0.10566000000E+00 0. -1.
     999900   -1    0    0    0    0 -0.00000000000E+00 -0.00000000000E+00 -0.74505805969E-08  0.93827000000E+00  0.93827000000E+00 0. -1.
     999903    2    1    2    0    0 -0.81934578336E-02  0.43158644995E-01 -0.17743245028E-01  0.51472851537E-01  0.20120395426E-01 0.  0.
         14    1    1    2    0    0 -0.81692020616E-01 -0.23977257810E-01  0.63925984118E-01  0.10646608178E+00  0.00000000000E+00 0.  1.
     999901    1    1    2    0    0  0.89885478450E-01 -0.19181387185E-01 -0.46182739090E-01  0.88599106668E+00  0.88000000000E+00 0. -1.
        -11    1    3    3    0    0  0.49980090100E-02  0.23398467378E-01 -0.13018168966E-01  0.27243388445E-01  0.51100000000E-03 0.  1.
         11    1    3    3    0    0 -0.13191466844E-01  0.19760177616E-01 -0.47250760621E-02  0.24229463092E-01  0.51100000000E-03 0. -1.
</event>
<event>
 8    1  0.1076043E+005  0.1043930E+01  0.7957747E-01            NaN
         13   -1    0    0    0    0  0.00000000000E+00  0.00000000000E+00  0.74505805969E-08  0.10566000000E+00  0.10566000000E+00 0. -1.
     999900   -1    0    0    0    0 -0.00000000000E+00 -0.00000000000E+00 -0.74505805969E-08  0.93827000000E+00  0.93827000000E+00 0. -1.
     999902    2    1    2    0    0 -0.78640897861E-02 -0.16526375344E-01  0.14067985812E-01  0.10208459532E+01  0.10205849240E+01 0.  0.
     999903    2    3    3    0    0  0.17099383989E-01 -0.67651332542E-01 -0.10903513643E+00  0.13045765874E+00  0.16169354321E-01 0.  0.
         14    1    1    2    0    0  0.78640897861E-02  0.16526375344E-01 -0.14067985812E-01  0.23084046764E-01  0.00000000000E+00 0.  1.
     999901    1    3    3    0    0 -0.24963473775E-01  0.51124957198E-01  0.12310312224E+00  0.89038829450E+00  0.88000000000E+00 0.  1.
        -11    1    4    4    0    0  0.25370527979E-02 -0.13753098927E-01 -0.35268600545E-01  0.37943638101E-01  0.51100000000E-03 0.  1.
         11    1    4    4    0    0  0.14562331191E-01 -0.53898233616E-01 -0.73766535888E-01  0.92514020638E-01  0.51100000000E-03 0. -1.
</event>
<event>
 8    1  0.1076043E+005  0.1043930E+01  0.7957747E-01            NaN
         13   -1    0    0    0    0  0.00000000000E+00  0.00000000000E+00  0.74505805969E-08  0.10566000000E+00  0.10566000000E+00 0. -1.
     999900   -1    0    0    0    0 -0.00000000000E+00 -0.00000000000E+00 -0.74505805969E-08  0.93827000000E+00  0.93827000000E+00 0. -1.
     999902    2    1    2    0    0 -0.53765321082E-03 -0.59776821021E-02  0.25924752804E-01  0.10173195779E+01  0.10169714888E+01 0.  0.
     999903    2    3    3    0    0  0.10430277421E+00 -0.63355697475E-01  0.35140677543E-01  0.12919307505E+00  0.23726995416E-01 0.  0.
         14    1    1    2    0    0  0.53765321082E-03  0.59776821021E-02 -0.25924752804E-01  0.26610422061E-01  0.00000000000E+00 0.  1.
     999901    1    3    3    0    0 -0.10484042742E+00  0.57378015373E-01 -0.92159247387E-02  0.88812650289E+00  0.88000000000E+00 0. -1.
        -11    1    4    4    0    0  0.73956195002E-01 -0.56846704132E-01  0.26466782302E-01  0.96962973533E-01  0.51100000000E-03 0. -1.
         11    1    4    4    0    0  0.30346579209E-01 -0.65089933428E-02  0.86738952406E-02  0.32230101515E-01  0.51100000000E-03 0.  1.
</event>
<event>
 8    1  0.1076043E+005  0.1043930E+01  0.7957747E-01            NaN
         13   -1    0    0    0    0  0.00000000000E+00  0.00000000000E+00  0.74505805969E-08  0.10566000000E+00  0.10566000000E+00 0.  1.
     999900   -1    0    0    0    0 -0.00000000000E+00 -0.00000000000E+00 -0.74505805969E-08  0.93827000000E+00  0.93827000000E+00 0.  1.
     999902    2    1    2    0    0  0.16287568202E-01  0.15544653120E-01 -0.12406138210E-02  0.10213809370E+01  0.10211319985E+01 0.  0.
     999903    2    3    3    0    0 -0.10499003452E+00  0.71175554472E-01  0.24856341806E-01  0.13094053744E+00  0.20945637161E-01 0.  0.
         14    1    1    2    0    0 -0.16287568202E-01 -0.15544653120E-01  0.12406138210E-02  0.22549062978E-01  0.00000000000E+00 0.  1.
     999901    1    3    3    0    0  0.12127760272E+00 -0.55630901352E-01 -0.26096955627E-01  0.89044039958E+00  0.88000000000E+00 0. -1.
        -11    1    4    4    0    0 -0.64082480221E-01  0.33878723544E-01  0.72602403370E-02  0.72851248383E-01  0.51100000000E-03 0.  1.
         11    1    4    4    0    0 -0.40907554295E-01  0.37296830928E-01  0.17596101469E-01  0.58089289061E-01  0.51100000000E-03 0. -1.
</event>
<event>
 8    1  0.1076043E+005  0.1043930E+01  0.7957747E-01            NaN
         13   -1    0    0    0    0  0.00000000000E+00  0.00000000000E+00  0.74505805969E-08  0.10566000000E+00  0.10566000000E+00 0. -1.
     999900   -1    0    0    0    0 -0.00000000000E+00 -0.00000000000E+00 -0.74505805969E-08  0.93827000000E+00  0.93827000000E+00 0. -1.
     999902    2    1    2    0    0  0.83494115398E-02 -0.71542544232E-02 -0.21251344237E-01  0.10200027005E+01  0.10197220177E+01 0.  0.
     999903    2    3    3    0    0 -0.10085258467E+00 -0.40501345520E-01  0.65278009739E-01  0.12841735206E+00  0.20449814932E-01 0.  0.
         14    1    1    2    0    0 -0.83494115398E-02  0.71542544232E-02  0.21251344237E-01  0.23927299499E-01  0.00000000000E+00 0. -1.
     999901    1    3    3    0    0  0.10920199621E+00  0.33347091097E-01 -0.86529353977E-01  0.89158534844E+00  0.88000000000E+00 0. -1.
        -11    1    4    4    0    0 -0.92303327597E-01 -0.37255170018E-01  0.65669123651E-01  0.11924993459E+00  0.51100000000E-03 0. -1.
         11    1    4    4    0    0 -0.85492570712E-02 -0.32461755019E-02 -0.39111391181E-03  0.91674174635E-02  0.51100000000E-03 0.  1.
</event>
<event>
 8    1  0.1076043E+005  0.1043930E+01  0.7957747E-01            NaN
         13   -1    0    0    0    0  0.00000000000E+00  0.00000000000E+00  0.74505805969E-08  0.10566000000E+00  0.10566000000E+00 0.  1.
     999900   -1    0    0    0    0 -0.00000000000E+00 -0.00000000000E+00 -0.74505805969E-08  0.93827000000E+00  0.93827000000E+00 0. -1.
     999902    2    1    2    0    0 -0.68425024031E-02 -0.17474954973E-02  0.22219072509E-01  0.10206156104E+01  0.10203492850E+01 0.  0.
     999903    2    3    3    0    0 -0.10721060528E+00 -0.72415030217E-01  0.18226648420E-01  0.13208671610E+00  0.19407198975E-01 0.  0.
         14    1    1    2    0    0  0.68425024031E-02  0.17474954973E-02 -0.22219072509E-01  0.23314389608E-01  0.00000000000E+00 0. -1.
     999901    1    3    3    0    0  0.10036810288E+00  0.70667534720E-01  0.39924240883E-02  0.88852889429E+00  0.88000000000E+00 0. -1.
        -11    1    4    4    0    0 -0.73367121457E-01 -0.48243910424E-01  0.21382626391E-01  0.90375257877E-01  0.51100000000E-03 0.  1.
         11    1    4    4    0    0 -0.33843483823E-01 -0.24171119793E-01 -0.31559779702E-02  0.41711458225E-01  0.51100000000E-03 0. -1.
</event>
<event>
 8    1  0.1076043E+005  0.1043930E+01  0.7957747E-01            NaN
         13   -1    0    0    0    0  0.00000000000E+00  0.00000000000E+00  0.74505805969E-08  0.10566000000E+00  0.10566000000E+00 0. -1.
     999900   -1    0    0    0    0 -0.00000000000E+00 -0.00000000000E+00 -0.74505805969E-08  0.93827000000E+00  0.93827000000E+00 0. -1.
     999902    2    1    2    0    0  0.26163382165E-02  0.35227028591E-02 -0.22931241287E-01  0.10205826985E+01  0.10203156119E+01 0.  0.
     999903    2    3    3    0    0  0.19058873037E-01  0.87885091496E-01  0.90552602474E-01  0.12914231777E+00  0.19772063030E-01 0.  0.
         14    1    1    2    0    0 -0.26163382165E-02 -0.35227028591E-02  0.22931241287E-01  0.23347301515E-01  0.00000000000E+00 0. -1.
     999901    1    3    3    0    0 -0.16442534820E-01 -0.84362388636E-01 -0.11348384376E+00  0.89144038071E+00  0.88000000000E+00 0. -1.
        -11    1    4    4    0    0  0.20291656046E-01  0.69941421913E-01  0.63335813102E-01  0.96515491744E-01  0.51100000000E-03 0. -1.
         11    1    4    4    0    0 -0.12327830090E-02  0.17943669582E-01  0.27216789372E-01  0.32626826029E-01  0.51100000000E-03 0.  1.
</event>
<event>
 8    1  0.1076043E+005  0.1043930E+01  0.7957747E-01            NaN
         13   -1    0    0    0    0  0.00000000000E+00  0.00000000000E+00  0.74505805969E-08  0.10566000000E+00  0.10566000000E+00 0. -1.
     999900   -1    0    0    0    0 -0.00000000000E+00 -0.00000000000E+00 -0.74505805969E-08  0.93827000000E+00  0.93827000000E+00 0.  1.
     999902    2    1    2    0    0 -0.86621723970E-02 -0.14985037168E-01 -0.16777655496E-01  0.10198245174E+01  0.10195395882E+01 0.  0.
     999903    2    3    3    0    0  0.38566616898E-01 -0.23633816846E-01 -0.12261932444E+00  0.13218279976E+00  0.19769992131E-01 0.  0.
         14    1    1    2    0    0  0.86621723970E-02  0.14985037168E-01  0.16777655496E-01  0.24105482644E-01  0.00000000000E+00 0. -1.
     999901    1    3    3    0    0 -0.47228789295E-01  0.86487796786E-02  0.10584166894E+00  0.88764171759E+00  0.88000000000E+00 0. -1.
        -11    1    4    4    0    0  0.19938965298E-01 -0.10567894592E-01 -0.34933066486E-01  0.41591140744E-01  0.51100000000E-03 0. -1.
         11    1    4    4    0    0  0.18627651600E-01 -0.13065922254E-01 -0.87686257955E-01  0.90591659018E-01  0.51100000000E-03 0.  1.
</event>
<event>
 8    1  0.1076043E+005  0.1043930E+01  0.7957747E-01            NaN
         13   -1    0    0    0    0  0.00000000000E+00  0.00000000000E+00  0.74505805969E-08  0.10566000000E+00  0.10566000000E+00 0.  1.
     999900   -1    0    0    0    0 -0.00000000000E+00 -0.00000000000E+00 -0.74505805969E-08  0.93827000000E+00  0.93827000000E+00 0. -1.
     999902    2    1    2    0    0 -0.14707474440E-01  0.15024620593E-01 -0.21937014499E-02  0.10227909046E+01  0.10225724293E+01 0.  0.
     999903    2    3    3    0    0  0.10388044720E+00 -0.48424057349E-01  0.58923361507E-01  0.13047698827E+00  0.20402090475E-01 0.  0.
         14    1    1    2    0    0  0.14707474440E-01 -0.15024620593E-01  0.21937014499E-02  0.21139095403E-01  0.00000000000E+00 0. -1.
     999901    1    3    3    0    0 -0.11858792164E+00  0.63448677942E-01 -0.61117062957E-01  0.89231391633E+00  0.88000000000E+00 0. -1.
        -11    1    4    4    0    0  0.77988573207E-01 -0.27672851818E-01  0.36629720363E-01  0.90498628794E-01  0.51100000000E-03 0.  1.
         11    1    4    4    0    0  0.25891873991E-01 -0.20751205531E-01  0.22293641144E-01  0.39978359474E-01  0.51100000000E-03 0. -1.
</event>
<event>
 8    1  0.1076043E+005  0.1043930E+01  0.7957747E-01            NaN
         13   -1    0    0    0    0  0.00000000000E+00  0.00000000000E+00  0.74505805969E-08  0.10566000000E+00  0.10566000000E+00 0.  1.
     999900   -1    0    0    0    0 -0.00000000000E+00 -0.00000000000E+00 -0.74505805969E-08  0.93827000000E+00  0.93827000000E+00 0.  1.
     999902    2    1    2    0    0  0.23291414497E-01 -0.64224553318E-02 -0.59301631531E-02  0.10190522035E+01  0.10187484914E+01 0.  0.
     999903    2    3    3    0    0 -0.66675611521E-01  0.89441698512E-01  0.57562257087E-01  0.12702345445E+00  0.19393038345E-01 0.  0.
         14    1    1    2    0    0 -0.23291414497E-01  0.64224553318E-02  0.59301631531E-02  0.24877796462E-01  0.00000000000E+00 0. -1.
     999901    1    3    3    0    0  0.89967026019E-01 -0.95864153844E-01 -0.63492420240E-01  0.89202874908E+00  0.88000000000E+00 0. -1.
        -11    1    4    4    0    0 -0.39564107455E-01  0.38960889544E-01  0.22999297096E-01  0.60104062264E-01  0.51100000000E-03 0.  1.
         11    1    4    4    0    0 -0.27111504066E-01  0.50480808968E-01  0.34562959990E-01  0.66919392190E-01  0.51100000000E-03 0. -1.
</event>
<event>
 8    1  0.1076043E+005  0.1043930E+01  0.7957747E-01            NaN
         13   -1    0    0    0    0  0.00000000000E+00  0.00000000000E+00  0.74505805969E-08  0.10566000000E+00  0.10566000000E+00 0.  1.
     999900   -1    0    0    0    0 -0.00000000000E+00 -0.00000000000E+00 -0.74505805969E-08  0.93827000000E+00  0.93827000000E+00 0.  1.
     999902    2    1    2    0    0 -0.19033818855E-01  0.13638789678E-01  0.47066311990E-02  0.10200457956E+01  0.10197661349E+01 0.  0.
     999903    2    3    3    0    0  0.11873077852E+00 -0.42015399656E-01 -0.12087143684E-02  0.12757088590E+00  0.20262733305E-01 0.  0.
         14    1    1    2    0    0  0.19033818855E-01 -0.13638789678E-01 -0.47066311990E-02  0.23884204432E-01  0.00000000000E+00 0.  1.
     999901    1    3    3    0    0 -0.13776459738E+00  0.55654189335E-01  0.59153455674E-02  0.89247490967E+00  0.88000000000E+00 0. -1.
        -11    1    4    4    0    0  0.61818539790E-01 -0.31769492576E-01 -0.44693028877E-02  0.69649610980E-01  0.51100000000E-03 0.  1.
         11    1    4    4    0    0  0.56912238733E-01 -0.10245907080E-01  0.32605885193E-02  0.57921274917E-01  0.51100000000E-03 0. -1.
</event>
<event>
 8    1  0.1076043E+005  0.1043930E+01  0.7957747E-01            NaN
         13   -1    0    0    0    0  0.00000000000E+00  0.00000000000E+00  0.74505805969E-08  0.10566000000E+00  0.10566000000E+00 0. -1.
     999900   -1    0    0    0    0 -0.00000000000E+00 -0.00000000000E+00 -0.74505805969E-08  0.93827000000E+00  0.93827000000E+00 0. -1.
     999902    2    1    2    0    0  0.19293064913E-01 -0.12784052588E-01  0.42289090506E-02  0.10204026112E+01  0.10201313400E+01 0.  0.
     999903    2    3    3    0    0  0.21317432857E-01 -0.49412427302E-01 -0.11807155992E+00  0.13118770990E+00  0.19321000251E-01 0.  0.
         14    1    1    2    0    0 -0.19293064913E-01  0.12784052588E-01 -0.42289090506E-02  0.23527388849E-01  0.00000000000E+00 0.  1.
     999901    1    3    3    0    0 -0.20243679443E-02  0.36628374714E-01  0.12230046897E+00  0.88921490125E+00  0.88000000000E+00 0.  1.
        -11    1    4    4    0    0  0.97307169148E-02 -0.52874103227E-02 -0.30342281240E-01  0.32304159352E-01  0.51100000000E-03 0. -1.
         11    1    4    4    0    0  0.11586715942E-01 -0.44125016979E-01 -0.87729278680E-01  0.98883550546E-01  0.51100000000E-03 0.  1.
</event>
<event>
 8    1  0.1076043E+005  0.1043930E+01  0.7957747E-01            NaN
         13   -1    0    0    0    0  0.00000000000E+00  0.00000000000E+00  0.74505805969E-08  0.10566000000E+00  0.10566000000E+00 0. -1.
     999900   -1    0    0    0    0 -0.00000000000E+00 -0.00000000000E+00 -0.74505805969E-08  0.93827000000E+00  0.93827000000E+00 0.  1.
     999902    2    1    2    0    0 -0.21123326613E-01 -0.16835741186E-02  0.13572868417E-01  0.10187654991E+01  0.10184546578E+01 0.  0.
     999903    2    3    3    0    0  0.67049822510E-01  0.10629164661E+00 -0.56068357816E-02  0.12758593605E+00  0.21287123637E-01 0.  0.
         14    1    1    2    0    0  0.21123326613E-01  0.16835741186E-02 -0.13572868417E-01  0.25164500911E-01  0.00000000000E+00 0. -1.
     999901    1    3    3    0    0 -0.88173149123E-01 -0.10797522073E+00  0.19179704198E-01  0.89117956304E+00  0.88000000000E+00 0.  1.
        -11    1    4    4    0    0  0.23237467794E-01  0.23419370714E-01  0.44978012073E-02  0.33300723277E-01  0.51100000000E-03 0.  1.
         11    1    4    4    0    0  0.43812354716E-01  0.82872275900E-01 -0.10104636989E-01  0.94285212777E-01  0.51100000000E-03 0. -1.
</event>
<event>
 8    1  0.1076043E+005  0.1043930E+01  0.7957747E-01            NaN
         13   -1    0    0    0    0  0.00000000000E+00  0.00000000000E+00  0.74505805969E-08  0.10566000000E+00  0.10566000000E+00 0.  1.
     999900   -1    0    0    0    0 -0.00000000000E+00 -0.00000000000E+00 -0.74505805969E-08  0.93827000000E+00  0.93827000000E+00 0.  1.
     999902    2    1    2    0    0 -0.20925261717E-01 -0.18497485928E-02 -0.10632174005E-01  0.10203857593E+01  0.10201140948E+01 0.  0.
     999903    2    3    3    0    0 -0.12617019650E+00  0.21439965684E-01  0.29830738863E-01  0.13288581312E+00  0.19752866506E-01 0.  0.
         14    1    1    2    0    0  0.20925261717E-01  0.18497485928E-02  0.10632174005E-01  0.23544240736E-01  0.00000000000E+00 0.  1.
     999901    1    3    3    0    0  0.10524493478E+00 -0.23289714276E-01 -0.40462912868E-01  0.88749994614E+00  0.88000000000E+00 0.  1.
        -11    1    4    4    0    0 -0.58842888054E-01  0.10818046469E-01  0.24033409320E-01  0.64477759642E-01  0.51100000000E-03 0. -1.
         11    1    4    4    0    0 -0.67327308441E-01  0.10621919214E-01  0.57973295429E-02  0.68408053477E-01  0.51100000000E-03 0.  1.
</event>
<event>
 8    1  0.1076043E+005  0.1043930E+01  0.7957747E-01            NaN
         13   -1    0    0    0    0  0.00000000000E+00  0.00000000000E+00  0.74505805969E-08  0.10566000000E+00  0.10566000000E+00 0. -1.
     999900   -1    0    0    0    0 -0.00000000000E+00 -0.00000000000E+00 -0.74505805969E-08  0.93827000000E+00  0.93827000000E+00 0.  1.
     999902    2    1    2    0    0  0.61519043162E-02 -0.22138483809E-01 -0.58191436250E-02  0.10202272401E+01  0.10199518620E+01 0.  0.
     999903    2    3    3    0    0 -0.10509361359E+00  0.69628462075E-01  0.13460083975E-01  0.12828081450E+00  0.19544901090E-01 0.  0.
         14    1    1    2    0    0 -0.61519043162E-02  0.22138483809E-01  0.58191436250E-02  0.23702759852E-01  0.00000000000E+00 0. -1.
     999901    1    3    3    0    0  0.11124551791E+00 -0.91766945884E-01 -0.19279227600E-01  0.89194642565E+00  0.88000000000E+00 0.  1.
        -11    1    4    4    0    0 -0.58416141975E-01  0.31006849726E-01 -0.36119277085E-03  0.66138203441E-01  0.51100000000E-03 0. -1.
         11    1    4    4    0    0 -0.46677471619E-01  0.38621612348E-01  0.13821276746E-01  0.62142611057E-01  0.51100000000E-03 0.  1.
</event>
<event>
 8    1  0.1076043E+005  0.1043930E+01  0.7957747E-01            NaN
         13   -1    0    0    0    0  0.00000000000E+00  0.00000000000E+00  0.74505805969E-08  0.10566000000E+00  0.10566000000E+00 0.  1.
     999900   -1    0    0    0    0 -0.00000000000E+00 -0.00000000000E+00 -0.74505805969E-08  0.93827000000E+00  0.93827000000E+00 0.  1.
     999902    2    1    2    0    0  0.83094122991E-02  0.53313873884E-02  0.21393983553E-01  0.10203679000E+01  0.10200958184E+01 0.  0.
     999903    2    3    3    0    0 -0.92657028656E-01  0.77792017613E-01  0.46946500604E-01  0.13126852633E+00  0.19761809681E-01 0.  0.
         14    1    1    2    0    0 -0.83094122991E-02 -0.53313873884E-02 -0.21393983553E-01  0.23562100002E-01  0.00000000000E+00 0. -1.
     999901    1    3    3    0    0  0.10096644096E+00 -0.72460630224E-01 -0.25552517052E-01  0.88909937367E+00  0.88000000000E+00 0. -1.
        -11    1    4    4    0    0 -0.14908242400E-01  0.54114632653E-02  0.22717486202E-02  0.16030021489E-01  0.51100000000E-03 0. -1.
         11    1    4    4    0    0 -0.77748786256E-01  0.72380554347E-01  0.44674751984E-01  0.11523850484E+00  0.51100000000E-03 0.  1.
</event>
<event>
 8    1  0.1076043E+005  0.1043930E+01  0.7957747E-01            NaN
         13   -1    0    0    0    0  0.00000000000E+00  0.00000000000E+00  0.74505805969E-08  0.10566000000E+00  0.10566000000E+00 0.  1.
     999900   -1    0    0    0    0 -0.00000000000E+00 -0.00000000000E+00 -0.74505805969E-08  0.93827000000E+00  0.93827000000E+00 0.  1.
     999902    2    1    2    0    0 -0.55193150391E-02  0.15728884504E-01  0.18026126858E-01  0.10193779757E+01  0.10190822614E+01 0.  0.
     999903    2    3    3    0    0  0.92615679398E-01  0.16268026809E-01 -0.84639036520E-01  0.12799090853E+00  0.19380232084E-01 0.  0.
         14    1    1    2    0    0  0.55193150391E-02 -0.15728884504E-01 -0.18026126858E-01  0.24552024270E-01  0.00000000000E+00 0.  1.
     999901    1    3    3    0    0 -0.98134994437E-01 -0.53914230458E-03  0.10266516338E+00  0.89138706720E+00  0.88000000000E+00 0. -1.
        -11    1    4    4    0    0  0.77112960470E-01  0.10737512984E-01 -0.59730804595E-01  0.98131202969E-01  0.51100000000E-03 0. -1.
         11    1    4    4    0    0  0.15502718928E-01  0.55305138245E-02 -0.24908231925E-01  0.29859705557E-01  0.51100000000E-03 0.  1.
</event>
<event>
 8    1  0.1076043E+005  0.1043930E+01  0.7957747E-01            NaN
         13   -1    0    0    0    0  0.00000000000E+00  0.00000000000E+00  0.74505805969E-08  0.10566000000E+00  0.10566000000E+00 0.  1.
     999900   -1    0    0    0    0 -0.00000000000E+00 -0.00000000000E+00 -0.74505805969E-08  0.93827000000E+00  0.93827000000E+00 0. -1.
     999902    2    1    2    0    0 -0.84514086328E-02 -0.86057179930E-02 -0.11399130793E-01  0.10273340706E+01  0.10272000135E+01 0.  0.
     999903    2    3    3    0    0 -0.89652019540E-01  0.30258993930E-01  0.95831745576E-01  0.13626591052E+00  0.20774589987E-01 0.  0.
         14    1    1    2    0    0  0.84514086328E-02  0.86057179930E-02  0.11399130793E-01  0.16595929407E-01  0.00000000000E+00 0.  1.
     999901    1    3    3    0    0  0.81200610907E-01 -0.38864711923E-01 -0.10723087637E+00  0.89106816007E+00  0.88000000000E+00 0. -1.
        -11    1    4    4    0    0 -0.55451320173E-01  0.98803228548E-02  0.64261423817E-01  0.85453270275E-01  0.51100000000E-03 0.  1.
         11    1    4    4    0    0 -0.34200699367E-01  0.20378671075E-01  0.31570321759E-01  0.50812640248E-01  0.51100000000E-03 0. -1.
</event>
<event>
 8    1  0.1076043E+005  0.1043930E+01  0.7957747E-01            NaN
         13   -1    0    0    0    0  0.00000000000E+00  0.00000000000E+00  0.74505805969E-08  0.10566000000E+00  0.10566000000E+00 0. -1.
     999900   -1    0    0    0    0 -0.00000000000E+00 -0.00000000000E+00 -0.74505805969E-08  0.93827000000E+00  0.93827000000E+00 0. -1.
     999902    2    1    2    0    0 -0.46339417620E-02  0.23111155559E-01  0.13199372180E-02  0.10203219259E+01  0.10200487691E+01 0.  0.
     999903    2    3    3    0    0  0.95995131279E-01  0.63351460811E-01  0.60939879724E-01  0.13167124649E+00  0.19879018966E-01 0.  0.
         14    1    1    2    0    0  0.46339417620E-02 -0.23111155559E-01 -0.13199372180E-02  0.23608074081E-01  0.00000000000E+00 0. -1.
     999901    1    3    3    0    0 -0.10062907304E+00 -0.40240305251E-01 -0.59619942506E-01  0.88865067943E+00  0.88000000000E+00 0. -1.
        -11    1    4    4    0    0  0.67019716388E-01  0.35020208308E-01  0.33371101782E-01  0.82655604346E-01  0.51100000000E-03 0.  1.
         11    1    4    4    0    0  0.28975414891E-01  0.28331252502E-01  0.27568777941E-01  0.49015642142E-01  0.51100000000E-03 0. -1.
</event>
<event>
 8    1  0.1076043E+005  0.1043930E+01  0.7957747E-01            NaN
         13   -1    0    0    0    0  0.00000000000E+00  0.00000000000E+00  0.74505805969E-08  0.10566000000E+00  0.10566000000E+00 0. -1.
     999900   -1    0    0    0    0 -0.00000000000E+00 -0.00000000000E+00 -0.74505805969E-08  0.93827000000E+00  0.93827000000E+00 0.  1.
     999902    2    1    2    0    0 -0.27715039666E-01  0.17589422863E-01 -0.76139962282E-02  0.10102330542E+01  0.10096709066E+01 0.  0.
     999903    2    3    3    0    0 -0.68373035914E-01  0.89256759572E-01 -0.51443095499E-01  0.12529787588E+00  0.20286065587E-01 0.  0.
         14    1    1    2    0    0  0.27715039666E-01 -0.17589422863E-01  0.76139962282E-02  0.33696945839E-01  0.00000000000E+00 0.  1.
     999901    1    3    3    0    0  0.40657996248E-01 -0.71667336709E-01  0.43829099271E-01  0.88493517828E+00  0.88000000000E+00 0. -1.
        -11    1    4    4    0    0 -0.29238508137E-01  0.24337800901E-01 -0.12302880653E-01  0.39985508677E-01  0.51100000000E-03 0. -1.
         11    1    4    4    0    0 -0.39134527777E-01  0.64918958671E-01 -0.39140214846E-01  0.85312367207E-01  0.51100000000E-03 0.  1.
</event>
<event>
 8    1  0.1076043E+005  0.1043930E+01  0.7957747E-01            NaN
         13   -1    0    0    0    0  0.00000000000E+00  0.00000000000E+00  0.74505805969E-08  0.10566000000E+00  0.10566000000E+00 0.  1.
     999900   -1    0    0    0    0 -0.00000000000E+00 -0.00000000000E+00 -0.74505805969E-08  0.93827000000E+00  0.93827000000E+00 0.  1.
     999902    2    1    2    0    0 -0.40955255895E-02  0.15278300434E-01 -0.15788505078E-01  0.10215810249E+01  0.10213365331E+01 0.  0.
     999903    2    3    3    0    0 -0.10782484954E-01 -0.20399587079E-01  0.12599434496E+00  0.12949358323E+00  0.19015993307E-01 0.  0.
         14    1    1    2    0    0  0.40955255895E-02 -0.15278300434E-01  0.15788505078E-01  0.22348975068E-01  0.00000000000E+00 0.  1.
     999901    1    3    3    0    0  0.66869593643E-02  0.35677887513E-01 -0.14178285003E+00  0.89208744170E+00  0.88000000000E+00 0.  1.
        -11    1    4    4    0    0  0.42486371543E-02 -0.10724851822E-01  0.38681031357E-01  0.40367767737E-01  0.51100000000E-03 0.  1.
         11    1    4    4    0    0 -0.15031122108E-01 -0.96747352567E-02  0.87313313599E-01  0.89125815490E-01  0.51100000000E-03 0. -1.
</event>
<event>
 8    1  0.1076043E+005  0.1043930E+01  0.7957747E-01            NaN
         13   -1    0    0    0    0  0.00000000000E+00  0.00000000000E+00  0.74505805969E-08  0.10566000000E+00  0.10566000000E+00 0.  1.
     999900   -1    0    0    0    0 -0.00000000000E+00 -0.00000000000E+00 -0.74505805969E-08  0.93827000000E+00  0.93827000000E+00 0. -1.
     999902    2    1    2    0    0 -0.18913346579E-01  0.14289322553E-01  0.58573995778E-02  0.10195126179E+01  0.10192201772E+01 0.  0.
     999903    2    3    3    0    0  0.95764041908E-01  0.61235529442E-01  0.58108158691E-01  0.12929635678E+00  0.20504828243E-01 0.  0.
         14    1    1    2    0    0  0.18913346579E-01 -0.14289322553E-01 -0.58573995778E-02  0.24417382081E-01  0.00000000000E+00 0. -1.
     999901    1    3    3    0    0 -0.11467738849E+00 -0.46946206888E-01 -0.52250759114E-01  0.89021626114E+00  0.88000000000E+00 0. -1.
        -11    1    4    4    0    0  0.56041776864E-01  0.45521976091E-01  0.42690848213E-01  0.83879083826E-01  0.51100000000E-03 0. -1.
         11    1    4    4    0    0  0.39722265044E-01  0.15713553351E-01  0.15417310478E-01  0.45417272953E-01  0.51100000000E-03 0.  1.
</event>
<event>
 8    1  0.1076043E+005  0.1043930E+01  0.7957747E-01            NaN
         13   -1    0    0    0    0  0.00000000000E+00  0.00000000000E+00  0.74505805969E-08  0.10566000000E+00  0.10566000000E+00 0.  1.
     999900   -1    0    0    0    0 -0.00000000000E+00 -0.00000000000E+00 -0.74505805969E-08  0.93827000000E+00  0.93827000000E+00 0.  1.
     999902    2    1    2    0    0  0.38270088928E-02  0.20819222823E-01  0.93998719875E-02  0.10207687472E+01  0.10205059489E+01 0.  0.
     999903    2    3    3    0    0 -0.10598255898E+00  0.60618030353E-01  0.46718458641E-01  0.13226733295E+00  0.20129197118E-01 0.  0.
         14    1    1    2    0    0 -0.38270088928E-02 -0.20819222823E-01 -0.93998719875E-02  0.23161252759E-01  0.00000000000E+00 0.  1.
     999901    1    3    3    0    0  0.10980956788E+00 -0.39798807530E-01 -0.37318586654E-01  0.88850141429E+00  0.88000000000E+00 0. -1.
        -11    1    4    4    0    0 -0.34005941971E-01  0.25752915761E-01  0.79740314399E-02  0.43398883141E-01  0.51100000000E-03 0. -1.
         11    1    4    4    0    0 -0.71976617013E-01  0.34865114592E-01  0.38744427201E-01  0.88868449814E-01  0.51100000000E-03 0.  1.
</event>
<event>
 8    1  0.1076043E+005  0.1043930E+01  0.7957747E-01            NaN
         13   -1    0    0    0    0  0.00000000000E+00  0.00000000000E+00  0.74505805969E-08  0.10566000000E+00  0.10566000000E+00 0. -1.
     999900   -1    0    0    0    0 -0.00000000000E+00 -0.00000000000E+00 -0.74505805969E-08  0.93827000000E+00  0.93827000000E+00 0. -1.
     999902    2    1    2    0    0 -0.19756342435E-01 -0.13167428762E-01  0.31958920440E-02  0.10199736236E+01  0.10196922500E+01 0.  0.
     999903    2    3    3    0    0 -0.12071472096E+00 -0.11230970046E-01 -0.49821111899E-01  0.13261397449E+00  0.20153026982E-01 0.  0.
         14    1    1    2    0    0  0.19756342435E-01  0.13167428762E-01 -0.31958920440E-02  0.23956376449E-01  0.00000000000E+00 0.  1.
     999901    1    3    3    0    0  0.10095837852E+00 -0.19364587154E-02  0.53017003943E-01  0.88735964906E+00  0.88000000000E+00 0. -1.
        -11    1    4    4    0    0 -0.55122545770E-01 -0.12325801967E-01 -0.15494468400E-01  0.58572690891E-01  0.51100000000E-03 0.  1.
         11    1    4    4    0    0 -0.65592175187E-01  0.10948319202E-02 -0.34326643499E-01  0.74041283603E-01  0.51100000000E-03 0. -1.
</event>
<event>
 8    1  0.1076043E+005  0.1043930E+01  0.7957747E-01            NaN
         13   -1    0    0    0    0  0.00000000000E+00  0.00000000000E+00  0.74505805969E-08  0.10566000000E+00  0.10566000000E+00 0.  1.
     999900   -1    0    0    0    0 -0.00000000000E+00 -0.00000000000E+00 -0.74505805969E-08  0.93827000000E+00  0.93827000000E+00 0.  1.
     999902    2    1    2    0    0 -0.41156601278E-02 -0.18406304317E-01  0.14220790436E-01  0.10203087897E+01  0.10200353252E+01 0.  0.
     999903    2    3    3    0    0 -0.37285083432E-01  0.10247552074E+00  0.67647898584E-01  0.12982179810E+00  0.19648187722E-01 0.  0.
         14    1    1    2    0    0  0.41156601278E-02  0.18406304317E-01 -0.14220790436E-01  0.23621210332E-01  0.00000000000E+00 0.  1.
     999901    1    3    3    0    0  0.33169423305E-01 -0.12088182506E+00 -0.53427108149E-01  0.89048699157E+00  0.88000000000E+00 0. -1.
        -11    1    4    4    0    0 -0.18338060130E-01  0.25189110015E-01  0.21062457727E-01  0.37612018813E-01  0.51100000000E-03 0.  1.
         11    1    4    4    0    0 -0.18947023303E-01  0.77286410725E-01  0.46585440857E-01  0.92209779285E-01  0.51100000000E-03 0. -1.
</event>
<event>
 8    1  0.1076043E+005  0.1043930E+01  0.7957747E-01            NaN
         13   -1    0    0    0    0  0.00000000000E+00  0.00000000000E+00  0.74505805969E-08  0.10566000000E+00  0.10566000000E+00 0. -1.
     999900   -1    0    0    0    0 -0.00000000000E+00 -0.00000000000E+00 -0.74505805969E-08  0.93827000000E+00  0.93827000000E+00 0.  1.
     999902    2    1    2    0    0 -0.80633992735E-02 -0.16035434504E-01  0.51672458918E-02  0.10252523664E+01  0.10250822215E+01 0.  0.
     999903    2    3    3    0    0  0.11574905867E+00 -0.37418433513E-01  0.54916587216E-01  0.13493682998E+00  0.19852777729E-01 0.  0.
         14    1    1    2    0    0  0.80633992735E-02  0.16035434504E-01 -0.51672458918E-02  0.18677633621E-01  0.00000000000E+00 0.  1.
     999901    1    3    3    0    0 -0.12381245795E+00  0.21382999008E-01 -0.49749341324E-01  0.89031553640E+00  0.88000000000E+00 0.  1.
        -11    1    4    4    0    0  0.86532991344E-01 -0.32778477766E-01  0.49206452701E-01  0.10480421415E+00  0.51100000000E-03 0.  1.
         11    1    4    4    0    0  0.29216067329E-01 -0.46399557466E-02  0.57101345150E-02  0.30132615828E-01  0.51100000000E-03 0. -1.
</event>
<event>
 8    1  0.1076043E+005  0.1043930E+01  0.7957747E-01            NaN
         13   -1    0    0    0    0  0.00000000000E+00  0.00000000000E+00  0.74505805969E-08  0.10566000000E+00  0.10566000000E+00 0. -1.
     999900   -1    0    0    0    0 -0.00000000000E+00 -0.00000000000E+00 -0.74505805969E-08  0.93827000000E+00  0.93827000000E+00 0.  1.
     999902    2    1    2    0    0 -0.79037292827E-02 -0.71506985709E-02 -0.20823257039E-01  0.10205374914E+01  0.10202693575E+01 0.  0.
     999903    2    3    3    0    0  0.97081552719E-01 -0.71771512945E-01  0.42496637537E-01  0.12969117008E+00  0.20925043535E-01 0.  0.
         14    1    1    2    0    0  0.79037292827E-02  0.71506985709E-02  0.20823257039E-01  0.23392508637E-01  0.00000000000E+00 0. -1.
     999901    1    3    3    0    0 -0.10498528200E+00  0.64620814374E-01 -0.63319894576E-01  0.89084632128E+00  0.88000000000E+00 0.  1.
        -11    1    4    4    0    0  0.45457693797E-01 -0.26005952596E-01  0.27237916003E-01  0.59032844120E-01  0.51100000000E-03 0.  1.
         11    1    4    4    0    0  0.51623858922E-01 -0.45765560349E-01  0.15258721535E-01  0.70658325963E-01  0.51100000000E-03 0. -1.
</event>
<event>
 8    1  0.1076043E+005  0.1043930E+01  0.7957747E-01            NaN
         13   -1    0    0    0    0  0.00000000000E+00  0.00000000000E+00  0.74505805969E-08  0.10566000000E+00  0.10566000000E+00 0.  1.
     999900   -1    0    0    0    0 -0.00000000000E+00 -0.00000000000E+00 -0.74505805969E-08  0.93827000000E+00  0.93827000000E+00 0. -1.
     999902    2    1    2    0    0 -0.49211569779E-02  0.22424745222E-01  0.96534423047E-02  0.10190246606E+01  0.10187202672E+01 0.  0.
     999903    2    3    3    0    0  0.89008125943E-01 -0.29592311353E-01  0.86697171753E-01  0.12915713075E+00  0.19157595315E-01 0.  0.
         14    1    1    2    0    0  0.49211569779E-02 -0.22424745222E-01 -0.96534423047E-02  0.24905339440E-01  0.00000000000E+00 0. -1.
     999901    1    3    3    0    0 -0.93929282921E-01  0.52017056575E-01 -0.77043729448E-01  0.88986752981E+00  0.88000000000E+00 0.  1.
        -11    1    4    4    0    0  0.64092686481E-01 -0.22495770595E-01  0.73486881606E-01  0.10007254890E+00  0.51100000000E-03 0.  1.
         11    1    4    4    0    0  0.24915439462E-01 -0.70965407579E-02  0.13210290147E-01  0.29084581845E-01  0.51100000000E-03 0. -1.
</event>
<event>
 8    1  0.1076043E+005  0.1043930E+01  0.7957747E-01            NaN
         13   -1    0    0    0    0  0.00000000000E+00  0.00000000000E+00  0.74505805969E-08  0.10566000000E+00  0.10566000000E+00 0.  1.
     999900   -1    0    0    0    0 -0.00000000000E+00 -0.00000000000E+00 -0.74505805969E-08  0.93827000000E+00  0.93827000000E+00 0. -1.
     999902    2    1    2    0    0  0.83176072495E-03 -0.14449307280E-01 -0.19606562561E-01  0.10195601087E+01  0.10192688181E+01 0.  0.
     999903    2    3    3    0    0  0.19829696498E-02 -0.11989140513E+00 -0.52923537306E-01  0.13263881451E+00  0.20353700411E-01 0.  0.
         14    1    1    2    0    0 -0.83176072495E-03  0.14449307280E-01  0.19606562561E-01  0.24369891305E-01  0.00000000000E+00 0.  1.
     999901    1    3    3    0    0 -0.11512089249E-02  0.10544209785E+00  0.33316974745E-01  0.88692129419E+00  0.88000000000E+00 0. -1.
        -11    1    4    4    0    0  0.43141853591E-02 -0.36921529102E-01 -0.26042657456E-01  0.45390446516E-01  0.51100000000E-03 0. -1.
         11    1    4    4    0    0 -0.23312157093E-02 -0.82969876025E-01 -0.26880879849E-01  0.87248367989E-01  0.51100000000E-03 0.  1.
</event>
<event>
 8    1  0.1076043E+005  0.1043930E+01  0.7957747E-01            NaN
         13   -1    0    0    0    0  0.00000000000E+00  0.00000000000E+00  0.74505805969E-08  0.10566000000E+00  0.10566000000E+00 0. -1.
     999900   -1    0    0    0    0 -0.00000000000E+00 -0.00000000000E+00 -0.74505805969E-08  0.93827000000E+00  0.93827000000E+00 0. -1.
     999902    2    1    2    0    0  0.19141045803E-01 -0.63796738354E-02 -0.12370803800E-01  0.10202632161E+01  0.10199886830E+01 0.  0.
     999903    2    3    3    0    0 -0.70529063928E-01  0.58234435494E-01 -0.90242706486E-01  0.12993757629E+00  0.19350176302E-01 0.  0.
         14    1    1    2    0    0 -0.19141045803E-01  0.63796738354E-02  0.12370803800E-01  0.23666783882E-01  0.00000000000E+00 0. -1.
     999901    1    3    3    0    0  0.89670109730E-01 -0.64614109329E-01  0.77871902687E-01  0.89032563983E+00  0.88000000000E+00 0.  1.
        -11    1    4    4    0    0 -0.36391834038E-01  0.41905307187E-01 -0.57110831776E-01  0.79638737949E-01  0.51100000000E-03 0. -1.
         11    1    4    4    0    0 -0.34137229889E-01  0.16329128307E-01 -0.33131874711E-01  0.50298838343E-01  0.51100000000E-03 0.  1.
</event>
<event>
 8    1  0.1076043E+005  0.1043930E+01  0.7957747E-01            NaN
         13   -1    0    0    0    0  0.00000000000E+00  0.00000000000E+00  0.74505805969E-08  0.10566000000E+00  0.10566000000E+00 0. -1.
     999900   -1    0    0    0    0 -0.00000000000E+00 -0.00000000000E+00 -0.74505805969E-08  0.93827000000E+00  0.93827000000E+00 0. -1.
     999902    2    1    2    0    0 -0.81963002805E-02  0.99931344511E-02 -0.17112150381E-01  0.10224854724E+01  0.10222605702E+01 0.  0.
     999903    2    3    3    0    0 -0.10990297434E+00 -0.62484798696E-01 -0.32436669221E-01  0.13353545172E+00  0.28223492340E-01 0.  0.
         14    1    1    2    0    0  0.81963002805E-02 -0.99931344511E-02  0.17112150381E-01  0.21444527626E-01  0.00000000000E+00 0. -1.
     999901    1    3    3    0    0  0.10170667406E+00  0.72477933147E-01  0.15324518841E-01  0.88895002065E+00  0.88000000000E+00 0. -1.
        -11    1    4    4    0    0 -0.68827185068E-01 -0.24844576828E-01 -0.24983701834E-01  0.77323223423E-01  0.51100000000E-03 0. -1.
         11    1    4    4    0    0 -0.41075789269E-01 -0.37640221868E-01 -0.74529673878E-02  0.56212228298E-01  0.51100000000E-03 0.  1.
</event>
<event>
 8    1  0.1076043E+005  0.1043930E+01  0.7957747E-01            NaN
         13   -1    0    0    0    0  0.00000000000E+00  0.00000000000E+00  0.74505805969E-08  0.10566000000E+00  0.10566000000E+00 0.  1.
     999900   -1    0    0    0    0 -0.00000000000E+00 -0.00000000000E+00 -0.74505805969E-08  0.93827000000E+00  0.93827000000E+00 0. -1.
     999902    2    1    2    0    0  0.20681323090E-01  0.11160703446E-01  0.15572491908E-02  0.10203778568E+01  0.10201060078E+01 0.  0.
     999903    2    3    3    0    0  0.72973540934E-02 -0.11473162804E+00 -0.52009542828E-01  0.12970540801E+00  0.30031691147E-01 0.  0.
         14    1    1    2    0    0 -0.20681323090E-01 -0.11160703446E-01 -0.15572491908E-02  0.23552143240E-01  0.00000000000E+00 0.  1.
     999901    1    3    3    0    0  0.13383968997E-01  0.12589233148E+00  0.53566792019E-01  0.89067244875E+00  0.88000000000E+00 0.  1.
        -11    1    4    4    0    0 -0.76597710650E-02 -0.85150443226E-01 -0.40593329690E-01  0.94643275570E-01  0.51100000000E-03 0.  1.
         11    1    4    4    0    0  0.14957125158E-01 -0.29581184812E-01 -0.11416213138E-01  0.35062132441E-01  0.51100000000E-03 0. -1.
</event>
<event>
 8    1  0.1076043E+005  0.1043930E+01  0.7957747E-01            NaN
         13   -1    0    0    0    0  0.00000000000E+00  0.00000000000E+00  0.74505805969E-08  0.10566000000E+00  0.10566000000E+00 0.  1.
     999900   -1    0    0    0    0 -0.00000000000E+00 -0.00000000000E+00 -0.74505805969E-08  0.93827000000E+00  0.93827000000E+00 0. -1.
     999902    2    1    2    0    0  0.63786972917E-02 -0.48744827123E-03 -0.22745563813E-01  0.10203019223E+01  0.10200282969E+01 0.  0.
     999903    2    3    3    0    0 -0.92748649728E-01  0.28920456989E-01 -0.87020189442E-01  0.13192008806E+00  0.19791195126E-01 0.  0.
         14    1    1    2    0    0 -0.63786972917E-02  0.48744827123E-03  0.22745563813E-01  0.23628077750E-01  0.00000000000E+00 0.  1.
     999901    1    3    3    0    0  0.99127347020E-01 -0.29407905260E-01  0.64274625628E-01  0.88838183419E+00  0.88000000000E+00 0.  1.
        -11    1    4    4    0    0 -0.32264831869E-01  0.15629494265E-01 -0.21703252562E-01  0.41911725797E-01  0.51100000000E-03 0. -1.
         11    1    4    4    0    0 -0.60483817860E-01  0.13290962724E-01 -0.65316936880E-01  0.90008362264E-01  0.51100000000E-03 0.  1.
</event>
<event>
 8    1  0.1076043E+005  0.1043930E+01  0.7957747E-01            NaN
         13   -1    0    0    0    0  0.00000000000E+00  0.00000000000E+00  0.74505805969E-08  0.10566000000E+00  0.10566000000E+00 0.  1.
     999900   -1    0    0    0    0 -0.00000000000E+00 -0.00000000000E+00 -0.74505805969E-08  0.93827000000E+00  0.93827000000E+00 0. -1.
     999902    2    1    2    0    0  0.20578559037E-01 -0.75446940126E-02  0.88543298494E-02  0.10202910775E+01  0.10200171980E+01 0.  0.
     999903    2    3    3    0    0  0.64032606689E-01  0.11209721189E+00  0.93844300370E-02  0.13113264341E+00  0.21017683213E-01 0.  0.
         14    1    1    2    0    0 -0.20578559037E-01  0.75446940126E-02 -0.88543298494E-02  0.23638922498E-01  0.00000000000E+00 0. -1.
     999901    1    3    3    0    0 -0.43454047652E-01 -0.11964190591E+00 -0.53010018762E-03  0.88915843409E+00  0.88000000000E+00 0. -1.
        -11    1    4    4    0    0  0.28931709700E-01  0.54258151900E-01 -0.58834971247E-02  0.61772708644E-01  0.51100000000E-03 0. -1.
         11    1    4    4    0    0  0.35100896989E-01  0.57839059994E-01  0.15267927162E-01  0.69359934769E-01  0.51100000000E-03 0.  1.
</event>
<event>
 8    1  0.1076043E+005  0.1043930E+01  0.7957747E-01            NaN
         13   -1    0    0    0    0  0.00000000000E+00  0.00000000000E+00  0.74505805969E-08  0.10566000000E+00  0.10566000000E+00 0. -1.
     999900   -1    0    0    0    0 -0.00000000000E+00 -0.00000000000E+00 -0.74505805969E-08  0.93827000000E+00  0.93827000000E+00 0. -1.
     999902    2    1    2    0    0 -0.15263981055E-01  0.12277018166E-01  0.14249771457E-01  0.10197066584E+01  0.10194189025E+01 0.  0.
     999903    2    3    3    0    0  0.11598452682E+00  0.66231729972E-02 -0.49274288142E-01  0.12769015465E+00  0.19507517499E-01 0.  0.
         14    1    1    2    0    0  0.15263981055E-01 -0.12277018166E-01 -0.14249771457E-01  0.24223341621E-01  0.00000000000E+00 0.  1.
     999901    1    3    3    0    0 -0.13124850788E+00  0.56538451687E-02  0.63524059598E-01  0.89201650373E+00  0.88000000000E+00 0. -1.
        -11    1    4    4    0    0  0.18886317454E-01  0.69071022873E-02 -0.38113354869E-02  0.20474092120E-01  0.51100000000E-03 0. -1.
         11    1    4    4    0    0  0.97098209368E-01 -0.28392929010E-03 -0.45462952655E-01  0.10721606253E+00  0.51100000000E-03 0.  1.
</event>
<event>
 8    1  0.1076043E+005  0.1043930E+01  0.7957747E-01            NaN
         13   -1    0    0    0    0  0.00000000000E+00  0.00000000000E+00  0.74505805969E-08  0.10566000000E+00  0.10566000000E+00 0. -1.
     999900   -1    0    0    0    0 -0.00000000000E+00 -0.00000000000E+00 -0.74505805969E-08  0.93827000000E+00  0.93827000000E+00 0.  1.
     999902    2    1    2    0    0  0.12763013755E-01  0.19066914465E-01  0.16509728004E-02  0.10209263599E+01  0.10206671665E+01 0.  0.
     999903    2    3    3    0    0 -0.97901787179E-01 -0.79258827843E-01 -0.14163590838E-01  0.12842159789E+00  0.20610137665E-01 0.  0.
         14    1    1    2    0    0 -0.12763013755E-01 -0.19066914465E-01 -0.16509728004E-02  0.23003640115E-01  0.00000000000E+00 0.  1.
     999901    1    3    3    0    0  0.11066480093E+00  0.98325742308E-01  0.15814563638E-01  0.89250476200E+00  0.88000000000E+00 0. -1.
        -11    1    4    4    0    0 -0.18919699371E-01 -0.21105748233E-01 -0.10626192810E-01  0.30275150328E-01  0.51100000000E-03 0. -1.
         11    1    4    4    0    0 -0.78982087808E-01 -0.58153079610E-01 -0.35373980276E-02  0.98146447559E-01  0.51100000000E-03 0.  1.
</event>
<event>
 8    1  0.1076043E+005  0.1043930E+01  0.7957747E-01            NaN
         13   -1    0    0    0    0  0.00000000000E+00  0.00000000000E+00  0.74505805969E-08  0.10566000000E+00  0.10566000000E+00 0. -1.
     999900   -1    0    0    0    0 -0.00000000000E+00 -0.00000000000E+00 -0.74505805969E-08  0.93827000000E+00  0.93827000000E+00 0.  1.
     999902    2    1    2    0    0 -0.17767116467E-01 -0.15806651922E-01  0.30143138718E-02  0.10199590434E+01  0.10196773232E+01 0.  0.
     999903    2    3    3    0    0 -0.46087820175E-01  0.11520083586E+00  0.29799859658E-01  0.12940725401E+00  0.21514785683E-01 0.  0.
         14    1    1    2    0    0  0.17767116467E-01  0.15806651922E-01 -0.30143138718E-02  0.23970956607E-01  0.00000000000E+00 0.  1.
     999901    1    3    3    0    0  0.28320703708E-01 -0.13100748778E+00 -0.26785545786E-01  0.89055178938E+00  0.88000000000E+00 0. -1.
        -11    1    4    4    0    0 -0.40116594749E-01  0.72941660619E-01  0.19590282062E-01  0.85521151187E-01  0.51100000000E-03 0. -1.
         11    1    4    4    0    0 -0.59712254266E-02  0.42259175241E-01  0.10209577596E-01  0.43886102821E-01  0.51100000000E-03 0.  1.
</event>
<event>
 8    1  0.1076043E+005  0.1043930E+01  0.7957747E-01            NaN
         13   -1    0    0    0    0  0.00000000000E+00  0.00000000000E+00  0.74505805969E-08  0.10566000000E+00  0.10566000000E+00 0.  1.
     999900   -1    0    0    0    0 -0.00000000000E+00 -0.00000000000E+00 -0.74505805969E-08  0.93827000000E+00  0.93827000000E+00 0.  1.
     999902    2    1    2    0    0 -0.11637713199E-01  0.18822342603E-01  0.88595237046E-02  0.10200928838E+01  0.10198143377E+01 0.  0.
     999903    2    3    3    0    0  0.98221153944E-01  0.58938437305E-01  0.60058883256E-01  0.13087994743E+00  0.20033888978E-01 0.  0.
         14    1    1    2    0    0  0.11637713199E-01 -0.18822342603E-01 -0.88595237046E-02  0.23837116224E-01  0.00000000000E+00 0. -1.
     999901    1    3    3    0    0 -0.10985886714E+00 -0.40116094702E-01 -0.51199359552E-01  0.88921293634E+00  0.88000000000E+00 0.  1.
        -11    1    4    4    0    0  0.43215459971E-01  0.16588897469E-01  0.17734543147E-01  0.49573608315E-01  0.51100000000E-03 0.  1.
         11    1    4    4    0    0  0.55005693973E-01  0.42349539836E-01  0.42324340110E-01  0.81306339116E-01  0.51100000000E-03 0. -1.
</event>
<event>
 8    1  0.1076043E+005  0.1043930E+01  0.7957747E-01            NaN
         13   -1    0    0    0    0  0.00000000000E+00  0.00000000000E+00  0.74505805969E-08  0.10566000000E+00  0.10566000000E+00 0.  1.
     999900   -1    0    0    0    0 -0.00000000000E+00 -0.00000000000E+00 -0.74505805969E-08  0.93827000000E+00  0.93827000000E+00 0. -1.
     999902    2    1    2    0    0  0.32148456363E-03  0.22181644159E-01  0.79032045977E-02  0.10203802796E+01  0.10201084872E+01 0.  0.
     999903    2    3    3    0    0  0.53092678426E-01  0.12061671837E+00  0.18000648293E-02  0.13329995002E+00  0.19960240208E-01 0.  0.
         14    1    1    2    0    0 -0.32148456363E-03 -0.22181644159E-01 -0.79032045977E-02  0.23549720440E-01  0.00000000000E+00 0. -1.
     999901    1    3    3    0    0 -0.52771193863E-01 -0.98435074214E-01  0.61031397684E-02  0.88708032954E+00  0.88000000000E+00 0.  1.
        -11    1    4    4    0    0  0.23265645075E-01  0.30881943301E-01  0.22757956713E-02  0.38735320184E-01  0.51100000000E-03 0.  1.
         11    1    4    4    0    0  0.29827033351E-01  0.89734775071E-01 -0.47573084201E-03  0.94564629838E-01  0.51100000000E-03 0. -1.
</event>
<event>
 8    1  0.1146556E+005  0.1043930E+01  0.7957747E-01            NaN
         13   -1    0    0    0    0  0.00000000000E+00  0.00000000000E+00  0.74505805969E-08  0.10566000000E+00  0.10566000000E+00 0. -1.
     999900   -1    0    0    0    0 -0.00000000000E+00 -0.00000000000E+00 -0.74505805969E-08  0.93827000000E+00  0.93827000000E+00 0. -1.
     999902    2    1    2    0    0  0.18239916546E-01 -0.10050453038E-01 -0.11639914252E-01  0.10200722179E+01  0.10197931830E+01 0.  0.
     999903    2    3    3    0    0 -0.11942791439E+00 -0.32189322778E-03  0.41031375757E-01  0.12775986155E+00  0.19387575295E-01 0.  0.
         14    1    1    2    0    0 -0.18239916546E-01  0.10050453038E-01  0.11639914252E-01  0.23857782077E-01  0.00000000000E+00 0. -1.
     999901    1    3    3    0    0  0.13766783093E+00 -0.97285598101E-02 -0.52671290009E-01  0.89231235638E+00  0.88000000000E+00 0.  1.
        -11    1    4    4    0    0 -0.39690800524E-01  0.88384025043E-02  0.11866566861E-01  0.42362171039E-01  0.51100000000E-03 0. -1.
         11    1    4    4    0    0 -0.79737113863E-01 -0.91602957321E-02  0.29164808896E-01  0.85397690508E-01  0.51100000000E-03 0.  1.
</event>
<event>
 8    1  0.1076043E+005  0.1043930E+01  0.7957747E-01            NaN
         13   -1    0    0    0    0  0.00000000000E+00  0.00000000000E+00  0.74505805969E-08  0.10566000000E+00  0.10566000000E+00 0.  1.
     999900   -1    0    0    0    0 -0.00000000000E+00 -0.00000000000E+00 -0.74505805969E-08  0.93827000000E+00  0.93827000000E+00 0. -1.
     999902    2    1    2    0    0  0.20673398571E-01 -0.77577817387E-02 -0.47068419504E-02  0.10213528667E+01  0.10211033010E+01 0.  0.
     999903    2    3    3    0    0  0.57691130061E-01 -0.93500406609E-01  0.72341194760E-01  0.13306321231E+00  0.20049376257E-01 0.  0.
         14    1    1    2    0    0 -0.20673398571E-01  0.77577817387E-02  0.47068419504E-02  0.22577133279E-01  0.00000000000E+00 0. -1.
     999901    1    3    3    0    0 -0.37017731490E-01  0.85742624871E-01 -0.77048036711E-01  0.88828965441E+00  0.88000000000E+00 0. -1.
        -11    1    4    4    0    0  0.34180219524E-01 -0.40286275316E-01  0.41702127592E-01  0.67309731483E-01  0.51100000000E-03 0. -1.
         11    1    4    4    0    0  0.23510910536E-01 -0.53214131293E-01  0.30639067168E-01  0.65753480832E-01  0.51100000000E-03 0.  1.
</event>
<event>
 8    1  0.1076043E+005  0.1043930E+01  0.7957747E-01            NaN
         13   -1    0    0    0    0  0.00000000000E+00  0.00000000000E+00  0.74505805969E-08  0.10566000000E+00  0.10566000000E+00 0.  1.
     999900   -1    0    0    0    0 -0.00000000000E+00 -0.00000000000E+00 -0.74505805969E-08  0.93827000000E+00  0.93827000000E+00 0.  1.
     999902    2    1    2    0    0  0.26389839370E-02  0.55369551278E-02 -0.21959884496E-01  0.10211295913E+01  0.10208750088E+01 0.  0.
     999903    2    3    3    0    0 -0.60546811407E-03  0.61267275095E-01  0.11213059386E+00  0.12922340152E+00  0.19271010150E-01 0.  0.
         14    1    1    2    0    0 -0.26389839370E-02 -0.55369551278E-02  0.21959884496E-01  0.22800408667E-01  0.00000000000E+00 0.  1.
     999901    1    3    3    0    0  0.32444520510E-02 -0.55730319967E-01 -0.13409047836E+00  0.89190618981E+00  0.88000000000E+00 0.  1.
        -11    1    4    4    0    0  0.82048812306E-02  0.27179566582E-01  0.41252133978E-01  0.50080421267E-01  0.51100000000E-03 0. -1.
         11    1    4    4    0    0 -0.88103493447E-02  0.34087708513E-01  0.70878459885E-01  0.79142980256E-01  0.51100000000E-03 0.  1.
</event>
<event>
 8    1  0.1076043E+005  0.1043930E+01  0.7957747E-01            NaN
         13   -1    0    0    0    0  0.00000000000E+00  0.00000000000E+00  0.74505805969E-08  0.10566000000E+00  0.10566000000E+00 0. -1.
     999900   -1    0    0    0    0 -0.00000000000E+00 -0.00000000000E+00 -0.74505805969E-08  0.93827000000E+00  0.93827000000E+00 0.  1.
     999902    2    1    2    0    0 -0.18120042563E-01 -0.18420079712E-02  0.15074000758E-01  0.10202877828E+01  0.10200138260E+01 0.  0.
     999903    2    3    3    0    0 -0.93282364839E-01 -0.26852061186E-01 -0.85546514788E-01  0.13101877647E+00  0.20617488085E-01 0.  0.
         14    1    1    2    0    0  0.18120042563E-01  0.18420079712E-02 -0.15074000758E-01  0.23642217212E-01  0.00000000000E+00 0. -1.
     999901    1    3    3    0    0  0.75162322276E-01  0.25010053215E-01  0.10062051555E+00  0.88926900632E+00  0.88000000000E+00 0. -1.
        -11    1    4    4    0    0 -0.55250869349E-01 -0.22998173651E-01 -0.61719775343E-01  0.85971892758E-01  0.51100000000E-03 0. -1.
         11    1    4    4    0    0 -0.38031495491E-01 -0.38538875346E-02 -0.23826739445E-01  0.45046883710E-01  0.51100000000E-03 0.  1.
</event>
<event>
 8    1  0.1076043E+005  0.1043930E+01  0.7957747E-01            NaN
         13   -1    0    0    0    0  0.00000000000E+00  0.00000000000E+00  0.74505805969E-08  0.10566000000E+00  0.10566000000E+00 0. -1.
     999900   -1    0    0    0    0 -0.00000000000E+00 -0.00000000000E+00 -0.74505805969E-08  0.93827000000E+00  0.93827000000E+00 0.  1.
     999902    2    1    2    0    0 -0.90043560535E-02 -0.15322973213E-01  0.16501724048E-01  0.10196776015E+01  0.10193891466E+01 0.  0.
     999903    2    3    3    0    0  0.11156674301E+00 -0.42254751161E-01 -0.44585008203E-01  0.12895076378E+00  0.20195900122E-01 0.  0.
         14    1    1    2    0    0  0.90043560535E-02  0.15322973213E-01 -0.16501724048E-01  0.24252398492E-01  0.00000000000E+00 0.  1.
     999901    1    3    3    0    0 -0.12057109906E+00  0.26931777948E-01  0.61086732251E-01  0.89072683773E+00  0.88000000000E+00 0. -1.
        -11    1    4    4    0    0  0.44998958438E-01 -0.16668221832E-01 -0.75155483987E-02  0.48574483716E-01  0.51100000000E-03 0.  1.
         11    1    4    4    0    0  0.66567784571E-01 -0.25586529329E-01 -0.37069459804E-01  0.80376280064E-01  0.51100000000E-03 0. -1.
</event>
<event>
 8    1  0.1076043E+005  0.1043930E+01  0.7957747E-01            NaN
         13   -1    0    0    0    0  0.00000000000E+00  0.00000000000E+00  0.74505805969E-08  0.10566000000E+00  0.10566000000E+00 0. -1.
     999900   -1    0    0    0    0 -0.00000000000E+00 -0.00000000000E+00 -0.74505805969E-08  0.93827000000E+00  0.93827000000E+00 0. -1.
     999902    2    1    2    0    0  0.18749603457E-01  0.14437511013E-01 -0.17903761329E-02  0.10201982744E+01  0.10199222148E+01 0.  0.
     999903    2    3    3    0    0 -0.10779793637E+00  0.17201475891E-01  0.65196710658E-01  0.12862147504E+00  0.19405847087E-01 0.  0.
         14    1    1    2    0    0 -0.18749603457E-01 -0.14437511013E-01  0.17903761329E-02  0.23731725617E-01  0.00000000000E+00 0. -1.
     999901    1    3    3    0    0  0.12654753983E+00 -0.27639648774E-02 -0.66987086791E-01  0.89157679935E+00  0.88000000000E+00 0. -1.
        -11    1    4    4    0    0 -0.78661877914E-02 -0.12566532292E-02  0.18941144662E-03  0.79845529245E-02  0.51100000000E-03 0.  1.
         11    1    4    4    0    0 -0.99931748578E-01  0.18458129120E-01  0.65007299212E-01  0.12063692211E+00  0.51100000000E-03 0. -1.
</event>
<event>
 8    1  0.1076043E+005  0.1043930E+01  0.7957747E-01            NaN
         13   -1    0    0    0    0  0.00000000000E+00  0.00000000000E+00  0.74505805969E-08  0.10566000000E+00  0.10566000000E+00 0.  1.
     999900   -1    0    0    0    0 -0.00000000000E+00 -0.00000000000E+00 -0.74505805969E-08  0.93827000000E+00  0.93827000000E+00 0.  1.
     999902    2    1    2    0    0  0.19529488807E-01 -0.70581570960E-02 -0.12096209999E-01  0.10198980044E+01  0.10196148305E+01 0.  0.
     999903    2    3    3    0    0  0.10907427562E+00  0.59185694116E-01  0.37645930148E-01  0.13148323802E+00  0.21690593208E-01 0.  0.
         14    1    1    2    0    0 -0.19529488807E-01  0.70581570960E-02  0.12096209999E-01  0.24031995569E-01  0.00000000000E+00 0.  1.
     999901    1    3    3    0    0 -0.89544786814E-01 -0.66243851212E-01 -0.49742140147E-01  0.88841476641E+00  0.88000000000E+00 0.  1.
        -11    1    4    4    0    0  0.49894354922E-01  0.15381063837E-01  0.18623619355E-01  0.55435765502E-01  0.51100000000E-03 0. -1.
         11    1    4    4    0    0  0.59179920699E-01  0.43804630278E-01  0.19022310793E-01  0.76047472520E-01  0.51100000000E-03 0.  1.
</event>
<event>
 8    1  0.1076043E+005  0.1043930E+01  0.7957747E-01            NaN
         13   -1    0    0    0    0  0.00000000000E+00  0.00000000000E+00  0.74505805969E-08  0.10566000000E+00  0.10566000000E+00 0.  1.
     999900   -1    0    0    0    0 -0.00000000000E+00 -0.00000000000E+00 -0.74505805969E-08  0.93827000000E+00  0.93827000000E+00 0.  1.
     999902    2    1    2    0    0  0.23899209268E-01  0.18248306205E-02  0.15329964142E-02  0.10199122506E+01  0.10196294163E+01 0.  0.
     999903    2    3    3    0    0  0.77122136345E-01 -0.56104185932E-01  0.89069391856E-01  0.13207720312E+00  0.20384489811E-01 0.  0.
         14    1    1    2    0    0 -0.23899209268E-01 -0.18248306205E-02 -0.15329964142E-02  0.24017749446E-01  0.00000000000E+00 0. -1.
     999901    1    3    3    0    0 -0.53222927077E-01  0.57929016553E-01 -0.87536395442E-01  0.88783504743E+00  0.88000000000E+00 0.  1.
        -11    1    4    4    0    0  0.25041760119E-01 -0.12875511475E-01  0.15651100240E-01  0.32219351410E-01  0.51100000000E-03 0.  1.
         11    1    4    4    0    0  0.52080376226E-01 -0.43228674458E-01  0.73418291617E-01  0.99857851710E-01  0.51100000000E-03 0. -1.
</event>
<event>
 8    1  0.1076043E+005  0.1043930E+01  0.7957747E-01            NaN
         13   -1    0    0    0    0  0.00000000000E+00  0.00000000000E+00  0.74505805969E-08  0.10566000000E+00  0.10566000000E+00 0.  1.
     999900   -1    0    0    0    0 -0.00000000000E+00 -0.00000000000E+00 -0.74505805969E-08  0.93827000000E+00  0.93827000000E+00 0.  1.
     999902    2    1    2    0    0 -0.86339098910E-02 -0.54852558816E-02  0.21812598542E-01  0.10198380535E+01  0.10195534481E+01 0.  0.
     999903    2    3    3    0    0  0.11338558506E+00  0.47756015567E-01  0.36130993334E-01  0.12970974443E+00  0.19550989743E-01 0.  0.
         14    1    1    2    0    0  0.86339098910E-02  0.54852558816E-02 -0.21812598542E-01  0.24091946523E-01  0.00000000000E+00 0. -1.
     999901    1    3    3    0    0 -0.12201949495E+00 -0.53241271449E-01 -0.14318394791E-01  0.89012830904E+00  0.88000000000E+00 0.  1.
        -11    1    4    4    0    0  0.40883364264E-01  0.14977618871E-01  0.34150384573E-02  0.43677249790E-01  0.51100000000E-03 0.  1.
         11    1    4    4    0    0  0.72502220794E-01  0.32778396696E-01  0.32715954876E-01  0.86032494643E-01  0.51100000000E-03 0. -1.
</event>
<event>
 8    1  0.1076043E+005  0.1043930E+01  0.7957747E-01            NaN
         13   -1    0    0    0    0  0.00000000000E+00  0.00000000000E+00  0.74505805969E-08  0.10566000000E+00  0.10566000000E+00 0. -1.
     999900   -1    0    0    0    0 -0.00000000000E+00 -0.00000000000E+00 -0.74505805969E-08  0.93827000000E+00  0.93827000000E+00 0. -1.
     999902    2    1    2    0    0 -0.10197469414E-01 -0.19221455302E-01  0.63864634979E-02  0.10212531474E+01  0.10210013475E+01 0.  0.
     999903    2    3    3    0    0 -0.85219048605E-01  0.96259606827E-01  0.10101368148E-01  0.13053550779E+00  0.20230744023E-01 0.  0.
         14    1    1    2    0    0  0.10197469414E-01  0.19221455302E-01 -0.63864634979E-02  0.22676852568E-01  0.00000000000E+00 0.  1.
     999901    1    3    3    0    0  0.75021579191E-01 -0.11548106213E+00 -0.37149046504E-02  0.89071763964E+00  0.88000000000E+00 0. -1.
        -11    1    4    4    0    0 -0.52857779690E-01  0.56303255413E-01 -0.36289516208E-02  0.77313852929E-01  0.51100000000E-03 0. -1.
         11    1    4    4    0    0 -0.32361268915E-01  0.39956351414E-01  0.13730319769E-01  0.53221654860E-01  0.51100000000E-03 0.  1.
</event>
<event>
 8    1  0.1076043E+005  0.1043930E+01  0.7957747E-01            NaN
         13   -1    0    0    0    0  0.00000000000E+00  0.00000000000E+00  0.74505805969E-08  0.10566000000E+00  0.10566000000E+00 0. -1.
     999900   -1    0    0    0    0 -0.00000000000E+00 -0.00000000000E+00 -0.74505805969E-08  0.93827000000E+00  0.93827000000E+00 0.  1.
     999902    2    1    2    0    0 -0.14133397474E-01  0.10238140171E-01 -0.17592037273E-01  0.10191499230E+01  0.10188486215E+01 0.  0.
     999903    2    3    3    0    0  0.55026107382E-01 -0.11174576153E+00  0.17600319094E-01  0.12735307884E+00  0.19850635858E-01 0.  0.
         14    1    1    2    0    0  0.14133397474E-01 -0.10238140171E-01  0.17592037273E-01  0.24780076952E-01  0.00000000000E+00 0. -1.
     999901    1    3    3    0    0 -0.69159504856E-01  0.12198390171E+00 -0.35192356368E-01  0.89179684420E+00  0.88000000000E+00 0.  1.
        -11    1    4    4    0    0  0.16656720563E-01 -0.18578267458E-01 -0.58895801884E-03  0.24964101309E-01  0.51100000000E-03 0. -1.
         11    1    4    4    0    0  0.38369386819E-01 -0.93167494077E-01  0.18189277113E-01  0.10238897753E+00  0.51100000000E-03 0.  1.
</event>
<event>
 8    1  0.1076043E+005  0.1043930E+01  0.7957747E-01            NaN
         13   -1    0    0    0    0  0.00000000000E+00  0.00000000000E+00  0.74505805969E-08  0.10566000000E+00  0.10566000000E+00 0.  1.
     999900   -1    0    0    0    0 -0.00000000000E+00 -0.00000000000E+00 -0.74505805969E-08  0.93827000000E+00  0.93827000000E+00 0.  1.
     999902    2    1    2    0    0 -0.10890188676E-01  0.14616160711E-01  0.15368006260E-01  0.10200887756E+01  0.10198101324E+01 0.  0.
     999903    2    3    3    0    0  0.21922042251E-01 -0.13278843510E-01 -0.12401334041E+00  0.12807872324E+00  0.19181947907E-01 0.  0.
         14    1    1    2    0    0  0.10890188676E-01 -0.14616160711E-01 -0.15368006260E-01  0.23841224376E-01  0.00000000000E+00 0. -1.
     999901    1    3    3    0    0 -0.32812230927E-01  0.27895004221E-01  0.13938134667E+00  0.89201005239E+00  0.88000000000E+00 0. -1.
        -11    1    4    4    0    0  0.18173339186E-01  0.20149915787E-04 -0.71674050635E-01  0.73943906569E-01  0.51100000000E-03 0. -1.
         11    1    4    4    0    0  0.37487030651E-02 -0.13298993426E-01 -0.52339289774E-01  0.54134816669E-01  0.51100000000E-03 0.  1.
</event>
<event>
 8    1  0.1076043E+005  0.1043930E+01  0.7957747E-01            NaN
         13   -1    0    0    0    0  0.00000000000E+00  0.00000000000E+00  0.74505805969E-08  0.10566000000E+00  0.10566000000E+00 0. -1.
     999900   -1    0    0    0    0 -0.00000000000E+00 -0.00000000000E+00 -0.74505805969E-08  0.93827000000E+00  0.93827000000E+00 0. -1.
     999902    2    1    2    0    0 -0.13261627804E-01  0.19193994210E-01 -0.59551597539E-02  0.10198521240E+01  0.10195678549E+01 0.  0.
     999903    2    3    3    0    0  0.18351014657E-02  0.87647527928E-01 -0.97293595027E-01  0.13235197904E+00  0.19119256623E-01 0.  0.
         14    1    1    2    0    0  0.13261627804E-01 -0.19193994210E-01  0.59551597539E-02  0.24077876016E-01  0.00000000000E+00 0. -1.
     999901    1    3    3    0    0 -0.15096729270E-01 -0.68453533718E-01  0.91338435273E-01  0.88750014494E+00  0.88000000000E+00 0.  1.
        -11    1    4    4    0    0 -0.34746701894E-03  0.15746486933E-01 -0.29801068942E-01  0.33711087421E-01  0.51100000000E-03 0.  1.
         11    1    4    4    0    0  0.21825684846E-02  0.71901040996E-01 -0.67492526085E-01  0.98640891621E-01  0.51100000000E-03 0. -1.
</event>
<event>
 8    1  0.1076043E+005  0.1043930E+01  0.7957747E-01            NaN
         13   -1    0    0    0    0  0.00000000000E+00  0.00000000000E+00  0.74505805969E-08  0.10566000000E+00  0.10566000000E+00 0. -1.
     999900   -1    0    0    0    0 -0.00000000000E+00 -0.00000000000E+00 -0.74505805969E-08  0.93827000000E+00  0.93827000000E+00 0.  1.
     999902    2    1    2    0    0 -0.22373562309E-01 -0.65606554770E-02  0.71294537693E-02  0.10195487039E+01  0.10192571373E+01 0.  0.
     999903    2    3    3    0    0 -0.98034523648E-01  0.68146088030E-01 -0.48951535845E-01  0.13137599768E+00  0.24672712948E-01 0.  0.
         14    1    1    2    0    0  0.22373562309E-01  0.65606554770E-02 -0.71294537693E-02  0.24381296146E-01  0.00000000000E+00 0.  1.
     999901    1    3    3    0    0  0.75660961338E-01 -0.74706743507E-01  0.56080989614E-01  0.88817270617E+00  0.88000000000E+00 0. -1.
        -11    1    4    4    0    0 -0.44732050802E-01  0.17450151315E-01 -0.14605152313E-01  0.50189996463E-01  0.51100000000E-03 0.  1.
         11    1    4    4    0    0 -0.53302472846E-01  0.50695936715E-01 -0.34346383532E-01  0.81186001217E-01  0.51100000000E-03 0. -1.
</event>
<event>
 8    1  0.1076043E+005  0.1043930E+01  0.7957747E-01            NaN
         13   -1    0    0    0    0  0.00000000000E+00  0.00000000000E+00  0.74505805969E-08  0.10566000000E+00  0.10566000000E+00 0.  1.
     999900   -1    0    0    0    0 -0.00000000000E+00 -0.00000000000E+00 -0.74505805969E-08  0.93827000000E+00  0.93827000000E+00 0. -1.
     999902    2    1    2    0    0  0.20733083684E-01 -0.16524016232E-02  0.10727571904E-01  0.10205276072E+01  0.10202592440E+01 0.  0.
     999903    2    3    3    0    0  0.30868164314E-01 -0.39769694659E-01  0.12129478694E+00  0.13273215951E+00  0.19259507971E-01 0.  0.
         14    1    1    2    0    0 -0.20733083684E-01  0.16524016232E-02 -0.10727571904E-01  0.23402392808E-01  0.00000000000E+00 0. -1.
     999901    1    3    3    0    0 -0.10135080629E-01  0.38117293036E-01 -0.11056721504E+00  0.88779544768E+00  0.88000000000E+00 0.  1.
        -11    1    4    4    0    0  0.10642005966E-01 -0.69539510453E-02  0.15038536624E-01  0.19698437271E-01  0.51100000000E-03 0. -1.
         11    1    4    4    0    0  0.20226158348E-01 -0.32815743614E-01  0.10625625032E+00  0.11303372224E+00  0.51100000000E-03 0.  1.
</event>
<event>
 8    1  0.1076043E+005  0.1043930E+01  0.7957747E-01            NaN
         13   -1    0    0    0    0  0.00000000000E+00  0.00000000000E+00  0.74505805969E-08  0.10566000000E+00  0.10566000000E+00 0. -1.
     999900   -1    0    0    0    0 -0.00000000000E+00 -0.00000000000E+00 -0.74505805969E-08  0.93827000000E+00  0.93827000000E+00 0.  1.
     999902    2    1    2    0    0 -0.16937467847E-01  0.19084468506E-01  0.10609967019E-01  0.10162954898E+01  0.10159197096E+01 0.  0.
     999903    2    3    3    0    0 -0.19234734160E-01  0.92548618925E-01  0.86929268787E-01  0.12993952593E+00  0.19808098417E-01 0.  0.
         14    1    1    2    0    0  0.16937467847E-01 -0.19084468506E-01 -0.10609967019E-01  0.27634510224E-01  0.00000000000E+00 0. -1.
     999901    1    3    3    0    0  0.22972663139E-02 -0.73464150419E-01 -0.76319301769E-01  0.88635596385E+00  0.88000000000E+00 0.  1.
        -11    1    4    4    0    0 -0.21937714457E-01  0.82251720086E-01  0.71414380399E-01  0.11111653172E+00  0.51100000000E-03 0.  1.
         11    1    4    4    0    0  0.27029802966E-02  0.10296898839E-01  0.15514888388E-01  0.18822994206E-01  0.51100000000E-03 0. -1.
</event>
<event>
 8    1  0.1076043E+005  0.1043930E+01  0.7957747E-01            NaN
         13   -1    0    0    0    0  0.00000000000E+00  0.00000000000E+00  0.74505805969E-08  0.10566000000E+00  0.10566000000E+00 0. -1.
     999900   -1    0    0    0    0 -0.00000000000E+00 -0.00000000000E+00 -0.74505805969E-08  0.93827000000E+00  0.93827000000E+00 0. -1.
     999902    2    1    2    0    0 -0.39843233668E-03  0.95606128814E-02  0.21197055816E-01  0.10206731893E+01  0.10204081929E+01 0.  0.
     999903    2    3    3    0    0  0.11854524551E+00 -0.38011738284E-01 -0.32660423576E-01  0.12976839353E+00  0.16591118446E-01 0.  0.
         14    1    1    2    0    0  0.39843233668E-03 -0.95606128814E-02 -0.21197055816E-01  0.23256810664E-01  0.00000000000E+00 0.  1.
     999901    1    3    3    0    0 -0.11894367785E+00  0.47572351166E-01  0.53857479393E-01  0.89090479580E+00  0.88000000000E+00 0.  1.
        -11    1    4    4    0    0  0.10616058926E+00 -0.35476189104E-01 -0.24114400241E-01  0.11450063810E+00  0.51100000000E-03 0. -1.
         11    1    4    4    0    0  0.12384656249E-01 -0.25355491802E-02 -0.85460233350E-02  0.15267755431E-01  0.51100000000E-03 0.  1.
</event>
<event>
 8    1  0.1076043E+005  0.1043930E+01  0.7957747E-01            NaN
         13   -1    0    0    0    0  0.00000000000E+00  0.00000000000E+00  0.74505805969E-08  0.10566000000E+00  0.10566000000E+00 0.  1.
     999900   -1    0    0    0    0 -0.00000000000E+00 -0.00000000000E+00 -0.74505805969E-08  0.93827000000E+00  0.93827000000E+00 0. -1.
     999902    2    1    2    0    0 -0.14916830791E-01  0.18097633250E-01  0.28409030134E-02  0.10203057138E+01  0.10200321773E+01 0.  0.
     999903    2    3    3    0    0 -0.55749427441E-01 -0.26480921953E-01 -0.11325117272E+00  0.13062491787E+00  0.20683402974E-01 0.  0.
         14    1    1    2    0    0  0.14916830791E-01 -0.18097633250E-01 -0.28409030134E-02  0.23624286233E-01  0.00000000000E+00 0. -1.
     999901    1    3    3    0    0  0.40832596650E-01  0.44578555202E-01  0.11609207574E+00  0.88968079589E+00  0.88000000000E+00 0. -1.
        -11    1    4    4    0    0 -0.31471504409E-01 -0.25888488469E-01 -0.68523593289E-01  0.79727118242E-01  0.51100000000E-03 0.  1.
         11    1    4    4    0    0 -0.24277923032E-01 -0.59243348401E-03 -0.44727579435E-01  0.50897799631E-01  0.51100000000E-03 0. -1.
</event>
<event>
 8    1  0.1076043E+005  0.1043930E+01  0.7957747E-01            NaN
         13   -1    0    0    0    0  0.00000000000E+00  0.00000000000E+00  0.74505805969E-08  0.10566000000E+00  0.10566000000E+00 0. -1.
     999900   -1    0    0    0    0 -0.00000000000E+00 -0.00000000000E+00 -0.74505805969E-08  0.93827000000E+00  0.93827000000E+00 0.  1.
     999902    2    1    2    0    0  0.50845124115E-02  0.87782257491E-02 -0.20128320126E-01  0.10213898406E+01  0.10211411008E+01 0.  0.
     999903    2    3    3    0    0  0.11980720613E+00  0.42901633168E-01 -0.33806465011E-01  0.13318221003E+00  0.20007679100E-01 0.  0.
         14    1    1    2    0    0 -0.50845124115E-02 -0.87782257491E-02  0.20128320126E-01  0.22540159379E-01  0.00000000000E+00 0. -1.
     999901    1    3    3    0    0 -0.11472269372E+00 -0.34123407419E-01  0.13678144885E-01  0.88820763059E+00  0.88000000000E+00 0.  1.
        -11    1    4    4    0    0  0.67034483853E-01  0.31402252331E-01 -0.26740173813E-01  0.78708458843E-01  0.51100000000E-03 0.  1.
         11    1    4    4    0    0  0.52772722278E-01  0.11499380838E-01 -0.70662911980E-02  0.54473751189E-01  0.51100000000E-03 0. -1.
</event>
<event>
 8    1  0.1076043E+005  0.1043930E+01  0.7957747E-01            NaN
         13   -1    0    0    0    0  0.00000000000E+00  0.00000000000E+00  0.74505805969E-08  0.10566000000E+00  0.10566000000E+00 0.  1.
     999900   -1    0    0    0    0 -0.00000000000E+00 -0.00000000000E+00 -0.74505805969E-08  0.93827000000E+00  0.93827000000E+00 0. -1.
     999902    2    1    2    0    0  0.22477990876E-01 -0.78906714660E-02 -0.55920114495E-02  0.10194597454E+01  0.10191660213E+01 0.  0.
     999903    2    3    3    0    0  0.18613352432E-01 -0.76449841918E-01 -0.10288094953E+00  0.13143923166E+00  0.22377368566E-01 0.  0.
         14    1    1    2    0    0 -0.22477990876E-01  0.78906714660E-02  0.55920114495E-02  0.24470254638E-01  0.00000000000E+00 0. -1.
     999901    1    3    3    0    0  0.38646384444E-02  0.68559170452E-01  0.97288938085E-01  0.88802051370E+00  0.88000000000E+00 0.  1.
        -11    1    4    4    0    0  0.66564510558E-02 -0.43668739203E-01 -0.40353268078E-01  0.59832386630E-01  0.51100000000E-03 0.  1.
         11    1    4    4    0    0  0.11956901376E-01 -0.32781102715E-01 -0.62527681456E-01  0.71606845029E-01  0.51100000000E-03 0. -1.
</event>
<event>
 8    1  0.1076043E+005  0.1043930E+01  0.7957747E-01            NaN
         13   -1    0    0    0    0  0.00000000000E+00  0.00000000000E+00  0.74505805969E-08  0.10566000000E+00  0.10566000000E+00 0. -1.
     999900   -1    0    0    0    0 -0.00000000000E+00 -0.00000000000E+00 -0.74505805969E-08  0.93827000000E+00  0.93827000000E+00 0.  1.
     999902    2    1    2    0    0 -0.11816535741E-02 -0.29430340447E-01 -0.19628365437E-02  0.10144106170E+01  0.10139810185E+01 0.  0.
     999903    2    3    3    0    0  0.37799476053E-01 -0.92479521115E-01 -0.77981815876E-01  0.12802829947E+00  0.18133384759E-01 0.  0.
         14    1    1    2    0    0  0.11816535741E-02  0.29430340447E-01  0.19628365437E-02  0.29519382976E-01  0.00000000000E+00 0.  1.
     999901    1    3    3    0    0 -0.38981129628E-01  0.63049180668E-01  0.76018979332E-01  0.88638231755E+00  0.88000000000E+00 0. -1.
        -11    1    4    4    0    0  0.19808059566E-01 -0.46095493543E-01 -0.27791886500E-01  0.57356811496E-01  0.51100000000E-03 0.  1.
         11    1    4    4    0    0  0.17991416487E-01 -0.46384027573E-01 -0.50189929375E-01  0.70671487976E-01  0.51100000000E-03 0. -1.
</event>
<event>
 8    1  0.1076043E+005  0.1043930E+01  0.7957747E-01            NaN
         13   -1    0    0    0    0  0.00000000000E+00  0.00000000000E+00  0.74505805969E-08  0.10566000000E+00  0.10566000000E+00 0. -1.
     999900   -1    0    0    0    0 -0.00000000000E+00 -0.00000000000E+00 -0.74505805969E-08  0.93827000000E+00  0.93827000000E+00 0.  1.
     999902    2    1    2    0    0 -0.21574403594E-01 -0.31940449013E-02 -0.18322405762E-02  0.10220436134E+01  0.10218092453E+01 0.  0.
     999903    2    3    3    0    0  0.67671814750E-01 -0.56191147598E-01 -0.95085887114E-01  0.13104988559E+00  0.19895401626E-01 0.  0.
         14    1    1    2    0    0  0.21574403594E-01  0.31940449013E-02  0.18322405762E-02  0.21886386609E-01  0.00000000000E+00 0. -1.
     999901    1    3    3    0    0 -0.89246218344E-01  0.52997102697E-01  0.93253646538E-01  0.89099372780E+00  0.88000000000E+00 0. -1.
        -11    1    4    4    0    0  0.50458011133E-01 -0.48039008323E-01 -0.64086151537E-01  0.94662839319E-01  0.51100000000E-03 0. -1.
         11    1    4    4    0    0  0.17213803617E-01 -0.81521392749E-02 -0.30999735577E-01  0.36387046274E-01  0.51100000000E-03 0.  1.
</event>
<event>
 8    1  0.1076043E+005  0.1043930E+01  0.7957747E-01            NaN
         13   -1    0    0    0    0  0.00000000000E+00  0.00000000000E+00  0.74505805969E-08  0.10566000000E+00  0.10566000000E+00 0. -1.
     999900   -1    0    0    0    0 -0.00000000000E+00 -0.00000000000E+00 -0.74505805969E-08  0.93827000000E+00  0.93827000000E+00 0. -1.
     999902    2    1    2    0    0 -0.97262414908E-02  0.18765596441E-01 -0.48097735173E-02  0.10222532543E+01  0.10220234022E+01 0.  0.
     999903    2    3    3    0    0 -0.75130654550E-01  0.10226099096E+00 -0.41730281501E-01  0.13511609349E+00  0.20322814805E-01 0.  0.
         14    1    1    2    0    0  0.97262414908E-02 -0.18765596441E-01  0.48097735173E-02  0.21676745711E-01  0.00000000000E+00 0.  1.
     999901    1    3    3    0    0  0.65404413059E-01 -0.83495394519E-01  0.36920507984E-01  0.88713716079E+00  0.88000000000E+00 0.  1.
        -11    1    4    4    0    0 -0.41602329155E-01  0.54583887247E-01 -0.33083150588E-01  0.76189963328E-01  0.51100000000E-03 0.  1.
         11    1    4    4    0    0 -0.33528325395E-01  0.47677103714E-01 -0.86471309131E-02  0.58926130166E-01  0.51100000000E-03 0. -1.
</event>
<event>
 8    1  0.1076043E+005  0.1043930E+01  0.7957747E-01            NaN
         13   -1    0    0    0    0  0.00000000000E+00  0.00000000000E+00  0.74505805969E-08  0.10566000000E+00  0.10566000000E+00 0. -1.
     999900   -1    0    0    0    0 -0.00000000000E+00 -0.00000000000E+00 -0.74505805969E-08  0.93827000000E+00  0.93827000000E+00 0. -1.
     999902    2    1    2    0    0  0.22337333170E-01  0.73446292263E-02 -0.63177922658E-05  0.10204161728E+01  0.10201452179E+01 0.  0.
     999903    2    3    3    0    0 -0.99324994050E-02 -0.57864747376E-02 -0.12846119045E+00  0.13040807038E+00  0.19283400490E-01 0.  0.
         14    1    1    2    0    0 -0.22337333170E-01 -0.73446292263E-02  0.63177922658E-05  0.23513827242E-01  0.00000000000E+00 0. -1.
     999901    1    3    3    0    0  0.32269832575E-01  0.13131103964E-01  0.12845487266E+00  0.89000810238E+00  0.88000000000E+00 0.  1.
        -11    1    4    4    0    0 -0.15070998149E-01 -0.21027753392E-02 -0.72035706441E-01  0.73627174146E-01  0.51100000000E-03 0. -1.
         11    1    4    4    0    0  0.51384987442E-02 -0.36836993984E-02 -0.56425484010E-01  0.56780896236E-01  0.51100000000E-03 0.  1.
</event>
<event>
 8    1  0.1076043E+005  0.1043930E+01  0.7957747E-01            NaN
         13   -1    0    0    0    0  0.00000000000E+00  0.00000000000E+00  0.74505805969E-08  0.10566000000E+00  0.10566000000E+00 0.  1.
     999900   -1    0    0    0    0 -0.00000000000E+00 -0.00000000000E+00 -0.74505805969E-08  0.93827000000E+00  0.93827000000E+00 0.  1.
     999902    2    1    2    0    0  0.11585581755E-01 -0.39598317702E-02 -0.20515470215E-01  0.10200387780E+01  0.10197589510E+01 0.  0.
     999903    2    3    3    0    0 -0.74430944048E-01  0.10370434735E+00  0.17378454192E-02  0.12903618075E+00  0.18781872775E-01 0.  0.
         14    1    1    2    0    0 -0.11585581755E-01  0.39598317702E-02  0.20515470215E-01  0.23891222037E-01  0.00000000000E+00 0.  1.
     999901    1    3    3    0    0  0.86016525803E-01 -0.10766417912E+00 -0.22253315635E-01  0.89100259721E+00  0.88000000000E+00 0. -1.
        -11    1    4    4    0    0 -0.34818781321E-01  0.33000955987E-01  0.19660014929E-03  0.47976144086E-01  0.51100000000E-03 0.  1.
         11    1    4    4    0    0 -0.39612162727E-01  0.70703391366E-01  0.15412452699E-02  0.81060036667E-01  0.51100000000E-03 0. -1.
</event>
<event>
 8    1  0.1076043E+005  0.1043930E+01  0.7957747E-01            NaN
         13   -1    0    0    0    0  0.00000000000E+00  0.00000000000E+00  0.74505805969E-08  0.10566000000E+00  0.10566000000E+00 0. -1.
     999900   -1    0    0    0    0 -0.00000000000E+00 -0.00000000000E+00 -0.74505805969E-08  0.93827000000E+00  0.93827000000E+00 0.  1.
     999902    2    1    2    0    0  0.21191664872E-01  0.11031570367E-01  0.24051454069E-02  0.10199181919E+01  0.10196354992E+01 0.  0.
     999903    2    3    3    0    0 -0.80468880965E-01 -0.10910253277E-01  0.97687162852E-01  0.12868591404E+00  0.20567164538E-01 0.  0.
         14    1    1    2    0    0 -0.21191664872E-01 -0.11031570367E-01 -0.24051454069E-02  0.24011808121E-01  0.00000000000E+00 0.  1.
     999901    1    3    3    0    0  0.10166054584E+00  0.21941823645E-01 -0.95282017445E-01  0.89123227783E+00  0.88000000000E+00 0.  1.
        -11    1    4    4    0    0 -0.60959962527E-01 -0.16937073074E-02  0.61908308157E-01  0.86901584655E-01  0.51100000000E-03 0. -1.
         11    1    4    4    0    0 -0.19508918438E-01 -0.92165459701E-02  0.35778854695E-01  0.41784329390E-01  0.51100000000E-03 0.  1.
</event>
<event>
 8    1  0.1076043E+005  0.1043930E+01  0.7957747E-01            NaN
         13   -1    0    0    0    0  0.00000000000E+00  0.00000000000E+00  0.74505805969E-08  0.10566000000E+00  0.10566000000E+00 0. -1.
     999900   -1    0    0    0    0 -0.00000000000E+00 -0.00000000000E+00 -0.74505805969E-08  0.93827000000E+00  0.93827000000E+00 0. -1.
     999902    2    1    2    0    0 -0.73189233969E-02  0.22588090124E-01 -0.18933052424E-01  0.10135614484E+01  0.10131063916E+01 0.  0.
     999903    2    3    3    0    0 -0.35110463246E-02  0.19523869578E-01 -0.12417709942E+00  0.12727695745E+00  0.19645939746E-01 0.  0.
         14    1    1    2    0    0  0.73189233969E-02 -0.22588090124E-01  0.18933052424E-01  0.30368551649E-01  0.00000000000E+00 0. -1.
     999901    1    3    3    0    0 -0.38078770723E-02  0.30642205462E-02  0.10524404700E+00  0.88628449090E+00  0.88000000000E+00 0.  1.
        -11    1    4    4    0    0 -0.22639721829E-02  0.12398175437E-02 -0.70615771714E-01  0.70664779440E-01  0.51100000000E-03 0.  1.
         11    1    4    4    0    0 -0.12470741417E-02  0.18284052034E-01 -0.53561327708E-01  0.56612178015E-01  0.51100000000E-03 0. -1.
</event>
<event>
 8    1  0.1076043E+005  0.1043930E+01  0.7957747E-01            NaN
         13   -1    0    0    0    0  0.00000000000E+00  0.00000000000E+00  0.74505805969E-08  0.10566000000E+00  0.10566000000E+00 0.  1.
     999900   -1    0    0    0    0 -0.00000000000E+00 -0.00000000000E+00 -0.74505805969E-08  0.93827000000E+00  0.93827000000E+00 0.  1.
     999902    2    1    2    0    0 -0.15488777019E-01 -0.16929448473E-01  0.52886833697E-02  0.10203826305E+01  0.10201108930E+01 0.  0.
     999903    2    3    3    0    0 -0.61251388998E-01  0.64495438489E-02  0.11507923581E+00  0.13207257238E+00  0.20164438728E-01 0.  0.
         14    1    1    2    0    0  0.15488777019E-01  0.16929448473E-01 -0.52886833697E-02  0.23547369512E-01  0.00000000000E+00 0. -1.
     999901    1    3    3    0    0  0.45762611979E-01 -0.23378992322E-01 -0.10979055244E+00  0.88831005811E+00  0.88000000000E+00 0.  1.
        -11    1    4    4    0    0 -0.48618133217E-01  0.72469926148E-02  0.10480653975E+00  0.11576231543E+00  0.51100000000E-03 0.  1.
         11    1    4    4    0    0 -0.12633255780E-01 -0.79744876593E-03  0.10272696063E-01  0.16310256943E-01  0.51100000000E-03 0. -1.
</event>
<event>
 8    1  0.1076043E+005  0.1043930E+01  0.7957747E-01            NaN
         13   -1    0    0    0    0  0.00000000000E+00  0.00000000000E+00  0.74505805969E-08  0.10566000000E+00  0.10566000000E+00 0.  1.
     999900   -1    0    0    0    0 -0.00000000000E+00 -0.00000000000E+00 -0.74505805969E-08  0.93827000000E+00  0.93827000000E+00 0.  1.
     999902    2    1    2    0    0 -0.27166165723E-02  0.76982407413E-02 -0.22259655369E-01  0.10202206100E+01  0.10199450759E+01 0.  0.
     999903    2    3    3    0    0 -0.41900149811E-02  0.16587556710E-01 -0.13089585483E+00  0.13349460122E+00  0.19859015081E-01 0.  0.
         14    1    1    2    0    0  0.27166165723E-02 -0.76982407413E-02  0.22259655369E-01  0.23709389980E-01  0.00000000000E+00 0.  1.
     999901    1    3    3    0    0  0.14733984088E-02 -0.88893159690E-02  0.10863619947E+00  0.88672600880E+00  0.88000000000E+00 0. -1.
        -11    1    4    4    0    0 -0.33447528237E-02  0.16169485557E-01 -0.51356982954E-01  0.53948498161E-01  0.51100000000E-03 0. -1.
         11    1    4    4    0    0 -0.84526215737E-03  0.41807115321E-03 -0.79538871880E-01  0.79546103063E-01  0.51100000000E-03 0.  1.
</event>
<event>
 8    1  0.1076043E+005  0.1043930E+01  0.7957747E-01            NaN
         13   -1    0    0    0    0  0.00000000000E+00  0.00000000000E+00  0.74505805969E-08  0.10566000000E+00  0.10566000000E+00 0. -1.
     999900   -1    0    0    0    0 -0.00000000000E+00 -0.00000000000E+00 -0.74505805969E-08  0.93827000000E+00  0.93827000000E+00 0.  1.
     999902    2    1    2    0    0 -0.31748982569E-02  0.81338847339E-02 -0.21954975558E-01  0.10203024523E+01  0.10200288393E+01 0.  0.
     999903    2    3    3    0    0  0.84590901305E-01 -0.29881748116E-01  0.89332722765E-01  0.12815169387E+00  0.19848975597E-01 0.  0.
         14    1    1    2    0    0  0.31748982569E-02 -0.81338847339E-02  0.21954975558E-01  0.23627547726E-01  0.00000000000E+00 0. -1.
     999901    1    3    3    0    0 -0.87765799562E-01  0.38015632850E-01 -0.11128769832E+00  0.89215075840E+00  0.88000000000E+00 0.  1.
        -11    1    4    4    0    0  0.36714585067E-01 -0.15940297722E-01  0.26810512446E-01  0.48177988197E-01  0.51100000000E-03 0. -1.
         11    1    4    4    0    0  0.47876316239E-01 -0.13941450394E-01  0.62522210319E-01  0.79973705678E-01  0.51100000000E-03 0.  1.
</event>
<event>
 8    1  0.1076043E+005  0.1043930E+01  0.7957747E-01            NaN
         13   -1    0    0    0    0  0.00000000000E+00  0.00000000000E+00  0.74505805969E-08  0.10566000000E+00  0.10566000000E+00 0.  1.
     999900   -1    0    0    0    0 -0.00000000000E+00 -0.00000000000E+00 -0.74505805969E-08  0.93827000000E+00  0.93827000000E+00 0. -1.
     999902    2    1    2    0    0 -0.14463929490E-01  0.20704601511E-02  0.18336102499E-01  0.10204842175E+01  0.10202148467E+01 0.  0.
     999903    2    3    3    0    0 -0.12977899056E+00  0.34720937909E-02  0.25201595025E-01  0.13293328215E+00  0.13472018592E-01 0.  0.
         14    1    1    2    0    0  0.14463929490E-01 -0.20704601511E-02 -0.18336102499E-01  0.23445782486E-01  0.00000000000E+00 0. -1.
     999901    1    3    3    0    0  0.11531506107E+00 -0.14016336399E-02 -0.68654925262E-02  0.88755093537E+00  0.88000000000E+00 0.  1.
        -11    1    4    4    0    0 -0.36209715022E-01 -0.41763353900E-02  0.10253753139E-01  0.37868005146E-01  0.51100000000E-03 0.  1.
         11    1    4    4    0    0 -0.93569275535E-01  0.76484291809E-02  0.14947841886E-01  0.95065277000E-01  0.51100000000E-03 0. -1.
</event>
<event>
 8    1  0.1076043E+005  0.1043930E+01  0.7957747E-01            NaN
         13   -1    0    0    0    0  0.00000000000E+00  0.00000000000E+00  0.74505805969E-08  0.10566000000E+00  0.10566000000E+00 0.  1.
     999900   -1    0    0    0    0 -0.00000000000E+00 -0.00000000000E+00 -0.74505805969E-08  0.93827000000E+00  0.93827000000E+00 0. -1.
     999902    2    1    2    0    0 -0.21601867033E-01 -0.76497971585E-02 -0.69691818725E-02  0.10199773477E+01  0.10196960627E+01 0.  0.
     999903    2    3    3    0    0  0.11134921382E+00 -0.15138970526E-02  0.58855306358E-01  0.12753883306E+00  0.20031663659E-01 0.  0.
         14    1    1    2    0    0  0.21601867033E-01  0.76497971585E-02  0.69691818725E-02  0.23952652293E-01  0.00000000000E+00 0. -1.
     999901    1    3    3    0    0 -0.13295108086E+00 -0.61359001058E-02 -0.65824488231E-01  0.89243851465E+00  0.88000000000E+00 0. -1.
        -11    1    4    4    0    0  0.69644439626E-01 -0.19331306363E-02  0.25719463027E-01  0.74268680238E-01  0.51100000000E-03 0.  1.
         11    1    4    4    0    0  0.41704774198E-01  0.41923358363E-03  0.33135843331E-01  0.53270152824E-01  0.51100000000E-03 0. -1.
</event>
<event>
 8    1  0.1076043E+005  0.1043930E+01  0.7957747E-01            NaN
         13   -1    0    0    0    0  0.00000000000E+00  0.00000000000E+00  0.74505805969E-08  0.10566000000E+00  0.10566000000E+00 0.  1.
     999900   -1    0    0    0    0 -0.00000000000E+00 -0.00000000000E+00 -0.74505805969E-08  0.93827000000E+00  0.93827000000E+00 0.  1.
     999902    2    1    2    0    0  0.14847464678E-01  0.11615422223E-01  0.14556858477E-01  0.10201126246E+01  0.10198345452E+01 0.  0.
     999903    2    3    3    0    0  0.20999573940E-01 -0.69253507635E-01 -0.10418511310E+00  0.12844155967E+00  0.20141152740E-01 0.  0.
         14    1    1    2    0    0 -0.14847464678E-01 -0.11615422223E-01 -0.14556858477E-01  0.23817375370E-01  0.00000000000E+00 0. -1.
     999901    1    3    3    0    0 -0.61521092623E-02  0.80868929858E-01  0.11874197158E+00  0.89167106496E+00  0.88000000000E+00 0. -1.
        -11    1    4    4    0    0  0.77493690361E-03 -0.29608971665E-01 -0.31739824777E-01  0.43416233463E-01  0.51100000000E-03 0.  1.
         11    1    4    4    0    0  0.20224637036E-01 -0.39644535970E-01 -0.72445288327E-01  0.85025326211E-01  0.51100000000E-03 0. -1.
</event>
<event>
 8    1  0.1076043E+005  0.1043930E+01  0.7957747E-01            NaN
         13   -1    0    0    0    0  0.00000000000E+00  0.00000000000E+00  0.74505805969E-08  0.10566000000E+00  0.10566000000E+00 0. -1.
     999900   -1    0    0    0    0 -0.00000000000E+00 -0.00000000000E+00 -0.74505805969E-08  0.93827000000E+00  0.93827000000E+00 0. -1.
     999902    2    1    2    0    0  0.67855479083E-02 -0.11157526248E-01  0.17871520824E-01  0.10217957435E+01  0.10215559780E+01 0.  0.
     999903    2    3    3    0    0 -0.80548920690E-01  0.10040922052E+00  0.39886428290E-02  0.13035467275E+00  0.20156667537E-01 0.  0.
         14    1    1    2    0    0 -0.67855479083E-02  0.11157526248E-01 -0.17871520824E-01  0.22134256458E-01  0.00000000000E+00 0.  1.
     999901    1    3    3    0    0  0.87334468598E-01 -0.11156674677E+00  0.13882877995E-01  0.89144107079E+00  0.88000000000E+00 0. -1.
        -11    1    4    4    0    0 -0.48682206441E-01  0.45125748017E-01  0.45793734130E-02  0.66539628342E-01  0.51100000000E-03 0. -1.
         11    1    4    4    0    0 -0.31866714249E-01  0.55283472506E-01 -0.59073058403E-03  0.63815044410E-01  0.51100000000E-03 0.  1.
</event>
<event>
 8    1  0.1076043E+005  0.1043930E+01  0.7957747E-01            NaN
         13   -1    0    0    0    0  0.00000000000E+00  0.00000000000E+00  0.74505805969E-08  0.10566000000E+00  0.10566000000E+00 0.  1.
     999900   -1    0    0    0    0 -0.00000000000E+00 -0.00000000000E+00 -0.74505805969E-08  0.93827000000E+00  0.93827000000E+00 0.  1.
     999902    2    1    2    0    0 -0.18086027859E-01 -0.59509058010E-02 -0.13769511799E-01  0.10204328270E+01  0.10201622603E+01 0.  0.
     999903    2    3    3    0    0  0.10045956743E+00 -0.78210520265E-01 -0.11279302619E-01  0.12954522961E+00  0.21112405816E-01 0.  0.
         14    1    1    2    0    0  0.18086027859E-01  0.59509058010E-02  0.13769511799E-01  0.23497172995E-01  0.00000000000E+00 0.  1.
     999901    1    3    3    0    0 -0.11854559529E+00  0.72259614464E-01 -0.24902091796E-02  0.89088759739E+00  0.88000000000E+00 0. -1.
        -11    1    4    4    0    0  0.25313148007E-01 -0.16352721776E-01  0.58890748639E-02  0.30710084585E-01  0.51100000000E-03 0.  1.
         11    1    4    4    0    0  0.75146419424E-01 -0.61857798490E-01 -0.17168377483E-01  0.98835145028E-01  0.51100000000E-03 0. -1.
</event>
<event>
 8    1  0.1076043E+005  0.1043930E+01  0.7957747E-01            NaN
         13   -1    0    0    0    0  0.00000000000E+00  0.00000000000E+00  0.74505805969E-08  0.10566000000E+00  0.10566000000E+00 0.  1.
     999900   -1    0    0    0    0 -0.00000000000E+00 -0.00000000000E+00 -0.74505805969E-08  0.93827000000E+00  0.93827000000E+00 0. -1.
     999902    2    1    2    0    0 -0.54229286268E-02 -0.16330513586E-01  0.16330118972E-01  0.10202072975E+01  0.10199314503E+01 0.  0.
     999903    2    3    3    0    0 -0.37107466786E-01  0.48824446420E-01 -0.11079095673E+00  0.12812610911E+00  0.19515969964E-01 0.  0.
         14    1    1    2    0    0  0.54229286268E-02  0.16330513586E-01 -0.16330118972E-01  0.23722702513E-01  0.00000000000E+00 0. -1.
     999901    1    3    3    0    0  0.31684538159E-01 -0.65154960007E-01  0.12712107570E+00  0.89208118838E+00  0.88000000000E+00 0.  1.
        -11    1    4    4    0    0 -0.86247874705E-02  0.25779419029E-01 -0.55407279275E-01  0.61718661052E-01  0.51100000000E-03 0. -1.
         11    1    4    4    0    0 -0.28482679316E-01  0.23045027391E-01 -0.55383677450E-01  0.66407448056E-01  0.51100000000E-03 0.  1.
</event>
<event>
 8    1  0.1132868E+005  0.1043930E+01  0.7957747E-01            NaN
         13   -1    0    0    0    0  0.00000000000E+00  0.00000000000E+00  0.74505805969E-08  0.10566000000E+00  0.10566000000E+00 0. -1.
     999900   -1    0    0    0    0 -0.00000000000E+00 -0.00000000000E+00 -0.74505805969E-08  0.93827000000E+00  0.93827000000E+00 0. -1.
     999902    2    1    2    0    0  0.26188284014E-02  0.23582281342E-01  0.13068219922E-03  0.10202023930E+01  0.10199264304E+01 0.  0.
     999903    2    3    3    0    0 -0.66065329326E-01 -0.22459744796E-01 -0.10729930464E+00  0.12982124779E+00  0.21710544142E-01 0.  0.
         14    1    1    2    0    0 -0.26188284014E-02 -0.23582281342E-01 -0.13068219922E-03  0.23727606987E-01  0.00000000000E+00 0. -1.
     999901    1    3    3    0    0  0.68684157727E-01  0.46042026138E-01  0.10742998684E+00  0.89038114522E+00  0.88000000000E+00 0. -1.
        -11    1    4    4    0    0 -0.26974233620E-01 -0.20191786758E-01 -0.44637269072E-01  0.55929101933E-01  0.51100000000E-03 0.  1.
         11    1    4    4    0    0 -0.39091095706E-01 -0.22679580379E-02 -0.62662035567E-01  0.73892145859E-01  0.51100000000E-03 0. -1.
</event>
<event>
 8    1  0.1076043E+005  0.1043930E+01  0.7957747E-01            NaN
         13   -1    0    0    0    0  0.00000000000E+00  0.00000000000E+00  0.74505805969E-08  0.10566000000E+00  0.10566000000E+00 0.  1.
     999900   -1    0    0    0    0 -0.00000000000E+00 -0.00000000000E+00 -0.74505805969E-08  0.93827000000E+00  0.93827000000E+00 0. -1.
     999902    2    1    2    0    0 -0.11967707483E-02  0.17608092716E-01 -0.15090215883E-01  0.10207094960E+01  0.10204453359E+01 0.  0.
     999903    2    3    3    0    0 -0.12234708341E+00  0.39532414359E-01 -0.22531006244E-01  0.13210753818E+00  0.20325717586E-01 0.  0.
         14    1    1    2    0    0  0.11967707483E-02 -0.17608092716E-01  0.15090215883E-01  0.23220503972E-01  0.00000000000E+00 0.  1.
     999901    1    3    3    0    0  0.12115031267E+00 -0.21924321644E-01  0.74407903609E-02  0.88860195785E+00  0.88000000000E+00 0. -1.
        -11    1    4    4    0    0 -0.57231917251E-01  0.79482197862E-02 -0.11027961074E-01  0.58826385206E-01  0.51100000000E-03 0. -1.
         11    1    4    4    0    0 -0.65115166163E-01  0.31584194573E-01 -0.11503045170E-01  0.73281152969E-01  0.51100000000E-03 0.  1.
</event>
<event>
 8    1  0.1076043E+005  0.1043930E+01  0.7957747E-01            NaN
         13   -1    0    0    0    0  0.00000000000E+00  0.00000000000E+00  0.74505805969E-08  0.10566000000E+00  0.10566000000E+00 0. -1.
     999900   -1    0    0    0    0 -0.00000000000E+00 -0.00000000000E+00 -0.74505805969E-08  0.93827000000E+00  0.93827000000E+00 0.  1.
     999902    2    1    2    0    0 -0.52020706695E-02  0.18227791200E-01  0.12244575058E-01  0.10213635752E+01  0.10211142488E+01 0.  0.
     999903    2    3    3    0    0 -0.12157668787E+00  0.48001485376E-01  0.14752631649E-01  0.13319928027E+00  0.20961261686E-01 0.  0.
         14    1    1    2    0    0  0.52020706695E-02 -0.18227791200E-01 -0.12244575058E-01  0.22566424830E-01  0.00000000000E+00 0.  1.
     999901    1    3    3    0    0  0.11637461720E+00 -0.29773694176E-01 -0.25080565913E-02  0.88816429490E+00  0.88000000000E+00 0.  1.
        -11    1    4    4    0    0 -0.35089998960E-01  0.21682069786E-01  0.11111702417E-01  0.42721788690E-01  0.51100000000E-03 0.  1.
         11    1    4    4    0    0 -0.86486688909E-01  0.26319415590E-01  0.36409292323E-02  0.90477491577E-01  0.51100000000E-03 0. -1.
</event>
<event>
 8    1  0.1076043E+005  0.1043930E+01  0.7957747E-01            NaN
         13   -1    0    0    0    0  0.00000000000E+00  0.00000000000E+00  0.74505805969E-08  0.10566000000E+00  0.10566000000E+00 0. -1.
     999900   -1    0    0    0    0 -0.00000000000E+00 -0.00000000000E+00 -0.74505805969E-08  0.93827000000E+00  0.93827000000E+00 0. -1.
     999902    2    1    2    0    0  0.18581905350E-01 -0.15933270672E-02 -0.14622197795E-01  0.10202311695E+01  0.10199558837E+01 0.  0.
     999903    2    3    3    0    0  0.35891774756E-01 -0.12442427648E+00 -0.11753092233E-01  0.13152688492E+00  0.19788031873E-01 0.  0.
         14    1    1    2    0    0 -0.18581905350E-01  0.15933270672E-02  0.14622197795E-01  0.23698830476E-01  0.00000000000E+00 0. -1.
     999901    1    3    3    0    0 -0.17309869406E-01  0.12283094942E+00 -0.28691055617E-02  0.88870428461E+00  0.88000000000E+00 0. -1.
        -11    1    4    4    0    0  0.35881026272E-01 -0.94690244066E-01 -0.89344175596E-02  0.10165517845E+00  0.51100000000E-03 0.  1.
         11    1    4    4    0    0  0.10748483765E-04 -0.29734032418E-01 -0.28186746734E-02  0.29871706467E-01  0.51100000000E-03 0. -1.
</event>
<event>
 8    1  0.1076043E+005  0.1043930E+01  0.7957747E-01            NaN
         13   -1    0    0    0    0  0.00000000000E+00  0.00000000000E+00  0.74505805969E-08  0.10566000000E+00  0.10566000000E+00 0. -1.
     999900   -1    0    0    0    0 -0.00000000000E+00 -0.00000000000E+00 -0.74505805969E-08  0.93827000000E+00  0.93827000000E+00 0.  1.
     999902    2    1    2    0    0  0.75894789129E-02  0.21083587222E-01  0.51038889797E-02  0.10209481045E+01  0.10206894065E+01 0.  0.
     999903    2    3    3    0    0 -0.34240948699E-01 -0.97350929147E-01 -0.73994983170E-01  0.12851707019E+00  0.19792266710E-01 0.  0.
         14    1    1    2    0    0 -0.75894789129E-02 -0.21083587222E-01 -0.51038889797E-02  0.22981895549E-01  0.00000000000E+00 0.  1.
     999901    1    3    3    0    0  0.41830427612E-01  0.11843451637E+00  0.79098872149E-01  0.89243103426E+00  0.88000000000E+00 0.  1.
        -11    1    4    4    0    0 -0.14289995241E-01 -0.44919466456E-01 -0.45814230169E-01  0.65735585778E-01  0.51100000000E-03 0. -1.
         11    1    4    4    0    0 -0.19950953458E-01 -0.52431462692E-01 -0.28180753001E-01  0.62781484409E-01  0.51100000000E-03 0.  1.
</event>
<event>
 8    1  0.1076043E+005  0.1043930E+01  0.7957747E-01            NaN
         13   -1    0    0    0    0  0.00000000000E+00  0.00000000000E+00  0.74505805969E-08  0.10566000000E+00  0.10566000000E+00 0. -1.
     999900   -1    0    0    0    0 -0.00000000000E+00 -0.00000000000E+00 -0.74505805969E-08  0.93827000000E+00  0.93827000000E+00 0.  1.
     999902    2    1    2    0    0  0.23384149828E-01  0.55684752059E-03 -0.74395050691E-02  0.10193846384E+01  0.10190890865E+01 0.  0.
     999903    2    3    3    0    0  0.65748537748E-01 -0.95653434877E-01 -0.58823665225E-01  0.13163946562E+00  0.19906669719E-01 0.  0.
         14    1    1    2    0    0 -0.23384149828E-01 -0.55684752059E-03  0.74395050691E-02  0.24545361640E-01  0.00000000000E+00 0.  1.
     999901    1    3    3    0    0 -0.42364387919E-01  0.96210282398E-01  0.51384160156E-01  0.88774517274E+00  0.88000000000E+00 0. -1.
        -11    1    4    4    0    0  0.23852041245E-01 -0.47062069909E-01 -0.18773893708E-01  0.56004272173E-01  0.51100000000E-03 0.  1.
         11    1    4    4    0    0  0.41896496502E-01 -0.48591364968E-01 -0.40049771517E-01  0.75635193450E-01  0.51100000000E-03 0. -1.
</event>
<event>
 8    1  0.1076043E+005  0.1043930E+01  0.7957747E-01            NaN
         13   -1    0    0    0    0  0.00000000000E+00  0.00000000000E+00  0.74505805969E-08  0.10566000000E+00  0.10566000000E+00 0. -1.
     999900   -1    0    0    0    0 -0.00000000000E+00 -0.00000000000E+00 -0.74505805969E-08  0.93827000000E+00  0.93827000000E+00 0.  1.
     999902    2    1    2    0    0  0.51598500295E-02 -0.25453166669E-01 -0.22202702124E-01  0.10097620658E+01  0.10091838196E+01 0.  0.
     999903    2    3    3    0    0 -0.61291728444E-01 -0.34820490857E-01  0.94535969792E-01  0.11951969624E+00  0.19461902402E-01 0.  0.
         14    1    1    2    0    0 -0.51598500295E-02  0.25453166669E-01  0.22202702124E-01  0.34167934199E-01  0.00000000000E+00 0.  1.
     999901    1    3    3    0    0  0.66451578473E-01  0.93673241881E-02 -0.11673867192E+00  0.89024236956E+00  0.88000000000E+00 0.  1.
        -11    1    4    4    0    0 -0.25585061809E-01 -0.39827743074E-02  0.35604079890E-01  0.44026917957E-01  0.51100000000E-03 0.  1.
         11    1    4    4    0    0 -0.35706666635E-01 -0.30837716550E-01  0.58931889902E-01  0.75492778281E-01  0.51100000000E-03 0. -1.
</event>
<event>
 8    1  0.1076043E+005  0.1043930E+01  0.7957747E-01            NaN
         13   -1    0    0    0    0  0.00000000000E+00  0.00000000000E+00  0.74505805969E-08  0.10566000000E+00  0.10566000000E+00 0.  1.
     999900   -1    0    0    0    0 -0.00000000000E+00 -0.00000000000E+00 -0.74505805969E-08  0.93827000000E+00  0.93827000000E+00 0.  1.
     999902    2    1    2    0    0 -0.14326636001E-01 -0.37848335389E-02 -0.17284575339E-01  0.10211630501E+01  0.10209092226E+01 0.  0.
     999903    2    3    3    0    0 -0.12316370654E+00  0.35185463043E-01 -0.31615167578E-01  0.13348655618E+00  0.20293507377E-01 0.  0.
         14    1    1    2    0    0  0.14326636001E-01  0.37848335389E-02  0.17284575339E-01  0.22766949921E-01  0.00000000000E+00 0.  1.
     999901    1    3    3    0    0  0.10883707054E+00 -0.38970296582E-01  0.14330592239E-01  0.88767649390E+00  0.88000000000E+00 0.  1.
        -11    1    4    4    0    0 -0.44941342982E-01  0.22197087567E-01 -0.80900091091E-02  0.50775430809E-01  0.51100000000E-03 0.  1.
         11    1    4    4    0    0 -0.78222363563E-01  0.12988375476E-01 -0.23525158469E-01  0.82711125375E-01  0.51100000000E-03 0. -1.
</event>
<event>
 8    1  0.1076043E+005  0.1043930E+01  0.7957747E-01            NaN
         13   -1    0    0    0    0  0.00000000000E+00  0.00000000000E+00  0.74505805969E-08  0.10566000000E+00  0.10566000000E+00 0.  1.
     999900   -1    0    0    0    0 -0.00000000000E+00 -0.00000000000E+00 -0.74505805969E-08  0.93827000000E+00  0.93827000000E+00 0.  1.
     999902    2    1    2    0    0  0.23034558247E-01  0.33115938208E-02 -0.19968720247E-02  0.10205730947E+01  0.10203057858E+01 0.  0.
     999903    2    3    3    0    0 -0.11597219579E+00  0.43595760975E-01 -0.26511197301E-01  0.12841467607E+00  0.20912792184E-01 0.  0.
         14    1    1    2    0    0 -0.23034558247E-01 -0.33115938208E-02  0.19968720247E-02  0.23356905299E-01  0.00000000000E+00 0.  1.
     999901    1    3    3    0    0  0.13900675403E+00 -0.40284167154E-01  0.24514325276E-01  0.89215841863E+00  0.88000000000E+00 0.  1.
        -11    1    4    4    0    0 -0.51523133515E-01  0.24509635340E-01 -0.21628862036E-01  0.61019868123E-01  0.51100000000E-03 0. -1.
         11    1    4    4    0    0 -0.64449062273E-01  0.19086125634E-01 -0.48823352647E-02  0.67394807947E-01  0.51100000000E-03 0.  1.
</event>
<event>
 8    1  0.1076043E+005  0.1043930E+01  0.7957747E-01            NaN
         13   -1    0    0    0    0  0.00000000000E+00  0.00000000000E+00  0.74505805969E-08  0.10566000000E+00  0.10566000000E+00 0.  1.
     999900   -1    0    0    0    0 -0.00000000000E+00 -0.00000000000E+00 -0.74505805969E-08  0.93827000000E+00  0.93827000000E+00 0. -1.
     999902    2    1    2    0    0  0.90426231362E-03 -0.20348633537E-01 -0.10344460925E-01  0.10210850345E+01  0.10208294447E+01 0.  0.
     999903    2    3    3    0    0 -0.87798427723E-01  0.77377279292E-01 -0.53414271675E-01  0.13020146755E+00  0.20088067883E-01 0.  0.
         14    1    1    2    0    0 -0.90426231362E-03  0.20348633537E-01  0.10344460925E-01  0.22844965506E-01  0.00000000000E+00 0.  1.
     999901    1    3    3    0    0  0.88702690037E-01 -0.97725912830E-01  0.43069810751E-01  0.89088356695E+00  0.88000000000E+00 0.  1.
        -11    1    4    4    0    0 -0.14175989691E-01  0.22547466482E-01 -0.15983372907E-01  0.31065676541E-01  0.51100000000E-03 0.  1.
         11    1    4    4    0    0 -0.73622438033E-01  0.54829812811E-01 -0.37430898768E-01  0.99135791006E-01  0.51100000000E-03 0. -1.
</event>
<event>
 8    1  0.1076043E+005  0.1043930E+01  0.7957747E-01            NaN
         13   -1    0    0    0    0  0.00000000000E+00  0.00000000000E+00  0.74505805969E-08  0.10566000000E+00  0.10566000000E+00 0.  1.
     999900   -1    0    0    0    0 -0.00000000000E+00 -0.00000000000E+00 -0.74505805969E-08  0.93827000000E+00  0.93827000000E+00 0. -1.
     999902    2    1    2    0    0 -0.39266642646E-03 -0.13162279332E-01  0.20171588373E-01  0.10198407335E+01  0.10195561921E+01 0.  0.
     999903    2    3    3    0    0 -0.43356972531E-01  0.11621040874E+00  0.15808420255E-01  0.12933398940E+00  0.33055839064E-01 0.  0.
         14    1    1    2    0    0  0.39266642646E-03  0.13162279332E-01 -0.20171588373E-01  0.24089266523E-01  0.00000000000E+00 0. -1.
     999901    1    3    3    0    0  0.42964306105E-01 -0.12937268807E+00  0.43631681180E-02  0.89050674408E+00  0.88000000000E+00 0. -1.
        -11    1    4    4    0    0 -0.13748931102E-01  0.77437321938E-01  0.21875463727E-02  0.78680483066E-01  0.51100000000E-03 0. -1.
         11    1    4    4    0    0 -0.29608041429E-01  0.38773086799E-01  0.13620873882E-01  0.50653506330E-01  0.51100000000E-03 0.  1.
</event>
<event>
 8    1  0.1076043E+005  0.1043930E+01  0.7957747E-01            NaN
         13   -1    0    0    0    0  0.00000000000E+00  0.00000000000E+00  0.74505805969E-08  0.10566000000E+00  0.10566000000E+00 0.  1.
     999900   -1    0    0    0    0 -0.00000000000E+00 -0.00000000000E+00 -0.74505805969E-08  0.93827000000E+00  0.93827000000E+00 0.  1.
     999902    2    1    2    0    0  0.20136886404E-01 -0.56298101501E-02  0.11621349548E-01  0.10200083629E+01  0.10197278145E+01 0.  0.
     999903    2    3    3    0    0  0.74451803202E-01  0.10496422681E+00 -0.15468547023E-01  0.13101172978E+00  0.19085006746E-01 0.  0.
         14    1    1    2    0    0 -0.20136886404E-01  0.56298101501E-02 -0.11621349548E-01  0.23921637103E-01  0.00000000000E+00 0.  1.
     999901    1    3    3    0    0 -0.54314916798E-01 -0.11059403696E+00  0.27089896571E-01  0.88899663312E+00  0.88000000000E+00 0.  1.
        -11    1    4    4    0    0  0.44306820062E-01  0.77505983516E-01 -0.12093132942E-01  0.90093156067E-01  0.51100000000E-03 0.  1.
         11    1    4    4    0    0  0.30144983140E-01  0.27458243295E-01 -0.33754140810E-02  0.40918573712E-01  0.51100000000E-03 0. -1.
</event>
<event>
 8    1  0.1076043E+005  0.1043930E+01  0.7957747E-01            NaN
         13   -1    0    0    0    0  0.00000000000E+00  0.00000000000E+00  0.74505805969E-08  0.10566000000E+00  0.10566000000E+00 0.  1.
     999900   -1    0    0    0    0 -0.00000000000E+00 -0.00000000000E+00 -0.74505805969E-08  0.93827000000E+00  0.93827000000E+00 0. -1.
     999902    2    1    2    0    0 -0.11440423535E-02 -0.23210397616E-01  0.10951567254E-01  0.10182401535E+01  0.10179160289E+01 0.  0.
     999903    2    3    3    0    0  0.26673693192E-02 -0.43512008223E-01  0.12192003915E+00  0.13103066071E+00  0.20102944567E-01 0.  0.
         14    1    1    2    0    0  0.11440423535E-02  0.23210397616E-01 -0.10951567254E-01  0.25689846549E-01  0.00000000000E+00 0. -1.
     999901    1    3    3    0    0 -0.38114116727E-02  0.20301610607E-01 -0.11096847190E+00  0.88720949274E+00  0.88000000000E+00 0. -1.
        -11    1    4    4    0    0 -0.52324135595E-02 -0.20779284870E-02  0.18298690388E-01  0.19152000663E-01  0.51100000000E-03 0.  1.
         11    1    4    4    0    0  0.78997828786E-02 -0.41434079736E-01  0.10362134877E+00  0.11187866005E+00  0.51100000000E-03 0. -1.
</event>
<event>
 8    1  0.1076043E+005  0.1043930E+01  0.7957747E-01            NaN
         13   -1    0    0    0    0  0.00000000000E+00  0.00000000000E+00  0.74505805969E-08  0.10566000000E+00  0.10566000000E+00 0.  1.
     999900   -1    0    0    0    0 -0.00000000000E+00 -0.00000000000E+00 -0.74505805969E-08  0.93827000000E+00  0.93827000000E+00 0.  1.
     999902    2    1    2    0    0 -0.51456748895E-02 -0.12891662398E-01 -0.19173538412E-01  0.10202593958E+01  0.10199847730E+01 0.  0.
     999903    2    3    3    0    0  0.12737399648E+00 -0.10627798066E-01 -0.15261416815E-01  0.13032575045E+00  0.20366769875E-01 0.  0.
         14    1    1    2    0    0  0.51456748895E-02  0.12891662398E-01  0.19173538412E-01  0.23670604232E-01  0.00000000000E+00 0.  1.
     999901    1    3    3    0    0 -0.13251967137E+00 -0.22638643319E-02 -0.39121215971E-02  0.88993364532E+00  0.88000000000E+00 0. -1.
        -11    1    4    4    0    0  0.41736293277E-01  0.56461811679E-02 -0.77948868821E-02  0.42834786339E-01  0.51100000000E-03 0.  1.
         11    1    4    4    0    0  0.85637703203E-01 -0.16273979234E-01 -0.74665299329E-02  0.87490964107E-01  0.51100000000E-03 0. -1.
</event>
<event>
 8    1  0.1076043E+005  0.1043930E+01  0.7957747E-01            NaN
         13   -1    0    0    0    0  0.00000000000E+00  0.00000000000E+00  0.74505805969E-08  0.10566000000E+00  0.10566000000E+00 0. -1.
     999900   -1    0    0    0    0 -0.00000000000E+00 -0.00000000000E+00 -0.74505805969E-08  0.93827000000E+00  0.93827000000E+00 0. -1.
     999902    2    1    2    0    0  0.14555458849E-01 -0.18528496934E-01  0.45990741108E-03  0.10203635388E+01  0.10200913553E+01 0.  0.
     999903    2    3    3    0    0  0.63563202821E-01  0.70661020869E-01  0.87520673863E-01  0.13023090475E+00  0.16338897647E-01 0.  0.
         14    1    1    2    0    0 -0.14555458849E-01  0.18528496934E-01 -0.45990741108E-03  0.23566461248E-01  0.00000000000E+00 0. -1.
     999901    1    3    3    0    0 -0.49007743973E-01 -0.89189517803E-01 -0.87060766451E-01  0.89013263400E+00  0.88000000000E+00 0.  1.
        -11    1    4    4    0    0  0.18833707699E-01  0.20813439356E-01  0.16291628108E-01  0.32458990602E-01  0.51100000000E-03 0. -1.
         11    1    4    4    0    0  0.44729495122E-01  0.49847581513E-01  0.71229045755E-01  0.97771914151E-01  0.51100000000E-03 0.  1.
</event>
<event>
 8    1  0.1076043E+005  0.1043930E+01  0.7957747E-01            NaN
         13   -1    0    0    0    0  0.00000000000E+00  0.00000000000E+00  0.74505805969E-08  0.10566000000E+00  0.10566000000E+00 0.  1.
     999900   -1    0    0    0    0 -0.00000000000E+00 -0.00000000000E+00 -0.74505805969E-08  0.93827000000E+00  0.93827000000E+00 0.  1.
     999902    2    1    2    0    0 -0.16903601325E-01 -0.25698124164E-02  0.16092429365E-01  0.10204501798E+01  0.10201800172E+01 0.  0.
     999903    2    3    3    0    0  0.52074205389E-01 -0.11727562251E+00 -0.14163051125E-01  0.12981515086E+00  0.13641366196E-01 0.  0.
         14    1    1    2    0    0  0.16903601325E-01  0.25698124164E-02 -0.16092429365E-01  0.23479820197E-01  0.00000000000E+00 0.  1.
     999901    1    3    3    0    0 -0.68977806714E-01  0.11470581010E+00  0.30255480491E-01  0.89063502895E+00  0.88000000000E+00 0. -1.
        -11    1    4    4    0    0  0.19034758284E-01 -0.36740763044E-01 -0.10473805137E-01  0.42686852859E-01  0.51100000000E-03 0. -1.
         11    1    4    4    0    0  0.33039447105E-01 -0.80534859470E-01 -0.36892459879E-02  0.87128297996E-01  0.51100000000E-03 0.  1.
</event>
<event>
 8    1  0.1076043E+005  0.1043930E+01  0.7957747E-01            NaN
         13   -1    0    0    0    0  0.00000000000E+00  0.00000000000E+00  0.74505805969E-08  0.10566000000E+00  0.10566000000E+00 0. -1.
     999900   -1    0    0    0    0 -0.00000000000E+00 -0.00000000000E+00 -0.74505805969E-08  0.93827000000E+00  0.93827000000E+00 0.  1.
     999902    2    1    2    0    0  0.22643688947E-01 -0.82601009533E-03  0.83397621224E-02  0.10197852164E+01  0.10194993463E+01 0.  0.
     999903    2    3    3    0    0  0.87965116418E-01  0.92671981061E-01  0.28518130791E-01  0.13219526053E+00  0.18339720352E-01 0.  0.
         14    1    1    2    0    0 -0.22643688947E-01  0.82601009533E-03 -0.83397621224E-02  0.24144783579E-01  0.00000000000E+00 0. -1.
     999901    1    3    3    0    0 -0.65321427470E-01 -0.93497991156E-01 -0.20178368669E-01  0.88758995589E+00  0.88000000000E+00 0. -1.
        -11    1    4    4    0    0  0.53616883004E-01  0.66521688684E-01  0.24228121511E-01  0.88809730330E-01  0.51100000000E-03 0. -1.
         11    1    4    4    0    0  0.34348233414E-01  0.26150292377E-01  0.42900092802E-02  0.43385530199E-01  0.51100000000E-03 0.  1.
</event>
<event>
 8    1  0.1076043E+005  0.1043930E+01  0.7957747E-01            NaN
         13   -1    0    0    0    0  0.00000000000E+00  0.00000000000E+00  0.74505805969E-08  0.10566000000E+00  0.10566000000E+00 0.  1.
     999900   -1    0    0    0    0 -0.00000000000E+00 -0.00000000000E+00 -0.74505805969E-08  0.93827000000E+00  0.93827000000E+00 0.  1.
     999902    2    1    2    0    0  0.19514240340E-01 -0.13142169757E-01  0.25991872223E-02  0.10202598083E+01  0.10199851952E+01 0.  0.
     999903    2    3    3    0    0 -0.23257981775E-01  0.74061008685E-01  0.10151543290E+00  0.12940724978E+00  0.20368761753E-01 0.  0.
         14    1    1    2    0    0 -0.19514240340E-01  0.13142169757E-01 -0.25991872223E-02  0.23670191723E-01  0.00000000000E+00 0. -1.
     999901    1    3    3    0    0  0.42772222115E-01 -0.87203178442E-01 -0.98916245681E-01  0.89085255849E+00  0.88000000000E+00 0.  1.
        -11    1    4    4    0    0 -0.15006482431E-01  0.49063575460E-01  0.50470102054E-01  0.71971669942E-01  0.51100000000E-03 0. -1.
         11    1    4    4    0    0 -0.82514993445E-02  0.24997433224E-01  0.51045330849E-01  0.57435579842E-01  0.51100000000E-03 0.  1.
</event>
<event>
 8    1  0.1076043E+005  0.1043930E+01  0.7957747E-01            NaN
         13   -1    0    0    0    0  0.00000000000E+00  0.00000000000E+00  0.74505805969E-08  0.10566000000E+00  0.10566000000E+00 0.  1.
     999900   -1    0    0    0    0 -0.00000000000E+00 -0.00000000000E+00 -0.74505805969E-08  0.93827000000E+00  0.93827000000E+00 0.  1.
     999902    2    1    2    0    0 -0.23454676609E-01 -0.49227904012E-03 -0.66133539337E-02  0.10195558201E+01  0.10192644258E+01 0.  0.
     999903    2    3    3    0    0  0.62031787692E-01  0.91595348698E-01 -0.62828986074E-01  0.12885482426E+00  0.20455650998E-01 0.  0.
         14    1    1    2    0    0  0.23454676609E-01  0.49227904012E-03  0.66133539337E-02  0.24374179858E-01  0.00000000000E+00 0.  1.
     999901    1    3    3    0    0 -0.85486464300E-01 -0.92087627738E-01  0.56215632141E-01  0.89070099588E+00  0.88000000000E+00 0.  1.
        -11    1    4    4    0    0  0.46742551949E-01  0.70229008405E-01 -0.57351258203E-01  0.10201180188E+00  0.51100000000E-03 0. -1.
         11    1    4    4    0    0  0.15289235743E-01  0.21366340293E-01 -0.54777278709E-02  0.26843022385E-01  0.51100000000E-03 0.  1.
</event>
<event>
 8    1  0.1076043E+005  0.1043930E+01  0.7957747E-01            NaN
         13   -1    0    0    0    0  0.00000000000E+00  0.00000000000E+00  0.74505805969E-08  0.10566000000E+00  0.10566000000E+00 0. -1.
     999900   -1    0    0    0    0 -0.00000000000E+00 -0.00000000000E+00 -0.74505805969E-08  0.93827000000E+00  0.93827000000E+00 0.  1.
     999902    2    1    2    0    0  0.99622280039E-02 -0.82730644592E-02  0.19802105489E-01  0.10202696331E+01  0.10199952506E+01 0.  0.
     999903    2    3    3    0    0 -0.22047462390E-01  0.83144129378E-01  0.97644391445E-01  0.13153955868E+00  0.19214355810E-01 0.  0.
         14    1    1    2    0    0 -0.99622280039E-02  0.82730644592E-02 -0.19802105489E-01  0.23660366949E-01  0.00000000000E+00 0.  1.
     999901    1    3    3    0    0  0.32009690394E-01 -0.91417193838E-01 -0.77842285956E-01  0.88873007437E+00  0.88000000000E+00 0.  1.
        -11    1    4    4    0    0 -0.15869303979E-01  0.63572127280E-01  0.60936678349E-01  0.89480668666E-01  0.51100000000E-03 0.  1.
         11    1    4    4    0    0 -0.61781584105E-02  0.19572002098E-01  0.36707713096E-01  0.42058890014E-01  0.51100000000E-03 0. -1.
</event>
<event>
 8    1  0.1076043E+005  0.1043930E+01  0.7957747E-01            NaN
         13   -1    0    0    0    0  0.00000000000E+00  0.00000000000E+00  0.74505805969E-08  0.10566000000E+00  0.10566000000E+00 0.  1.
     999900   -1    0    0    0    0 -0.00000000000E+00 -0.00000000000E+00 -0.74505805969E-08  0.93827000000E+00  0.93827000000E+00 0.  1.
     999902    2    1    2    0    0  0.17375121095E-01  0.14100752148E-01  0.72716260200E-02  0.10204012391E+01  0.10201299359E+01 0.  0.
     999903    2    3    3    0    0  0.22278403065E-01  0.11956432684E+00 -0.48123310367E-01  0.13236114613E+00  0.20289517197E-01 0.  0.
         14    1    1    2    0    0 -0.17375121095E-01 -0.14100752148E-01 -0.72716260200E-02  0.23528760893E-01  0.00000000000E+00 0. -1.
     999901    1    3    3    0    0 -0.49032819700E-02 -0.10546357469E+00  0.55394936387E-01  0.88804009298E+00  0.88000000000E+00 0. -1.
        -11    1    4    4    0    0  0.18436574640E-01  0.62067326294E-01 -0.17359870432E-01  0.67036456501E-01  0.51100000000E-03 0. -1.
         11    1    4    4    0    0  0.38418284252E-02  0.57497000544E-01 -0.30763439935E-01  0.65324689627E-01  0.51100000000E-03 0.  1.
</event>
<event>
 8    1  0.1076043E+005  0.1043930E+01  0.7957747E-01            NaN
         13   -1    0    0    0    0  0.00000000000E+00  0.00000000000E+00  0.74505805969E-08  0.10566000000E+00  0.10566000000E+00 0.  1.
     999900   -1    0    0    0    0 -0.00000000000E+00 -0.00000000000E+00 -0.74505805969E-08  0.93827000000E+00  0.93827000000E+00 0. -1.
     999902    2    1    2    0    0  0.18326163338E-01 -0.93458512650E-02  0.97649623776E-02  0.10211583578E+01  0.10209044245E+01 0.  0.
     999903    2    3    3    0    0  0.52972237373E-02  0.11934361483E+00  0.49602174859E-01  0.13081138304E+00  0.19500851356E-01 0.  0.
         14    1    1    2    0    0 -0.18326163338E-01  0.93458512650E-02 -0.97649623776E-02  0.22771642207E-01  0.00000000000E+00 0.  1.
     999901    1    3    3    0    0  0.13028939601E-01 -0.12868946609E+00 -0.39837212482E-01  0.89034697475E+00  0.88000000000E+00 0. -1.
        -11    1    4    4    0    0 -0.31062042287E-02  0.12497582074E-01  0.10838362298E-01  0.16839515453E-01  0.51100000000E-03 0.  1.
         11    1    4    4    0    0  0.84034279660E-02  0.10684603275E+00  0.38763812561E-01  0.11397186759E+00  0.51100000000E-03 0. -1.
</event>
<event>
 8    1  0.1076043E+005  0.1043930E+01  0.7957747E-01            NaN
         13   -1    0    0    0    0  0.00000000000E+00  0.00000000000E+00  0.74505805969E-08  0.10566000000E+00  0.10566000000E+00 0.  1.
     999900   -1    0    0    0    0 -0.00000000000E+00 -0.00000000000E+00 -0.74505805969E-08  0.93827000000E+00  0.93827000000E+00 0.  1.
     999902    2    1    2    0    0  0.20641646141E-01  0.10977274638E-01 -0.45338622859E-02  0.10201154242E+01  0.10198374109E+01 0.  0.
     999903    2    3    3    0    0 -0.65573040027E-01  0.10870043901E+00  0.20453807346E-01  0.13016757594E+00  0.20239332277E-01 0.  0.
         14    1    1    2    0    0 -0.20641646141E-01 -0.10977274638E-01  0.45338622859E-02  0.23814575812E-01  0.00000000000E+00 0. -1.
     999901    1    3    3    0    0  0.86214686168E-01 -0.97723164376E-01 -0.24987669632E-01  0.88994784825E+00  0.88000000000E+00 0.  1.
        -11    1    4    4    0    0 -0.50925567460E-01  0.94723491114E-01  0.22290101963E-01  0.10983197602E+00  0.51100000000E-03 0.  1.
         11    1    4    4    0    0 -0.14647472568E-01  0.13976947901E-01 -0.18362946167E-02  0.20335599921E-01  0.51100000000E-03 0. -1.
</event>
<event>
 8    1  0.1076043E+005  0.1043930E+01  0.7957747E-01            NaN
         13   -1    0    0    0    0  0.00000000000E+00  0.00000000000E+00  0.74505805969E-08  0.10566000000E+00  0.10566000000E+00 0.  1.
     999900   -1    0    0    0    0 -0.00000000000E+00 -0.00000000000E+00 -0.74505805969E-08  0.93827000000E+00  0.93827000000E+00 0.  1.
     999902    2    1    2    0    0 -0.21936429611E-01 -0.16804160746E-02 -0.96677543194E-02  0.10198988491E+01  0.10196156953E+01 0.  0.
     999903    2    3    3    0    0 -0.11286174755E+00 -0.63933884858E-02 -0.67636772224E-01  0.13330422207E+00  0.20411594451E-01 0.  0.
         14    1    1    2    0    0  0.21936429611E-01  0.16804160746E-02  0.96677543194E-02  0.24031150948E-01  0.00000000000E+00 0.  1.
     999901    1    3    3    0    0  0.90925317944E-01  0.47129724113E-02  0.57969017905E-01  0.88659462698E+00  0.88000000000E+00 0. -1.
        -11    1    4    4    0    0 -0.92695298196E-01  0.25028318655E-02 -0.52499528622E-01  0.10656051849E+00  0.51100000000E-03 0.  1.
         11    1    4    4    0    0 -0.20166449359E-01 -0.88962203513E-02 -0.15137243602E-01  0.26743703580E-01  0.51100000000E-03 0. -1.
</event>
<event>
 8    1  0.1076043E+005  0.1043930E+01  0.7957747E-01            NaN
         13   -1    0    0    0    0  0.00000000000E+00  0.00000000000E+00  0.74505805969E-08  0.10566000000E+00  0.10566000000E+00 0.  1.
     999900   -1    0    0    0    0 -0.00000000000E+00 -0.00000000000E+00 -0.74505805969E-08  0.93827000000E+00  0.93827000000E+00 0. -1.
     999902    2    1    2    0    0 -0.23050529611E-01 -0.14863253950E-02  0.56325846721E-02  0.10201547589E+01  0.10198776741E+01 0.  0.
     999903    2    3    3    0    0 -0.67167492459E-01 -0.70516706738E-01  0.87665411762E-01  0.13255074547E+00  0.20009940866E-01 0.  0.
         14    1    1    2    0    0  0.23050529611E-01  0.14863253950E-02 -0.56325846721E-02  0.23775241084E-01  0.00000000000E+00 0.  1.
     999901    1    3    3    0    0  0.44116962848E-01  0.69030381343E-01 -0.82032827090E-01  0.88760401344E+00  0.88000000000E+00 0. -1.
        -11    1    4    4    0    0 -0.20598323219E-01 -0.14293165119E-01  0.32475137466E-01  0.41030246928E-01  0.51100000000E-03 0. -1.
         11    1    4    4    0    0 -0.46569169240E-01 -0.56223541620E-01  0.55190274297E-01  0.91520498545E-01  0.51100000000E-03 0.  1.
</event>
<event>
 8    1  0.1076043E+005  0.1043930E+01  0.7957747E-01            NaN
         13   -1    0    0    0    0  0.00000000000E+00  0.00000000000E+00  0.74505805969E-08  0.10566000000E+00  0.10566000000E+00 0.  1.
     999900   -1    0    0    0    0 -0.00000000000E+00 -0.00000000000E+00 -0.74505805969E-08  0.93827000000E+00  0.93827000000E+00 0. -1.
     999902    2    1    2    0    0 -0.28069945932E-02  0.93256835695E-02  0.21630136827E-01  0.10202084821E+01  0.10199326627E+01 0.  0.
     999903    2    3    3    0    0 -0.45454500644E-01 -0.74969814929E-01  0.96678352444E-01  0.13197609386E+00  0.19606140357E-01 0.  0.
         14    1    1    2    0    0  0.28069945932E-02 -0.93256835695E-02 -0.21630136827E-01  0.23721517908E-01  0.00000000000E+00 0. -1.
     999901    1    3    3    0    0  0.42647506051E-01  0.84295498499E-01 -0.75048215616E-01  0.88823238823E+00  0.88000000000E+00 0. -1.
        -11    1    4    4    0    0 -0.35899506584E-01 -0.42274356973E-01  0.65120402567E-01  0.85538434530E-01  0.51100000000E-03 0. -1.
         11    1    4    4    0    0 -0.95549940597E-02 -0.32695457957E-01  0.31557949877E-01  0.46437659328E-01  0.51100000000E-03 0.  1.
</event>
<event>
 8    1  0.1076043E+005  0.1043930E+01  0.7957747E-01            NaN
         13   -1    0    0    0    0  0.00000000000E+00  0.00000000000E+00  0.74505805969E-08  0.10566000000E+00  0.10566000000E+00 0. -1.
     999900   -1    0    0    0    0 -0.00000000000E+00 -0.00000000000E+00 -0.74505805969E-08  0.93827000000E+00  0.93827000000E+00 0. -1.
     999902    2    1    2    0    0  0.72843108799E-03  0.21998082003E-01  0.10008773828E-01  0.10197510468E+01  0.10194643572E+01 0.  0.
     999903    2    3    3    0    0  0.74225257605E-01 -0.10008377689E+00  0.22076934823E-01  0.12820665404E+00  0.20576778792E-01 0.  0.
         14    1    1    2    0    0 -0.72843108799E-03 -0.21998082003E-01 -0.10008773828E-01  0.24178953186E-01  0.00000000000E+00 0.  1.
     999901    1    3    3    0    0 -0.73496826517E-01  0.12208185889E+00 -0.12068160995E-01  0.89154439278E+00  0.88000000000E+00 0.  1.
        -11    1    4    4    0    0  0.40625299917E-01 -0.37830134128E-01  0.82423931005E-02  0.56122475057E-01  0.51100000000E-03 0. -1.
         11    1    4    4    0    0  0.33599957688E-01 -0.62253642762E-01  0.13834541723E-01  0.72084178982E-01  0.51100000000E-03 0.  1.
</event>
<event>
 8    1  0.1076043E+005  0.1043930E+01  0.7957747E-01            NaN
         13   -1    0    0    0    0  0.00000000000E+00  0.00000000000E+00  0.74505805969E-08  0.10566000000E+00  0.10566000000E+00 0. -1.
     999900   -1    0    0    0    0 -0.00000000000E+00 -0.00000000000E+00 -0.74505805969E-08  0.93827000000E+00  0.93827000000E+00 0. -1.
     999902    2    1    2    0    0  0.19082617891E-01  0.89190140767E-02 -0.10295655139E-01  0.10204844112E+01  0.10202150450E+01 0.  0.
     999903    2    3    3    0    0 -0.23114049443E-01 -0.16226335375E-01 -0.12677523184E+00  0.13145103778E+00  0.20245065704E-01 0.  0.
         14    1    1    2    0    0 -0.19082617891E-01 -0.89190140767E-02  0.10295655139E-01  0.23445588762E-01  0.00000000000E+00 0.  1.
     999901    1    3    3    0    0  0.42196667333E-01  0.25145349452E-01  0.11647957670E+00  0.88903337346E+00  0.88000000000E+00 0.  1.
        -11    1    4    4    0    0 -0.92600950463E-02 -0.72169315770E-02 -0.94099898877E-01  0.94830825955E-01  0.51100000000E-03 0. -1.
         11    1    4    4    0    0 -0.13853954396E-01 -0.90094037981E-02 -0.32675332958E-01  0.36620211825E-01  0.51100000000E-03 0.  1.
</event>
<event>
 8    1  0.1076043E+005  0.1043930E+01  0.7957747E-01            NaN
         13   -1    0    0    0    0  0.00000000000E+00  0.00000000000E+00  0.74505805969E-08  0.10566000000E+00  0.10566000000E+00 0.  1.
     999900   -1    0    0    0    0 -0.00000000000E+00 -0.00000000000E+00 -0.74505805969E-08  0.93827000000E+00  0.93827000000E+00 0.  1.
     999902    2    1    2    0    0  0.11544595213E-01  0.51425627723E-02 -0.19293372479E-01  0.10208657885E+01  0.10206052127E+01 0.  0.
     999903    2    3    3    0    0  0.12995497830E+00  0.48054850609E-02 -0.20171124529E-01  0.13293453953E+00  0.18797033370E-01 0.  0.
         14    1    1    2    0    0 -0.11544595213E-01 -0.51425627723E-02  0.19293372479E-01  0.23064211500E-01  0.00000000000E+00 0.  1.
     999901    1    3    3    0    0 -0.11841038309E+00  0.33707771141E-03  0.87775204993E-03  0.88793124897E+00  0.88000000000E+00 0.  1.
        -11    1    4    4    0    0  0.87150503055E-01  0.20374808166E-02 -0.45935298345E-02  0.87296753365E-01  0.51100000000E-03 0. -1.
         11    1    4    4    0    0  0.42804475248E-01  0.27680042443E-02 -0.15577594694E-01  0.45637786167E-01  0.51100000000E-03 0.  1.
</event>
<event>
 8    1  0.1076043E+005  0.1043930E+01  0.7957747E-01            NaN
         13   -1    0    0    0    0  0.00000000000E+00  0.00000000000E+00  0.74505805969E-08  0.10566000000E+00  0.10566000000E+00 0. -1.
     999900   -1    0    0    0    0 -0.00000000000E+00 -0.00000000000E+00 -0.74505805969E-08  0.93827000000E+00  0.93827000000E+00 0. -1.
     999902    2    1    2    0    0 -0.17735267951E-01  0.15256065555E-01 -0.45332274714E-02  0.10201006606E+01  0.10198222984E+01 0.  0.
     999903    2    3    3    0    0 -0.46258103097E-01  0.10612053352E+00  0.61679948500E-01  0.13248920937E+00  0.18643894845E-01 0.  0.
         14    1    1    2    0    0  0.17735267951E-01 -0.15256065555E-01  0.45332274714E-02  0.23829339412E-01  0.00000000000E+00 0.  1.
     999901    1    3    3    0    0  0.28522835147E-01 -0.90864467966E-01 -0.66213175971E-01  0.88761145122E+00  0.88000000000E+00 0. -1.
        -11    1    4    4    0    0 -0.14953833506E-01  0.29924359140E-01  0.27475871115E-01  0.43292828748E-01  0.51100000000E-03 0.  1.
         11    1    4    4    0    0 -0.31304269591E-01  0.76196174382E-01  0.34204077385E-01  0.89196380620E-01  0.51100000000E-03 0. -1.
</event>
<event>
 8    1  0.1076043E+005  0.1043930E+01  0.7957747E-01            NaN
         13   -1    0    0    0    0  0.00000000000E+00  0.00000000000E+00  0.74505805969E-08  0.10566000000E+00  0.10566000000E+00 0.  1.
     999900   -1    0    0    0    0 -0.00000000000E+00 -0.00000000000E+00 -0.74505805969E-08  0.93827000000E+00  0.93827000000E+00 0. -1.
     999902    2    1    2    0    0 -0.23959869741E-01 -0.23863856997E-02 -0.39231711255E-02  0.10195340687E+01  0.10192421477E+01 0.  0.
     999903    2    3    3    0    0 -0.93350731630E-01 -0.19413449941E-01  0.88670990335E-01  0.13179610542E+00  0.20406561236E-01 0.  0.
         14    1    1    2    0    0  0.23959869741E-01  0.23863856997E-02  0.39231711255E-02  0.24395931350E-01  0.00000000000E+00 0.  1.
     999901    1    3    3    0    0  0.69390861889E-01  0.17027064242E-01 -0.92594161460E-01  0.88773796323E+00  0.88000000000E+00 0. -1.
        -11    1    4    4    0    0 -0.59435910519E-01 -0.17842317356E-01  0.45914538518E-01  0.77197031783E-01  0.51100000000E-03 0.  1.
         11    1    4    4    0    0 -0.33914821111E-01 -0.15711325850E-02  0.42756451817E-01  0.54599073633E-01  0.51100000000E-03 0. -1.
</event>
<event>
 8    1  0.1076043E+005  0.1043930E+01  0.7957747E-01            NaN
         13   -1    0    0    0    0  0.00000000000E+00  0.00000000000E+00  0.74505805969E-08  0.10566000000E+00  0.10566000000E+00 0.  1.
     999900   -1    0    0    0    0 -0.00000000000E+00 -0.00000000000E+00 -0.74505805969E-08  0.93827000000E+00  0.93827000000E+00 0.  1.
     999902    2    1    2    0    0 -0.12280564021E-01 -0.17781538002E-01 -0.10509271200E-01  0.10199000161E+01  0.10196168901E+01 0.  0.
     999903    2    3    3    0    0 -0.18397644934E-01 -0.11310234094E+00  0.62028236983E-01  0.13176423577E+00  0.19588230653E-01 0.  0.
         14    1    1    2    0    0  0.12280564021E-01  0.17781538002E-01  0.10509271200E-01  0.24029983928E-01  0.00000000000E+00 0. -1.
     999901    1    3    3    0    0  0.61170809125E-02  0.95320802940E-01 -0.72537508183E-01  0.88813578030E+00  0.88000000000E+00 0. -1.
        -11    1    4    4    0    0 -0.16996285801E-01 -0.90295925678E-01  0.40665639427E-01  0.10047976551E+00  0.51100000000E-03 0. -1.
         11    1    4    4    0    0 -0.14013591331E-02 -0.22806415265E-01  0.21362597556E-01  0.31284470268E-01  0.51100000000E-03 0.  1.
</event>
<event>
 8    1  0.1076043E+005  0.1043930E+01  0.7957747E-01            NaN
         13   -1    0    0    0    0  0.00000000000E+00  0.00000000000E+00  0.74505805969E-08  0.10566000000E+00  0.10566000000E+00 0.  1.
     999900   -1    0    0    0    0 -0.00000000000E+00 -0.00000000000E+00 -0.74505805969E-08  0.93827000000E+00  0.93827000000E+00 0.  1.
     999902    2    1    2    0    0  0.11438380673E-01  0.21679662442E-02 -0.21415765595E-01  0.10195543637E+01  0.10192629341E+01 0.  0.
     999903    2    3    3    0    0 -0.58230409151E-01 -0.65198876114E-01 -0.95436319687E-01  0.13114506940E+00  0.21195851415E-01 0.  0.
         14    1    1    2    0    0 -0.11438380673E-01 -0.21679662442E-02  0.21415765595E-01  0.24375636322E-01  0.00000000000E+00 0.  1.
     999901    1    3    3    0    0  0.69668789824E-01  0.67366842358E-01  0.74020554092E-01  0.88840929427E+00  0.88000000000E+00 0. -1.
        -11    1    4    4    0    0 -0.21183396933E-01 -0.22088024675E-01 -0.48861544716E-01  0.57656992748E-01  0.51100000000E-03 0. -1.
         11    1    4    4    0    0 -0.37047012218E-01 -0.43110851439E-01 -0.46574774971E-01  0.73488076656E-01  0.51100000000E-03 0.  1.
</event>
<event>
 8    1  0.1076043E+005  0.1043930E+01  0.7957747E-01            NaN
         13   -1    0    0    0    0  0.00000000000E+00  0.00000000000E+00  0.74505805969E-08  0.10566000000E+00  0.10566000000E+00 0. -1.
     999900   -1    0    0    0    0 -0.00000000000E+00 -0.00000000000E+00 -0.74505805969E-08  0.93827000000E+00  0.93827000000E+00 0.  1.
     999902    2    1    2    0    0 -0.11514283905E-01 -0.19157165902E-01  0.74807138537E-02  0.10203601714E+01  0.10200879093E+01 0.  0.
     999903    2    3    3    0    0  0.11628697230E+00 -0.34108134175E-01  0.43576611890E-01  0.13027050943E+00  0.19633129654E-01 0.  0.
         14    1    1    2    0    0  0.11514283905E-01  0.19157165902E-01 -0.74807138537E-02  0.23569828574E-01  0.00000000000E+00 0. -1.
     999901    1    3    3    0    0 -0.12780125620E+00  0.14950968273E-01 -0.36095898036E-01  0.89008966200E+00  0.88000000000E+00 0.  1.
        -11    1    4    4    0    0  0.67523181573E-02 -0.25039460587E-02  0.81521091282E-02  0.10889515627E-01  0.51100000000E-03 0.  1.
         11    1    4    4    0    0  0.10953465414E+00 -0.31604188117E-01  0.35424502762E-01  0.11938099380E+00  0.51100000000E-03 0. -1.
</event>
<event>
 8    1  0.1076043E+005  0.1043930E+01  0.7957747E-01            NaN
         13   -1    0    0    0    0  0.00000000000E+00  0.00000000000E+00  0.74505805969E-08  0.10566000000E+00  0.10566000000E+00 0.  1.
     999900   -1    0    0    0    0 -0.00000000000E+00 -0.00000000000E+00 -0.74505805969E-08  0.93827000000E+00  0.93827000000E+00 0.  1.
     999902    2    1    2    0    0 -0.10516043199E-02 -0.16207531088E-01 -0.16167512086E-01  0.10210132292E+01  0.10207560119E+01 0.  0.
     999903    2    3    3    0    0  0.83981329446E-01  0.18689739175E-01 -0.98637287976E-01  0.13239087793E+00  0.19896229109E-01 0.  0.
         14    1    1    2    0    0  0.10516043199E-02  0.16207531088E-01  0.16167512086E-01  0.22916770773E-01  0.00000000000E+00 0.  1.
     999901    1    3    3    0    0 -0.85032933766E-01 -0.34897270263E-01  0.82469775889E-01  0.88862235130E+00  0.88000000000E+00 0. -1.
        -11    1    4    4    0    0  0.21706111227E-01  0.93571244139E-02 -0.39317175770E-01  0.45878235291E-01  0.51100000000E-03 0. -1.
         11    1    4    4    0    0  0.62275218219E-01  0.93326147609E-02 -0.59320112206E-01  0.86512642635E-01  0.51100000000E-03 0.  1.
</event>
<event>
 8    1  0.1076043E+005  0.1043930E+01  0.7957747E-01            NaN
         13   -1    0    0    0    0  0.00000000000E+00  0.00000000000E+00  0.74505805969E-08  0.10566000000E+00  0.10566000000E+00 0.  1.
     999900   -1    0    0    0    0 -0.00000000000E+00 -0.00000000000E+00 -0.74505805969E-08  0.93827000000E+00  0.93827000000E+00 0. -1.
     999902    2    1    2    0    0 -0.13157512142E-01 -0.13992839587E-01  0.12844105532E-01  0.10208239243E+01  0.10205623909E+01 0.  0.
     999903    2    3    3    0    0 -0.86257265443E-01  0.95449653610E-01  0.13762122986E-01  0.13103626652E+00  0.20740175961E-01 0.  0.
         14    1    1    2    0    0  0.13157512142E-01  0.13992839587E-01 -0.12844105532E-01  0.23106075660E-01  0.00000000000E+00 0. -1.
     999901    1    3    3    0    0  0.73099753301E-01 -0.10944249320E+00 -0.91801745355E-03  0.88978765782E+00  0.88000000000E+00 0. -1.
        -11    1    4    4    0    0 -0.28211912478E-01  0.18704267861E-01  0.70315418428E-02  0.34575502073E-01  0.51100000000E-03 0. -1.
         11    1    4    4    0    0 -0.58045352965E-01  0.76745385749E-01  0.67305811432E-02  0.96460764449E-01  0.51100000000E-03 0.  1.
</event>
<event>
 8    1  0.1076043E+005  0.1043930E+01  0.7957747E-01            NaN
         13   -1    0    0    0    0  0.00000000000E+00  0.00000000000E+00  0.74505805969E-08  0.10566000000E+00  0.10566000000E+00 0.  1.
     999900   -1    0    0    0    0 -0.00000000000E+00 -0.00000000000E+00 -0.74505805969E-08  0.93827000000E+00  0.93827000000E+00 0.  1.
     999902    2    1    2    0    0  0.21943556529E-01  0.17050466971E-02  0.59832606051E-02  0.10211215309E+01  0.10208667663E+01 0.  0.
     999903    2    3    3    0    0  0.92057945544E-01 -0.86573912226E-01  0.37183591494E-01  0.13338133080E+00  0.20934476701E-01 0.  0.
         14    1    1    2    0    0 -0.21943556529E-01 -0.17050466971E-02 -0.59832606051E-02  0.22808469148E-01  0.00000000000E+00 0.  1.
     999901    1    3    3    0    0 -0.70114389014E-01  0.88278958923E-01 -0.31200330888E-01  0.88774020005E+00  0.88000000000E+00 0.  1.
        -11    1    4    4    0    0  0.20836025931E-01 -0.27667423079E-01  0.27501993013E-02  0.34748395554E-01  0.51100000000E-03 0. -1.
         11    1    4    4    0    0  0.71221919613E-01 -0.58906489147E-01  0.34433392192E-01  0.98632935249E-01  0.51100000000E-03 0.  1.
</event>
<event>
 8    1  0.1076043E+005  0.1043930E+01  0.7957747E-01            NaN
         13   -1    0    0    0    0  0.00000000000E+00  0.00000000000E+00  0.74505805969E-08  0.10566000000E+00  0.10566000000E+00 0. -1.
     999900   -1    0    0    0    0 -0.00000000000E+00 -0.00000000000E+00 -0.74505805969E-08  0.93827000000E+00  0.93827000000E+00 0. -1.
     999902    2    1    2    0    0 -0.46043212007E-02 -0.98152244895E-02 -0.22169436006E-01  0.10192516229E+01  0.10189528195E+01 0.  0.
     999903    2    3    3    0    0  0.12450686863E+00 -0.26479717886E-01 -0.20621169174E-02  0.12944731350E+00  0.23435418721E-01 0.  0.
         14    1    1    2    0    0  0.46043212007E-02  0.98152244895E-02  0.22169436006E-01  0.24678377141E-01  0.00000000000E+00 0. -1.
     999901    1    3    3    0    0 -0.12911118983E+00  0.16664493396E-01 -0.20107319089E-01  0.88980430936E+00  0.88000000000E+00 0.  1.
        -11    1    4    4    0    0  0.10570690356E+00 -0.30851414854E-01 -0.13763946903E-02  0.11012681254E+00  0.51100000000E-03 0. -1.
         11    1    4    4    0    0  0.18799965071E-01  0.43716969683E-02 -0.68572222706E-03  0.19320500952E-01  0.51100000000E-03 0.  1.
</event>
<event>
 8    1  0.1076043E+005  0.1043930E+01  0.7957747E-01            NaN
         13   -1    0    0    0    0  0.00000000000E+00  0.00000000000E+00  0.74505805969E-08  0.10566000000E+00  0.10566000000E+00 0. -1.
     999900   -1    0    0    0    0 -0.00000000000E+00 -0.00000000000E+00 -0.74505805969E-08  0.93827000000E+00  0.93827000000E+00 0. -1.
     999902    2    1    2    0    0 -0.17757449960E-01 -0.96348763290E-02  0.13805736604E-01  0.10194605040E+01  0.10191667984E+01 0.  0.
     999903    2    3    3    0    0 -0.10845411772E+00  0.60295313713E-01 -0.36339615559E-01  0.13062380733E+00  0.18552381909E-01 0.  0.
         14    1    1    2    0    0  0.17757449960E-01  0.96348763290E-02 -0.13805736604E-01  0.24469495993E-01  0.00000000000E+00 0.  1.
     999901    1    3    3    0    0  0.90696667764E-01 -0.69930190042E-01  0.50145352162E-01  0.88883669668E+00  0.88000000000E+00 0.  1.
        -11    1    4    4    0    0 -0.62545339353E-01  0.34598916448E-01 -0.11340448173E-01  0.72373139906E-01  0.51100000000E-03 0. -1.
         11    1    4    4    0    0 -0.45908778371E-01  0.25696397265E-01 -0.24999167385E-01  0.58250667420E-01  0.51100000000E-03 0.  1.
</event>
<event>
 8    1  0.1076043E+005  0.1043930E+01  0.7957747E-01            NaN
         13   -1    0    0    0    0  0.00000000000E+00  0.00000000000E+00  0.74505805969E-08  0.10566000000E+00  0.10566000000E+00 0.  1.
     999900   -1    0    0    0    0 -0.00000000000E+00 -0.00000000000E+00 -0.74505805969E-08  0.93827000000E+00  0.93827000000E+00 0.  1.
     999902    2    1    2    0    0  0.10035610587E-01 -0.77403354401E-02  0.19872747813E-01  0.10203598414E+01  0.10200875715E+01 0.  0.
     999903    2    3    3    0    0 -0.61315939722E-01 -0.92196858966E-01 -0.64285172208E-01  0.12945776841E+00  0.19152680423E-01 0.  0.
         14    1    1    2    0    0 -0.10035610587E-01  0.77403354401E-02 -0.19872747813E-01  0.23570158638E-01  0.00000000000E+00 0. -1.
     999901    1    3    3    0    0  0.71351550309E-01  0.84456523526E-01  0.84157920020E-01  0.89090207296E+00  0.88000000000E+00 0.  1.
        -11    1    4    4    0    0 -0.46618787834E-01 -0.76774646473E-01 -0.59116805200E-01  0.10753006788E+00  0.51100000000E-03 0. -1.
         11    1    4    4    0    0 -0.14697151888E-01 -0.15422212493E-01 -0.51683670081E-02  0.21927700526E-01  0.51100000000E-03 0.  1.
</event>
<event>
 8    1  0.1076043E+005  0.1043930E+01  0.7957747E-01            NaN
         13   -1    0    0    0    0  0.00000000000E+00  0.00000000000E+00  0.74505805969E-08  0.10566000000E+00  0.10566000000E+00 0. -1.
     999900   -1    0    0    0    0 -0.00000000000E+00 -0.00000000000E+00 -0.74505805969E-08  0.93827000000E+00  0.93827000000E+00 0.  1.
     999902    2    1    2    0    0 -0.14554814384E-01  0.90893165997E-02  0.16265382219E-01  0.10202863760E+01  0.10200123862E+01 0.  0.
     999903    2    3    3    0    0 -0.32982592390E-01  0.93696251722E-01 -0.82018494704E-01  0.13059112651E+00  0.21451570145E-01 0.  0.
         14    1    1    2    0    0  0.14554814384E-01 -0.90893165997E-02 -0.16265382219E-01  0.23643624019E-01  0.00000000000E+00 0. -1.
     999901    1    3    3    0    0  0.18427778006E-01 -0.84606935122E-01  0.98283876923E-01  0.88969524947E+00  0.88000000000E+00 0. -1.
        -11    1    4    4    0    0 -0.67459630073E-02  0.31765860903E-01 -0.38988660286E-01  0.50744011349E-01  0.51100000000E-03 0.  1.
         11    1    4    4    0    0 -0.26236629383E-01  0.61930390818E-01 -0.43029834418E-01  0.79847115159E-01  0.51100000000E-03 0. -1.
</event>
<event>
 8    1  0.1076043E+005  0.1043930E+01  0.7957747E-01            NaN
         13   -1    0    0    0    0  0.00000000000E+00  0.00000000000E+00  0.74505805969E-08  0.10566000000E+00  0.10566000000E+00 0.  1.
     999900   -1    0    0    0    0 -0.00000000000E+00 -0.00000000000E+00 -0.74505805969E-08  0.93827000000E+00  0.93827000000E+00 0.  1.
     999902    2    1    2    0    0  0.16885020579E-01  0.12391558921E-01  0.11380423511E-01  0.10200937106E+01  0.10198151841E+01 0.  0.
     999903    2    3    3    0    0 -0.40524033745E-01 -0.89150922262E-01  0.82372701472E-01  0.12956208370E+00  0.20272822542E-01 0.  0.
         14    1    1    2    0    0 -0.16885020579E-01 -0.12391558921E-01 -0.11380423511E-01  0.23836289387E-01  0.00000000000E+00 0. -1.
     999901    1    3    3    0    0  0.57409054324E-01  0.10154248118E+00 -0.70992277961E-01  0.89053162691E+00  0.88000000000E+00 0.  1.
        -11    1    4    4    0    0 -0.42428998114E-01 -0.82529355579E-01  0.73895346679E-01  0.11862587321E+00  0.51100000000E-03 0.  1.
         11    1    4    4    0    0  0.19049643685E-02 -0.66215666827E-02  0.84773547932E-02  0.10936210489E-01  0.51100000000E-03 0. -1.
</event>
<event>
 8    1  0.1076043E+005  0.1043930E+01  0.7957747E-01            NaN
         13   -1    0    0    0    0  0.00000000000E+00  0.00000000000E+00  0.74505805969E-08  0.10566000000E+00  0.10566000000E+00 0. -1.
     999900   -1    0    0    0    0 -0.00000000000E+00 -0.00000000000E+00 -0.74505805969E-08  0.93827000000E+00  0.93827000000E+00 0. -1.
     999902    2    1    2    0    0 -0.56534610752E-02 -0.19007506766E-01  0.14828769209E-01  0.10191683496E+01  0.10188675014E+01 0.  0.
     999903    2    3    3    0    0 -0.13724169665E-01 -0.80466529957E-01  0.10257693012E+00  0.13263460086E+00  0.20166692239E-01 0.  0.
         14    1    1    2    0    0  0.56534610752E-02  0.19007506766E-01 -0.14828769209E-01  0.24761650427E-01  0.00000000000E+00 0.  1.
     999901    1    3    3    0    0  0.80707085899E-02  0.61459023191E-01 -0.87748160909E-01  0.88653374872E+00  0.88000000000E+00 0. -1.
        -11    1    4    4    0    0 -0.14505374955E-01 -0.30527553747E-01  0.47263275573E-01  0.58106934003E-01  0.51100000000E-03 0. -1.
         11    1    4    4    0    0  0.78120529020E-03 -0.49938976210E-01  0.55313654546E-01  0.74527666855E-01  0.51100000000E-03 0.  1.
</event>
<event>
 8    1  0.1076043E+005  0.1043930E+01  0.7957747E-01            NaN
         13   -1    0    0    0    0  0.00000000000E+00  0.00000000000E+00  0.74505805969E-08  0.10566000000E+00  0.10566000000E+00 0.  1.
     999900   -1    0    0    0    0 -0.00000000000E+00 -0.00000000000E+00 -0.74505805969E-08  0.93827000000E+00  0.93827000000E+00 0.  1.
     999902    2    1    2    0    0 -0.90353431515E-02  0.90613116037E-02  0.19824582074E-01  0.10203342621E+01  0.10200613940E+01 0.  0.
     999903    2    3    3    0    0  0.12238955117E+00  0.16850075595E-02 -0.35442482076E-01  0.12882915211E+00  0.18940417436E-01 0.  0.
         14    1    1    2    0    0  0.90353431515E-02 -0.90613116037E-02 -0.19824582074E-01  0.23595737926E-01  0.00000000000E+00 0. -1.
     999901    1    3    3    0    0 -0.13142489432E+00  0.73763040442E-02  0.55267064150E-01  0.89150510996E+00  0.88000000000E+00 0. -1.
        -11    1    4    4    0    0  0.49172613173E-01 -0.39373100248E-02 -0.22670973981E-01  0.54292563752E-01  0.51100000000E-03 0. -1.
         11    1    4    4    0    0  0.73216937996E-01  0.56223175843E-02 -0.12771508094E-01  0.74536588361E-01  0.51100000000E-03 0.  1.
</event>
<event>
 8    1  0.1076043E+005  0.1043930E+01  0.7957747E-01            NaN
         13   -1    0    0    0    0  0.00000000000E+00  0.00000000000E+00  0.74505805969E-08  0.10566000000E+00  0.10566000000E+00 0. -1.
     999900   -1    0    0    0    0 -0.00000000000E+00 -0.00000000000E+00 -0.74505805969E-08  0.93827000000E+00  0.93827000000E+00 0.  1.
     999902    2    1    2    0    0 -0.19355819126E-01 -0.32981576207E-02  0.12873741913E-01  0.10204510987E+01  0.10201809574E+01 0.  0.
     999903    2    3    3    0    0 -0.11127690976E-01 -0.15126098673E-01 -0.12655695968E+00  0.12935709529E+00  0.19077989690E-01 0.  0.
         14    1    1    2    0    0  0.19355819126E-01  0.32981576207E-02 -0.12873741913E-01  0.23478901350E-01  0.00000000000E+00 0.  1.
     999901    1    3    3    0    0 -0.82281281508E-02  0.11827941052E-01  0.13943070159E+00  0.89109400336E+00  0.88000000000E+00 0. -1.
        -11    1    4    4    0    0 -0.56025533360E-02 -0.59503200665E-03 -0.80807205799E-02  0.98641691522E-02  0.51100000000E-03 0. -1.
         11    1    4    4    0    0 -0.55251376396E-02 -0.14531066666E-01 -0.11847623910E+00  0.11949292614E+00  0.51100000000E-03 0.  1.
</event>
<event>
 8    1  0.1076043E+005  0.1043930E+01  0.7957747E-01            NaN
         13   -1    0    0    0    0  0.00000000000E+00  0.00000000000E+00  0.74505805969E-08  0.10566000000E+00  0.10566000000E+00 0.  1.
     999900   -1    0    0    0    0 -0.00000000000E+00 -0.00000000000E+00 -0.74505805969E-08  0.93827000000E+00  0.93827000000E+00 0. -1.
     999902    2    1    2    0    0  0.21747838742E-01 -0.39735673421E-02  0.59942187678E-02  0.10210239225E+01  0.10207669479E+01 0.  0.
     999903    2    3    3    0    0  0.12475753297E+00 -0.33866018562E-01 -0.28429605272E-01  0.13384324452E+00  0.19860070513E-01 0.  0.
         14    1    1    2    0    0 -0.21747838742E-01  0.39735673421E-02 -0.59942187678E-02  0.22906077490E-01  0.00000000000E+00 0.  1.
     999901    1    3    3    0    0 -0.10300969423E+00  0.29892451220E-01  0.34423824039E-01  0.88718067799E+00  0.88000000000E+00 0. -1.
        -11    1    4    4    0    0  0.11250554749E-01 -0.25104852370E-03 -0.77403599166E-02  0.13667929622E-01  0.51100000000E-03 0.  1.
         11    1    4    4    0    0  0.11350697822E+00 -0.33614970038E-01 -0.20689245355E-01  0.12017531489E+00  0.51100000000E-03 0. -1.
</event>
<event>
 8    1  0.1076043E+005  0.1043930E+01  0.7957747E-01            NaN
         13   -1    0    0    0    0  0.00000000000E+00  0.00000000000E+00  0.74505805969E-08  0.10566000000E+00  0.10566000000E+00 0.  1.
     999900   -1    0    0    0    0 -0.00000000000E+00 -0.00000000000E+00 -0.74505805969E-08  0.93827000000E+00  0.93827000000E+00 0. -1.
     999902    2    1    2    0    0  0.13431139505E-01  0.42373463009E-02  0.18992872373E-01  0.10202851314E+01  0.10200111124E+01 0.  0.
     999903    2    3    3    0    0 -0.12362601609E+00 -0.25713426078E-01 -0.12101997729E-01  0.12863015122E+00  0.21323351461E-01 0.  0.
         14    1    1    2    0    0 -0.13431139505E-01 -0.42373463009E-02 -0.18992872373E-01  0.23644868641E-01  0.00000000000E+00 0. -1.
     999901    1    3    3    0    0  0.13705715560E+00  0.29950772379E-01  0.31094870101E-01  0.89165498014E+00  0.88000000000E+00 0.  1.
        -11    1    4    4    0    0 -0.59286888054E-02 -0.18127032813E-02  0.40872901677E-02  0.74432725365E-02  0.51100000000E-03 0.  1.
         11    1    4    4    0    0 -0.11769732729E+00 -0.23900722797E-01 -0.16189287896E-01  0.12118687868E+00  0.51100000000E-03 0. -1.
</event>
<event>
 8    1  0.1076043E+005  0.1043930E+01  0.7957747E-01            NaN
         13   -1    0    0    0    0  0.00000000000E+00  0.00000000000E+00  0.74505805969E-08  0.10566000000E+00  0.10566000000E+00 0.  1.
     999900   -1    0    0    0    0 -0.00000000000E+00 -0.00000000000E+00 -0.74505805969E-08  0.93827000000E+00  0.93827000000E+00 0. -1.
     999902    2    1    2    0    0 -0.41097479432E-03 -0.17797163117E-01 -0.13589335478E-01  0.10215340639E+01  0.10212885321E+01 0.  0.
     999903    2    3    3    0    0  0.14438365818E-01 -0.80697193748E-02 -0.13105053174E+00  0.13355193642E+00  0.19705102736E-01 0.  0.
         14    1    1    2    0    0  0.41097479432E-03  0.17797163117E-01  0.13589335478E-01  0.22395936105E-01  0.00000000000E+00 0.  1.
     999901    1    3    3    0    0 -0.14849340613E-01 -0.97274437420E-02  0.11746119627E+00  0.88798212747E+00  0.88000000000E+00 0.  1.
        -11    1    4    4    0    0 -0.19354619242E-02 -0.64729905941E-02 -0.69812203903E-01  0.70140220665E-01  0.51100000000E-03 0. -1.
         11    1    4    4    0    0  0.16373827742E-01 -0.15967287807E-02 -0.61238327842E-01  0.63411715760E-01  0.51100000000E-03 0.  1.
</event>
<event>
 8    1  0.1076043E+005  0.1043930E+01  0.7957747E-01            NaN
         13   -1    0    0    0    0  0.00000000000E+00  0.00000000000E+00  0.74505805969E-08  0.10566000000E+00  0.10566000000E+00 0.  1.
     999900   -1    0    0    0    0 -0.00000000000E+00 -0.00000000000E+00 -0.74505805969E-08  0.93827000000E+00  0.93827000000E+00 0.  1.
     999902    2    1    2    0    0 -0.14530122014E-01  0.10843910663E-01  0.15009535654E-01  0.10203927741E+01  0.10201212734E+01 0.  0.
     999903    2    3    3    0    0  0.82280999955E-02  0.50735245595E-02 -0.12679556207E+00  0.12873144836E+00  0.20030700288E-01 0.  0.
         14    1    1    2    0    0  0.14530122014E-01 -0.10843910663E-01 -0.15009535654E-01  0.23537225935E-01  0.00000000000E+00 0. -1.
     999901    1    3    3    0    0 -0.22758222009E-01  0.57703861035E-02  0.14180509772E+00  0.89166132571E+00  0.88000000000E+00 0. -1.
        -11    1    4    4    0    0  0.85131512904E-02 -0.64160841110E-02 -0.65919000720E-01  0.66777358866E-01  0.51100000000E-03 0.  1.
         11    1    4    4    0    0 -0.28505129489E-03  0.11489608670E-01 -0.60876561351E-01  0.61954089490E-01  0.51100000000E-03 0. -1.
</event>
<event>
 8    1  0.1076043E+005  0.1043930E+01  0.7957747E-01            NaN
         13   -1    0    0    0    0  0.00000000000E+00  0.00000000000E+00  0.74505805969E-08  0.10566000000E+00  0.10566000000E+00 0.  1.
     999900   -1    0    0    0    0 -0.00000000000E+00 -0.00000000000E+00 -0.74505805969E-08  0.93827000000E+00  0.93827000000E+00 0.  1.
     999902    2    1    2    0    0 -0.19091353243E-01  0.14709143977E-02 -0.14302999199E-01  0.10200298087E+01  0.10197497691E+01 0.  0.
     999903    2    3    3    0    0  0.12507806360E+00 -0.60013260002E-02  0.15238488272E-01  0.12777796387E+00  0.20358256779E-01 0.  0.
         14    1    1    2    0    0  0.19091353243E-01 -0.14709143977E-02  0.14302999199E-01  0.23900191294E-01  0.00000000000E+00 0.  1.
     999901    1    3    3    0    0 -0.14416941684E+00  0.74722403979E-02 -0.29541487471E-01  0.89225184483E+00  0.88000000000E+00 0.  1.
        -11    1    4    4    0    0  0.11189606089E-01 -0.59616201301E-03 -0.44596179351E-02  0.12071122843E-01  0.51100000000E-03 0.  1.
         11    1    4    4    0    0  0.11388845751E+00 -0.54051639872E-02  0.19698106207E-01  0.11570684103E+00  0.51100000000E-03 0. -1.
</event>
<event>
 8    1  0.1076043E+005  0.1043930E+01  0.7957747E-01            NaN
         13   -1    0    0    0    0  0.00000000000E+00  0.00000000000E+00  0.74505805969E-08  0.10566000000E+00  0.10566000000E+00 0. -1.
     999900   -1    0    0    0    0 -0.00000000000E+00 -0.00000000000E+00 -0.74505805969E-08  0.93827000000E+00  0.93827000000E+00 0. -1.
     999902    2    1    2    0    0  0.22320465502E-01  0.71304872811E-02 -0.60952022890E-02  0.10197184631E+01  0.10194309910E+01 0.  0.
     999903    2    3    3    0    0 -0.71349178680E-01  0.77942959641E-01 -0.71742042939E-01  0.12949494274E+00  0.21359054606E-01 0.  0.
         14    1    1    2    0    0 -0.22320465502E-01 -0.71304872811E-02  0.60952022890E-02  0.24211536920E-01  0.00000000000E+00 0.  1.
     999901    1    3    3    0    0  0.93669644182E-01 -0.70812472360E-01  0.65646840650E-01  0.89022352034E+00  0.88000000000E+00 0.  1.
        -11    1    4    4    0    0 -0.16771374388E-01  0.22478646083E-01 -0.87649547098E-02  0.29387992117E-01  0.51100000000E-03 0. -1.
         11    1    4    4    0    0 -0.54577804292E-01  0.55464313558E-01 -0.62977088229E-01  0.10010695062E+00  0.51100000000E-03 0.  1.
</event>
<event>
 8    1  0.1076043E+005  0.1043930E+01  0.7957747E-01            NaN
         13   -1    0    0    0    0  0.00000000000E+00  0.00000000000E+00  0.74505805969E-08  0.10566000000E+00  0.10566000000E+00 0. -1.
     999900   -1    0    0    0    0 -0.00000000000E+00 -0.00000000000E+00 -0.74505805969E-08  0.93827000000E+00  0.93827000000E+00 0. -1.
     999902    2    1    2    0    0 -0.11560674048E-01  0.14532336870E-01  0.12498754047E-01  0.10215457008E+01  0.10213004269E+01 0.  0.
     999903    2    3    3    0    0  0.75347631773E-01 -0.36298274468E-01  0.99523008841E-01  0.13154006843E+00  0.20078096800E-01 0.  0.
         14    1    1    2    0    0  0.11560674048E-01 -0.14532336870E-01 -0.12498754047E-01  0.22384299232E-01  0.00000000000E+00 0.  1.
     999901    1    3    3    0    0 -0.86908305821E-01  0.50830611338E-01 -0.87024254793E-01  0.89000563234E+00  0.88000000000E+00 0.  1.
        -11    1    4    4    0    0  0.58103676368E-01 -0.33025998409E-01  0.88136539871E-01  0.11061222609E+00  0.51100000000E-03 0.  1.
         11    1    4    4    0    0  0.17243955405E-01 -0.32722760591E-02  0.11386468969E-01  0.20927842345E-01  0.51100000000E-03 0. -1.
</event>
<event>
 8    1  0.1076043E+005  0.1043930E+01  0.7957747E-01            NaN
         13   -1    0    0    0    0  0.00000000000E+00  0.00000000000E+00  0.74505805969E-08  0.10566000000E+00  0.10566000000E+00 0. -1.
     999900   -1    0    0    0    0 -0.00000000000E+00 -0.00000000000E+00 -0.74505805969E-08  0.93827000000E+00  0.93827000000E+00 0. -1.
     999902    2    1    2    0    0 -0.18721122453E-01  0.13875241632E-01  0.47910944102E-02  0.10201401420E+01  0.10198627124E+01 0.  0.
     999903    2    3    3    0    0  0.33181598876E-02 -0.50833986713E-01  0.11821566106E+00  0.13023107561E+00  0.19750598574E-01 0.  0.
         14    1    1    2    0    0  0.18721122453E-01 -0.13875241632E-01 -0.47910944102E-02  0.23789857963E-01  0.00000000000E+00 0. -1.
     999901    1    3    3    0    0 -0.22039282341E-01  0.64709228344E-01 -0.11342456665E+00  0.88990906643E+00  0.88000000000E+00 0. -1.
        -11    1    4    4    0    0  0.43737883481E-02 -0.43426481483E-01  0.78553097324E-01  0.89865674975E-01  0.51100000000E-03 0.  1.
         11    1    4    4    0    0 -0.10556284604E-02 -0.74075052295E-02  0.39662563733E-01  0.40365400630E-01  0.51100000000E-03 0. -1.
</event>
<event>
 8    1  0.1076043E+005  0.1043930E+01  0.7957747E-01            NaN
         13   -1    0    0    0    0  0.00000000000E+00  0.00000000000E+00  0.74505805969E-08  0.10566000000E+00  0.10566000000E+00 0. -1.
     999900   -1    0    0    0    0 -0.00000000000E+00 -0.00000000000E+00 -0.74505805969E-08  0.93827000000E+00  0.93827000000E+00 0.  1.
     999902    2    1    2    0    0  0.18582113627E-01  0.20024467084E-01 -0.15518891713E-01  0.10125116896E+01  0.10120241160E+01 0.  0.
     999903    2    3    3    0    0  0.11231003451E+00  0.48768236775E-01 -0.26509510658E-01  0.12699945300E+00  0.20837997421E-01 0.  0.
         14    1    1    2    0    0 -0.18582113627E-01 -0.20024467084E-01  0.15518891713E-01  0.31418310407E-01  0.00000000000E+00 0. -1.
     999901    1    3    3    0    0 -0.93727920887E-01 -0.28743769691E-01  0.10990618945E-01  0.88551223659E+00  0.88000000000E+00 0.  1.
        -11    1    4    4    0    0  0.60789118959E-01  0.24809716577E-01 -0.24693780043E-01  0.70149005083E-01  0.51100000000E-03 0. -1.
         11    1    4    4    0    0  0.51520915555E-01  0.23958520198E-01 -0.18157306151E-02  0.56850447917E-01  0.51100000000E-03 0.  1.
</event>
<event>
 8    1  0.1076043E+005  0.1043930E+01  0.7957747E-01            NaN
         13   -1    0    0    0    0  0.00000000000E+00  0.00000000000E+00  0.74505805969E-08  0.10566000000E+00  0.10566000000E+00 0. -1.
     999900   -1    0    0    0    0 -0.00000000000E+00 -0.00000000000E+00 -0.74505805969E-08  0.93827000000E+00  0.93827000000E+00 0.  1.
     999902    2    1    2    0    0 -0.58356953365E-02 -0.23331322449E-01 -0.39323642166E-02  0.10195605635E+01  0.10192692839E+01 0.  0.
     999903    2    3    3    0    0 -0.89999234641E-01  0.85490935071E-01 -0.26786203957E-01  0.12857903559E+00  0.20161980430E-01 0.  0.
         14    1    1    2    0    0  0.58356953365E-02  0.23331322449E-01  0.39323642166E-02  0.24369436506E-01  0.00000000000E+00 0. -1.
     999901    1    3    3    0    0  0.84163539305E-01 -0.10882225752E+00  0.22853839740E-01  0.89098152791E+00  0.88000000000E+00 0.  1.
        -11    1    4    4    0    0 -0.46148346417E-01  0.41604519733E-01 -0.32429809176E-02  0.62220446684E-01  0.51100000000E-03 0.  1.
         11    1    4    4    0    0 -0.43850888224E-01  0.43886415337E-01 -0.23543223039E-01  0.66358588903E-01  0.51100000000E-03 0. -1.
</event>
<event>
 8    1  0.1076043E+005  0.1043930E+01  0.7957747E-01            NaN
         13   -1    0    0    0    0  0.00000000000E+00  0.00000000000E+00  0.74505805969E-08  0.10566000000E+00  0.10566000000E+00 0.  1.
     999900   -1    0    0    0    0 -0.00000000000E+00 -0.00000000000E+00 -0.74505805969E-08  0.93827000000E+00  0.93827000000E+00 0. -1.
     999902    2    1    2    0    0  0.13989046157E-01  0.50327370511E-03  0.93397515347E-02  0.10271021167E+01  0.10269642547E+01 0.  0.
     999903    2    3    3    0    0  0.19796094039E-01  0.10993915861E+00 -0.75443358175E-01  0.13626087924E+00  0.19920416254E-01 0.  0.
         14    1    1    2    0    0 -0.13989046157E-01 -0.50327370511E-03 -0.93397515347E-02  0.16827883276E-01  0.00000000000E+00 0. -1.
     999901    1    3    3    0    0 -0.58070478819E-02 -0.10943588490E+00  0.84783109710E-01  0.89084123748E+00  0.88000000000E+00 0.  1.
        -11    1    4    4    0    0  0.82230756799E-02  0.34050197167E-01 -0.13226053070E-01  0.37446288221E-01  0.51100000000E-03 0.  1.
         11    1    4    4    0    0  0.11573018359E-01  0.75888961442E-01 -0.62217305105E-01  0.98814591019E-01  0.51100000000E-03 0. -1.
</event>
<event>
 8    1  0.1076043E+005  0.1043930E+01  0.7957747E-01            NaN
         13   -1    0    0    0    0  0.00000000000E+00  0.00000000000E+00  0.74505805969E-08  0.10566000000E+00  0.10566000000E+00 0.  1.
     999900   -1    0    0    0    0 -0.00000000000E+00 -0.00000000000E+00 -0.74505805969E-08  0.93827000000E+00  0.93827000000E+00 0. -1.
     999902    2    1    2    0    0  0.27912994147E-03  0.99474969051E-02  0.27571679621E-01  0.10146174067E+01  0.10141938936E+01 0.  0.
     999903    2    3    3    0    0  0.71079543485E-01 -0.98647422480E-01  0.21632947838E-01  0.12510022104E+00  0.19961598319E-01 0.  0.
         14    1    1    2    0    0 -0.27912994147E-03 -0.99474969051E-02 -0.27571679621E-01  0.29312593289E-01  0.00000000000E+00 0. -1.
     999901    1    3    3    0    0 -0.70800413543E-01  0.10859491939E+00  0.59387317830E-02  0.88951718567E+00  0.88000000000E+00 0.  1.
        -11    1    4    4    0    0  0.18978165914E-01 -0.39613214273E-01  0.13430906738E-01  0.45935040038E-01  0.51100000000E-03 0. -1.
         11    1    4    4    0    0  0.52101377571E-01 -0.59034208207E-01  0.82020410998E-02  0.79165180999E-01  0.51100000000E-03 0.  1.
</event>
<event>
 8    1  0.1076043E+005  0.1043930E+01  0.7957747E-01            NaN
         13   -1    0    0    0    0  0.00000000000E+00  0.00000000000E+00  0.74505805969E-08  0.10566000000E+00  0.10566000000E+00 0. -1.
     999900   -1    0    0    0    0 -0.00000000000E+00 -0.00000000000E+00 -0.74505805969E-08  0.93827000000E+00  0.93827000000E+00 0.  1.
     999902    2    1    2    0    0  0.17474174819E-01 -0.29395184122E-02  0.15120895429E-01  0.10206356008E+01  0.10203697372E+01 0.  0.
     999903    2    3    3    0    0  0.12253645845E+00  0.38853031250E-01  0.29861595802E-01  0.13327885808E+00  0.18622497705E-01 0.  0.
         14    1    1    2    0    0 -0.17474174819E-01  0.29395184122E-02 -0.15120895429E-01  0.23294399169E-01  0.00000000000E+00 0.  1.
     999901    1    3    3    0    0 -0.10506228363E+00 -0.41792549662E-01 -0.14740700373E-01  0.88735674275E+00  0.88000000000E+00 0.  1.
        -11    1    4    4    0    0  0.40984733469E-01  0.39834546326E-02  0.85496848543E-02  0.42059178790E-01  0.51100000000E-03 0.  1.
         11    1    4    4    0    0  0.81551724985E-01  0.34869576617E-01  0.21311910947E-01  0.91219679295E-01  0.51100000000E-03 0. -1.
</event>
<event>
 8    1  0.1076043E+005  0.1043930E+01  0.7957747E-01            NaN
         13   -1    0    0    0    0  0.00000000000E+00  0.00000000000E+00  0.74505805969E-08  0.10566000000E+00  0.10566000000E+00 0.  1.
     999900   -1    0    0    0    0 -0.00000000000E+00 -0.00000000000E+00 -0.74505805969E-08  0.93827000000E+00  0.93827000000E+00 0.  1.
     999902    2    1    2    0    0  0.15982303165E-01  0.11581300589E-01 -0.13269259984E-01  0.10201469430E+01  0.10198696738E+01 0.  0.
     999903    2    3    3    0    0  0.81874828003E-01  0.14832055037E-01  0.98756251786E-01  0.13059531018E+00  0.19464338102E-01 0.  0.
         14    1    1    2    0    0 -0.15982303165E-01 -0.11581300589E-01  0.13269259984E-01  0.23783056959E-01  0.00000000000E+00 0.  1.
     999901    1    3    3    0    0 -0.65892524838E-01 -0.32507544479E-02 -0.11202551177E+00  0.88955163286E+00  0.88000000000E+00 0.  1.
        -11    1    4    4    0    0  0.61949583799E-01  0.34332369450E-02  0.65920985498E-01  0.90528313244E-01  0.51100000000E-03 0.  1.
         11    1    4    4    0    0  0.19925244205E-01  0.11398818092E-01  0.32835266288E-01  0.40066996939E-01  0.51100000000E-03 0. -1.
</event>
<event>
 8    1  0.1076043E+005  0.1043930E+01  0.7957747E-01            NaN
         13   -1    0    0    0    0  0.00000000000E+00  0.00000000000E+00  0.74505805969E-08  0.10566000000E+00  0.10566000000E+00 0. -1.
     999900   -1    0    0    0    0 -0.00000000000E+00 -0.00000000000E+00 -0.74505805969E-08  0.93827000000E+00  0.93827000000E+00 0.  1.
     999902    2    1    2    0    0  0.15149205745E-01 -0.16766004824E-02  0.18740048656E-01  0.10197742792E+01  0.10194881469E+01 0.  0.
     999903    2    3    3    0    0  0.28496966988E-01  0.42744920907E-01 -0.11587797702E+00  0.12832969476E+00  0.20039950271E-01 0.  0.
         14    1    1    2    0    0 -0.15149205745E-01  0.16766004824E-02 -0.18740048656E-01  0.24155720803E-01  0.00000000000E+00 0.  1.
     999901    1    3    3    0    0 -0.13347761244E-01 -0.44421521390E-01  0.13461802568E+00  0.89144458444E+00  0.88000000000E+00 0. -1.
        -11    1    4    4    0    0  0.13104023283E-01  0.15115844704E-01 -0.68495340625E-01  0.71358790598E-01  0.51100000000E-03 0.  1.
         11    1    4    4    0    0  0.15392943705E-01  0.27629076203E-01 -0.47382636396E-01  0.56970904158E-01  0.51100000000E-03 0. -1.
</event>
<event>
 8    1  0.1076043E+005  0.1043930E+01  0.7957747E-01            NaN
         13   -1    0    0    0    0  0.00000000000E+00  0.00000000000E+00  0.74505805969E-08  0.10566000000E+00  0.10566000000E+00 0.  1.
     999900   -1    0    0    0    0 -0.00000000000E+00 -0.00000000000E+00 -0.74505805969E-08  0.93827000000E+00  0.93827000000E+00 0. -1.
     999902    2    1    2    0    0 -0.24318429680E-01  0.62425424792E-02 -0.43393970205E-02  0.10184508767E+01  0.10181321145E+01 0.  0.
     999903    2    3    3    0    0  0.12428461826E+00 -0.79141506097E-02 -0.56256076005E-02  0.12587878875E+00  0.17450555329E-01 0.  0.
         14    1    1    2    0    0  0.24318429680E-01 -0.62425424792E-02  0.43393970205E-02  0.25479123321E-01  0.00000000000E+00 0. -1.
     999901    1    3    3    0    0 -0.14860304793E+00  0.14156693089E-01  0.12862105800E-02  0.89257208793E+00  0.88000000000E+00 0.  1.
        -11    1    4    4    0    0  0.67956696502E-01 -0.68607492546E-02 -0.11380122091E-01  0.69245583106E-01  0.51100000000E-03 0. -1.
         11    1    4    4    0    0  0.56327921753E-01 -0.10534013551E-02  0.57545144901E-02  0.56633205643E-01  0.51100000000E-03 0.  1.
</event>
<event>
 8    1  0.1076043E+005  0.1043930E+01  0.7957747E-01            NaN
         13   -1    0    0    0    0  0.00000000000E+00  0.00000000000E+00  0.74505805969E-08  0.10566000000E+00  0.10566000000E+00 0.  1.
     999900   -1    0    0    0    0 -0.00000000000E+00 -0.00000000000E+00 -0.74505805969E-08  0.93827000000E+00  0.93827000000E+00 0. -1.
     999902    2    1    2    0    0  0.20743700399E-01  0.24140629208E-02 -0.91839811351E-02  0.10211160938E+01  0.10208612064E+01 0.  0.
     999903    2    3    3    0    0 -0.23059650866E-01 -0.12079219425E+00  0.37485917770E-01  0.13023080667E+00  0.20793443281E-01 0.  0.
         14    1    1    2    0    0 -0.20743700399E-01 -0.24140629208E-02  0.91839811351E-02  0.22813906188E-01  0.00000000000E+00 0.  1.
     999901    1    3    3    0    0  0.43803351266E-01  0.12320625717E+00 -0.46669898905E-01  0.89088528715E+00  0.88000000000E+00 0. -1.
        -11    1    4    4    0    0 -0.65478154109E-02 -0.40456753422E-01  0.22828234672E-01  0.46914946482E-01  0.51100000000E-03 0.  1.
         11    1    4    4    0    0 -0.16511835455E-01 -0.80335440831E-01  0.14657683098E-01  0.83315860185E-01  0.51100000000E-03 0. -1.
</event>
<event>
 8    1  0.1076043E+005  0.1043930E+01  0.7957747E-01            NaN
         13   -1    0    0    0    0  0.00000000000E+00  0.00000000000E+00  0.74505805969E-08  0.10566000000E+00  0.10566000000E+00 0.  1.
     999900   -1    0    0    0    0 -0.00000000000E+00 -0.00000000000E+00 -0.74505805969E-08  0.93827000000E+00  0.93827000000E+00 0. -1.
     999902    2    1    2    0    0 -0.71890345103E-02  0.21264354313E-02 -0.20427978557E-01  0.10221698012E+01  0.10219381567E+01 0.  0.
     999903    2    3    3    0    0  0.70904961934E-01 -0.59705815751E-01 -0.93908114535E-01  0.13350719369E+00  0.20325814371E-01 0.  0.
         14    1    1    2    0    0  0.71890345103E-02 -0.21264354313E-02  0.20427978557E-01  0.21760198821E-01  0.00000000000E+00 0. -1.
     999901    1    3    3    0    0 -0.78093996444E-01  0.61832251182E-01  0.73480135978E-01  0.88866260749E+00  0.88000000000E+00 0.  1.
        -11    1    4    4    0    0  0.15913132655E-01 -0.56940325236E-02 -0.24581237495E-01  0.29835350762E-01  0.51100000000E-03 0.  1.
         11    1    4    4    0    0  0.54991829279E-01 -0.54011783227E-01 -0.69326877040E-01  0.10367184293E+00  0.51100000000E-03 0. -1.
</event>
<event>
 8    1  0.1076043E+005  0.1043930E+01  0.7957747E-01            NaN
         13   -1    0    0    0    0  0.00000000000E+00  0.00000000000E+00  0.74505805969E-08  0.10566000000E+00  0.10566000000E+00 0.  1.
     999900   -1    0    0    0    0 -0.00000000000E+00 -0.00000000000E+00 -0.74505805969E-08  0.93827000000E+00  0.93827000000E+00 0. -1.
     999902    2    1    2    0    0 -0.18374968383E-01  0.54342272604E-02 -0.47967948554E-02  0.10241770374E+01  0.10239865353E+01 0.  0.
     999903    2    3    3    0    0 -0.80887415374E-02  0.11314760875E+00  0.69326680661E-01  0.13445670574E+00  0.20114869194E-01 0.  0.
         14    1    1    2    0    0  0.18374968383E-01 -0.54342272604E-02  0.47967948554E-02  0.19752962560E-01  0.00000000000E+00 0. -1.
     999901    1    3    3    0    0 -0.10286226846E-01 -0.10771338149E+00 -0.74123475516E-01  0.88972033170E+00  0.88000000000E+00 0. -1.
        -11    1    4    4    0    0 -0.25659873914E-02  0.10412240169E+00  0.66194952206E-01  0.12341025745E+00  0.51100000000E-03 0. -1.
         11    1    4    4    0    0 -0.55227541461E-02  0.90252070540E-02  0.31317284548E-02  0.11046448291E-01  0.51100000000E-03 0.  1.
</event>
<event>
 8    1  0.1076043E+005  0.1043930E+01  0.7957747E-01            NaN
         13   -1    0    0    0    0  0.00000000000E+00  0.00000000000E+00  0.74505805969E-08  0.10566000000E+00  0.10566000000E+00 0.  1.
     999900   -1    0    0    0    0 -0.00000000000E+00 -0.00000000000E+00 -0.74505805969E-08  0.93827000000E+00  0.93827000000E+00 0.  1.
     999902    2    1    2    0    0 -0.19236093927E-01 -0.16113704382E-01  0.88439756215E-02  0.10173237097E+01  0.10169757301E+01 0.  0.
     999903    2    3    3    0    0 -0.38766662567E-02 -0.31187708152E-01 -0.12184821859E+00  0.12741158638E+00  0.19975542282E-01 0.  0.
         14    1    1    2    0    0  0.19236093927E-01  0.16113704382E-01 -0.88439756215E-02  0.26606290295E-01  0.00000000000E+00 0. -1.
     999901    1    3    3    0    0 -0.15359427671E-01  0.15074003770E-01  0.13069219421E+00  0.88991212332E+00  0.88000000000E+00 0. -1.
        -11    1    4    4    0    0  0.70315796200E-02 -0.16457445780E-01 -0.74885259622E-01  0.76995804192E-01  0.51100000000E-03 0. -1.
         11    1    4    4    0    0 -0.10908245877E-01 -0.14730262372E-01 -0.46962958970E-01  0.50415782190E-01  0.51100000000E-03 0.  1.
</event>
<event>
 8    1  0.1076043E+005  0.1043930E+01  0.7957747E-01            NaN
         13   -1    0    0    0    0  0.00000000000E+00  0.00000000000E+00  0.74505805969E-08  0.10566000000E+00  0.10566000000E+00 0.  1.
     999900   -1    0    0    0    0 -0.00000000000E+00 -0.00000000000E+00 -0.74505805969E-08  0.93827000000E+00  0.93827000000E+00 0.  1.
     999902    2    1    2    0    0  0.60343168695E-02 -0.24026509789E-01  0.20004319638E-02  0.10190766726E+01  0.10187735650E+01 0.  0.
     999903    2    3    3    0    0  0.81392469732E-01  0.92520406583E-01  0.27453535315E-01  0.12783602310E+00  0.20089610214E-01 0.  0.
         14    1    1    2    0    0 -0.60343168695E-02  0.24026509789E-01 -0.20004319638E-02  0.24853327358E-01  0.00000000000E+00 0. -1.
     999901    1    3    3    0    0 -0.75358152863E-01 -0.11654691637E+00 -0.25453103351E-01  0.89124064954E+00  0.88000000000E+00 0.  1.
        -11    1    4    4    0    0  0.61705940752E-01  0.80329923755E-01  0.18317852571E-01  0.10293845063E+00  0.51100000000E-03 0.  1.
         11    1    4    4    0    0  0.19686528980E-01  0.12190482828E-01  0.91356827437E-02  0.24897572473E-01  0.51100000000E-03 0. -1.
</event>
<event>
 8    1  0.1076043E+005  0.1043930E+01  0.7957747E-01            NaN
         13   -1    0    0    0    0  0.00000000000E+00  0.00000000000E+00  0.74505805969E-08  0.10566000000E+00  0.10566000000E+00 0.  1.
     999900   -1    0    0    0    0 -0.00000000000E+00 -0.00000000000E+00 -0.74505805969E-08  0.93827000000E+00  0.93827000000E+00 0. -1.
     999902    2    1    2    0    0  0.19274091708E-01  0.75395309793E-02  0.11238675297E-01  0.10203791410E+01  0.10201073220E+01 0.  0.
     999903    2    3    3    0    0 -0.10168683390E+00 -0.59570545690E-02  0.77626281177E-01  0.12952504654E+00  0.19370066188E-01 0.  0.
         14    1    1    2    0    0 -0.19274091708E-01 -0.75395309793E-02 -0.11238675297E-01  0.23550859029E-01  0.00000000000E+00 0. -1.
     999901    1    3    3    0    0  0.12096092561E+00  0.13496585548E-01 -0.66387605880E-01  0.89085409443E+00  0.88000000000E+00 0. -1.
        -11    1    4    4    0    0 -0.76761743583E-01 -0.10220602194E-01  0.65727873180E-01  0.10157381759E+00  0.51100000000E-03 0. -1.
         11    1    4    4    0    0 -0.24925090320E-01  0.42635476245E-02  0.11898407997E-01  0.27951228947E-01  0.51100000000E-03 0.  1.
</event>
<event>
 8    1  0.1076043E+005  0.1043930E+01  0.7957747E-01            NaN
         13   -1    0    0    0    0  0.00000000000E+00  0.00000000000E+00  0.74505805969E-08  0.10566000000E+00  0.10566000000E+00 0.  1.
     999900   -1    0    0    0    0 -0.00000000000E+00 -0.00000000000E+00 -0.74505805969E-08  0.93827000000E+00  0.93827000000E+00 0. -1.
     999902    2    1    2    0    0 -0.92704599884E-02 -0.21121869513E-01 -0.34956938481E-02  0.10205998762E+01  0.10203331871E+01 0.  0.
     999903    2    3    3    0    0  0.83896200833E-01  0.90372912032E-01 -0.29129683062E-01  0.12831728959E+00  0.20271966576E-01 0.  0.
         14    1    1    2    0    0  0.92704599884E-02  0.21121869513E-01  0.34956938481E-02  0.23330123781E-01  0.00000000000E+00 0. -1.
     999901    1    3    3    0    0 -0.93166660822E-01 -0.11149478155E+00  0.25633989214E-01  0.89228258663E+00  0.88000000000E+00 0.  1.
        -11    1    4    4    0    0  0.64667685635E-01  0.77290774750E-01 -0.17411805131E-01  0.10227025719E+00  0.51100000000E-03 0. -1.
         11    1    4    4    0    0  0.19228515198E-01  0.13082137282E-01 -0.11717877931E-01  0.26047032399E-01  0.51100000000E-03 0.  1.
</event>
<event>
 8    1  0.1076043E+005  0.1043930E+01  0.7957747E-01            NaN
         13   -1    0    0    0    0  0.00000000000E+00  0.00000000000E+00  0.74505805969E-08  0.10566000000E+00  0.10566000000E+00 0. -1.
     999900   -1    0    0    0    0 -0.00000000000E+00 -0.00000000000E+00 -0.74505805969E-08  0.93827000000E+00  0.93827000000E+00 0.  1.
     999902    2    1    2    0    0 -0.84756444550E-02 -0.19029376060E-01 -0.12011875087E-01  0.10198834026E+01  0.10195998804E+01 0.  0.
     999903    2    3    3    0    0 -0.45972268532E-01  0.74368806303E-01  0.91519610654E-01  0.12811662492E+00  0.19845947216E-01 0.  0.
         14    1    1    2    0    0  0.84756444550E-02  0.19029376060E-01  0.12011875087E-01  0.24046597374E-01  0.00000000000E+00 0. -1.
     999901    1    3    3    0    0  0.37496624077E-01 -0.93398182363E-01 -0.10353148574E+00  0.89176677771E+00  0.88000000000E+00 0.  1.
        -11    1    4    4    0    0 -0.32107150604E-01  0.51372000908E-01  0.49436400150E-01  0.78193160686E-01  0.51100000000E-03 0. -1.
         11    1    4    4    0    0 -0.13865117928E-01  0.22996805395E-01  0.42083210504E-01  0.49923464231E-01  0.51100000000E-03 0.  1.
</event>
<event>
 8    1  0.1076043E+005  0.1043930E+01  0.7957747E-01            NaN
         13   -1    0    0    0    0  0.00000000000E+00  0.00000000000E+00  0.74505805969E-08  0.10566000000E+00  0.10566000000E+00 0. -1.
     999900   -1    0    0    0    0 -0.00000000000E+00 -0.00000000000E+00 -0.74505805969E-08  0.93827000000E+00  0.93827000000E+00 0.  1.
     999902    2    1    2    0    0 -0.11805009735E-01 -0.18145083082E-01 -0.80822911919E-02  0.10208231671E+01  0.10205616164E+01 0.  0.
     999903    2    3    3    0    0  0.90226436487E-01  0.13754534826E-01 -0.90837007589E-01  0.13049943682E+00  0.21183578405E-01 0.  0.
         14    1    1    2    0    0  0.11805009735E-01  0.18145083082E-01  0.80822911919E-02  0.23106832881E-01  0.00000000000E+00 0. -1.
     999901    1    3    3    0    0 -0.10203144622E+00 -0.31899617908E-01  0.82754716397E-01  0.89032373030E+00  0.88000000000E+00 0. -1.
        -11    1    4    4    0    0  0.48123795812E-01  0.14285291248E-01 -0.60415212639E-01  0.78550800815E-01  0.51100000000E-03 0. -1.
         11    1    4    4    0    0  0.42102640675E-01 -0.53075642156E-03 -0.30421794950E-01  0.51948636009E-01  0.51100000000E-03 0.  1.
</event>
<event>
 8    1  0.1076043E+005  0.1043930E+01  0.7957747E-01            NaN
         13   -1    0    0    0    0  0.00000000000E+00  0.00000000000E+00  0.74505805969E-08  0.10566000000E+00  0.10566000000E+00 0.  1.
     999900   -1    0    0    0    0 -0.00000000000E+00 -0.00000000000E+00 -0.74505805969E-08  0.93827000000E+00  0.93827000000E+00 0. -1.
     999902    2    1    2    0    0  0.22149905571E-01  0.78335571242E-02 -0.21736918542E-02  0.10203353423E+01  0.10200624995E+01 0.  0.
     999903    2    3    3    0    0 -0.11275369280E+00 -0.25021466763E-01 -0.51849084690E-01  0.12806516010E+00  0.19310323908E-01 0.  0.
         14    1    1    2    0    0 -0.22149905571E-01 -0.78335571242E-02  0.21736918542E-02  0.23594657664E-01  0.00000000000E+00 0.  1.
     999901    1    3    3    0    0  0.13490359837E+00  0.32855023887E-01  0.49675392835E-01  0.89227018223E+00  0.88000000000E+00 0.  1.
        -11    1    4    4    0    0 -0.89310134989E-01 -0.23304087499E-01 -0.33328141341E-01  0.98134636252E-01  0.51100000000E-03 0. -1.
         11    1    4    4    0    0 -0.23443557813E-01 -0.17173792633E-02 -0.18520943349E-01  0.29930523851E-01  0.51100000000E-03 0.  1.
</event>
<event>
 8    1  0.1076043E+005  0.1043930E+01  0.7957747E-01            NaN
         13   -1    0    0    0    0  0.00000000000E+00  0.00000000000E+00  0.74505805969E-08  0.10566000000E+00  0.10566000000E+00 0.  1.
     999900   -1    0    0    0    0 -0.00000000000E+00 -0.00000000000E+00 -0.74505805969E-08  0.93827000000E+00  0.93827000000E+00 0. -1.
     999902    2    1    2    0    0  0.25445392390E-02  0.21991030216E-01  0.10770674588E-01  0.10193111552E+01  0.10190138093E+01 0.  0.
     999903    2    3    3    0    0  0.26466466704E-01  0.38807507922E-01  0.12158602296E+00  0.13187941471E+00  0.20062963715E-01 0.  0.
         14    1    1    2    0    0 -0.25445392390E-02 -0.21991030216E-01 -0.10770674588E-01  0.24618844834E-01  0.00000000000E+00 0.  1.
     999901    1    3    3    0    0 -0.23921927465E-01 -0.16816477707E-01 -0.11081534838E+00  0.88743174046E+00  0.88000000000E+00 0. -1.
        -11    1    4    4    0    0  0.13344686610E-01  0.31889490564E-01  0.68116876073E-01  0.76388416636E-01  0.51100000000E-03 0. -1.
         11    1    4    4    0    0  0.13121780094E-01  0.69180173583E-02  0.53469146890E-01  0.55490998073E-01  0.51100000000E-03 0.  1.
</event>
<event>
 8    1  0.1076043E+005  0.1043930E+01  0.7957747E-01            NaN
         13   -1    0    0    0    0  0.00000000000E+00  0.00000000000E+00  0.74505805969E-08  0.10566000000E+00  0.10566000000E+00 0.  1.
     999900   -1    0    0    0    0 -0.00000000000E+00 -0.00000000000E+00 -0.74505805969E-08  0.93827000000E+00  0.93827000000E+00 0.  1.
     999902    2    1    2    0    0 -0.12225545587E-01 -0.64654788090E-02 -0.16176072496E-01  0.10226478079E+01  0.10224263334E+01 0.  0.
     999903    2    3    3    0    0  0.11939532387E+00  0.49612872576E-01  0.36680501716E-02  0.13087282280E+00  0.19938923389E-01 0.  0.
         14    1    1    2    0    0  0.12225545587E-01  0.64654788090E-02  0.16176072496E-01  0.21282192146E-01  0.00000000000E+00 0.  1.
     999901    1    3    3    0    0 -0.13162086946E+00 -0.56078351385E-01 -0.19844122668E-01  0.89177498506E+00  0.88000000000E+00 0. -1.
        -11    1    4    4    0    0  0.10715227521E+00  0.37721756152E-01  0.52804688038E-02  0.11372196552E+00  0.51100000000E-03 0. -1.
         11    1    4    4    0    0  0.12243048662E-01  0.11891116424E-01 -0.16124186322E-02  0.17150857273E-01  0.51100000000E-03 0.  1.
</event>
<event>
 8    1  0.1076043E+005  0.1043930E+01  0.7957747E-01            NaN
         13   -1    0    0    0    0  0.00000000000E+00  0.00000000000E+00  0.74505805969E-08  0.10566000000E+00  0.10566000000E+00 0.  1.
     999900   -1    0    0    0    0 -0.00000000000E+00 -0.00000000000E+00 -0.74505805969E-08  0.93827000000E+00  0.93827000000E+00 0.  1.
     999902    2    1    2    0    0  0.55942515247E-02  0.14661118068E-01  0.98806861630E-02  0.10253862142E+01  0.10252185212E+01 0.  0.
     999903    2    3    3    0    0  0.35514956986E-01  0.12973429813E+00 -0.17709441506E-01  0.13696159694E+00  0.18776433060E-01 0.  0.
         14    1    1    2    0    0 -0.55942515247E-02 -0.14661118068E-01 -0.98806861630E-02  0.18543785810E-01  0.00000000000E+00 0.  1.
     999901    1    3    3    0    0 -0.29920705461E-01 -0.11507318006E+00  0.27590127669E-01  0.88842461725E+00  0.88000000000E+00 0.  1.
        -11    1    4    4    0    0  0.24881033862E-01  0.85397421067E-01 -0.28178033470E-02  0.88994306041E-01  0.51100000000E-03 0. -1.
         11    1    4    4    0    0  0.10633923124E-01  0.44336877060E-01 -0.14891638159E-01  0.47967290903E-01  0.51100000000E-03 0.  1.
</event>
<event>
 8    1  0.1076043E+005  0.1043930E+01  0.7957747E-01            NaN
         13   -1    0    0    0    0  0.00000000000E+00  0.00000000000E+00  0.74505805969E-08  0.10566000000E+00  0.10566000000E+00 0.  1.
     999900   -1    0    0    0    0 -0.00000000000E+00 -0.00000000000E+00 -0.74505805969E-08  0.93827000000E+00  0.93827000000E+00 0.  1.
     999902    2    1    2    0    0  0.10787203679E-01  0.10760926983E-01  0.21254621620E-01  0.10177781310E+01  0.10174420886E+01 0.  0.
     999903    2    3    3    0    0 -0.76101752611E-01 -0.98535677953E-01  0.12215426828E-01  0.12672417885E+00  0.20224842950E-01 0.  0.
         14    1    1    2    0    0 -0.10787203679E-01 -0.10760926983E-01 -0.21254621620E-01  0.26151869015E-01  0.00000000000E+00 0. -1.
     999901    1    3    3    0    0  0.86888956290E-01  0.10929660494E+00  0.90391947921E-02  0.89105395214E+00  0.88000000000E+00 0.  1.
        -11    1    4    4    0    0 -0.44436981640E-01 -0.70340242382E-01  0.25851806094E-02  0.83242653222E-01  0.51100000000E-03 0.  1.
         11    1    4    4    0    0 -0.31664770971E-01 -0.28195435571E-01  0.96302462183E-02  0.43481525627E-01  0.51100000000E-03 0. -1.
</event>
<event>
 8    1  0.1076043E+005  0.1043930E+01  0.7957747E-01            NaN
         13   -1    0    0    0    0  0.00000000000E+00  0.00000000000E+00  0.74505805969E-08  0.10566000000E+00  0.10566000000E+00 0. -1.
     999900   -1    0    0    0    0 -0.00000000000E+00 -0.00000000000E+00 -0.74505805969E-08  0.93827000000E+00  0.93827000000E+00 0.  1.
     999902    2    1    2    0    0 -0.17922626986E-01 -0.12285451261E-01  0.98526371478E-02  0.10200715145E+01  0.10197924629E+01 0.  0.
     999903    2    3    3    0    0 -0.11445490912E+00  0.61833543802E-01 -0.10981073774E-02  0.13162791714E+00  0.20034704106E-01 0.  0.
         14    1    1    2    0    0  0.17922626986E-01  0.12285451261E-01 -0.98526371478E-02  0.23858485483E-01  0.00000000000E+00 0. -1.
     999901    1    3    3    0    0  0.96532282134E-01 -0.74118995063E-01  0.10950744525E-01  0.88844359738E+00  0.88000000000E+00 0.  1.
        -11    1    4    4    0    0 -0.39904202158E-01  0.30896145194E-01 -0.56385629421E-02  0.50783576585E-01  0.51100000000E-03 0. -1.
         11    1    4    4    0    0 -0.74550706963E-01  0.30937398608E-01  0.45404555647E-02  0.80844340550E-01  0.51100000000E-03 0.  1.
</event>
<event>
 8    1  0.1076043E+005  0.1043930E+01  0.7957747E-01            NaN
         13   -1    0    0    0    0  0.00000000000E+00  0.00000000000E+00  0.74505805969E-08  0.10566000000E+00  0.10566000000E+00 0. -1.
     999900   -1    0    0    0    0 -0.00000000000E+00 -0.00000000000E+00 -0.74505805969E-08  0.93827000000E+00  0.93827000000E+00 0. -1.
     999902    2    1    2    0    0 -0.16066086456E-01 -0.15576908993E-01  0.62686417948E-02  0.10206909144E+01  0.10204263265E+01 0.  0.
     999903    2    3    3    0    0 -0.10168413940E+00  0.69828535889E-01  0.41771910477E-01  0.13171114915E+00  0.19678558786E-01 0.  0.
         14    1    1    2    0    0  0.16066086456E-01  0.15576908993E-01 -0.62686417948E-02  0.23239085562E-01  0.00000000000E+00 0.  1.
     999901    1    3    3    0    0  0.85618052943E-01 -0.85405444882E-01 -0.35503268682E-01  0.88897976529E+00  0.88000000000E+00 0. -1.
        -11    1    4    4    0    0 -0.47404765848E-01  0.26176427599E-01  0.26974062811E-01  0.60500234483E-01  0.51100000000E-03 0. -1.
         11    1    4    4    0    0 -0.54279373551E-01  0.43652108289E-01  0.14797847666E-01  0.71210914667E-01  0.51100000000E-03 0.  1.
</event>
<event>
 8    1  0.1076043E+005  0.1043930E+01  0.7957747E-01            NaN
         13   -1    0    0    0    0  0.00000000000E+00  0.00000000000E+00  0.74505805969E-08  0.10566000000E+00  0.10566000000E+00 0. -1.
     999900   -1    0    0    0    0 -0.00000000000E+00 -0.00000000000E+00 -0.74505805969E-08  0.93827000000E+00  0.93827000000E+00 0. -1.
     999902    2    1    2    0    0 -0.80669903680E-02  0.35527713523E-01 -0.64392782847E-02  0.10069332560E+01  0.10062533592E+01 0.  0.
     999903    2    3    3    0    0  0.31500348504E-01 -0.43582783604E-01  0.10082117027E+00  0.11601864231E+00  0.20091938863E-01 0.  0.
         14    1    1    2    0    0  0.80669903680E-02 -0.35527713523E-01  0.64392782847E-02  0.36996744000E-01  0.00000000000E+00 0. -1.
     999901    1    3    3    0    0 -0.39567338872E-01  0.79110497127E-01 -0.10726044855E+00  0.89091461369E+00  0.88000000000E+00 0. -1.
        -11    1    4    4    0    0  0.44992213590E-02 -0.10611384647E-01  0.40834808186E-01  0.42433326025E-01  0.51100000000E-03 0.  1.
         11    1    4    4    0    0  0.27001127145E-01 -0.32971398957E-01  0.59986362081E-01  0.73585316286E-01  0.51100000000E-03 0. -1.
</event>
<event>
 8    1  0.1076043E+005  0.1043930E+01  0.7957747E-01            NaN
         13   -1    0    0    0    0  0.00000000000E+00  0.00000000000E+00  0.74505805969E-08  0.10566000000E+00  0.10566000000E+00 0.  1.
     999900   -1    0    0    0    0 -0.00000000000E+00 -0.00000000000E+00 -0.74505805969E-08  0.93827000000E+00  0.93827000000E+00 0. -1.
     999902    2    1    2    0    0  0.97023732621E-03  0.21172186623E-01  0.71720059325E-02  0.10215550024E+01  0.10213099346E+01 0.  0.
     999903    2    3    3    0    0 -0.12445070990E-01 -0.61670071337E-02 -0.12861081715E+00  0.13062044981E+00  0.18112091365E-01 0.  0.
         14    1    1    2    0    0 -0.97023732621E-03 -0.21172186623E-01 -0.71720059325E-02  0.22374997563E-01  0.00000000000E+00 0. -1.
     999901    1    3    3    0    0  0.13415308316E-01  0.27339193757E-01  0.13578282308E+00  0.89093455262E+00  0.88000000000E+00 0.  1.
        -11    1    4    4    0    0 -0.84307872253E-02 -0.49492399159E-02 -0.12392280305E+00  0.12430887091E+00  0.51100000000E-03 0.  1.
         11    1    4    4    0    0 -0.40142837646E-02 -0.12177672179E-02 -0.46880140926E-02  0.63115789049E-02  0.51100000000E-03 0. -1.
</event>
<event>
 8    1  0.1076043E+005  0.1043930E+01  0.7957747E-01            NaN
         13   -1    0    0    0    0  0.00000000000E+00  0.00000000000E+00  0.74505805969E-08  0.10566000000E+00  0.10566000000E+00 0. -1.
     999900   -1    0    0    0    0 -0.00000000000E+00 -0.00000000000E+00 -0.74505805969E-08  0.93827000000E+00  0.93827000000E+00 0. -1.
     999902    2    1    2    0    0 -0.38777819451E-02  0.18091079383E-01 -0.14515957826E-01  0.10204132533E+01  0.10201422303E+01 0.  0.
     999903    2    3    3    0    0  0.35157455133E-01  0.10571874792E+00  0.66351600870E-01  0.13151397882E+00  0.21929235612E-01 0.  0.
         14    1    1    2    0    0  0.38777819451E-02 -0.18091079383E-01  0.14515957826E-01  0.23516746749E-01  0.00000000000E+00 0.  1.
     999901    1    3    3    0    0 -0.39035237078E-01 -0.87627668538E-01 -0.80867558695E-01  0.88889927443E+00  0.88000000000E+00 0. -1.
        -11    1    4    4    0    0  0.33480890150E-01  0.69124047300E-01  0.42256046488E-01  0.87663781039E-01  0.51100000000E-03 0. -1.
         11    1    4    4    0    0  0.16765649826E-02  0.36594700622E-01  0.24095554382E-01  0.43850197784E-01  0.51100000000E-03 0.  1.
</event>
<event>
 8    1  0.1076043E+005  0.1043930E+01  0.7957747E-01            NaN
         13   -1    0    0    0    0  0.00000000000E+00  0.00000000000E+00  0.74505805969E-08  0.10566000000E+00  0.10566000000E+00 0. -1.
     999900   -1    0    0    0    0 -0.00000000000E+00 -0.00000000000E+00 -0.74505805969E-08  0.93827000000E+00  0.93827000000E+00 0.  1.
     999902    2    1    2    0    0  0.97412952837E-02  0.19705033055E-01  0.79923195859E-02  0.10205407218E+01  0.10202726628E+01 0.  0.
     999903    2    3    3    0    0 -0.11601572507E+00  0.48340393491E-01  0.30887040452E-01  0.13084471740E+00  0.19232490683E-01 0.  0.
         14    1    1    2    0    0 -0.97412952837E-02 -0.19705033055E-01 -0.79923195859E-02  0.23389278182E-01  0.00000000000E+00 0.  1.
     999901    1    3    3    0    0  0.12575702035E+00 -0.28635360435E-01 -0.22894720866E-01  0.88969600442E+00  0.88000000000E+00 0.  1.
        -11    1    4    4    0    0 -0.96092287685E-04  0.13570863659E-02  0.19998319739E-02  0.24721177270E-02  0.51100000000E-03 0. -1.
         11    1    4    4    0    0 -0.11591963278E+00  0.46983307125E-01  0.28887208478E-01  0.12837259967E+00  0.51100000000E-03 0.  1.
</event>
<event>
 8    1  0.1076043E+005  0.1043930E+01  0.7957747E-01            NaN
         13   -1    0    0    0    0  0.00000000000E+00  0.00000000000E+00  0.74505805969E-08  0.10566000000E+00  0.10566000000E+00 0. -1.
     999900   -1    0    0    0    0 -0.00000000000E+00 -0.00000000000E+00 -0.74505805969E-08  0.93827000000E+00  0.93827000000E+00 0. -1.
     999902    2    1    2    0    0 -0.22270190648E-02 -0.23490645361E-01  0.61617397940E-03  0.10203259812E+01  0.10200529193E+01 0.  0.
     999903    2    3    3    0    0 -0.14276022519E-01 -0.55165453245E-01 -0.11692530720E+00  0.13186412397E+00  0.21669971767E-01 0.  0.
         14    1    1    2    0    0  0.22270190648E-02  0.23490645361E-01 -0.61617397940E-03  0.23604018805E-01  0.00000000000E+00 0. -1.
     999901    1    3    3    0    0  0.12049003454E-01  0.31674807884E-01  0.11754148118E+00  0.88846185722E+00  0.88000000000E+00 0.  1.
        -11    1    4    4    0    0 -0.14046382089E-02 -0.27623369515E-01 -0.76013077602E-01  0.80890497831E-01  0.51100000000E-03 0. -1.
         11    1    4    4    0    0 -0.12871384310E-01 -0.27542083731E-01 -0.40912229600E-01  0.50973626142E-01  0.51100000000E-03 0.  1.
</event>
<event>
 8    1  0.1076043E+005  0.1043930E+01  0.7957747E-01            NaN
         13   -1    0    0    0    0  0.00000000000E+00  0.00000000000E+00  0.74505805969E-08  0.10566000000E+00  0.10566000000E+00 0. -1.
     999900   -1    0    0    0    0 -0.00000000000E+00 -0.00000000000E+00 -0.74505805969E-08  0.93827000000E+00  0.93827000000E+00 0.  1.
     999902    2    1    2    0    0 -0.21431398745E-01  0.37383392868E-02 -0.82911138749E-02  0.10206486211E+01  0.10203830581E+01 0.  0.
     999903    2    3    3    0    0  0.90137886453E-01  0.88360107556E-01  0.19712153546E-01  0.12913713379E+00  0.18854260678E-01 0.  0.
         14    1    1    2    0    0  0.21431398745E-01 -0.37383392868E-02  0.82911138749E-02  0.23281378870E-01  0.00000000000E+00 0. -1.
     999901    1    3    3    0    0 -0.11156928520E+00 -0.84621768270E-01 -0.28003267421E-01  0.89151148734E+00  0.88000000000E+00 0.  1.
        -11    1    4    4    0    0  0.66701977563E-01  0.53170371136E-01  0.11679769531E-01  0.86098317723E-01  0.51100000000E-03 0. -1.
         11    1    4    4    0    0  0.23435908891E-01  0.35189736420E-01  0.80323840152E-02  0.43038816072E-01  0.51100000000E-03 0.  1.
</event>
<event>
 8    1  0.1076043E+005  0.1043930E+01  0.7957747E-01            NaN
         13   -1    0    0    0    0  0.00000000000E+00  0.00000000000E+00  0.74505805969E-08  0.10566000000E+00  0.10566000000E+00 0. -1.
     999900   -1    0    0    0    0 -0.00000000000E+00 -0.00000000000E+00 -0.74505805969E-08  0.93827000000E+00  0.93827000000E+00 0. -1.
     999902    2    1    2    0    0 -0.15673996170E-01  0.59485940135E-02 -0.16755513336E-01  0.10202275285E+01  0.10199521571E+01 0.  0.
     999903    2    3    3    0    0 -0.12803608509E-01  0.10062527448E+00 -0.82578382475E-01  0.13270031033E+00  0.22378669585E-01 0.  0.
         14    1    1    2    0    0  0.15673996170E-01 -0.59485940135E-02  0.16755513336E-01  0.23702471471E-01  0.00000000000E+00 0. -1.
     999901    1    3    3    0    0 -0.28703876613E-02 -0.94676680471E-01  0.65822869139E-01  0.88752721820E+00  0.88000000000E+00 0.  1.
        -11    1    4    4    0    0 -0.12228897820E-01  0.55871866621E-01 -0.58744697048E-01  0.81990316342E-01  0.51100000000E-03 0. -1.
         11    1    4    4    0    0 -0.57471068876E-03  0.44753407863E-01 -0.23833685427E-01  0.50709993983E-01  0.51100000000E-03 0.  1.
</event>
<event>
 8    1  0.1076043E+005  0.1043930E+01  0.7957747E-01            NaN
         13   -1    0    0    0    0  0.00000000000E+00  0.00000000000E+00  0.74505805969E-08  0.10566000000E+00  0.10566000000E+00 0. -1.
     999900   -1    0    0    0    0 -0.00000000000E+00 -0.00000000000E+00 -0.74505805969E-08  0.93827000000E+00  0.93827000000E+00 0.  1.
     999902    2    1    2    0    0  0.12197190136E-01 -0.47225046399E-02  0.18722995683E-01  0.10210909093E+01  0.10208354524E+01 0.  0.
     999903    2    3    3    0    0 -0.11511361670E+00 -0.57579408712E-01  0.95898721694E-02  0.13031298646E+00  0.17971525649E-01 0.  0.
         14    1    1    2    0    0 -0.12197190136E-01  0.47225046399E-02 -0.18722995683E-01  0.22839090714E-01  0.00000000000E+00 0. -1.
     999901    1    3    3    0    0  0.12731080684E+00  0.52856904072E-01  0.91331235137E-02  0.89077792282E+00  0.88000000000E+00 0. -1.
        -11    1    4    4    0    0 -0.10543639818E+00 -0.48521756852E-01  0.46543333171E-02  0.11615988502E+00  0.51100000000E-03 0. -1.
         11    1    4    4    0    0 -0.96772185272E-02 -0.90576518595E-02  0.49355388523E-02  0.14153101441E-01  0.51100000000E-03 0.  1.
</event>
<event>
 8    1  0.1076043E+005  0.1043930E+01  0.7957747E-01            NaN
         13   -1    0    0    0    0  0.00000000000E+00  0.00000000000E+00  0.74505805969E-08  0.10566000000E+00  0.10566000000E+00 0. -1.
     999900   -1    0    0    0    0 -0.00000000000E+00 -0.00000000000E+00 -0.74505805969E-08  0.93827000000E+00  0.93827000000E+00 0. -1.
     999902    2    1    2    0    0 -0.67658225988E-02  0.11984121028E-01 -0.22983692365E-01  0.10171410913E+01  0.10167882543E+01 0.  0.
     999903    2    3    3    0    0  0.12388154813E+00  0.20854274660E-01  0.30918742970E-03  0.12714672431E+00  0.19612627748E-01 0.  0.
         14    1    1    2    0    0  0.67658225988E-02 -0.11984121028E-01  0.22983692365E-01  0.26788908656E-01  0.00000000000E+00 0. -1.
     999901    1    3    3    0    0 -0.13064737073E+00 -0.88701536321E-02 -0.23292879795E-01  0.88999436703E+00  0.88000000000E+00 0. -1.
        -11    1    4    4    0    0  0.11790579086E+00  0.19968501174E-01  0.46726391895E-02  0.11967711242E+00  0.51100000000E-03 0. -1.
         11    1    4    4    0    0  0.59757572646E-02  0.88577348612E-03 -0.43634517598E-02  0.74696118918E-02  0.51100000000E-03 0.  1.
</event>
<event>
 8    1  0.1076043E+005  0.1043930E+01  0.7957747E-01            NaN
         13   -1    0    0    0    0  0.00000000000E+00  0.00000000000E+00  0.74505805969E-08  0.10566000000E+00  0.10566000000E+00 0. -1.
     999900   -1    0    0    0    0 -0.00000000000E+00 -0.00000000000E+00 -0.74505805969E-08  0.93827000000E+00  0.93827000000E+00 0.  1.
     999902    2    1    2    0    0 -0.12499219060E-01 -0.10737962021E-01 -0.17005426985E-01  0.10202504972E+01  0.10199756655E+01 0.  0.
     999903    2    3    3    0    0 -0.35115610643E-01 -0.75532442085E-01 -0.10258766540E+00  0.13343927415E+00  0.18535233312E-01 0.  0.
         14    1    1    2    0    0  0.12499219060E-01  0.10737962021E-01  0.17005426985E-01  0.23679502791E-01  0.00000000000E+00 0. -1.
     999901    1    3    3    0    0  0.22616391582E-01  0.64794480064E-01  0.85582238419E-01  0.88681122306E+00  0.88000000000E+00 0. -1.
        -11    1    4    4    0    0 -0.30443469071E-01 -0.63237621057E-01 -0.74129328932E-01  0.10208437713E+00  0.51100000000E-03 0. -1.
         11    1    4    4    0    0 -0.46721415720E-02 -0.12294821028E-01 -0.28458336471E-01  0.31354897013E-01  0.51100000000E-03 0.  1.
</event>
<event>
 8    1  0.1076043E+005  0.1043930E+01  0.7957747E-01            NaN
         13   -1    0    0    0    0  0.00000000000E+00  0.00000000000E+00  0.74505805969E-08  0.10566000000E+00  0.10566000000E+00 0.  1.
     999900   -1    0    0    0    0 -0.00000000000E+00 -0.00000000000E+00 -0.74505805969E-08  0.93827000000E+00  0.93827000000E+00 0.  1.
     999902    2    1    2    0    0 -0.82313972643E-02  0.17077396817E-01  0.14178409366E-01  0.10202567942E+01  0.10199821103E+01 0.  0.
     999903    2    3    3    0    0  0.41462843613E-01 -0.11732942360E+00  0.25663532434E-01  0.12859171185E+00  0.19795211928E-01 0.  0.
         14    1    1    2    0    0  0.82313972643E-02 -0.17077396817E-01 -0.14178409366E-01  0.23673205848E-01  0.00000000000E+00 0. -1.
     999901    1    3    3    0    0 -0.49694240878E-01  0.13440682042E+00 -0.11485123069E-01  0.89166508231E+00  0.88000000000E+00 0. -1.
        -11    1    4    4    0    0  0.31921964007E-01 -0.65523594126E-01  0.20167003720E-01  0.75626201368E-01  0.51100000000E-03 0. -1.
         11    1    4    4    0    0  0.95408796059E-02 -0.51805829476E-01  0.54965287147E-02  0.52965510479E-01  0.51100000000E-03 0.  1.
</event>
<event>
 8    1  0.1076043E+005  0.1043930E+01  0.7957747E-01            NaN
         13   -1    0    0    0    0  0.00000000000E+00  0.00000000000E+00  0.74505805969E-08  0.10566000000E+00  0.10566000000E+00 0. -1.
     999900   -1    0    0    0    0 -0.00000000000E+00 -0.00000000000E+00 -0.74505805969E-08  0.93827000000E+00  0.93827000000E+00 0. -1.
     999902    2    1    2    0    0 -0.83893878613E-02  0.17871078292E-01  0.44678113988E-02  0.10236884930E+01  0.10234883546E+01 0.  0.
     999903    2    3    3    0    0  0.36592526128E-01  0.99917049114E-01  0.81256799890E-01  0.13540280544E+00  0.20219360078E-01 0.  0.
         14    1    1    2    0    0  0.83893878613E-02 -0.17871078292E-01 -0.44678113988E-02  0.20241507027E-01  0.00000000000E+00 0. -1.
     999901    1    3    3    0    0 -0.44981913990E-01 -0.82045970821E-01 -0.76788988491E-01  0.88828568753E+00  0.88000000000E+00 0. -1.
        -11    1    4    4    0    0  0.17238012186E-01  0.68006334709E-01  0.44893117223E-01  0.83292639049E-01  0.51100000000E-03 0.  1.
         11    1    4    4    0    0  0.19354513942E-01  0.31910714405E-01  0.36363682667E-01  0.52110166396E-01  0.51100000000E-03 0. -1.
</event>
<event>
 8    1  0.1076043E+005  0.1043930E+01  0.7957747E-01            NaN
         13   -1    0    0    0    0  0.00000000000E+00  0.00000000000E+00  0.74505805969E-08  0.10566000000E+00  0.10566000000E+00 0.  1.
     999900   -1    0    0    0    0 -0.00000000000E+00 -0.00000000000E+00 -0.74505805969E-08  0.93827000000E+00  0.93827000000E+00 0. -1.
     999902    2    1    2    0    0  0.76873883234E-02  0.78543072297E-02 -0.20898081864E-01  0.10203182252E+01  0.10200449818E+01 0.  0.
     999903    2    3    3    0    0  0.60262131121E-01  0.47981870223E-01 -0.10730036696E+00  0.13361665214E+00  0.20155809602E-01 0.  0.
         14    1    1    2    0    0 -0.76873883234E-02 -0.78543072297E-02  0.20898081864E-01  0.23611774751E-01  0.00000000000E+00 0.  1.
     999901    1    3    3    0    0 -0.52574742798E-01 -0.40127562993E-01  0.86402285096E-01  0.88670157311E+00  0.88000000000E+00 0. -1.
        -11    1    4    4    0    0  0.16114010545E-01  0.76924928336E-02 -0.38740643463E-01  0.42660688681E-01  0.51100000000E-03 0.  1.
         11    1    4    4    0    0  0.44148120577E-01  0.40289377389E-01 -0.68559723498E-01  0.90955963454E-01  0.51100000000E-03 0. -1.
</event>
<event>
 8    1  0.1076043E+005  0.1043930E+01  0.7957747E-01            NaN
         13   -1    0    0    0    0  0.00000000000E+00  0.00000000000E+00  0.74505805969E-08  0.10566000000E+00  0.10566000000E+00 0.  1.
     999900   -1    0    0    0    0 -0.00000000000E+00 -0.00000000000E+00 -0.74505805969E-08  0.93827000000E+00  0.93827000000E+00 0. -1.
     999902    2    1    2    0    0  0.20714228064E-02  0.30436101382E-02  0.23936136471E-01  0.10197123828E+01  0.10194247646E+01 0.  0.
     999903    2    3    3    0    0 -0.85083937555E-01  0.70313907795E-01 -0.62914616054E-01  0.12860946896E+00  0.19970591724E-01 0.  0.
         14    1    1    2    0    0 -0.20714228064E-02 -0.30436101382E-02 -0.23936136471E-01  0.24217617229E-01  0.00000000000E+00 0. -1.
     999901    1    3    3    0    0  0.87155360362E-01 -0.67270297656E-01  0.86850752525E-01  0.89110291381E+00  0.88000000000E+00 0.  1.
        -11    1    4    4    0    0 -0.81232757044E-01  0.60941168379E-01 -0.60399281417E-01  0.11815634193E+00  0.51100000000E-03 0.  1.
         11    1    4    4    0    0 -0.38511805113E-02  0.93727394157E-02 -0.25153346364E-02  0.10453127035E-01  0.51100000000E-03 0. -1.
</event>
<event>
 8    1  0.1076043E+005  0.1043930E+01  0.7957747E-01            NaN
         13   -1    0    0    0    0  0.00000000000E+00  0.00000000000E+00  0.74505805969E-08  0.10566000000E+00  0.10566000000E+00 0.  1.
     999900   -1    0    0    0    0 -0.00000000000E+00 -0.00000000000E+00 -0.74505805969E-08  0.93827000000E+00  0.93827000000E+00 0. -1.
     999902    2    1    2    0    0 -0.11042924783E-01  0.16372835711E-01  0.14290259772E-01  0.10195532188E+01  0.10192617615E+01 0.  0.
     999903    2    3    3    0    0  0.68532265164E-02 -0.12609053884E+00  0.62487970950E-02  0.12788021235E+00  0.19196628538E-01 0.  0.
         14    1    1    2    0    0  0.11042924783E-01 -0.16372835711E-01 -0.14290259772E-01  0.24376781193E-01  0.00000000000E+00 0. -1.
     999901    1    3    3    0    0 -0.17896151300E-01  0.14246337455E+00  0.80414626773E-02  0.89167300646E+00  0.88000000000E+00 0.  1.
        -11    1    4    4    0    0 -0.35828437112E-02 -0.85205544194E-01  0.44162225247E-03  0.85283513539E-01  0.51100000000E-03 0. -1.
         11    1    4    4    0    0  0.10436070228E-01 -0.40884994646E-01  0.58071748425E-02  0.42596698812E-01  0.51100000000E-03 0.  1.
</event>
<event>
 7    1  0.1076043E+005  0.1043930E+01  0.7957747E-01            NaN
         13   -1    0    0    0    0  0.00000000000E+00  0.00000000000E+00  0.74505805969E-08  0.10566000000E+00  0.10566000000E+00 0.  1.
     999900   -1    0    0    0    0 -0.00000000000E+00 -0.00000000000E+00 -0.74505805969E-08  0.93827000000E+00  0.93827000000E+00 0. -1.
     999903    2    1    2    0    0 -0.16782958787E-01 -0.62378317762E-01 -0.92849211405E-01  0.11481301110E+00  0.19706070790E-01 0.  0.
         14    1    1    2    0    0 -0.34172093497E-01 -0.12586975155E-01 -0.11828732351E-01  0.38289461037E-01  0.00000000000E+00 0.  1.
     999901    1    1    2    0    0  0.50955052284E-01  0.74965292918E-01  0.10467794376E+00  0.89082752787E+00  0.88000000000E+00 0.  1.
        -11    1    3    3    0    0 -0.17823286767E-01 -0.34319969382E-01 -0.45042605678E-01  0.59368571626E-01  0.51100000000E-03 0. -1.
         11    1    3    3    0    0  0.10403279800E-02 -0.28058348380E-01 -0.47806605726E-01  0.55444439471E-01  0.51100000000E-03 0.  1.
</event>
<event>
 8    1  0.1076043E+005  0.1043930E+01  0.7957747E-01            NaN
         13   -1    0    0    0    0  0.00000000000E+00  0.00000000000E+00  0.74505805969E-08  0.10566000000E+00  0.10566000000E+00 0.  1.
     999900   -1    0    0    0    0 -0.00000000000E+00 -0.00000000000E+00 -0.74505805969E-08  0.93827000000E+00  0.93827000000E+00 0.  1.
     999902    2    1    2    0    0  0.13059916262E-01  0.16141078993E-01  0.14268634085E-01  0.10187369501E+01  0.10184253943E+01 0.  0.
     999903    2    3    3    0    0  0.93939981322E-01 -0.62774037464E-01 -0.58425829412E-01  0.12853828378E+00  0.18526008294E-01 0.  0.
         14    1    1    2    0    0 -0.13059916262E-01 -0.16141078993E-01 -0.14268634085E-01  0.25193049884E-01  0.00000000000E+00 0.  1.
     999901    1    3    3    0    0 -0.80880065060E-01  0.78915116457E-01  0.72694463497E-01  0.89019866634E+00  0.88000000000E+00 0.  1.
        -11    1    4    4    0    0  0.73541869529E-01 -0.45854877558E-01 -0.36113986776E-01  0.93891200501E-01  0.51100000000E-03 0. -1.
         11    1    4    4    0    0  0.20398111793E-01 -0.16919159906E-01 -0.22311842636E-01  0.34647083275E-01  0.51100000000E-03 0.  1.
</event>
<event>
 8    1  0.1076043E+005  0.1043930E+01  0.7957747E-01            NaN
         13   -1    0    0    0    0  0.00000000000E+00  0.00000000000E+00  0.74505805969E-08  0.10566000000E+00  0.10566000000E+00 0. -1.
     999900   -1    0    0    0    0 -0.00000000000E+00 -0.00000000000E+00 -0.74505805969E-08  0.93827000000E+00  0.93827000000E+00 0.  1.
     999902    2    1    2    0    0  0.88565694809E-02 -0.10057280981E-01 -0.31071199173E-01  0.10100920458E+01  0.10095251032E+01 0.  0.
     999903    2    3    3    0    0  0.68389016335E-01  0.82776854471E-01 -0.56434285814E-01  0.12284598352E+00  0.19422715078E-01 0.  0.
         14    1    1    2    0    0 -0.88565694809E-02  0.10057280981E-01  0.31071199173E-01  0.33837954160E-01  0.00000000000E+00 0. -1.
     999901    1    3    3    0    0 -0.59532446854E-01 -0.92834135452E-01  0.25363086641E-01  0.88724606232E+00  0.88000000000E+00 0. -1.
        -11    1    4    4    0    0  0.81945943901E-02  0.21868578353E-02 -0.51695115925E-02  0.99457878278E-02  0.51100000000E-03 0. -1.
         11    1    4    4    0    0  0.60194421945E-01  0.80589996635E-01 -0.51264774221E-01  0.11290019570E+00  0.51100000000E-03 0.  1.
</event>
<event>
 8    1  0.1076043E+005  0.1043930E+01  0.7957747E-01            NaN
         13   -1    0    0    0    0  0.00000000000E+00  0.00000000000E+00  0.74505805969E-08  0.10566000000E+00  0.10566000000E+00 0.  1.
     999900   -1    0    0    0    0 -0.00000000000E+00 -0.00000000000E+00 -0.74505805969E-08  0.93827000000E+00  0.93827000000E+00 0. -1.
     999902    2    1    2    0    0  0.96005856615E-02 -0.18529587006E-01  0.11096811007E-01  0.10202940940E+01  0.10200202852E+01 0.  0.
     999903    2    3    3    0    0 -0.12727963033E+00 -0.13707829382E-02 -0.15113684732E-01  0.12916132710E+00  0.15882116057E-01 0.  0.
         14    1    1    2    0    0 -0.96005856615E-02  0.18529587006E-01 -0.11096811007E-01  0.23635906037E-01  0.00000000000E+00 0.  1.
     999901    1    3    3    0    0  0.13688021599E+00 -0.17158804068E-01  0.26210495739E-01  0.89113276686E+00  0.88000000000E+00 0.  1.
        -11    1    4    4    0    0 -0.10721896554E+00  0.33890209004E-02 -0.90015275046E-02  0.10765073457E+00  0.51100000000E-03 0. -1.
         11    1    4    4    0    0 -0.20060664787E-01 -0.47598038386E-02 -0.61121572272E-02  0.21510592536E-01  0.51100000000E-03 0.  1.
</event>
<event>
 8    1  0.1076043E+005  0.1043930E+01  0.7957747E-01            NaN
         13   -1    0    0    0    0  0.00000000000E+00  0.00000000000E+00  0.74505805969E-08  0.10566000000E+00  0.10566000000E+00 0. -1.
     999900   -1    0    0    0    0 -0.00000000000E+00 -0.00000000000E+00 -0.74505805969E-08  0.93827000000E+00  0.93827000000E+00 0.  1.
     999902    2    1    2    0    0 -0.22083924433E-01  0.32426682240E-02 -0.35894519440E-02  0.10213225061E+01  0.10210722612E+01 0.  0.
     999903    2    3    3    0    0  0.72125281715E-01 -0.52039195770E-01 -0.92869641922E-01  0.13008605524E+00  0.19684440999E-01 0.  0.
         14    1    1    2    0    0  0.22083924433E-01 -0.32426682240E-02  0.35894519440E-02  0.22607493909E-01  0.00000000000E+00 0. -1.
     999901    1    3    3    0    0 -0.94209206148E-01  0.55281863994E-01  0.89280189978E-01  0.89123645085E+00  0.88000000000E+00 0.  1.
        -11    1    4    4    0    0  0.61981953257E-01 -0.49604404591E-01 -0.88135883015E-01  0.11861936807E+00  0.51100000000E-03 0. -1.
         11    1    4    4    0    0  0.10143328458E-01 -0.24347911785E-02 -0.47337589072E-02  0.11466687171E-01  0.51100000000E-03 0.  1.
</event>
<event>
 8    1  0.1076043E+005  0.1043930E+01  0.7957747E-01            NaN
         13   -1    0    0    0    0  0.00000000000E+00  0.00000000000E+00  0.74505805969E-08  0.10566000000E+00  0.10566000000E+00 0.  1.
     999900   -1    0    0    0    0 -0.00000000000E+00 -0.00000000000E+00 -0.74505805969E-08  0.93827000000E+00  0.93827000000E+00 0. -1.
     999902    2    1    2    0    0 -0.22831467839E-01  0.98282833590E-03 -0.75348872376E-02  0.10198672404E+01  0.10195833323E+01 0.  0.
     999903    2    3    3    0    0  0.66218240084E-01  0.79512121069E-01  0.73184232262E-01  0.12823263104E+00  0.19510076779E-01 0.  0.
         14    1    1    2    0    0  0.22831467839E-01 -0.98282833590E-03  0.75348872376E-02  0.24062759628E-01  0.00000000000E+00 0.  1.
     999901    1    3    3    0    0 -0.89049707923E-01 -0.78529292734E-01 -0.80719119500E-01  0.89163460933E+00  0.88000000000E+00 0. -1.
        -11    1    4    4    0    0  0.25632450003E-01  0.43607789144E-01  0.28973531463E-01  0.58295698071E-01  0.51100000000E-03 0. -1.
         11    1    4    4    0    0  0.40585790081E-01  0.35904331926E-01  0.44210700799E-01  0.69936932973E-01  0.51100000000E-03 0.  1.
</event>
<event>
 7    1  0.1076043E+005  0.1043930E+01  0.7957747E-01            NaN
         13   -1    0    0    0    0  0.00000000000E+00  0.00000000000E+00  0.74505805969E-08  0.10566000000E+00  0.10566000000E+00 0.  1.
     999900   -1    0    0    0    0 -0.00000000000E+00 -0.00000000000E+00 -0.74505805969E-08  0.93827000000E+00  0.93827000000E+00 0. -1.
     999903    2    1    2    0    0  0.93730508947E-01  0.62065867582E-01 -0.10695941845E-01  0.11462610234E+00  0.19676380238E-01 0.  0.
         14    1    1    2    0    0  0.11948615608E-02  0.35054994648E-01 -0.15851142649E-01  0.38490765999E-01  0.00000000000E+00 0. -1.
     999901    1    1    2    0    0 -0.94925370508E-01 -0.97120862229E-01  0.26547084495E-01  0.89081313166E+00  0.88000000000E+00 0. -1.
        -11    1    3    3    0    0  0.82546083923E-02  0.94678249201E-02 -0.65524897048E-02  0.14176547914E-01  0.51100000000E-03 0. -1.
         11    1    3    3    0    0  0.85475900555E-01  0.52598042661E-01 -0.41434521407E-02  0.10044955443E+00  0.51100000000E-03 0.  1.
</event>
<event>
 8    1  0.1172658E+005  0.1043930E+01  0.7957747E-01            NaN
         13   -1    0    0    0    0  0.00000000000E+00  0.00000000000E+00  0.74505805969E-08  0.10566000000E+00  0.10566000000E+00 0.  1.
     999900   -1    0    0    0    0 -0.00000000000E+00 -0.00000000000E+00 -0.74505805969E-08  0.93827000000E+00  0.93827000000E+00 0.  1.
     999902    2    1    2    0    0 -0.19735544424E-02  0.15161673251E-01 -0.17430919181E-01  0.10207436205E+01  0.10204802450E+01 0.  0.
     999903    2    3    3    0    0 -0.34077030386E-01 -0.74594203500E-01  0.96571503359E-01  0.12828448810E+00  0.20132447205E-01 0.  0.
         14    1    1    2    0    0  0.19735544424E-02 -0.15161673251E-01  0.17430919181E-01  0.23186379544E-01  0.00000000000E+00 0. -1.
     999901    1    3    3    0    0  0.32103475944E-01  0.89755876750E-01 -0.11400242254E+00  0.89245913236E+00  0.88000000000E+00 0.  1.
        -11    1    4    4    0    0 -0.14670958237E-01 -0.54081845087E-01  0.60381381233E-01  0.82378730897E-01  0.51100000000E-03 0.  1.
         11    1    4    4    0    0 -0.19406072150E-01 -0.20512358413E-01  0.36190122126E-01  0.45905757204E-01  0.51100000000E-03 0. -1.
</event>
<event>
 8    1  0.1076043E+005  0.1043930E+01  0.7957747E-01            NaN
         13   -1    0    0    0    0  0.00000000000E+00  0.00000000000E+00  0.74505805969E-08  0.10566000000E+00  0.10566000000E+00 0.  1.
     999900   -1    0    0    0    0 -0.00000000000E+00 -0.00000000000E+00 -0.74505805969E-08  0.93827000000E+00  0.93827000000E+00 0.  1.
     999902    2    1    2    0    0 -0.95938830383E-02 -0.12406308605E-01 -0.18235994868E-01  0.10198777528E+01  0.10195940958E+01 0.  0.
     999903    2    3    3    0    0  0.67755977597E-01  0.32023293535E-01 -0.10568911858E+00  0.13105547626E+00  0.19722683444E-01 0.  0.
         14    1    1    2    0    0  0.95938830383E-02  0.12406308605E-01  0.18235994868E-01  0.24052247167E-01  0.00000000000E+00 0.  1.
     999901    1    3    3    0    0 -0.77349860636E-01 -0.44429602140E-01  0.87453123712E-01  0.88882227657E+00  0.88000000000E+00 0. -1.
        -11    1    4    4    0    0  0.54249871309E-01  0.19800564872E-01 -0.90375783821E-01  0.10725275907E+00  0.51100000000E-03 0.  1.
         11    1    4    4    0    0  0.13506106288E-01  0.12222728663E-01 -0.15313334759E-01  0.23802717187E-01  0.51100000000E-03 0. -1.
</event>
<event>
 8    1  0.1076043E+005  0.1043930E+01  0.7957747E-01            NaN
         13   -1    0    0    0    0  0.00000000000E+00  0.00000000000E+00  0.74505805969E-08  0.10566000000E+00  0.10566000000E+00 0. -1.
     999900   -1    0    0    0    0 -0.00000000000E+00 -0.00000000000E+00 -0.74505805969E-08  0.93827000000E+00  0.93827000000E+00 0. -1.
     999902    2    1    2    0    0 -0.49542374134E-02  0.16553065417E-01 -0.16745945149E-01  0.10198680981E+01  0.10195842106E+01 0.  0.
     999903    2    3    3    0    0 -0.11752474235E+00  0.54061262408E-01 -0.15762619388E-01  0.13190416285E+00  0.20385358698E-01 0.  0.
         14    1    1    2    0    0  0.49542374134E-02 -0.16553065417E-01  0.16745945149E-01  0.24061901878E-01  0.00000000000E+00 0.  1.
     999901    1    3    3    0    0  0.11257050493E+00 -0.37508196991E-01 -0.98332576134E-03  0.88796393528E+00  0.88000000000E+00 0.  1.
        -11    1    4    4    0    0 -0.13842836899E-01  0.14211463780E-01 -0.12860226996E-02  0.19887302773E-01  0.51100000000E-03 0.  1.
         11    1    4    4    0    0 -0.10368190545E+00  0.39849798628E-01 -0.14476596688E-01  0.11201686007E+00  0.51100000000E-03 0. -1.
</event>
<event>
 8    1  0.1076043E+005  0.1043930E+01  0.7957747E-01            NaN
         13   -1    0    0    0    0  0.00000000000E+00  0.00000000000E+00  0.74505805969E-08  0.10566000000E+00  0.10566000000E+00 0. -1.
     999900   -1    0    0    0    0 -0.00000000000E+00 -0.00000000000E+00 -0.74505805969E-08  0.93827000000E+00  0.93827000000E+00 0.  1.
     999902    2    1    2    0    0 -0.48433146922E-02  0.17204253398E-01 -0.11077081592E-01  0.10229027375E+01  0.10226865916E+01 0.  0.
     999903    2    3    3    0    0  0.87545515205E-01  0.27409843291E-02  0.96040992081E-01  0.13148860043E+00  0.19840606213E-01 0.  0.
         14    1    1    2    0    0  0.48433146922E-02 -0.17204253398E-01  0.11077081592E-01  0.21027262513E-01  0.00000000000E+00 0. -1.
     999901    1    3    3    0    0 -0.92388829898E-01  0.14463269069E-01 -0.10711807367E+00  0.89141413706E+00  0.88000000000E+00 0.  1.
        -11    1    4    4    0    0  0.12216191133E-01  0.47091189684E-02  0.70524010004E-02  0.14879805380E-01  0.51100000000E-03 0. -1.
         11    1    4    4    0    0  0.75329324072E-01 -0.19681346393E-02  0.88988591080E-01  0.11660879505E+00  0.51100000000E-03 0.  1.
</event>
<event>
 8    1  0.1318257E+005  0.1043930E+01  0.7957747E-01            NaN
         13   -1    0    0    0    0  0.00000000000E+00  0.00000000000E+00  0.74505805969E-08  0.10566000000E+00  0.10566000000E+00 0.  1.
     999900   -1    0    0    0    0 -0.00000000000E+00 -0.00000000000E+00 -0.74505805969E-08  0.93827000000E+00  0.93827000000E+00 0. -1.
     999902    2    1    2    0    0  0.13135872006E-01 -0.15331882744E-01 -0.18987726446E-01  0.10162144535E+01  0.10158364357E+01 0.  0.
     999903    2    3    3    0    0 -0.65143167558E-01  0.98273598529E-01  0.33142980117E-01  0.12394127562E+00  0.19017103452E-01 0.  0.
         14    1    1    2    0    0 -0.13135872006E-01  0.15331882744E-01  0.18987726446E-01  0.27715546494E-01  0.00000000000E+00 0.  1.
     999901    1    3    3    0    0  0.78279039564E-01 -0.11360548127E+00 -0.52130706563E-01  0.89227317789E+00  0.88000000000E+00 0.  1.
        -11    1    4    4    0    0 -0.32444483439E-01  0.58848628877E-01  0.26712897309E-01  0.72316288829E-01  0.51100000000E-03 0. -1.
         11    1    4    4    0    0 -0.32698684119E-01  0.39424969652E-01  0.64300828080E-02  0.51624986790E-01  0.51100000000E-03 0.  1.
</event>
<event>
 8    1  0.1076043E+005  0.1043930E+01  0.7957747E-01            NaN
         13   -1    0    0    0    0  0.00000000000E+00  0.00000000000E+00  0.74505805969E-08  0.10566000000E+00  0.10566000000E+00 0.  1.
     999900   -1    0    0    0    0 -0.00000000000E+00 -0.00000000000E+00 -0.74505805969E-08  0.93827000000E+00  0.93827000000E+00 0. -1.
     999902    2    1    2    0    0  0.11334096836E-01 -0.20979183010E-01  0.59168100250E-02  0.10193617988E+01  0.10190656899E+01 0.  0.
     999903    2    3    3    0    0 -0.31743623188E-01 -0.52093976157E-01 -0.11274834993E+00  0.12980840492E+00  0.20410575972E-01 0.  0.
         14    1    1    2    0    0 -0.11334096836E-01  0.20979183010E-01 -0.59168100250E-02  0.24568201231E-01  0.00000000000E+00 0.  1.
     999901    1    3    3    0    0  0.43077720024E-01  0.31114793147E-01  0.11866515996E+00  0.88955339385E+00  0.88000000000E+00 0.  1.
        -11    1    4    4    0    0 -0.18130378780E-01 -0.24592451160E-01 -0.36422204031E-01  0.47543005335E-01  0.51100000000E-03 0.  1.
         11    1    4    4    0    0 -0.13613244408E-01 -0.27501524996E-01 -0.76326145901E-01  0.82265399589E-01  0.51100000000E-03 0. -1.
</event>
<event>
 8    1  0.1076043E+005  0.1043930E+01  0.7957747E-01            NaN
         13   -1    0    0    0    0  0.00000000000E+00  0.00000000000E+00  0.74505805969E-08  0.10566000000E+00  0.10566000000E+00 0. -1.
     999900   -1    0    0    0    0 -0.00000000000E+00 -0.00000000000E+00 -0.74505805969E-08  0.93827000000E+00  0.93827000000E+00 0. -1.
     999902    2    1    2    0    0  0.23675823478E-02 -0.23352836303E-01  0.29465109283E-02  0.10202732391E+01  0.10199989412E+01 0.  0.
     999903    2    3    3    0    0  0.12483961576E+00 -0.14530777230E-01 -0.31189056693E-01  0.13109245621E+00  0.20405922371E-01 0.  0.
         14    1    1    2    0    0 -0.23675823478E-02  0.23352836303E-01 -0.29465109283E-02  0.23656760899E-01  0.00000000000E+00 0.  1.
     999901    1    3    3    0    0 -0.12247203341E+00 -0.88220590730E-02  0.34135567622E-01  0.88918078290E+00  0.88000000000E+00 0.  1.
        -11    1    4    4    0    0  0.11039902279E+00 -0.12912930712E-01 -0.34096138574E-01  0.11626476594E+00  0.51100000000E-03 0. -1.
         11    1    4    4    0    0  0.14440592970E-01 -0.16178465188E-02  0.29070818802E-02  0.14827690270E-01  0.51100000000E-03 0.  1.
</event>
<event>
 8    1  0.1076043E+005  0.1043930E+01  0.7957747E-01            NaN
         13   -1    0    0    0    0  0.00000000000E+00  0.00000000000E+00  0.74505805969E-08  0.10566000000E+00  0.10566000000E+00 0.  1.
     999900   -1    0    0    0    0 -0.00000000000E+00 -0.00000000000E+00 -0.74505805969E-08  0.93827000000E+00  0.93827000000E+00 0. -1.
     999902    2    1    2    0    0  0.12485889912E-01 -0.11774219578E-01 -0.15484271369E-01  0.10208152352E+01  0.10205535028E+01 0.  0.
     999903    2    3    3    0    0  0.39225280068E-01 -0.10083050863E+00 -0.76260839381E-01  0.13383169032E+00  0.19743141703E-01 0.  0.
         14    1    1    2    0    0 -0.12485889912E-01  0.11774219578E-01  0.15484271369E-01  0.23114764835E-01  0.00000000000E+00 0.  1.
     999901    1    3    3    0    0 -0.26739390156E-01  0.89056289050E-01  0.60776568012E-01  0.88698354484E+00  0.88000000000E+00 0.  1.
        -11    1    4    4    0    0  0.10962052486E-01 -0.50307879948E-01 -0.42857850207E-01  0.66993326720E-01  0.51100000000E-03 0.  1.
         11    1    4    4    0    0  0.28263227582E-01 -0.50522628680E-01 -0.33402989174E-01  0.66838363601E-01  0.51100000000E-03 0. -1.
</event>
<event>
 8    1  0.1076043E+005  0.1043930E+01  0.7957747E-01            NaN
         13   -1    0    0    0    0  0.00000000000E+00  0.00000000000E+00  0.74505805969E-08  0.10566000000E+00  0.10566000000E+00 0.  1.
     999900   -1    0    0    0    0 -0.00000000000E+00 -0.00000000000E+00 -0.74505805969E-08  0.93827000000E+00  0.93827000000E+00 0. -1.
     999902    2    1    2    0    0  0.15908318245E-01 -0.12838103859E-01 -0.11863202161E-01  0.10202947072E+01  0.10200209128E+01 0.  0.
     999903    2    3    3    0    0  0.75566865595E-01  0.78663618871E-01 -0.70851631293E-01  0.13158140005E+00  0.19884543577E-01 0.  0.
         14    1    1    2    0    0 -0.15908318245E-01  0.12838103859E-01  0.11863202161E-01  0.23635292797E-01  0.00000000000E+00 0.  1.
     999901    1    3    3    0    0 -0.59658547349E-01 -0.91501722730E-01  0.58988429132E-01  0.88871330715E+00  0.88000000000E+00 0.  1.
        -11    1    4    4    0    0  0.17731073673E-01  0.25048208935E-01 -0.29326383338E-01  0.42451167536E-01  0.51100000000E-03 0. -1.
         11    1    4    4    0    0  0.57835791922E-01  0.53615409936E-01 -0.41525247955E-01  0.89130232517E-01  0.51100000000E-03 0.  1.
</event>
<event>
 8    1  0.1076043E+005  0.1043930E+01  0.7957747E-01            NaN
         13   -1    0    0    0    0  0.00000000000E+00  0.00000000000E+00  0.74505805969E-08  0.10566000000E+00  0.10566000000E+00 0. -1.
     999900   -1    0    0    0    0 -0.00000000000E+00 -0.00000000000E+00 -0.74505805969E-08  0.93827000000E+00  0.93827000000E+00 0. -1.
     999902    2    1    2    0    0  0.11979316284E-01 -0.10238469545E-01  0.17632778728E-01  0.10202816351E+01  0.10200075342E+01 0.  0.
     999903    2    3    3    0    0 -0.30822975144E-01 -0.11544326159E+00  0.53151726556E-01  0.13227168015E+00  0.19836554415E-01 0.  0.
         14    1    1    2    0    0 -0.11979316284E-01  0.10238469545E-01 -0.17632778728E-01  0.23648364910E-01  0.00000000000E+00 0.  1.
     999901    1    3    3    0    0  0.42802291428E-01  0.10520479204E+00 -0.35518947828E-01  0.88800995494E+00  0.88000000000E+00 0. -1.
        -11    1    4    4    0    0 -0.16224070167E-01 -0.69245237818E-01  0.41839203696E-01  0.82516080252E-01  0.51100000000E-03 0. -1.
         11    1    4    4    0    0 -0.14598904977E-01 -0.46198023768E-01  0.11312522860E-01  0.49755599896E-01  0.51100000000E-03 0.  1.
</event>
<event>
 7    1  0.1076043E+005  0.1043930E+01  0.7957747E-01            NaN
         13   -1    0    0    0    0  0.00000000000E+00  0.00000000000E+00  0.74505805969E-08  0.10566000000E+00  0.10566000000E+00 0. -1.
     999900   -1    0    0    0    0 -0.00000000000E+00 -0.00000000000E+00 -0.74505805969E-08  0.93827000000E+00  0.93827000000E+00 0. -1.
     999903    2    1    2    0    0  0.81452053613E-01 -0.77201959006E-01 -0.35555137418E-01  0.11998991175E+00  0.23212746787E-01 0.  0.
         14    1    1    2    0    0  0.26543315793E-02  0.29292568176E-01  0.24949558062E-01  0.38569164808E-01  0.00000000000E+00 0.  1.
     999901    1    1    2    0    0 -0.84106385192E-01  0.47909390829E-01  0.10605579356E-01  0.88537092344E+00  0.88000000000E+00 0.  1.
        -11    1    3    3    0    0  0.54100395544E-02 -0.16117231815E-01 -0.65855827982E-02  0.18239098419E-01  0.51100000000E-03 0.  1.
         11    1    3    3    0    0  0.76042014059E-01 -0.61084727191E-01 -0.28969554620E-01  0.10175081333E+00  0.51100000000E-03 0. -1.
</event>
<event>
 8    1  0.1076043E+005  0.1043930E+01  0.7957747E-01            NaN
         13   -1    0    0    0    0  0.00000000000E+00  0.00000000000E+00  0.74505805969E-08  0.10566000000E+00  0.10566000000E+00 0.  1.
     999900   -1    0    0    0    0 -0.00000000000E+00 -0.00000000000E+00 -0.74505805969E-08  0.93827000000E+00  0.93827000000E+00 0. -1.
     999902    2    1    2    0    0 -0.22354315922E-01  0.46576011579E-02 -0.79634422890E-02  0.10197468426E+01  0.10194600521E+01 0.  0.
     999903    2    3    3    0    0 -0.11088403704E+00 -0.51368171435E-01  0.44098680337E-01  0.13200427669E+00  0.23376842147E-01 0.  0.
         14    1    1    2    0    0  0.22354315922E-01 -0.46576011579E-02  0.79634422890E-02  0.24183157403E-01  0.00000000000E+00 0.  1.
     999901    1    3    3    0    0  0.88529721120E-01  0.56025772593E-01 -0.52062122626E-01  0.88774256591E+00  0.88000000000E+00 0.  1.
        -11    1    4    4    0    0 -0.10089935115E+00 -0.53167740590E-01  0.38318379445E-01  0.12031644537E+00  0.51100000000E-03 0. -1.
         11    1    4    4    0    0 -0.99846858962E-02  0.17995691550E-02  0.57803008917E-02  0.11687831321E-01  0.51100000000E-03 0.  1.
</event>
<event>
 8    1  0.1076043E+005  0.1043930E+01  0.7957747E-01            NaN
         13   -1    0    0    0    0  0.00000000000E+00  0.00000000000E+00  0.74505805969E-08  0.10566000000E+00  0.10566000000E+00 0.  1.
     999900   -1    0    0    0    0 -0.00000000000E+00 -0.00000000000E+00 -0.74505805969E-08  0.93827000000E+00  0.93827000000E+00 0.  1.
     999902    2    1    2    0    0  0.17267380271E-01 -0.38090356053E-04  0.14757885197E-01  0.10212152680E+01  0.10209626167E+01 0.  0.
     999903    2    3    3    0    0  0.66898865742E-02  0.57608381155E-01  0.11829713827E+00  0.13320886268E+00  0.19669977370E-01 0.  0.
         14    1    1    2    0    0 -0.17267380271E-01  0.38090356053E-04 -0.14757885197E-01  0.22714731955E-01  0.00000000000E+00 0. -1.
     999901    1    3    3    0    0  0.10577493697E-01 -0.57646471511E-01 -0.10353925308E+00  0.88800640537E+00  0.88000000000E+00 0.  1.
        -11    1    4    4    0    0 -0.38036842652E-02  0.26427759404E-01  0.68519198217E-01  0.73539350870E-01  0.51100000000E-03 0.  1.
         11    1    4    4    0    0  0.10493570839E-01  0.31180621751E-01  0.49777940057E-01  0.59669511805E-01  0.51100000000E-03 0. -1.
</event>
<event>
 8    1  0.1076043E+005  0.1043930E+01  0.7957747E-01            NaN
         13   -1    0    0    0    0  0.00000000000E+00  0.00000000000E+00  0.74505805969E-08  0.10566000000E+00  0.10566000000E+00 0.  1.
     999900   -1    0    0    0    0 -0.00000000000E+00 -0.00000000000E+00 -0.74505805969E-08  0.93827000000E+00  0.93827000000E+00 0.  1.
     999902    2    1    2    0    0 -0.21005881379E-01 -0.21786464739E-02  0.11439617950E-01  0.10199121231E+01  0.10196292858E+01 0.  0.
     999903    2    3    3    0    0  0.51411727152E-01  0.11506101298E+00 -0.16664292021E-01  0.12874475522E+00  0.20379179902E-01 0.  0.
         14    1    1    2    0    0  0.21005881379E-01  0.21786464739E-02 -0.11439617950E-01  0.24017876921E-01  0.00000000000E+00 0. -1.
     999901    1    3    3    0    0 -0.72417608531E-01 -0.11723965945E+00  0.28103909971E-01  0.89116736785E+00  0.88000000000E+00 0.  1.
        -11    1    4    4    0    0  0.25958380301E-01  0.40504341299E-01 -0.13181393143E-01  0.49884360456E-01  0.51100000000E-03 0.  1.
         11    1    4    4    0    0  0.25453346851E-01  0.74556671676E-01 -0.34828988773E-02  0.78860394768E-01  0.51100000000E-03 0. -1.
</event>
<event>
 8    1  0.1076043E+005  0.1043930E+01  0.7957747E-01            NaN
         13   -1    0    0    0    0  0.00000000000E+00  0.00000000000E+00  0.74505805969E-08  0.10566000000E+00  0.10566000000E+00 0. -1.
     999900   -1    0    0    0    0 -0.00000000000E+00 -0.00000000000E+00 -0.74505805969E-08  0.93827000000E+00  0.93827000000E+00 0.  1.
     999902    2    1    2    0    0 -0.84449888877E-02  0.20521294471E-01  0.11619323937E-01  0.10188810469E+01  0.10185730890E+01 0.  0.
     999903    2    3    3    0    0 -0.68738566853E-01 -0.10044699914E+00 -0.32345841194E-01  0.12747677307E+00  0.19735349511E-01 0.  0.
         14    1    1    2    0    0  0.84449888877E-02 -0.20521294471E-01 -0.11619323937E-01  0.25048953128E-01  0.00000000000E+00 0. -1.
     999901    1    3    3    0    0  0.60293577965E-01  0.12096829361E+00  0.43965165130E-01  0.89140427380E+00  0.88000000000E+00 0. -1.
        -11    1    4    4    0    0 -0.62962317121E-01 -0.81686871718E-01 -0.31428976758E-01  0.10781947917E+00  0.51100000000E-03 0. -1.
         11    1    4    4    0    0 -0.57762497316E-02 -0.18760127425E-01 -0.91686443636E-03  0.19657293897E-01  0.51100000000E-03 0.  1.
</event>
<event>
 8    1  0.1076043E+005  0.1043930E+01  0.7957747E-01            NaN
         13   -1    0    0    0    0  0.00000000000E+00  0.00000000000E+00  0.74505805969E-08  0.10566000000E+00  0.10566000000E+00 0.  1.
     999900   -1    0    0    0    0 -0.00000000000E+00 -0.00000000000E+00 -0.74505805969E-08  0.93827000000E+00  0.93827000000E+00 0. -1.
     999902    2    1    2    0    0  0.38639056265E-02 -0.20435741257E-01 -0.13241566859E-01  0.10192746075E+01  0.10189763673E+01 0.  0.
     999903    2    3    3    0    0 -0.64160600433E-01 -0.84637370511E-01 -0.75689826305E-01  0.13211680431E+00  0.21114758799E-01 0.  0.
         14    1    1    2    0    0 -0.38639056265E-02  0.20435741257E-01  0.13241566859E-01  0.24655392520E-01  0.00000000000E+00 0.  1.
     999901    1    3    3    0    0  0.68024506059E-01  0.64201629254E-01  0.62448259447E-01  0.88715780317E+00  0.88000000000E+00 0.  1.
        -11    1    4    4    0    0 -0.32196381131E-01 -0.46822053909E-01 -0.27924040463E-01  0.63316071001E-01  0.51100000000E-03 0. -1.
         11    1    4    4    0    0 -0.31964219301E-01 -0.37815316602E-01 -0.47765785842E-01  0.68800733306E-01  0.51100000000E-03 0.  1.
</event>
<event>
 8    1  0.1076043E+005  0.1043930E+01  0.7957747E-01            NaN
         13   -1    0    0    0    0  0.00000000000E+00  0.00000000000E+00  0.74505805969E-08  0.10566000000E+00  0.10566000000E+00 0.  1.
     999900   -1    0    0    0    0 -0.00000000000E+00 -0.00000000000E+00 -0.74505805969E-08  0.93827000000E+00  0.93827000000E+00 0.  1.
     999902    2    1    2    0    0 -0.19768193582E-01  0.70840901801E-02 -0.65990345483E-02  0.10219183424E+01  0.10216812544E+01 0.  0.
     999903    2    3    3    0    0 -0.13937566007E-01  0.10685027304E+00 -0.77396328923E-01  0.13343674762E+00  0.14280661345E-01 0.  0.
         14    1    1    2    0    0  0.19768193582E-01 -0.70840901801E-02  0.65990345483E-02  0.22011657551E-01  0.00000000000E+00 0. -1.
     999901    1    3    3    0    0 -0.58306275756E-02 -0.99766182864E-01  0.70797294374E-01  0.88848159483E+00  0.88000000000E+00 0.  1.
        -11    1    4    4    0    0 -0.52914462111E-02  0.85388647096E-01 -0.60803246539E-01  0.10495959397E+00  0.51100000000E-03 0.  1.
         11    1    4    4    0    0 -0.86461197956E-02  0.21461625948E-01 -0.16593082383E-01  0.28477153647E-01  0.51100000000E-03 0. -1.
</event>
<event>
 8    1  0.1076043E+005  0.1043930E+01  0.7957747E-01            NaN
         13   -1    0    0    0    0  0.00000000000E+00  0.00000000000E+00  0.74505805969E-08  0.10566000000E+00  0.10566000000E+00 0.  1.
     999900   -1    0    0    0    0 -0.00000000000E+00 -0.00000000000E+00 -0.74505805969E-08  0.93827000000E+00  0.93827000000E+00 0. -1.
     999902    2    1    2    0    0  0.79522939172E-02 -0.14724640385E-01  0.17183097871E-01  0.10199443196E+01  0.10196622491E+01 0.  0.
     999903    2    3    3    0    0  0.30283245261E-01 -0.17745350089E-01  0.12646648423E+00  0.13289829224E+00  0.20885690149E-01 0.  0.
         14    1    1    2    0    0 -0.79522939172E-02  0.14724640385E-01 -0.17183097871E-01  0.23985680425E-01  0.00000000000E+00 0. -1.
     999901    1    3    3    0    0 -0.22330951344E-01  0.30207097045E-02 -0.10928338636E+00  0.88704602733E+00  0.88000000000E+00 0. -1.
        -11    1    4    4    0    0  0.32749214222E-02 -0.43424874127E-02  0.55798483484E-01  0.56065267211E-01  0.51100000000E-03 0. -1.
         11    1    4    4    0    0  0.27008323839E-01 -0.13402862676E-01  0.70668000748E-01  0.76833025030E-01  0.51100000000E-03 0.  1.
</event>
<event>
 8    1  0.1076043E+005  0.1043930E+01  0.7957747E-01            NaN
         13   -1    0    0    0    0  0.00000000000E+00  0.00000000000E+00  0.74505805969E-08  0.10566000000E+00  0.10566000000E+00 0.  1.
     999900   -1    0    0    0    0 -0.00000000000E+00 -0.00000000000E+00 -0.74505805969E-08  0.93827000000E+00  0.93827000000E+00 0. -1.
     999902    2    1    2    0    0  0.22297675710E-01  0.47955236608E-02  0.87509185399E-02  0.10195012881E+01  0.10192085726E+01 0.  0.
     999903    2    3    3    0    0  0.43042221834E-01  0.98403951702E-01 -0.71567897407E-01  0.13065710256E+00  0.20330861737E-01 0.  0.
         14    1    1    2    0    0 -0.22297675710E-01 -0.47955236608E-02 -0.87509185399E-02  0.24428711889E-01  0.00000000000E+00 0.  1.
     999901    1    3    3    0    0 -0.20744546124E-01 -0.93608428041E-01  0.80318815947E-01  0.88884418555E+00  0.88000000000E+00 0. -1.
        -11    1    4    4    0    0  0.35202426416E-01  0.89242192936E-01 -0.56446107920E-01  0.11130949666E+00  0.51100000000E-03 0. -1.
         11    1    4    4    0    0  0.78397954183E-02  0.91617587663E-02 -0.15121789487E-01  0.19347605903E-01  0.51100000000E-03 0.  1.
</event>
<event>
 8    1  0.1076043E+005  0.1043930E+01  0.7957747E-01            NaN
         13   -1    0    0    0    0  0.00000000000E+00  0.00000000000E+00  0.74505805969E-08  0.10566000000E+00  0.10566000000E+00 0. -1.
     999900   -1    0    0    0    0 -0.00000000000E+00 -0.00000000000E+00 -0.74505805969E-08  0.93827000000E+00  0.93827000000E+00 0.  1.
     999902    2    1    2    0    0  0.21171028560E-01  0.64507552563E-02 -0.44685592310E-02  0.10213514102E+01  0.10211018120E+01 0.  0.
     999903    2    3    3    0    0  0.68150697633E-01  0.20335992424E-01 -0.11117166914E+00  0.13355332353E+00  0.20476328507E-01 0.  0.
         14    1    1    2    0    0 -0.21171028560E-01 -0.64507552563E-02  0.44685592310E-02  0.22578589754E-01  0.00000000000E+00 0.  1.
     999901    1    3    3    0    0 -0.46979669073E-01 -0.13885237167E-01  0.10670310991E+00  0.88779808672E+00  0.88000000000E+00 0.  1.
        -11    1    4    4    0    0  0.27266416783E-01 -0.14806792665E-02 -0.35056348054E-01  0.44439380679E-01  0.51100000000E-03 0.  1.
         11    1    4    4    0    0  0.40884280851E-01  0.21816671690E-01 -0.76115321090E-01  0.89113942848E-01  0.51100000000E-03 0. -1.
</event>
<event>
 8    1  0.1156637E+005  0.1043930E+01  0.7957747E-01            NaN
         13   -1    0    0    0    0  0.00000000000E+00  0.00000000000E+00  0.74505805969E-08  0.10566000000E+00  0.10566000000E+00 0.  1.
     999900   -1    0    0    0    0 -0.00000000000E+00 -0.00000000000E+00 -0.74505805969E-08  0.93827000000E+00  0.93827000000E+00 0. -1.
     999902    2    1    2    0    0  0.14087926654E-01 -0.18614386439E-01 -0.47673000328E-02  0.10201037076E+01  0.10198254174E+01 0.  0.
     999903    2    3    3    0    0 -0.29039309927E-01 -0.10688663028E+00  0.68234524852E-01  0.13163242838E+00  0.20077663326E-01 0.  0.
         14    1    1    2    0    0 -0.14087926654E-01  0.18614386439E-01  0.47673000328E-02  0.23826292399E-01  0.00000000000E+00 0.  1.
     999901    1    3    3    0    0  0.43127236581E-01  0.88272243843E-01 -0.73001824885E-01  0.88847127922E+00  0.88000000000E+00 0.  1.
        -11    1    4    4    0    0 -0.15993325233E-01 -0.35361089634E-01  0.32474887794E-01  0.50607040719E-01  0.51100000000E-03 0. -1.
         11    1    4    4    0    0 -0.13045984694E-01 -0.71525540648E-01  0.35759637058E-01  0.81025387658E-01  0.51100000000E-03 0.  1.
</event>
<event>
 8    1  0.1076043E+005  0.1043930E+01  0.7957747E-01            NaN
         13   -1    0    0    0    0  0.00000000000E+00  0.00000000000E+00  0.74505805969E-08  0.10566000000E+00  0.10566000000E+00 0.  1.
     999900   -1    0    0    0    0 -0.00000000000E+00 -0.00000000000E+00 -0.74505805969E-08  0.93827000000E+00  0.93827000000E+00 0.  1.
     999902    2    1    2    0    0  0.99617596151E-02 -0.19826050624E-01 -0.20695785199E-02  0.10216456536E+01  0.10214025893E+01 0.  0.
     999903    2    3    3    0    0  0.11717261638E+00  0.47916624859E-01  0.29688136397E-01  0.13198741006E+00  0.22668612788E-01 0.  0.
         14    1    1    2    0    0 -0.99617596151E-02  0.19826050624E-01  0.20695785199E-02  0.22284346372E-01  0.00000000000E+00 0. -1.
     999901    1    3    3    0    0 -0.10721085676E+00 -0.67742675483E-01 -0.31757714917E-01  0.88965824357E+00  0.88000000000E+00 0. -1.
        -11    1    4    4    0    0  0.47307699193E-01  0.22720879143E-01  0.13715443734E-02  0.52501419094E-01  0.51100000000E-03 0.  1.
         11    1    4    4    0    0  0.69864917183E-01  0.25195745716E-01  0.28316592023E-01  0.79485990967E-01  0.51100000000E-03 0. -1.
</event>
<event>
 8    1  0.1076043E+005  0.1043930E+01  0.7957747E-01            NaN
         13   -1    0    0    0    0  0.00000000000E+00  0.00000000000E+00  0.74505805969E-08  0.10566000000E+00  0.10566000000E+00 0. -1.
     999900   -1    0    0    0    0 -0.00000000000E+00 -0.00000000000E+00 -0.74505805969E-08  0.93827000000E+00  0.93827000000E+00 0.  1.
     999902    2    1    2    0    0  0.23734108774E-01  0.10759404953E-01  0.74021566735E-02  0.10168400639E+01  0.10164791444E+01 0.  0.
     999903    2    3    3    0    0 -0.10833169226E+00 -0.56555041723E-01 -0.12418918265E-01  0.12422285281E+00  0.18516461250E-01 0.  0.
         14    1    1    2    0    0 -0.23734108774E-01 -0.10759404953E-01 -0.74021566735E-02  0.27089936096E-01  0.00000000000E+00 0.  1.
     999901    1    3    3    0    0  0.13206580103E+00  0.67314446676E-01  0.19821074939E-01  0.89261721110E+00  0.88000000000E+00 0. -1.
        -11    1    4    4    0    0 -0.41538022973E-01 -0.24398552508E-01  0.38357751926E-02  0.48328780342E-01  0.51100000000E-03 0.  1.
         11    1    4    4    0    0 -0.66793669284E-01 -0.32156489215E-01 -0.16254693458E-01  0.75894072466E-01  0.51100000000E-03 0. -1.
</event>
<event>
 8    1  0.1076043E+005  0.1043930E+01  0.7957747E-01            NaN
         13   -1    0    0    0    0  0.00000000000E+00  0.00000000000E+00  0.74505805969E-08  0.10566000000E+00  0.10566000000E+00 0. -1.
     999900   -1    0    0    0    0 -0.00000000000E+00 -0.00000000000E+00 -0.74505805969E-08  0.93827000000E+00  0.93827000000E+00 0.  1.
     999902    2    1    2    0    0  0.41385478947E-02 -0.20951005669E-01  0.11022419895E-01  0.10198973980E+01  0.10196142097E+01 0.  0.
     999903    2    3    3    0    0 -0.81756140494E-01  0.49206735800E-01  0.85734494822E-01  0.12979521270E+00  0.19774333904E-01 0.  0.
         14    1    1    2    0    0 -0.41385478947E-02  0.20951005669E-01 -0.11022419895E-01  0.24032601973E-01  0.00000000000E+00 0.  1.
     999901    1    3    3    0    0  0.85894688389E-01 -0.70157741469E-01 -0.74712074927E-01  0.89010218533E+00  0.88000000000E+00 0.  1.
        -11    1    4    4    0    0 -0.63174563773E-01  0.30378189441E-01  0.54064663311E-01  0.88527446826E-01  0.51100000000E-03 0. -1.
         11    1    4    4    0    0 -0.18581576721E-01  0.18828546359E-01  0.31669831511E-01  0.41267765876E-01  0.51100000000E-03 0.  1.
</event>
<event>
 8    1  0.1076043E+005  0.1043930E+01  0.7957747E-01            NaN
         13   -1    0    0    0    0  0.00000000000E+00  0.00000000000E+00  0.74505805969E-08  0.10566000000E+00  0.10566000000E+00 0. -1.
     999900   -1    0    0    0    0 -0.00000000000E+00 -0.00000000000E+00 -0.74505805969E-08  0.93827000000E+00  0.93827000000E+00 0.  1.
     999902    2    1    2    0    0 -0.10816862456E-01 -0.14961549895E-01 -0.15341046133E-01  0.10199258298E+01  0.10196433191E+01 0.  0.
     999903    2    3    3    0    0 -0.85420327742E-01 -0.28585519639E-01  0.91838138380E-01  0.13018504333E+00  0.20003437737E-01 0.  0.
         14    1    1    2    0    0  0.10816862456E-01  0.14961549895E-01  0.15341046133E-01  0.24004170161E-01  0.00000000000E+00 0.  1.
     999901    1    3    3    0    0  0.74603465286E-01  0.13623969744E-01 -0.10717918451E+00  0.88974078651E+00  0.88000000000E+00 0. -1.
        -11    1    4    4    0    0 -0.20924130244E-01 -0.16123381275E-01  0.22951435592E-01  0.34997316567E-01  0.51100000000E-03 0.  1.
         11    1    4    4    0    0 -0.64496197498E-01 -0.12462138365E-01  0.68886702788E-01  0.95187726763E-01  0.51100000000E-03 0. -1.
</event>
<event>
 8    1  0.1076043E+005  0.1043930E+01  0.7957747E-01            NaN
         13   -1    0    0    0    0  0.00000000000E+00  0.00000000000E+00  0.74505805969E-08  0.10566000000E+00  0.10566000000E+00 0. -1.
     999900   -1    0    0    0    0 -0.00000000000E+00 -0.00000000000E+00 -0.74505805969E-08  0.93827000000E+00  0.93827000000E+00 0.  1.
     999902    2    1    2    0    0 -0.33907090081E-02  0.61371389074E-02  0.22795465047E-01  0.10200805847E+01  0.10198017478E+01 0.  0.
     999903    2    3    3    0    0 -0.99711689773E-02 -0.57927211288E-01  0.11725313445E+00  0.13268563618E+00  0.20054787225E-01 0.  0.
         14    1    1    2    0    0  0.33907090081E-02 -0.61371389074E-02 -0.22795465047E-01  0.23849415260E-01  0.00000000000E+00 0.  1.
     999901    1    3    3    0    0  0.65804599693E-02  0.64064350195E-01 -0.94457669408E-01  0.88739494856E+00  0.88000000000E+00 0.  1.
        -11    1    4    4    0    0 -0.28057938333E-02 -0.70858989023E-02  0.34195805542E-01  0.35038502822E-01  0.51100000000E-03 0. -1.
         11    1    4    4    0    0 -0.71653751440E-02 -0.50841312386E-01  0.83057328912E-01  0.97647133358E-01  0.51100000000E-03 0.  1.
</event>
<event>
 8    1  0.1076043E+005  0.1043930E+01  0.7957747E-01            NaN
         13   -1    0    0    0    0  0.00000000000E+00  0.00000000000E+00  0.74505805969E-08  0.10566000000E+00  0.10566000000E+00 0.  1.
     999900   -1    0    0    0    0 -0.00000000000E+00 -0.00000000000E+00 -0.74505805969E-08  0.93827000000E+00  0.93827000000E+00 0.  1.
     999902    2    1    2    0    0  0.62105585197E-02  0.53448761304E-02  0.22547662338E-01  0.10199396725E+01  0.10196574914E+01 0.  0.
     999903    2    3    3    0    0  0.11929369498E+00  0.45559967176E-01 -0.94238396038E-02  0.13121742889E+00  0.28679411077E-01 0.  0.
         14    1    1    2    0    0 -0.62105585197E-02 -0.53448761304E-02 -0.22547662338E-01  0.23990327528E-01  0.00000000000E+00 0. -1.
     999901    1    3    3    0    0 -0.11308313646E+00 -0.40215091046E-01  0.31971501942E-01  0.88872224358E+00  0.88000000000E+00 0.  1.
        -11    1    4    4    0    0  0.94960261574E-01  0.23035107829E-01 -0.68610591747E-02  0.97956126530E-01  0.51100000000E-03 0.  1.
         11    1    4    4    0    0  0.24333433410E-01  0.22524859348E-01 -0.25627804291E-02  0.33261302360E-01  0.51100000000E-03 0. -1.
</event>
<event>
 8    1  0.1076043E+005  0.1043930E+01  0.7957747E-01            NaN
         13   -1    0    0    0    0  0.00000000000E+00  0.00000000000E+00  0.74505805969E-08  0.10566000000E+00  0.10566000000E+00 0.  1.
     999900   -1    0    0    0    0 -0.00000000000E+00 -0.00000000000E+00 -0.74505805969E-08  0.93827000000E+00  0.93827000000E+00 0.  1.
     999902    2    1    2    0    0  0.46736250714E-02 -0.18817754782E-01 -0.12742050951E-01  0.10207284800E+01  0.10204647566E+01 0.  0.
     999903    2    3    3    0    0  0.11926039238E+00 -0.38876179989E-01  0.35221787354E-01  0.13177797666E+00  0.19760118070E-01 0.  0.
         14    1    1    2    0    0 -0.46736250714E-02  0.18817754782E-01  0.12742050951E-01  0.23201519967E-01  0.00000000000E+00 0.  1.
     999901    1    3    3    0    0 -0.11458676731E+00  0.20058425207E-01 -0.47963838305E-01  0.88895050337E+00  0.88000000000E+00 0.  1.
        -11    1    4    4    0    0  0.60824574610E-01 -0.16640019678E-01  0.27428773710E-01  0.68768582068E-01  0.51100000000E-03 0.  1.
         11    1    4    4    0    0  0.58435817772E-01 -0.22236160311E-01  0.77930136444E-02  0.63009394591E-01  0.51100000000E-03 0. -1.
</event>
<event>
 8    1  0.1076043E+005  0.1043930E+01  0.7957747E-01            NaN
         13   -1    0    0    0    0  0.00000000000E+00  0.00000000000E+00  0.74505805969E-08  0.10566000000E+00  0.10566000000E+00 0. -1.
     999900   -1    0    0    0    0 -0.00000000000E+00 -0.00000000000E+00 -0.74505805969E-08  0.93827000000E+00  0.93827000000E+00 0. -1.
     999902    2    1    2    0    0 -0.63671687233E-02  0.13838326497E-01  0.17349116650E-01  0.10208425149E+01  0.10205814070E+01 0.  0.
     999903    2    3    3    0    0 -0.10804005417E+00 -0.59969091212E-01  0.40684815681E-01  0.13161281155E+00  0.19943237730E-01 0.  0.
         14    1    1    2    0    0  0.63671687233E-02 -0.13838326497E-01 -0.17349116650E-01  0.23087485058E-01  0.00000000000E+00 0.  1.
     999901    1    3    3    0    0  0.10167288545E+00  0.73807417709E-01 -0.23335699031E-01  0.88922970339E+00  0.88000000000E+00 0. -1.
        -11    1    4    4    0    0 -0.77346268673E-01 -0.48190728242E-01  0.37614931613E-01  0.98589734594E-01  0.51100000000E-03 0. -1.
         11    1    4    4    0    0 -0.30693785498E-01 -0.11778362971E-01  0.30698840676E-02  0.33023076956E-01  0.51100000000E-03 0.  1.
</event>
<event>
 8    1  0.1076043E+005  0.1043930E+01  0.7957747E-01            NaN
         13   -1    0    0    0    0  0.00000000000E+00  0.00000000000E+00  0.74505805969E-08  0.10566000000E+00  0.10566000000E+00 0. -1.
     999900   -1    0    0    0    0 -0.00000000000E+00 -0.00000000000E+00 -0.74505805969E-08  0.93827000000E+00  0.93827000000E+00 0. -1.
     999902    2    1    2    0    0 -0.10451121853E-01  0.13997500014E-01 -0.11564313613E-01  0.10229803149E+01  0.10227657774E+01 0.  0.
     999903    2    3    3    0    0  0.73769941137E-02  0.12075644253E+00  0.53979226689E-01  0.13392954631E+00  0.19667943678E-01 0.  0.
         14    1    1    2    0    0  0.10451121853E-01 -0.13997500014E-01  0.11564313613E-01  0.20949685056E-01  0.00000000000E+00 0. -1.
     999901    1    3    3    0    0 -0.17828115966E-01 -0.10675894251E+00 -0.65543540302E-01  0.88905076863E+00  0.88000000000E+00 0.  1.
        -11    1    4    4    0    0  0.50266981608E-02  0.62742584299E-01  0.17407954135E-01  0.65308480055E-01  0.51100000000E-03 0. -1.
         11    1    4    4    0    0  0.23502959529E-02  0.58013858226E-01  0.36571272554E-01  0.68621066259E-01  0.51100000000E-03 0.  1.
</event>
<event>
 8    1  0.1076043E+005  0.1043930E+01  0.7957747E-01            NaN
         13   -1    0    0    0    0  0.00000000000E+00  0.00000000000E+00  0.74505805969E-08  0.10566000000E+00  0.10566000000E+00 0.  1.
     999900   -1    0    0    0    0 -0.00000000000E+00 -0.00000000000E+00 -0.74505805969E-08  0.93827000000E+00  0.93827000000E+00 0.  1.
     999902    2    1    2    0    0  0.29088840684E-02 -0.66965606432E-02  0.22459087222E-01  0.10203139857E+01  0.10200406430E+01 0.  0.
     999903    2    3    3    0    0  0.68309547893E-01  0.10791440929E+00 -0.10541052551E-01  0.12986357696E+00  0.21017154127E-01 0.  0.
         14    1    1    2    0    0 -0.29088840684E-02  0.66965606432E-02 -0.22459087222E-01  0.23616014266E-01  0.00000000000E+00 0. -1.
     999901    1    3    3    0    0 -0.65400663825E-01 -0.11461096993E+00  0.33000139774E-01  0.89045040877E+00  0.88000000000E+00 0. -1.
        -11    1    4    4    0    0  0.93199195708E-02  0.31762808874E-01 -0.24631077230E-02  0.33197363586E-01  0.51100000000E-03 0. -1.
         11    1    4    4    0    0  0.58989628322E-01  0.76151600412E-01 -0.80779448284E-02  0.96666213376E-01  0.51100000000E-03 0.  1.
</event>
<event>
 8    1  0.1076043E+005  0.1043930E+01  0.7957747E-01            NaN
         13   -1    0    0    0    0  0.00000000000E+00  0.00000000000E+00  0.74505805969E-08  0.10566000000E+00  0.10566000000E+00 0.  1.
     999900   -1    0    0    0    0 -0.00000000000E+00 -0.00000000000E+00 -0.74505805969E-08  0.93827000000E+00  0.93827000000E+00 0. -1.
     999902    2    1    2    0    0  0.13847477518E-01 -0.67958853346E-03 -0.19318198007E-01  0.10201517064E+01  0.10198745495E+01 0.  0.
     999903    2    3    3    0    0  0.11105995849E+00  0.62117868605E-01 -0.29987595249E-01  0.13251009900E+00  0.21603853578E-01 0.  0.
         14    1    1    2    0    0 -0.13847477518E-01  0.67958853346E-03  0.19318198007E-01  0.23778293640E-01  0.00000000000E+00 0.  1.
     999901    1    3    3    0    0 -0.97212480967E-01 -0.62797457138E-01  0.10669397242E-01  0.88764160736E+00  0.88000000000E+00 0.  1.
        -11    1    4    4    0    0  0.38733774025E-01  0.23202808898E-01 -0.23599339509E-03  0.45155203519E-01  0.51100000000E-03 0.  1.
         11    1    4    4    0    0  0.72326184460E-01  0.38915059707E-01 -0.29751601854E-01  0.87354895481E-01  0.51100000000E-03 0. -1.
</event>
<event>
 8    1  0.1076043E+005  0.1043930E+01  0.7957747E-01            NaN
         13   -1    0    0    0    0  0.00000000000E+00  0.00000000000E+00  0.74505805969E-08  0.10566000000E+00  0.10566000000E+00 0.  1.
     999900   -1    0    0    0    0 -0.00000000000E+00 -0.00000000000E+00 -0.74505805969E-08  0.93827000000E+00  0.93827000000E+00 0.  1.
     999902    2    1    2    0    0 -0.16020085156E-01  0.93009179134E-02 -0.14948266469E-01  0.10201266206E+01  0.10198488717E+01 0.  0.
     999903    2    3    3    0    0  0.31728840315E-01 -0.99034987834E-01  0.70350534063E-01  0.12811063767E+00  0.25465461274E-01 0.  0.
         14    1    1    2    0    0  0.16020085156E-01 -0.93009179134E-02  0.14948266469E-01  0.23803379442E-01  0.00000000000E+00 0.  1.
     999901    1    3    3    0    0 -0.47748925471E-01  0.10833590575E+00 -0.85298800532E-01  0.89201598289E+00  0.88000000000E+00 0.  1.
        -11    1    4    4    0    0  0.16968443206E-01 -0.84056611353E-01  0.52714170282E-01  0.10066025455E+00  0.51100000000E-03 0. -1.
         11    1    4    4    0    0  0.14760397109E-01 -0.14978376481E-01  0.17636363781E-01  0.27450383116E-01  0.51100000000E-03 0.  1.
</event>
<event>
 8    1  0.1076043E+005  0.1043930E+01  0.7957747E-01            NaN
         13   -1    0    0    0    0  0.00000000000E+00  0.00000000000E+00  0.74505805969E-08  0.10566000000E+00  0.10566000000E+00 0.  1.
     999900   -1    0    0    0    0 -0.00000000000E+00 -0.00000000000E+00 -0.74505805969E-08  0.93827000000E+00  0.93827000000E+00 0. -1.
     999902    2    1    2    0    0  0.17908136201E-01 -0.14129763607E-01  0.81609762915E-02  0.10197028851E+01  0.10194150385E+01 0.  0.
     999903    2    3    3    0    0 -0.10052875538E+00 -0.15141028508E-01 -0.74427707486E-01  0.12793542067E+00  0.22197000213E-01 0.  0.
         14    1    1    2    0    0 -0.17908136201E-01  0.14129763607E-01 -0.81609762915E-02  0.24227114888E-01  0.00000000000E+00 0. -1.
     999901    1    3    3    0    0  0.11843689158E+00  0.10112649013E-02  0.82588683777E-01  0.89176746444E+00  0.88000000000E+00 0.  1.
        -11    1    4    4    0    0 -0.85158806940E-01 -0.10782293109E-01 -0.71429706085E-01  0.11167248666E+00  0.51100000000E-03 0.  1.
         11    1    4    4    0    0 -0.15369948441E-01 -0.43587353998E-02 -0.29980014010E-02  0.16262934014E-01  0.51100000000E-03 0. -1.
</event>
<event>
 8    1  0.1076043E+005  0.1043930E+01  0.7957747E-01            NaN
         13   -1    0    0    0    0  0.00000000000E+00  0.00000000000E+00  0.74505805969E-08  0.10566000000E+00  0.10566000000E+00 0. -1.
     999900   -1    0    0    0    0 -0.00000000000E+00 -0.00000000000E+00 -0.74505805969E-08  0.93827000000E+00  0.93827000000E+00 0. -1.
     999902    2    1    2    0    0  0.78722658270E-02 -0.13064336356E-01  0.16910047689E-01  0.10211572275E+01  0.10209032688E+01 0.  0.
     999903    2    3    3    0    0  0.51825840979E-01  0.11295554642E+00 -0.31849009582E-01  0.12975923936E+00  0.19448072623E-01 0.  0.
         14    1    1    2    0    0 -0.78722658270E-02  0.13064336356E-01 -0.16910047689E-01  0.22772772482E-01  0.00000000000E+00 0.  1.
     999901    1    3    3    0    0 -0.43953575152E-01 -0.12601988277E+00  0.48759057272E-01  0.89139798816E+00  0.88000000000E+00 0.  1.
        -11    1    4    4    0    0  0.22118854688E-01  0.29071884916E-01 -0.54608246472E-02  0.36939138486E-01  0.51100000000E-03 0.  1.
         11    1    4    4    0    0  0.29706986291E-01  0.83883661501E-01 -0.26388184935E-01  0.92820100875E-01  0.51100000000E-03 0. -1.
</event>
<event>
 8    1  0.1076043E+005  0.1043930E+01  0.7957747E-01            NaN
         13   -1    0    0    0    0  0.00000000000E+00  0.00000000000E+00  0.74505805969E-08  0.10566000000E+00  0.10566000000E+00 0. -1.
     999900   -1    0    0    0    0 -0.00000000000E+00 -0.00000000000E+00 -0.74505805969E-08  0.93827000000E+00  0.93827000000E+00 0.  1.
     999902    2    1    2    0    0  0.21624603118E-01 -0.16095353845E-01  0.64565036412E-02  0.10162105066E+01  0.10158323796E+01 0.  0.
     999903    2    3    3    0    0  0.57516187557E-01 -0.50753511823E-01 -0.10157385993E+00  0.12820152398E+00  0.15308524938E-01 0.  0.
         14    1    1    2    0    0 -0.21624603118E-01  0.16095353845E-01 -0.64565036412E-02  0.27719493406E-01  0.00000000000E+00 0. -1.
     999901    1    3    3    0    0 -0.35891584439E-01  0.34658157979E-01  0.10803036357E+00  0.88800898261E+00  0.88000000000E+00 0. -1.
        -11    1    4    4    0    0  0.59930747175E-02 -0.12538930371E-01 -0.21402456902E-01  0.25523871216E-01  0.51100000000E-03 0. -1.
         11    1    4    4    0    0  0.51523112840E-01 -0.38214581452E-01 -0.80171403031E-01  0.10267765276E+00  0.51100000000E-03 0.  1.
</event>
<event>
 8    1  0.1076043E+005  0.1043930E+01  0.7957747E-01            NaN
         13   -1    0    0    0    0  0.00000000000E+00  0.00000000000E+00  0.74505805969E-08  0.10566000000E+00  0.10566000000E+00 0. -1.
     999900   -1    0    0    0    0 -0.00000000000E+00 -0.00000000000E+00 -0.74505805969E-08  0.93827000000E+00  0.93827000000E+00 0. -1.
     999902    2    1    2    0    0  0.17924997446E-02 -0.20868628197E-01  0.11088162023E-01  0.10202306322E+01  0.10199553337E+01 0.  0.
     999903    2    3    3    0    0  0.55106250510E-01 -0.69133396057E-01  0.97242391160E-01  0.13310358658E+00  0.21079772902E-01 0.  0.
         14    1    1    2    0    0 -0.17924997446E-02  0.20868628197E-01 -0.11088162023E-01  0.23699367823E-01  0.00000000000E+00 0.  1.
     999901    1    3    3    0    0 -0.53313750765E-01  0.48264767860E-01 -0.86154229137E-01  0.88712704560E+00  0.88000000000E+00 0.  1.
        -11    1    4    4    0    0  0.30202091760E-01 -0.52240272507E-01  0.70926671650E-01  0.93123929742E-01  0.51100000000E-03 0.  1.
         11    1    4    4    0    0  0.24904158750E-01 -0.16893123550E-01  0.26315719510E-01  0.39979656835E-01  0.51100000000E-03 0. -1.
</event>
<event>
 8    1  0.1076043E+005  0.1043930E+01  0.7957747E-01            NaN
         13   -1    0    0    0    0  0.00000000000E+00  0.00000000000E+00  0.74505805969E-08  0.10566000000E+00  0.10566000000E+00 0.  1.
     999900   -1    0    0    0    0 -0.00000000000E+00 -0.00000000000E+00 -0.74505805969E-08  0.93827000000E+00  0.93827000000E+00 0. -1.
     999902    2    1    2    0    0 -0.12425058491E-01  0.54514274660E-02 -0.20029824169E-01  0.10197371499E+01  0.10194501267E+01 0.  0.
     999903    2    3    3    0    0  0.73998007867E-02  0.18925563773E-01 -0.12952292678E+00  0.13262762063E+00  0.20024064935E-01 0.  0.
         14    1    1    2    0    0  0.12425058491E-01 -0.54514274660E-02  0.20029824169E-01  0.24192850104E-01  0.00000000000E+00 0.  1.
     999901    1    3    3    0    0 -0.19824859278E-01 -0.13474136307E-01  0.10949310261E+00  0.88710952927E+00  0.88000000000E+00 0.  1.
        -11    1    4    4    0    0  0.11989465868E-01  0.52117363243E-02 -0.78889519087E-01  0.79967035897E-01  0.51100000000E-03 0. -1.
         11    1    4    4    0    0 -0.45896650816E-02  0.13713827448E-01 -0.50633407693E-01  0.52660584733E-01  0.51100000000E-03 0.  1.
</event>
<event>
 8    1  0.1076043E+005  0.1043930E+01  0.7957747E-01            NaN
         13   -1    0    0    0    0  0.00000000000E+00  0.00000000000E+00  0.74505805969E-08  0.10566000000E+00  0.10566000000E+00 0.  1.
     999900   -1    0    0    0    0 -0.00000000000E+00 -0.00000000000E+00 -0.74505805969E-08  0.93827000000E+00  0.93827000000E+00 0. -1.
     999902    2    1    2    0    0  0.40473371529E-02  0.44128034242E-02 -0.22801302947E-01  0.10203555819E+01  0.10200832125E+01 0.  0.
     999903    2    3    3    0    0 -0.12372305721E+00 -0.32784276148E-01 -0.10263071236E-01  0.13026227014E+00  0.21925436001E-01 0.  0.
         14    1    1    2    0    0 -0.40473371529E-02 -0.44128034242E-02  0.22801302947E-01  0.23574418087E-01  0.00000000000E+00 0.  1.
     999901    1    3    3    0    0  0.12777039436E+00  0.37197079572E-01 -0.12538231710E-01  0.89009331177E+00  0.88000000000E+00 0.  1.
        -11    1    4    4    0    0 -0.82264904040E-01 -0.18796137511E-01  0.33004546677E-02  0.84450952298E-01  0.51100000000E-03 0.  1.
         11    1    4    4    0    0 -0.41458153169E-01 -0.13988138637E-01 -0.13563525904E-01  0.45811317845E-01  0.51100000000E-03 0. -1.
</event>
<event>
 8    1  0.1076043E+005  0.1043930E+01  0.7957747E-01            NaN
         13   -1    0    0    0    0  0.00000000000E+00  0.00000000000E+00  0.74505805969E-08  0.10566000000E+00  0.10566000000E+00 0. -1.
     999900   -1    0    0    0    0 -0.00000000000E+00 -0.00000000000E+00 -0.74505805969E-08  0.93827000000E+00  0.93827000000E+00 0. -1.
     999902    2    1    2    0    0 -0.21319403002E-01 -0.74011909347E-02 -0.13649114277E-01  0.10175559049E+01  0.10172140516E+01 0.  0.
     999903    2    3    3    0    0 -0.35443553424E-01 -0.11478070823E+00  0.42466426185E-01  0.12914225899E+00  0.21058709431E-01 0.  0.
         14    1    1    2    0    0  0.21319403002E-01  0.74011909347E-02  0.13649114277E-01  0.26374095097E-01  0.00000000000E+00 0.  1.
     999901    1    3    3    0    0  0.14124150422E-01  0.10737951730E+00 -0.56115540462E-01  0.88841364591E+00  0.88000000000E+00 0. -1.
        -11    1    4    4    0    0 -0.43144757593E-02 -0.15708408608E-01  0.13940151111E-01  0.21446625284E-01  0.51100000000E-03 0.  1.
         11    1    4    4    0    0 -0.31129077665E-01 -0.99072299624E-01  0.28526275074E-01  0.10769563371E+00  0.51100000000E-03 0. -1.
</event>
<event>
 8    1  0.1076043E+005  0.1043930E+01  0.7957747E-01            NaN
         13   -1    0    0    0    0  0.00000000000E+00  0.00000000000E+00  0.74505805969E-08  0.10566000000E+00  0.10566000000E+00 0.  1.
     999900   -1    0    0    0    0 -0.00000000000E+00 -0.00000000000E+00 -0.74505805969E-08  0.93827000000E+00  0.93827000000E+00 0. -1.
     999902    2    1    2    0    0 -0.60994880440E-02  0.82373109427E-02  0.21229405006E-01  0.10203557623E+01  0.10200833971E+01 0.  0.
     999903    2    3    3    0    0  0.68251162686E-01 -0.98587698645E-01  0.45659840537E-01  0.13044765013E+00  0.23537477654E-01 0.  0.
         14    1    1    2    0    0  0.60994880440E-02 -0.82373109427E-02 -0.21229405006E-01  0.23574237694E-01  0.00000000000E+00 0. -1.
     999901    1    3    3    0    0 -0.74350650730E-01  0.10682500959E+00 -0.24430435531E-01  0.88990811218E+00  0.88000000000E+00 0.  1.
        -11    1    4    4    0    0  0.27537703456E-01 -0.53115585128E-01  0.13023599636E-01  0.61232881392E-01  0.51100000000E-03 0. -1.
         11    1    4    4    0    0  0.40713459230E-01 -0.45472113517E-01  0.32636240901E-01  0.69214768737E-01  0.51100000000E-03 0.  1.
</event>
<event>
 8    1  0.1076043E+005  0.1043930E+01  0.7957747E-01            NaN
         13   -1    0    0    0    0  0.00000000000E+00  0.00000000000E+00  0.74505805969E-08  0.10566000000E+00  0.10566000000E+00 0.  1.
     999900   -1    0    0    0    0 -0.00000000000E+00 -0.00000000000E+00 -0.74505805969E-08  0.93827000000E+00  0.93827000000E+00 0.  1.
     999902    2    1    2    0    0 -0.11632925456E-01  0.11676871416E-01 -0.14004274329E-01  0.10223014545E+01  0.10220726344E+01 0.  0.
     999903    2    3    3    0    0 -0.58962923013E-01  0.21363071633E-02 -0.11931555151E+00  0.13470829537E+00  0.20710719729E-01 0.  0.
         14    1    1    2    0    0  0.11632925456E-01 -0.11676871416E-01  0.14004274329E-01  0.21628545494E-01  0.00000000000E+00 0.  1.
     999901    1    3    3    0    0  0.47329997558E-01  0.95405642526E-02  0.10531127718E+00  0.88759315913E+00  0.88000000000E+00 0. -1.
        -11    1    4    4    0    0 -0.75174120994E-02 -0.35135749991E-02 -0.63866430395E-02  0.10483655100E-01  0.51100000000E-03 0.  1.
         11    1    4    4    0    0 -0.51445510914E-01  0.56498821624E-02 -0.11292890847E+00  0.12422464027E+00  0.51100000000E-03 0. -1.
</event>
<event>
 8    1  0.1076043E+005  0.1043930E+01  0.7957747E-01            NaN
         13   -1    0    0    0    0  0.00000000000E+00  0.00000000000E+00  0.74505805969E-08  0.10566000000E+00  0.10566000000E+00 0. -1.
     999900   -1    0    0    0    0 -0.00000000000E+00 -0.00000000000E+00 -0.74505805969E-08  0.93827000000E+00  0.93827000000E+00 0.  1.
     999902    2    1    2    0    0  0.53684208582E-02  0.19858982323E-01  0.10514273535E-01  0.10208269900E+01  0.10205655268E+01 0.  0.
     999903    2    3    3    0    0  0.12584724925E-01  0.82678722870E-01  0.10252006749E+00  0.13377374419E+00  0.19771289265E-01 0.  0.
         14    1    1    2    0    0 -0.53684208582E-02 -0.19858982323E-01 -0.10514273535E-01  0.23103009964E-01  0.00000000000E+00 0. -1.
     999901    1    3    3    0    0 -0.72163040669E-02 -0.62819740547E-01 -0.92005793955E-01  0.88705324585E+00  0.88000000000E+00 0.  1.
        -11    1    4    4    0    0 -0.36466289985E-02  0.18168625023E-01  0.15028511156E-01  0.23864494690E-01  0.51100000000E-03 0.  1.
         11    1    4    4    0    0  0.16231353924E-01  0.64510097848E-01  0.87491556334E-01  0.10990924950E+00  0.51100000000E-03 0. -1.
</event>
<event>
 8    1  0.1076043E+005  0.1043930E+01  0.7957747E-01            NaN
         13   -1    0    0    0    0  0.00000000000E+00  0.00000000000E+00  0.74505805969E-08  0.10566000000E+00  0.10566000000E+00 0. -1.
     999900   -1    0    0    0    0 -0.00000000000E+00 -0.00000000000E+00 -0.74505805969E-08  0.93827000000E+00  0.93827000000E+00 0.  1.
     999902    2    1    2    0    0  0.69981919214E-02 -0.14995383251E-01  0.18500056206E-01  0.10191088741E+01  0.10188065612E+01 0.  0.
     999903    2    3    3    0    0  0.71835838134E-01  0.97668768795E-01 -0.35492777718E-01  0.12792294650E+00  0.20123790211E-01 0.  0.
         14    1    1    2    0    0 -0.69981919214E-02  0.14995383251E-01 -0.18500056206E-01  0.24821125853E-01  0.00000000000E+00 0. -1.
     999901    1    3    3    0    0 -0.64837646212E-01 -0.11266415205E+00  0.53992833924E-01  0.89118592765E+00  0.88000000000E+00 0.  1.
        -11    1    4    4    0    0  0.59562989382E-01  0.71215939154E-01 -0.20293565323E-01  0.95034465370E-01  0.51100000000E-03 0. -1.
         11    1    4    4    0    0  0.12272848752E-01  0.26452829641E-01 -0.15199212395E-01  0.32888481128E-01  0.51100000000E-03 0.  1.
</event>
<event>
 8    1  0.1076043E+005  0.1043930E+01  0.7957747E-01            NaN
         13   -1    0    0    0    0  0.00000000000E+00  0.00000000000E+00  0.74505805969E-08  0.10566000000E+00  0.10566000000E+00 0. -1.
     999900   -1    0    0    0    0 -0.00000000000E+00 -0.00000000000E+00 -0.74505805969E-08  0.93827000000E+00  0.93827000000E+00 0. -1.
     999902    2    1    2    0    0  0.16688538632E-01  0.73900933539E-02 -0.15608877466E-01  0.10199142165E+01  0.10196314291E+01 0.  0.
     999903    2    3    3    0    0  0.12609689585E+00 -0.20147999384E-01 -0.29683766605E-01  0.13259993301E+00  0.19880825231E-01 0.  0.
         14    1    1    2    0    0 -0.16688538632E-01 -0.73900933539E-02  0.15608877466E-01  0.24015783501E-01  0.00000000000E+00 0. -1.
     999901    1    3    3    0    0 -0.10940835722E+00  0.27538092738E-01  0.14074889139E-01  0.88731428349E+00  0.88000000000E+00 0.  1.
        -11    1    4    4    0    0  0.73987951817E-01 -0.15980761510E-01 -0.26591563345E-01  0.80230755416E-01  0.51100000000E-03 0. -1.
         11    1    4    4    0    0  0.52108944033E-01 -0.41672378749E-02 -0.30922032599E-02  0.52369177593E-01  0.51100000000E-03 0.  1.
</event>
<event>
 8    1  0.1076043E+005  0.1043930E+01  0.7957747E-01            NaN
         13   -1    0    0    0    0  0.00000000000E+00  0.00000000000E+00  0.74505805969E-08  0.10566000000E+00  0.10566000000E+00 0.  1.
     999900   -1    0    0    0    0 -0.00000000000E+00 -0.00000000000E+00 -0.74505805969E-08  0.93827000000E+00  0.93827000000E+00 0.  1.
     999902    2    1    2    0    0  0.65402522427E-02 -0.10263816487E-01 -0.20065439335E-01  0.10204620925E+01  0.10201922071E+01 0.  0.
     999903    2    3    3    0    0  0.73009048646E-01  0.10587441096E+00 -0.56204119058E-02  0.13022906253E+00  0.19705522515E-01 0.  0.
         14    1    1    2    0    0 -0.65402522427E-02  0.10263816487E-01  0.20065439335E-01  0.23467907533E-01  0.00000000000E+00 0. -1.
     999901    1    3    3    0    0 -0.66468796403E-01 -0.11613822745E+00 -0.14445027429E-01  0.89023302994E+00  0.88000000000E+00 0.  1.
        -11    1    4    4    0    0  0.41528705226E-01  0.72645747339E-01 -0.98541892858E-02  0.84257961830E-01  0.51100000000E-03 0.  1.
         11    1    4    4    0    0  0.31480343420E-01  0.33228663621E-01  0.42337773800E-02  0.45971100702E-01  0.51100000000E-03 0. -1.
</event>
<event>
 8    1  0.1076043E+005  0.1043930E+01  0.7957747E-01            NaN
         13   -1    0    0    0    0  0.00000000000E+00  0.00000000000E+00  0.74505805969E-08  0.10566000000E+00  0.10566000000E+00 0.  1.
     999900   -1    0    0    0    0 -0.00000000000E+00 -0.00000000000E+00 -0.74505805969E-08  0.93827000000E+00  0.93827000000E+00 0.  1.
     999902    2    1    2    0    0 -0.19616183800E-01 -0.24427623923E-02 -0.13140434619E-01  0.10201932610E+01  0.10199170834E+01 0.  0.
     999903    2    3    3    0    0 -0.11227921880E+00 -0.27697125271E-01 -0.63710496492E-01  0.13352446601E+00  0.19899797455E-01 0.  0.
         14    1    1    2    0    0  0.19616183800E-01  0.24427623923E-02  0.13140434619E-01  0.23736738970E-01  0.00000000000E+00 0.  1.
     999901    1    3    3    0    0  0.92663034997E-01  0.25254362879E-01  0.50570061874E-01  0.88666879502E+00  0.88000000000E+00 0. -1.
        -11    1    4    4    0    0 -0.39879450331E-01 -0.19488142906E-01 -0.21598396120E-01  0.49365069722E-01  0.51100000000E-03 0. -1.
         11    1    4    4    0    0 -0.72399768465E-01 -0.82089823651E-02 -0.42112100372E-01  0.84159396291E-01  0.51100000000E-03 0.  1.
</event>
<event>
 8    1  0.1076043E+005  0.1043930E+01  0.7957747E-01            NaN
         13   -1    0    0    0    0  0.00000000000E+00  0.00000000000E+00  0.74505805969E-08  0.10566000000E+00  0.10566000000E+00 0. -1.
     999900   -1    0    0    0    0 -0.00000000000E+00 -0.00000000000E+00 -0.74505805969E-08  0.93827000000E+00  0.93827000000E+00 0. -1.
     999902    2    1    2    0    0 -0.16448712138E-01  0.14360568480E-01 -0.54175846671E-02  0.10214325272E+01  0.10211847391E+01 0.  0.
     999903    2    3    3    0    0  0.36353127456E-01 -0.81408811494E-01  0.91346892609E-01  0.12939935941E+00  0.21236641953E-01 0.  0.
         14    1    1    2    0    0  0.16448712138E-01 -0.14360568480E-01  0.54175846671E-02  0.22497472784E-01  0.00000000000E+00 0. -1.
     999901    1    3    3    0    0 -0.52801839594E-01  0.95769379974E-01 -0.96764477276E-01  0.89203316781E+00  0.88000000000E+00 0. -1.
        -11    1    4    4    0    0  0.18268256752E-01 -0.62382565298E-01  0.70317152671E-01  0.95760517640E-01  0.51100000000E-03 0. -1.
         11    1    4    4    0    0  0.18084870705E-01 -0.19026246196E-01  0.21029739938E-01  0.33638841769E-01  0.51100000000E-03 0.  1.
</event>
<event>
 8    1  0.1076043E+005  0.1043930E+01  0.7957747E-01            NaN
         13   -1    0    0    0    0  0.00000000000E+00  0.00000000000E+00  0.74505805969E-08  0.10566000000E+00  0.10566000000E+00 0.  1.
     999900   -1    0    0    0    0 -0.00000000000E+00 -0.00000000000E+00 -0.74505805969E-08  0.93827000000E+00  0.93827000000E+00 0.  1.
     999902    2    1    2    0    0 -0.12688100041E-03 -0.10419993947E-01 -0.21536732042E-01  0.10200046327E+01  0.10197239958E+01 0.  0.
     999903    2    3    3    0    0  0.58840111911E-01  0.30345285598E-01 -0.11290028843E+00  0.13237508515E+00  0.19841696363E-01 0.  0.
         14    1    1    2    0    0  0.12688100041E-03  0.10419993947E-01  0.21536732042E-01  0.23925367284E-01  0.00000000000E+00 0.  1.
     999901    1    3    3    0    0 -0.58966992911E-01 -0.40765279545E-01  0.91363556386E-01  0.88762954756E+00  0.88000000000E+00 0. -1.
        -11    1    4    4    0    0  0.29066662483E-01  0.56921838912E-02 -0.59308405061E-01  0.66294945940E-01  0.51100000000E-03 0. -1.
         11    1    4    4    0    0  0.29773449428E-01  0.24653101707E-01 -0.53591883367E-01  0.66080139213E-01  0.51100000000E-03 0.  1.
</event>
<event>
 8    1  0.1076043E+005  0.1043930E+01  0.7957747E-01            NaN
         13   -1    0    0    0    0  0.00000000000E+00  0.00000000000E+00  0.74505805969E-08  0.10566000000E+00  0.10566000000E+00 0.  1.
     999900   -1    0    0    0    0 -0.00000000000E+00 -0.00000000000E+00 -0.74505805969E-08  0.93827000000E+00  0.93827000000E+00 0.  1.
     999902    2    1    2    0    0  0.81723951867E-02  0.22040340975E-01  0.76804253975E-02  0.10192003901E+01  0.10189003295E+01 0.  0.
     999903    2    3    3    0    0  0.79134213516E-01 -0.85793200999E-01  0.50516716460E-01  0.12875185125E+00  0.20059996830E-01 0.  0.
         14    1    1    2    0    0 -0.81723951867E-02 -0.22040340975E-01 -0.76804253975E-02  0.24729609937E-01  0.00000000000E+00 0. -1.
     999901    1    3    3    0    0 -0.70961818329E-01  0.10783354197E+00 -0.42836291062E-01  0.89044853881E+00  0.88000000000E+00 0. -1.
        -11    1    4    4    0    0  0.15808087930E-01 -0.26124914751E-01  0.64264430671E-02  0.31208446072E-01  0.51100000000E-03 0.  1.
         11    1    4    4    0    0  0.63326125586E-01 -0.59668286249E-01  0.44090273393E-01  0.97543405182E-01  0.51100000000E-03 0. -1.
</event>
<event>
 8    1  0.1076043E+005  0.1043930E+01  0.7957747E-01            NaN
         13   -1    0    0    0    0  0.00000000000E+00  0.00000000000E+00  0.74505805969E-08  0.10566000000E+00  0.10566000000E+00 0. -1.
     999900   -1    0    0    0    0 -0.00000000000E+00 -0.00000000000E+00 -0.74505805969E-08  0.93827000000E+00  0.93827000000E+00 0.  1.
     999902    2    1    2    0    0  0.91196615370E-02  0.42898098360E-02 -0.21574644051E-01  0.10201174831E+01  0.10198395184E+01 0.  0.
     999903    2    3    3    0    0 -0.19409761221E-01  0.42357708331E-01 -0.12312397798E+00  0.13300116600E+00  0.18944178982E-01 0.  0.
         14    1    1    2    0    0 -0.91196615370E-02 -0.42898098360E-02  0.21574644051E-01  0.23812516896E-01  0.00000000000E+00 0. -1.
     999901    1    3    3    0    0  0.28529422758E-01 -0.38067898495E-01  0.10154933393E+00  0.88711631711E+00  0.88000000000E+00 0. -1.
        -11    1    4    4    0    0 -0.91769897193E-02  0.38084855867E-01 -0.94438391019E-01  0.10224257531E+00  0.51100000000E-03 0.  1.
         11    1    4    4    0    0 -0.10232771502E-01  0.42728524645E-02 -0.28685586959E-01  0.30758590686E-01  0.51100000000E-03 0. -1.
</event>
<event>
 8    1  0.1076043E+005  0.1043930E+01  0.7957747E-01            NaN
         13   -1    0    0    0    0  0.00000000000E+00  0.00000000000E+00  0.74505805969E-08  0.10566000000E+00  0.10566000000E+00 0. -1.
     999900   -1    0    0    0    0 -0.00000000000E+00 -0.00000000000E+00 -0.74505805969E-08  0.93827000000E+00  0.93827000000E+00 0.  1.
     999902    2    1    2    0    0  0.75931041768E-02  0.19885794169E-01 -0.83657980944E-02  0.10210589130E+01  0.10208027318E+01 0.  0.
     999903    2    3    3    0    0 -0.29062111306E-01  0.67186930777E-01 -0.11100308831E+00  0.13307500796E+00  0.53462274144E-02 0.  0.
         14    1    1    2    0    0 -0.75931041768E-02 -0.19885794169E-01  0.83657980944E-02  0.22871086955E-01  0.00000000000E+00 0. -1.
     999901    1    3    3    0    0  0.36655215483E-01 -0.47301136608E-01  0.10263729022E+00  0.88798390509E+00  0.88000000000E+00 0. -1.
        -11    1    4    4    0    0 -0.26382957773E-02  0.10728180197E-01 -0.16668576243E-01  0.20003924862E-01  0.51100000000E-03 0. -1.
         11    1    4    4    0    0 -0.26423815529E-01  0.56458750580E-01 -0.94334512071E-01  0.11307108310E+00  0.51100000000E-03 0.  1.
</event>
<event>
 8    1  0.1076043E+005  0.1043930E+01  0.7957747E-01            NaN
         13   -1    0    0    0    0  0.00000000000E+00  0.00000000000E+00  0.74505805969E-08  0.10566000000E+00  0.10566000000E+00 0.  1.
     999900   -1    0    0    0    0 -0.00000000000E+00 -0.00000000000E+00 -0.74505805969E-08  0.93827000000E+00  0.93827000000E+00 0.  1.
     999902    2    1    2    0    0  0.18129932794E-02 -0.25063376968E-01 -0.18834405510E-02  0.10187306516E+01  0.10184189381E+01 0.  0.
     999903    2    3    3    0    0 -0.41184371414E-01 -0.81914544800E-01 -0.91862492910E-01  0.13127526768E+00  0.19706171660E-01 0.  0.
         14    1    1    2    0    0 -0.18129932794E-02  0.25063376968E-01  0.18834405510E-02  0.25199348364E-01  0.00000000000E+00 0. -1.
     999901    1    3    3    0    0  0.42997364693E-01  0.56851167833E-01  0.89979052359E-01  0.88745538396E+00  0.88000000000E+00 0. -1.
        -11    1    4    4    0    0 -0.23558671042E-01 -0.57501657668E-01 -0.50297032028E-01  0.79946883414E-01  0.51100000000E-03 0. -1.
         11    1    4    4    0    0 -0.17625700372E-01 -0.24412887133E-01 -0.41565460881E-01  0.51328384263E-01  0.51100000000E-03 0.  1.
</event>
<event>
 8    1  0.1076043E+005  0.1043930E+01  0.7957747E-01            NaN
         13   -1    0    0    0    0  0.00000000000E+00  0.00000000000E+00  0.74505805969E-08  0.10566000000E+00  0.10566000000E+00 0.  1.
     999900   -1    0    0    0    0 -0.00000000000E+00 -0.00000000000E+00 -0.74505805969E-08  0.93827000000E+00  0.93827000000E+00 0. -1.
     999902    2    1    2    0    0  0.16240384495E-02 -0.16047038111E-01 -0.17302330572E-01  0.10202759184E+01  0.10200016834E+01 0.  0.
     999903    2    3    3    0    0 -0.99159765735E-02  0.12602592004E+00  0.91984752562E-02  0.12841259362E+00  0.20599105314E-01 0.  0.
         14    1    1    2    0    0 -0.16240384495E-02  0.16047038111E-01  0.17302330572E-01  0.23654081599E-01  0.00000000000E+00 0.  1.
     999901    1    3    3    0    0  0.11540015023E-01 -0.14207295815E+00 -0.26500805829E-01  0.89186332478E+00  0.88000000000E+00 0.  1.
        -11    1    4    4    0    0  0.30401230987E-02  0.73800780430E-01  0.26619084707E-03  0.73865617977E-01  0.51100000000E-03 0. -1.
         11    1    4    4    0    0 -0.12956099672E-01  0.52225139608E-01  0.89322844092E-02  0.54546975641E-01  0.51100000000E-03 0.  1.
</event>
<event>
 8    1  0.1076043E+005  0.1043930E+01  0.7957747E-01            NaN
         13   -1    0    0    0    0  0.00000000000E+00  0.00000000000E+00  0.74505805969E-08  0.10566000000E+00  0.10566000000E+00 0. -1.
     999900   -1    0    0    0    0 -0.00000000000E+00 -0.00000000000E+00 -0.74505805969E-08  0.93827000000E+00  0.93827000000E+00 0.  1.
     999902    2    1    2    0    0 -0.12817992919E-03 -0.18927066931E-01 -0.43737295802E-02  0.10245037342E+01  0.10243195408E+01 0.  0.
     999903    2    3    3    0    0 -0.17263391993E-02 -0.13521063529E+00 -0.53378705060E-02  0.13685214041E+00  0.20374477414E-01 0.  0.
         14    1    1    2    0    0  0.12817992919E-03  0.18927066931E-01  0.43737295802E-02  0.19426265805E-01  0.00000000000E+00 0. -1.
     999901    1    3    3    0    0  0.15981592701E-02  0.11628356836E+00  0.96414092580E-03  0.88765159379E+00  0.88000000000E+00 0.  1.
        -11    1    4    4    0    0 -0.86358103094E-02 -0.11553588386E+00 -0.55483487885E-02  0.11599208152E+00  0.51100000000E-03 0. -1.
         11    1    4    4    0    0  0.69094711102E-02 -0.19674751431E-01  0.21047828246E-03  0.20860058892E-01  0.51100000000E-03 0.  1.
</event>
<event>
 8    1  0.1076043E+005  0.1043930E+01  0.7957747E-01            NaN
         13   -1    0    0    0    0  0.00000000000E+00  0.00000000000E+00  0.74505805969E-08  0.10566000000E+00  0.10566000000E+00 0. -1.
     999900   -1    0    0    0    0 -0.00000000000E+00 -0.00000000000E+00 -0.74505805969E-08  0.93827000000E+00  0.93827000000E+00 0. -1.
     999902    2    1    2    0    0 -0.69011909303E-02  0.11150162637E-01  0.21758531267E-01  0.10185255467E+01  0.10182086736E+01 0.  0.
     999903    2    3    3    0    0  0.24527692791E-01 -0.94413681924E-01  0.82753666507E-01  0.12956440780E+00  0.20572199667E-01 0.  0.
         14    1    1    2    0    0  0.69011909303E-02 -0.11150162637E-01 -0.21758531267E-01  0.25404453270E-01  0.00000000000E+00 0.  1.
     999901    1    3    3    0    0 -0.31428883721E-01  0.10556384456E+00 -0.60995135241E-01  0.88896113893E+00  0.88000000000E+00 0.  1.
        -11    1    4    4    0    0  0.11996667064E-02 -0.44473759131E-01  0.34415976720E-01  0.56250111343E-01  0.51100000000E-03 0. -1.
         11    1    4    4    0    0  0.23328026084E-01 -0.49939922793E-01  0.48337689787E-01  0.73314296454E-01  0.51100000000E-03 0.  1.
</event>
<event>
 8    1  0.1076043E+005  0.1043930E+01  0.7957747E-01            NaN
         13   -1    0    0    0    0  0.00000000000E+00  0.00000000000E+00  0.74505805969E-08  0.10566000000E+00  0.10566000000E+00 0. -1.
     999900   -1    0    0    0    0 -0.00000000000E+00 -0.00000000000E+00 -0.74505805969E-08  0.93827000000E+00  0.93827000000E+00 0.  1.
     999902    2    1    2    0    0  0.20634302530E-01  0.62952627000E-02  0.10251822747E-01  0.10200447610E+01  0.10197650758E+01 0.  0.
     999903    2    3    3    0    0 -0.42254935168E-01  0.64271530843E-01  0.10362537905E+00  0.13098068854E+00  0.22392238934E-01 0.  0.
         14    1    1    2    0    0 -0.20634302530E-01 -0.62952627000E-02 -0.10251822747E-01  0.23885239019E-01  0.00000000000E+00 0.  1.
     999901    1    3    3    0    0  0.62889237697E-01 -0.57976268143E-01 -0.93373556303E-01  0.88906407244E+00  0.88000000000E+00 0.  1.
        -11    1    4    4    0    0 -0.27319788157E-01  0.25314931162E-01  0.37980221935E-01  0.53197508814E-01  0.51100000000E-03 0. -1.
         11    1    4    4    0    0 -0.14935147011E-01  0.38956599681E-01  0.65645157115E-01  0.77783179728E-01  0.51100000000E-03 0.  1.
</event>
<event>
 8    1  0.1076043E+005  0.1043930E+01  0.7957747E-01            NaN
         13   -1    0    0    0    0  0.00000000000E+00  0.00000000000E+00  0.74505805969E-08  0.10566000000E+00  0.10566000000E+00 0. -1.
     999900   -1    0    0    0    0 -0.00000000000E+00 -0.00000000000E+00 -0.74505805969E-08  0.93827000000E+00  0.93827000000E+00 0. -1.
     999902    2    1    2    0    0  0.14104618365E-01 -0.13627113605E-01  0.14065856851E-01  0.10197952364E+01  0.10195096063E+01 0.  0.
     999903    2    3    3    0    0 -0.13459995532E-01  0.59846248408E-01 -0.11009109583E+00  0.12762199552E+00  0.20114159943E-01 0.  0.
         14    1    1    2    0    0 -0.14104618365E-01  0.13627113605E-01 -0.14065856851E-01  0.24134763587E-01  0.00000000000E+00 0. -1.
     999901    1    3    3    0    0  0.27564613897E-01 -0.73473362014E-01  0.12415695269E+00  0.89217324089E+00  0.88000000000E+00 0.  1.
        -11    1    4    4    0    0 -0.16822651689E-02  0.36990484638E-02 -0.77892730594E-03  0.41690315883E-02  0.51100000000E-03 0.  1.
         11    1    4    4    0    0 -0.11777730363E-01  0.56147199945E-01 -0.10931216853E+00  0.12345296393E+00  0.51100000000E-03 0. -1.
</event>
<event>
 8    1  0.1076043E+005  0.1043930E+01  0.7957747E-01            NaN
         13   -1    0    0    0    0  0.00000000000E+00  0.00000000000E+00  0.74505805969E-08  0.10566000000E+00  0.10566000000E+00 0. -1.
     999900   -1    0    0    0    0 -0.00000000000E+00 -0.00000000000E+00 -0.74505805969E-08  0.93827000000E+00  0.93827000000E+00 0. -1.
     999902    2    1    2    0    0 -0.69200995971E-02 -0.44583944145E-02  0.22207042760E-01  0.10202462966E+01  0.10199713662E+01 0.  0.
     999903    2    3    3    0    0  0.39654268187E-02  0.95409898622E-01  0.89934722164E-01  0.13194499118E+00  0.14228600798E-01 0.  0.
         14    1    1    2    0    0  0.69200995971E-02  0.44583944145E-02 -0.22207042760E-01  0.23683703413E-01  0.00000000000E+00 0.  1.
     999901    1    3    3    0    0 -0.10885526416E-01 -0.99868293036E-01 -0.67727679404E-01  0.88830130541E+00  0.88000000000E+00 0. -1.
        -11    1    4    4    0    0 -0.46812087758E-02  0.16635707994E-01  0.15452845438E-01  0.23188618958E-01  0.51100000000E-03 0.  1.
         11    1    4    4    0    0  0.86466355945E-02  0.78774190628E-01  0.74481876726E-01  0.10875637222E+00  0.51100000000E-03 0. -1.
</event>
<event>
 8    1  0.1076043E+005  0.1043930E+01  0.7957747E-01            NaN
         13   -1    0    0    0    0  0.00000000000E+00  0.00000000000E+00  0.74505805969E-08  0.10566000000E+00  0.10566000000E+00 0.  1.
     999900   -1    0    0    0    0 -0.00000000000E+00 -0.00000000000E+00 -0.74505805969E-08  0.93827000000E+00  0.93827000000E+00 0. -1.
     999902    2    1    2    0    0  0.10281706273E-01 -0.21625051397E-01  0.19273810386E-02  0.10199076952E+01  0.10196247523E+01 0.  0.
     999903    2    3    3    0    0  0.11995292434E-01  0.15333531886E-01 -0.12671584337E+00  0.12978525840E+00  0.20206535980E-01 0.  0.
         14    1    1    2    0    0 -0.10281706273E-01  0.21625051397E-01 -0.19273810386E-02  0.24022304832E-01  0.00000000000E+00 0.  1.
     999901    1    3    3    0    0 -0.17135861611E-02 -0.36958583283E-01  0.12864322441E+00  0.89012243677E+00  0.88000000000E+00 0.  1.
        -11    1    4    4    0    0  0.11452206599E-01 -0.95655103532E-03 -0.61096075118E-01  0.62169603037E-01  0.51100000000E-03 0. -1.
         11    1    4    4    0    0  0.54308583529E-03  0.16290082921E-01 -0.65619768249E-01  0.67615655361E-01  0.51100000000E-03 0.  1.
</event>
<event>
 8    1  0.1076043E+005  0.1043930E+01  0.7957747E-01            NaN
         13   -1    0    0    0    0  0.00000000000E+00  0.00000000000E+00  0.74505805969E-08  0.10566000000E+00  0.10566000000E+00 0. -1.
     999900   -1    0    0    0    0 -0.00000000000E+00 -0.00000000000E+00 -0.74505805969E-08  0.93827000000E+00  0.93827000000E+00 0.  1.
     999902    2    1    2    0    0  0.18023863330E-01  0.16692113023E-02  0.14806224249E-01  0.10205447441E+01  0.10202767784E+01 0.  0.
     999903    2    3    3    0    0 -0.47433847827E-01  0.96749019062E-01 -0.67960471473E-01  0.12915526264E+00  0.21262962508E-01 0.  0.
         14    1    1    2    0    0 -0.18023863330E-01 -0.16692113023E-02 -0.14806224249E-01  0.23385255872E-01  0.00000000000E+00 0.  1.
     999901    1    3    3    0    0  0.65457711156E-01 -0.95079807760E-01  0.82766695722E-01  0.89138948149E+00  0.88000000000E+00 0. -1.
        -11    1    4    4    0    0 -0.33184528205E-01  0.65951784184E-01 -0.34493740141E-01  0.81491901310E-01  0.51100000000E-03 0.  1.
         11    1    4    4    0    0 -0.14249319621E-01  0.30797234878E-01 -0.33466731332E-01  0.47663361326E-01  0.51100000000E-03 0. -1.
</event>
<event>
 8    1  0.1076043E+005  0.1043930E+01  0.7957747E-01            NaN
         13   -1    0    0    0    0  0.00000000000E+00  0.00000000000E+00  0.74505805969E-08  0.10566000000E+00  0.10566000000E+00 0. -1.
     999900   -1    0    0    0    0 -0.00000000000E+00 -0.00000000000E+00 -0.74505805969E-08  0.93827000000E+00  0.93827000000E+00 0. -1.
     999902    2    1    2    0    0  0.96178589449E-02 -0.81111766086E-02 -0.19513803160E-01  0.10207118409E+01  0.10204477347E+01 0.  0.
     999903    2    3    3    0    0 -0.21237569088E-01 -0.11132495186E+00 -0.66746809785E-01  0.13288522624E+00  0.18949076194E-01 0.  0.
         14    1    1    2    0    0 -0.96178589449E-02  0.81111766086E-02  0.19513803160E-01  0.23218159066E-01  0.00000000000E+00 0.  1.
     999901    1    3    3    0    0  0.30855428033E-01  0.10321377525E+00  0.47233006625E-01  0.88782661469E+00  0.88000000000E+00 0.  1.
        -11    1    4    4    0    0 -0.18126712160E-01 -0.61344008786E-01 -0.29334798150E-01  0.70373692607E-01  0.51100000000E-03 0. -1.
         11    1    4    4    0    0 -0.31108569280E-02 -0.49980943077E-01 -0.37412011635E-01  0.62511533634E-01  0.51100000000E-03 0.  1.
</event>
<event>
 8    1  0.1076043E+005  0.1043930E+01  0.7957747E-01            NaN
         13   -1    0    0    0    0  0.00000000000E+00  0.00000000000E+00  0.74505805969E-08  0.10566000000E+00  0.10566000000E+00 0.  1.
     999900   -1    0    0    0    0 -0.00000000000E+00 -0.00000000000E+00 -0.74505805969E-08  0.93827000000E+00  0.93827000000E+00 0. -1.
     999902    2    1    2    0    0 -0.16164186154E-01  0.32799861373E-02  0.17339478789E-01  0.10199989167E+01  0.10197181441E+01 0.  0.
     999903    2    3    3    0    0 -0.11152544862E+00  0.13066591537E-02 -0.65714021087E-01  0.13095698955E+00  0.19793117377E-01 0.  0.
         14    1    1    2    0    0  0.16164186154E-01 -0.32799861373E-02 -0.17339478789E-01  0.23931083297E-01  0.00000000000E+00 0. -1.
     999901    1    3    3    0    0  0.95361262468E-01  0.19733269837E-02  0.83053499876E-01  0.88904192716E+00  0.88000000000E+00 0.  1.
        -11    1    4    4    0    0 -0.69980747729E-01 -0.82186931184E-02 -0.44558578966E-01  0.83370138838E-01  0.51100000000E-03 0.  1.
         11    1    4    4    0    0 -0.41544700893E-01  0.95253522721E-02 -0.21155442121E-01  0.47586850710E-01  0.51100000000E-03 0. -1.
</event>
<event>
 8    1  0.1106381E+005  0.1043930E+01  0.7957747E-01            NaN
         13   -1    0    0    0    0  0.00000000000E+00  0.00000000000E+00  0.74505805969E-08  0.10566000000E+00  0.10566000000E+00 0. -1.
     999900   -1    0    0    0    0 -0.00000000000E+00 -0.00000000000E+00 -0.74505805969E-08  0.93827000000E+00  0.93827000000E+00 0.  1.
     999902    2    1    2    0    0  0.19388851974E-01  0.27287322862E-02 -0.13179227850E-01  0.10203277627E+01  0.10200547425E+01 0.  0.
     999903    2    3    3    0    0 -0.81303166018E-01  0.19228912106E-01  0.95285459630E-01  0.12781685132E+00  0.16669517097E-01 0.  0.
         14    1    1    2    0    0 -0.19388851974E-01 -0.27287322862E-02  0.13179227850E-01  0.23602237341E-01  0.00000000000E+00 0.  1.
     999901    1    3    3    0    0  0.10069201799E+00 -0.16500179820E-01 -0.10846468748E+00  0.89251091133E+00  0.88000000000E+00 0.  1.
        -11    1    4    4    0    0 -0.42435872432E-01  0.17266490064E-02  0.44626763051E-01  0.61608389748E-01  0.51100000000E-03 0.  1.
         11    1    4    4    0    0 -0.38867293586E-01  0.17502263100E-01  0.50658696579E-01  0.66208461577E-01  0.51100000000E-03 0. -1.
</event>
<event>
 8    1  0.1076043E+005  0.1043930E+01  0.7957747E-01            NaN
         13   -1    0    0    0    0  0.00000000000E+00  0.00000000000E+00  0.74505805969E-08  0.10566000000E+00  0.10566000000E+00 0.  1.
     999900   -1    0    0    0    0 -0.00000000000E+00 -0.00000000000E+00 -0.74505805969E-08  0.93827000000E+00  0.93827000000E+00 0.  1.
     999902    2    1    2    0    0  0.45666448040E-02 -0.19867907513E-01 -0.11487870345E-01  0.10205300180E+01  0.10202617108E+01 0.  0.
     999903    2    3    3    0    0 -0.35743251259E-01  0.84734586072E-01 -0.89479061316E-01  0.12999692187E+00  0.20860661421E-01 0.  0.
         14    1    1    2    0    0 -0.45666448040E-02  0.19867907513E-01  0.11487870345E-01  0.23399982025E-01  0.00000000000E+00 0. -1.
     999901    1    3    3    0    0  0.40309896063E-01 -0.10460249358E+00  0.77991190971E-01  0.89053309610E+00  0.88000000000E+00 0. -1.
        -11    1    4    4    0    0 -0.24505700960E-01  0.34555069187E-01 -0.33741602579E-01  0.54160308822E-01  0.51100000000E-03 0.  1.
         11    1    4    4    0    0 -0.11237550299E-01  0.50179516885E-01 -0.55737458737E-01  0.75836613051E-01  0.51100000000E-03 0. -1.
</event>
<event>
 8    1  0.1076043E+005  0.1043930E+01  0.7957747E-01            NaN
         13   -1    0    0    0    0  0.00000000000E+00  0.00000000000E+00  0.74505805969E-08  0.10566000000E+00  0.10566000000E+00 0. -1.
     999900   -1    0    0    0    0 -0.00000000000E+00 -0.00000000000E+00 -0.74505805969E-08  0.93827000000E+00  0.93827000000E+00 0. -1.
     999902    2    1    2    0    0  0.16462269165E-01  0.70492561893E-02 -0.15604124744E-01  0.10201773785E+01  0.10199008268E+01 0.  0.
     999903    2    3    3    0    0  0.11304134041E+00  0.65831025729E-01  0.94713002941E-02  0.13258986712E+00  0.19449903398E-01 0.  0.
         14    1    1    2    0    0 -0.16462269165E-01 -0.70492561893E-02  0.15604124744E-01  0.23752621495E-01  0.00000000000E+00 0. -1.
     999901    1    3    3    0    0 -0.96579071246E-01 -0.58781769540E-01 -0.25075425038E-01  0.88758751139E+00  0.88000000000E+00 0. -1.
        -11    1    4    4    0    0  0.92269236152E-01  0.45237489495E-01  0.10634226330E-01  0.10331210136E+00  0.51100000000E-03 0.  1.
         11    1    4    4    0    0  0.20772104259E-01  0.20593536234E-01 -0.11629260363E-02  0.29277765760E-01  0.51100000000E-03 0. -1.
</event>
<event>
 8    1  0.1076043E+005  0.1043930E+01  0.7957747E-01            NaN
         13   -1    0    0    0    0  0.00000000000E+00  0.00000000000E+00  0.74505805969E-08  0.10566000000E+00  0.10566000000E+00 0.  1.
     999900   -1    0    0    0    0 -0.00000000000E+00 -0.00000000000E+00 -0.74505805969E-08  0.93827000000E+00  0.93827000000E+00 0.  1.
     999902    2    1    2    0    0 -0.13101421250E-01  0.14455468522E-01 -0.16981203599E-01  0.10180655633E+01  0.10177369612E+01 0.  0.
     999903    2    3    3    0    0 -0.11197507035E+00 -0.99190227966E-02 -0.64038050214E-01  0.13094411666E+00  0.20215994154E-01 0.  0.
         14    1    1    2    0    0  0.13101421250E-01 -0.14455468522E-01  0.16981203599E-01  0.25864436677E-01  0.00000000000E+00 0.  1.
     999901    1    3    3    0    0  0.98873649101E-01  0.24374491319E-01  0.47056846615E-01  0.88712144666E+00  0.88000000000E+00 0. -1.
        -11    1    4    4    0    0 -0.96360865150E-01 -0.15537540328E-01 -0.55267121181E-01  0.11216749661E+00  0.51100000000E-03 0.  1.
         11    1    4    4    0    0 -0.15614205201E-01  0.56185175318E-02 -0.87709290331E-02  0.18776620048E-01  0.51100000000E-03 0. -1.
</event>
<event>
 8    1  0.1076043E+005  0.1043930E+01  0.7957747E-01            NaN
         13   -1    0    0    0    0  0.00000000000E+00  0.00000000000E+00  0.74505805969E-08  0.10566000000E+00  0.10566000000E+00 0. -1.
     999900   -1    0    0    0    0 -0.00000000000E+00 -0.00000000000E+00 -0.74505805969E-08  0.93827000000E+00  0.93827000000E+00 0.  1.
     999902    2    1    2    0    0  0.19837638715E-01  0.12784988769E-01 -0.87126991843E-02  0.10187725165E+01  0.10184618508E+01 0.  0.
     999903    2    3    3    0    0 -0.63642321927E-02 -0.10164352609E+00  0.71788278806E-01  0.12733500862E+00  0.26243810667E-01 0.  0.
         14    1    1    2    0    0 -0.19837638715E-01 -0.12784988769E-01  0.87126991843E-02  0.25157483473E-01  0.00000000000E+00 0.  1.
     999901    1    3    3    0    0  0.26201870908E-01  0.11442851486E+00 -0.80500977990E-01  0.89143750791E+00  0.88000000000E+00 0. -1.
        -11    1    4    4    0    0  0.18951225822E-02 -0.91664706784E-01  0.66823175281E-01  0.11345310853E+00  0.51100000000E-03 0. -1.
         11    1    4    4    0    0 -0.82593547748E-02 -0.99788193056E-02  0.49651035251E-02  0.13881900088E-01  0.51100000000E-03 0.  1.
</event>
<event>
 8    1  0.1076043E+005  0.1043930E+01  0.7957747E-01            NaN
         13   -1    0    0    0    0  0.00000000000E+00  0.00000000000E+00  0.74505805969E-08  0.10566000000E+00  0.10566000000E+00 0.  1.
     999900   -1    0    0    0    0 -0.00000000000E+00 -0.00000000000E+00 -0.74505805969E-08  0.93827000000E+00  0.93827000000E+00 0. -1.
     999902    2    1    2    0    0  0.23444459657E-01 -0.20982034944E-02 -0.27620823619E-02  0.10202303324E+01  0.10199550269E+01 0.  0.
     999903    2    3    3    0    0  0.17416502131E-01  0.82416337616E-01 -0.98640243669E-01  0.13097690070E+00  0.18145621882E-01 0.  0.
         14    1    1    2    0    0 -0.23444459657E-01  0.20982034944E-02  0.27620823619E-02  0.23699667624E-01  0.00000000000E+00 0.  1.
     999901    1    3    3    0    0  0.60279575257E-02 -0.84514541110E-01  0.95878161307E-01  0.88925343168E+00  0.88000000000E+00 0.  1.
        -11    1    4    4    0    0 -0.18102183908E-03  0.42954703791E-01 -0.49123987540E-01  0.65257693949E-01  0.51100000000E-03 0.  1.
         11    1    4    4    0    0  0.17597523971E-01  0.39461633824E-01 -0.49516256129E-01  0.65719206751E-01  0.51100000000E-03 0. -1.
</event>
<event>
 8    1  0.1076043E+005  0.1043930E+01  0.7957747E-01            NaN
         13   -1    0    0    0    0  0.00000000000E+00  0.00000000000E+00  0.74505805969E-08  0.10566000000E+00  0.10566000000E+00 0. -1.
     999900   -1    0    0    0    0 -0.00000000000E+00 -0.00000000000E+00 -0.74505805969E-08  0.93827000000E+00  0.93827000000E+00 0.  1.
     999902    2    1    2    0    0  0.17408272463E-01  0.64022407425E-02  0.14266717354E-01  0.10205296611E+01  0.10202613456E+01 0.  0.
     999903    2    3    3    0    0 -0.84169884419E-01 -0.66004195252E-01  0.70426158787E-01  0.12995978917E+00  0.22103839596E-01 0.  0.
         14    1    1    2    0    0 -0.17408272463E-01 -0.64022407425E-02 -0.14266717354E-01  0.23400338902E-01  0.00000000000E+00 0.  1.
     999901    1    3    3    0    0  0.10157815688E+00  0.72406435995E-01 -0.56159441433E-01  0.89056987193E+00  0.88000000000E+00 0.  1.
        -11    1    4    4    0    0 -0.53037565664E-01 -0.28541734006E-01  0.43530725612E-01  0.74315537709E-01  0.51100000000E-03 0. -1.
         11    1    4    4    0    0 -0.31132318755E-01 -0.37462461247E-01  0.26895433174E-01  0.55644251458E-01  0.51100000000E-03 0.  1.
</event>
<event>
 8    1  0.1076043E+005  0.1043930E+01  0.7957747E-01            NaN
         13   -1    0    0    0    0  0.00000000000E+00  0.00000000000E+00  0.74505805969E-08  0.10566000000E+00  0.10566000000E+00 0. -1.
     999900   -1    0    0    0    0 -0.00000000000E+00 -0.00000000000E+00 -0.74505805969E-08  0.93827000000E+00  0.93827000000E+00 0. -1.
     999902    2    1    2    0    0  0.11172752083E-01  0.11454744119E-01  0.16879537358E-01  0.10206714460E+01  0.10204064094E+01 0.  0.
     999903    2    3    3    0    0  0.37104280364E-02  0.35157820545E-01 -0.12277098927E+00  0.12931304913E+00  0.19982723723E-01 0.  0.
         14    1    1    2    0    0 -0.11172752083E-01 -0.11454744119E-01 -0.16879537358E-01  0.23258553983E-01  0.00000000000E+00 0.  1.
     999901    1    3    3    0    0  0.74623240465E-02 -0.23703076426E-01  0.13965052663E+00  0.89135839689E+00  0.88000000000E+00 0.  1.
        -11    1    4    4    0    0  0.88116707467E-02  0.14499933844E-01 -0.76801719476E-01  0.78655316783E-01  0.51100000000E-03 0.  1.
         11    1    4    4    0    0 -0.51012427103E-02  0.20657886701E-01 -0.45969269795E-01  0.50657732348E-01  0.51100000000E-03 0. -1.
</event>
<event>
 8    1  0.1076043E+005  0.1043930E+01  0.7957747E-01            NaN
         13   -1    0    0    0    0  0.00000000000E+00  0.00000000000E+00  0.74505805969E-08  0.10566000000E+00  0.10566000000E+00 0. -1.
     999900   -1    0    0    0    0 -0.00000000000E+00 -0.00000000000E+00 -0.74505805969E-08  0.93827000000E+00  0.93827000000E+00 0.  1.
     999902    2    1    2    0    0  0.19265511129E-02  0.13509304864E-02  0.23712692236E-01  0.10201008501E+01  0.10198224924E+01 0.  0.
     999903    2    3    3    0    0  0.11280235431E+00 -0.57564496309E-01  0.27622982210E-01  0.13118029030E+00  0.20179123942E-01 0.  0.
         14    1    1    2    0    0 -0.19265511129E-02 -0.13509304864E-02 -0.23712692236E-01  0.23829149910E-01  0.00000000000E+00 0.  1.
     999901    1    3    3    0    0 -0.11087580320E+00  0.58915426795E-01 -0.39102899738E-02  0.88892055979E+00  0.88000000000E+00 0.  1.
        -11    1    4    4    0    0  0.50486984004E-01 -0.25650754711E-01  0.22638905737E-01  0.60989162521E-01  0.51100000000E-03 0. -1.
         11    1    4    4    0    0  0.62315370309E-01 -0.31913741598E-01  0.49840764729E-02  0.70191127778E-01  0.51100000000E-03 0.  1.
</event>
<event>
 8    1  0.1076043E+005  0.1043930E+01  0.7957747E-01            NaN
         13   -1    0    0    0    0  0.00000000000E+00  0.00000000000E+00  0.74505805969E-08  0.10566000000E+00  0.10566000000E+00 0.  1.
     999900   -1    0    0    0    0 -0.00000000000E+00 -0.00000000000E+00 -0.74505805969E-08  0.93827000000E+00  0.93827000000E+00 0.  1.
     999902    2    1    2    0    0  0.40786518733E-02 -0.20364782735E-01  0.13300346547E-01  0.10192670927E+01  0.10189686685E+01 0.  0.
     999903    2    3    3    0    0 -0.22994536941E-01  0.30081799665E-01 -0.12011153262E+00  0.12737217474E+00  0.19058521144E-01 0.  0.
         14    1    1    2    0    0 -0.40786518733E-02  0.20364782735E-01 -0.13300346547E-01  0.24662907274E-01  0.00000000000E+00 0. -1.
     999901    1    3    3    0    0  0.27073188815E-01 -0.50446582400E-01  0.13341187917E+00  0.89189491799E+00  0.88000000000E+00 0. -1.
        -11    1    4    4    0    0 -0.10049529138E-01  0.23766899668E-01 -0.56009687620E-01  0.61670128782E-01  0.51100000000E-03 0.  1.
         11    1    4    4    0    0 -0.12945007803E-01  0.63148999975E-02 -0.64101845003E-01  0.65702045956E-01  0.51100000000E-03 0. -1.
</event>
<event>
 8    1  0.1076043E+005  0.1043930E+01  0.7957747E-01            NaN
         13   -1    0    0    0    0  0.00000000000E+00  0.00000000000E+00  0.74505805969E-08  0.10566000000E+00  0.10566000000E+00 0. -1.
     999900   -1    0    0    0    0 -0.00000000000E+00 -0.00000000000E+00 -0.74505805969E-08  0.93827000000E+00  0.93827000000E+00 0. -1.
     999902    2    1    2    0    0  0.11225657353E-01 -0.23153652898E-01 -0.54993923290E-02  0.10176174490E+01  0.10172772101E+01 0.  0.
     999903    2    3    3    0    0 -0.51754477968E-02 -0.93316213964E-01  0.87631610352E-01  0.12977446461E+00  0.20673932459E-01 0.  0.
         14    1    1    2    0    0 -0.11225657353E-01  0.23153652898E-01  0.54993923290E-02  0.26312551026E-01  0.00000000000E+00 0.  1.
     999901    1    3    3    0    0  0.16401105150E-01  0.70162561066E-01 -0.93131002681E-01  0.88784298436E+00  0.88000000000E+00 0. -1.
        -11    1    4    4    0    0  0.53355439979E-02 -0.45851549986E-01  0.33645422889E-01  0.57123622682E-01  0.51100000000E-03 0. -1.
         11    1    4    4    0    0 -0.10510991795E-01 -0.47464663977E-01  0.53986187463E-01  0.72650841927E-01  0.51100000000E-03 0.  1.
</event>
<event>
 8    1  0.1076043E+005  0.1043930E+01  0.7957747E-01            NaN
         13   -1    0    0    0    0  0.00000000000E+00  0.00000000000E+00  0.74505805969E-08  0.10566000000E+00  0.10566000000E+00 0. -1.
     999900   -1    0    0    0    0 -0.00000000000E+00 -0.00000000000E+00 -0.74505805969E-08  0.93827000000E+00  0.93827000000E+00 0. -1.
     999902    2    1    2    0    0 -0.11605664675E-01 -0.27938063182E-02  0.19645209413E-01  0.10209423716E+01  0.10206835431E+01 0.  0.
     999903    2    3    3    0    0  0.75885163396E-01 -0.92915891787E-01  0.50139527998E-01  0.13150067101E+00  0.19660448603E-01 0.  0.
         14    1    1    2    0    0  0.11605664675E-01  0.27938063182E-02 -0.19645209413E-01  0.22987628393E-01  0.00000000000E+00 0.  1.
     999901    1    3    3    0    0 -0.87490828070E-01  0.90122085469E-01 -0.30494318585E-01  0.88944170059E+00  0.88000000000E+00 0.  1.
        -11    1    4    4    0    0  0.67548821343E-01 -0.73776245200E-01  0.46473295603E-01  0.11029871235E+00  0.51100000000E-03 0.  1.
         11    1    4    4    0    0  0.83363420528E-02 -0.19139646587E-01  0.36662323953E-02  0.21201958666E-01  0.51100000000E-03 0. -1.
</event>
<event>
 8    1  0.1076043E+005  0.1043930E+01  0.7957747E-01            NaN
         13   -1    0    0    0    0  0.00000000000E+00  0.00000000000E+00  0.74505805969E-08  0.10566000000E+00  0.10566000000E+00 0.  1.
     999900   -1    0    0    0    0 -0.00000000000E+00 -0.00000000000E+00 -0.74505805969E-08  0.93827000000E+00  0.93827000000E+00 0.  1.
     999902    2    1    2    0    0 -0.16048470877E-02 -0.13667573628E-01 -0.18601996563E-01  0.10207910204E+01  0.10205287330E+01 0.  0.
     999903    2    3    3    0    0  0.54817307625E-01  0.10347104592E+00 -0.53900275014E-01  0.13053775066E+00  0.20583249051E-01 0.  0.
         14    1    1    2    0    0  0.16048470877E-02  0.13667573628E-01  0.18601996563E-01  0.23138979648E-01  0.00000000000E+00 0.  1.
     999901    1    3    3    0    0 -0.56422154713E-01 -0.11713861955E+00  0.35298278452E-01  0.89025326969E+00  0.88000000000E+00 0. -1.
        -11    1    4    4    0    0  0.39462616164E-01  0.56234725731E-01 -0.25245038347E-01  0.73193001952E-01  0.51100000000E-03 0.  1.
         11    1    4    4    0    0  0.15354691461E-01  0.47236320192E-01 -0.28655236667E-01  0.57344748710E-01  0.51100000000E-03 0. -1.
</event>
<event>
 8    1  0.1076043E+005  0.1043930E+01  0.7957747E-01            NaN
         13   -1    0    0    0    0  0.00000000000E+00  0.00000000000E+00  0.74505805969E-08  0.10566000000E+00  0.10566000000E+00 0.  1.
     999900   -1    0    0    0    0 -0.00000000000E+00 -0.00000000000E+00 -0.74505805969E-08  0.93827000000E+00  0.93827000000E+00 0. -1.
     999902    2    1    2    0    0  0.21040887679E-01 -0.10525139387E-01  0.43530516746E-02  0.10200041443E+01  0.10197234957E+01 0.  0.
     999903    2    3    3    0    0 -0.70298354340E-03  0.11910839983E+00 -0.45125433295E-01  0.12886679745E+00  0.19571450079E-01 0.  0.
         14    1    1    2    0    0 -0.21040887679E-01  0.10525139387E-01 -0.43530516746E-02  0.23925855728E-01  0.00000000000E+00 0. -1.
     999901    1    3    3    0    0  0.21743871223E-01 -0.12963353922E+00  0.49478484970E-01  0.89113734682E+00  0.88000000000E+00 0.  1.
        -11    1    4    4    0    0  0.40546193926E-02  0.24197322440E-01 -0.16669663790E-01  0.29666296761E-01  0.51100000000E-03 0.  1.
         11    1    4    4    0    0 -0.47576029359E-02  0.94911077393E-01 -0.28455769506E-01  0.99200500688E-01  0.51100000000E-03 0. -1.
</event>
<event>
 8    1  0.1076043E+005  0.1043930E+01  0.7957747E-01            NaN
         13   -1    0    0    0    0  0.00000000000E+00  0.00000000000E+00  0.74505805969E-08  0.10566000000E+00  0.10566000000E+00 0. -1.
     999900   -1    0    0    0    0 -0.00000000000E+00 -0.00000000000E+00 -0.74505805969E-08  0.93827000000E+00  0.93827000000E+00 0.  1.
     999902    2    1    2    0    0 -0.21152439523E-01 -0.99143058342E-02  0.68207759156E-02  0.10195939744E+01  0.10193035026E+01 0.  0.
     999903    2    3    3    0    0 -0.43888359444E-01 -0.87907156019E-01  0.87837147319E-01  0.13214625246E+00  0.96649581838E-02 0.  0.
         14    1    1    2    0    0  0.21152439523E-01  0.99143058342E-02 -0.68207759156E-02  0.24336025601E-01  0.00000000000E+00 0.  1.
     999901    1    3    3    0    0  0.22735919921E-01  0.77992850185E-01 -0.81016371404E-01  0.88744772194E+00  0.88000000000E+00 0.  1.
        -11    1    4    4    0    0 -0.95107689289E-02 -0.14767427601E-01  0.11685717402E-01  0.21103287795E-01  0.51100000000E-03 0.  1.
         11    1    4    4    0    0 -0.34377590515E-01 -0.73139728419E-01  0.76151429917E-01  0.11104296467E+00  0.51100000000E-03 0. -1.
</event>
<event>
 8    1  0.1076043E+005  0.1043930E+01  0.7957747E-01            NaN
         13   -1    0    0    0    0  0.00000000000E+00  0.00000000000E+00  0.74505805969E-08  0.10566000000E+00  0.10566000000E+00 0. -1.
     999900   -1    0    0    0    0 -0.00000000000E+00 -0.00000000000E+00 -0.74505805969E-08  0.93827000000E+00  0.93827000000E+00 0.  1.
     999902    2    1    2    0    0  0.73706180541E-02 -0.16358556114E-03  0.23162838235E-01  0.10196221855E+01  0.10193323949E+01 0.  0.
     999903    2    3    3    0    0  0.65462548891E-01  0.11071172077E+00 -0.32651036852E-02  0.13037169093E+00  0.21063866430E-01 0.  0.
         14    1    1    2    0    0 -0.73706180541E-02  0.16358556114E-03 -0.23162838235E-01  0.24307814501E-01  0.00000000000E+00 0.  1.
     999901    1    3    3    0    0 -0.58091930837E-01 -0.11087530633E+00  0.26427941920E-01  0.88925049457E+00  0.88000000000E+00 0.  1.
        -11    1    4    4    0    0  0.24062739448E-01  0.57610463439E-01  0.44621558624E-02  0.62595150637E-01  0.51100000000E-03 0.  1.
         11    1    4    4    0    0  0.41399809443E-01  0.53101257335E-01 -0.77272595475E-02  0.67776540289E-01  0.51100000000E-03 0. -1.
</event>
<event>
 8    1  0.1076043E+005  0.1043930E+01  0.7957747E-01            NaN
         13   -1    0    0    0    0  0.00000000000E+00  0.00000000000E+00  0.74505805969E-08  0.10566000000E+00  0.10566000000E+00 0.  1.
     999900   -1    0    0    0    0 -0.00000000000E+00 -0.00000000000E+00 -0.74505805969E-08  0.93827000000E+00  0.93827000000E+00 0.  1.
     999902    2    1    2    0    0  0.17403864888E-01 -0.12316485995E-01  0.10246022119E-01  0.10202747403E+01  0.10200004777E+01 0.  0.
     999903    2    3    3    0    0  0.11636293547E+00  0.40637081797E-01  0.44211182825E-01  0.13249627128E+00  0.20221969403E-01 0.  0.
         14    1    1    2    0    0 -0.17403864888E-01  0.12316485995E-01 -0.10246022119E-01  0.23655259660E-01  0.00000000000E+00 0. -1.
     999901    1    3    3    0    0 -0.98959070584E-01 -0.52953567792E-01 -0.33965160706E-01  0.88777846906E+00  0.88000000000E+00 0. -1.
        -11    1    4    4    0    0  0.80743731627E-01  0.20264298236E-01  0.35724851036E-01  0.90590938193E-01  0.51100000000E-03 0. -1.
         11    1    4    4    0    0  0.35619203845E-01  0.20372783561E-01  0.84863317881E-02  0.41905333083E-01  0.51100000000E-03 0.  1.
</event>
<event>
 8    1  0.1076043E+005  0.1043930E+01  0.7957747E-01            NaN
         13   -1    0    0    0    0  0.00000000000E+00  0.00000000000E+00  0.74505805969E-08  0.10566000000E+00  0.10566000000E+00 0.  1.
     999900   -1    0    0    0    0 -0.00000000000E+00 -0.00000000000E+00 -0.74505805969E-08  0.93827000000E+00  0.93827000000E+00 0. -1.
     999902    2    1    2    0    0  0.17080779915E-01 -0.11104281025E-01  0.97320606105E-02  0.10213518888E+01  0.10211023013E+01 0.  0.
     999903    2    3    3    0    0  0.72183842226E-01 -0.72140969693E-01 -0.82439869625E-01  0.13272514518E+00  0.20119778122E-01 0.  0.
         14    1    1    2    0    0 -0.17080779915E-01  0.11104281025E-01 -0.97320606105E-02  0.22578111155E-01  0.00000000000E+00 0.  1.
     999901    1    3    3    0    0 -0.55103062311E-01  0.61036688668E-01  0.92171930235E-01  0.88862674367E+00  0.88000000000E+00 0.  1.
        -11    1    4    4    0    0  0.22481252735E-01 -0.36439261643E-01 -0.33965516970E-01  0.54654770859E-01  0.51100000000E-03 0. -1.
         11    1    4    4    0    0  0.49702589491E-01 -0.35701708050E-01 -0.48474352655E-01  0.78070374318E-01  0.51100000000E-03 0.  1.
</event>
<event>
 8    1  0.1076043E+005  0.1043930E+01  0.7957747E-01            NaN
         13   -1    0    0    0    0  0.00000000000E+00  0.00000000000E+00  0.74505805969E-08  0.10566000000E+00  0.10566000000E+00 0. -1.
     999900   -1    0    0    0    0 -0.00000000000E+00 -0.00000000000E+00 -0.74505805969E-08  0.93827000000E+00  0.93827000000E+00 0. -1.
     999902    2    1    2    0    0  0.95045337246E-02  0.16660771819E-01 -0.12669517933E-01  0.10209423041E+01  0.10206834740E+01 0.  0.
     999903    2    3    3    0    0 -0.61718914754E-01  0.12371511088E-01  0.11140658277E+00  0.12937847791E+00  0.19107201212E-01 0.  0.
         14    1    1    2    0    0 -0.95045337246E-02 -0.16660771819E-01  0.12669517933E-01  0.22987695917E-01  0.00000000000E+00 0. -1.
     999901    1    3    3    0    0  0.71223448478E-01  0.42892607308E-02 -0.12407610070E+00  0.89156382617E+00  0.88000000000E+00 0. -1.
        -11    1    4    4    0    0 -0.58287308310E-01  0.13272213388E-01  0.92510520019E-01  0.11014544654E+00  0.51100000000E-03 0.  1.
         11    1    4    4    0    0 -0.34316064443E-02 -0.90070229961E-03  0.18896062748E-01  0.19233031373E-01  0.51100000000E-03 0. -1.
</event>
<event>
 8    1  0.1076043E+005  0.1043930E+01  0.7957747E-01            NaN
         13   -1    0    0    0    0  0.00000000000E+00  0.00000000000E+00  0.74505805969E-08  0.10566000000E+00  0.10566000000E+00 0.  1.
     999900   -1    0    0    0    0 -0.00000000000E+00 -0.00000000000E+00 -0.74505805969E-08  0.93827000000E+00  0.93827000000E+00 0.  1.
     999902    2    1    2    0    0 -0.20500866968E-01  0.12120740462E-01 -0.11123856336E-02  0.10200881188E+01  0.10198094601E+01 0.  0.
     999903    2    3    3    0    0 -0.72544798190E-01  0.96894466227E-01  0.50965805587E-01  0.13295380355E+00  0.20686111492E-01 0.  0.
         14    1    1    2    0    0  0.20500866968E-01 -0.12120740462E-01  0.11123856336E-02  0.23841881167E-01  0.00000000000E+00 0. -1.
     999901    1    3    3    0    0  0.52043931221E-01 -0.84773725765E-01 -0.52078191221E-01  0.88713431529E+00  0.88000000000E+00 0. -1.
        -11    1    4    4    0    0 -0.39944853692E-01  0.52652411344E-01  0.38889908155E-01  0.76684769244E-01  0.51100000000E-03 0.  1.
         11    1    4    4    0    0 -0.32599944498E-01  0.44242054883E-01  0.12075897433E-01  0.56269034303E-01  0.51100000000E-03 0. -1.
</event>
<event>
 8    1  0.1076043E+005  0.1043930E+01  0.7957747E-01            NaN
         13   -1    0    0    0    0  0.00000000000E+00  0.00000000000E+00  0.74505805969E-08  0.10566000000E+00  0.10566000000E+00 0.  1.
     999900   -1    0    0    0    0 -0.00000000000E+00 -0.00000000000E+00 -0.74505805969E-08  0.93827000000E+00  0.93827000000E+00 0.  1.
     999902    2    1    2    0    0  0.21963033344E-01  0.95059307747E-02  0.90457786823E-03  0.10199809747E+01  0.10196997758E+01 0.  0.
     999903    2    3    3    0    0 -0.34415234215E-01 -0.12197860163E+00 -0.32005896818E-02  0.12841855749E+00  0.20442468813E-01 0.  0.
         14    1    1    2    0    0 -0.21963033344E-01 -0.95059307747E-02 -0.90457786823E-03  0.23949025339E-01  0.00000000000E+00 0. -1.
     999901    1    3    3    0    0  0.56378267559E-01  0.13148453241E+00  0.41051675501E-02  0.89156241717E+00  0.88000000000E+00 0. -1.
        -11    1    4    4    0    0 -0.98894261635E-02 -0.42442077164E-01 -0.10612703808E-01  0.44855560045E-01  0.51100000000E-03 0. -1.
         11    1    4    4    0    0 -0.24525808051E-01 -0.79536524467E-01  0.74121141266E-02  0.83562997443E-01  0.51100000000E-03 0.  1.
</event>
<event>
 8    1  0.1076043E+005  0.1043930E+01  0.7957747E-01            NaN
         13   -1    0    0    0    0  0.00000000000E+00  0.00000000000E+00  0.74505805969E-08  0.10566000000E+00  0.10566000000E+00 0.  1.
     999900   -1    0    0    0    0 -0.00000000000E+00 -0.00000000000E+00 -0.74505805969E-08  0.93827000000E+00  0.93827000000E+00 0. -1.
     999902    2    1    2    0    0  0.21949336857E-01 -0.27171848818E-03 -0.82518110144E-02  0.10204792089E+01  0.10202097216E+01 0.  0.
     999903    2    3    3    0    0  0.92788854944E-01  0.92381264209E-01 -0.15830787877E-01  0.13275163049E+00  0.15109995879E-01 0.  0.
         14    1    1    2    0    0 -0.21949336857E-01  0.27171848818E-03  0.82518110144E-02  0.23450791126E-01  0.00000000000E+00 0.  1.
     999901    1    3    3    0    0 -0.70839518087E-01 -0.92652982697E-01  0.75789768625E-02  0.88772757838E+00  0.88000000000E+00 0.  1.
        -11    1    4    4    0    0  0.47656983887E-01  0.57938319660E-01 -0.96785582415E-02  0.75643721543E-01  0.51100000000E-03 0. -1.
         11    1    4    4    0    0  0.45131871058E-01  0.34442944549E-01 -0.61522296354E-02  0.57107908952E-01  0.51100000000E-03 0.  1.
</event>
<event>
 8    1  0.1076043E+005  0.1043930E+01  0.7957747E-01            NaN
         13   -1    0    0    0    0  0.00000000000E+00  0.00000000000E+00  0.74505805969E-08  0.10566000000E+00  0.10566000000E+00 0. -1.
     999900   -1    0    0    0    0 -0.00000000000E+00 -0.00000000000E+00 -0.74505805969E-08  0.93827000000E+00  0.93827000000E+00 0. -1.
     999902    2    1    2    0    0  0.15061489208E-01 -0.61435458844E-02  0.17539859633E-01  0.10200084973E+01  0.10197279521E+01 0.  0.
     999903    2    3    3    0    0  0.28205401325E-01  0.81940611786E-01  0.97384981790E-01  0.13191682146E+00  0.20209022264E-01 0.  0.
         14    1    1    2    0    0 -0.15061489208E-01  0.61435458844E-02 -0.17539859633E-01  0.23921502652E-01  0.00000000000E+00 0. -1.
     999901    1    3    3    0    0 -0.13143912117E-01 -0.88084157671E-01 -0.79845122157E-01  0.88809167589E+00  0.88000000000E+00 0. -1.
        -11    1    4    4    0    0  0.17113925375E-01  0.35710698545E-01  0.57715398944E-01  0.69996205816E-01  0.51100000000E-03 0. -1.
         11    1    4    4    0    0  0.11091475950E-01  0.46229913241E-01  0.39669582846E-01  0.61920615639E-01  0.51100000000E-03 0.  1.
</event>
<event>
 8    1  0.1076043E+005  0.1043930E+01  0.7957747E-01            NaN
         13   -1    0    0    0    0  0.00000000000E+00  0.00000000000E+00  0.74505805969E-08  0.10566000000E+00  0.10566000000E+00 0.  1.
     999900   -1    0    0    0    0 -0.00000000000E+00 -0.00000000000E+00 -0.74505805969E-08  0.93827000000E+00  0.93827000000E+00 0. -1.
     999902    2    1    2    0    0 -0.96606032988E-02 -0.72746638950E-02 -0.19943940750E-01  0.10206060046E+01  0.10203394571E+01 0.  0.
     999903    2    3    3    0    0  0.69582361172E-01 -0.32191929618E-01  0.10097521937E+00  0.12846153148E+00  0.20696493062E-01 0.  0.
         14    1    1    2    0    0  0.96606032988E-02  0.72746638950E-02  0.19943940750E-01  0.23323995445E-01  0.00000000000E+00 0.  1.
     999901    1    3    3    0    0 -0.79242964471E-01  0.24917265723E-01 -0.12091916012E+00  0.89214447307E+00  0.88000000000E+00 0. -1.
        -11    1    4    4    0    0  0.60021645561E-01 -0.18976068878E-01  0.83180489080E-01  0.10431655674E+00  0.51100000000E-03 0. -1.
         11    1    4    4    0    0  0.95607156111E-02 -0.13215860740E-01  0.17794730290E-01  0.24144974740E-01  0.51100000000E-03 0.  1.
</event>
<event>
 8    1  0.1076043E+005  0.1043930E+01  0.7957747E-01            NaN
         13   -1    0    0    0    0  0.00000000000E+00  0.00000000000E+00  0.74505805969E-08  0.10566000000E+00  0.10566000000E+00 0.  1.
     999900   -1    0    0    0    0 -0.00000000000E+00 -0.00000000000E+00 -0.74505805969E-08  0.93827000000E+00  0.93827000000E+00 0.  1.
     999902    2    1    2    0    0  0.15977499716E-01  0.14206469347E-01 -0.34869215068E-02  0.10222675235E+01  0.10220379771E+01 0.  0.
     999903    2    3    3    0    0  0.99041061695E-01 -0.35445959639E-01 -0.80125565708E-01  0.13365152044E+00  0.19418410818E-01 0.  0.
         14    1    1    2    0    0 -0.15977499716E-01 -0.14206469347E-01  0.34869215068E-02  0.21662476545E-01  0.00000000000E+00 0.  1.
     999901    1    3    3    0    0 -0.83063561979E-01  0.49652428986E-01  0.76638644202E-01  0.88861600302E+00  0.88000000000E+00 0. -1.
        -11    1    4    4    0    0  0.26956185424E-01 -0.17792368433E-01 -0.18793590187E-01  0.37371974261E-01  0.51100000000E-03 0. -1.
         11    1    4    4    0    0  0.72084876271E-01 -0.17653591206E-01 -0.61331975522E-01  0.96279546176E-01  0.51100000000E-03 0.  1.
</event>
<event>
 8    1  0.1076043E+005  0.1043930E+01  0.7957747E-01            NaN
         13   -1    0    0    0    0  0.00000000000E+00  0.00000000000E+00  0.74505805969E-08  0.10566000000E+00  0.10566000000E+00 0. -1.
     999900   -1    0    0    0    0 -0.00000000000E+00 -0.00000000000E+00 -0.74505805969E-08  0.93827000000E+00  0.93827000000E+00 0.  1.
     999902    2    1    2    0    0  0.60660673069E-02  0.58512279177E-02 -0.21758246300E-01  0.10205964336E+01  0.10203296648E+01 0.  0.
     999903    2    3    3    0    0 -0.95334134847E-01  0.72721526020E-01  0.44674617180E-01  0.12977267820E+00  0.21635826151E-01 0.  0.
         14    1    1    2    0    0 -0.60660673069E-02 -0.58512279177E-02  0.21758246300E-01  0.23333566439E-01  0.00000000000E+00 0. -1.
     999901    1    3    3    0    0  0.10140020215E+00 -0.66870298102E-01 -0.66432863480E-01  0.89082375536E+00  0.88000000000E+00 0. -1.
        -11    1    4    4    0    0 -0.20980381926E-01  0.14989421055E-01  0.19487348692E-01  0.32324557992E-01  0.51100000000E-03 0.  1.
         11    1    4    4    0    0 -0.74353752922E-01  0.57732104965E-01  0.25187268488E-01  0.97448120208E-01  0.51100000000E-03 0. -1.
</event>
<event>
 8    1  0.1076043E+005  0.1043930E+01  0.7957747E-01            NaN
         13   -1    0    0    0    0  0.00000000000E+00  0.00000000000E+00  0.74505805969E-08  0.10566000000E+00  0.10566000000E+00 0.  1.
     999900   -1    0    0    0    0 -0.00000000000E+00 -0.00000000000E+00 -0.74505805969E-08  0.93827000000E+00  0.93827000000E+00 0.  1.
     999902    2    1    2    0    0  0.73299956579E-02 -0.65952096817E-02 -0.22960193433E-01  0.10189420807E+01  0.10186356403E+01 0.  0.
     999903    2    3    3    0    0  0.70799879284E-01 -0.10720262657E+00 -0.14489461492E-01  0.13089814501E+00  0.20478130383E-01 0.  0.
         14    1    1    2    0    0 -0.73299956579E-02  0.65952096817E-02  0.22960193433E-01  0.24987919272E-01  0.00000000000E+00 0.  1.
     999901    1    3    3    0    0 -0.63469883626E-01  0.10060741689E+00 -0.84707319407E-02  0.88804393571E+00  0.88000000000E+00 0. -1.
        -11    1    4    4    0    0  0.49450051065E-01 -0.57723298723E-01 -0.11979065200E-01  0.76948332599E-01  0.51100000000E-03 0. -1.
         11    1    4    4    0    0  0.21349828219E-01 -0.49479327845E-01 -0.25103962923E-02  0.53949812414E-01  0.51100000000E-03 0.  1.
</event>
<event>
 8    1  0.1076043E+005  0.1043930E+01  0.7957747E-01            NaN
         13   -1    0    0    0    0  0.00000000000E+00  0.00000000000E+00  0.74505805969E-08  0.10566000000E+00  0.10566000000E+00 0.  1.
     999900   -1    0    0    0    0 -0.00000000000E+00 -0.00000000000E+00 -0.74505805969E-08  0.93827000000E+00  0.93827000000E+00 0.  1.
     999902    2    1    2    0    0 -0.12592223575E-01  0.25282877066E-01  0.13038172218E-01  0.10128208068E+01  0.10123429284E+01 0.  0.
     999903    2    3    3    0    0 -0.30382850134E-01  0.61079310492E-01  0.10535902623E+00  0.12708888848E+00  0.19931417755E-01 0.  0.
         14    1    1    2    0    0  0.12592223575E-01 -0.25282877066E-01 -0.13038172218E-01  0.31109193208E-01  0.00000000000E+00 0. -1.
     999901    1    3    3    0    0  0.17790626560E-01 -0.35796433426E-01 -0.92320854011E-01  0.88573191832E+00  0.88000000000E+00 0.  1.
        -11    1    4    4    0    0 -0.19362983176E-01  0.37276059413E-01  0.81207779149E-01  0.91429722947E-01  0.51100000000E-03 0. -1.
         11    1    4    4    0    0 -0.11019866958E-01  0.23803251079E-01  0.24151247079E-01  0.35659165528E-01  0.51100000000E-03 0.  1.
</event>
<event>
 8    1  0.1076043E+005  0.1043930E+01  0.7957747E-01            NaN
         13   -1    0    0    0    0  0.00000000000E+00  0.00000000000E+00  0.74505805969E-08  0.10566000000E+00  0.10566000000E+00 0.  1.
     999900   -1    0    0    0    0 -0.00000000000E+00 -0.00000000000E+00 -0.74505805969E-08  0.93827000000E+00  0.93827000000E+00 0.  1.
     999902    2    1    2    0    0  0.14273719286E-01  0.33128432060E-02  0.17443439074E-01  0.10211487015E+01  0.10208945504E+01 0.  0.
     999903    2    3    3    0    0 -0.61961062865E-01  0.24542766078E-01 -0.10826540239E+00  0.12869973132E+00  0.20017562526E-01 0.  0.
         14    1    1    2    0    0 -0.14273719286E-01 -0.33128432060E-02 -0.17443439074E-01  0.22781298450E-01  0.00000000000E+00 0. -1.
     999901    1    3    3    0    0  0.76234782150E-01 -0.21229922872E-01  0.12570884147E+00  0.89244897023E+00  0.88000000000E+00 0. -1.
        -11    1    4    4    0    0 -0.44726817248E-01  0.79565466756E-02 -0.75776771132E-01  0.88352560689E-01  0.51100000000E-03 0.  1.
         11    1    4    4    0    0 -0.17234245617E-01  0.16586219402E-01 -0.32488631260E-01  0.40347170635E-01  0.51100000000E-03 0. -1.
</event>
<event>
 8    1  0.1076043E+005  0.1043930E+01  0.7957747E-01            NaN
         13   -1    0    0    0    0  0.00000000000E+00  0.00000000000E+00  0.74505805969E-08  0.10566000000E+00  0.10566000000E+00 0. -1.
     999900   -1    0    0    0    0 -0.00000000000E+00 -0.00000000000E+00 -0.74505805969E-08  0.93827000000E+00  0.93827000000E+00 0.  1.
     999902    2    1    2    0    0 -0.16588643612E-01  0.16868780796E-01 -0.10574717234E-02  0.10202475781E+01  0.10199726778E+01 0.  0.
     999903    2    3    3    0    0 -0.65525487951E-02  0.84332147423E-01  0.99424150527E-01  0.13190722355E+00  0.18960668055E-01 0.  0.
         14    1    1    2    0    0  0.16588643612E-01 -0.16868780796E-01  0.10574717234E-02  0.23682421939E-01  0.00000000000E+00 0. -1.
     999901    1    3    3    0    0 -0.10036094817E-01 -0.67463366627E-01 -0.10048162225E+00  0.88834035451E+00  0.88000000000E+00 0.  1.
        -11    1    4    4    0    0 -0.77506558292E-02  0.30930938717E-01  0.48905594335E-01  0.58385048719E-01  0.51100000000E-03 0. -1.
         11    1    4    4    0    0  0.11981070341E-02  0.53401208706E-01  0.50518556192E-01  0.73522174835E-01  0.51100000000E-03 0.  1.
</event>
<event>
 8    1  0.1076043E+005  0.1043930E+01  0.7957747E-01            NaN
         13   -1    0    0    0    0  0.00000000000E+00  0.00000000000E+00  0.74505805969E-08  0.10566000000E+00  0.10566000000E+00 0. -1.
     999900   -1    0    0    0    0 -0.00000000000E+00 -0.00000000000E+00 -0.74505805969E-08  0.93827000000E+00  0.93827000000E+00 0. -1.
     999902    2    1    2    0    0  0.17230043409E-01 -0.98325286914E-03 -0.18659374840E-01  0.10185132053E+01  0.10181960204E+01 0.  0.
     999903    2    3    3    0    0 -0.41339376100E-01 -0.54405872238E-01 -0.10946526396E+00  0.13029585430E+00  0.18039475725E-01 0.  0.
         14    1    1    2    0    0 -0.17230043409E-01  0.98325286914E-03  0.18659374840E-01  0.25416794674E-01  0.00000000000E+00 0. -1.
     999901    1    3    3    0    0  0.58569419509E-01  0.53422619369E-01  0.90805889119E-01  0.88821735102E+00  0.88000000000E+00 0.  1.
        -11    1    4    4    0    0 -0.38010538978E-01 -0.37568671352E-01 -0.84994112636E-01  0.10040152611E+00  0.51100000000E-03 0.  1.
         11    1    4    4    0    0 -0.33288371215E-02 -0.16837200885E-01 -0.24471151323E-01  0.29894328197E-01  0.51100000000E-03 0. -1.
</event>
<event>
 8    1  0.1076043E+005  0.1043930E+01  0.7957747E-01            NaN
         13   -1    0    0    0    0  0.00000000000E+00  0.00000000000E+00  0.74505805969E-08  0.10566000000E+00  0.10566000000E+00 0. -1.
     999900   -1    0    0    0    0 -0.00000000000E+00 -0.00000000000E+00 -0.74505805969E-08  0.93827000000E+00  0.93827000000E+00 0.  1.
     999902    2    1    2    0    0 -0.93035300097E-02  0.17683180218E-01 -0.20307947727E-01  0.10154402953E+01  0.10150405559E+01 0.  0.
     999903    2    3    3    0    0  0.11906909185E+00 -0.30079105239E-01  0.12933923049E-01  0.12422439108E+00  0.13498583911E-01 0.  0.
         14    1    1    2    0    0  0.93035300097E-02 -0.17683180218E-01  0.20307947727E-01  0.28489704705E-01  0.00000000000E+00 0. -1.
     999901    1    3    3    0    0 -0.12837262186E+00  0.47762285457E-01 -0.33241870776E-01  0.89121590422E+00  0.88000000000E+00 0. -1.
        -11    1    4    4    0    0  0.11085993803E+00 -0.26604015441E-01  0.86933712696E-02  0.11433956149E+00  0.51100000000E-03 0. -1.
         11    1    4    4    0    0  0.82091538226E-02 -0.34750897981E-02  0.42405517792E-02  0.98848295878E-02  0.51100000000E-03 0.  1.
</event>
<event>
 8    1  0.1076043E+005  0.1043930E+01  0.7957747E-01            NaN
         13   -1    0    0    0    0  0.00000000000E+00  0.00000000000E+00  0.74505805969E-08  0.10566000000E+00  0.10566000000E+00 0.  1.
     999900   -1    0    0    0    0 -0.00000000000E+00 -0.00000000000E+00 -0.74505805969E-08  0.93827000000E+00  0.93827000000E+00 0. -1.
     999902    2    1    2    0    0  0.66569101796E-02 -0.54524893280E-02  0.21428387233E-01  0.10208384459E+01  0.10205772448E+01 0.  0.
     999903    2    3    3    0    0  0.42632435848E-01  0.10656362663E+00  0.62276044492E-01  0.13206942087E+00  0.19766008819E-01 0.  0.
         14    1    1    2    0    0 -0.66569101796E-02  0.54524893280E-02 -0.21428387233E-01  0.23091554136E-01  0.00000000000E+00 0. -1.
     999901    1    3    3    0    0 -0.35975525669E-01 -0.11201611596E+00 -0.40847657259E-01  0.88876902499E+00  0.88000000000E+00 0. -1.
        -11    1    4    4    0    0  0.22244989519E-01  0.76996184854E-01  0.47976649885E-01  0.93409164946E-01  0.51100000000E-03 0.  1.
         11    1    4    4    0    0  0.20387446329E-01  0.29567441777E-01  0.14299394607E-01  0.38660255926E-01  0.51100000000E-03 0. -1.
</event>
<event>
 8    1  0.1076043E+005  0.1043930E+01  0.7957747E-01            NaN
         13   -1    0    0    0    0  0.00000000000E+00  0.00000000000E+00  0.74505805969E-08  0.10566000000E+00  0.10566000000E+00 0.  1.
     999900   -1    0    0    0    0 -0.00000000000E+00 -0.00000000000E+00 -0.74505805969E-08  0.93827000000E+00  0.93827000000E+00 0. -1.
     999902    2    1    2    0    0  0.83238070946E-02  0.15722647423E-01 -0.15004249652E-01  0.10206573784E+01  0.10203920174E+01 0.  0.
     999903    2    3    3    0    0 -0.80728917438E-01 -0.38772092550E-01  0.89661271837E-01  0.12832619787E+00  0.20199903988E-01 0.  0.
         14    1    1    2    0    0 -0.83238070946E-02 -0.15722647423E-01  0.15004249652E-01  0.23272621558E-01  0.00000000000E+00 0.  1.
     999901    1    3    3    0    0  0.89052724532E-01  0.54494739973E-01 -0.10466552149E+00  0.89233118057E+00  0.88000000000E+00 0. -1.
        -11    1    4    4    0    0 -0.26247534553E-01 -0.54990020291E-02  0.17738392633E-01  0.32157173191E-01  0.51100000000E-03 0. -1.
         11    1    4    4    0    0 -0.54481382884E-01 -0.33273090521E-01  0.71922879204E-01  0.96169024679E-01  0.51100000000E-03 0.  1.
</event>
<event>
 8    1  0.1076043E+005  0.1043930E+01  0.7957747E-01            NaN
         13   -1    0    0    0    0  0.00000000000E+00  0.00000000000E+00  0.74505805969E-08  0.10566000000E+00  0.10566000000E+00 0. -1.
     999900   -1    0    0    0    0 -0.00000000000E+00 -0.00000000000E+00 -0.74505805969E-08  0.93827000000E+00  0.93827000000E+00 0.  1.
     999902    2    1    2    0    0 -0.13938813111E-01  0.15105971283E-01  0.89280094106E-02  0.10215203987E+01  0.10212745638E+01 0.  0.
     999903    2    3    3    0    0 -0.39565218945E-02  0.10395260271E+00  0.81952991396E-01  0.13398109361E+00  0.20318537558E-01 0.  0.
         14    1    1    2    0    0  0.13938813111E-01 -0.15105971283E-01 -0.89280094106E-02  0.22409601322E-01  0.00000000000E+00 0.  1.
     999901    1    3    3    0    0 -0.99822912169E-02 -0.88846631431E-01 -0.73024981985E-01  0.88753930507E+00  0.88000000000E+00 0.  1.
        -11    1    4    4    0    0  0.79560783538E-02  0.52113211813E-01  0.38173706431E-01  0.65089008380E-01  0.51100000000E-03 0. -1.
         11    1    4    4    0    0 -0.11912600248E-01  0.51839390901E-01  0.43779284965E-01  0.68892085225E-01  0.51100000000E-03 0.  1.
</event>
<event>
 8    1  0.1076043E+005  0.1043930E+01  0.7957747E-01            NaN
         13   -1    0    0    0    0  0.00000000000E+00  0.00000000000E+00  0.74505805969E-08  0.10566000000E+00  0.10566000000E+00 0.  1.
     999900   -1    0    0    0    0 -0.00000000000E+00 -0.00000000000E+00 -0.74505805969E-08  0.93827000000E+00  0.93827000000E+00 0. -1.
     999902    2    1    2    0    0 -0.15584452350E-01 -0.50239389427E-02  0.15551357205E-01  0.10213477098E+01  0.10210980289E+01 0.  0.
     999903    2    3    3    0    0 -0.54535994563E-01 -0.11850454484E+00  0.16316196337E-01  0.13320602322E+00  0.21450512981E-01 0.  0.
         14    1    1    2    0    0  0.15584452350E-01  0.50239389427E-02 -0.15551357205E-01  0.22582290151E-01  0.00000000000E+00 0. -1.
     999901    1    3    3    0    0  0.38951542213E-01  0.11348060590E+00 -0.76483913198E-03  0.88814168663E+00  0.88000000000E+00 0. -1.
        -11    1    4    4    0    0 -0.19405278529E-01 -0.24841283449E-01 -0.16489114120E-02  0.31569514219E-01  0.51100000000E-03 0. -1.
         11    1    4    4    0    0 -0.35130716034E-01 -0.93663261392E-01  0.17965107749E-01  0.10163650900E+00  0.51100000000E-03 0.  1.
</event>
<event>
 8    1  0.1076043E+005  0.1043930E+01  0.7957747E-01            NaN
         13   -1    0    0    0    0  0.00000000000E+00  0.00000000000E+00  0.74505805969E-08  0.10566000000E+00  0.10566000000E+00 0.  1.
     999900   -1    0    0    0    0 -0.00000000000E+00 -0.00000000000E+00 -0.74505805969E-08  0.93827000000E+00  0.93827000000E+00 0.  1.
     999902    2    1    2    0    0 -0.16350296042E-01 -0.11740717280E-01 -0.13309274402E-01  0.10197988291E+01  0.10195132851E+01 0.  0.
     999903    2    3    3    0    0 -0.50044642442E-01 -0.36112740367E-01 -0.11599697305E+00  0.13285234373E+00  0.19643096122E-01 0.  0.
         14    1    1    2    0    0  0.16350296042E-01  0.11740717280E-01  0.13309274402E-01  0.24131170880E-01  0.00000000000E+00 0. -1.
     999901    1    3    3    0    0  0.33694346400E-01  0.24372023086E-01  0.10268769865E+00  0.88694648539E+00  0.88000000000E+00 0. -1.
        -11    1    4    4    0    0 -0.12506837205E-02 -0.86780102231E-02 -0.16078118765E-01  0.18320455650E-01  0.51100000000E-03 0. -1.
         11    1    4    4    0    0 -0.48793958721E-01 -0.27434730144E-01 -0.99918854282E-01  0.11453188808E+00  0.51100000000E-03 0.  1.
</event>
<event>
 8    1  0.1076043E+005  0.1043930E+01  0.7957747E-01            NaN
         13   -1    0    0    0    0  0.00000000000E+00  0.00000000000E+00  0.74505805969E-08  0.10566000000E+00  0.10566000000E+00 0. -1.
     999900   -1    0    0    0    0 -0.00000000000E+00 -0.00000000000E+00 -0.74505805969E-08  0.93827000000E+00  0.93827000000E+00 0. -1.
     999902    2    1    2    0    0 -0.23780221777E-01  0.63593221495E-03  0.34652739008E-02  0.10198902105E+01  0.10196068507E+01 0.  0.
     999903    2    3    3    0    0  0.11737981580E+00  0.24509127944E-01 -0.37246273635E-01  0.12739174224E+00  0.21509360361E-01 0.  0.
         14    1    1    2    0    0  0.23780221777E-01 -0.63593221495E-03 -0.34652739008E-02  0.24039789532E-01  0.00000000000E+00 0.  1.
     999901    1    3    3    0    0 -0.14116003757E+00 -0.23873195729E-01  0.40711547536E-01  0.89249846823E+00  0.88000000000E+00 0.  1.
        -11    1    4    4    0    0  0.49684852770E-01  0.18692356403E-01 -0.91709134563E-02  0.53873514433E-01  0.51100000000E-03 0.  1.
         11    1    4    4    0    0  0.67694963025E-01  0.58167715407E-02 -0.28075360179E-01  0.73518227810E-01  0.51100000000E-03 0. -1.
</event>
<event>
 8    1  0.1076043E+005  0.1043930E+01  0.7957747E-01            NaN
         13   -1    0    0    0    0  0.00000000000E+00  0.00000000000E+00  0.74505805969E-08  0.10566000000E+00  0.10566000000E+00 0. -1.
     999900   -1    0    0    0    0 -0.00000000000E+00 -0.00000000000E+00 -0.74505805969E-08  0.93827000000E+00  0.93827000000E+00 0.  1.
     999902    2    1    2    0    0  0.59727561016E-02 -0.96741738741E-02 -0.20648917797E-01  0.10203579559E+01  0.10200856420E+01 0.  0.
     999903    2    3    3    0    0  0.10556368598E+00  0.28922195606E-01 -0.71681889837E-01  0.13243205965E+00  0.20488335600E-01 0.  0.
         14    1    1    2    0    0 -0.59727561016E-02  0.96741738741E-02  0.20648917797E-01  0.23572044073E-01  0.00000000000E+00 0. -1.
     999901    1    3    3    0    0 -0.99590929876E-01 -0.38596369480E-01  0.51032972040E-01  0.88792589628E+00  0.88000000000E+00 0. -1.
        -11    1    4    4    0    0  0.54310359229E-01  0.17185267232E-01 -0.49096660015E-01  0.75204332821E-01  0.51100000000E-03 0. -1.
         11    1    4    4    0    0  0.51253326749E-01  0.11736928374E-01 -0.22585229822E-01  0.57227726825E-01  0.51100000000E-03 0.  1.
</event>
<event>
 8    1  0.1076043E+005  0.1043930E+01  0.7957747E-01            NaN
         13   -1    0    0    0    0  0.00000000000E+00  0.00000000000E+00  0.74505805969E-08  0.10566000000E+00  0.10566000000E+00 0. -1.
     999900   -1    0    0    0    0 -0.00000000000E+00 -0.00000000000E+00 -0.74505805969E-08  0.93827000000E+00  0.93827000000E+00 0. -1.
     999902    2    1    2    0    0 -0.22267377641E-01  0.92223244285E-02 -0.79004628752E-02  0.10185665482E+01  0.10182507100E+01 0.  0.
     999903    2    3    3    0    0  0.18021168452E-01 -0.90639527759E-01 -0.87001774442E-01  0.12848083659E+00  0.19943172044E-01 0.  0.
         14    1    1    2    0    0  0.22267377641E-01 -0.92223244285E-02  0.79004628752E-02  0.25363451825E-01  0.00000000000E+00 0. -1.
     999901    1    3    3    0    0 -0.40288546092E-01  0.99861852187E-01  0.79101311566E-01  0.89008571158E+00  0.88000000000E+00 0.  1.
        -11    1    4    4    0    0  0.14664480182E-01 -0.84547988438E-01 -0.72302305813E-01  0.11221093474E+00  0.51100000000E-03 0.  1.
         11    1    4    4    0    0  0.33566882696E-02 -0.60915393215E-02 -0.14699468629E-01  0.16269901857E-01  0.51100000000E-03 0. -1.
</event>
<event>
 8    1  0.1076043E+005  0.1043930E+01  0.7957747E-01            NaN
         13   -1    0    0    0    0  0.00000000000E+00  0.00000000000E+00  0.74505805969E-08  0.10566000000E+00  0.10566000000E+00 0.  1.
     999900   -1    0    0    0    0 -0.00000000000E+00 -0.00000000000E+00 -0.74505805969E-08  0.93827000000E+00  0.93827000000E+00 0.  1.
     999902    2    1    2    0    0  0.19265880078E-01  0.52085349330E-02  0.13240758405E-01  0.10199796210E+01  0.10196983900E+01 0.  0.
     999903    2    3    3    0    0  0.88371973732E-01  0.73388070491E-01 -0.60838099204E-01  0.13154741852E+00  0.20199860718E-01 0.  0.
         14    1    1    2    0    0 -0.19265880078E-01 -0.52085349330E-02 -0.13240758405E-01  0.23950379005E-01  0.00000000000E+00 0. -1.
     999901    1    3    3    0    0 -0.69106093654E-01 -0.68179535558E-01  0.74078857609E-01  0.88843220247E+00  0.88000000000E+00 0. -1.
        -11    1    4    4    0    0  0.43115492187E-01  0.48808944012E-01 -0.34514664212E-01  0.73707407014E-01  0.51100000000E-03 0. -1.
         11    1    4    4    0    0  0.45256481545E-01  0.24579126480E-01 -0.26323434992E-01  0.57840011507E-01  0.51100000000E-03 0.  1.
</event>
<event>
 8    1  0.1076043E+005  0.1043930E+01  0.7957747E-01            NaN
         13   -1    0    0    0    0  0.00000000000E+00  0.00000000000E+00  0.74505805969E-08  0.10566000000E+00  0.10566000000E+00 0.  1.
     999900   -1    0    0    0    0 -0.00000000000E+00 -0.00000000000E+00 -0.74505805969E-08  0.93827000000E+00  0.93827000000E+00 0. -1.
     999902    2    1    2    0    0 -0.97866159585E-02  0.68781539948E-03 -0.22347645456E-01  0.10195236853E+01  0.10192315128E+01 0.  0.
     999903    2    3    3    0    0 -0.88561494156E-01 -0.91601537703E-01  0.18298112321E-01  0.13026844419E+00  0.20026649279E-01 0.  0.
         14    1    1    2    0    0  0.97866159585E-02 -0.68781539948E-03  0.22347645456E-01  0.24406314744E-01  0.00000000000E+00 0.  1.
     999901    1    3    3    0    0  0.78774878198E-01  0.92289353103E-01 -0.40645757777E-01  0.88925524106E+00  0.88000000000E+00 0.  1.
        -11    1    4    4    0    0 -0.74006157084E-01 -0.73601902253E-01  0.22402851127E-01  0.10675345503E+00  0.51100000000E-03 0.  1.
         11    1    4    4    0    0 -0.14555337072E-01 -0.17999635450E-01 -0.41047388056E-02  0.23514989162E-01  0.51100000000E-03 0. -1.
</event>
<event>
 8    1  0.1076043E+005  0.1043930E+01  0.7957747E-01            NaN
         13   -1    0    0    0    0  0.00000000000E+00  0.00000000000E+00  0.74505805969E-08  0.10566000000E+00  0.10566000000E+00 0. -1.
     999900   -1    0    0    0    0 -0.00000000000E+00 -0.00000000000E+00 -0.74505805969E-08  0.93827000000E+00  0.93827000000E+00 0. -1.
     999902    2    1    2    0    0  0.21284559137E-01  0.93918338513E-02  0.84631960695E-03  0.10206500675E+01  0.10203845378E+01 0.  0.
     999903    2    3    3    0    0  0.74835257605E-01  0.10337956845E+00 -0.32907324397E-01  0.13338422230E+00  0.20513600519E-01 0.  0.
         14    1    1    2    0    0 -0.21284559137E-01 -0.93918338513E-02 -0.84631960695E-03  0.23279932509E-01  0.00000000000E+00 0. -1.
     999901    1    3    3    0    0 -0.53550698468E-01 -0.93987734596E-01  0.33753644004E-01  0.88726584519E+00  0.88000000000E+00 0. -1.
        -11    1    4    4    0    0  0.46950225642E-01  0.62274855685E-01 -0.98198070352E-02  0.78607703627E-01  0.51100000000E-03 0.  1.
         11    1    4    4    0    0  0.27885031963E-01  0.41104712763E-01 -0.23087517361E-01  0.54776518672E-01  0.51100000000E-03 0. -1.
</event>
<event>
 8    1  0.1076043E+005  0.1043930E+01  0.7957747E-01            NaN
         13   -1    0    0    0    0  0.00000000000E+00  0.00000000000E+00  0.74505805969E-08  0.10566000000E+00  0.10566000000E+00 0. -1.
     999900   -1    0    0    0    0 -0.00000000000E+00 -0.00000000000E+00 -0.74505805969E-08  0.93827000000E+00  0.93827000000E+00 0.  1.
     999902    2    1    2    0    0  0.15953522048E-01  0.11540551208E-01  0.14123426699E-01  0.10196984014E+01  0.10194104470E+01 0.  0.
     999903    2    3    3    0    0 -0.64729443630E-01  0.30687978810E-01 -0.10407134126E+00  0.12793253074E+00  0.20105607048E-01 0.  0.
         14    1    1    2    0    0 -0.15953522048E-01 -0.11540551208E-01 -0.14123426699E-01  0.24231598578E-01  0.00000000000E+00 0.  1.
     999901    1    3    3    0    0  0.80682965678E-01 -0.19147427602E-01  0.11819476796E+00  0.89176587068E+00  0.88000000000E+00 0.  1.
        -11    1    4    4    0    0 -0.24860636480E-01  0.16952280013E-01 -0.28812832880E-01  0.41663791275E-01  0.51100000000E-03 0.  1.
         11    1    4    4    0    0 -0.39868807150E-01  0.13735698798E-01 -0.75258508379E-01  0.86268739468E-01  0.51100000000E-03 0. -1.
</event>
<event>
 8    1  0.1076043E+005  0.1043930E+01  0.7957747E-01            NaN
         13   -1    0    0    0    0  0.00000000000E+00  0.00000000000E+00  0.74505805969E-08  0.10566000000E+00  0.10566000000E+00 0. -1.
     999900   -1    0    0    0    0 -0.00000000000E+00 -0.00000000000E+00 -0.74505805969E-08  0.93827000000E+00  0.93827000000E+00 0. -1.
     999902    2    1    2    0    0  0.46230324900E-03  0.19318890287E-01 -0.12588713369E-01  0.10208668486E+01  0.10206062971E+01 0.  0.
     999903    2    3    3    0    0  0.90767721055E-01  0.34736926505E-02  0.90915019640E-01  0.13006992368E+00  0.20044912679E-01 0.  0.
         14    1    1    2    0    0 -0.46230324900E-03 -0.19318890287E-01  0.12588713369E-01  0.23063151357E-01  0.00000000000E+00 0. -1.
     999901    1    3    3    0    0 -0.90305417806E-01  0.15845197637E-01 -0.10350373301E+00  0.89079692496E+00  0.88000000000E+00 0. -1.
        -11    1    4    4    0    0  0.63466787196E-01  0.28926274633E-02  0.75617454009E-01  0.98765686564E-01  0.51100000000E-03 0. -1.
         11    1    4    4    0    0  0.27300933859E-01  0.58106518716E-03  0.15297565632E-01  0.31304237118E-01  0.51100000000E-03 0.  1.
</event>
<event>
 8    1  0.1076043E+005  0.1043930E+01  0.7957747E-01            NaN
         13   -1    0    0    0    0  0.00000000000E+00  0.00000000000E+00  0.74505805969E-08  0.10566000000E+00  0.10566000000E+00 0.  1.
     999900   -1    0    0    0    0 -0.00000000000E+00 -0.00000000000E+00 -0.74505805969E-08  0.93827000000E+00  0.93827000000E+00 0.  1.
     999902    2    1    2    0    0  0.16837091340E-01  0.17563690135E-01 -0.22207719321E-02  0.10194984081E+01  0.10192056227E+01 0.  0.
     999903    2    3    3    0    0  0.92272143437E-01 -0.75602188020E-01  0.47900232749E-01  0.12995782831E+00  0.19098836463E-01 0.  0.
         14    1    1    2    0    0 -0.16837091340E-01 -0.17563690135E-01  0.22207719321E-02  0.24431591924E-01  0.00000000000E+00 0.  1.
     999901    1    3    3    0    0 -0.75435052097E-01  0.93165878155E-01 -0.50121004682E-01  0.88954057976E+00  0.88000000000E+00 0. -1.
        -11    1    4    4    0    0  0.33725543826E-01 -0.17180043788E-01  0.11239121837E-01  0.39486012607E-01  0.51100000000E-03 0. -1.
         11    1    4    4    0    0  0.58546599611E-01 -0.58422144231E-01  0.36661110912E-01  0.90471815704E-01  0.51100000000E-03 0.  1.
</event>
<event>
 8    1  0.1076043E+005  0.1043930E+01  0.7957747E-01            NaN
         13   -1    0    0    0    0  0.00000000000E+00  0.00000000000E+00  0.74505805969E-08  0.10566000000E+00  0.10566000000E+00 0. -1.
     999900   -1    0    0    0    0 -0.00000000000E+00 -0.00000000000E+00 -0.74505805969E-08  0.93827000000E+00  0.93827000000E+00 0. -1.
     999902    2    1    2    0    0 -0.37313837050E-02  0.37046083473E-02 -0.25621446726E-01  0.10177745822E+01  0.10174384474E+01 0.  0.
     999903    2    3    3    0    0 -0.12077997166E+00 -0.28480719481E-01  0.23927481650E-01  0.12806037890E+00  0.20687757940E-01 0.  0.
         14    1    1    2    0    0  0.37313837050E-02 -0.37046083473E-02  0.25621446726E-01  0.26155417788E-01  0.00000000000E+00 0. -1.
     999901    1    3    3    0    0  0.11704858796E+00  0.32185327828E-01 -0.49548928375E-01  0.88971420331E+00  0.88000000000E+00 0. -1.
        -11    1    4    4    0    0 -0.11500782665E+00 -0.27001857976E-01  0.17749888510E-01  0.11946221239E+00  0.51100000000E-03 0.  1.
         11    1    4    4    0    0 -0.57721450145E-02 -0.14788615044E-02  0.61775931397E-02  0.85981665149E-02  0.51100000000E-03 0. -1.
</event>
<event>
 8    1  0.1076043E+005  0.1043930E+01  0.7957747E-01            NaN
         13   -1    0    0    0    0  0.00000000000E+00  0.00000000000E+00  0.74505805969E-08  0.10566000000E+00  0.10566000000E+00 0.  1.
     999900   -1    0    0    0    0 -0.00000000000E+00 -0.00000000000E+00 -0.74505805969E-08  0.93827000000E+00  0.93827000000E+00 0.  1.
     999902    2    1    2    0    0 -0.22962566253E-01 -0.20582059433E-02 -0.67263539206E-02  0.10199141823E+01  0.10196313941E+01 0.  0.
     999903    2    3    3    0    0  0.25137628083E-01  0.82772478540E-01 -0.95075575786E-01  0.13013024299E+00  0.20281308653E-01 0.  0.
         14    1    1    2    0    0  0.22962566253E-01  0.20582059433E-02  0.67263539206E-02  0.24015817656E-01  0.00000000000E+00 0. -1.
     999901    1    3    3    0    0 -0.48100194335E-01 -0.84830684484E-01  0.88349221866E-01  0.88978393935E+00  0.88000000000E+00 0. -1.
        -11    1    4    4    0    0  0.21892157711E-01  0.54230854883E-01 -0.74874633170E-01  0.95009073271E-01  0.51100000000E-03 0. -1.
         11    1    4    4    0    0  0.32454703718E-02  0.28541623658E-01 -0.20200942617E-01  0.35121169721E-01  0.51100000000E-03 0.  1.
</event>
<event>
 8    1  0.1076043E+005  0.1043930E+01  0.7957747E-01            NaN
         13   -1    0    0    0    0  0.00000000000E+00  0.00000000000E+00  0.74505805969E-08  0.10566000000E+00  0.10566000000E+00 0. -1.
     999900   -1    0    0    0    0 -0.00000000000E+00 -0.00000000000E+00 -0.74505805969E-08  0.93827000000E+00  0.93827000000E+00 0. -1.
     999902    2    1    2    0    0 -0.13271851025E-01 -0.70307295310E-02  0.18610191924E-01  0.10200153093E+01  0.10197349258E+01 0.  0.
     999903    2    3    3    0    0  0.60504122093E-01 -0.82480239285E-01  0.80179110828E-01  0.13157495987E+00  0.20482714410E-01 0.  0.
         14    1    1    2    0    0  0.13271851025E-01  0.70307295310E-02 -0.18610191924E-01  0.23914690690E-01  0.00000000000E+00 0.  1.
     999901    1    3    3    0    0 -0.73775973119E-01  0.75449509754E-01 -0.61568918904E-01  0.88844034944E+00  0.88000000000E+00 0. -1.
        -11    1    4    4    0    0  0.35743322470E-01 -0.47645556128E-01  0.33723763746E-01  0.68448794600E-01  0.51100000000E-03 0.  1.
         11    1    4    4    0    0  0.24760799623E-01 -0.34834683157E-01  0.46455347081E-01  0.63126165273E-01  0.51100000000E-03 0. -1.
</event>
<event>
 8    1  0.1076043E+005  0.1043930E+01  0.7957747E-01            NaN
         13   -1    0    0    0    0  0.00000000000E+00  0.00000000000E+00  0.74505805969E-08  0.10566000000E+00  0.10566000000E+00 0. -1.
     999900   -1    0    0    0    0 -0.00000000000E+00 -0.00000000000E+00 -0.74505805969E-08  0.93827000000E+00  0.93827000000E+00 0.  1.
     999902    2    1    2    0    0  0.22501038234E-01 -0.66146844884E-02  0.34525699663E-02  0.10202240722E+01  0.10199486196E+01 0.  0.
     999903    2    3    3    0    0 -0.10184903337E+00  0.98657008238E-02 -0.74219963164E-01  0.12794184904E+00  0.19747307446E-01 0.  0.
         14    1    1    2    0    0 -0.22501038234E-01  0.66146844884E-02 -0.34525699663E-02  0.23705927779E-01  0.00000000000E+00 0. -1.
     999901    1    3    3    0    0  0.12435007161E+00 -0.16480385312E-01  0.77672533131E-01  0.89228222318E+00  0.88000000000E+00 0. -1.
        -11    1    4    4    0    0 -0.73319008004E-01  0.13725397070E-01 -0.46074256348E-01  0.87676460229E-01  0.51100000000E-03 0.  1.
         11    1    4    4    0    0 -0.28530025368E-01 -0.38596962458E-02 -0.28145706817E-01  0.40265388807E-01  0.51100000000E-03 0. -1.
</event>
<event>
 8    1  0.1076043E+005  0.1043930E+01  0.7957747E-01            NaN
         13   -1    0    0    0    0  0.00000000000E+00  0.00000000000E+00  0.74505805969E-08  0.10566000000E+00  0.10566000000E+00 0. -1.
     999900   -1    0    0    0    0 -0.00000000000E+00 -0.00000000000E+00 -0.74505805969E-08  0.93827000000E+00  0.93827000000E+00 0.  1.
     999902    2    1    2    0    0  0.19621821373E-02  0.97256183933E-03 -0.24573780038E-01  0.10192588286E+01  0.10189602018E+01 0.  0.
     999903    2    3    3    0    0 -0.53661377135E-01  0.11272453257E+00 -0.31844652078E-01  0.13041950174E+00  0.20218826091E-01 0.  0.
         14    1    1    2    0    0 -0.19621821373E-02 -0.97256183933E-03  0.24573780038E-01  0.24671171448E-01  0.00000000000E+00 0. -1.
     999901    1    3    3    0    0  0.55623559272E-01 -0.11175197073E+00  0.72708720399E-02  0.88883932681E+00  0.88000000000E+00 0. -1.
        -11    1    4    4    0    0 -0.52799294232E-01  0.94807155100E-01 -0.27816207113E-01  0.11202751728E+00  0.51100000000E-03 0.  1.
         11    1    4    4    0    0 -0.86208290265E-03  0.17917377471E-01 -0.40284449645E-02  0.18391984455E-01  0.51100000000E-03 0. -1.
</event>
<event>
 8    1  0.1076043E+005  0.1043930E+01  0.7957747E-01            NaN
         13   -1    0    0    0    0  0.00000000000E+00  0.00000000000E+00  0.74505805969E-08  0.10566000000E+00  0.10566000000E+00 0.  1.
     999900   -1    0    0    0    0 -0.00000000000E+00 -0.00000000000E+00 -0.74505805969E-08  0.93827000000E+00  0.93827000000E+00 0.  1.
     999902    2    1    2    0    0  0.21676013538E-02 -0.20774141835E-01 -0.11099539464E-01  0.10202770247E+01  0.10200028156E+01 0.  0.
     999903    2    3    3    0    0  0.97102412948E-01  0.63030216342E-01  0.53077748270E-01  0.12889915131E+00  0.19901182712E-01 0.  0.
         14    1    1    2    0    0 -0.21676013538E-02  0.20774141835E-01  0.11099539464E-01  0.23652975308E-01  0.00000000000E+00 0. -1.
     999901    1    3    3    0    0 -0.94934811594E-01 -0.83804358177E-01 -0.64177287734E-01  0.89137787339E+00  0.88000000000E+00 0.  1.
        -11    1    4    4    0    0  0.46502442144E-01  0.27550385899E-01  0.14204938381E-01  0.55888659708E-01  0.51100000000E-03 0. -1.
         11    1    4    4    0    0  0.50599970804E-01  0.35479830443E-01  0.38872809889E-01  0.73010491597E-01  0.51100000000E-03 0.  1.
</event>
<event>
 8    1  0.1076043E+005  0.1043930E+01  0.7957747E-01            NaN
         13   -1    0    0    0    0  0.00000000000E+00  0.00000000000E+00  0.74505805969E-08  0.10566000000E+00  0.10566000000E+00 0. -1.
     999900   -1    0    0    0    0 -0.00000000000E+00 -0.00000000000E+00 -0.74505805969E-08  0.93827000000E+00  0.93827000000E+00 0.  1.
     999902    2    1    2    0    0 -0.21145368829E-01  0.27040881500E-03 -0.76414302155E-03  0.10227691007E+01  0.10225501698E+01 0.  0.
     999903    2    3    3    0    0 -0.12089549073E+00 -0.44595677516E-01  0.35406247689E-01  0.13526059389E+00  0.20912478398E-01 0.  0.
         14    1    1    2    0    0  0.21145368829E-01 -0.27040881500E-03  0.76414302155E-03  0.21160899282E-01  0.00000000000E+00 0. -1.
     999901    1    3    3    0    0  0.99750121902E-01  0.44866086331E-01 -0.36170390711E-01  0.88750850682E+00  0.88000000000E+00 0.  1.
        -11    1    4    4    0    0 -0.97734798221E-01 -0.42727677889E-01  0.23836705224E-01  0.10929864994E+00  0.51100000000E-03 0.  1.
         11    1    4    4    0    0 -0.23160692510E-01 -0.18679996270E-02  0.11569542465E-01  0.25961943957E-01  0.51100000000E-03 0. -1.
</event>
<event>
 8    1  0.1076043E+005  0.1043930E+01  0.7957747E-01            NaN
         13   -1    0    0    0    0  0.00000000000E+00  0.00000000000E+00  0.74505805969E-08  0.10566000000E+00  0.10566000000E+00 0. -1.
     999900   -1    0    0    0    0 -0.00000000000E+00 -0.00000000000E+00 -0.74505805969E-08  0.93827000000E+00  0.93827000000E+00 0. -1.
     999902    2    1    2    0    0 -0.19343302702E-01  0.13253071490E-01  0.53213875763E-02  0.10198857818E+01  0.10196023163E+01 0.  0.
     999903    2    3    3    0    0 -0.12113897827E-01  0.12840459336E+00 -0.19993761174E-01  0.13199333671E+00  0.19697825635E-01 0.  0.
         14    1    1    2    0    0  0.19343302702E-01 -0.13253071490E-01 -0.53213875763E-02  0.24044218204E-01  0.00000000000E+00 0.  1.
     999901    1    3    3    0    0 -0.72294048744E-02 -0.11515152187E+00  0.25315148750E-01  0.88789244509E+00  0.88000000000E+00 0. -1.
        -11    1    4    4    0    0 -0.94074629965E-02  0.12596905225E+00 -0.21274833506E-01  0.12809989129E+00  0.51100000000E-03 0.  1.
         11    1    4    4    0    0 -0.27064348308E-02  0.24355411009E-02  0.12810723323E-02  0.38934454239E-02  0.51100000000E-03 0. -1.
</event>
<event>
 8    1  0.1076043E+005  0.1043930E+01  0.7957747E-01            NaN
         13   -1    0    0    0    0  0.00000000000E+00  0.00000000000E+00  0.74505805969E-08  0.10566000000E+00  0.10566000000E+00 0. -1.
     999900   -1    0    0    0    0 -0.00000000000E+00 -0.00000000000E+00 -0.74505805969E-08  0.93827000000E+00  0.93827000000E+00 0. -1.
     999902    2    1    2    0    0  0.10406062543E-01 -0.15958855833E-01  0.13618254540E-01  0.10205114588E+01  0.10202427208E+01 0.  0.
     999903    2    3    3    0    0 -0.97795710464E-01  0.39568423965E-01  0.73446823145E-01  0.13013493161E+00  0.20273219622E-01 0.  0.
         14    1    1    2    0    0 -0.10406062543E-01  0.15958855833E-01 -0.13618254540E-01  0.23418541241E-01  0.00000000000E+00 0.  1.
     999901    1    3    3    0    0  0.10820177301E+00 -0.55527279798E-01 -0.59828568605E-01  0.89037652715E+00  0.88000000000E+00 0.  1.
        -11    1    4    4    0    0 -0.31076847972E-01  0.12761516519E-01  0.35316686642E-01  0.48745833259E-01  0.51100000000E-03 0.  1.
         11    1    4    4    0    0 -0.66718862492E-01  0.26806907446E-01  0.38130136503E-01  0.81389098348E-01  0.51100000000E-03 0. -1.
</event>
<event>
 8    1  0.1076043E+005  0.1043930E+01  0.7957747E-01            NaN
         13   -1    0    0    0    0  0.00000000000E+00  0.00000000000E+00  0.74505805969E-08  0.10566000000E+00  0.10566000000E+00 0.  1.
     999900   -1    0    0    0    0 -0.00000000000E+00 -0.00000000000E+00 -0.74505805969E-08  0.93827000000E+00  0.93827000000E+00 0.  1.
     999902    2    1    2    0    0 -0.11214818320E-01 -0.12525540844E-01 -0.17023620455E-01  0.10200037597E+01  0.10197231020E+01 0.  0.
     999903    2    3    3    0    0  0.53726274145E-01 -0.80976311509E-01  0.82942218786E-01  0.12933209035E+00  0.20092346261E-01 0.  0.
         14    1    1    2    0    0  0.11214818320E-01  0.12525540844E-01  0.17023620455E-01  0.23926240340E-01  0.00000000000E+00 0.  1.
     999901    1    3    3    0    0 -0.64941092465E-01  0.68450770665E-01 -0.99965839241E-01  0.89067166931E+00  0.88000000000E+00 0.  1.
        -11    1    4    4    0    0  0.10520926749E-01 -0.32768261811E-01  0.31228889992E-01  0.46475300676E-01  0.51100000000E-03 0. -1.
         11    1    4    4    0    0  0.43205347396E-01 -0.48208049698E-01  0.51713328794E-01  0.82856789675E-01  0.51100000000E-03 0.  1.
</event>
<event>
 8    1  0.1076043E+005  0.1043930E+01  0.7957747E-01            NaN
         13   -1    0    0    0    0  0.00000000000E+00  0.00000000000E+00  0.74505805969E-08  0.10566000000E+00  0.10566000000E+00 0.  1.
     999900   -1    0    0    0    0 -0.00000000000E+00 -0.00000000000E+00 -0.74505805969E-08  0.93827000000E+00  0.93827000000E+00 0.  1.
     999902    2    1    2    0    0 -0.21123761306E-01 -0.15750468800E-02  0.13255981647E-01  0.10189417005E+01  0.10186352506E+01 0.  0.
     999903    2    3    3    0    0  0.10507734682E+00  0.21202079504E-01  0.67267849779E-01  0.12800803342E+00  0.19243596739E-01 0.  0.
         14    1    1    2    0    0  0.21123761306E-01  0.15750468800E-02 -0.13255981647E-01  0.24988299538E-01  0.00000000000E+00 0. -1.
     999901    1    3    3    0    0 -0.12620110812E+00 -0.22777126384E-01 -0.54011868132E-01  0.89093366705E+00  0.88000000000E+00 0.  1.
        -11    1    4    4    0    0  0.67323067118E-01  0.20695729376E-01  0.36681385576E-01  0.79413435573E-01  0.51100000000E-03 0. -1.
         11    1    4    4    0    0  0.37754279699E-01  0.50635012708E-03  0.30586464203E-01  0.48594597843E-01  0.51100000000E-03 0.  1.
</event>
<event>
 8    1  0.1076043E+005  0.1043930E+01  0.7957747E-01            NaN
         13   -1    0    0    0    0  0.00000000000E+00  0.00000000000E+00  0.74505805969E-08  0.10566000000E+00  0.10566000000E+00 0. -1.
     999900   -1    0    0    0    0 -0.00000000000E+00 -0.00000000000E+00 -0.74505805969E-08  0.93827000000E+00  0.93827000000E+00 0. -1.
     999902    2    1    2    0    0 -0.90035651721E-02 -0.51961306133E-02  0.22022363649E-01  0.10195774137E+01  0.10192865417E+01 0.  0.
     999903    2    3    3    0    0 -0.84621877658E-01 -0.88753468764E-01  0.44175533348E-01  0.13211433228E+00  0.21556406275E-01 0.  0.
         14    1    1    2    0    0  0.90035651721E-02  0.51961306133E-02 -0.22022363649E-01  0.24352586307E-01  0.00000000000E+00 0.  1.
     999901    1    3    3    0    0  0.75618312486E-01  0.83557338151E-01 -0.22153169699E-01  0.88746308141E+00  0.88000000000E+00 0.  1.
        -11    1    4    4    0    0 -0.42673092431E-01 -0.31423974516E-01  0.13208151725E-01  0.54618452788E-01  0.51100000000E-03 0. -1.
         11    1    4    4    0    0 -0.41948785227E-01 -0.57329494248E-01  0.30967381622E-01  0.77495879493E-01  0.51100000000E-03 0.  1.
</event>
<event>
 8    1  0.1076043E+005  0.1043930E+01  0.7957747E-01            NaN
         13   -1    0    0    0    0  0.00000000000E+00  0.00000000000E+00  0.74505805969E-08  0.10566000000E+00  0.10566000000E+00 0. -1.
     999900   -1    0    0    0    0 -0.00000000000E+00 -0.00000000000E+00 -0.74505805969E-08  0.93827000000E+00  0.93827000000E+00 0.  1.
     999902    2    1    2    0    0 -0.15380553562E-01  0.12780884273E-01  0.12336768578E-01  0.10204330153E+01  0.10201624530E+01 0.  0.
     999903    2    3    3    0    0  0.70079328604E-01  0.28677631283E-01 -0.10232751196E+00  0.12874697456E+00  0.19270311913E-01 0.  0.
         14    1    1    2    0    0  0.15380553562E-01 -0.12780884273E-01 -0.12336768578E-01  0.23496984692E-01  0.00000000000E+00 0.  1.
     999901    1    3    3    0    0 -0.85459882166E-01 -0.15896747010E-01  0.11466428054E+00  0.89168604074E+00  0.88000000000E+00 0. -1.
        -11    1    4    4    0    0  0.43746870981E-01  0.10960316964E-01 -0.48291560033E-01  0.66077629800E-01  0.51100000000E-03 0.  1.
         11    1    4    4    0    0  0.26332457623E-01  0.17717314318E-01 -0.54035951930E-01  0.62669344764E-01  0.51100000000E-03 0. -1.
</event>
<event>
 8    1  0.1076043E+005  0.1043930E+01  0.7957747E-01            NaN
         13   -1    0    0    0    0  0.00000000000E+00  0.00000000000E+00  0.74505805969E-08  0.10566000000E+00  0.10566000000E+00 0.  1.
     999900   -1    0    0    0    0 -0.00000000000E+00 -0.00000000000E+00 -0.74505805969E-08  0.93827000000E+00  0.93827000000E+00 0. -1.
     999902    2    1    2    0    0 -0.74036841906E-02  0.11608727768E-01 -0.20497637296E-01  0.10192372838E+01  0.10189381288E+01 0.  0.
     999903    2    3    3    0    0  0.11114629737E+00 -0.54567459743E-01 -0.30996064053E-01  0.12876347569E+00  0.16975558984E-01 0.  0.
         14    1    1    2    0    0  0.74036841906E-02 -0.11608727768E-01  0.20497637296E-01  0.24692716228E-01  0.00000000000E+00 0.  1.
     999901    1    3    3    0    0 -0.11854998156E+00  0.66176187511E-01  0.10498426757E-01  0.89047380809E+00  0.88000000000E+00 0. -1.
        -11    1    4    4    0    0  0.16034935847E-01 -0.32393087619E-02 -0.82029848397E-02  0.18307440295E-01  0.51100000000E-03 0. -1.
         11    1    4    4    0    0  0.95111361522E-01 -0.51328150981E-01 -0.22793079213E-01  0.11045603539E+00  0.51100000000E-03 0.  1.
</event>
<event>
 8    1  0.1076043E+005  0.1043930E+01  0.7957747E-01            NaN
         13   -1    0    0    0    0  0.00000000000E+00  0.00000000000E+00  0.74505805969E-08  0.10566000000E+00  0.10566000000E+00 0.  1.
     999900   -1    0    0    0    0 -0.00000000000E+00 -0.00000000000E+00 -0.74505805969E-08  0.93827000000E+00  0.93827000000E+00 0. -1.
     999902    2    1    2    0    0  0.40573338493E-02  0.52936174254E-02 -0.23708247496E-01  0.10193014527E+01  0.10190038695E+01 0.  0.
     999903    2    3    3    0    0  0.91787919554E-01 -0.51968067124E-01 -0.76110204936E-01  0.13153936669E+00  0.19599477483E-01 0.  0.
         14    1    1    2    0    0 -0.40573338493E-02 -0.52936174254E-02  0.23708247496E-01  0.24628547313E-01  0.00000000000E+00 0.  1.
     999901    1    3    3    0    0 -0.87730585705E-01  0.57261684550E-01  0.52401957440E-01  0.88776208599E+00  0.88000000000E+00 0.  1.
        -11    1    4    4    0    0  0.38106798809E-01 -0.25410888467E-01 -0.44299769282E-01  0.63722618022E-01  0.51100000000E-03 0. -1.
         11    1    4    4    0    0  0.53681120745E-01 -0.26557178658E-01 -0.31810435655E-01  0.67816748670E-01  0.51100000000E-03 0.  1.
</event>
<event>
 8    1  0.1076043E+005  0.1043930E+01  0.7957747E-01            NaN
         13   -1    0    0    0    0  0.00000000000E+00  0.00000000000E+00  0.74505805969E-08  0.10566000000E+00  0.10566000000E+00 0. -1.
     999900   -1    0    0    0    0 -0.00000000000E+00 -0.00000000000E+00 -0.74505805969E-08  0.93827000000E+00  0.93827000000E+00 0.  1.
     999902    2    1    2    0    0  0.16017701909E-01 -0.95050070810E-02  0.14099702105E-01  0.10205694877E+01  0.10203020953E+01 0.  0.
     999903    2    3    3    0    0  0.12966612707E+00 -0.19750380339E-01 -0.77028740375E-02  0.13293426730E+00  0.20218880333E-01 0.  0.
         14    1    1    2    0    0 -0.16017701909E-01  0.95050070810E-02 -0.14099702105E-01  0.23360512269E-01  0.00000000000E+00 0. -1.
     999901    1    3    3    0    0 -0.11364842516E+00  0.10245373258E-01  0.21802576142E-01  0.88763522043E+00  0.88000000000E+00 0. -1.
        -11    1    4    4    0    0  0.72133280882E-01 -0.91789644852E-03 -0.56221438612E-02  0.72359673627E-01  0.51100000000E-03 0.  1.
         11    1    4    4    0    0  0.57532846189E-01 -0.18832483891E-01 -0.20807301763E-02  0.60574593678E-01  0.51100000000E-03 0. -1.
</event>
<event>
 8    1  0.1076043E+005  0.1043930E+01  0.7957747E-01            NaN
         13   -1    0    0    0    0  0.00000000000E+00  0.00000000000E+00  0.74505805969E-08  0.10566000000E+00  0.10566000000E+00 0. -1.
     999900   -1    0    0    0    0 -0.00000000000E+00 -0.00000000000E+00 -0.74505805969E-08  0.93827000000E+00  0.93827000000E+00 0.  1.
     999902    2    1    2    0    0 -0.23546262816E-01  0.44499686541E-02 -0.96554744876E-03  0.10199474856E+01  0.10196654905E+01 0.  0.
     999903    2    3    3    0    0  0.17075081169E-01  0.20840677712E-01  0.12535407095E+00  0.12984895461E+00  0.20523539306E-01 0.  0.
         14    1    1    2    0    0  0.23546262816E-01 -0.44499686541E-02  0.96554744876E-03  0.23982514370E-01  0.00000000000E+00 0. -1.
     999901    1    3    3    0    0 -0.40621343985E-01 -0.16390709058E-01 -0.12631961840E+00  0.89009853102E+00  0.88000000000E+00 0.  1.
        -11    1    4    4    0    0  0.15890600929E-01  0.14316387016E-01  0.52500396992E-01  0.56692353456E-01  0.51100000000E-03 0.  1.
         11    1    4    4    0    0  0.11844802405E-02  0.65242906966E-02  0.72853673957E-01  0.73156601155E-01  0.51100000000E-03 0. -1.
</event>
<event>
 8    1  0.1076043E+005  0.1043930E+01  0.7957747E-01            NaN
         13   -1    0    0    0    0  0.00000000000E+00  0.00000000000E+00  0.74505805969E-08  0.10566000000E+00  0.10566000000E+00 0. -1.
     999900   -1    0    0    0    0 -0.00000000000E+00 -0.00000000000E+00 -0.74505805969E-08  0.93827000000E+00  0.93827000000E+00 0. -1.
     999902    2    1    2    0    0 -0.10147845094E-01 -0.15843159829E-01  0.18478496915E-01  0.10175588165E+01  0.10172170396E+01 0.  0.
     999903    2    3    3    0    0 -0.10064516681E+00  0.74026549963E-01  0.22139080508E-01  0.12835707902E+00  0.19391264737E-01 0.  0.
         14    1    1    2    0    0  0.10147845094E-01  0.15843159829E-01 -0.18478496915E-01  0.26371183547E-01  0.00000000000E+00 0.  1.
     999901    1    3    3    0    0  0.90497321716E-01 -0.89869709792E-01 -0.36605835925E-02  0.88920173743E+00  0.88000000000E+00 0. -1.
        -11    1    4    4    0    0 -0.74325857447E-01  0.63944756361E-01  0.14199299805E-01  0.99071419629E-01  0.51100000000E-03 0. -1.
         11    1    4    4    0    0 -0.26319309363E-01  0.10081793601E-01  0.79397807031E-02  0.29285659394E-01  0.51100000000E-03 0.  1.
</event>
<event>
 8    1  0.1076043E+005  0.1043930E+01  0.7957747E-01            NaN
         13   -1    0    0    0    0  0.00000000000E+00  0.00000000000E+00  0.74505805969E-08  0.10566000000E+00  0.10566000000E+00 0.  1.
     999900   -1    0    0    0    0 -0.00000000000E+00 -0.00000000000E+00 -0.74505805969E-08  0.93827000000E+00  0.93827000000E+00 0. -1.
     999902    2    1    2    0    0  0.11792092144E-01 -0.39157222599E-02  0.20654472294E-01  0.10198261923E+01  0.10195413033E+01 0.  0.
     999903    2    3    3    0    0  0.14026072326E-01 -0.89329281314E-01  0.94918424994E-01  0.13257447980E+00  0.19749280636E-01 0.  0.
         14    1    1    2    0    0 -0.11792092144E-01  0.39157222599E-02 -0.20654472294E-01  0.24103807659E-01  0.00000000000E+00 0. -1.
     999901    1    3    3    0    0 -0.22339801820E-02  0.85413559054E-01 -0.74263952700E-01  0.88725171254E+00  0.88000000000E+00 0. -1.
        -11    1    4    4    0    0  0.16532643685E-01 -0.79040570435E-01  0.89905837902E-01  0.12084726266E+00  0.51100000000E-03 0. -1.
         11    1    4    4    0    0 -0.25065713595E-02 -0.10288710879E-01  0.50125870921E-02  0.11727217141E-01  0.51100000000E-03 0.  1.
</event>
<event>
 8    1  0.1076043E+005  0.1043930E+01  0.7957747E-01            NaN
         13   -1    0    0    0    0  0.00000000000E+00  0.00000000000E+00  0.74505805969E-08  0.10566000000E+00  0.10566000000E+00 0.  1.
     999900   -1    0    0    0    0 -0.00000000000E+00 -0.00000000000E+00 -0.74505805969E-08  0.93827000000E+00  0.93827000000E+00 0.  1.
     999902    2    1    2    0    0 -0.31115037280E-02 -0.17933799831E-01  0.15119748087E-01  0.10202675949E+01  0.10199931646E+01 0.  0.
     999903    2    3    3    0    0 -0.12630049705E+00 -0.28924696188E-01 -0.79419016006E-02  0.13131980817E+00  0.19833421600E-01 0.  0.
         14    1    1    2    0    0  0.31115037280E-02  0.17933799831E-01 -0.15119748087E-01  0.23662405077E-01  0.00000000000E+00 0. -1.
     999901    1    3    3    0    0  0.12318899333E+00  0.10990896357E-01  0.23061649688E-01  0.88894778675E+00  0.88000000000E+00 0. -1.
        -11    1    4    4    0    0 -0.67143539351E-01 -0.25277987964E-01 -0.63579961443E-02  0.72027194781E-01  0.51100000000E-03 0. -1.
         11    1    4    4    0    0 -0.59156957703E-01 -0.36467082245E-02 -0.15839054563E-02  0.59292613393E-01  0.51100000000E-03 0.  1.
</event>
<event>
 8    1  0.1076043E+005  0.1043930E+01  0.7957747E-01            NaN
         13   -1    0    0    0    0  0.00000000000E+00  0.00000000000E+00  0.74505805969E-08  0.10566000000E+00  0.10566000000E+00 0. -1.
     999900   -1    0    0    0    0 -0.00000000000E+00 -0.00000000000E+00 -0.74505805969E-08  0.93827000000E+00  0.93827000000E+00 0.  1.
     999902    2    1    2    0    0 -0.47605870509E-02 -0.15140718579E-01 -0.74040695775E-03  0.10280412382E+01  0.10279184475E+01 0.  0.
     999903    2    3    3    0    0 -0.49346516666E-01  0.14510418228E-01 -0.12584432363E+00  0.13758175852E+00  0.21126181489E-01 0.  0.
         14    1    1    2    0    0  0.47605870509E-02  0.15140718579E-01  0.74040695775E-03  0.15888761771E-01  0.00000000000E+00 0. -1.
     999901    1    3    3    0    0  0.44585929615E-01 -0.29651136807E-01  0.12510391667E+00  0.89045947971E+00  0.88000000000E+00 0. -1.
        -11    1    4    4    0    0 -0.47281989720E-01  0.16237529034E-01 -0.10213680363E+00  0.11371645297E+00  0.51100000000E-03 0. -1.
         11    1    4    4    0    0 -0.20645269465E-02 -0.17271108060E-02 -0.23707520003E-01  0.23865305549E-01  0.51100000000E-03 0.  1.
</event>
<event>
 8    1  0.1076043E+005  0.1043930E+01  0.7957747E-01            NaN
         13   -1    0    0    0    0  0.00000000000E+00  0.00000000000E+00  0.74505805969E-08  0.10566000000E+00  0.10566000000E+00 0. -1.
     999900   -1    0    0    0    0 -0.00000000000E+00 -0.00000000000E+00 -0.74505805969E-08  0.93827000000E+00  0.93827000000E+00 0. -1.
     999902    2    1    2    0    0  0.12562941812E-01 -0.19504245570E-01 -0.50751828024E-02  0.10201813036E+01  0.10199048444E+01 0.  0.
     999903    2    3    3    0    0 -0.12390241768E-01 -0.10621545180E+00  0.74431345065E-01  0.13200182697E+00  0.21194737603E-01 0.  0.
         14    1    1    2    0    0 -0.12562941812E-01  0.19504245570E-01  0.50751828024E-02  0.23748696443E-01  0.00000000000E+00 0.  1.
     999901    1    3    3    0    0  0.24953183580E-01  0.86711206234E-01 -0.79506527868E-01  0.88817947659E+00  0.88000000000E+00 0. -1.
        -11    1    4    4    0    0 -0.34097335514E-02 -0.91584266230E-01  0.59737941280E-01  0.10939920865E+00  0.51100000000E-03 0.  1.
         11    1    4    4    0    0 -0.89805082165E-02 -0.14631185575E-01  0.14693403786E-01  0.22602618321E-01  0.51100000000E-03 0. -1.
</event>
<event>
 8    1  0.1076043E+005  0.1043930E+01  0.7957747E-01            NaN
         13   -1    0    0    0    0  0.00000000000E+00  0.00000000000E+00  0.74505805969E-08  0.10566000000E+00  0.10566000000E+00 0. -1.
     999900   -1    0    0    0    0 -0.00000000000E+00 -0.00000000000E+00 -0.74505805969E-08  0.93827000000E+00  0.93827000000E+00 0.  1.
     999902    2    1    2    0    0 -0.19245804578E-02  0.21394606636E-01  0.92887058392E-02  0.10205267255E+01  0.10202583419E+01 0.  0.
     999903    2    3    3    0    0  0.69404412997E-01  0.10954147139E+00 -0.19629551016E-01  0.13278016216E+00  0.20711004120E-01 0.  0.
         14    1    1    2    0    0  0.19245804578E-02 -0.21394606636E-01 -0.92887058392E-02  0.23403274541E-01  0.00000000000E+00 0.  1.
     999901    1    3    3    0    0 -0.71328993454E-01 -0.88146864755E-01  0.28918256855E-01  0.88774656330E+00  0.88000000000E+00 0.  1.
        -11    1    4    4    0    0  0.44054245211E-01  0.51130686018E-01 -0.69185553068E-02  0.67847263042E-01  0.51100000000E-03 0. -1.
         11    1    4    4    0    0  0.25350167786E-01  0.58410785374E-01 -0.12710995709E-01  0.64932899116E-01  0.51100000000E-03 0.  1.
</event>
<event>
 8    1  0.1076043E+005  0.1043930E+01  0.7957747E-01            NaN
         13   -1    0    0    0    0  0.00000000000E+00  0.00000000000E+00  0.74505805969E-08  0.10566000000E+00  0.10566000000E+00 0.  1.
     999900   -1    0    0    0    0 -0.00000000000E+00 -0.00000000000E+00 -0.74505805969E-08  0.93827000000E+00  0.93827000000E+00 0.  1.
     999902    2    1    2    0    0 -0.74421395918E-02 -0.22154011869E-01  0.15356078036E-02  0.10205089886E+01  0.10202401933E+01 0.  0.
     999903    2    3    3    0    0 -0.35342576071E-01 -0.57786009413E-01  0.11204077563E+00  0.13244397650E+00  0.19998773490E-01 0.  0.
         14    1    1    2    0    0  0.74421395918E-02  0.22154011869E-01 -0.15356078036E-02  0.23421011398E-01  0.00000000000E+00 0.  1.
     999901    1    3    3    0    0  0.27900436480E-01  0.35631997544E-01 -0.11050516782E+00  0.88806501210E+00  0.88000000000E+00 0.  1.
        -11    1    4    4    0    0 -0.16573854312E-01 -0.36874082649E-01  0.49752178135E-01  0.64108743305E-01  0.51100000000E-03 0. -1.
         11    1    4    4    0    0 -0.18768721759E-01 -0.20911926764E-01  0.62288597490E-01  0.68335233195E-01  0.51100000000E-03 0.  1.
</event>
<event>
 8    1  0.1076043E+005  0.1043930E+01  0.7957747E-01            NaN
         13   -1    0    0    0    0  0.00000000000E+00  0.00000000000E+00  0.74505805969E-08  0.10566000000E+00  0.10566000000E+00 0.  1.
     999900   -1    0    0    0    0 -0.00000000000E+00 -0.00000000000E+00 -0.74505805969E-08  0.93827000000E+00  0.93827000000E+00 0.  1.
     999902    2    1    2    0    0  0.18269876105E-01  0.37354118279E-04  0.14636512687E-01  0.10205202313E+01  0.10202516970E+01 0.  0.
     999903    2    3    3    0    0  0.14282310201E-01 -0.11770839192E+00  0.54046617858E-01  0.13179467308E+00  0.19736996650E-01 0.  0.
         14    1    1    2    0    0 -0.18269876105E-01 -0.37354118279E-04 -0.14636512687E-01  0.23409768727E-01  0.00000000000E+00 0. -1.
     999901    1    3    3    0    0  0.39875659038E-02  0.11774574604E+00 -0.39410105172E-01  0.88872555819E+00  0.88000000000E+00 0.  1.
        -11    1    4    4    0    0 -0.35320932674E-02 -0.49276300685E-01  0.19824716524E-01  0.53234481291E-01  0.51100000000E-03 0. -1.
         11    1    4    4    0    0  0.17814403468E-01 -0.68432091239E-01  0.34221901334E-01  0.78560191791E-01  0.51100000000E-03 0.  1.
</event>
<event>
 8    1  0.1076043E+005  0.1043930E+01  0.7957747E-01            NaN
         13   -1    0    0    0    0  0.00000000000E+00  0.00000000000E+00  0.74505805969E-08  0.10566000000E+00  0.10566000000E+00 0.  1.
     999900   -1    0    0    0    0 -0.00000000000E+00 -0.00000000000E+00 -0.74505805969E-08  0.93827000000E+00  0.93827000000E+00 0. -1.
     999902    2    1    2    0    0  0.92951317871E-02  0.21224499679E-01  0.34257357657E-02  0.10205074782E+01  0.10202386478E+01 0.  0.
     999903    2    3    3    0    0  0.47130266331E-01  0.77910645242E-01  0.95127303332E-01  0.13312143257E+00  0.19513618905E-01 0.  0.
         14    1    1    2    0    0 -0.92951317871E-02 -0.21224499679E-01 -0.34257357657E-02  0.23422521792E-01  0.00000000000E+00 0. -1.
     999901    1    3    3    0    0 -0.37835134544E-01 -0.56686145562E-01 -0.91701567567E-01  0.88738604564E+00  0.88000000000E+00 0. -1.
        -11    1    4    4    0    0  0.23151731023E-01  0.20659207327E-01  0.30457439150E-01  0.43482435733E-01  0.51100000000E-03 0. -1.
         11    1    4    4    0    0  0.23978535309E-01  0.57251437915E-01  0.64669864182E-01  0.89638996833E-01  0.51100000000E-03 0.  1.
</event>
<event>
 8    1  0.1076043E+005  0.1043930E+01  0.7957747E-01            NaN
         13   -1    0    0    0    0  0.00000000000E+00  0.00000000000E+00  0.74505805969E-08  0.10566000000E+00  0.10566000000E+00 0.  1.
     999900   -1    0    0    0    0 -0.00000000000E+00 -0.00000000000E+00 -0.74505805969E-08  0.93827000000E+00  0.93827000000E+00 0.  1.
     999902    2    1    2    0    0  0.20284085826E-01  0.55835572666E-02  0.11166197611E-01  0.10201118511E+01  0.10198337533E+01 0.  0.
     999903    2    3    3    0    0 -0.94640902875E-01 -0.74418170364E-01 -0.36804642783E-01  0.12775024780E+00  0.21692844577E-01 0.  0.
         14    1    1    2    0    0 -0.20284085826E-01 -0.55835572666E-02 -0.11166197611E-01  0.23818148934E-01  0.00000000000E+00 0. -1.
     999901    1    3    3    0    0  0.11492498870E+00  0.80001727631E-01  0.47970840394E-01  0.89236160326E+00  0.88000000000E+00 0.  1.
        -11    1    4    4    0    0 -0.40305303986E-01 -0.45164235990E-01 -0.15836701635E-01  0.62573061150E-01  0.51100000000E-03 0.  1.
         11    1    4    4    0    0 -0.54335598889E-01 -0.29253934374E-01 -0.20967941148E-01  0.65177186653E-01  0.51100000000E-03 0. -1.
</event>
<event>
 8    1  0.1076043E+005  0.1043930E+01  0.7957747E-01            NaN
         13   -1    0    0    0    0  0.00000000000E+00  0.00000000000E+00  0.74505805969E-08  0.10566000000E+00  0.10566000000E+00 0. -1.
     999900   -1    0    0    0    0 -0.00000000000E+00 -0.00000000000E+00 -0.74505805969E-08  0.93827000000E+00  0.93827000000E+00 0.  1.
     999902    2    1    2    0    0 -0.16749464347E-01  0.86723426960E-02 -0.14639274596E-01  0.10200540195E+01  0.10197745536E+01 0.  0.
     999903    2    3    3    0    0  0.53199220656E-01  0.88168929503E-01  0.75200430023E-01  0.12916474559E+00  0.20603631251E-01 0.  0.
         14    1    1    2    0    0  0.16749464347E-01 -0.86723426960E-02  0.14639274596E-01  0.23875980492E-01  0.00000000000E+00 0.  1.
     999901    1    3    3    0    0 -0.69948685003E-01 -0.79496586807E-01 -0.89839704619E-01  0.89088927391E+00  0.88000000000E+00 0.  1.
        -11    1    4    4    0    0  0.38499884682E-01  0.76142510413E-01  0.66934285331E-01  0.10844529813E+00  0.51100000000E-03 0. -1.
         11    1    4    4    0    0  0.14699335974E-01  0.12026419090E-01  0.82661446921E-02  0.20719447465E-01  0.51100000000E-03 0.  1.
</event>
<event>
 8    1  0.1076043E+005  0.1043930E+01  0.7957747E-01            NaN
         13   -1    0    0    0    0  0.00000000000E+00  0.00000000000E+00  0.74505805969E-08  0.10566000000E+00  0.10566000000E+00 0.  1.
     999900   -1    0    0    0    0 -0.00000000000E+00 -0.00000000000E+00 -0.74505805969E-08  0.93827000000E+00  0.93827000000E+00 0. -1.
     999902    2    1    2    0    0 -0.59580652529E-03  0.87303346987E-02 -0.12414586210E-01  0.10287413305E+01  0.10286291992E+01 0.  0.
     999903    2    3    3    0    0 -0.10191041468E+00 -0.33608724937E-01 -0.84881160557E-01  0.13896121714E+00  0.24292579932E-01 0.  0.
         14    1    1    2    0    0  0.59580652529E-03 -0.87303346987E-02  0.12414586210E-01  0.15188669465E-01  0.00000000000E+00 0.  1.
     999901    1    3    3    0    0  0.10131460815E+00  0.42339059636E-01  0.72466574347E-01  0.88978011340E+00  0.88000000000E+00 0.  1.
        -11    1    4    4    0    0 -0.52379101429E-01 -0.19785194671E-01 -0.59175310734E-01  0.81467801714E-01  0.51100000000E-03 0. -1.
         11    1    4    4    0    0 -0.49531313249E-01 -0.13823530266E-01 -0.25705849823E-01  0.57493415426E-01  0.51100000000E-03 0.  1.
</event>
<event>
 8    1  0.1076043E+005  0.1043930E+01  0.7957747E-01            NaN
         13   -1    0    0    0    0  0.00000000000E+00  0.00000000000E+00  0.74505805969E-08  0.10566000000E+00  0.10566000000E+00 0. -1.
     999900   -1    0    0    0    0 -0.00000000000E+00 -0.00000000000E+00 -0.74505805969E-08  0.93827000000E+00  0.93827000000E+00 0. -1.
     999902    2    1    2    0    0  0.94541617593E-02  0.15373162544E-01  0.16283812137E-01  0.10196220211E+01  0.10193322265E+01 0.  0.
     999903    2    3    3    0    0  0.11790708247E+00 -0.19640595663E-01 -0.46413979871E-01  0.13006088637E+00  0.21765650497E-01 0.  0.
         14    1    1    2    0    0 -0.94541617593E-02 -0.15373162544E-01 -0.16283812137E-01  0.24307978914E-01  0.00000000000E+00 0.  1.
     999901    1    3    3    0    0 -0.10845292071E+00  0.35013758207E-01  0.62697792008E-01  0.88956113472E+00  0.88000000000E+00 0.  1.
        -11    1    4    4    0    0  0.86107585168E-01 -0.50538076922E-02 -0.29193490199E-01  0.91063594189E-01  0.51100000000E-03 0.  1.
         11    1    4    4    0    0  0.31799497301E-01 -0.14586787970E-01 -0.17220489672E-01  0.38997292181E-01  0.51100000000E-03 0. -1.
</event>
<event>
 8    1  0.1076043E+005  0.1043930E+01  0.7957747E-01            NaN
         13   -1    0    0    0    0  0.00000000000E+00  0.00000000000E+00  0.74505805969E-08  0.10566000000E+00  0.10566000000E+00 0.  1.
     999900   -1    0    0    0    0 -0.00000000000E+00 -0.00000000000E+00 -0.74505805969E-08  0.93827000000E+00  0.93827000000E+00 0. -1.
     999902    2    1    2    0    0 -0.45934759726E-02 -0.22762009812E-01  0.51170705876E-02  0.10201519950E+01  0.10198748449E+01 0.  0.
     999903    2    3    3    0    0 -0.19949640549E-01  0.47624797928E-01 -0.11628156722E+00  0.12890133227E+00  0.20689152938E-01 0.  0.
         14    1    1    2    0    0  0.45934759726E-02  0.22762009812E-01 -0.51170705876E-02  0.23778005039E-01  0.00000000000E+00 0. -1.
     999901    1    3    3    0    0  0.15356164576E-01 -0.70386807741E-01  0.12139863781E+00  0.89125066270E+00  0.88000000000E+00 0.  1.
        -11    1    4    4    0    0 -0.21974612173E-01  0.29084153873E-01 -0.68312568450E-01  0.77431516296E-01  0.51100000000E-03 0.  1.
         11    1    4    4    0    0  0.20249716246E-02  0.18540644056E-01 -0.47968998769E-01  0.51469815970E-01  0.51100000000E-03 0. -1.
</event>
<event>
 8    1  0.1076043E+005  0.1043930E+01  0.7957747E-01            NaN
         13   -1    0    0    0    0  0.00000000000E+00  0.00000000000E+00  0.74505805969E-08  0.10566000000E+00  0.10566000000E+00 0. -1.
     999900   -1    0    0    0    0 -0.00000000000E+00 -0.00000000000E+00 -0.74505805969E-08  0.93827000000E+00  0.93827000000E+00 0. -1.
     999902    2    1    2    0    0  0.21382064247E-01 -0.64791781497E-02 -0.70627052435E-02  0.10204980938E+01  0.10202290455E+01 0.  0.
     999903    2    3    3    0    0  0.73175934721E-01 -0.64973218726E-01  0.86496506529E-01  0.13209644824E+00  0.19788618475E-01 0.  0.
         14    1    1    2    0    0 -0.21382064247E-01  0.64791781497E-02  0.70627052435E-02  0.23431906161E-01  0.00000000000E+00 0.  1.
     999901    1    3    3    0    0 -0.51793870474E-01  0.58494040576E-01 -0.93559211772E-01  0.88840164560E+00  0.88000000000E+00 0. -1.
        -11    1    4    4    0    0  0.54697692909E-01 -0.40947655825E-01  0.50091763940E-01  0.84723043281E-01  0.51100000000E-03 0. -1.
         11    1    4    4    0    0  0.18478241813E-01 -0.24025562901E-01  0.36404742589E-01  0.47373404956E-01  0.51100000000E-03 0.  1.
</event>
<event>
 8    1  0.1076043E+005  0.1043930E+01  0.7957747E-01            NaN
         13   -1    0    0    0    0  0.00000000000E+00  0.00000000000E+00  0.74505805969E-08  0.10566000000E+00  0.10566000000E+00 0. -1.
     999900   -1    0    0    0    0 -0.00000000000E+00 -0.00000000000E+00 -0.74505805969E-08  0.93827000000E+00  0.93827000000E+00 0. -1.
     999902    2    1    2    0    0 -0.22501949476E-01 -0.35924829861E-02  0.16828273825E-03  0.10211424599E+01  0.10208881679E+01 0.  0.
     999903    2    3    3    0    0 -0.91785301538E-01  0.74125933083E-01 -0.58087408234E-01  0.13309175156E+00  0.20495653311E-01 0.  0.
         14    1    1    2    0    0  0.22501949476E-01  0.35924829861E-02 -0.16828273825E-03  0.22787540089E-01  0.00000000000E+00 0.  1.
     999901    1    3    3    0    0  0.69283352062E-01 -0.77718416069E-01  0.58255690973E-01  0.88805070835E+00  0.88000000000E+00 0. -1.
        -11    1    4    4    0    0 -0.30007966810E-01  0.36880318731E-01 -0.25135108253E-01  0.53783554825E-01  0.51100000000E-03 0. -1.
         11    1    4    4    0    0 -0.61777334728E-01  0.37245614352E-01 -0.32952299981E-01  0.79308196737E-01  0.51100000000E-03 0.  1.
</event>
<event>
 8    1  0.1076043E+005  0.1043930E+01  0.7957747E-01            NaN
         13   -1    0    0    0    0  0.00000000000E+00  0.00000000000E+00  0.74505805969E-08  0.10566000000E+00  0.10566000000E+00 0. -1.
     999900   -1    0    0    0    0 -0.00000000000E+00 -0.00000000000E+00 -0.74505805969E-08  0.93827000000E+00  0.93827000000E+00 0. -1.
     999902    2    1    2    0    0  0.21024597268E-01 -0.43275852139E-02 -0.10241111299E-01  0.10201467697E+01  0.10198694964E+01 0.  0.
     999903    2    3    3    0    0  0.11593687770E+00  0.57881256880E-01  0.19026883562E-01  0.13237715061E+00  0.19237676515E-01 0.  0.
         14    1    1    2    0    0 -0.21024597268E-01  0.43275852139E-02  0.10241111299E-01  0.23783230325E-01  0.00000000000E+00 0.  1.
     999901    1    3    3    0    0 -0.94912280428E-01 -0.62208842094E-01 -0.29267994862E-01  0.88776961906E+00  0.88000000000E+00 0. -1.
        -11    1    4    4    0    0  0.10616142481E+00  0.57872881899E-01  0.19941632490E-01  0.12254569925E+00  0.51100000000E-03 0. -1.
         11    1    4    4    0    0  0.97754528881E-02  0.83749809424E-05 -0.91474892818E-03  0.98314513634E-02  0.51100000000E-03 0.  1.
</event>
<event>
 8    1  0.1076043E+005  0.1043930E+01  0.7957747E-01            NaN
         13   -1    0    0    0    0  0.00000000000E+00  0.00000000000E+00  0.74505805969E-08  0.10566000000E+00  0.10566000000E+00 0. -1.
     999900   -1    0    0    0    0 -0.00000000000E+00 -0.00000000000E+00 -0.74505805969E-08  0.93827000000E+00  0.93827000000E+00 0. -1.
     999902    2    1    2    0    0  0.23424682537E-01 -0.26325847772E-02  0.33697529957E-02  0.10201182069E+01  0.10198402594E+01 0.  0.
     999903    2    3    3    0    0 -0.40861565959E-02  0.32975575231E-01 -0.12386057811E+00  0.12983041947E+00  0.20258572779E-01 0.  0.
         14    1    1    2    0    0 -0.23424682537E-01  0.26325847772E-02 -0.33697529957E-02  0.23811793083E-01  0.00000000000E+00 0.  1.
     999901    1    3    3    0    0  0.27510839133E-01 -0.35608160008E-01  0.12723033111E+00  0.89028778745E+00  0.88000000000E+00 0.  1.
        -11    1    4    4    0    0 -0.10024426297E-01  0.88462767710E-02 -0.32422248864E-01  0.35074336454E-01  0.51100000000E-03 0. -1.
         11    1    4    4    0    0  0.59382697007E-02  0.24129298460E-01 -0.91438329248E-01  0.94756083013E-01  0.51100000000E-03 0.  1.
</event>
<event>
 8    1  0.1076043E+005  0.1043930E+01  0.7957747E-01            NaN
         13   -1    0    0    0    0  0.00000000000E+00  0.00000000000E+00  0.74505805969E-08  0.10566000000E+00  0.10566000000E+00 0.  1.
     999900   -1    0    0    0    0 -0.00000000000E+00 -0.00000000000E+00 -0.74505805969E-08  0.93827000000E+00  0.93827000000E+00 0.  1.
     999902    2    1    2    0    0  0.18992954318E-01 -0.84819753003E-02  0.80105625998E-02  0.10216399724E+01  0.10213967827E+01 0.  0.
     999903    2    3    3    0    0  0.44880876542E-01 -0.15206567572E-01  0.12337044879E+00  0.13370793218E+00  0.20298047098E-01 0.  0.
         14    1    1    2    0    0 -0.18992954318E-01  0.84819753003E-02 -0.80105625998E-02  0.22290027633E-01  0.00000000000E+00 0.  1.
     999901    1    3    3    0    0 -0.25887922224E-01  0.67245922717E-02 -0.11535988619E+00  0.88793204019E+00  0.88000000000E+00 0.  1.
        -11    1    4    4    0    0  0.27052837907E-01  0.14122005774E-02  0.68624110835E-01  0.73779265774E-01  0.51100000000E-03 0.  1.
         11    1    4    4    0    0  0.17828038635E-01 -0.16618768149E-01  0.54746337953E-01  0.59928666401E-01  0.51100000000E-03 0. -1.
</event>
<event>
 8    1  0.1076043E+005  0.1043930E+01  0.7957747E-01            NaN
         13   -1    0    0    0    0  0.00000000000E+00  0.00000000000E+00  0.74505805969E-08  0.10566000000E+00  0.10566000000E+00 0. -1.
     999900   -1    0    0    0    0 -0.00000000000E+00 -0.00000000000E+00 -0.74505805969E-08  0.93827000000E+00  0.93827000000E+00 0.  1.
     999902    2    1    2    0    0  0.47959421258E-02  0.11129107110E-01  0.19091613987E-01  0.10213169991E+01  0.10210666309E+01 0.  0.
     999903    2    3    3    0    0  0.26591933768E-02  0.71164622072E-01  0.11213222761E+00  0.13437540882E+00  0.20288895535E-01 0.  0.
         14    1    1    2    0    0 -0.47959421258E-02 -0.11129107110E-01 -0.19091613987E-01  0.22613000919E-01  0.00000000000E+00 0.  1.
     999901    1    3    3    0    0  0.21367487490E-02 -0.60035514963E-01 -0.93040613624E-01  0.88694159026E+00  0.88000000000E+00 0.  1.
        -11    1    4    4    0    0  0.43169434679E-02  0.94957791101E-02  0.29210712456E-01  0.31021487150E-01  0.51100000000E-03 0.  1.
         11    1    4    4    0    0 -0.16577500911E-02  0.61668842962E-01  0.82921515156E-01  0.10335392167E+00  0.51100000000E-03 0. -1.
</event>
<event>
 8    1  0.1076043E+005  0.1043930E+01  0.7957747E-01            NaN
         13   -1    0    0    0    0  0.00000000000E+00  0.00000000000E+00  0.74505805969E-08  0.10566000000E+00  0.10566000000E+00 0.  1.
     999900   -1    0    0    0    0 -0.00000000000E+00 -0.00000000000E+00 -0.74505805969E-08  0.93827000000E+00  0.93827000000E+00 0. -1.
     999902    2    1    2    0    0  0.22702289894E-01  0.52365218363E-02 -0.41060873611E-02  0.10202725470E+01  0.10199982329E+01 0.  0.
     999903    2    3    3    0    0  0.75212168581E-01 -0.46415257076E-01  0.95387414200E-01  0.13160829633E+00  0.20266684077E-01 0.  0.
         14    1    1    2    0    0 -0.22702289894E-01 -0.52365218363E-02  0.41060873611E-02  0.23657452965E-01  0.00000000000E+00 0. -1.
     999901    1    3    3    0    0 -0.52509878687E-01  0.51651778912E-01 -0.99493501561E-01  0.88866425070E+00  0.88000000000E+00 0.  1.
        -11    1    4    4    0    0  0.49880726962E-01 -0.39992688224E-01  0.74321491561E-01  0.98037988874E-01  0.51100000000E-03 0. -1.
         11    1    4    4    0    0  0.25331441619E-01 -0.64225688518E-02  0.21065922639E-01  0.33570307458E-01  0.51100000000E-03 0.  1.
</event>
<event>
 8    1  0.1076043E+005  0.1043930E+01  0.7957747E-01            NaN
         13   -1    0    0    0    0  0.00000000000E+00  0.00000000000E+00  0.74505805969E-08  0.10566000000E+00  0.10566000000E+00 0.  1.
     999900   -1    0    0    0    0 -0.00000000000E+00 -0.00000000000E+00 -0.74505805969E-08  0.93827000000E+00  0.93827000000E+00 0.  1.
     999902    2    1    2    0    0 -0.14352549162E-01 -0.19246943459E-01 -0.22799966591E-02  0.10198128094E+01  0.10195276000E+01 0.  0.
     999903    2    3    3    0    0 -0.38934534399E-01  0.98372990502E-01 -0.71207750329E-01  0.12897625976E+00  0.19266256663E-01 0.  0.
         14    1    1    2    0    0  0.14352549162E-01  0.19246943459E-01  0.22799966591E-02  0.24117190647E-01  0.00000000000E+00 0. -1.
     999901    1    3    3    0    0  0.24581985237E-01 -0.11761993396E+00  0.68927753670E-01  0.89083654959E+00  0.88000000000E+00 0.  1.
        -11    1    4    4    0    0 -0.35702032525E-01  0.94192521047E-01 -0.61815950047E-01  0.11818772757E+00  0.51100000000E-03 0. -1.
         11    1    4    4    0    0 -0.32325018742E-02  0.41804694542E-02 -0.93918002822E-02  0.10788532188E-01  0.51100000000E-03 0.  1.
</event>
<event>
 8    1  0.1076043E+005  0.1043930E+01  0.7957747E-01            NaN
         13   -1    0    0    0    0  0.00000000000E+00  0.00000000000E+00  0.74505805969E-08  0.10566000000E+00  0.10566000000E+00 0. -1.
     999900   -1    0    0    0    0 -0.00000000000E+00 -0.00000000000E+00 -0.74505805969E-08  0.93827000000E+00  0.93827000000E+00 0. -1.
     999902    2    1    2    0    0  0.19180018079E-01  0.36853381472E-02  0.67604466685E-02  0.10232621881E+01  0.10230534429E+01 0.  0.
     999903    2    3    3    0    0  0.41644580359E-01 -0.18303589635E-01 -0.12351090139E+00  0.13311681027E+00  0.19895978126E-01 0.  0.
         14    1    1    2    0    0 -0.19180018079E-01 -0.36853381472E-02 -0.67604466685E-02  0.20667811929E-01  0.00000000000E+00 0.  1.
     999901    1    3    3    0    0 -0.22464562280E-01  0.21988927782E-01  0.13027134806E+00  0.89014537781E+00  0.88000000000E+00 0.  1.
        -11    1    4    4    0    0  0.27989824110E-01 -0.15750994213E-01 -0.59529591735E-01  0.67642867218E-01  0.51100000000E-03 0. -1.
         11    1    4    4    0    0  0.13654756250E-01 -0.25525954218E-02 -0.63981309658E-01  0.65473943047E-01  0.51100000000E-03 0.  1.
</event>
<event>
 8    1  0.1076043E+005  0.1043930E+01  0.7957747E-01            NaN
         13   -1    0    0    0    0  0.00000000000E+00  0.00000000000E+00  0.74505805969E-08  0.10566000000E+00  0.10566000000E+00 0. -1.
     999900   -1    0    0    0    0 -0.00000000000E+00 -0.00000000000E+00 -0.74505805969E-08  0.93827000000E+00  0.93827000000E+00 0.  1.
     999902    2    1    2    0    0  0.48553575669E-02 -0.13851790390E-01  0.21335035128E-01  0.10180334690E+01  0.10177040403E+01 0.  0.
     999903    2    3    3    0    0 -0.81099928905E-01  0.82110945001E-01 -0.46611391103E-01  0.12606156658E+00  0.19987271744E-01 0.  0.
         14    1    1    2    0    0 -0.48553575669E-02  0.13851790390E-01 -0.21335035128E-01  0.25896531003E-01  0.00000000000E+00 0.  1.
     999901    1    3    3    0    0  0.85955286472E-01 -0.95962735390E-01  0.67946426230E-01  0.89197190241E+00  0.88000000000E+00 0.  1.
        -11    1    4    4    0    0 -0.14661113832E-01  0.26478520948E-01 -0.15336000674E-01  0.33933970709E-01  0.51100000000E-03 0.  1.
         11    1    4    4    0    0 -0.66438815073E-01  0.55632424052E-01 -0.31275390429E-01  0.92127595875E-01  0.51100000000E-03 0. -1.
</event>
<event>
 8    1  0.1076043E+005  0.1043930E+01  0.7957747E-01            NaN
         13   -1    0    0    0    0  0.00000000000E+00  0.00000000000E+00  0.74505805969E-08  0.10566000000E+00  0.10566000000E+00 0.  1.
     999900   -1    0    0    0    0 -0.00000000000E+00 -0.00000000000E+00 -0.74505805969E-08  0.93827000000E+00  0.93827000000E+00 0.  1.
     999902    2    1    2    0    0 -0.53917700194E-02  0.15709018551E-01 -0.17699266275E-01  0.10196584431E+01  0.10193695268E+01 0.  0.
     999903    2    3    3    0    0  0.10616951196E+00 -0.26807451744E-01 -0.67251223712E-01  0.13021537782E+00  0.21040741237E-01 0.  0.
         14    1    1    2    0    0  0.53917700194E-02 -0.15709018551E-01  0.17699266275E-01  0.24271556902E-01  0.00000000000E+00 0.  1.
     999901    1    3    3    0    0 -0.11156128198E+00  0.42516470295E-01  0.49551957436E-01  0.88944306528E+00  0.88000000000E+00 0.  1.
        -11    1    4    4    0    0  0.92952751882E-01 -0.27689557139E-01 -0.65032275735E-01  0.11677492738E+00  0.51100000000E-03 0.  1.
         11    1    4    4    0    0  0.13216760077E-01  0.88210539527E-03 -0.22189479763E-02  0.13440450438E-01  0.51100000000E-03 0. -1.
</event>
<event>
 8    1  0.1076043E+005  0.1043930E+01  0.7957747E-01            NaN
         13   -1    0    0    0    0  0.00000000000E+00  0.00000000000E+00  0.74505805969E-08  0.10566000000E+00  0.10566000000E+00 0.  1.
     999900   -1    0    0    0    0 -0.00000000000E+00 -0.00000000000E+00 -0.74505805969E-08  0.93827000000E+00  0.93827000000E+00 0. -1.
     999902    2    1    2    0    0 -0.34505783306E-02 -0.23866402729E-01 -0.79151988289E-02  0.10185496524E+01  0.10182333880E+01 0.  0.
     999903    2    3    3    0    0  0.99991113422E-01 -0.44052196868E-01 -0.67777176304E-01  0.13024165054E+00  0.20744230432E-01 0.  0.
         14    1    1    2    0    0  0.34505783306E-02  0.23866402729E-01  0.79151988289E-02  0.25380347565E-01  0.00000000000E+00 0.  1.
     999901    1    3    3    0    0 -0.10344169175E+00  0.20185794139E-01  0.59861977476E-01  0.88830800189E+00  0.88000000000E+00 0.  1.
        -11    1    4    4    0    0  0.71380377845E-01 -0.33484029888E-01 -0.37670906830E-01  0.87382475024E-01  0.51100000000E-03 0.  1.
         11    1    4    4    0    0  0.28610735576E-01 -0.10568166980E-01 -0.30106269474E-01  0.42859175519E-01  0.51100000000E-03 0. -1.
</event>
<event>
 8    1  0.1076043E+005  0.1043930E+01  0.7957747E-01            NaN
         13   -1    0    0    0    0  0.00000000000E+00  0.00000000000E+00  0.74505805969E-08  0.10566000000E+00  0.10566000000E+00 0.  1.
     999900   -1    0    0    0    0 -0.00000000000E+00 -0.00000000000E+00 -0.74505805969E-08  0.93827000000E+00  0.93827000000E+00 0.  1.
     999902    2    1    2    0    0  0.72474387537E-02 -0.21171148621E-01 -0.11416917167E-01  0.10188085172E+01  0.10184987510E+01 0.  0.
     999903    2    3    3    0    0  0.28484722770E-02  0.42670324769E-01  0.11795491313E+00  0.12705061554E+00  0.19990672015E-01 0.  0.
         14    1    1    2    0    0 -0.72474387537E-02  0.21171148621E-01  0.11416917167E-01  0.25121482839E-01  0.00000000000E+00 0. -1.
     999901    1    3    3    0    0  0.43989664767E-02 -0.63841473390E-01 -0.12937183030E+00  0.89175790162E+00  0.88000000000E+00 0.  1.
        -11    1    4    4    0    0  0.85997464306E-02  0.97054431610E-02  0.44039941967E-01  0.45912186564E-01  0.51100000000E-03 0.  1.
         11    1    4    4    0    0 -0.57512741536E-02  0.32964881608E-01  0.73914971162E-01  0.81138428975E-01  0.51100000000E-03 0. -1.
</event>
<event>
 8    1  0.1076043E+005  0.1043930E+01  0.7957747E-01            NaN
         13   -1    0    0    0    0  0.00000000000E+00  0.00000000000E+00  0.74505805969E-08  0.10566000000E+00  0.10566000000E+00 0. -1.
     999900   -1    0    0    0    0 -0.00000000000E+00 -0.00000000000E+00 -0.74505805969E-08  0.93827000000E+00  0.93827000000E+00 0. -1.
     999902    2    1    2    0    0  0.32066403790E-02  0.14130818089E-01 -0.19070153353E-01  0.10199793568E+01  0.10196981195E+01 0.  0.
     999903    2    3    3    0    0  0.70365764633E-01  0.24363867320E-01  0.10337950722E+00  0.12890754000E+00  0.19618677100E-01 0.  0.
         14    1    1    2    0    0 -0.32066403790E-02 -0.14130818089E-01  0.19070153353E-01  0.23950643234E-01  0.00000000000E+00 0. -1.
     999901    1    3    3    0    0 -0.67159124254E-01 -0.10233049230E-01 -0.12244966058E+00  0.89107181677E+00  0.88000000000E+00 0. -1.
        -11    1    4    4    0    0  0.31153866804E-01  0.18194609910E-01  0.37856168005E-01  0.52296824222E-01  0.51100000000E-03 0.  1.
         11    1    4    4    0    0  0.39211897829E-01  0.61692574099E-02  0.65523339217E-01  0.76610715774E-01  0.51100000000E-03 0. -1.
</event>
<event>
 8    1  0.1076043E+005  0.1043930E+01  0.7957747E-01            NaN
         13   -1    0    0    0    0  0.00000000000E+00  0.00000000000E+00  0.74505805969E-08  0.10566000000E+00  0.10566000000E+00 0. -1.
     999900   -1    0    0    0    0 -0.00000000000E+00 -0.00000000000E+00 -0.74505805969E-08  0.93827000000E+00  0.93827000000E+00 0.  1.
     999902    2    1    2    0    0 -0.84736876374E-02  0.38606966229E-03  0.20497023666E-01  0.10217471145E+01  0.10215062826E+01 0.  0.
     999903    2    3    3    0    0 -0.83512232859E-01  0.54256906330E-01  0.87899934219E-01  0.13434866806E+00  0.20126133560E-01 0.  0.
         14    1    1    2    0    0  0.84736876374E-02 -0.38606966229E-03 -0.20497023666E-01  0.22182885546E-01  0.00000000000E+00 0.  1.
     999901    1    3    3    0    0  0.75038545222E-01 -0.53870836668E-01 -0.67402910553E-01  0.88739844639E+00  0.88000000000E+00 0. -1.
        -11    1    4    4    0    0 -0.36523891420E-01  0.13505027856E-01  0.40141240066E-01  0.55928174446E-01  0.51100000000E-03 0.  1.
         11    1    4    4    0    0 -0.46988341439E-01  0.40751878474E-01  0.47758694153E-01  0.78420493613E-01  0.51100000000E-03 0. -1.
</event>
<event>
 8    1  0.1076043E+005  0.1043930E+01  0.7957747E-01            NaN
         13   -1    0    0    0    0  0.00000000000E+00  0.00000000000E+00  0.74505805969E-08  0.10566000000E+00  0.10566000000E+00 0.  1.
     999900   -1    0    0    0    0 -0.00000000000E+00 -0.00000000000E+00 -0.74505805969E-08  0.93827000000E+00  0.93827000000E+00 0.  1.
     999902    2    1    2    0    0 -0.18558281829E-02  0.21308591619E-01 -0.13325495649E-01  0.10187294244E+01  0.10184176801E+01 0.  0.
     999903    2    3    3    0    0  0.84454630456E-01 -0.55381615098E-01  0.73874756208E-01  0.12691399116E+00  0.21212582409E-01 0.  0.
         14    1    1    2    0    0  0.18558281829E-02 -0.21308591619E-01  0.13325495649E-01  0.25200575575E-01  0.00000000000E+00 0.  1.
     999901    1    3    3    0    0 -0.86310458638E-01  0.76690206717E-01 -0.87200251856E-01  0.89181543326E+00  0.88000000000E+00 0.  1.
        -11    1    4    4    0    0  0.19436094891E-01 -0.23636083259E-01  0.25946117323E-01  0.40123413882E-01  0.51100000000E-03 0. -1.
         11    1    4    4    0    0  0.65018535565E-01 -0.31745531839E-01  0.47928638884E-01  0.86790577282E-01  0.51100000000E-03 0.  1.
</event>
<event>
 8    1  0.1076043E+005  0.1043930E+01  0.7957747E-01            NaN
         13   -1    0    0    0    0  0.00000000000E+00  0.00000000000E+00  0.74505805969E-08  0.10566000000E+00  0.10566000000E+00 0. -1.
     999900   -1    0    0    0    0 -0.00000000000E+00 -0.00000000000E+00 -0.74505805969E-08  0.93827000000E+00  0.93827000000E+00 0. -1.
     999902    2    1    2    0    0  0.22289121416E-01  0.43178085432E-02 -0.69204072857E-03  0.10212159664E+01  0.10209633307E+01 0.  0.
     999903    2    3    3    0    0 -0.90262600646E-01  0.77304682863E-01 -0.49815410457E-01  0.12969587156E+00  0.14700099104E-01 0.  0.
         14    1    1    2    0    0 -0.22289121416E-01 -0.43178085432E-02  0.69204072857E-03  0.22714033646E-01  0.00000000000E+00 0. -1.
     999901    1    3    3    0    0  0.11255172206E+00 -0.72986874320E-01  0.49123369728E-01  0.89152009479E+00  0.88000000000E+00 0.  1.
        -11    1    4    4    0    0 -0.52367518126E-01  0.45716342186E-01 -0.36868610947E-01  0.78688604586E-01  0.51100000000E-03 0.  1.
         11    1    4    4    0    0 -0.37895082521E-01  0.31588340677E-01 -0.12946799509E-01  0.51007266978E-01  0.51100000000E-03 0. -1.
</event>
<event>
 8    1  0.1076043E+005  0.1043930E+01  0.7957747E-01            NaN
         13   -1    0    0    0    0  0.00000000000E+00  0.00000000000E+00  0.74505805969E-08  0.10566000000E+00  0.10566000000E+00 0. -1.
     999900   -1    0    0    0    0 -0.00000000000E+00 -0.00000000000E+00 -0.74505805969E-08  0.93827000000E+00  0.93827000000E+00 0.  1.
     999902    2    1    2    0    0  0.14333821999E-01 -0.18437546400E-01  0.26461942572E-02  0.10204267255E+01  0.10201560166E+01 0.  0.
     999903    2    3    3    0    0 -0.92870192602E-01 -0.23916869379E-01 -0.84896164889E-01  0.12959206719E+00  0.19744765129E-01 0.  0.
         14    1    1    2    0    0 -0.14333821999E-01  0.18437546400E-01 -0.26461942572E-02  0.23503274546E-01  0.00000000000E+00 0.  1.
     999901    1    3    3    0    0  0.10720401460E+00  0.54793229790E-02  0.87542359146E-01  0.89083465827E+00  0.88000000000E+00 0. -1.
        -11    1    4    4    0    0 -0.29805394413E-01  0.15660632174E-02 -0.27620670810E-01  0.40669111954E-01  0.51100000000E-03 0. -1.
         11    1    4    4    0    0 -0.63064798189E-01 -0.25482932596E-01 -0.57275494079E-01  0.88922955232E-01  0.51100000000E-03 0.  1.
</event>
<event>
 7    1  0.1076043E+005  0.1043930E+01  0.7957747E-01            NaN
         13   -1    0    0    0    0  0.00000000000E+00  0.00000000000E+00  0.74505805969E-08  0.10566000000E+00  0.10566000000E+00 0. -1.
     999900   -1    0    0    0    0 -0.00000000000E+00 -0.00000000000E+00 -0.74505805969E-08  0.93827000000E+00  0.93827000000E+00 0. -1.
     999903    2    1    2    0    0  0.11759413355E-01 -0.32997288369E-01 -0.10300598455E+00  0.11112758966E+00  0.22627494068E-01 0.  0.
         14    1    1    2    0    0 -0.26817151519E-01  0.32223256953E-01  0.25955406383E-01  0.49307007867E-01  0.00000000000E+00 0. -1.
     999901    1    1    2    0    0  0.15057738165E-01  0.77403141646E-03  0.77050578166E-01  0.88349540248E+00  0.88000000000E+00 0.  1.
        -11    1    3    3    0    0  0.17710371660E-01 -0.16731200012E-01 -0.59306552197E-01  0.64118005058E-01  0.51100000000E-03 0.  1.
         11    1    3    3    0    0 -0.59509583051E-02 -0.16266088357E-01 -0.43699432352E-01  0.47009584598E-01  0.51100000000E-03 0. -1.
</event>
<event>
 8    1  0.1076043E+005  0.1043930E+01  0.7957747E-01            NaN
         13   -1    0    0    0    0  0.00000000000E+00  0.00000000000E+00  0.74505805969E-08  0.10566000000E+00  0.10566000000E+00 0.  1.
     999900   -1    0    0    0    0 -0.00000000000E+00 -0.00000000000E+00 -0.74505805969E-08  0.93827000000E+00  0.93827000000E+00 0. -1.
     999902    2    1    2    0    0  0.25359432087E-01 -0.10863747931E-02  0.54960912775E-02  0.10179590927E+01  0.10176277445E+01 0.  0.
     999903    2    3    3    0    0 -0.94573366220E-01  0.41379225347E-01 -0.68889621289E-01  0.12570327876E+00  0.19979301306E-01 0.  0.
         14    1    1    2    0    0 -0.25359432087E-01  0.10863747931E-02 -0.54960912775E-02  0.25970907286E-01  0.00000000000E+00 0. -1.
     999901    1    3    3    0    0  0.11993279831E+00 -0.42465600140E-01  0.74385712566E-01  0.89225581396E+00  0.88000000000E+00 0.  1.
        -11    1    4    4    0    0 -0.30106550682E-01  0.61310991280E-02 -0.28231722764E-01  0.41728719867E-01  0.51100000000E-03 0. -1.
         11    1    4    4    0    0 -0.64466815537E-01  0.35248126218E-01 -0.40657898525E-01  0.83974558891E-01  0.51100000000E-03 0.  1.
</event>
<event>
 8    1  0.1076043E+005  0.1043930E+01  0.7957747E-01            NaN
         13   -1    0    0    0    0  0.00000000000E+00  0.00000000000E+00  0.74505805969E-08  0.10566000000E+00  0.10566000000E+00 0.  1.
     999900   -1    0    0    0    0 -0.00000000000E+00 -0.00000000000E+00 -0.74505805969E-08  0.93827000000E+00  0.93827000000E+00 0. -1.
     999902    2    1    2    0    0 -0.10747378981E-01  0.19044878158E-01  0.52435685396E-02  0.10214420354E+01  0.10211944591E+01 0.  0.
     999903    2    3    3    0    0  0.66609302655E-01 -0.95201343629E-01 -0.52100478940E-01  0.12884772940E+00  0.19676951946E-01 0.  0.
         14    1    1    2    0    0  0.10747378981E-01 -0.19044878158E-01 -0.52435685396E-02  0.22487964560E-01  0.00000000000E+00 0. -1.
     999901    1    3    3    0    0 -0.77356681636E-01  0.11424622179E+00  0.57344047480E-01  0.89259430604E+00  0.88000000000E+00 0.  1.
        -11    1    4    4    0    0  0.54930413356E-01 -0.88751157713E-01 -0.47972031526E-01  0.11487251732E+00  0.51100000000E-03 0. -1.
         11    1    4    4    0    0  0.11678889299E-01 -0.64501859158E-02 -0.41284474147E-02  0.13975212079E-01  0.51100000000E-03 0.  1.
</event>
<event>
 8    1  0.1076043E+005  0.1043930E+01  0.7957747E-01            NaN
         13   -1    0    0    0    0  0.00000000000E+00  0.00000000000E+00  0.74505805969E-08  0.10566000000E+00  0.10566000000E+00 0. -1.
     999900   -1    0    0    0    0 -0.00000000000E+00 -0.00000000000E+00 -0.74505805969E-08  0.93827000000E+00  0.93827000000E+00 0. -1.
     999902    2    1    2    0    0 -0.39112971901E-02 -0.13324582481E-01 -0.19465173620E-01  0.10200190040E+01  0.10197387081E+01 0.  0.
     999903    2    3    3    0    0 -0.33201356288E-01  0.10564567262E+00 -0.66114652096E-01  0.13030668929E+00  0.18583537083E-01 0.  0.
         14    1    1    2    0    0  0.39112971901E-02  0.13324582481E-01  0.19465173620E-01  0.23910995965E-01  0.00000000000E+00 0. -1.
     999901    1    3    3    0    0  0.29290059098E-01 -0.11897025510E+00  0.46649478476E-01  0.88971231474E+00  0.88000000000E+00 0.  1.
        -11    1    4    4    0    0 -0.33381212575E-02  0.27307448316E-01 -0.93587630051E-02  0.29063505519E-01  0.51100000000E-03 0. -1.
         11    1    4    4    0    0 -0.29863235031E-01  0.78338224302E-01 -0.56755889091E-01  0.10124318377E+00  0.51100000000E-03 0.  1.
</event>
<event>
 8    1  0.1076043E+005  0.1043930E+01  0.7957747E-01            NaN
         13   -1    0    0    0    0  0.00000000000E+00  0.00000000000E+00  0.74505805969E-08  0.10566000000E+00  0.10566000000E+00 0.  1.
     999900   -1    0    0    0    0 -0.00000000000E+00 -0.00000000000E+00 -0.74505805969E-08  0.93827000000E+00  0.93827000000E+00 0.  1.
     999902    2    1    2    0    0  0.22085171443E-02  0.18238660517E-01  0.25792816327E-02  0.10253779387E+01  0.10252100946E+01 0.  0.
     999903    2    3    3    0    0  0.56901667439E-01 -0.66794000717E-01  0.99257135507E-01  0.13432883701E+00  0.22204035970E-01 0.  0.
         14    1    1    2    0    0 -0.22085171443E-02 -0.18238660517E-01 -0.25792816327E-02  0.18552061319E-01  0.00000000000E+00 0. -1.
     999901    1    3    3    0    0 -0.54693150294E-01  0.85032661234E-01 -0.96677853874E-01  0.89104910167E+00  0.88000000000E+00 0. -1.
        -11    1    4    4    0    0  0.23993260453E-01 -0.24486317219E-01  0.23660834626E-01  0.41657562271E-01  0.51100000000E-03 0. -1.
         11    1    4    4    0    0  0.32908406986E-01 -0.42307683497E-01  0.75596300881E-01  0.92671274735E-01  0.51100000000E-03 0.  1.
</event>
<event>
 8    1  0.1076043E+005  0.1043930E+01  0.7957747E-01            NaN
         13   -1    0    0    0    0  0.00000000000E+00  0.00000000000E+00  0.74505805969E-08  0.10566000000E+00  0.10566000000E+00 0. -1.
     999900   -1    0    0    0    0 -0.00000000000E+00 -0.00000000000E+00 -0.74505805969E-08  0.93827000000E+00  0.93827000000E+00 0. -1.
     999902    2    1    2    0    0 -0.14647677324E-02  0.23459581785E-01  0.73516663072E-02  0.10193018754E+01  0.10190043026E+01 0.  0.
     999903    2    3    3    0    0  0.12497777613E+00 -0.20163386608E-01  0.16215283159E-01  0.12915062763E+00  0.19772266538E-01 0.  0.
         14    1    1    2    0    0  0.14647677324E-02 -0.23459581785E-01 -0.73516663072E-02  0.24628124564E-01  0.00000000000E+00 0. -1.
     999901    1    3    3    0    0 -0.12644254386E+00  0.43622968394E-01 -0.88636168517E-02  0.89015124781E+00  0.88000000000E+00 0.  1.
        -11    1    4    4    0    0  0.74842671047E-01 -0.61062488150E-02  0.17333223643E-01  0.77067590120E-01  0.51100000000E-03 0. -1.
         11    1    4    4    0    0  0.50135105079E-01 -0.14057137793E-01 -0.11179404840E-02  0.52083037508E-01  0.51100000000E-03 0.  1.
</event>
<event>
 8    1  0.1076043E+005  0.1043930E+01  0.7957747E-01            NaN
         13   -1    0    0    0    0  0.00000000000E+00  0.00000000000E+00  0.74505805969E-08  0.10566000000E+00  0.10566000000E+00 0.  1.
     999900   -1    0    0    0    0 -0.00000000000E+00 -0.00000000000E+00 -0.74505805969E-08  0.93827000000E+00  0.93827000000E+00 0. -1.
     999902    2    1    2    0    0  0.10331245013E-01 -0.47480486780E-02 -0.20729500162E-01  0.10202870144E+01  0.10200130396E+01 0.  0.
     999903    2    3    3    0    0 -0.19236962382E-01  0.10755468746E+00  0.64835290702E-01  0.12854292733E+00  0.19534526622E-01 0.  0.
         14    1    1    2    0    0 -0.10331245013E-01  0.47480486780E-02  0.20729500162E-01  0.23642985571E-01  0.00000000000E+00 0.  1.
     999901    1    3    3    0    0  0.29568207395E-01 -0.11230273614E+00 -0.85564790864E-01  0.89174408709E+00  0.88000000000E+00 0.  1.
        -11    1    4    4    0    0 -0.15140225286E-01  0.49886586420E-01  0.21998335517E-01  0.56586975647E-01  0.51100000000E-03 0.  1.
         11    1    4    4    0    0 -0.40967370962E-02  0.57668101042E-01  0.42836955185E-01  0.71955951687E-01  0.51100000000E-03 0. -1.
</event>
<event>
 8    1  0.1076043E+005  0.1043930E+01  0.7957747E-01            NaN
         13   -1    0    0    0    0  0.00000000000E+00  0.00000000000E+00  0.74505805969E-08  0.10566000000E+00  0.10566000000E+00 0.  1.
     999900   -1    0    0    0    0 -0.00000000000E+00 -0.00000000000E+00 -0.74505805969E-08  0.93827000000E+00  0.93827000000E+00 0. -1.
     999902    2    1    2    0    0  0.14170572989E-01 -0.15838961305E-01 -0.93491428163E-02  0.10207118109E+01  0.10204477040E+01 0.  0.
     999903    2    3    3    0    0  0.12478923946E+00 -0.39840070003E-01 -0.14565020066E-01  0.13344649095E+00  0.20886375369E-01 0.  0.
         14    1    1    2    0    0 -0.14170572989E-01  0.15838961305E-01  0.93491428163E-02  0.23218189108E-01  0.00000000000E+00 0.  1.
     999901    1    3    3    0    0 -0.11061866647E+00  0.24001108698E-01  0.52158772492E-02  0.88726531994E+00  0.88000000000E+00 0.  1.
        -11    1    4    4    0    0  0.33188873373E-01 -0.60397149708E-02  0.42717504639E-02  0.34007182267E-01  0.51100000000E-03 0. -1.
         11    1    4    4    0    0  0.91600366084E-01 -0.33800355032E-01 -0.18836770529E-01  0.99439308687E-01  0.51100000000E-03 0.  1.
</event>
<event>
 8    1  0.1076043E+005  0.1043930E+01  0.7957747E-01            NaN
         13   -1    0    0    0    0  0.00000000000E+00  0.00000000000E+00  0.74505805969E-08  0.10566000000E+00  0.10566000000E+00 0.  1.
     999900   -1    0    0    0    0 -0.00000000000E+00 -0.00000000000E+00 -0.74505805969E-08  0.93827000000E+00  0.93827000000E+00 0.  1.
     999902    2    1    2    0    0  0.52894039997E-02 -0.91192656880E-02 -0.19990507664E-01  0.10213300177E+01  0.10210799410E+01 0.  0.
     999903    2    3    3    0    0  0.56452408154E-01 -0.95586878319E-01  0.67262508693E-01  0.13132586613E+00  0.19962773994E-01 0.  0.
         14    1    1    2    0    0 -0.52894039997E-02  0.91192656880E-02  0.19990507664E-01  0.22599982257E-01  0.00000000000E+00 0.  1.
     999901    1    3    3    0    0 -0.51163004154E-01  0.86467612631E-01 -0.87253016356E-01  0.89000415161E+00  0.88000000000E+00 0.  1.
        -11    1    4    4    0    0  0.38398212492E-01 -0.67295229364E-01  0.35921040563E-01  0.85402885747E-01  0.51100000000E-03 0. -1.
         11    1    4    4    0    0  0.18054195661E-01 -0.28291648955E-01  0.31341468130E-01  0.45922980381E-01  0.51100000000E-03 0.  1.
</event>
<event>
 8    1  0.1076043E+005  0.1043930E+01  0.7957747E-01            NaN
         13   -1    0    0    0    0  0.00000000000E+00  0.00000000000E+00  0.74505805969E-08  0.10566000000E+00  0.10566000000E+00 0. -1.
     999900   -1    0    0    0    0 -0.00000000000E+00 -0.00000000000E+00 -0.74505805969E-08  0.93827000000E+00  0.93827000000E+00 0.  1.
     999902    2    1    2    0    0  0.18630446407E-01 -0.51865600972E-03  0.63412034166E-02  0.10242431161E+01  0.10240538987E+01 0.  0.
     999903    2    3    3    0    0  0.34815478802E-02 -0.13129671624E+00 -0.18951696592E-01  0.13409025227E+00  0.19237465532E-01 0.  0.
         14    1    1    2    0    0 -0.18630446407E-01  0.51865600972E-03 -0.63412034166E-02  0.19686883912E-01  0.00000000000E+00 0. -1.
     999901    1    3    3    0    0  0.15148898527E-01  0.13077806023E+00  0.25292900009E-01  0.89015286381E+00  0.88000000000E+00 0. -1.
        -11    1    4    4    0    0  0.15038804167E-02 -0.64302162134E-01 -0.18983261955E-01  0.67064558948E-01  0.51100000000E-03 0. -1.
         11    1    4    4    0    0  0.19776674635E-02 -0.66994554107E-01  0.31565362796E-04  0.67025693327E-01  0.51100000000E-03 0.  1.
</event>
<event>
 8    1  0.1076043E+005  0.1043930E+01  0.7957747E-01            NaN
         13   -1    0    0    0    0  0.00000000000E+00  0.00000000000E+00  0.74505805969E-08  0.10566000000E+00  0.10566000000E+00 0. -1.
     999900   -1    0    0    0    0 -0.00000000000E+00 -0.00000000000E+00 -0.74505805969E-08  0.93827000000E+00  0.93827000000E+00 0.  1.
     999902    2    1    2    0    0  0.12594241000E-01  0.12149701504E-01  0.16352355174E-01  0.10199794327E+01  0.10196981973E+01 0.  0.
     999903    2    3    3    0    0 -0.60590030881E-01 -0.33207376218E-01  0.10929310535E+00  0.13090621572E+00  0.20434597161E-01 0.  0.
         14    1    1    2    0    0 -0.12594241000E-01 -0.12149701504E-01 -0.16352355174E-01  0.23950567274E-01  0.00000000000E+00 0.  1.
     999901    1    3    3    0    0  0.73184271881E-01  0.45357077722E-01 -0.92940750172E-01  0.88907321700E+00  0.88000000000E+00 0. -1.
        -11    1    4    4    0    0 -0.33679541057E-01 -0.11996446674E-01  0.71156287914E-01  0.79634820583E-01  0.51100000000E-03 0. -1.
         11    1    4    4    0    0 -0.26910489823E-01 -0.21210929544E-01  0.38136817432E-01  0.51271395139E-01  0.51100000000E-03 0.  1.
</event>
<event>
 8    1  0.1076043E+005  0.1043930E+01  0.7957747E-01            NaN
         13   -1    0    0    0    0  0.00000000000E+00  0.00000000000E+00  0.74505805969E-08  0.10566000000E+00  0.10566000000E+00 0. -1.
     999900   -1    0    0    0    0 -0.00000000000E+00 -0.00000000000E+00 -0.74505805969E-08  0.93827000000E+00  0.93827000000E+00 0.  1.
     999902    2    1    2    0    0  0.17189476026E-01  0.59740723752E-02  0.15158016049E-01  0.10202459742E+01  0.10199710363E+01 0.  0.
     999903    2    3    3    0    0  0.10761904948E+00 -0.53431024678E-01  0.52818397265E-01  0.13282004625E+00  0.20362892414E-01 0.  0.
         14    1    1    2    0    0 -0.17189476026E-01 -0.59740723752E-02 -0.15158016049E-01  0.23684025784E-01  0.00000000000E+00 0.  1.
     999901    1    3    3    0    0 -0.90429573454E-01  0.59405097053E-01 -0.37660381215E-01  0.88742592796E+00  0.88000000000E+00 0.  1.
        -11    1    4    4    0    0  0.27210588436E-01 -0.41748165526E-02  0.10607326863E-01  0.29506299674E-01  0.51100000000E-03 0.  1.
         11    1    4    4    0    0  0.80408461044E-01 -0.49256208125E-01  0.42211070401E-01  0.10331374658E+00  0.51100000000E-03 0. -1.
</event>
<event>
 8    1  0.1076043E+005  0.1043930E+01  0.7957747E-01            NaN
         13   -1    0    0    0    0  0.00000000000E+00  0.00000000000E+00  0.74505805969E-08  0.10566000000E+00  0.10566000000E+00 0.  1.
     999900   -1    0    0    0    0 -0.00000000000E+00 -0.00000000000E+00 -0.74505805969E-08  0.93827000000E+00  0.93827000000E+00 0. -1.
     999902    2    1    2    0    0  0.10525508698E-01  0.16962207663E-01 -0.11348870901E-01  0.10209669929E+01  0.10207087249E+01 0.  0.
     999903    2    3    3    0    0  0.74106274034E-01  0.57139499637E-01  0.90711702262E-01  0.13188145763E+00  0.20185233962E-01 0.  0.
         14    1    1    2    0    0 -0.10525508698E-01 -0.16962207663E-01  0.11348870901E-01  0.22963007052E-01  0.00000000000E+00 0. -1.
     999901    1    3    3    0    0 -0.63580765336E-01 -0.40177291975E-01 -0.10206057316E+00  0.88908553531E+00  0.88000000000E+00 0. -1.
        -11    1    4    4    0    0  0.50660661829E-01  0.26711292448E-01  0.56137075598E-01  0.80197432496E-01  0.51100000000E-03 0. -1.
         11    1    4    4    0    0  0.23445612205E-01  0.30428207190E-01  0.34574626664E-01  0.51684025138E-01  0.51100000000E-03 0.  1.
</event>
<event>
 8    1  0.1076043E+005  0.1043930E+01  0.7957747E-01            NaN
         13   -1    0    0    0    0  0.00000000000E+00  0.00000000000E+00  0.74505805969E-08  0.10566000000E+00  0.10566000000E+00 0. -1.
     999900   -1    0    0    0    0 -0.00000000000E+00 -0.00000000000E+00 -0.74505805969E-08  0.93827000000E+00  0.93827000000E+00 0.  1.
     999902    2    1    2    0    0  0.10607622248E-01 -0.11199491569E-01 -0.13876716562E-01  0.10231811802E+01  0.10229707786E+01 0.  0.
     999903    2    3    3    0    0 -0.35271937879E-01 -0.12106860231E+00  0.39601162461E-01  0.13355427014E+00  0.19151369082E-01 0.  0.
         14    1    1    2    0    0 -0.10607622248E-01  0.11199491569E-01  0.13876716562E-01  0.20748819815E-01  0.00000000000E+00 0. -1.
     999901    1    3    3    0    0  0.45879560127E-01  0.10986911074E+00 -0.53477879023E-01  0.88962691005E+00  0.88000000000E+00 0.  1.
        -11    1    4    4    0    0 -0.40499114147E-02 -0.46332858377E-01  0.16032548135E-01  0.49197960004E-01  0.51100000000E-03 0.  1.
         11    1    4    4    0    0 -0.31222026464E-01 -0.74735743931E-01  0.23568614325E-01  0.84356310135E-01  0.51100000000E-03 0. -1.
</event>
<event>
 8    1  0.1076043E+005  0.1043930E+01  0.7957747E-01            NaN
         13   -1    0    0    0    0  0.00000000000E+00  0.00000000000E+00  0.74505805969E-08  0.10566000000E+00  0.10566000000E+00 0. -1.
     999900   -1    0    0    0    0 -0.00000000000E+00 -0.00000000000E+00 -0.74505805969E-08  0.93827000000E+00  0.93827000000E+00 0.  1.
     999902    2    1    2    0    0 -0.10905411809E-01  0.17897948454E-01  0.11714999690E-01  0.10199194652E+01  0.10196368028E+01 0.  0.
     999903    2    3    3    0    0  0.10653902752E-01  0.12966126777E+00 -0.14208864289E-01  0.13221011503E+00  0.18763600033E-01 0.  0.
         14    1    1    2    0    0  0.10905411809E-01 -0.17897948454E-01 -0.11714999690E-01  0.24010534840E-01  0.00000000000E+00 0.  1.
     999901    1    3    3    0    0 -0.21559314560E-01 -0.11176331932E+00  0.25923863979E-01  0.88770935013E+00  0.88000000000E+00 0. -1.
        -11    1    4    4    0    0  0.71155353281E-02  0.14200052447E-01 -0.27377333412E-02  0.16125403479E-01  0.51100000000E-03 0.  1.
         11    1    4    4    0    0  0.35383674234E-02  0.11546121533E+00 -0.11471130948E-01  0.11608471155E+00  0.51100000000E-03 0. -1.
</event>
<event>
 8    1  0.1076043E+005  0.1043930E+01  0.7957747E-01            NaN
         13   -1    0    0    0    0  0.00000000000E+00  0.00000000000E+00  0.74505805969E-08  0.10566000000E+00  0.10566000000E+00 0.  1.
     999900   -1    0    0    0    0 -0.00000000000E+00 -0.00000000000E+00 -0.74505805969E-08  0.93827000000E+00  0.93827000000E+00 0.  1.
     999902    2    1    2    0    0  0.76086356725E-02 -0.16108894372E-01 -0.15879387138E-01  0.10200649052E+01  0.10197856971E+01 0.  0.
     999903    2    3    3    0    0  0.34464216709E-01  0.52702704706E-01  0.10976018702E+00  0.12807748319E+00  0.19778415728E-01 0.  0.
         14    1    1    2    0    0 -0.76086356725E-02  0.16108894372E-01  0.15879387138E-01  0.23865094815E-01  0.00000000000E+00 0.  1.
     999901    1    3    3    0    0 -0.26855581037E-01 -0.68811599078E-01 -0.12563957416E+00  0.89198742199E+00  0.88000000000E+00 0.  1.
        -11    1    4    4    0    0  0.20837480404E-01  0.31233860632E-01  0.83318931581E-01  0.91389606195E-01  0.51100000000E-03 0.  1.
         11    1    4    4    0    0  0.13626736305E-01  0.21468844074E-01  0.26441255440E-01  0.36687876996E-01  0.51100000000E-03 0. -1.
</event>
<event>
 8    1  0.1076043E+005  0.1043930E+01  0.7957747E-01            NaN
         13   -1    0    0    0    0  0.00000000000E+00  0.00000000000E+00  0.74505805969E-08  0.10566000000E+00  0.10566000000E+00 0. -1.
     999900   -1    0    0    0    0 -0.00000000000E+00 -0.00000000000E+00 -0.74505805969E-08  0.93827000000E+00  0.93827000000E+00 0. -1.
     999902    2    1    2    0    0  0.70052806487E-03  0.20915021807E-01  0.11546129541E-01  0.10200293309E+01  0.10197492799E+01 0.  0.
     999903    2    3    3    0    0 -0.66466806002E-03  0.44338046111E-03  0.13027003276E+00  0.13181971764E+00  0.20137481342E-01 0.  0.
         14    1    1    2    0    0 -0.70052806487E-03 -0.20915021807E-01 -0.11546129541E-01  0.23900669115E-01  0.00000000000E+00 0.  1.
     999901    1    3    3    0    0  0.13651961249E-02  0.20471641346E-01 -0.11872390322E+00  0.88820961324E+00  0.88000000000E+00 0. -1.
        -11    1    4    4    0    0  0.52969097481E-02  0.49360763816E-02  0.19662933556E-01  0.20959822995E-01  0.51100000000E-03 0.  1.
         11    1    4    4    0    0 -0.59615778081E-02 -0.44926959204E-02  0.11060709920E+00  0.11085989465E+00  0.51100000000E-03 0. -1.
</event>
<event>
 8    1  0.1076043E+005  0.1043930E+01  0.7957747E-01            NaN
         13   -1    0    0    0    0  0.00000000000E+00  0.00000000000E+00  0.74505805969E-08  0.10566000000E+00  0.10566000000E+00 0.  1.
     999900   -1    0    0    0    0 -0.00000000000E+00 -0.00000000000E+00 -0.74505805969E-08  0.93827000000E+00  0.93827000000E+00 0. -1.
     999902    2    1    2    0    0  0.19839162811E-01  0.89063722412E-02  0.97072189947E-02  0.10201151738E+01  0.10198371546E+01 0.  0.
     999903    2    3    3    0    0 -0.83297153897E-01 -0.69515333971E-01 -0.64034444993E-01  0.12757671699E+00  0.20114946390E-01 0.  0.
         14    1    1    2    0    0 -0.19839162811E-01 -0.89063722412E-02 -0.97072189947E-02  0.23814826225E-01  0.00000000000E+00 0. -1.
     999901    1    3    3    0    0  0.10313631671E+00  0.78421706212E-01  0.73741663987E-01  0.89253845678E+00  0.88000000000E+00 0.  1.
        -11    1    4    4    0    0 -0.35548055548E-01 -0.30990022800E-01 -0.39423699755E-01  0.61469789244E-01  0.51100000000E-03 0. -1.
         11    1    4    4    0    0 -0.47749098349E-01 -0.38525311171E-01 -0.24610745238E-01  0.66106927747E-01  0.51100000000E-03 0.  1.
</event>
<event>
 8    1  0.1076043E+005  0.1043930E+01  0.7957747E-01            NaN
         13   -1    0    0    0    0  0.00000000000E+00  0.00000000000E+00  0.74505805969E-08  0.10566000000E+00  0.10566000000E+00 0.  1.
     999900   -1    0    0    0    0 -0.00000000000E+00 -0.00000000000E+00 -0.74505805969E-08  0.93827000000E+00  0.93827000000E+00 0.  1.
     999902    2    1    2    0    0  0.32154174194E-02  0.80774679373E-02  0.24019506566E-01  0.10183855076E+01  0.10180650868E+01 0.  0.
     999903    2    3    3    0    0  0.15025426765E-02  0.60960387117E-01 -0.10907728592E+00  0.12680584583E+00  0.21527698448E-01 0.  0.
         14    1    1    2    0    0 -0.32154174194E-02 -0.80774679373E-02 -0.24019506566E-01  0.25544492423E-01  0.00000000000E+00 0. -1.
     999901    1    3    3    0    0  0.17128747428E-02 -0.52882919179E-01  0.13309679248E+00  0.89157966175E+00  0.88000000000E+00 0. -1.
        -11    1    4    4    0    0 -0.20205130778E-02  0.57881612014E-01 -0.89018255895E-01  0.10620204558E+00  0.51100000000E-03 0.  1.
         11    1    4    4    0    0  0.35230557543E-02  0.30787751022E-02 -0.20059030022E-01  0.20603800242E-01  0.51100000000E-03 0. -1.
</event>
<event>
 8    1  0.1076043E+005  0.1043930E+01  0.7957747E-01            NaN
         13   -1    0    0    0    0  0.00000000000E+00  0.00000000000E+00  0.74505805969E-08  0.10566000000E+00  0.10566000000E+00 0.  1.
     999900   -1    0    0    0    0 -0.00000000000E+00 -0.00000000000E+00 -0.74505805969E-08  0.93827000000E+00  0.93827000000E+00 0. -1.
     999902    2    1    2    0    0 -0.10739122815E-01 -0.11882452563E-01  0.21849946438E-01  0.10168386435E+01  0.10164776856E+01 0.  0.
     999903    2    3    3    0    0  0.53573574989E-01 -0.11409471125E+00 -0.99372699735E-02  0.12802263551E+00  0.20082698965E-01 0.  0.
         14    1    1    2    0    0  0.10739122815E-01  0.11882452563E-01 -0.21849946438E-01  0.27091356502E-01  0.00000000000E+00 0. -1.
     999901    1    3    3    0    0 -0.64312697804E-01  0.10221225868E+00  0.31787216412E-01  0.88881600799E+00  0.88000000000E+00 0.  1.
        -11    1    4    4    0    0  0.81924708899E-02 -0.19701938965E-01 -0.93069364461E-02  0.23284397464E-01  0.51100000000E-03 0. -1.
         11    1    4    4    0    0  0.45381104099E-01 -0.94392772281E-01 -0.63033352735E-03  0.10473823805E+00  0.51100000000E-03 0.  1.
</event>
<event>
 7    1  0.1246566E+005  0.1043930E+01  0.7957747E-01            NaN
         13   -1    0    0    0    0  0.00000000000E+00  0.00000000000E+00  0.74505805969E-08  0.10566000000E+00  0.10566000000E+00 0.  1.
     999900   -1    0    0    0    0 -0.00000000000E+00 -0.00000000000E+00 -0.74505805969E-08  0.93827000000E+00  0.93827000000E+00 0.  1.
     999902    2    1    2    0    0  0.54671012501E-02 -0.24624808869E-01 -0.37568710696E-02  0.10184273631E+01  0.10181080048E+01 0.  0.
         14    1    1    2    0    0 -0.54671012501E-02  0.24624808869E-01  0.37568710696E-02  0.25502636886E-01  0.00000000000E+00 0. -1.
     999901    1    3    3    0    0  0.23073683427E-01  0.43017169048E-01  0.10145285933E+00  0.88717278721E+00  0.88000000000E+00 0. -1.
        -11    1    3    3    0    0 -0.11691473308E-01 -0.36455740558E-01 -0.27009319499E-01  0.46855907083E-01  0.51100000000E-03 0.  1.
         11    1    3    3    0    0 -0.59151088684E-02 -0.31186237359E-01 -0.78200410896E-01  0.84398668822E-01  0.51100000000E-03 0. -1.
</event>
<event>
 8    1  0.1076043E+005  0.1043930E+01  0.7957747E-01            NaN
         13   -1    0    0    0    0  0.00000000000E+00  0.00000000000E+00  0.74505805969E-08  0.10566000000E+00  0.10566000000E+00 0. -1.
     999900   -1    0    0    0    0 -0.00000000000E+00 -0.00000000000E+00 -0.74505805969E-08  0.93827000000E+00  0.93827000000E+00 0. -1.
     999902    2    1    2    0    0  0.58307143855E-02 -0.12695177240E-03 -0.23256174894E-01  0.10199536988E+01  0.10196718515E+01 0.  0.
     999903    2    3    3    0    0  0.12925349274E+00  0.85751306252E-02 -0.55922046185E-02  0.13112248634E+00  0.19540609558E-01 0.  0.
         14    1    1    2    0    0 -0.58307143855E-02  0.12695177240E-03  0.23256174894E-01  0.23976301168E-01  0.00000000000E+00 0. -1.
     999901    1    3    3    0    0 -0.12342277835E+00 -0.87020823976E-02 -0.17663970275E-01  0.88883121249E+00  0.88000000000E+00 0.  1.
        -11    1    4    4    0    0  0.40919624793E-01  0.72245994702E-02  0.61198528214E-02  0.42003859944E-01  0.51100000000E-03 0.  1.
         11    1    4    4    0    0  0.88333867943E-01  0.13505311550E-02 -0.11712057440E-01  0.89118626396E-01  0.51100000000E-03 0. -1.
</event>
<event>
 8    1  0.1076043E+005  0.1043930E+01  0.7957747E-01            NaN
         13   -1    0    0    0    0  0.00000000000E+00  0.00000000000E+00  0.74505805969E-08  0.10566000000E+00  0.10566000000E+00 0. -1.
     999900   -1    0    0    0    0 -0.00000000000E+00 -0.00000000000E+00 -0.74505805969E-08  0.93827000000E+00  0.93827000000E+00 0.  1.
     999902    2    1    2    0    0 -0.10258531012E-01 -0.20864494356E-01  0.88661618533E-02  0.10190468047E+01  0.10187429591E+01 0.  0.
     999903    2    3    3    0    0 -0.56908727332E-01 -0.73571803555E-01  0.92047808465E-01  0.13232616796E+00  0.19646937626E-01 0.  0.
         14    1    1    2    0    0  0.10258531012E-01  0.20864494356E-01 -0.88661618533E-02  0.24883195319E-01  0.00000000000E+00 0.  1.
     999901    1    3    3    0    0  0.46650196320E-01  0.52707309199E-01 -0.83181646611E-01  0.88672063672E+00  0.88000000000E+00 0. -1.
        -11    1    4    4    0    0 -0.37538583113E-01 -0.39538498793E-01  0.64436940548E-01  0.84408640180E-01  0.51100000000E-03 0.  1.
         11    1    4    4    0    0 -0.19370144220E-01 -0.34033304762E-01  0.27610867917E-01  0.47917527777E-01  0.51100000000E-03 0. -1.
</event>
<event>
 8    1  0.1076043E+005  0.1043930E+01  0.7957747E-01            NaN
         13   -1    0    0    0    0  0.00000000000E+00  0.00000000000E+00  0.74505805969E-08  0.10566000000E+00  0.10566000000E+00 0. -1.
     999900   -1    0    0    0    0 -0.00000000000E+00 -0.00000000000E+00 -0.74505805969E-08  0.93827000000E+00  0.93827000000E+00 0. -1.
     999902    2    1    2    0    0 -0.10189808792E-01  0.84739261647E-02  0.24570875547E-01  0.10160128448E+01  0.10156292302E+01 0.  0.
     999903    2    3    3    0    0 -0.78574116285E-01  0.82131103148E-01 -0.52629478891E-01  0.12693372126E+00  0.20564476424E-01 0.  0.
         14    1    1    2    0    0  0.10189808792E-01 -0.84739261647E-02 -0.24570875547E-01  0.27917155174E-01  0.00000000000E+00 0.  1.
     999901    1    3    3    0    0  0.68384307493E-01 -0.73657176984E-01  0.77200354438E-01  0.88907912356E+00  0.88000000000E+00 0.  1.
        -11    1    4    4    0    0 -0.37470608411E-01  0.34571486625E-01 -0.34316349015E-01  0.61458173686E-01  0.51100000000E-03 0.  1.
         11    1    4    4    0    0 -0.41103507874E-01  0.47559616523E-01 -0.18313129877E-01  0.65475547575E-01  0.51100000000E-03 0. -1.
</event>
<event>
 8    1  0.1076043E+005  0.1043930E+01  0.7957747E-01            NaN
         13   -1    0    0    0    0  0.00000000000E+00  0.00000000000E+00  0.74505805969E-08  0.10566000000E+00  0.10566000000E+00 0. -1.
     999900   -1    0    0    0    0 -0.00000000000E+00 -0.00000000000E+00 -0.74505805969E-08  0.93827000000E+00  0.93827000000E+00 0.  1.
     999902    2    1    2    0    0 -0.56641678764E-03  0.20176975160E-01  0.11246184102E-01  0.10208235548E+01  0.10205620129E+01 0.  0.
     999903    2    3    3    0    0 -0.92628542056E-01  0.92793639018E-01  0.10014228308E-01  0.13304535471E+00  0.20250318400E-01 0.  0.
         14    1    1    2    0    0  0.56641678764E-03 -0.20176975160E-01 -0.11246184102E-01  0.23106445236E-01  0.00000000000E+00 0.  1.
     999901    1    3    3    0    0  0.92062125269E-01 -0.72616663858E-01  0.12319557941E-02  0.88777820006E+00  0.88000000000E+00 0.  1.
        -11    1    4    4    0    0 -0.36034216836E-01  0.47652664267E-01  0.10437365049E-01  0.60650151730E-01  0.51100000000E-03 0. -1.
         11    1    4    4    0    0 -0.56594325220E-01  0.45140974751E-01 -0.42313674118E-03  0.72395202979E-01  0.51100000000E-03 0.  1.
</event>
<event>
 8    1  0.1076043E+005  0.1043930E+01  0.7957747E-01            NaN
         13   -1    0    0    0    0  0.00000000000E+00  0.00000000000E+00  0.74505805969E-08  0.10566000000E+00  0.10566000000E+00 0.  1.
     999900   -1    0    0    0    0 -0.00000000000E+00 -0.00000000000E+00 -0.74505805969E-08  0.93827000000E+00  0.93827000000E+00 0.  1.
     999902    2    1    2    0    0 -0.67748536004E-02  0.17889007928E-01 -0.11031469685E-01  0.10218481394E+01  0.10216095200E+01 0.  0.
     999903    2    3    3    0    0  0.15906832891E-01  0.11390200607E+00  0.64052018495E-01  0.13315781933E+00  0.20041193970E-01 0.  0.
         14    1    1    2    0    0  0.67748536004E-02 -0.17889007928E-01  0.11031469685E-01  0.22081860641E-01  0.00000000000E+00 0.  1.
     999901    1    3    3    0    0 -0.22681686491E-01 -0.96012998145E-01 -0.75083488180E-01  0.88869032003E+00  0.88000000000E+00 0.  1.
        -11    1    4    4    0    0  0.15917992103E-01  0.58771485352E-01  0.26239991724E-01  0.66304360714E-01  0.51100000000E-03 0. -1.
         11    1    4    4    0    0 -0.11159212548E-04  0.55130520721E-01  0.37812026771E-01  0.66853458617E-01  0.51100000000E-03 0.  1.
</event>
<event>
 8    1  0.1076043E+005  0.1043930E+01  0.7957747E-01            NaN
         13   -1    0    0    0    0  0.00000000000E+00  0.00000000000E+00  0.74505805969E-08  0.10566000000E+00  0.10566000000E+00 0. -1.
     999900   -1    0    0    0    0 -0.00000000000E+00 -0.00000000000E+00 -0.74505805969E-08  0.93827000000E+00  0.93827000000E+00 0. -1.
     999902    2    1    2    0    0 -0.26154925609E-02 -0.16365095194E-02  0.23642439763E-01  0.10200870991E+01  0.10198084162E+01 0.  0.
     999903    2    3    3    0    0  0.10788870209E+00  0.19823101885E-01  0.69797834943E-01  0.13171667386E+00  0.21085943272E-01 0.  0.
         14    1    1    2    0    0  0.26154925609E-02  0.16365095194E-02 -0.23642439763E-01  0.23842900887E-01  0.00000000000E+00 0.  1.
     999901    1    3    3    0    0 -0.11050419465E+00 -0.21459611405E-01 -0.46155395180E-01  0.88837042525E+00  0.88000000000E+00 0. -1.
        -11    1    4    4    0    0  0.81097107020E-01  0.14670003700E-01  0.41021542863E-01  0.92059643034E-01  0.51100000000E-03 0.  1.
         11    1    4    4    0    0  0.26791595069E-01  0.51530981853E-02  0.28776292080E-01  0.39657030828E-01  0.51100000000E-03 0. -1.
</event>
<event>
 7    1  0.1076043E+005  0.1043930E+01  0.7957747E-01            NaN
         13   -1    0    0    0    0  0.00000000000E+00  0.00000000000E+00  0.74505805969E-08  0.10566000000E+00  0.10566000000E+00 0. -1.
     999900   -1    0    0    0    0 -0.00000000000E+00 -0.00000000000E+00 -0.74505805969E-08  0.93827000000E+00  0.93827000000E+00 0. -1.
     999902    2    1    2    0    0 -0.35932378926E-02 -0.73291959499E-02 -0.22094603641E-01  0.10203758076E+01  0.10201039107E+01 0.  0.
         14    1    1    2    0    0  0.35932378926E-02  0.73291959499E-02  0.22094603641E-01  0.23554192448E-01  0.00000000000E+00 0. -1.
     999901    1    3    3    0    0 -0.77310504598E-01 -0.28678841929E-01  0.78326791529E-01  0.88731870056E+00  0.88000000000E+00 0.  1.
        -11    1    3    3    0    0  0.27837540358E-01  0.14159830295E-01 -0.12540991320E-01  0.33659575628E-01  0.51100000000E-03 0.  1.
         11    1    3    3    0    0  0.45879726347E-01  0.71898156835E-02 -0.87880403849E-01  0.99397531362E-01  0.51100000000E-03 0. -1.
</event>
<event>
 8    1  0.1076043E+005  0.1043930E+01  0.7957747E-01            NaN
         13   -1    0    0    0    0  0.00000000000E+00  0.00000000000E+00  0.74505805969E-08  0.10566000000E+00  0.10566000000E+00 0. -1.
     999900   -1    0    0    0    0 -0.00000000000E+00 -0.00000000000E+00 -0.74505805969E-08  0.93827000000E+00  0.93827000000E+00 0. -1.
     999902    2    1    2    0    0 -0.22869918629E-01 -0.70046805546E-02  0.41897660926E-02  0.10196472311E+01  0.10193580445E+01 0.  0.
     999903    2    3    3    0    0 -0.12774181327E+00  0.29598413175E-01  0.59222813271E-02  0.13266306977E+00  0.19245252538E-01 0.  0.
         14    1    1    2    0    0  0.22869918629E-01  0.70046805546E-02 -0.41897660926E-02  0.24282768946E-01  0.00000000000E+00 0. -1.
     999901    1    3    3    0    0  0.10487189464E+00 -0.36603093729E-01 -0.17325152345E-02  0.88698416128E+00  0.88000000000E+00 0.  1.
        -11    1    4    4    0    0 -0.96155790485E-01  0.30646247102E-01  0.46790167539E-02  0.10103109830E+00  0.51100000000E-03 0.  1.
         11    1    4    4    0    0 -0.31586022785E-01 -0.10478339272E-02  0.12432645732E-02  0.31631971470E-01  0.51100000000E-03 0. -1.
</event>
<event>
 8    1  0.1076043E+005  0.1043930E+01  0.7957747E-01            NaN
         13   -1    0    0    0    0  0.00000000000E+00  0.00000000000E+00  0.74505805969E-08  0.10566000000E+00  0.10566000000E+00 0.  1.
     999900   -1    0    0    0    0 -0.00000000000E+00 -0.00000000000E+00 -0.74505805969E-08  0.93827000000E+00  0.93827000000E+00 0. -1.
     999902    2    1    2    0    0  0.11370128246E-01 -0.19824555475E-01  0.50407442714E-02  0.10205269677E+01  0.10202585898E+01 0.  0.
     999903    2    3    3    0    0 -0.16898057901E-01  0.94309312583E-01  0.84331743162E-01  0.12917255299E+00  0.19847285487E-01 0.  0.
         14    1    1    2    0    0 -0.11370128246E-01  0.19824555475E-01 -0.50407442714E-02  0.23403032259E-01  0.00000000000E+00 0. -1.
     999901    1    3    3    0    0  0.28268186147E-01 -0.11413386806E+00 -0.79290998891E-01  0.89135441475E+00  0.88000000000E+00 0. -1.
        -11    1    4    4    0    0 -0.11708428704E-01  0.20304584217E-01  0.23987426084E-01  0.33541335306E-01  0.51100000000E-03 0.  1.
         11    1    4    4    0    0 -0.51896291971E-02  0.74004728366E-01  0.60344317078E-01  0.95631217687E-01  0.51100000000E-03 0. -1.
</event>
<event>
 8    1  0.1076043E+005  0.1043930E+01  0.7957747E-01            NaN
         13   -1    0    0    0    0  0.00000000000E+00  0.00000000000E+00  0.74505805969E-08  0.10566000000E+00  0.10566000000E+00 0.  1.
     999900   -1    0    0    0    0 -0.00000000000E+00 -0.00000000000E+00 -0.74505805969E-08  0.93827000000E+00  0.93827000000E+00 0.  1.
     999902    2    1    2    0    0  0.17653901212E-01 -0.13793842301E-01  0.16358526598E-01  0.10161895655E+01  0.10158108590E+01 0.  0.
     999903    2    3    3    0    0 -0.63761736819E-01 -0.96207865405E-01 -0.48704197264E-01  0.12621555726E+00  0.15386865013E-01 0.  0.
         14    1    1    2    0    0 -0.17653901212E-01  0.13793842301E-01 -0.16358526598E-01  0.27740434494E-01  0.00000000000E+00 0.  1.
     999901    1    3    3    0    0  0.81415638031E-01  0.82414023104E-01  0.65062723863E-01  0.88997400825E+00  0.88000000000E+00 0. -1.
        -11    1    4    4    0    0 -0.34937061417E-01 -0.42816923916E-01 -0.17398025284E-01  0.57938239867E-01  0.51100000000E-03 0.  1.
         11    1    4    4    0    0 -0.28824675402E-01 -0.53390941489E-01 -0.31306171980E-01  0.68277317392E-01  0.51100000000E-03 0. -1.
</event>
<event>
 8    1  0.1076043E+005  0.1043930E+01  0.7957747E-01            NaN
         13   -1    0    0    0    0  0.00000000000E+00  0.00000000000E+00  0.74505805969E-08  0.10566000000E+00  0.10566000000E+00 0. -1.
     999900   -1    0    0    0    0 -0.00000000000E+00 -0.00000000000E+00 -0.74505805969E-08  0.93827000000E+00  0.93827000000E+00 0.  1.
     999902    2    1    2    0    0 -0.73432642666E-02 -0.22291445412E-01 -0.14282633633E-02  0.10204167696E+01  0.10201458286E+01 0.  0.
     999903    2    3    3    0    0  0.12037428272E+00 -0.23408395928E-01 -0.39696751780E-01  0.13037323323E+00  0.19581289579E-01 0.  0.
         14    1    1    2    0    0  0.73432642666E-02  0.22291445412E-01  0.14282633633E-02  0.23513230422E-01  0.00000000000E+00 0. -1.
     999901    1    3    3    0    0 -0.12771754698E+00  0.11169505165E-02  0.38268488416E-01  0.89004353635E+00  0.88000000000E+00 0. -1.
        -11    1    4    4    0    0  0.39164799644E-01  0.14813393365E-02 -0.14206308880E-01  0.41691200875E-01  0.51100000000E-03 0.  1.
         11    1    4    4    0    0  0.81209483074E-01 -0.24889735265E-01 -0.25490442899E-01  0.88682032357E-01  0.51100000000E-03 0. -1.
</event>
<event>
 8    1  0.1076043E+005  0.1043930E+01  0.7957747E-01            NaN
         13   -1    0    0    0    0  0.00000000000E+00  0.00000000000E+00  0.74505805969E-08  0.10566000000E+00  0.10566000000E+00 0.  1.
     999900   -1    0    0    0    0 -0.00000000000E+00 -0.00000000000E+00 -0.74505805969E-08  0.93827000000E+00  0.93827000000E+00 0.  1.
     999902    2    1    2    0    0  0.15915088166E-01 -0.17362352752E-01  0.42133420818E-02  0.10200031620E+01  0.10197224902E+01 0.  0.
     999903    2    3    3    0    0  0.45384693527E-01 -0.11708247695E+00  0.40030547908E-01  0.13315738453E+00  0.18983347283E-01 0.  0.
         14    1    1    2    0    0 -0.15915088166E-01  0.17362352752E-01 -0.42133420818E-02  0.23926837984E-01  0.00000000000E+00 0.  1.
     999901    1    3    3    0    0 -0.29469605361E-01  0.99720124198E-01 -0.35817205827E-01  0.88684577749E+00  0.88000000000E+00 0. -1.
        -11    1    4    4    0    0  0.25902813917E-01 -0.58251139787E-01  0.10902016460E-01  0.64678173592E-01  0.51100000000E-03 0.  1.
         11    1    4    4    0    0  0.19481879610E-01 -0.58831337163E-01  0.29128531448E-01  0.68479210939E-01  0.51100000000E-03 0. -1.
</event>
<event>
 8    1  0.1076043E+005  0.1043930E+01  0.7957747E-01            NaN
         13   -1    0    0    0    0  0.00000000000E+00  0.00000000000E+00  0.74505805969E-08  0.10566000000E+00  0.10566000000E+00 0.  1.
     999900   -1    0    0    0    0 -0.00000000000E+00 -0.00000000000E+00 -0.74505805969E-08  0.93827000000E+00  0.93827000000E+00 0.  1.
     999902    2    1    2    0    0 -0.46518232553E-02 -0.15140595591E-01 -0.17001470169E-01  0.10206936689E+01  0.10204291444E+01 0.  0.
     999903    2    3    3    0    0 -0.12610266100E+00  0.28543123166E-01 -0.13623945310E-01  0.13127251954E+00  0.18173373651E-01 0.  0.
         14    1    1    2    0    0  0.46518232553E-02  0.15140595591E-01  0.17001470169E-01  0.23236331087E-01  0.00000000000E+00 0.  1.
     999901    1    3    3    0    0  0.12145083775E+00 -0.43683718757E-01 -0.33775248596E-02  0.88942114937E+00  0.88000000000E+00 0.  1.
        -11    1    4    4    0    0 -0.45281846059E-01  0.14312477568E-01  0.28170596026E-02  0.47576144679E-01  0.51100000000E-03 0.  1.
         11    1    4    4    0    0 -0.80820814941E-01  0.14230645598E-01 -0.16441004912E-01  0.83696374864E-01  0.51100000000E-03 0. -1.
</event>
<event>
 8    1  0.1076043E+005  0.1043930E+01  0.7957747E-01            NaN
         13   -1    0    0    0    0  0.00000000000E+00  0.00000000000E+00  0.74505805969E-08  0.10566000000E+00  0.10566000000E+00 0.  1.
     999900   -1    0    0    0    0 -0.00000000000E+00 -0.00000000000E+00 -0.74505805969E-08  0.93827000000E+00  0.93827000000E+00 0.  1.
     999902    2    1    2    0    0  0.59792063406E-02  0.69703818199E-02 -0.21597248459E-01  0.10204613342E+01  0.10201914313E+01 0.  0.
     999903    2    3    3    0    0  0.82188231932E-01 -0.94867415926E-01  0.27013493131E-01  0.12998856272E+00  0.20311709795E-01 0.  0.
         14    1    1    2    0    0 -0.59792063406E-02 -0.69703818199E-02  0.21597248459E-01  0.23468665752E-01  0.00000000000E+00 0.  1.
     999901    1    3    3    0    0 -0.76209025592E-01  0.10183779775E+00 -0.48610741589E-01  0.89047277153E+00  0.88000000000E+00 0.  1.
        -11    1    4    4    0    0  0.25648447682E-01 -0.34494895513E-01  0.47297332919E-04  0.42988417545E-01  0.51100000000E-03 0. -1.
         11    1    4    4    0    0  0.56539784251E-01 -0.60372520413E-01  0.26966195798E-01  0.87000145178E-01  0.51100000000E-03 0.  1.
</event>
<event>
 8    1  0.1076043E+005  0.1043930E+01  0.7957747E-01            NaN
         13   -1    0    0    0    0  0.00000000000E+00  0.00000000000E+00  0.74505805969E-08  0.10566000000E+00  0.10566000000E+00 0.  1.
     999900   -1    0    0    0    0 -0.00000000000E+00 -0.00000000000E+00 -0.74505805969E-08  0.93827000000E+00  0.93827000000E+00 0. -1.
     999902    2    1    2    0    0  0.19993206041E-01  0.12422191423E-01 -0.35304463919E-02  0.10201286727E+01  0.10198509723E+01 0.  0.
     999903    2    3    3    0    0 -0.93788078119E-03 -0.11922907662E+00 -0.45392800644E-01  0.12910531532E+00  0.19779377131E-01 0.  0.
         14    1    1    2    0    0 -0.19993206041E-01 -0.12422191423E-01  0.35304463919E-02  0.23801327259E-01  0.00000000000E+00 0.  1.
     999901    1    3    3    0    0  0.20931086823E-01  0.13165126805E+00  0.41862354252E-01  0.89102335743E+00  0.88000000000E+00 0.  1.
        -11    1    4    4    0    0 -0.24130540646E-02 -0.41646969465E-01 -0.25868196811E-01  0.49088874735E-01  0.51100000000E-03 0. -1.
         11    1    4    4    0    0  0.14751732834E-02 -0.77582107158E-01 -0.19524603834E-01  0.80016440581E-01  0.51100000000E-03 0.  1.
</event>
<event>
 8    1  0.1076043E+005  0.1043930E+01  0.7957747E-01            NaN
         13   -1    0    0    0    0  0.00000000000E+00  0.00000000000E+00  0.74505805969E-08  0.10566000000E+00  0.10566000000E+00 0.  1.
     999900   -1    0    0    0    0 -0.00000000000E+00 -0.00000000000E+00 -0.74505805969E-08  0.93827000000E+00  0.93827000000E+00 0.  1.
     999902    2    1    2    0    0  0.22287513191E-01 -0.13246902345E-02 -0.27160605915E-02  0.10214385564E+01  0.10211909026E+01 0.  0.
     999903    2    3    3    0    0  0.10623083889E+00  0.44066576569E-02  0.79096789704E-01  0.13364766171E+00  0.17348935939E-01 0.  0.
         14    1    1    2    0    0 -0.22287513191E-01  0.13246902345E-02  0.27160605915E-02  0.22491443564E-01  0.00000000000E+00 0. -1.
     999901    1    3    3    0    0 -0.83943325694E-01 -0.57313478914E-02 -0.81812850296E-01  0.88779089472E+00  0.88000000000E+00 0.  1.
        -11    1    4    4    0    0  0.55665218034E-01 -0.26891881961E-02  0.32483734845E-01  0.64508157487E-01  0.51100000000E-03 0. -1.
         11    1    4    4    0    0  0.50565620851E-01  0.70958458531E-02  0.46613054859E-01  0.69139504227E-01  0.51100000000E-03 0.  1.
</event>
<event>
 8    1  0.1076043E+005  0.1043930E+01  0.7957747E-01            NaN
         13   -1    0    0    0    0  0.00000000000E+00  0.00000000000E+00  0.74505805969E-08  0.10566000000E+00  0.10566000000E+00 0.  1.
     999900   -1    0    0    0    0 -0.00000000000E+00 -0.00000000000E+00 -0.74505805969E-08  0.93827000000E+00  0.93827000000E+00 0. -1.
     999902    2    1    2    0    0 -0.42916331819E-02 -0.23467392322E-01  0.49760932125E-02  0.10195599749E+01  0.10192686812E+01 0.  0.
     999903    2    3    3    0    0  0.80856670653E-01 -0.80998829854E-02  0.99735954102E-01  0.13025360185E+00  0.20379670258E-01 0.  0.
         14    1    1    2    0    0  0.42916331819E-02  0.23467392322E-01 -0.49760932125E-02  0.24370025060E-01  0.00000000000E+00 0. -1.
     999901    1    3    3    0    0 -0.85148303835E-01 -0.15367509336E-01 -0.94759860890E-01  0.88930637309E+00  0.88000000000E+00 0. -1.
        -11    1    4    4    0    0  0.72665364523E-01 -0.63921428116E-02  0.77219474523E-01  0.10622722371E+00  0.51100000000E-03 0. -1.
         11    1    4    4    0    0  0.81913061306E-02 -0.17077401738E-02  0.22516479580E-01  0.24026378135E-01  0.51100000000E-03 0.  1.
</event>
<event>
 8    1  0.1076043E+005  0.1043930E+01  0.7957747E-01            NaN
         13   -1    0    0    0    0  0.00000000000E+00  0.00000000000E+00  0.74505805969E-08  0.10566000000E+00  0.10566000000E+00 0. -1.
     999900   -1    0    0    0    0 -0.00000000000E+00 -0.00000000000E+00 -0.74505805969E-08  0.93827000000E+00  0.93827000000E+00 0.  1.
     999902    2    1    2    0    0 -0.19604137327E-01 -0.70363344359E-02  0.11812671205E-01  0.10199848250E+01  0.10197037177E+01 0.  0.
     999903    2    3    3    0    0  0.10762162103E+00 -0.68693209422E-01  0.36601014693E-02  0.12866309401E+00  0.15479828239E-01 0.  0.
         14    1    1    2    0    0  0.19604137327E-01  0.70363344359E-02 -0.11812671205E-01  0.23945174955E-01  0.00000000000E+00 0. -1.
     999901    1    3    3    0    0 -0.12722575836E+00  0.61656874986E-01  0.81525697361E-02  0.89132173104E+00  0.88000000000E+00 0.  1.
        -11    1    4    4    0    0  0.20503590424E-01 -0.17801930681E-01 -0.41199253177E-02  0.27468907184E-01  0.51100000000E-03 0. -1.
         11    1    4    4    0    0  0.87118030611E-01 -0.50891278742E-01  0.77800267870E-02  0.10119418683E+00  0.51100000000E-03 0.  1.
</event>
<event>
 8    1  0.1076043E+005  0.1043930E+01  0.7957747E-01            NaN
         13   -1    0    0    0    0  0.00000000000E+00  0.00000000000E+00  0.74505805969E-08  0.10566000000E+00  0.10566000000E+00 0.  1.
     999900   -1    0    0    0    0 -0.00000000000E+00 -0.00000000000E+00 -0.74505805969E-08  0.93827000000E+00  0.93827000000E+00 0. -1.
     999902    2    1    2    0    0 -0.66967799395E-02  0.20678305847E-01  0.81189515855E-02  0.10207274879E+01  0.10204637416E+01 0.  0.
     999903    2    3    3    0    0  0.11761121947E+00  0.50935885726E-01 -0.18745213038E-01  0.13107042855E+00  0.20030247875E-01 0.  0.
         14    1    1    2    0    0  0.66967799395E-02 -0.20678305847E-01 -0.81189515855E-02  0.23202512129E-01  0.00000000000E+00 0.  1.
     999901    1    3    3    0    0 -0.12430799940E+00 -0.30257579879E-01  0.26864164623E-01  0.88965705932E+00  0.88000000000E+00 0.  1.
        -11    1    4    4    0    0  0.79466835022E-01  0.31543548087E-01 -0.32634905552E-02  0.85562169129E-01  0.51100000000E-03 0. -1.
         11    1    4    4    0    0  0.38144384443E-01  0.19392337639E-01 -0.15481722483E-01  0.45508259422E-01  0.51100000000E-03 0.  1.
</event>
<event>
 8    1  0.1076043E+005  0.1043930E+01  0.7957747E-01            NaN
         13   -1    0    0    0    0  0.00000000000E+00  0.00000000000E+00  0.74505805969E-08  0.10566000000E+00  0.10566000000E+00 0.  1.
     999900   -1    0    0    0    0 -0.00000000000E+00 -0.00000000000E+00 -0.74505805969E-08  0.93827000000E+00  0.93827000000E+00 0. -1.
     999902    2    1    2    0    0 -0.10745283374E-01  0.77714511667E-02  0.19122562624E-01  0.10206592250E+01  0.10203939066E+01 0.  0.
     999903    2    3    3    0    0  0.81413180404E-01  0.28154494905E-02 -0.97080155003E-01  0.12823510162E+00  0.19587038892E-01 0.  0.
         14    1    1    2    0    0  0.10745283374E-01 -0.77714511667E-02 -0.19122562624E-01  0.23270775005E-01  0.00000000000E+00 0. -1.
     999901    1    3    3    0    0 -0.92158463778E-01  0.49560016763E-02  0.11620271763E+00  0.89242412338E+00  0.88000000000E+00 0.  1.
        -11    1    4    4    0    0  0.27709690304E-01  0.58689056224E-02 -0.46186470910E-01  0.54182305286E-01  0.51100000000E-03 0.  1.
         11    1    4    4    0    0  0.53703490100E-01 -0.30534561319E-02 -0.50893684093E-01  0.74052796333E-01  0.51100000000E-03 0. -1.
</event>
<event>
 8    1  0.1076043E+005  0.1043930E+01  0.7957747E-01            NaN
         13   -1    0    0    0    0  0.00000000000E+00  0.00000000000E+00  0.74505805969E-08  0.10566000000E+00  0.10566000000E+00 0.  1.
     999900   -1    0    0    0    0 -0.00000000000E+00 -0.00000000000E+00 -0.74505805969E-08  0.93827000000E+00  0.93827000000E+00 0.  1.
     999902    2    1    2    0    0  0.21078392501E-01 -0.25663336354E-02  0.12011954666E-01  0.10195338578E+01  0.10192419318E+01 0.  0.
     999903    2    3    3    0    0  0.12455317298E+00  0.96765028724E-02 -0.37875412735E-01  0.13198348365E+00  0.19441333803E-01 0.  0.
         14    1    1    2    0    0 -0.21078392501E-01  0.25663336354E-02 -0.12011954666E-01  0.24396142188E-01  0.00000000000E+00 0.  1.
     999901    1    3    3    0    0 -0.10347478048E+00 -0.12242836508E-01  0.49887367401E-01  0.88755037416E+00  0.88000000000E+00 0.  1.
        -11    1    4    4    0    0  0.42687340638E-01  0.12377256314E-01 -0.15452247155E-01  0.47057821749E-01  0.51100000000E-03 0.  1.
         11    1    4    4    0    0  0.81865832344E-01 -0.27007534412E-02 -0.22423165579E-01  0.84925661906E-01  0.51100000000E-03 0. -1.
</event>
<event>
 8    1  0.1076043E+005  0.1043930E+01  0.7957747E-01            NaN
         13   -1    0    0    0    0  0.00000000000E+00  0.00000000000E+00  0.74505805969E-08  0.10566000000E+00  0.10566000000E+00 0. -1.
     999900   -1    0    0    0    0 -0.00000000000E+00 -0.00000000000E+00 -0.74505805969E-08  0.93827000000E+00  0.93827000000E+00 0.  1.
     999902    2    1    2    0    0  0.33624769718E-02 -0.17327237537E-01 -0.15938619038E-01  0.10201480953E+01  0.10198708533E+01 0.  0.
     999903    2    3    3    0    0 -0.12655127870E+00  0.16714470433E-02  0.18555855648E-01  0.12973897437E+00  0.21676296202E-01 0.  0.
         14    1    1    2    0    0 -0.33624769718E-02  0.17327237537E-01  0.15938619038E-01  0.23781904652E-01  0.00000000000E+00 0. -1.
     999901    1    3    3    0    0  0.12991375567E+00 -0.18998684581E-01 -0.34494474685E-01  0.89040912097E+00  0.88000000000E+00 0.  1.
        -11    1    4    4    0    0 -0.43807675374E-01 -0.46165329626E-02 -0.25049104704E-02  0.44124375301E-01  0.51100000000E-03 0. -1.
         11    1    4    4    0    0 -0.82743603327E-01  0.62879800059E-02  0.21060766118E-01  0.85614599073E-01  0.51100000000E-03 0.  1.
</event>
<event>
 8    1  0.1076043E+005  0.1043930E+01  0.7957747E-01            NaN
         13   -1    0    0    0    0  0.00000000000E+00  0.00000000000E+00  0.74505805969E-08  0.10566000000E+00  0.10566000000E+00 0. -1.
     999900   -1    0    0    0    0 -0.00000000000E+00 -0.00000000000E+00 -0.74505805969E-08  0.93827000000E+00  0.93827000000E+00 0.  1.
     999902    2    1    2    0    0 -0.27280589999E-03  0.22920174411E-01  0.18966195523E-01  0.10141789430E+01  0.10137424738E+01 0.  0.
     999903    2    3    3    0    0  0.64227812422E-01 -0.96811776347E-01  0.33383658032E-01  0.12361511431E+00  0.25855288344E-01 0.  0.
         14    1    1    2    0    0  0.27280589999E-03 -0.22920174411E-01 -0.18966195523E-01  0.29751056967E-01  0.00000000000E+00 0.  1.
     999901    1    3    3    0    0 -0.64500618322E-01  0.11973195076E+00 -0.14417462509E-01  0.89056382872E+00  0.88000000000E+00 0.  1.
        -11    1    4    4    0    0  0.47673985321E-01 -0.86493498226E-01  0.32890048712E-01  0.10409587185E+00  0.51100000000E-03 0. -1.
         11    1    4    4    0    0  0.16553827101E-01 -0.10318278122E-01  0.49360931970E-03  0.19519242461E-01  0.51100000000E-03 0.  1.
</event>
<event>
 8    1  0.1076043E+005  0.1043930E+01  0.7957747E-01            NaN
         13   -1    0    0    0    0  0.00000000000E+00  0.00000000000E+00  0.74505805969E-08  0.10566000000E+00  0.10566000000E+00 0. -1.
     999900   -1    0    0    0    0 -0.00000000000E+00 -0.00000000000E+00 -0.74505805969E-08  0.93827000000E+00  0.93827000000E+00 0. -1.
     999902    2    1    2    0    0  0.19135019433E-01  0.26051568722E-02 -0.79144044093E-02  0.10230595997E+01  0.10228466996E+01 0.  0.
     999903    2    3    3    0    0 -0.12414400176E+00 -0.29885437791E-01 -0.20646757983E-01  0.13078910850E+00  0.19355353866E-01 0.  0.
         14    1    1    2    0    0 -0.19135019433E-01 -0.26051568722E-02  0.79144044093E-02  0.20870400288E-01  0.00000000000E+00 0. -1.
     999901    1    3    3    0    0  0.14327902119E+00  0.32490594663E-01  0.12732353574E-01  0.89227049121E+00  0.88000000000E+00 0.  1.
        -11    1    4    4    0    0 -0.45893533997E-01 -0.53387955122E-02  0.50799483446E-04  0.46205875187E-01  0.51100000000E-03 0. -1.
         11    1    4    4    0    0 -0.78250467761E-01 -0.24546642279E-01 -0.20697557467E-01  0.84583233315E-01  0.51100000000E-03 0.  1.
</event>
<event>
 8    1  0.1076043E+005  0.1043930E+01  0.7957747E-01            NaN
         13   -1    0    0    0    0  0.00000000000E+00  0.00000000000E+00  0.74505805969E-08  0.10566000000E+00  0.10566000000E+00 0. -1.
     999900   -1    0    0    0    0 -0.00000000000E+00 -0.00000000000E+00 -0.74505805969E-08  0.93827000000E+00  0.93827000000E+00 0.  1.
     999902    2    1    2    0    0  0.20108918654E-01  0.67708987863E-02  0.10062081339E-01  0.10204468324E+01  0.10201765919E+01 0.  0.
     999903    2    3    3    0    0  0.46817431371E-01 -0.12008691614E+00  0.10827563054E-01  0.13094875155E+00  0.20435266195E-01 0.  0.
         14    1    1    2    0    0 -0.20108918654E-01 -0.67708987863E-02 -0.10062081339E-01  0.23483167603E-01  0.00000000000E+00 0.  1.
     999901    1    3    3    0    0 -0.26708512717E-01  0.12685781492E+00 -0.76548171491E-03  0.88949808084E+00  0.88000000000E+00 0. -1.
        -11    1    4    4    0    0  0.36327968335E-01 -0.74519151926E-01  0.14004785817E-01  0.84078656232E-01  0.51100000000E-03 0. -1.
         11    1    4    4    0    0  0.10489463036E-01 -0.45567764212E-01 -0.31772227627E-02  0.46870095323E-01  0.51100000000E-03 0.  1.
</event>
<event>
 8    1  0.1076043E+005  0.1043930E+01  0.7957747E-01            NaN
         13   -1    0    0    0    0  0.00000000000E+00  0.00000000000E+00  0.74505805969E-08  0.10566000000E+00  0.10566000000E+00 0. -1.
     999900   -1    0    0    0    0 -0.00000000000E+00 -0.00000000000E+00 -0.74505805969E-08  0.93827000000E+00  0.93827000000E+00 0.  1.
     999902    2    1    2    0    0 -0.23519131054E-01 -0.13715567698E-02  0.35316487184E-02  0.10201076736E+01  0.10198294771E+01 0.  0.
     999903    2    3    3    0    0 -0.43469564848E-01 -0.61363539975E-01 -0.10534295678E+00  0.13114719213E+00  0.21150894876E-01 0.  0.
         14    1    1    2    0    0  0.23519131054E-01  0.13715567698E-02 -0.35316487184E-02  0.23822326422E-01  0.00000000000E+00 0. -1.
     999901    1    3    3    0    0  0.19950433795E-01  0.59991983205E-01  0.10887460550E+00  0.88896048145E+00  0.88000000000E+00 0. -1.
        -11    1    4    4    0    0 -0.15700981807E-01 -0.38035742321E-01 -0.47219372861E-01  0.62635204303E-01  0.51100000000E-03 0.  1.
         11    1    4    4    0    0 -0.27768583041E-01 -0.23327797654E-01 -0.58123583917E-01  0.68511987826E-01  0.51100000000E-03 0. -1.
</event>
<event>
 8    1  0.1076043E+005  0.1043930E+01  0.7957747E-01            NaN
         13   -1    0    0    0    0  0.00000000000E+00  0.00000000000E+00  0.74505805969E-08  0.10566000000E+00  0.10566000000E+00 0.  1.
     999900   -1    0    0    0    0 -0.00000000000E+00 -0.00000000000E+00 -0.74505805969E-08  0.93827000000E+00  0.93827000000E+00 0.  1.
     999902    2    1    2    0    0  0.90625687612E-02  0.23424799945E-01  0.36707183193E-02  0.10185464309E+01  0.10182300852E+01 0.  0.
     999903    2    3    3    0    0 -0.40842472394E-01 -0.79407674170E-01 -0.87405590796E-01  0.12649266298E+00  0.19671558554E-01 0.  0.
         14    1    1    2    0    0 -0.90625687612E-02 -0.23424799945E-01 -0.36707183193E-02  0.25383569055E-01  0.00000000000E+00 0.  1.
     999901    1    3    3    0    0  0.49905041155E-01  0.10283247411E+00  0.91076309115E-01  0.89205376797E+00  0.88000000000E+00 0.  1.
        -11    1    4    4    0    0 -0.34091376114E-01 -0.46877772251E-01 -0.59940878561E-01  0.83384156171E-01  0.51100000000E-03 0. -1.
         11    1    4    4    0    0 -0.67510962798E-02 -0.32529901919E-01 -0.27464712234E-01  0.43108506805E-01  0.51100000000E-03 0.  1.
</event>
<event>
 8    1  0.1076043E+005  0.1043930E+01  0.7957747E-01            NaN
         13   -1    0    0    0    0  0.00000000000E+00  0.00000000000E+00  0.74505805969E-08  0.10566000000E+00  0.10566000000E+00 0. -1.
     999900   -1    0    0    0    0 -0.00000000000E+00 -0.00000000000E+00 -0.74505805969E-08  0.93827000000E+00  0.93827000000E+00 0. -1.
     999902    2    1    2    0    0  0.32812235730E-02  0.23874819354E-01 -0.13573395064E-02  0.10197925644E+01  0.10195068703E+01 0.  0.
     999903    2    3    3    0    0  0.20103536182E-01  0.92490707239E-01 -0.90472232252E-01  0.13247492432E+00  0.20141938136E-01 0.  0.
         14    1    1    2    0    0 -0.32812235730E-02 -0.23874819354E-01  0.13573395064E-02  0.24137435610E-01  0.00000000000E+00 0.  1.
     999901    1    3    3    0    0 -0.16822312609E-01 -0.68615887885E-01  0.89114892746E-01  0.88731764007E+00  0.88000000000E+00 0.  1.
        -11    1    4    4    0    0  0.11542469286E-01  0.19962732440E-01 -0.28709882191E-01  0.36827404743E-01  0.51100000000E-03 0. -1.
         11    1    4    4    0    0  0.85610668966E-02  0.72527974799E-01 -0.61762350061E-01  0.95647519576E-01  0.51100000000E-03 0.  1.
</event>
<event>
 8    1  0.1076043E+005  0.1043930E+01  0.7957747E-01            NaN
         13   -1    0    0    0    0  0.00000000000E+00  0.00000000000E+00  0.74505805969E-08  0.10566000000E+00  0.10566000000E+00 0. -1.
     999900   -1    0    0    0    0 -0.00000000000E+00 -0.00000000000E+00 -0.74505805969E-08  0.93827000000E+00  0.93827000000E+00 0. -1.
     999902    2    1    2    0    0 -0.10588131770E-01 -0.21693610146E-01  0.17224110012E-02  0.10197290092E+01  0.10194417905E+01 0.  0.
     999903    2    3    3    0    0  0.52787462887E-01 -0.88074039245E-01  0.79557341257E-01  0.13153921883E+00  0.20727829501E-01 0.  0.
         14    1    1    2    0    0  0.10588131770E-01  0.21693610146E-01 -0.17224110012E-02  0.24200990790E-01  0.00000000000E+00 0. -1.
     999901    1    3    3    0    0 -0.63375594657E-01  0.66380429099E-01 -0.77834930256E-01  0.88818979038E+00  0.88000000000E+00 0. -1.
        -11    1    4    4    0    0  0.73387106212E-02 -0.28161735071E-01  0.27782855618E-01  0.40237894864E-01  0.51100000000E-03 0.  1.
         11    1    4    4    0    0  0.45448752266E-01 -0.59912304174E-01  0.51774485639E-01  0.91301323967E-01  0.51100000000E-03 0. -1.
</event>
<event>
 8    1  0.1076043E+005  0.1043930E+01  0.7957747E-01            NaN
         13   -1    0    0    0    0  0.00000000000E+00  0.00000000000E+00  0.74505805969E-08  0.10566000000E+00  0.10566000000E+00 0.  1.
     999900   -1    0    0    0    0 -0.00000000000E+00 -0.00000000000E+00 -0.74505805969E-08  0.93827000000E+00  0.93827000000E+00 0. -1.
     999902    2    1    2    0    0 -0.17465904162E-01  0.32089361175E-02  0.17125100195E-01  0.10192596912E+01  0.10189610856E+01 0.  0.
     999903    2    3    3    0    0  0.51930373535E-01 -0.83911462757E-01  0.81988315166E-01  0.12987055033E+00  0.20158837798E-01 0.  0.
         14    1    1    2    0    0  0.17465904162E-01 -0.32089361175E-02 -0.17125100195E-01  0.24670308792E-01  0.00000000000E+00 0. -1.
     999901    1    3    3    0    0 -0.69396277697E-01  0.87120398874E-01 -0.64863214971E-01  0.88938914088E+00  0.88000000000E+00 0.  1.
        -11    1    4    4    0    0  0.37374641373E-01 -0.55463595704E-01  0.66645236725E-01  0.94418869752E-01  0.51100000000E-03 0. -1.
         11    1    4    4    0    0  0.14555732163E-01 -0.28447867053E-01  0.15343078441E-01  0.35451680577E-01  0.51100000000E-03 0.  1.
</event>
<event>
 8    1  0.1076043E+005  0.1043930E+01  0.7957747E-01            NaN
         13   -1    0    0    0    0  0.00000000000E+00  0.00000000000E+00  0.74505805969E-08  0.10566000000E+00  0.10566000000E+00 0. -1.
     999900   -1    0    0    0    0 -0.00000000000E+00 -0.00000000000E+00 -0.74505805969E-08  0.93827000000E+00  0.93827000000E+00 0. -1.
     999902    2    1    2    0    0  0.12297537157E-01  0.14462942526E-01 -0.13727373423E-01  0.10205025181E+01  0.10202335726E+01 0.  0.
     999903    2    3    3    0    0  0.11270760723E+00  0.19898172358E-01  0.62303901782E-01  0.13151855948E+00  0.17788010548E-01 0.  0.
         14    1    1    2    0    0 -0.12297537157E-01 -0.14462942526E-01  0.13727373423E-01  0.23427481890E-01  0.00000000000E+00 0. -1.
     999901    1    3    3    0    0 -0.10041007007E+00 -0.54352298323E-02 -0.76031275204E-01  0.88898395863E+00  0.88000000000E+00 0. -1.
        -11    1    4    4    0    0  0.10647282233E+00  0.16179055842E-01  0.61926277593E-01  0.12423102962E+00  0.51100000000E-03 0. -1.
         11    1    4    4    0    0  0.62347849026E-02  0.37191165156E-02  0.37762418860E-03  0.72875298604E-02  0.51100000000E-03 0.  1.
</event>
<event>
 8    1  0.1076043E+005  0.1043930E+01  0.7957747E-01            NaN
         13   -1    0    0    0    0  0.00000000000E+00  0.00000000000E+00  0.74505805969E-08  0.10566000000E+00  0.10566000000E+00 0.  1.
     999900   -1    0    0    0    0 -0.00000000000E+00 -0.00000000000E+00 -0.74505805969E-08  0.93827000000E+00  0.93827000000E+00 0. -1.
     999902    2    1    2    0    0  0.85925192486E-02  0.55089521861E-02  0.22211455726E-01  0.10194855997E+01  0.10191925035E+01 0.  0.
     999903    2    3    3    0    0  0.10412466312E+00  0.76115998320E-01 -0.10178773838E-01  0.13091322084E+00  0.19976818654E-01 0.  0.
         14    1    1    2    0    0 -0.85925192486E-02 -0.55089521861E-02 -0.22211455726E-01  0.24444400314E-01  0.00000000000E+00 0. -1.
     999901    1    3    3    0    0 -0.95532143873E-01 -0.70607046134E-01  0.32390229564E-01  0.88857237885E+00  0.88000000000E+00 0. -1.
        -11    1    4    4    0    0  0.38701467325E-01  0.18673635051E-01 -0.86509754836E-02  0.43836157644E-01  0.51100000000E-03 0. -1.
         11    1    4    4    0    0  0.65423195796E-01  0.57442363269E-01 -0.15277983539E-02  0.87077063197E-01  0.51100000000E-03 0.  1.
</event>
<event>
 8    1  0.1076043E+005  0.1043930E+01  0.7957747E-01            NaN
         13   -1    0    0    0    0  0.00000000000E+00  0.00000000000E+00  0.74505805969E-08  0.10566000000E+00  0.10566000000E+00 0. -1.
     999900   -1    0    0    0    0 -0.00000000000E+00 -0.00000000000E+00 -0.74505805969E-08  0.93827000000E+00  0.93827000000E+00 0. -1.
     999902    2    1    2    0    0  0.10672967258E-01 -0.20922328367E-01 -0.37965130218E-02  0.10201377835E+01  0.10198602982E+01 0.  0.
     999903    2    3    3    0    0  0.40540911662E-01  0.33861264713E-01  0.11673712166E+00  0.12973243017E+00  0.20317408698E-01 0.  0.
         14    1    1    2    0    0 -0.10672967258E-01  0.20922328367E-01  0.37965130218E-02  0.23792216490E-01  0.00000000000E+00 0. -1.
     999901    1    3    3    0    0 -0.29867944404E-01 -0.54783593080E-01 -0.12053363468E+00  0.89040535334E+00  0.88000000000E+00 0. -1.
        -11    1    4    4    0    0 -0.60641582196E-03  0.76505057219E-02  0.13238038076E-01  0.15310282527E-01  0.51100000000E-03 0.  1.
         11    1    4    4    0    0  0.41147327484E-01  0.26210758991E-01  0.10349908359E+00  0.11442214764E+00  0.51100000000E-03 0. -1.
</event>
<event>
 8    1  0.1076043E+005  0.1043930E+01  0.7957747E-01            NaN
         13   -1    0    0    0    0  0.00000000000E+00  0.00000000000E+00  0.74505805969E-08  0.10566000000E+00  0.10566000000E+00 0. -1.
     999900   -1    0    0    0    0 -0.00000000000E+00 -0.00000000000E+00 -0.74505805969E-08  0.93827000000E+00  0.93827000000E+00 0. -1.
     999902    2    1    2    0    0  0.21607098752E-01 -0.76842132052E-02  0.10569529641E-01  0.10186786870E+01  0.10183656704E+01 0.  0.
     999903    2    3    3    0    0 -0.11934641246E-01 -0.59737520049E-01  0.11354884070E+00  0.13051241118E+00  0.20715773808E-01 0.  0.
         14    1    1    2    0    0 -0.21607098752E-01  0.76842132052E-02 -0.10569529641E-01  0.25251312954E-01  0.00000000000E+00 0. -1.
     999901    1    3    3    0    0  0.33541739998E-01  0.52053306844E-01 -0.10297931106E+00  0.88816627586E+00  0.88000000000E+00 0. -1.
        -11    1    4    4    0    0 -0.53220035408E-02 -0.39820912036E-01  0.53547310359E-01  0.66944785643E-01  0.51100000000E-03 0.  1.
         11    1    4    4    0    0 -0.66126377050E-02 -0.19916608013E-01  0.60001530343E-01  0.63567625539E-01  0.51100000000E-03 0. -1.
</event>
<event>
 8    1  0.1076043E+005  0.1043930E+01  0.7957747E-01            NaN
         13   -1    0    0    0    0  0.00000000000E+00  0.00000000000E+00  0.74505805969E-08  0.10566000000E+00  0.10566000000E+00 0. -1.
     999900   -1    0    0    0    0 -0.00000000000E+00 -0.00000000000E+00 -0.74505805969E-08  0.93827000000E+00  0.93827000000E+00 0. -1.
     999902    2    1    2    0    0 -0.91183635077E-02  0.17167124326E-01  0.13264861140E-01  0.10203968053E+01  0.10201253987E+01 0.  0.
     999903    2    3    3    0    0 -0.53946899531E-01 -0.26004712285E-01 -0.11280364275E+00  0.12923650953E+00  0.19771205020E-01 0.  0.
         14    1    1    2    0    0  0.91183635077E-02 -0.17167124326E-01 -0.13264861140E-01  0.23533194678E-01  0.00000000000E+00 0.  1.
     999901    1    3    3    0    0  0.44828536023E-01  0.43171836611E-01  0.12606850389E+00  0.89116029579E+00  0.88000000000E+00 0.  1.
        -11    1    4    4    0    0 -0.32713733385E-01 -0.25954031856E-01 -0.71954528310E-01  0.83195645240E-01  0.51100000000E-03 0.  1.
         11    1    4    4    0    0 -0.21233166146E-01 -0.50680428828E-04 -0.40849114443E-01  0.46040864293E-01  0.51100000000E-03 0. -1.
</event>
<event>
 8    1  0.1076043E+005  0.1043930E+01  0.7957747E-01            NaN
         13   -1    0    0    0    0  0.00000000000E+00  0.00000000000E+00  0.74505805969E-08  0.10566000000E+00  0.10566000000E+00 0. -1.
     999900   -1    0    0    0    0 -0.00000000000E+00 -0.00000000000E+00 -0.74505805969E-08  0.93827000000E+00  0.93827000000E+00 0.  1.
     999902    2    1    2    0    0 -0.81078494909E-02  0.12716985092E-01 -0.18337829444E-01  0.10201868974E+01  0.10199105699E+01 0.  0.
     999903    2    3    3    0    0  0.12011830442E+00  0.10248441541E-01  0.40842800438E-01  0.12892353159E+00  0.20486703955E-01 0.  0.
         14    1    1    2    0    0  0.81078494909E-02 -0.12716985092E-01  0.18337829444E-01  0.23743102618E-01  0.00000000000E+00 0. -1.
     999901    1    3    3    0    0 -0.12822615391E+00  0.24685435507E-02 -0.59180629883E-01  0.89126336579E+00  0.88000000000E+00 0.  1.
        -11    1    4    4    0    0  0.73825816589E-01  0.70679093916E-02  0.14519871393E-01  0.75573105828E-01  0.51100000000E-03 0. -1.
         11    1    4    4    0    0  0.46292487830E-01  0.31805321495E-02  0.26322929045E-01  0.53350425760E-01  0.51100000000E-03 0.  1.
</event>
<event>
 8    1  0.1076043E+005  0.1043930E+01  0.7957747E-01            NaN
         13   -1    0    0    0    0  0.00000000000E+00  0.00000000000E+00  0.74505805969E-08  0.10566000000E+00  0.10566000000E+00 0.  1.
     999900   -1    0    0    0    0 -0.00000000000E+00 -0.00000000000E+00 -0.74505805969E-08  0.93827000000E+00  0.93827000000E+00 0.  1.
     999902    2    1    2    0    0  0.43633730095E-02  0.19927156174E-01 -0.12919314797E-01  0.10197837938E+01  0.10194978896E+01 0.  0.
     999903    2    3    3    0    0 -0.56652861504E-01  0.31842150428E-01  0.10975113835E+00  0.12910260057E+00  0.19967469693E-01 0.  0.
         14    1    1    2    0    0 -0.43633730095E-02 -0.19927156174E-01  0.12919314797E-01  0.24146206162E-01  0.00000000000E+00 0.  1.
     999901    1    3    3    0    0  0.61016234513E-01 -0.11914994255E-01 -0.12267045314E+00  0.89068119327E+00  0.88000000000E+00 0.  1.
        -11    1    4    4    0    0 -0.46225133761E-01  0.17351234960E-01  0.71565409301E-01  0.86946519627E-01  0.51100000000E-03 0.  1.
         11    1    4    4    0    0 -0.10427727742E-01  0.14490915468E-01  0.38185729045E-01  0.42156080946E-01  0.51100000000E-03 0. -1.
</event>
<event>
 8    1  0.1076043E+005  0.1043930E+01  0.7957747E-01            NaN
         13   -1    0    0    0    0  0.00000000000E+00  0.00000000000E+00  0.74505805969E-08  0.10566000000E+00  0.10566000000E+00 0.  1.
     999900   -1    0    0    0    0 -0.00000000000E+00 -0.00000000000E+00 -0.74505805969E-08  0.93827000000E+00  0.93827000000E+00 0.  1.
     999902    2    1    2    0    0  0.98962127452E-02  0.12063804458E-01  0.17929568070E-01  0.10201615374E+01  0.10198846124E+01 0.  0.
     999903    2    3    3    0    0 -0.38454987723E-01  0.12383824515E-01 -0.11989478716E+00  0.12812258424E+00  0.20211170528E-01 0.  0.
         14    1    1    2    0    0 -0.98962127452E-02 -0.12063804458E-01 -0.17929568070E-01  0.23768462631E-01  0.00000000000E+00 0. -1.
     999901    1    3    3    0    0  0.48351200468E-01 -0.32002005701E-03  0.13782435523E+00  0.89203895313E+00  0.88000000000E+00 0. -1.
        -11    1    4    4    0    0 -0.39516069087E-01  0.78958661859E-02 -0.11101595561E+00  0.11810447892E+00  0.51100000000E-03 0. -1.
         11    1    4    4    0    0  0.10610813640E-02  0.44879583289E-02 -0.88788315509E-02  0.10018105327E-01  0.51100000000E-03 0.  1.
</event>
<event>
 8    1  0.1076043E+005  0.1043930E+01  0.7957747E-01            NaN
         13   -1    0    0    0    0  0.00000000000E+00  0.00000000000E+00  0.74505805969E-08  0.10566000000E+00  0.10566000000E+00 0. -1.
     999900   -1    0    0    0    0 -0.00000000000E+00 -0.00000000000E+00 -0.74505805969E-08  0.93827000000E+00  0.93827000000E+00 0. -1.
     999902    2    1    2    0    0  0.11105195904E-01  0.20470138005E-01  0.18269023858E-03  0.10206408330E+01  0.10203750901E+01 0.  0.
     999903    2    3    3    0    0 -0.93091164781E-01  0.73191648080E-01 -0.53141999128E-01  0.13132651186E+00  0.19989955906E-01 0.  0.
         14    1    1    2    0    0 -0.11105195904E-01 -0.20470138005E-01 -0.18269023858E-03  0.23289167047E-01  0.00000000000E+00 0.  1.
     999901    1    3    3    0    0  0.10419636069E+00 -0.52721510075E-01  0.53324689366E-01  0.88931432109E+00  0.88000000000E+00 0.  1.
        -11    1    4    4    0    0 -0.26219212837E-01  0.20502432737E-01 -0.25101012241E-01  0.41690752050E-01  0.51100000000E-03 0. -1.
         11    1    4    4    0    0 -0.66871951944E-01  0.52689215343E-01 -0.28040986887E-01  0.89635759811E-01  0.51100000000E-03 0.  1.
</event>
<event>
 8    1  0.1076043E+005  0.1043930E+01  0.7957747E-01            NaN
         13   -1    0    0    0    0  0.00000000000E+00  0.00000000000E+00  0.74505805969E-08  0.10566000000E+00  0.10566000000E+00 0. -1.
     999900   -1    0    0    0    0 -0.00000000000E+00 -0.00000000000E+00 -0.74505805969E-08  0.93827000000E+00  0.93827000000E+00 0.  1.
     999902    2    1    2    0    0  0.18986566517E-01  0.13999470337E-01 -0.56971073950E-02  0.10196620806E+01  0.10193732519E+01 0.  0.
     999903    2    3    3    0    0 -0.77383351635E-01 -0.60909297839E-01  0.78224350604E-01  0.12728251128E+00  0.19587316760E-01 0.  0.
         14    1    1    2    0    0 -0.18986566517E-01 -0.13999470337E-01  0.56971073950E-02  0.24267919369E-01  0.00000000000E+00 0. -1.
     999901    1    3    3    0    0  0.96369918152E-01  0.74908768176E-01 -0.83921457999E-01  0.89237956935E+00  0.88000000000E+00 0.  1.
        -11    1    4    4    0    0 -0.75006995299E-01 -0.54670842719E-01  0.68002899594E-01  0.11506348622E+00  0.51100000000E-03 0.  1.
         11    1    4    4    0    0 -0.23763563363E-02 -0.62384551203E-02  0.10221451010E-01  0.12219025062E-01  0.51100000000E-03 0. -1.
</event>
<event>
 8    1  0.1076043E+005  0.1043930E+01  0.7957747E-01            NaN
         13   -1    0    0    0    0  0.00000000000E+00  0.00000000000E+00  0.74505805969E-08  0.10566000000E+00  0.10566000000E+00 0. -1.
     999900   -1    0    0    0    0 -0.00000000000E+00 -0.00000000000E+00 -0.74505805969E-08  0.93827000000E+00  0.93827000000E+00 0. -1.
     999902    2    1    2    0    0 -0.82216892301E-02 -0.24066840174E-04 -0.22311159820E-01  0.10201521825E+01  0.10198750369E+01 0.  0.
     999903    2    3    3    0    0  0.68102805241E-01 -0.98555379936E-01  0.43769770998E-01  0.12891678287E+00  0.18777354889E-01 0.  0.
         14    1    1    2    0    0  0.82216892301E-02  0.24066840174E-04  0.22311159820E-01  0.23777817509E-01  0.00000000000E+00 0. -1.
     999901    1    3    3    0    0 -0.76324494471E-01  0.98531313096E-01 -0.66080930818E-01  0.89123539962E+00  0.88000000000E+00 0. -1.
        -11    1    4    4    0    0  0.17929167089E-01 -0.41170101089E-01  0.19045053760E-01  0.48779170246E-01  0.51100000000E-03 0.  1.
         11    1    4    4    0    0  0.50173638152E-01 -0.57385278848E-01  0.24724717239E-01  0.80137612626E-01  0.51100000000E-03 0. -1.
</event>
<event>
 8    1  0.1076043E+005  0.1043930E+01  0.7957747E-01            NaN
         13   -1    0    0    0    0  0.00000000000E+00  0.00000000000E+00  0.74505805969E-08  0.10566000000E+00  0.10566000000E+00 0. -1.
     999900   -1    0    0    0    0 -0.00000000000E+00 -0.00000000000E+00 -0.74505805969E-08  0.93827000000E+00  0.93827000000E+00 0.  1.
     999902    2    1    2    0    0 -0.21468586067E-01  0.79108919953E-02 -0.75735101553E-02  0.10198293681E+01  0.10195445550E+01 0.  0.
     999903    2    3    3    0    0 -0.48822180235E-01  0.89874321903E-01  0.79786023453E-01  0.13129241839E+00  0.20270435829E-01 0.  0.
         14    1    1    2    0    0  0.21468586067E-01 -0.79108919953E-02  0.75735101553E-02  0.24100631858E-01  0.00000000000E+00 0. -1.
     999901    1    3    3    0    0  0.27353594168E-01 -0.81963429908E-01 -0.87359533608E-01  0.88853694975E+00  0.88000000000E+00 0.  1.
        -11    1    4    4    0    0 -0.44371874359E-01  0.65512789256E-01  0.55890430131E-01  0.96875126278E-01  0.51100000000E-03 0. -1.
         11    1    4    4    0    0 -0.44503058757E-02  0.24361532648E-01  0.23895593322E-01  0.34417292115E-01  0.51100000000E-03 0.  1.
</event>
<event>
 8    1  0.1076043E+005  0.1043930E+01  0.7957747E-01            NaN
         13   -1    0    0    0    0  0.00000000000E+00  0.00000000000E+00  0.74505805969E-08  0.10566000000E+00  0.10566000000E+00 0.  1.
     999900   -1    0    0    0    0 -0.00000000000E+00 -0.00000000000E+00 -0.74505805969E-08  0.93827000000E+00  0.93827000000E+00 0. -1.
     999902    2    1    2    0    0 -0.15160575247E-01  0.10641147968E-01  0.15704164671E-01  0.10196463046E+01  0.10193570958E+01 0.  0.
     999903    2    3    3    0    0 -0.22786378168E-01  0.23056284944E-01 -0.12256469832E+00  0.12873072673E+00  0.22331220880E-01 0.  0.
         14    1    1    2    0    0  0.15160575247E-01 -0.10641147968E-01 -0.15704164671E-01  0.24283695351E-01  0.00000000000E+00 0. -1.
     999901    1    3    3    0    0  0.76258029205E-02 -0.12415136976E-01  0.13826886299E+00  0.89091557791E+00  0.88000000000E+00 0.  1.
        -11    1    4    4    0    0 -0.52808278302E-02  0.19590602317E-01 -0.49133634687E-01  0.53160643527E-01  0.51100000000E-03 0. -1.
         11    1    4    4    0    0 -0.17505550338E-01  0.34656826273E-02 -0.73431063633E-01  0.75570083208E-01  0.51100000000E-03 0.  1.
</event>
<event>
 8    1  0.1076043E+005  0.1043930E+01  0.7957747E-01            NaN
         13   -1    0    0    0    0  0.00000000000E+00  0.00000000000E+00  0.74505805969E-08  0.10566000000E+00  0.10566000000E+00 0.  1.
     999900   -1    0    0    0    0 -0.00000000000E+00 -0.00000000000E+00 -0.74505805969E-08  0.93827000000E+00  0.93827000000E+00 0. -1.
     999902    2    1    2    0    0  0.10850101355E-02 -0.57698250941E-02 -0.23674106953E-01  0.10195387830E+01  0.10192469762E+01 0.  0.
     999903    2    3    3    0    0  0.10219890324E+00  0.72914131409E-01  0.22669600943E-01  0.12905412635E+00  0.19492827911E-01 0.  0.
         14    1    1    2    0    0 -0.10850101355E-02  0.57698250941E-02  0.23674106953E-01  0.24391217039E-01  0.00000000000E+00 0.  1.
     999901    1    3    3    0    0 -0.10111389310E+00 -0.78683956503E-01 -0.46343707896E-01  0.89048465661E+00  0.88000000000E+00 0.  1.
        -11    1    4    4    0    0  0.18069211927E-01  0.22302463087E-01  0.78362397465E-02  0.29758428281E-01  0.51100000000E-03 0.  1.
         11    1    4    4    0    0  0.84129691312E-01  0.50611668322E-01  0.14833361196E-01  0.99295698074E-01  0.51100000000E-03 0. -1.
</event>
<event>
 8    1  0.1076043E+005  0.1043930E+01  0.7957747E-01            NaN
         13   -1    0    0    0    0  0.00000000000E+00  0.00000000000E+00  0.74505805969E-08  0.10566000000E+00  0.10566000000E+00 0. -1.
     999900   -1    0    0    0    0 -0.00000000000E+00 -0.00000000000E+00 -0.74505805969E-08  0.93827000000E+00  0.93827000000E+00 0.  1.
     999902    2    1    2    0    0  0.15904427344E-01  0.58942109802E-02  0.12562878978E-01  0.10228226918E+01  0.10226048799E+01 0.  0.
     999903    2    3    3    0    0 -0.77265975800E-01 -0.90326453267E-01 -0.50014124302E-01  0.13049146315E+00  0.19942671538E-01 0.  0.
         14    1    1    2    0    0 -0.15904427344E-01 -0.58942109802E-02 -0.12562878978E-01  0.21107308223E-01  0.00000000000E+00 0.  1.
     999901    1    3    3    0    0  0.93170403144E-01  0.96220664247E-01  0.62577003280E-01  0.89233122863E+00  0.88000000000E+00 0. -1.
        -11    1    4    4    0    0 -0.17568208711E-01 -0.34711571585E-01 -0.14842616400E-01  0.41642520839E-01  0.51100000000E-03 0.  1.
         11    1    4    4    0    0 -0.59697767089E-01 -0.55614881682E-01 -0.35171507902E-01  0.88848942307E-01  0.51100000000E-03 0. -1.
</event>
<event>
 8    1  0.1076043E+005  0.1043930E+01  0.7957747E-01            NaN
         13   -1    0    0    0    0  0.00000000000E+00  0.00000000000E+00  0.74505805969E-08  0.10566000000E+00  0.10566000000E+00 0. -1.
     999900   -1    0    0    0    0 -0.00000000000E+00 -0.00000000000E+00 -0.74505805969E-08  0.93827000000E+00  0.93827000000E+00 0.  1.
     999902    2    1    2    0    0  0.10187634827E-01  0.10109130541E-01  0.18588590079E-01  0.10204455774E+01  0.10201753076E+01 0.  0.
     999903    2    3    3    0    0 -0.10344210135E+00  0.12720552855E-01 -0.73817621142E-01  0.12833715106E+00  0.12621503697E-01 0.  0.
         14    1    1    2    0    0 -0.10187634827E-01 -0.10109130541E-01 -0.18588590079E-01  0.23484422598E-01  0.00000000000E+00 0.  1.
     999901    1    3    3    0    0  0.11362973618E+00 -0.26114223141E-02  0.92406211220E-01  0.89210842634E+00  0.88000000000E+00 0. -1.
        -11    1    4    4    0    0 -0.24342692852E-01  0.70994903315E-02 -0.13706712226E-01  0.28828883768E-01  0.51100000000E-03 0.  1.
         11    1    4    4    0    0 -0.79099408498E-01  0.56210625235E-02 -0.60110908915E-01  0.99508267296E-01  0.51100000000E-03 0. -1.
</event>
<event>
 8    1  0.1076043E+005  0.1043930E+01  0.7957747E-01            NaN
         13   -1    0    0    0    0  0.00000000000E+00  0.00000000000E+00  0.74505805969E-08  0.10566000000E+00  0.10566000000E+00 0. -1.
     999900   -1    0    0    0    0 -0.00000000000E+00 -0.00000000000E+00 -0.74505805969E-08  0.93827000000E+00  0.93827000000E+00 0.  1.
     999902    2    1    2    0    0  0.21544217926E-01  0.94429065033E-02  0.20771922266E-02  0.10203156709E+01  0.10200423677E+01 0.  0.
     999903    2    3    3    0    0  0.29471902203E-02 -0.10985617680E+00 -0.65689924328E-01  0.12948992884E+00  0.19375500028E-01 0.  0.
         14    1    1    2    0    0 -0.21544217926E-01 -0.94429065033E-02 -0.20771922266E-02  0.23614329057E-01  0.00000000000E+00 0. -1.
     999901    1    3    3    0    0  0.18597027705E-01  0.11929908330E+00  0.67767116555E-01  0.89082574211E+00  0.88000000000E+00 0. -1.
        -11    1    4    4    0    0  0.90857645388E-02 -0.26744037104E-01 -0.16432471138E-01  0.32681521791E-01  0.51100000000E-03 0. -1.
         11    1    4    4    0    0 -0.61385743186E-02 -0.83112139691E-01 -0.49257453190E-01  0.96808407044E-01  0.51100000000E-03 0.  1.
</event>
<event>
 8    1  0.1076043E+005  0.1043930E+01  0.7957747E-01            NaN
         13   -1    0    0    0    0  0.00000000000E+00  0.00000000000E+00  0.74505805969E-08  0.10566000000E+00  0.10566000000E+00 0. -1.
     999900   -1    0    0    0    0 -0.00000000000E+00 -0.00000000000E+00 -0.74505805969E-08  0.93827000000E+00  0.93827000000E+00 0.  1.
     999902    2    1    2    0    0  0.52873979063E-02 -0.73365464130E-02 -0.22216094047E-01  0.10199438306E+01  0.10196617484E+01 0.  0.
     999903    2    3    3    0    0 -0.86507271422E-01  0.86207025393E-01 -0.39874823368E-01  0.13006266328E+00  0.20276479132E-01 0.  0.
         14    1    1    2    0    0 -0.52873979063E-02  0.73365464130E-02  0.22216094047E-01  0.23986169444E-01  0.00000000000E+00 0. -1.
     999901    1    3    3    0    0  0.91794669328E-01 -0.93543571806E-01  0.17658729321E-01  0.88988116727E+00  0.88000000000E+00 0. -1.
        -11    1    4    4    0    0 -0.56358558141E-01  0.53732332446E-01 -0.35347774879E-01  0.85517114870E-01  0.51100000000E-03 0. -1.
         11    1    4    4    0    0 -0.30148713281E-01  0.32474692947E-01 -0.45270484895E-02  0.44545548414E-01  0.51100000000E-03 0.  1.
</event>
<event>
 8    1  0.1076043E+005  0.1043930E+01  0.7957747E-01            NaN
         13   -1    0    0    0    0  0.00000000000E+00  0.00000000000E+00  0.74505805969E-08  0.10566000000E+00  0.10566000000E+00 0.  1.
     999900   -1    0    0    0    0 -0.00000000000E+00 -0.00000000000E+00 -0.74505805969E-08  0.93827000000E+00  0.93827000000E+00 0. -1.
     999902    2    1    2    0    0  0.12307836542E-01  0.16403083539E-01 -0.10451215179E-01  0.10209132259E+01  0.10206537331E+01 0.  0.
     999903    2    3    3    0    0 -0.92516058301E-01  0.85143294760E-01 -0.33208902642E-01  0.13173878978E+00  0.21063613911E-01 0.  0.
         14    1    1    2    0    0 -0.12307836542E-01 -0.16403083539E-01  0.10451215179E-01  0.23016774071E-01  0.00000000000E+00 0.  1.
     999901    1    3    3    0    0  0.10482389484E+00 -0.68740211220E-01  0.22757687464E-01  0.88917443615E+00  0.88000000000E+00 0. -1.
        -11    1    4    4    0    0 -0.63451483696E-01  0.69901978136E-01 -0.28257536844E-01  0.98545049800E-01  0.51100000000E-03 0.  1.
         11    1    4    4    0    0 -0.29064574604E-01  0.15241316624E-01 -0.49513657983E-02  0.33193739976E-01  0.51100000000E-03 0. -1.
</event>
<event>
 8    1  0.1076043E+005  0.1043930E+01  0.7957747E-01            NaN
         13   -1    0    0    0    0  0.00000000000E+00  0.00000000000E+00  0.74505805969E-08  0.10566000000E+00  0.10566000000E+00 0. -1.
     999900   -1    0    0    0    0 -0.00000000000E+00 -0.00000000000E+00 -0.74505805969E-08  0.93827000000E+00  0.93827000000E+00 0. -1.
     999902    2    1    2    0    0 -0.16704249373E-01 -0.15495217458E-01 -0.16121513265E-01  0.10160187675E+01  0.10156353179E+01 0.  0.
     999903    2    3    3    0    0 -0.37378750370E-01  0.90191476553E-01  0.75066210127E-01  0.12477676152E+00  0.20065664454E-01 0.  0.
         14    1    1    2    0    0  0.16704249373E-01  0.15495217458E-01  0.16121513265E-01  0.27911232526E-01  0.00000000000E+00 0. -1.
     999901    1    3    3    0    0  0.20674500997E-01 -0.10568669401E+00 -0.91187723392E-01  0.89124200596E+00  0.88000000000E+00 0. -1.
        -11    1    4    4    0    0 -0.17203884381E-01  0.22880136041E-01  0.14948873322E-01  0.32298671763E-01  0.51100000000E-03 0. -1.
         11    1    4    4    0    0 -0.20174865989E-01  0.67311340512E-01  0.60117336805E-01  0.92478089755E-01  0.51100000000E-03 0.  1.
</event>
<event>
 8    1  0.1076043E+005  0.1043930E+01  0.7957747E-01            NaN
         13   -1    0    0    0    0  0.00000000000E+00  0.00000000000E+00  0.74505805969E-08  0.10566000000E+00  0.10566000000E+00 0.  1.
     999900   -1    0    0    0    0 -0.00000000000E+00 -0.00000000000E+00 -0.74505805969E-08  0.93827000000E+00  0.93827000000E+00 0. -1.
     999902    2    1    2    0    0  0.59212682275E-02  0.15668761792E-01  0.12536936592E-01  0.10230076126E+01  0.10227936396E+01 0.  0.
     999903    2    3    3    0    0  0.98614361102E-01 -0.60183280480E-01 -0.60227343136E-01  0.13191828930E+00  0.20694992739E-01 0.  0.
         14    1    1    2    0    0 -0.59212682275E-02 -0.15668761792E-01 -0.12536936592E-01  0.20922387355E-01  0.00000000000E+00 0.  1.
     999901    1    3    3    0    0 -0.92693092875E-01  0.75852042272E-01  0.72764279728E-01  0.89108932335E+00  0.88000000000E+00 0. -1.
        -11    1    4    4    0    0  0.61593256772E-01 -0.38383834904E-01 -0.48806410514E-01  0.87460704834E-01  0.51100000000E-03 0. -1.
         11    1    4    4    0    0  0.37021104330E-01 -0.21799445575E-01 -0.11420932623E-01  0.44457584462E-01  0.51100000000E-03 0.  1.
</event>
<event>
 8    1  0.1076043E+005  0.1043930E+01  0.7957747E-01            NaN
         13   -1    0    0    0    0  0.00000000000E+00  0.00000000000E+00  0.74505805969E-08  0.10566000000E+00  0.10566000000E+00 0. -1.
     999900   -1    0    0    0    0 -0.00000000000E+00 -0.00000000000E+00 -0.74505805969E-08  0.93827000000E+00  0.93827000000E+00 0. -1.
     999902    2    1    2    0    0 -0.92556744615E-02  0.13116394135E-01 -0.17305568636E-01  0.10203251274E+01  0.10200520455E+01 0.  0.
     999903    2    3    3    0    0 -0.10876434282E+00 -0.69755801447E-01 -0.21872443350E-02  0.13071940596E+00  0.19678032206E-01 0.  0.
         14    1    1    2    0    0  0.92556744615E-02 -0.13116394135E-01  0.17305568636E-01  0.23604872604E-01  0.00000000000E+00 0. -1.
     999901    1    3    3    0    0  0.99508668362E-01  0.82872195582E-01 -0.15118324301E-01  0.88960572143E+00  0.88000000000E+00 0. -1.
        -11    1    4    4    0    0 -0.54357631632E-01 -0.30522820962E-01 -0.10170243456E-01  0.63167156728E-01  0.51100000000E-03 0.  1.
         11    1    4    4    0    0 -0.54406711192E-01 -0.39232980485E-01  0.79829991208E-02  0.67552249233E-01  0.51100000000E-03 0. -1.
</event>
<event>
 8    1  0.1076043E+005  0.1043930E+01  0.7957747E-01            NaN
         13   -1    0    0    0    0  0.00000000000E+00  0.00000000000E+00  0.74505805969E-08  0.10566000000E+00  0.10566000000E+00 0.  1.
     999900   -1    0    0    0    0 -0.00000000000E+00 -0.00000000000E+00 -0.74505805969E-08  0.93827000000E+00  0.93827000000E+00 0. -1.
     999902    2    1    2    0    0  0.11711964869E-01  0.74776670810E-02 -0.16383648261E-01  0.10224472265E+01  0.10222215129E+01 0.  0.
     999903    2    3    3    0    0 -0.10825079359E+00 -0.66636271670E-01  0.21435706184E-01  0.13041906390E+00  0.19774117254E-01 0.  0.
         14    1    1    2    0    0 -0.11711964869E-01 -0.74776670810E-02  0.16383648261E-01  0.21482773480E-01  0.00000000000E+00 0.  1.
     999901    1    3    3    0    0  0.11996275846E+00  0.74113938751E-01 -0.37819354445E-01  0.89202816262E+00  0.88000000000E+00 0. -1.
        -11    1    4    4    0    0 -0.57289932856E-01 -0.45676830339E-01  0.80599032894E-02  0.73713854861E-01  0.51100000000E-03 0. -1.
         11    1    4    4    0    0 -0.50960860738E-01 -0.20959441331E-01  0.13375802895E-01  0.56705209039E-01  0.51100000000E-03 0.  1.
</event>
<event>
 8    1  0.1076043E+005  0.1043930E+01  0.7957747E-01            NaN
         13   -1    0    0    0    0  0.00000000000E+00  0.00000000000E+00  0.74505805969E-08  0.10566000000E+00  0.10566000000E+00 0. -1.
     999900   -1    0    0    0    0 -0.00000000000E+00 -0.00000000000E+00 -0.74505805969E-08  0.93827000000E+00  0.93827000000E+00 0. -1.
     999902    2    1    2    0    0 -0.13466981316E-01  0.18575192829E-01 -0.53753790667E-02  0.10203653639E+01  0.10200932231E+01 0.  0.
     999903    2    3    3    0    0  0.31960612205E-01 -0.83906789763E-01  0.89289456365E-01  0.12821758798E+00  0.20132380608E-01 0.  0.
         14    1    1    2    0    0  0.13466981316E-01 -0.18575192829E-01  0.53753790667E-02  0.23564636100E-01  0.00000000000E+00 0.  1.
     999901    1    3    3    0    0 -0.45427593521E-01  0.10248198259E+00 -0.94664835432E-01  0.89214777592E+00  0.88000000000E+00 0. -1.
        -11    1    4    4    0    0  0.26020365928E-01 -0.67063012306E-01  0.81555571704E-01  0.10874777910E+00  0.51100000000E-03 0.  1.
         11    1    4    4    0    0  0.59402462765E-02 -0.16843777458E-01  0.77338846607E-02  0.19469808880E-01  0.51100000000E-03 0. -1.
</event>
<event>
 8    1  0.1076043E+005  0.1043930E+01  0.7957747E-01            NaN
         13   -1    0    0    0    0  0.00000000000E+00  0.00000000000E+00  0.74505805969E-08  0.10566000000E+00  0.10566000000E+00 0.  1.
     999900   -1    0    0    0    0 -0.00000000000E+00 -0.00000000000E+00 -0.74505805969E-08  0.93827000000E+00  0.93827000000E+00 0.  1.
     999902    2    1    2    0    0  0.90544639593E-02 -0.19724220055E-01  0.90062342149E-02  0.10204323314E+01  0.10201617531E+01 0.  0.
     999903    2    3    3    0    0  0.96209855199E-01  0.80479758599E-01  0.30107555931E-01  0.13021765767E+00  0.17800159110E-01 0.  0.
         14    1    1    2    0    0 -0.90544639593E-02  0.19724220055E-01 -0.90062342149E-02  0.23497668589E-01  0.00000000000E+00 0.  1.
     999901    1    3    3    0    0 -0.87155391239E-01 -0.10020397865E+00 -0.21101321716E-01  0.89021467374E+00  0.88000000000E+00 0. -1.
        -11    1    4    4    0    0  0.42934239128E-01  0.47330811310E-01  0.16738637895E-01  0.66060560915E-01  0.51100000000E-03 0.  1.
         11    1    4    4    0    0  0.53275616071E-01  0.33148947288E-01  0.13368918037E-01  0.64157096759E-01  0.51100000000E-03 0. -1.
</event>
<event>
 8    1  0.1076043E+005  0.1043930E+01  0.7957747E-01            NaN
         13   -1    0    0    0    0  0.00000000000E+00  0.00000000000E+00  0.74505805969E-08  0.10566000000E+00  0.10566000000E+00 0. -1.
     999900   -1    0    0    0    0 -0.00000000000E+00 -0.00000000000E+00 -0.74505805969E-08  0.93827000000E+00  0.93827000000E+00 0.  1.
     999902    2    1    2    0    0 -0.34784070575E-02 -0.16391308450E-01  0.15423236544E-01  0.10211560997E+01  0.10209021155E+01 0.  0.
     999903    2    3    3    0    0  0.63612702156E-01  0.89994493667E-01 -0.64445897217E-01  0.12863257938E+00  0.15731562064E-01 0.  0.
         14    1    1    2    0    0  0.34784070575E-02  0.16391308450E-01 -0.15423236544E-01  0.22773900278E-01  0.00000000000E+00 0. -1.
     999901    1    3    3    0    0 -0.67091109214E-01 -0.10638580212E+00  0.79869133761E-01  0.89252352034E+00  0.88000000000E+00 0. -1.
        -11    1    4    4    0    0  0.55821238154E-01  0.73290824210E-01 -0.59017581014E-01  0.10941156946E+00  0.51100000000E-03 0. -1.
         11    1    4    4    0    0  0.77914640025E-02  0.16703669458E-01 -0.54283162031E-02  0.19221009923E-01  0.51100000000E-03 0.  1.
</event>
<event>
 8    1  0.1076043E+005  0.1043930E+01  0.7957747E-01            NaN
         13   -1    0    0    0    0  0.00000000000E+00  0.00000000000E+00  0.74505805969E-08  0.10566000000E+00  0.10566000000E+00 0.  1.
     999900   -1    0    0    0    0 -0.00000000000E+00 -0.00000000000E+00 -0.74505805969E-08  0.93827000000E+00  0.93827000000E+00 0.  1.
     999902    2    1    2    0    0  0.10286618791E-01 -0.19183378692E-01  0.99171161909E-02  0.10200100138E+01  0.10197295046E+01 0.  0.
     999903    2    3    3    0    0 -0.23361171257E-01  0.26752723010E-01 -0.12168435748E+00  0.12840402066E+00  0.20470885521E-01 0.  0.
         14    1    1    2    0    0 -0.10286618791E-01  0.19183378692E-01 -0.99171161909E-02  0.23919986157E-01  0.00000000000E+00 0.  1.
     999901    1    3    3    0    0  0.33647790048E-01 -0.45936101703E-01  0.13160147367E+00  0.89160599319E+00  0.88000000000E+00 0. -1.
        -11    1    4    4    0    0 -0.68773363811E-02 -0.16248892487E-02 -0.35089820789E-01  0.35797970121E-01  0.51100000000E-03 0.  1.
         11    1    4    4    0    0 -0.16483834876E-01  0.28377612259E-01 -0.86594536693E-01  0.92606050535E-01  0.51100000000E-03 0. -1.
</event>
<event>
 8    1  0.1076043E+005  0.1043930E+01  0.7957747E-01            NaN
         13   -1    0    0    0    0  0.00000000000E+00  0.00000000000E+00  0.74505805969E-08  0.10566000000E+00  0.10566000000E+00 0.  1.
     999900   -1    0    0    0    0 -0.00000000000E+00 -0.00000000000E+00 -0.74505805969E-08  0.93827000000E+00  0.93827000000E+00 0.  1.
     999902    2    1    2    0    0  0.16642383432E-01  0.24326304462E-02  0.16695121688E-01  0.10202316096E+01  0.10199563342E+01 0.  0.
     999903    2    3    3    0    0  0.39421985444E-01  0.95301690159E-02 -0.12102369935E+00  0.12920088123E+00  0.20030348195E-01 0.  0.
         14    1    1    2    0    0 -0.16642383432E-01 -0.24326304462E-02 -0.16695121688E-01  0.23698390354E-01  0.00000000000E+00 0. -1.
     999901    1    3    3    0    0 -0.22779602012E-01 -0.70975385697E-02  0.13771882103E+00  0.89103072842E+00  0.88000000000E+00 0. -1.
        -11    1    4    4    0    0  0.24736059027E-01  0.10656509261E-01 -0.99731043910E-01  0.10330525662E+00  0.51100000000E-03 0. -1.
         11    1    4    4    0    0  0.14685926417E-01 -0.11263402455E-02 -0.21292655435E-01  0.25895624603E-01  0.51100000000E-03 0.  1.
</event>
<event>
 8    1  0.1076043E+005  0.1043930E+01  0.7957747E-01            NaN
         13   -1    0    0    0    0  0.00000000000E+00  0.00000000000E+00  0.74505805969E-08  0.10566000000E+00  0.10566000000E+00 0.  1.
     999900   -1    0    0    0    0 -0.00000000000E+00 -0.00000000000E+00 -0.74505805969E-08  0.93827000000E+00  0.93827000000E+00 0.  1.
     999902    2    1    2    0    0  0.24695145369E-01 -0.15740104586E-01 -0.40738572987E-02  0.10143631704E+01  0.10139321694E+01 0.  0.
     999903    2    3    3    0    0 -0.35606081115E-01 -0.85034292870E-01  0.81497155759E-01  0.12545354583E+00  0.24457755163E-01 0.  0.
         14    1    1    2    0    0 -0.24695145369E-01  0.15740104586E-01  0.40738572987E-02  0.29566829564E-01  0.00000000000E+00 0.  1.
     999901    1    3    3    0    0  0.60301226483E-01  0.69294188284E-01 -0.85571013058E-01  0.88890962461E+00  0.88000000000E+00 0.  1.
        -11    1    4    4    0    0 -0.10816682307E-01 -0.47660336108E-01  0.54049890807E-01  0.72870845140E-01  0.51100000000E-03 0. -1.
         11    1    4    4    0    0 -0.24789398808E-01 -0.37373956762E-01  0.27447264952E-01  0.52582700688E-01  0.51100000000E-03 0.  1.
</event>
<event>
 8    1  0.1076043E+005  0.1043930E+01  0.7957747E-01            NaN
         13   -1    0    0    0    0  0.00000000000E+00  0.00000000000E+00  0.74505805969E-08  0.10566000000E+00  0.10566000000E+00 0.  1.
     999900   -1    0    0    0    0 -0.00000000000E+00 -0.00000000000E+00 -0.74505805969E-08  0.93827000000E+00  0.93827000000E+00 0.  1.
     999902    2    1    2    0    0  0.49841769389E-02  0.23691559390E-01 -0.48310934397E-02  0.10192425240E+01  0.10189434976E+01 0.  0.
     999903    2    3    3    0    0  0.70176764753E-01 -0.10372885108E+00 -0.15784008567E-01  0.12761143391E+00  0.18737403288E-01 0.  0.
         14    1    1    2    0    0 -0.49841769389E-02 -0.23691559390E-01  0.48310934397E-02  0.24687475973E-01  0.00000000000E+00 0.  1.
     999901    1    3    3    0    0 -0.65192587814E-01  0.12742041047E+00  0.10952915127E-01  0.89163109011E+00  0.88000000000E+00 0.  1.
        -11    1    4    4    0    0  0.28919576853E-01 -0.55034130950E-01 -0.14169886662E-01  0.63766325782E-01  0.51100000000E-03 0.  1.
         11    1    4    4    0    0  0.41257187901E-01 -0.48694720126E-01 -0.16141219044E-02  0.63845108130E-01  0.51100000000E-03 0. -1.
</event>
<event>
 8    1  0.1076043E+005  0.1043930E+01  0.7957747E-01            NaN
         13   -1    0    0    0    0  0.00000000000E+00  0.00000000000E+00  0.74505805969E-08  0.10566000000E+00  0.10566000000E+00 0. -1.
     999900   -1    0    0    0    0 -0.00000000000E+00 -0.00000000000E+00 -0.74505805969E-08  0.93827000000E+00  0.93827000000E+00 0.  1.
     999902    2    1    2    0    0 -0.10837671613E-01  0.12490336771E-01 -0.17005038696E-01  0.10202100721E+01  0.10199342902E+01 0.  0.
     999903    2    3    3    0    0 -0.95195398105E-01 -0.14865807201E-01 -0.89272257953E-01  0.13280535292E+00  0.19610448271E-01 0.  0.
         14    1    1    2    0    0  0.10837671613E-01 -0.12490336771E-01  0.17005038696E-01  0.23719927902E-01  0.00000000000E+00 0. -1.
     999901    1    3    3    0    0  0.84357726492E-01  0.27356143972E-01  0.72267219257E-01  0.88740471917E+00  0.88000000000E+00 0. -1.
        -11    1    4    4    0    0 -0.39242667977E-01  0.18280809540E-02 -0.28578709912E-01  0.48583254843E-01  0.51100000000E-03 0. -1.
         11    1    4    4    0    0 -0.55952730128E-01 -0.16693888155E-01 -0.60693548040E-01  0.84222098082E-01  0.51100000000E-03 0.  1.
</event>
<event>
 8    1  0.1076043E+005  0.1043930E+01  0.7957747E-01            NaN
         13   -1    0    0    0    0  0.00000000000E+00  0.00000000000E+00  0.74505805969E-08  0.10566000000E+00  0.10566000000E+00 0. -1.
     999900   -1    0    0    0    0 -0.00000000000E+00 -0.00000000000E+00 -0.74505805969E-08  0.93827000000E+00  0.93827000000E+00 0.  1.
     999902    2    1    2    0    0 -0.24272411078E-01 -0.59240012730E-02 -0.58602578365E-03  0.10189382582E+01  0.10186317229E+01 0.  0.
     999903    2    3    3    0    0 -0.31962516037E-01 -0.36075054949E-01  0.11948545921E+00  0.13023955492E+00  0.19040868751E-01 0.  0.
         14    1    1    2    0    0  0.24272411078E-01  0.59240012730E-02  0.58602578365E-03  0.24991741773E-01  0.00000000000E+00 0. -1.
     999901    1    3    3    0    0  0.76901049596E-02  0.30151053676E-01 -0.12007148499E+00  0.88869870331E+00  0.88000000000E+00 0.  1.
        -11    1    4    4    0    0 -0.25208968931E-01 -0.21310285803E-01  0.58973089001E-01  0.67584811481E-01  0.51100000000E-03 0. -1.
         11    1    4    4    0    0 -0.67535471063E-02 -0.14764769146E-01  0.60512370207E-01  0.62654743439E-01  0.51100000000E-03 0.  1.
</event>
<event>
 8    1  0.1076043E+005  0.1043930E+01  0.7957747E-01            NaN
         13   -1    0    0    0    0  0.00000000000E+00  0.00000000000E+00  0.74505805969E-08  0.10566000000E+00  0.10566000000E+00 0. -1.
     999900   -1    0    0    0    0 -0.00000000000E+00 -0.00000000000E+00 -0.74505805969E-08  0.93827000000E+00  0.93827000000E+00 0.  1.
     999902    2    1    2    0    0  0.14444717759E-01 -0.10077145768E-01  0.15929346724E-01  0.10201825196E+01  0.10199060891E+01 0.  0.
     999903    2    3    3    0    0  0.71966890859E-01  0.77337206599E-01  0.75510513694E-01  0.13198210030E+00  0.23604241506E-01 0.  0.
         14    1    1    2    0    0 -0.14444717759E-01  0.10077145768E-01 -0.15929346724E-01  0.23747480393E-01  0.00000000000E+00 0.  1.
     999901    1    3    3    0    0 -0.57522173100E-01 -0.87414352367E-01 -0.59581166970E-01  0.88820041931E+00  0.88000000000E+00 0.  1.
        -11    1    4    4    0    0  0.17420928079E-01  0.26144982507E-01  0.34524730088E-01  0.46682619400E-01  0.51100000000E-03 0. -1.
         11    1    4    4    0    0  0.54545962780E-01  0.51192224092E-01  0.40985783606E-01  0.85299480900E-01  0.51100000000E-03 0.  1.
</event>
<event>
 8    1  0.1076043E+005  0.1043930E+01  0.7957747E-01            NaN
         13   -1    0    0    0    0  0.00000000000E+00  0.00000000000E+00  0.74505805969E-08  0.10566000000E+00  0.10566000000E+00 0.  1.
     999900   -1    0    0    0    0 -0.00000000000E+00 -0.00000000000E+00 -0.74505805969E-08  0.93827000000E+00  0.93827000000E+00 0.  1.
     999902    2    1    2    0    0  0.12198546789E-01 -0.13942426820E-01  0.13199178165E-01  0.10211832615E+01  0.10209298896E+01 0.  0.
     999903    2    3    3    0    0  0.22808397167E-01  0.12514626132E+00  0.18088262720E-01  0.13018262441E+00  0.20940886948E-01 0.  0.
         14    1    1    2    0    0 -0.12198546789E-01  0.13942426820E-01 -0.13199178165E-01  0.22746738528E-01  0.00000000000E+00 0.  1.
     999901    1    3    3    0    0 -0.10609850377E-01 -0.13908868814E+00 -0.48890845552E-02  0.89100063706E+00  0.88000000000E+00 0. -1.
        -11    1    4    4    0    0  0.24727764484E-01  0.10292183570E+00  0.20227707377E-01  0.10776728570E+00  0.51100000000E-03 0.  1.
         11    1    4    4    0    0 -0.19193673175E-02  0.22224425622E-01 -0.21394446573E-02  0.22415338712E-01  0.51100000000E-03 0. -1.
</event>
<event>
 8    1  0.1076043E+005  0.1043930E+01  0.7957747E-01            NaN
         13   -1    0    0    0    0  0.00000000000E+00  0.00000000000E+00  0.74505805969E-08  0.10566000000E+00  0.10566000000E+00 0. -1.
     999900   -1    0    0    0    0 -0.00000000000E+00 -0.00000000000E+00 -0.74505805969E-08  0.93827000000E+00  0.93827000000E+00 0. -1.
     999902    2    1    2    0    0 -0.81999366039E-02 -0.10145443096E-01  0.19788802961E-01  0.10202284030E+01  0.10199530522E+01 0.  0.
     999903    2    3    3    0    0  0.59703082286E-01  0.96312571670E-01  0.61132458471E-01  0.13025456818E+00  0.19710544299E-01 0.  0.
         14    1    1    2    0    0  0.81999366039E-02  0.10145443096E-01 -0.19788802961E-01  0.23701596962E-01  0.00000000000E+00 0.  1.
     999901    1    3    3    0    0 -0.67903018890E-01 -0.10645801477E+00 -0.41343655510E-01  0.88997383486E+00  0.88000000000E+00 0.  1.
        -11    1    4    4    0    0  0.30539868141E-01  0.54407515518E-01  0.44197023742E-01  0.76462404616E-01  0.51100000000E-03 0.  1.
         11    1    4    4    0    0  0.29163214145E-01  0.41905056152E-01  0.16935434729E-01  0.53792163563E-01  0.51100000000E-03 0. -1.
</event>
<event>
 8    1  0.1076043E+005  0.1043930E+01  0.7957747E-01            NaN
         13   -1    0    0    0    0  0.00000000000E+00  0.00000000000E+00  0.74505805969E-08  0.10566000000E+00  0.10566000000E+00 0. -1.
     999900   -1    0    0    0    0 -0.00000000000E+00 -0.00000000000E+00 -0.74505805969E-08  0.93827000000E+00  0.93827000000E+00 0.  1.
     999902    2    1    2    0    0 -0.56470568664E-02  0.13769444241E-01 -0.15455132021E-01  0.10224742793E+01  0.10222491398E+01 0.  0.
     999903    2    3    3    0    0 -0.46676669527E-01 -0.11756329416E+00 -0.30617446500E-01  0.13165352678E+00  0.19884251868E-01 0.  0.
         14    1    1    2    0    0  0.56470568664E-02 -0.13769444241E-01  0.15455132021E-01  0.21455720724E-01  0.00000000000E+00 0. -1.
     999901    1    3    3    0    0  0.41029612661E-01  0.13133273840E+00  0.15162314479E-01  0.89082075249E+00  0.88000000000E+00 0. -1.
        -11    1    4    4    0    0 -0.32425718059E-01 -0.81615641330E-01 -0.30538528220E-01  0.92980658893E-01  0.51100000000E-03 0. -1.
         11    1    4    4    0    0 -0.14250951468E-01 -0.35947652831E-01 -0.78918279907E-04  0.38672867891E-01  0.51100000000E-03 0.  1.
</event>
<event>
 8    1  0.1076043E+005  0.1043930E+01  0.7957747E-01            NaN
         13   -1    0    0    0    0  0.00000000000E+00  0.00000000000E+00  0.74505805969E-08  0.10566000000E+00  0.10566000000E+00 0.  1.
     999900   -1    0    0    0    0 -0.00000000000E+00 -0.00000000000E+00 -0.74505805969E-08  0.93827000000E+00  0.93827000000E+00 0.  1.
     999902    2    1    2    0    0 -0.21475635865E-02 -0.19198050831E-01  0.13890186795E-01  0.10201368398E+01  0.10198593321E+01 0.  0.
     999903    2    3    3    0    0  0.66185273758E-01 -0.38991386092E-01 -0.10229771017E+00  0.12965338669E+00  0.21079860610E-01 0.  0.
         14    1    1    2    0    0  0.21475635865E-02  0.19198050831E-01 -0.13890186795E-01  0.23793160241E-01  0.00000000000E+00 0.  1.
     999901    1    3    3    0    0 -0.68332837344E-01  0.19793335261E-01  0.11618789697E+00  0.89048345306E+00  0.88000000000E+00 0. -1.
        -11    1    4    4    0    0  0.48747140090E-01 -0.19243391700E-01 -0.76856692004E-01  0.93025824467E-01  0.51100000000E-03 0. -1.
         11    1    4    4    0    0  0.17438133668E-01 -0.19747994392E-01 -0.25441018167E-01  0.36627562227E-01  0.51100000000E-03 0.  1.
</event>
<event>
 8    1  0.1076043E+005  0.1043930E+01  0.7957747E-01            NaN
         13   -1    0    0    0    0  0.00000000000E+00  0.00000000000E+00  0.74505805969E-08  0.10566000000E+00  0.10566000000E+00 0. -1.
     999900   -1    0    0    0    0 -0.00000000000E+00 -0.00000000000E+00 -0.74505805969E-08  0.93827000000E+00  0.93827000000E+00 0.  1.
     999902    2    1    2    0    0  0.25609195900E-01 -0.25901972680E-02  0.66636015308E-03  0.10181815229E+01  0.10178558982E+01 0.  0.
     999903    2    3    3    0    0 -0.74353464711E-01  0.57667041064E-01 -0.82461608604E-01  0.12659096246E+00  0.19272507476E-01 0.  0.
         14    1    1    2    0    0 -0.25609195900E-01  0.25901972680E-02 -0.66636015308E-03  0.25748477089E-01  0.00000000000E+00 0.  1.
     999901    1    3    3    0    0  0.99962660612E-01 -0.60257238332E-01  0.83127968757E-01  0.89159056045E+00  0.88000000000E+00 0. -1.
        -11    1    4    4    0    0 -0.47819266647E-01  0.35614555965E-01 -0.63942321751E-01  0.87429746032E-01  0.51100000000E-03 0. -1.
         11    1    4    4    0    0 -0.26534198064E-01  0.22052485098E-01 -0.18519286853E-01  0.39161216432E-01  0.51100000000E-03 0.  1.
</event>
<event>
 8    1  0.1076043E+005  0.1043930E+01  0.7957747E-01            NaN
         13   -1    0    0    0    0  0.00000000000E+00  0.00000000000E+00  0.74505805969E-08  0.10566000000E+00  0.10566000000E+00 0. -1.
     999900   -1    0    0    0    0 -0.00000000000E+00 -0.00000000000E+00 -0.74505805969E-08  0.93827000000E+00  0.93827000000E+00 0. -1.
     999902    2    1    2    0    0 -0.20160408228E-01  0.61305531855E-02 -0.11867093357E-01  0.10197462524E+01  0.10194594478E+01 0.  0.
     999903    2    3    3    0    0 -0.48447851652E-01 -0.11927917066E+00  0.46062476069E-02  0.13025249232E+00  0.19229647824E-01 0.  0.
         14    1    1    2    0    0  0.20160408228E-01 -0.61305531855E-02  0.11867093357E-01  0.24183747580E-01  0.00000000000E+00 0. -1.
     999901    1    3    3    0    0  0.28287443424E-01  0.12540972385E+00 -0.16473340964E-01  0.88949376010E+00  0.88000000000E+00 0. -1.
        -11    1    4    4    0    0 -0.34169630352E-01 -0.58899516161E-01  0.37749987596E-02  0.68199914802E-01  0.51100000000E-03 0.  1.
         11    1    4    4    0    0 -0.14278221300E-01 -0.60379654501E-01  0.83124884732E-03  0.62052577520E-01  0.51100000000E-03 0. -1.
</event>
<event>
 8    1  0.1076043E+005  0.1043930E+01  0.7957747E-01            NaN
         13   -1    0    0    0    0  0.00000000000E+00  0.00000000000E+00  0.74505805969E-08  0.10566000000E+00  0.10566000000E+00 0.  1.
     999900   -1    0    0    0    0 -0.00000000000E+00 -0.00000000000E+00 -0.74505805969E-08  0.93827000000E+00  0.93827000000E+00 0.  1.
     999902    2    1    2    0    0  0.18753296768E-01 -0.16058609958E-01 -0.42031300394E-02  0.10188854119E+01  0.10185775626E+01 0.  0.
     999903    2    3    3    0    0  0.55463871777E-01 -0.94670765112E-01  0.70548998946E-01  0.13146475734E+00  0.16340940371E-01 0.  0.
         14    1    1    2    0    0 -0.18753296768E-01  0.16058609958E-01  0.42031300394E-02  0.25044588150E-01  0.00000000000E+00 0.  1.
     999901    1    3    3    0    0 -0.36710575009E-01  0.78612155153E-01 -0.74752128985E-01  0.88742065451E+00  0.88000000000E+00 0. -1.
        -11    1    4    4    0    0  0.34702158116E-01 -0.48833773813E-01  0.45643995023E-01  0.75316748771E-01  0.51100000000E-03 0.  1.
         11    1    4    4    0    0  0.20761713661E-01 -0.45836991299E-01  0.24905003922E-01  0.56148008574E-01  0.51100000000E-03 0. -1.
</event>
<event>
 8    1  0.1076043E+005  0.1043930E+01  0.7957747E-01            NaN
         13   -1    0    0    0    0  0.00000000000E+00  0.00000000000E+00  0.74505805969E-08  0.10566000000E+00  0.10566000000E+00 0. -1.
     999900   -1    0    0    0    0 -0.00000000000E+00 -0.00000000000E+00 -0.74505805969E-08  0.93827000000E+00  0.93827000000E+00 0.  1.
     999902    2    1    2    0    0 -0.15949731805E-01  0.11668441839E-02  0.18829315741E-01  0.10192257777E+01  0.10189263404E+01 0.  0.
     999903    2    3    3    0    0 -0.10664415571E-01  0.10736346205E+00 -0.67092957828E-01  0.12867072978E+00  0.20348193247E-01 0.  0.
         14    1    1    2    0    0  0.15949731805E-01 -0.11668441839E-02 -0.18829315741E-01  0.24704222338E-01  0.00000000000E+00 0.  1.
     999901    1    3    3    0    0 -0.52853162347E-02 -0.10619661787E+00  0.85922273569E-01  0.89055504788E+00  0.88000000000E+00 0. -1.
        -11    1    4    4    0    0 -0.16264692357E-01  0.66164170835E-01 -0.43986660366E-01  0.81100709805E-01  0.51100000000E-03 0. -1.
         11    1    4    4    0    0  0.56002767867E-02  0.41199291218E-01 -0.23106297462E-01  0.47570019975E-01  0.51100000000E-03 0.  1.
</event>
<event>
 8    1  0.1076043E+005  0.1043930E+01  0.7957747E-01            NaN
         13   -1    0    0    0    0  0.00000000000E+00  0.00000000000E+00  0.74505805969E-08  0.10566000000E+00  0.10566000000E+00 0.  1.
     999900   -1    0    0    0    0 -0.00000000000E+00 -0.00000000000E+00 -0.74505805969E-08  0.93827000000E+00  0.93827000000E+00 0. -1.
     999902    2    1    2    0    0  0.57022098937E-02  0.12899093035E-01 -0.18235553684E-01  0.10208770779E+01  0.10206167601E+01 0.  0.
     999903    2    3    3    0    0 -0.45860316818E-01 -0.11695708275E+00 -0.25532130799E-01  0.12982457632E+00  0.20503732591E-01 0.  0.
         14    1    1    2    0    0 -0.57022098937E-02 -0.12899093035E-01  0.18235553684E-01  0.23052922091E-01  0.00000000000E+00 0.  1.
     999901    1    3    3    0    0  0.51562526712E-01  0.12985617578E+00  0.72965771154E-02  0.89105250159E+00  0.88000000000E+00 0. -1.
        -11    1    4    4    0    0 -0.35764833930E-01 -0.69865227212E-01 -0.95001473330E-02  0.79061920289E-01  0.51100000000E-03 0.  1.
         11    1    4    4    0    0 -0.10095482889E-01 -0.47091855535E-01 -0.16031983466E-01  0.50762656031E-01  0.51100000000E-03 0. -1.
</event>
<event>
 8    1  0.1076043E+005  0.1043930E+01  0.7957747E-01            NaN
         13   -1    0    0    0    0  0.00000000000E+00  0.00000000000E+00  0.74505805969E-08  0.10566000000E+00  0.10566000000E+00 0.  1.
     999900   -1    0    0    0    0 -0.00000000000E+00 -0.00000000000E+00 -0.74505805969E-08  0.93827000000E+00  0.93827000000E+00 0.  1.
     999902    2    1    2    0    0 -0.22547944510E-01 -0.28376900361E-02  0.69643780287E-02  0.10201610108E+01  0.10198840734E+01 0.  0.
     999903    2    3    3    0    0  0.33513906932E-01 -0.10528821477E+00  0.66387039054E-01  0.13045876069E+00  0.20086292808E-01 0.  0.
         14    1    1    2    0    0  0.22547944510E-01  0.28376900361E-02 -0.69643780287E-02  0.23768989202E-01  0.00000000000E+00 0. -1.
     999901    1    3    3    0    0 -0.56061851442E-01  0.10245052473E+00 -0.59422661025E-01  0.88970225011E+00  0.88000000000E+00 0.  1.
        -11    1    4    4    0    0  0.36105360821E-01 -0.10025968444E+00  0.62056151583E-01  0.12331597007E+00  0.51100000000E-03 0.  1.
         11    1    4    4    0    0 -0.25914538889E-02 -0.50285303317E-02  0.43308874710E-02  0.71427906201E-02  0.51100000000E-03 0. -1.
</event>
<event>
 8    1  0.1076043E+005  0.1043930E+01  0.7957747E-01            NaN
         13   -1    0    0    0    0  0.00000000000E+00  0.00000000000E+00  0.74505805969E-08  0.10566000000E+00  0.10566000000E+00 0. -1.
     999900   -1    0    0    0    0 -0.00000000000E+00 -0.00000000000E+00 -0.74505805969E-08  0.93827000000E+00  0.93827000000E+00 0. -1.
     999902    2    1    2    0    0  0.19356882952E-01 -0.16848304737E-01  0.15710190373E-02  0.10182196443E+01  0.10178949954E+01 0.  0.
     999903    2    3    3    0    0 -0.64331819717E-01  0.14569627916E-01  0.10719300035E+00  0.12740715651E+00  0.19783506254E-01 0.  0.
         14    1    1    2    0    0 -0.19356882952E-01  0.16848304737E-01 -0.15710190373E-02  0.25710355715E-01  0.00000000000E+00 0.  1.
     999901    1    3    3    0    0  0.83688702670E-01 -0.31417932653E-01 -0.10562198131E+00  0.89081248778E+00  0.88000000000E+00 0.  1.
        -11    1    4    4    0    0 -0.47104102306E-01  0.19263192426E-01  0.82388724488E-01  0.96840229658E-01  0.51100000000E-03 0.  1.
         11    1    4    4    0    0 -0.17227717411E-01 -0.46935645097E-02  0.24804275860E-01  0.30566926848E-01  0.51100000000E-03 0. -1.
</event>
<event>
 8    1  0.1076043E+005  0.1043930E+01  0.7957747E-01            NaN
         13   -1    0    0    0    0  0.00000000000E+00  0.00000000000E+00  0.74505805969E-08  0.10566000000E+00  0.10566000000E+00 0.  1.
     999900   -1    0    0    0    0 -0.00000000000E+00 -0.00000000000E+00 -0.74505805969E-08  0.93827000000E+00  0.93827000000E+00 0. -1.
     999902    2    1    2    0    0  0.71938402925E-02 -0.49788058498E-03 -0.22405612651E-01  0.10203925681E+01  0.10201210626E+01 0.  0.
     999903    2    3    3    0    0  0.84036864670E-01 -0.96233774023E-01  0.19380944769E-01  0.13088915152E+00  0.20813819426E-01 0.  0.
         14    1    1    2    0    0 -0.71938402925E-02  0.49788058498E-03  0.22405612651E-01  0.23537431922E-01  0.00000000000E+00 0.  1.
     999901    1    3    3    0    0 -0.76843024378E-01  0.95735893438E-01 -0.41786557420E-01  0.88950341656E+00  0.88000000000E+00 0.  1.
        -11    1    4    4    0    0  0.61816363534E-01 -0.61367177895E-01  0.20653854560E-01  0.89521149191E-01  0.51100000000E-03 0. -1.
         11    1    4    4    0    0  0.22220501136E-01 -0.34866596128E-01 -0.12729097907E-02  0.41368002328E-01  0.51100000000E-03 0.  1.
</event>
<event>
 8    1  0.1076043E+005  0.1043930E+01  0.7957747E-01            NaN
         13   -1    0    0    0    0  0.00000000000E+00  0.00000000000E+00  0.74505805969E-08  0.10566000000E+00  0.10566000000E+00 0.  1.
     999900   -1    0    0    0    0 -0.00000000000E+00 -0.00000000000E+00 -0.74505805969E-08  0.93827000000E+00  0.93827000000E+00 0. -1.
     999902    2    1    2    0    0 -0.16104942972E-01  0.10971378882E-01 -0.12666568392E-01  0.10206881778E+01  0.10204235268E+01 0.  0.
     999903    2    3    3    0    0  0.24350646817E-01 -0.24020459978E-01  0.12247396252E+00  0.12876663048E+00  0.20274050730E-01 0.  0.
         14    1    1    2    0    0  0.16104942972E-01 -0.10971378882E-01  0.12666568392E-01  0.23241822165E-01  0.00000000000E+00 0. -1.
     999901    1    3    3    0    0 -0.40455589789E-01  0.34991838860E-01 -0.13514053091E+00  0.89192154735E+00  0.88000000000E+00 0. -1.
        -11    1    4    4    0    0  0.15245394159E-01 -0.13949132592E-01  0.38474846340E-01  0.43675797245E-01  0.51100000000E-03 0. -1.
         11    1    4    4    0    0  0.91052526583E-02 -0.10071327386E-01  0.83999116180E-01  0.85090833239E-01  0.51100000000E-03 0.  1.
</event>
<event>
 8    1  0.1076043E+005  0.1043930E+01  0.7957747E-01            NaN
         13   -1    0    0    0    0  0.00000000000E+00  0.00000000000E+00  0.74505805969E-08  0.10566000000E+00  0.10566000000E+00 0. -1.
     999900   -1    0    0    0    0 -0.00000000000E+00 -0.00000000000E+00 -0.74505805969E-08  0.93827000000E+00  0.93827000000E+00 0. -1.
     999902    2    1    2    0    0 -0.79780956686E-02  0.13234481222E-01  0.83930207339E-02  0.10263446566E+01  0.10261939923E+01 0.  0.
     999903    2    3    3    0    0 -0.21710418405E-01 -0.53044479433E-01 -0.12014897186E+00  0.13443405509E+00  0.18753150791E-01 0.  0.
         14    1    1    2    0    0  0.79780956686E-02 -0.13234481222E-01 -0.83930207339E-02  0.17585343350E-01  0.00000000000E+00 0.  1.
     999901    1    3    3    0    0  0.13732322736E-01  0.66278960655E-01  0.12854199259E+00  0.89191060156E+00  0.88000000000E+00 0.  1.
        -11    1    4    4    0    0 -0.25269376823E-02 -0.47097987034E-02 -0.29000462151E-01  0.29493313545E-01  0.51100000000E-03 0. -1.
         11    1    4    4    0    0 -0.19183480722E-01 -0.48334680729E-01 -0.91148509705E-01  0.10494074155E+00  0.51100000000E-03 0.  1.
</event>
<event>
 8    1  0.1076043E+005  0.1043930E+01  0.7957747E-01            NaN
         13   -1    0    0    0    0  0.00000000000E+00  0.00000000000E+00  0.74505805969E-08  0.10566000000E+00  0.10566000000E+00 0.  1.
     999900   -1    0    0    0    0 -0.00000000000E+00 -0.00000000000E+00 -0.74505805969E-08  0.93827000000E+00  0.93827000000E+00 0.  1.
     999902    2    1    2    0    0  0.12944426516E-01  0.19653695266E-01  0.21325065095E-02  0.10203000720E+01  0.10200264033E+01 0.  0.
     999903    2    3    3    0    0  0.73885380955E-01 -0.10367043598E+00  0.11802274086E-01  0.12956097116E+00  0.20979579614E-01 0.  0.
         14    1    1    2    0    0 -0.12944426516E-01 -0.19653695266E-01 -0.21325065095E-02  0.23629928046E-01  0.00000000000E+00 0.  1.
     999901    1    3    3    0    0 -0.60940954439E-01  0.12332413124E+00 -0.96697675769E-02  0.89073910079E+00  0.88000000000E+00 0.  1.
        -11    1    4    4    0    0  0.26906279202E-01 -0.31559756750E-01 -0.52998569771E-02  0.41812865383E-01  0.51100000000E-03 0.  1.
         11    1    4    4    0    0  0.46979101753E-01 -0.72110679225E-01  0.17102131063E-01  0.87748105779E-01  0.51100000000E-03 0. -1.
</event>
<event>
 8    1  0.1076043E+005  0.1043930E+01  0.7957747E-01            NaN
         13   -1    0    0    0    0  0.00000000000E+00  0.00000000000E+00  0.74505805969E-08  0.10566000000E+00  0.10566000000E+00 0.  1.
     999900   -1    0    0    0    0 -0.00000000000E+00 -0.00000000000E+00 -0.74505805969E-08  0.93827000000E+00  0.93827000000E+00 0.  1.
     999902    2    1    2    0    0 -0.73208031655E-02 -0.74218605654E-02 -0.21562978931E-01  0.10199792123E+01  0.10196979716E+01 0.  0.
     999903    2    3    3    0    0  0.65636799042E-01  0.30527981356E-01 -0.10844941151E+00  0.13188447948E+00  0.19801364497E-01 0.  0.
         14    1    1    2    0    0  0.73208031655E-02  0.74218605654E-02  0.21562978931E-01  0.23950787745E-01  0.00000000000E+00 0.  1.
     999901    1    3    3    0    0 -0.72957602208E-01 -0.37949841921E-01  0.86886432578E-01  0.88809473278E+00  0.88000000000E+00 0.  1.
        -11    1    4    4    0    0  0.24885696530E-01  0.34451950172E-02 -0.47363288251E-01  0.53616317063E-01  0.51100000000E-03 0.  1.
         11    1    4    4    0    0  0.40751102513E-01  0.27082786339E-01 -0.61086123258E-01  0.78268162414E-01  0.51100000000E-03 0. -1.
</event>
<event>
 8    1  0.1076043E+005  0.1043930E+01  0.7957747E-01            NaN
         13   -1    0    0    0    0  0.00000000000E+00  0.00000000000E+00  0.74505805969E-08  0.10566000000E+00  0.10566000000E+00 0. -1.
     999900   -1    0    0    0    0 -0.00000000000E+00 -0.00000000000E+00 -0.74505805969E-08  0.93827000000E+00  0.93827000000E+00 0. -1.
     999902    2    1    2    0    0  0.81463643117E-02 -0.21499954309E-01  0.89491681666E-02  0.10192581760E+01  0.10189595333E+01 0.  0.
     999903    2    3    3    0    0 -0.10476470920E-01 -0.11449071721E-01 -0.12611168879E+00  0.12870258242E+00  0.20478256436E-01 0.  0.
         14    1    1    2    0    0 -0.81463643117E-02  0.21499954309E-01 -0.89491681666E-02  0.24671823963E-01  0.00000000000E+00 0.  1.
     999901    1    3    3    0    0  0.18622835232E-01 -0.10050882587E-01  0.13506085696E+00  0.89055559361E+00  0.88000000000E+00 0.  1.
        -11    1    4    4    0    0 -0.87740113053E-02  0.36735622041E-02 -0.32744962480E-01  0.34102375613E-01  0.51100000000E-03 0. -1.
         11    1    4    4    0    0 -0.17024596151E-02 -0.15122633926E-01 -0.93366726311E-01  0.94600206811E-01  0.51100000000E-03 0.  1.
</event>
<event>
 8    1  0.1076043E+005  0.1043930E+01  0.7957747E-01            NaN
         13   -1    0    0    0    0  0.00000000000E+00  0.00000000000E+00  0.74505805969E-08  0.10566000000E+00  0.10566000000E+00 0.  1.
     999900   -1    0    0    0    0 -0.00000000000E+00 -0.00000000000E+00 -0.74505805969E-08  0.93827000000E+00  0.93827000000E+00 0.  1.
     999902    2    1    2    0    0  0.22413710465E-01 -0.63796949076E-02 -0.45790875507E-02  0.10201804112E+01  0.10199039310E+01 0.  0.
     999903    2    3    3    0    0  0.85647966751E-01  0.51100388533E-01 -0.83247064776E-01  0.13254806515E+00  0.26307638917E-01 0.  0.
         14    1    1    2    0    0 -0.22413710465E-01  0.63796949076E-02  0.45790875507E-02  0.23749588770E-01  0.00000000000E+00 0.  1.
     999901    1    3    3    0    0 -0.63234256286E-01 -0.57480083440E-01  0.78667977225E-01  0.88763234608E+00  0.88000000000E+00 0.  1.
        -11    1    4    4    0    0  0.26049288238E-01  0.24746294891E-02 -0.19300299627E-01  0.32518485443E-01  0.51100000000E-03 0.  1.
         11    1    4    4    0    0  0.59598678513E-01  0.48625759044E-01 -0.63946765150E-01  0.10002957971E+00  0.51100000000E-03 0. -1.
</event>
<event>
 8    1  0.1076043E+005  0.1043930E+01  0.7957747E-01            NaN
         13   -1    0    0    0    0  0.00000000000E+00  0.00000000000E+00  0.74505805969E-08  0.10566000000E+00  0.10566000000E+00 0. -1.
     999900   -1    0    0    0    0 -0.00000000000E+00 -0.00000000000E+00 -0.74505805969E-08  0.93827000000E+00  0.93827000000E+00 0. -1.
     999902    2    1    2    0    0  0.23437299900E-02 -0.13753774806E-01 -0.18495916133E-01  0.10207619551E+01  0.10204990008E+01 0.  0.
     999903    2    3    3    0    0  0.17394334442E-01 -0.48161992866E-02  0.12601285430E+00  0.12880389235E+00  0.19632742773E-01 0.  0.
         14    1    1    2    0    0 -0.23437299900E-02  0.13753774806E-01  0.18495916133E-01  0.23168044917E-01  0.00000000000E+00 0. -1.
     999901    1    3    3    0    0 -0.15050604452E-01 -0.89375755192E-02 -0.14450877043E+00  0.89195806274E+00  0.88000000000E+00 0. -1.
        -11    1    4    4    0    0 -0.26016110523E-02 -0.22838188079E-02  0.51273176320E-01  0.51392450218E-01  0.51100000000E-03 0.  1.
         11    1    4    4    0    0  0.19995945494E-01 -0.25323804787E-02  0.74739677978E-01  0.77411442128E-01  0.51100000000E-03 0. -1.
</event>
<event>
 8    1  0.1076043E+005  0.1043930E+01  0.7957747E-01            NaN
         13   -1    0    0    0    0  0.00000000000E+00  0.00000000000E+00  0.74505805969E-08  0.10566000000E+00  0.10566000000E+00 0. -1.
     999900   -1    0    0    0    0 -0.00000000000E+00 -0.00000000000E+00 -0.74505805969E-08  0.93827000000E+00  0.93827000000E+00 0.  1.
     999902    2    1    2    0    0  0.83691857954E-02  0.10642595123E-01 -0.19617525731E-01  0.10200939891E+01  0.10198154691E+01 0.  0.
     999903    2    3    3    0    0  0.11722575634E+00  0.50829954600E-01 -0.27953495914E-01  0.13243737459E+00  0.20801394644E-01 0.  0.
         14    1    1    2    0    0 -0.83691857954E-02 -0.10642595123E-01  0.19617525731E-01  0.23836010942E-01  0.00000000000E+00 0. -1.
     999901    1    3    3    0    0 -0.10885657055E+00 -0.40187359477E-01  0.83359701827E-02  0.88765661447E+00  0.88000000000E+00 0.  1.
        -11    1    4    4    0    0  0.85294570827E-01  0.45572822948E-01 -0.25309974225E-01  0.99964503301E-01  0.51100000000E-03 0. -1.
         11    1    4    4    0    0  0.31931185517E-01  0.52571316515E-02 -0.26435216888E-02  0.32472871287E-01  0.51100000000E-03 0.  1.
</event>
<event>
 8    1  0.1076043E+005  0.1043930E+01  0.7957747E-01            NaN
         13   -1    0    0    0    0  0.00000000000E+00  0.00000000000E+00  0.74505805969E-08  0.10566000000E+00  0.10566000000E+00 0.  1.
     999900   -1    0    0    0    0 -0.00000000000E+00 -0.00000000000E+00 -0.74505805969E-08  0.93827000000E+00  0.93827000000E+00 0.  1.
     999902    2    1    2    0    0  0.12420496641E-01 -0.47301986737E-02  0.19889160004E-01  0.10200088336E+01  0.10197282964E+01 0.  0.
     999903    2    3    3    0    0  0.92443476765E-01  0.82140811500E-01 -0.36782425886E-01  0.13031117799E+00  0.18307018977E-01 0.  0.
         14    1    1    2    0    0 -0.12420496641E-01  0.47301986737E-02 -0.19889160004E-01  0.23921166401E-01  0.00000000000E+00 0. -1.
     999901    1    3    3    0    0 -0.80022980124E-01 -0.86871010174E-01  0.56671585890E-01  0.88969765561E+00  0.88000000000E+00 0. -1.
        -11    1    4    4    0    0  0.78722273153E-01  0.60667342850E-01 -0.31702694829E-01  0.10432183261E+00  0.51100000000E-03 0.  1.
         11    1    4    4    0    0  0.13721203612E-01  0.21473468650E-01 -0.50797310561E-02  0.25989345375E-01  0.51100000000E-03 0. -1.
</event>
<event>
 8    1  0.1076043E+005  0.1043930E+01  0.7957747E-01            NaN
         13   -1    0    0    0    0  0.00000000000E+00  0.00000000000E+00  0.74505805969E-08  0.10566000000E+00  0.10566000000E+00 0. -1.
     999900   -1    0    0    0    0 -0.00000000000E+00 -0.00000000000E+00 -0.74505805969E-08  0.93827000000E+00  0.93827000000E+00 0.  1.
     999902    2    1    2    0    0  0.17201545089E-01  0.35002840141E-02  0.16163075380E-01  0.10200681026E+01  0.10197889702E+01 0.  0.
     999903    2    3    3    0    0  0.12681674230E+00 -0.16352746612E-01 -0.26731229448E-01  0.13200867009E+00  0.19021879609E-01 0.  0.
         14    1    1    2    0    0 -0.17201545089E-01 -0.35002840141E-02 -0.16163075380E-01  0.23861897397E-01  0.00000000000E+00 0. -1.
     999901    1    3    3    0    0 -0.10961519721E+00  0.19853030626E-01  0.42894304828E-01  0.88805943251E+00  0.88000000000E+00 0.  1.
        -11    1    4    4    0    0  0.45369775550E-01  0.11576407241E-02 -0.35077900328E-02  0.45522767681E-01  0.51100000000E-03 0.  1.
         11    1    4    4    0    0  0.81446966745E-01 -0.17510387336E-01 -0.23223439415E-01  0.86485902412E-01  0.51100000000E-03 0. -1.
</event>
<event>
 8    1  0.1076043E+005  0.1043930E+01  0.7957747E-01            NaN
         13   -1    0    0    0    0  0.00000000000E+00  0.00000000000E+00  0.74505805969E-08  0.10566000000E+00  0.10566000000E+00 0.  1.
     999900   -1    0    0    0    0 -0.00000000000E+00 -0.00000000000E+00 -0.74505805969E-08  0.93827000000E+00  0.93827000000E+00 0. -1.
     999902    2    1    2    0    0 -0.15635981813E-01 -0.24206844689E-02 -0.17635287686E-01  0.10202372371E+01  0.10199620939E+01 0.  0.
     999903    2    3    3    0    0  0.35417239833E-01 -0.39386823619E-01 -0.11940910009E+00  0.13213204304E+00  0.19865569740E-01 0.  0.
         14    1    1    2    0    0  0.15635981813E-01  0.24206844689E-02  0.17635287686E-01  0.23692762868E-01  0.00000000000E+00 0.  1.
     999901    1    3    3    0    0 -0.51053221646E-01  0.36966139150E-01  0.10177381240E+00  0.88810519409E+00  0.88000000000E+00 0.  1.
        -11    1    4    4    0    0  0.10039237644E-01 -0.20495029057E-01 -0.33122667586E-01  0.40226915586E-01  0.51100000000E-03 0. -1.
         11    1    4    4    0    0  0.25378002189E-01 -0.18891794561E-01 -0.86286432504E-01  0.91905127453E-01  0.51100000000E-03 0.  1.
</event>
<event>
 8    1  0.1076043E+005  0.1043930E+01  0.7957747E-01            NaN
         13   -1    0    0    0    0  0.00000000000E+00  0.00000000000E+00  0.74505805969E-08  0.10566000000E+00  0.10566000000E+00 0. -1.
     999900   -1    0    0    0    0 -0.00000000000E+00 -0.00000000000E+00 -0.74505805969E-08  0.93827000000E+00  0.93827000000E+00 0.  1.
     999902    2    1    2    0    0 -0.15474238278E-01 -0.19529815468E-01 -0.93129000742E-02  0.10173293261E+01  0.10169814954E+01 0.  0.
     999903    2    3    3    0    0 -0.70098472200E-01 -0.43851273575E-01  0.96935729625E-01  0.12892395043E+00  0.19700744105E-01 0.  0.
         14    1    1    2    0    0  0.15474238278E-01  0.19529815468E-01  0.93129000742E-02  0.26600673869E-01  0.00000000000E+00 0. -1.
     999901    1    3    3    0    0  0.54624233922E-01  0.24321458108E-01 -0.10624862970E+00  0.88840537570E+00  0.88000000000E+00 0.  1.
        -11    1    4    4    0    0 -0.17446971761E-01 -0.18201815767E-01  0.39697817526E-01  0.47030636379E-01  0.51100000000E-03 0.  1.
         11    1    4    4    0    0 -0.52651500439E-01 -0.25649457808E-01  0.57237912099E-01  0.81893314054E-01  0.51100000000E-03 0. -1.
</event>
<event>
 8    1  0.1076043E+005  0.1043930E+01  0.7957747E-01            NaN
         13   -1    0    0    0    0  0.00000000000E+00  0.00000000000E+00  0.74505805969E-08  0.10566000000E+00  0.10566000000E+00 0. -1.
     999900   -1    0    0    0    0 -0.00000000000E+00 -0.00000000000E+00 -0.74505805969E-08  0.93827000000E+00  0.93827000000E+00 0. -1.
     999902    2    1    2    0    0  0.52286954764E-02  0.60467017961E-02 -0.21596434703E-01  0.10209015860E+01  0.10206418277E+01 0.  0.
     999903    2    3    3    0    0  0.94149835839E-01  0.55813781237E-01  0.68092007927E-01  0.13049283260E+00  0.20309801904E-01 0.  0.
         14    1    1    2    0    0 -0.52286954764E-02 -0.60467017961E-02  0.21596434703E-01  0.23028413990E-01  0.00000000000E+00 0. -1.
     999901    1    3    3    0    0 -0.88921140362E-01 -0.49767079441E-01 -0.89688442630E-01  0.89040875341E+00  0.88000000000E+00 0. -1.
        -11    1    4    4    0    0  0.21373572830E-01  0.13405309384E-01  0.26351061290E-01  0.36485222861E-01  0.51100000000E-03 0.  1.
         11    1    4    4    0    0  0.72776263009E-01  0.42408471853E-01  0.41740946637E-01  0.94007609743E-01  0.51100000000E-03 0. -1.
</event>
<event>
 8    1  0.1076043E+005  0.1043930E+01  0.7957747E-01            NaN
         13   -1    0    0    0    0  0.00000000000E+00  0.00000000000E+00  0.74505805969E-08  0.10566000000E+00  0.10566000000E+00 0.  1.
     999900   -1    0    0    0    0 -0.00000000000E+00 -0.00000000000E+00 -0.74505805969E-08  0.93827000000E+00  0.93827000000E+00 0. -1.
     999902    2    1    2    0    0 -0.19225322044E-03  0.19945964676E-01 -0.65201296021E-02  0.10229445155E+01  0.10227292366E+01 0.  0.
     999903    2    3    3    0    0 -0.77391197922E-01 -0.95391643082E-01 -0.42131639562E-01  0.13135569749E+00  0.19755534029E-01 0.  0.
         14    1    1    2    0    0  0.19225322044E-03 -0.19945964676E-01  0.65201296021E-02  0.20985484464E-01  0.00000000000E+00 0.  1.
     999901    1    3    3    0    0  0.77198944701E-01  0.11533760776E+00  0.35611509960E-01  0.89158881805E+00  0.88000000000E+00 0. -1.
        -11    1    4    4    0    0 -0.59854506217E-01 -0.72135985376E-01 -0.23040178500E-01  0.96526023677E-01  0.51100000000E-03 0. -1.
         11    1    4    4    0    0 -0.17536691705E-01 -0.23255657706E-01 -0.19091461062E-01  0.34829673811E-01  0.51100000000E-03 0.  1.
</event>
<event>
 8    1  0.1076043E+005  0.1043930E+01  0.7957747E-01            NaN
         13   -1    0    0    0    0  0.00000000000E+00  0.00000000000E+00  0.74505805969E-08  0.10566000000E+00  0.10566000000E+00 0.  1.
     999900   -1    0    0    0    0 -0.00000000000E+00 -0.00000000000E+00 -0.74505805969E-08  0.93827000000E+00  0.93827000000E+00 0. -1.
     999902    2    1    2    0    0  0.19513954175E-01 -0.12797469168E-01  0.85256462163E-02  0.10190853574E+01  0.10187824642E+01 0.  0.
     999903    2    3    3    0    0  0.57396047239E-01  0.66898516692E-01  0.93784493027E-01  0.13057223191E+00  0.21996791550E-01 0.  0.
         14    1    1    2    0    0 -0.19513954175E-01  0.12797469168E-01 -0.85256462163E-02  0.24844642643E-01  0.00000000000E+00 0. -1.
     999901    1    3    3    0    0 -0.37882093064E-01 -0.79695985860E-01 -0.85258846811E-01  0.88851312545E+00  0.88000000000E+00 0. -1.
        -11    1    4    4    0    0  0.16800061860E-01  0.36278623462E-01  0.42449283431E-01  0.58314521207E-01  0.51100000000E-03 0.  1.
         11    1    4    4    0    0  0.40595985379E-01  0.30619893230E-01  0.51335209597E-01  0.72257710700E-01  0.51100000000E-03 0. -1.
</event>
<event>
 8    1  0.1076043E+005  0.1043930E+01  0.7957747E-01            NaN
         13   -1    0    0    0    0  0.00000000000E+00  0.00000000000E+00  0.74505805969E-08  0.10566000000E+00  0.10566000000E+00 0.  1.
     999900   -1    0    0    0    0 -0.00000000000E+00 -0.00000000000E+00 -0.74505805969E-08  0.93827000000E+00  0.93827000000E+00 0.  1.
     999902    2    1    2    0    0  0.20806867561E-01  0.91095755479E-02  0.59401448340E-02  0.10204524485E+01  0.10201823387E+01 0.  0.
     999903    2    3    3    0    0  0.29227163936E-01 -0.17210064967E-01 -0.12423158780E+00  0.13044778286E+00  0.20801999803E-01 0.  0.
         14    1    1    2    0    0 -0.20806867561E-01 -0.91095755479E-02 -0.59401448340E-02  0.23477551512E-01  0.00000000000E+00 0. -1.
     999901    1    3    3    0    0 -0.84202963752E-02  0.26319640515E-01  0.13017173264E+00  0.89000466563E+00  0.88000000000E+00 0. -1.
        -11    1    4    4    0    0  0.13207603187E-01  0.22536590756E-02 -0.59200203894E-01  0.60699629515E-01  0.51100000000E-03 0. -1.
         11    1    4    4    0    0  0.16019560749E-01 -0.19463724043E-01 -0.65031383910E-01  0.69748153341E-01  0.51100000000E-03 0.  1.
</event>
<event>
 8    1  0.1076043E+005  0.1043930E+01  0.7957747E-01            NaN
         13   -1    0    0    0    0  0.00000000000E+00  0.00000000000E+00  0.74505805969E-08  0.10566000000E+00  0.10566000000E+00 0.  1.
     999900   -1    0    0    0    0 -0.00000000000E+00 -0.00000000000E+00 -0.74505805969E-08  0.93827000000E+00  0.93827000000E+00 0. -1.
     999902    2    1    2    0    0 -0.21102732575E-01  0.64775946732E-02  0.84282634715E-02  0.10203012002E+01  0.10200275579E+01 0.  0.
     999903    2    3    3    0    0 -0.32813227757E-03 -0.12149267432E+00  0.42605227715E-01  0.13014613582E+00  0.19032436900E-01 0.  0.
         14    1    1    2    0    0  0.21102732575E-01 -0.64775946732E-02 -0.84282634715E-02  0.23628799801E-01  0.00000000000E+00 0. -1.
     999901    1    3    3    0    0 -0.20774600297E-01  0.12797026900E+00 -0.34176964243E-01  0.89015506438E+00  0.88000000000E+00 0. -1.
        -11    1    4    4    0    0 -0.75668866842E-02 -0.48437370847E-01  0.11167396501E-01  0.50283282851E-01  0.51100000000E-03 0.  1.
         11    1    4    4    0    0  0.72387544066E-02 -0.73055303475E-01  0.31437831214E-01  0.79862852965E-01  0.51100000000E-03 0. -1.
</event>
<event>
 8    1  0.1076043E+005  0.1043930E+01  0.7957747E-01            NaN
         13   -1    0    0    0    0  0.00000000000E+00  0.00000000000E+00  0.74505805969E-08  0.10566000000E+00  0.10566000000E+00 0.  1.
     999900   -1    0    0    0    0 -0.00000000000E+00 -0.00000000000E+00 -0.74505805969E-08  0.93827000000E+00  0.93827000000E+00 0.  1.
     999902    2    1    2    0    0  0.13559149700E-01 -0.21331357429E-01 -0.11376290983E-02  0.10186283884E+01  0.10183141078E+01 0.  0.
     999903    2    3    3    0    0  0.50649313464E-01 -0.68970046202E-01  0.97238842551E-01  0.13109075251E+00  0.20178519918E-01 0.  0.
         14    1    1    2    0    0 -0.13559149700E-01  0.21331357429E-01  0.11376290983E-02  0.25301611615E-01  0.00000000000E+00 0.  1.
     999901    1    3    3    0    0 -0.37090163764E-01  0.47638688773E-01 -0.98376471649E-01  0.88753763587E+00  0.88000000000E+00 0.  1.
        -11    1    4    4    0    0  0.49923017838E-01 -0.62064952733E-01  0.94544506005E-01  0.12362560740E+00  0.51100000000E-03 0. -1.
         11    1    4    4    0    0  0.72629562582E-03 -0.69050934695E-02  0.26943365463E-02  0.74651451147E-02  0.51100000000E-03 0.  1.
</event>
<event>
 8    1  0.1076043E+005  0.1043930E+01  0.7957747E-01            NaN
         13   -1    0    0    0    0  0.00000000000E+00  0.00000000000E+00  0.74505805969E-08  0.10566000000E+00  0.10566000000E+00 0.  1.
     999900   -1    0    0    0    0 -0.00000000000E+00 -0.00000000000E+00 -0.74505805969E-08  0.93827000000E+00  0.93827000000E+00 0.  1.
     999902    2    1    2    0    0  0.32058430998E-03 -0.18233075457E-01  0.10469279393E-01  0.10229025507E+01  0.10226864009E+01 0.  0.
     999903    2    3    3    0    0 -0.85159503020E-01  0.84514657811E-01  0.50961348850E-01  0.13188989659E+00  0.20075293413E-01 0.  0.
         14    1    1    2    0    0 -0.32058430998E-03  0.18233075457E-01 -0.10469279393E-01  0.21027449344E-01  0.00000000000E+00 0. -1.
     999901    1    3    3    0    0  0.85480087330E-01 -0.10274773327E+00 -0.40492069457E-01  0.89101265407E+00  0.88000000000E+00 0.  1.
        -11    1    4    4    0    0 -0.47720844135E-01  0.55415329396E-01  0.22195186288E-01  0.76426599508E-01  0.51100000000E-03 0. -1.
         11    1    4    4    0    0 -0.37438658885E-01  0.29099328415E-01  0.28766162562E-01  0.55463297079E-01  0.51100000000E-03 0.  1.
</event>
<event>
 8    1  0.1076043E+005  0.1043930E+01  0.7957747E-01            NaN
         13   -1    0    0    0    0  0.00000000000E+00  0.00000000000E+00  0.74505805969E-08  0.10566000000E+00  0.10566000000E+00 0. -1.
     999900   -1    0    0    0    0 -0.00000000000E+00 -0.00000000000E+00 -0.74505805969E-08  0.93827000000E+00  0.93827000000E+00 0. -1.
     999902    2    1    2    0    0  0.20549441599E-01  0.74576767812E-02  0.58837924587E-02  0.10212911947E+01  0.10210402484E+01 0.  0.
     999903    2    3    3    0    0  0.59156233369E-01 -0.44231402250E-01  0.10868491691E+00  0.13296112288E+00  0.20257644056E-01 0.  0.
         14    1    1    2    0    0 -0.20549441599E-01 -0.74576767812E-02 -0.58837924587E-02  0.22638805328E-01  0.00000000000E+00 0. -1.
     999901    1    3    3    0    0 -0.38606791770E-01  0.51689079031E-01 -0.10280112445E+00  0.88833007179E+00  0.88000000000E+00 0. -1.
        -11    1    4    4    0    0  0.11403702112E-01 -0.30716986889E-02  0.29248008255E-01  0.31546582423E-01  0.51100000000E-03 0.  1.
         11    1    4    4    0    0  0.47752531257E-01 -0.41159703561E-01  0.79436908654E-01  0.10141454046E+00  0.51100000000E-03 0. -1.
</event>
<event>
 8    1  0.1076043E+005  0.1043930E+01  0.7957747E-01            NaN
         13   -1    0    0    0    0  0.00000000000E+00  0.00000000000E+00  0.74505805969E-08  0.10566000000E+00  0.10566000000E+00 0. -1.
     999900   -1    0    0    0    0 -0.00000000000E+00 -0.00000000000E+00 -0.74505805969E-08  0.93827000000E+00  0.93827000000E+00 0.  1.
     999902    2    1    2    0    0  0.22148218056E-01 -0.88948486974E-02 -0.42627733572E-02  0.10196847297E+01  0.10193964463E+01 0.  0.
     999903    2    3    3    0    0 -0.69696631292E-01  0.24215634948E-01  0.10231855194E+00  0.12789363341E+00  0.21063665555E-01 0.  0.
         14    1    1    2    0    0 -0.22148218056E-01  0.88948486974E-02  0.42627733572E-02  0.24245270324E-01  0.00000000000E+00 0. -1.
     999901    1    3    3    0    0  0.91844849349E-01 -0.33110483646E-01 -0.10658132529E+00  0.89179109627E+00  0.88000000000E+00 0.  1.
        -11    1    4    4    0    0  0.84735248749E-03  0.12240113893E-02  0.89970954329E-04  0.15765233560E-02  0.51100000000E-03 0. -1.
         11    1    4    4    0    0 -0.70543983780E-01  0.22991623559E-01  0.10222858098E+00  0.12631711005E+00  0.51100000000E-03 0.  1.
</event>
<event>
 8    1  0.1076043E+005  0.1043930E+01  0.7957747E-01            NaN
         13   -1    0    0    0    0  0.00000000000E+00  0.00000000000E+00  0.74505805969E-08  0.10566000000E+00  0.10566000000E+00 0. -1.
     999900   -1    0    0    0    0 -0.00000000000E+00 -0.00000000000E+00 -0.74505805969E-08  0.93827000000E+00  0.93827000000E+00 0.  1.
     999902    2    1    2    0    0 -0.22722098390E-02 -0.22323064842E-01  0.55947228074E-02  0.10208046225E+01  0.10205426469E+01 0.  0.
     999903    2    3    3    0    0 -0.10553544576E+00 -0.68031813790E-01 -0.37361268196E-01  0.13254913966E+00  0.20182964691E-01 0.  0.
         14    1    1    2    0    0  0.22722098390E-02  0.22323064842E-01 -0.55947228074E-02  0.23125377506E-01  0.00000000000E+00 0.  1.
     999901    1    3    3    0    0  0.10326323592E+00  0.45708748947E-01  0.42955991004E-01  0.88825548283E+00  0.88000000000E+00 0. -1.
        -11    1    4    4    0    0 -0.36073215934E-01 -0.13924296660E-01 -0.62997301304E-02  0.39180488333E-01  0.51100000000E-03 0. -1.
         11    1    4    4    0    0 -0.69462229826E-01 -0.54107517130E-01 -0.31061538066E-01  0.93368651326E-01  0.51100000000E-03 0.  1.
</event>
<event>
 8    1  0.1076043E+005  0.1043930E+01  0.7957747E-01            NaN
         13   -1    0    0    0    0  0.00000000000E+00  0.00000000000E+00  0.74505805969E-08  0.10566000000E+00  0.10566000000E+00 0.  1.
     999900   -1    0    0    0    0 -0.00000000000E+00 -0.00000000000E+00 -0.74505805969E-08  0.93827000000E+00  0.93827000000E+00 0. -1.
     999902    2    1    2    0    0  0.84382294941E-03  0.16327749620E-01  0.17273514042E-01  0.10201459353E+01  0.10198686423E+01 0.  0.
     999903    2    3    3    0    0 -0.82022242367E-01  0.47281106173E-01  0.90769253100E-01  0.13266268550E+00  0.19929364589E-01 0.  0.
         14    1    1    2    0    0 -0.84382294941E-03 -0.16327749620E-01 -0.17273514042E-01  0.23784064670E-01  0.00000000000E+00 0. -1.
     999901    1    3    3    0    0  0.82866065317E-01 -0.30953356552E-01 -0.73495739058E-01  0.88748324983E+00  0.88000000000E+00 0. -1.
        -11    1    4    4    0    0 -0.54911003915E-01  0.20567873456E-01  0.53037212969E-01  0.79066192839E-01  0.51100000000E-03 0. -1.
         11    1    4    4    0    0 -0.27111238452E-01  0.26713232716E-01  0.37732040131E-01  0.53596492665E-01  0.51100000000E-03 0.  1.
</event>
<event>
 8    1  0.1076043E+005  0.1043930E+01  0.7957747E-01            NaN
         13   -1    0    0    0    0  0.00000000000E+00  0.00000000000E+00  0.74505805969E-08  0.10566000000E+00  0.10566000000E+00 0.  1.
     999900   -1    0    0    0    0 -0.00000000000E+00 -0.00000000000E+00 -0.74505805969E-08  0.93827000000E+00  0.93827000000E+00 0. -1.
     999902    2    1    2    0    0  0.17879987146E-01 -0.16239243862E-01  0.80964140952E-02  0.10184553282E+01  0.10181366788E+01 0.  0.
     999903    2    3    3    0    0 -0.22795918941E-03 -0.74652559150E-01  0.10573298767E+00  0.13094594030E+00  0.19857443132E-01 0.  0.
         14    1    1    2    0    0 -0.17879987146E-01  0.16239243862E-01 -0.80964140952E-02  0.25474671789E-01  0.00000000000E+00 0. -1.
     999901    1    3    3    0    0  0.18107946335E-01  0.58413315288E-01 -0.97636573574E-01  0.88750938791E+00  0.88000000000E+00 0. -1.
        -11    1    4    4    0    0  0.31767307966E-02 -0.56115796152E-01  0.91246989238E-01  0.10716971756E+00  0.51100000000E-03 0. -1.
         11    1    4    4    0    0 -0.34046899860E-02 -0.18536762998E-01  0.14485998431E-01  0.23776222742E-01  0.51100000000E-03 0.  1.
</event>
<event>
 8    1  0.1076043E+005  0.1043930E+01  0.7957747E-01            NaN
         13   -1    0    0    0    0  0.00000000000E+00  0.00000000000E+00  0.74505805969E-08  0.10566000000E+00  0.10566000000E+00 0.  1.
     999900   -1    0    0    0    0 -0.00000000000E+00 -0.00000000000E+00 -0.74505805969E-08  0.93827000000E+00  0.93827000000E+00 0. -1.
     999902    2    1    2    0    0  0.37568487946E-02  0.10488900893E-01 -0.20170124139E-01  0.10208873252E+01  0.10206272414E+01 0.  0.
     999903    2    3    3    0    0 -0.11125582203E+00  0.51908979130E-01  0.39299609320E-01  0.13044912602E+00  0.20002878236E-01 0.  0.
         14    1    1    2    0    0 -0.37568487946E-02 -0.10488900893E-01  0.20170124139E-01  0.23042674814E-01  0.00000000000E+00 0.  1.
     999901    1    3    3    0    0  0.11501267082E+00 -0.41420078237E-01 -0.59469733459E-01  0.89043819916E+00  0.88000000000E+00 0. -1.
        -11    1    4    4    0    0 -0.23062930033E-01  0.15463878561E-01  0.15162785726E-02  0.27813494990E-01  0.51100000000E-03 0.  1.
         11    1    4    4    0    0 -0.88192891996E-01  0.36445100569E-01  0.37783330747E-01  0.10263563103E+00  0.51100000000E-03 0. -1.
</event>
<event>
 8    1  0.1076043E+005  0.1043930E+01  0.7957747E-01            NaN
         13   -1    0    0    0    0  0.00000000000E+00  0.00000000000E+00  0.74505805969E-08  0.10566000000E+00  0.10566000000E+00 0. -1.
     999900   -1    0    0    0    0 -0.00000000000E+00 -0.00000000000E+00 -0.74505805969E-08  0.93827000000E+00  0.93827000000E+00 0.  1.
     999902    2    1    2    0    0  0.11680209481E-01 -0.27420260525E-02  0.20856202345E-01  0.10198690944E+01  0.10195852307E+01 0.  0.
     999903    2    3    3    0    0  0.12442101229E+00 -0.33842640919E-01  0.20893623475E-01  0.13213166802E+00  0.19907826283E-01 0.  0.
         14    1    1    2    0    0 -0.11680209481E-01  0.27420260525E-02 -0.20856202345E-01  0.24060905566E-01  0.00000000000E+00 0.  1.
     999901    1    3    3    0    0 -0.11274080281E+00  0.31100614866E-01 -0.37421129290E-04  0.88773742642E+00  0.88000000000E+00 0.  1.
        -11    1    4    4    0    0  0.87461153300E-01 -0.28564331772E-01  0.22636858003E-01  0.94752640319E-01  0.51100000000E-03 0.  1.
         11    1    4    4    0    0  0.36959858989E-01 -0.52783091465E-02 -0.17432345281E-02  0.37379027697E-01  0.51100000000E-03 0. -1.
</event>
<event>
 8    1  0.1076043E+005  0.1043930E+01  0.7957747E-01            NaN
         13   -1    0    0    0    0  0.00000000000E+00  0.00000000000E+00  0.74505805969E-08  0.10566000000E+00  0.10566000000E+00 0.  1.
     999900   -1    0    0    0    0 -0.00000000000E+00 -0.00000000000E+00 -0.74505805969E-08  0.93827000000E+00  0.93827000000E+00 0. -1.
     999902    2    1    2    0    0  0.10221592404E-01 -0.22817203956E-02 -0.22285952808E-01  0.10193058068E+01  0.10190083301E+01 0.  0.
     999903    2    3    3    0    0  0.99106920825E-01  0.52604859372E-01  0.60189164854E-01  0.12929722071E+00  0.22485166931E-01 0.  0.
         14    1    1    2    0    0 -0.10221592404E-01  0.22817203956E-02  0.22285952808E-01  0.24624193221E-01  0.00000000000E+00 0.  1.
     999901    1    3    3    0    0 -0.88885328422E-01 -0.54886579768E-01 -0.82475117662E-01  0.89000858607E+00  0.88000000000E+00 0. -1.
        -11    1    4    4    0    0  0.59098446191E-01  0.33329450448E-01  0.23876907533E-01  0.71929454632E-01  0.51100000000E-03 0. -1.
         11    1    4    4    0    0  0.40008474634E-01  0.19275408924E-01  0.36312257321E-01  0.57367766075E-01  0.51100000000E-03 0.  1.
</event>
<event>
 8    1  0.1076043E+005  0.1043930E+01  0.7957747E-01            NaN
         13   -1    0    0    0    0  0.00000000000E+00  0.00000000000E+00  0.74505805969E-08  0.10566000000E+00  0.10566000000E+00 0. -1.
     999900   -1    0    0    0    0 -0.00000000000E+00 -0.00000000000E+00 -0.74505805969E-08  0.93827000000E+00  0.93827000000E+00 0.  1.
     999902    2    1    2    0    0  0.39213892606E-02 -0.17772743832E-01  0.12125649099E-01  0.10220604073E+01  0.10218264027E+01 0.  0.
     999903    2    3    3    0    0 -0.61945290349E-01 -0.53987239774E-01 -0.10008384264E+00  0.13175659446E+00  0.24314266800E-01 0.  0.
         14    1    1    2    0    0 -0.39213892606E-02  0.17772743832E-01 -0.12125649099E-01  0.21869592660E-01  0.00000000000E+00 0. -1.
     999901    1    3    3    0    0  0.65866679610E-01  0.36214495942E-01  0.11220949174E+00  0.89030381288E+00  0.88000000000E+00 0. -1.
        -11    1    4    4    0    0 -0.58527224050E-01 -0.53704378830E-01 -0.85247289292E-01  0.11652020303E+00  0.51100000000E-03 0.  1.
         11    1    4    4    0    0 -0.34180662987E-02 -0.28286094397E-03 -0.14836553349E-01  0.15236391430E-01  0.51100000000E-03 0. -1.
</event>
<event>
 8    1  0.1076043E+005  0.1043930E+01  0.7957747E-01            NaN
         13   -1    0    0    0    0  0.00000000000E+00  0.00000000000E+00  0.74505805969E-08  0.10566000000E+00  0.10566000000E+00 0.  1.
     999900   -1    0    0    0    0 -0.00000000000E+00 -0.00000000000E+00 -0.74505805969E-08  0.93827000000E+00  0.93827000000E+00 0.  1.
     999902    2    1    2    0    0  0.15668326063E-01 -0.15503531105E-01  0.98383027996E-02  0.10197918948E+01  0.10195061847E+01 0.  0.
     999903    2    3    3    0    0 -0.47631947069E-01  0.10781548239E+00 -0.43613020384E-01  0.12733934842E+00  0.20499597222E-01 0.  0.
         14    1    1    2    0    0 -0.15668326063E-01  0.15503531105E-01 -0.98383027996E-02  0.24138105152E-01  0.00000000000E+00 0. -1.
     999901    1    3    3    0    0  0.63300273132E-01 -0.12331901349E+00  0.53451323184E-01  0.89245254642E+00  0.88000000000E+00 0.  1.
        -11    1    4    4    0    0 -0.17435558549E-01  0.62427838909E-01 -0.28181860669E-01  0.70680352040E-01  0.51100000000E-03 0. -1.
         11    1    4    4    0    0 -0.30196388520E-01  0.45387643478E-01 -0.15431159716E-01  0.56658996385E-01  0.51100000000E-03 0.  1.
</event>
<event>
 8    1  0.1076043E+005  0.1043930E+01  0.7957747E-01            NaN
         13   -1    0    0    0    0  0.00000000000E+00  0.00000000000E+00  0.74505805969E-08  0.10566000000E+00  0.10566000000E+00 0.  1.
     999900   -1    0    0    0    0 -0.00000000000E+00 -0.00000000000E+00 -0.74505805969E-08  0.93827000000E+00  0.93827000000E+00 0. -1.
     999902    2    1    2    0    0 -0.29306117487E-02  0.27665666253E-02 -0.23052260690E-01  0.10205280963E+01  0.10202597444E+01 0.  0.
     999903    2    3    3    0    0  0.19798337030E-01 -0.12276403466E+00 -0.37137652168E-01  0.13121772567E+00  0.19388242988E-01 0.  0.
         14    1    1    2    0    0  0.29306117487E-02 -0.27665666253E-02  0.23052260690E-01  0.23401903748E-01  0.00000000000E+00 0.  1.
     999901    1    3    3    0    0 -0.22728948779E-01  0.12553060129E+00  0.14085391478E-01  0.88931037058E+00  0.88000000000E+00 0.  1.
        -11    1    4    4    0    0  0.17657602127E-02 -0.54812422250E-01 -0.23177334379E-01  0.59539646387E-01  0.51100000000E-03 0.  1.
         11    1    4    4    0    0  0.18032576817E-01 -0.67951612410E-01 -0.13960317789E-01  0.71678079282E-01  0.51100000000E-03 0. -1.
</event>
<event>
 8    1  0.1076043E+005  0.1043930E+01  0.7957747E-01            NaN
         13   -1    0    0    0    0  0.00000000000E+00  0.00000000000E+00  0.74505805969E-08  0.10566000000E+00  0.10566000000E+00 0. -1.
     999900   -1    0    0    0    0 -0.00000000000E+00 -0.00000000000E+00 -0.74505805969E-08  0.93827000000E+00  0.93827000000E+00 0.  1.
     999902    2    1    2    0    0 -0.23109760575E-01 -0.43231060285E-02 -0.31382941277E-02  0.10202108270E+01  0.10199350628E+01 0.  0.
     999903    2    3    3    0    0  0.77189804690E-01 -0.94255126887E-01 -0.41209915939E-01  0.12914561074E+00  0.11748902507E-01 0.  0.
         14    1    1    2    0    0  0.23109760575E-01  0.43231060285E-02  0.31382941277E-02  0.23719173038E-01  0.00000000000E+00 0.  1.
     999901    1    3    3    0    0 -0.10029956526E+00  0.89932020858E-01  0.38071621812E-01  0.89106521622E+00  0.88000000000E+00 0. -1.
        -11    1    4    4    0    0  0.49299688559E-01 -0.52580036358E-01 -0.20983589889E-01  0.75071244036E-01  0.51100000000E-03 0. -1.
         11    1    4    4    0    0  0.27890116130E-01 -0.41675090529E-01 -0.20226326050E-01  0.54074366707E-01  0.51100000000E-03 0.  1.
</event>
<event>
 8    1  0.1076043E+005  0.1043930E+01  0.7957747E-01            NaN
         13   -1    0    0    0    0  0.00000000000E+00  0.00000000000E+00  0.74505805969E-08  0.10566000000E+00  0.10566000000E+00 0. -1.
     999900   -1    0    0    0    0 -0.00000000000E+00 -0.00000000000E+00 -0.74505805969E-08  0.93827000000E+00  0.93827000000E+00 0.  1.
     999902    2    1    2    0    0  0.18949757309E-01  0.13292960432E-01  0.48720497767E-02  0.10202755508E+01  0.10200013071E+01 0.  0.
     999903    2    3    3    0    0 -0.17902548150E-01  0.12870360878E+00 -0.82163707793E-02  0.13187867048E+00  0.20960792815E-01 0.  0.
         14    1    1    2    0    0 -0.18949757309E-01 -0.13292960432E-01 -0.48720497767E-02  0.23654449225E-01  0.00000000000E+00 0.  1.
     999901    1    3    3    0    0  0.36852305459E-01 -0.11541064835E+00  0.13088420556E-01  0.88839688030E+00  0.88000000000E+00 0. -1.
        -11    1    4    4    0    0 -0.42764446415E-02  0.17439319901E-01  0.58753199706E-02  0.18899692144E-01  0.51100000000E-03 0.  1.
         11    1    4    4    0    0 -0.13626103509E-01  0.11126428888E+00 -0.14091690750E-01  0.11297897833E+00  0.51100000000E-03 0. -1.
</event>
<event>
 8    1  0.1076043E+005  0.1043930E+01  0.7957747E-01            NaN
         13   -1    0    0    0    0  0.00000000000E+00  0.00000000000E+00  0.74505805969E-08  0.10566000000E+00  0.10566000000E+00 0. -1.
     999900   -1    0    0    0    0 -0.00000000000E+00 -0.00000000000E+00 -0.74505805969E-08  0.93827000000E+00  0.93827000000E+00 0.  1.
     999902    2    1    2    0    0 -0.23089685103E-01  0.30798174181E-02  0.25633641678E-02  0.10204952039E+01  0.10202260884E+01 0.  0.
     999903    2    3    3    0    0 -0.13090086868E+00  0.14890481370E-01 -0.10640227875E-01  0.13373871085E+00  0.20397658557E-01 0.  0.
         14    1    1    2    0    0  0.23089685103E-01 -0.30798174181E-02 -0.25633641678E-02  0.23434796123E-01  0.00000000000E+00 0. -1.
     999901    1    3    3    0    0  0.10781118357E+00 -0.11810663952E-01  0.13203592043E-01  0.88675649303E+00  0.88000000000E+00 0.  1.
        -11    1    4    4    0    0 -0.10095464064E+00  0.16786480236E-01 -0.14922414126E-01  0.10342419905E+00  0.51100000000E-03 0. -1.
         11    1    4    4    0    0 -0.29946228036E-01 -0.18959988664E-02  0.42821862511E-02  0.30314511795E-01  0.51100000000E-03 0.  1.
</event>
<event>
 8    1  0.1076043E+005  0.1043930E+01  0.7957747E-01            NaN
         13   -1    0    0    0    0  0.00000000000E+00  0.00000000000E+00  0.74505805969E-08  0.10566000000E+00  0.10566000000E+00 0.  1.
     999900   -1    0    0    0    0 -0.00000000000E+00 -0.00000000000E+00 -0.74505805969E-08  0.93827000000E+00  0.93827000000E+00 0. -1.
     999902    2    1    2    0    0  0.56285172546E-03  0.13785191414E-01  0.22762029264E-01  0.10173131204E+01  0.10169648601E+01 0.  0.
     999903    2    3    3    0    0 -0.10279231521E+00 -0.26415447017E-01  0.70907155909E-01  0.12904720576E+00  0.19008436190E-01 0.  0.
         14    1    1    2    0    0 -0.56285172546E-03 -0.13785191414E-01 -0.22762029264E-01  0.26616879618E-01  0.00000000000E+00 0. -1.
     999901    1    3    3    0    0  0.10335516694E+00  0.40200638431E-01 -0.48145126645E-01  0.88826591462E+00  0.88000000000E+00 0.  1.
        -11    1    4    4    0    0 -0.68242902076E-01 -0.15179602934E-01  0.35894362676E-01  0.78588678714E-01  0.51100000000E-03 0. -1.
         11    1    4    4    0    0 -0.34549413138E-01 -0.11235844083E-01  0.35012793233E-01  0.50458527044E-01  0.51100000000E-03 0.  1.
</event>
<event>
 8    1  0.1076043E+005  0.1043930E+01  0.7957747E-01            NaN
         13   -1    0    0    0    0  0.00000000000E+00  0.00000000000E+00  0.74505805969E-08  0.10566000000E+00  0.10566000000E+00 0.  1.
     999900   -1    0    0    0    0 -0.00000000000E+00 -0.00000000000E+00 -0.74505805969E-08  0.93827000000E+00  0.93827000000E+00 0. -1.
     999902    2    1    2    0    0 -0.19106366719E-01  0.11884420372E-01  0.70960361085E-02  0.10203366445E+01  0.10200638321E+01 0.  0.
     999903    2    3    3    0    0 -0.69235042221E-01  0.65209669980E-01 -0.89432361693E-01  0.13203815976E+00  0.19751865345E-01 0.  0.
         14    1    1    2    0    0  0.19106366719E-01 -0.11884420372E-01 -0.70960361085E-02  0.23593355532E-01  0.00000000000E+00 0. -1.
     999901    1    3    3    0    0  0.50128675502E-01 -0.53325249608E-01  0.96528397801E-01  0.88829848471E+00  0.88000000000E+00 0.  1.
        -11    1    4    4    0    0 -0.50572718058E-01  0.36184051383E-01 -0.63421494516E-01  0.88822477301E-01  0.51100000000E-03 0.  1.
         11    1    4    4    0    0 -0.18662324163E-01  0.29025618596E-01 -0.26010867177E-01  0.43215682459E-01  0.51100000000E-03 0. -1.
</event>
<event>
 8    1  0.1076043E+005  0.1043930E+01  0.7957747E-01            NaN
         13   -1    0    0    0    0  0.00000000000E+00  0.00000000000E+00  0.74505805969E-08  0.10566000000E+00  0.10566000000E+00 0.  1.
     999900   -1    0    0    0    0 -0.00000000000E+00 -0.00000000000E+00 -0.74505805969E-08  0.93827000000E+00  0.93827000000E+00 0. -1.
     999902    2    1    2    0    0  0.60224320371E-02 -0.20180724467E-02 -0.25580777417E-01  0.10175724873E+01  0.10172310693E+01 0.  0.
     999903    2    3    3    0    0  0.52179717922E-01  0.37495572780E-01  0.10618823416E+00  0.12568970595E+00  0.19832301121E-01 0.  0.
         14    1    1    2    0    0 -0.60224320371E-02  0.20180724467E-02  0.25580777417E-01  0.26357512730E-01  0.00000000000E+00 0.  1.
     999901    1    3    3    0    0 -0.46157285884E-01 -0.39513645226E-01 -0.13176901158E+00  0.89188278132E+00  0.88000000000E+00 0. -1.
        -11    1    4    4    0    0  0.46690954869E-01  0.23679839860E-01  0.81552651138E-01  0.96911692334E-01  0.51100000000E-03 0. -1.
         11    1    4    4    0    0  0.54887630528E-02  0.13815732920E-01  0.24635583023E-01  0.28778013619E-01  0.51100000000E-03 0.  1.
</event>
<event>
 8    1  0.1076043E+005  0.1043930E+01  0.7957747E-01            NaN
         13   -1    0    0    0    0  0.00000000000E+00  0.00000000000E+00  0.74505805969E-08  0.10566000000E+00  0.10566000000E+00 0. -1.
     999900   -1    0    0    0    0 -0.00000000000E+00 -0.00000000000E+00 -0.74505805969E-08  0.93827000000E+00  0.93827000000E+00 0.  1.
     999902    2    1    2    0    0  0.15934135952E-01  0.54690206603E-02 -0.16692836624E-01  0.10202138100E+01  0.10199381159E+01 0.  0.
     999903    2    3    3    0    0 -0.82843730092E-02  0.57702968212E-01 -0.11711376441E+00  0.13263323097E+00  0.21855817730E-01 0.  0.
         14    1    1    2    0    0 -0.15934135952E-01 -0.54690206603E-02  0.16692836624E-01  0.23716190041E-01  0.00000000000E+00 0. -1.
     999901    1    3    3    0    0  0.24218508961E-01 -0.52233947552E-01  0.10042092778E+00  0.88758057898E+00  0.88000000000E+00 0. -1.
        -11    1    4    4    0    0  0.39212966649E-02  0.31681677174E-01 -0.46631567977E-01  0.56514329944E-01  0.51100000000E-03 0.  1.
         11    1    4    4    0    0 -0.12205669674E-01  0.26021291038E-01 -0.70482196430E-01  0.76118901030E-01  0.51100000000E-03 0. -1.
</event>
<event>
 8    1  0.1076043E+005  0.1043930E+01  0.7957747E-01            NaN
         13   -1    0    0    0    0  0.00000000000E+00  0.00000000000E+00  0.74505805969E-08  0.10566000000E+00  0.10566000000E+00 0.  1.
     999900   -1    0    0    0    0 -0.00000000000E+00 -0.00000000000E+00 -0.74505805969E-08  0.93827000000E+00  0.93827000000E+00 0. -1.
     999902    2    1    2    0    0  0.12036855202E-01  0.67311958854E-02 -0.19006293096E-01  0.10204473669E+01  0.10201771388E+01 0.  0.
     999903    2    3    3    0    0 -0.56768897398E-01 -0.26388171183E-01 -0.11443832422E+00  0.13200018407E+00  0.20220664066E-01 0.  0.
         14    1    1    2    0    0 -0.12036855202E-01 -0.67311958854E-02  0.19006293096E-01  0.23482633124E-01  0.00000000000E+00 0.  1.
     999901    1    3    3    0    0  0.68805752600E-01  0.33119367068E-01  0.95432031122E-01  0.88844718280E+00  0.88000000000E+00 0.  1.
        -11    1    4    4    0    0 -0.99151079079E-02 -0.12855766323E-01 -0.20495426962E-01  0.26151553299E-01  0.51100000000E-03 0. -1.
         11    1    4    4    0    0 -0.46853789490E-01 -0.13532404860E-01 -0.93942897256E-01  0.10584863077E+00  0.51100000000E-03 0.  1.
</event>
<event>
 8    1  0.1076043E+005  0.1043930E+01  0.7957747E-01            NaN
         13   -1    0    0    0    0  0.00000000000E+00  0.00000000000E+00  0.74505805969E-08  0.10566000000E+00  0.10566000000E+00 0. -1.
     999900   -1    0    0    0    0 -0.00000000000E+00 -0.00000000000E+00 -0.74505805969E-08  0.93827000000E+00  0.93827000000E+00 0.  1.
     999902    2    1    2    0    0 -0.21235919164E-01  0.10648518297E-01  0.47845700927E-02  0.10196968138E+01  0.10194088212E+01 0.  0.
     999903    2    3    3    0    0 -0.10285303916E+00 -0.48164216633E-01  0.64333194033E-01  0.13196581245E+00  0.19433897483E-01 0.  0.
         14    1    1    2    0    0  0.21235919164E-01 -0.10648518297E-01 -0.47845700927E-02  0.24233186246E-01  0.00000000000E+00 0.  1.
     999901    1    3    3    0    0  0.81617120001E-01  0.58812734931E-01 -0.59548623940E-01  0.88773100131E+00  0.88000000000E+00 0.  1.
        -11    1    4    4    0    0 -0.29287690883E-01 -0.96922379410E-02  0.26750820972E-01  0.40835962793E-01  0.51100000000E-03 0. -1.
         11    1    4    4    0    0 -0.73565348282E-01 -0.38471978692E-01  0.37582373061E-01  0.91129849655E-01  0.51100000000E-03 0.  1.
</event>
<event>
 8    1  0.1076043E+005  0.1043930E+01  0.7957747E-01            NaN
         13   -1    0    0    0    0  0.00000000000E+00  0.00000000000E+00  0.74505805969E-08  0.10566000000E+00  0.10566000000E+00 0. -1.
     999900   -1    0    0    0    0 -0.00000000000E+00 -0.00000000000E+00 -0.74505805969E-08  0.93827000000E+00  0.93827000000E+00 0. -1.
     999902    2    1    2    0    0 -0.57356301617E-02 -0.13898810567E-01 -0.20532617537E-01  0.10184807805E+01  0.10181627756E+01 0.  0.
     999903    2    3    3    0    0  0.33728848938E-01  0.81219470204E-01  0.87662836367E-01  0.12589398437E+00  0.20743308047E-01 0.  0.
         14    1    1    2    0    0  0.57356301617E-02  0.13898810567E-01  0.20532617537E-01  0.25449219466E-01  0.00000000000E+00 0. -1.
     999901    1    3    3    0    0 -0.39464479100E-01 -0.95118280771E-01 -0.10819545390E+00  0.89258679617E+00  0.88000000000E+00 0. -1.
        -11    1    4    4    0    0  0.24812584412E-01  0.60108790230E-01  0.76478057028E-01  0.10038867135E+00  0.51100000000E-03 0.  1.
         11    1    4    4    0    0  0.89162645262E-02  0.21110679974E-01  0.11184779339E-01  0.25505313014E-01  0.51100000000E-03 0. -1.
</event>
<event>
 8    1  0.1076043E+005  0.1043930E+01  0.7957747E-01            NaN
         13   -1    0    0    0    0  0.00000000000E+00  0.00000000000E+00  0.74505805969E-08  0.10566000000E+00  0.10566000000E+00 0. -1.
     999900   -1    0    0    0    0 -0.00000000000E+00 -0.00000000000E+00 -0.74505805969E-08  0.93827000000E+00  0.93827000000E+00 0.  1.
     999902    2    1    2    0    0  0.21368025861E-01  0.93062765764E-02 -0.18109591458E-02  0.10205531121E+01  0.10202853404E+01 0.  0.
     999903    2    3    3    0    0  0.11681494088E-01 -0.12056997805E+00 -0.42562571439E-01  0.13003508070E+00  0.20590600147E-01 0.  0.
         14    1    1    2    0    0 -0.21368025861E-01 -0.93062765764E-02  0.18109591458E-02  0.23376887859E-01  0.00000000000E+00 0. -1.
     999901    1    3    3    0    0  0.96865317734E-02  0.12987625463E+00  0.40751612293E-01  0.89051803144E+00  0.88000000000E+00 0. -1.
        -11    1    4    4    0    0 -0.39906444779E-03 -0.48595737676E-01 -0.78956330828E-02  0.49237253330E-01  0.51100000000E-03 0.  1.
         11    1    4    4    0    0  0.12080558536E-01 -0.71974240375E-01 -0.34666938356E-01  0.80797827372E-01  0.51100000000E-03 0. -1.
</event>
<event>
 8    1  0.1076043E+005  0.1043930E+01  0.7957747E-01            NaN
         13   -1    0    0    0    0  0.00000000000E+00  0.00000000000E+00  0.74505805969E-08  0.10566000000E+00  0.10566000000E+00 0. -1.
     999900   -1    0    0    0    0 -0.00000000000E+00 -0.00000000000E+00 -0.74505805969E-08  0.93827000000E+00  0.93827000000E+00 0.  1.
     999902    2    1    2    0    0  0.22555496955E-01  0.48461277498E-02 -0.62170663962E-02  0.10200367518E+01  0.10197568767E+01 0.  0.
     999903    2    3    3    0    0  0.39116846433E-01 -0.84232681307E-01  0.88695303612E-01  0.13030776465E+00  0.22090368260E-01 0.  0.
         14    1    1    2    0    0 -0.22555496955E-01 -0.48461277498E-02  0.62170663962E-02  0.23893248244E-01  0.00000000000E+00 0. -1.
     999901    1    3    3    0    0 -0.16561349478E-01  0.89078809057E-01 -0.94912370008E-01  0.88972898711E+00  0.88000000000E+00 0.  1.
        -11    1    4    4    0    0  0.67793680200E-02 -0.18935361466E-01  0.81893383633E-02  0.21721743218E-01  0.51100000000E-03 0.  1.
         11    1    4    4    0    0  0.32337478413E-01 -0.65297319841E-01  0.80505965248E-01  0.10858602143E+00  0.51100000000E-03 0. -1.
</event>
<event>
 8    1  0.1076043E+005  0.1043930E+01  0.7957747E-01            NaN
         13   -1    0    0    0    0  0.00000000000E+00  0.00000000000E+00  0.74505805969E-08  0.10566000000E+00  0.10566000000E+00 0.  1.
     999900   -1    0    0    0    0 -0.00000000000E+00 -0.00000000000E+00 -0.74505805969E-08  0.93827000000E+00  0.93827000000E+00 0. -1.
     999902    2    1    2    0    0  0.11007252616E-01  0.87344598841E-02  0.20461437462E-01  0.10191082188E+01  0.10188058896E+01 0.  0.
     999903    2    3    3    0    0 -0.36348602016E-01  0.10781183554E+00  0.62028541476E-01  0.13130940854E+00  0.21213393475E-01 0.  0.
         14    1    1    2    0    0 -0.11007252616E-01 -0.87344598841E-02 -0.20461437462E-01  0.24821781214E-01  0.00000000000E+00 0. -1.
     999901    1    3    3    0    0  0.47355854632E-01 -0.99077375657E-01 -0.41567104014E-01  0.88779881024E+00  0.88000000000E+00 0. -1.
        -11    1    4    4    0    0 -0.27638141616E-01  0.67913488056E-01  0.49945413838E-01  0.88718172977E-01  0.51100000000E-03 0. -1.
         11    1    4    4    0    0 -0.87104603999E-02  0.39898347485E-01  0.12083127637E-01  0.42591235564E-01  0.51100000000E-03 0.  1.
</event>
<event>
 8    1  0.1076043E+005  0.1043930E+01  0.7957747E-01            NaN
         13   -1    0    0    0    0  0.00000000000E+00  0.00000000000E+00  0.74505805969E-08  0.10566000000E+00  0.10566000000E+00 0.  1.
     999900   -1    0    0    0    0 -0.00000000000E+00 -0.00000000000E+00 -0.74505805969E-08  0.93827000000E+00  0.93827000000E+00 0. -1.
     999902    2    1    2    0    0  0.84066356646E-02  0.15855708571E-01  0.15473513404E-01  0.10202339110E+01  0.10199586896E+01 0.  0.
     999903    2    3    3    0    0 -0.80139475907E-01 -0.50822386621E-01 -0.83028264472E-01  0.12782762319E+00  0.20998999234E-01 0.  0.
         14    1    1    2    0    0 -0.84066356646E-02 -0.15855708571E-01 -0.15473513404E-01  0.23696089014E-01  0.00000000000E+00 0. -1.
     999901    1    3    3    0    0  0.88546111571E-01  0.66678095192E-01  0.98501777875E-01  0.89240628780E+00  0.88000000000E+00 0.  1.
        -11    1    4    4    0    0 -0.38392806759E-01 -0.33458197381E-01 -0.34591101868E-01  0.61565120257E-01  0.51100000000E-03 0.  1.
         11    1    4    4    0    0 -0.41746669148E-01 -0.17364189240E-01 -0.48437162603E-01  0.66262502933E-01  0.51100000000E-03 0. -1.
</event>
<event>
 8    1  0.1076043E+005  0.1043930E+01  0.7957747E-01            NaN
         13   -1    0    0    0    0  0.00000000000E+00  0.00000000000E+00  0.74505805969E-08  0.10566000000E+00  0.10566000000E+00 0.  1.
     999900   -1    0    0    0    0 -0.00000000000E+00 -0.00000000000E+00 -0.74505805969E-08  0.93827000000E+00  0.93827000000E+00 0.  1.
     999902    2    1    2    0    0 -0.20484646648E-01 -0.14391689001E-01  0.15740316620E-02  0.10188457612E+01  0.10185369243E+01 0.  0.
     999903    2    3    3    0    0 -0.72446774840E-01 -0.79304942244E-03 -0.10696535055E+00  0.13055201291E+00  0.18790363016E-01 0.  0.
         14    1    1    2    0    0  0.20484646648E-01  0.14391689001E-01 -0.15740316620E-02  0.25084238802E-01  0.00000000000E+00 0. -1.
     999901    1    3    3    0    0  0.51962128192E-01 -0.13598639578E-01  0.10853938222E+00  0.88829374829E+00  0.88000000000E+00 0. -1.
        -11    1    4    4    0    0 -0.86623778694E-02  0.59338599373E-02 -0.18553377645E-01  0.21324549869E-01  0.51100000000E-03 0. -1.
         11    1    4    4    0    0 -0.63784396970E-01 -0.67269093597E-02 -0.88411972910E-01  0.10922746304E+00  0.51100000000E-03 0.  1.
</event>
<event>
 8    1  0.1076043E+005  0.1043930E+01  0.7957747E-01            NaN
         13   -1    0    0    0    0  0.00000000000E+00  0.00000000000E+00  0.74505805969E-08  0.10566000000E+00  0.10566000000E+00 0.  1.
     999900   -1    0    0    0    0 -0.00000000000E+00 -0.00000000000E+00 -0.74505805969E-08  0.93827000000E+00  0.93827000000E+00 0. -1.
     999902    2    1    2    0    0 -0.16196934692E-01 -0.18238393643E-01  0.67010181211E-02  0.10186340845E+01  0.10183199472E+01 0.  0.
     999903    2    3    3    0    0  0.68013836303E-01  0.10343350738E+00  0.14346849891E-01  0.12624741710E+00  0.20204104627E-01 0.  0.
         14    1    1    2    0    0  0.16196934692E-01  0.18238393643E-01 -0.67010181211E-02  0.25295915479E-01  0.00000000000E+00 0. -1.
     999901    1    3    3    0    0 -0.84210770994E-01 -0.12167190103E+00 -0.76458317696E-02  0.89238666742E+00  0.88000000000E+00 0. -1.
        -11    1    4    4    0    0  0.48102778430E-01  0.58072113375E-01  0.32539189659E-02  0.75479114688E-01  0.51100000000E-03 0.  1.
         11    1    4    4    0    0  0.19911057873E-01  0.45361394009E-01  0.11092930925E-01  0.50768302409E-01  0.51100000000E-03 0. -1.
</event>
<event>
 8    1  0.1076043E+005  0.1043930E+01  0.7957747E-01            NaN
         13   -1    0    0    0    0  0.00000000000E+00  0.00000000000E+00  0.74505805969E-08  0.10566000000E+00  0.10566000000E+00 0.  1.
     999900   -1    0    0    0    0 -0.00000000000E+00 -0.00000000000E+00 -0.74505805969E-08  0.93827000000E+00  0.93827000000E+00 0.  1.
     999902    2    1    2    0    0 -0.15809511614E-01  0.92590931630E-02 -0.15479185335E-01  0.10199450747E+01  0.10196630221E+01 0.  0.
     999903    2    3    3    0    0  0.10852088132E+00  0.42455956436E-01  0.49459656200E-01  0.12821802481E+00  0.20354713868E-01 0.  0.
         14    1    1    2    0    0  0.15809511614E-01 -0.92590931630E-02  0.15479185335E-01  0.23984925314E-01  0.00000000000E+00 0. -1.
     999901    1    3    3    0    0 -0.12433039293E+00 -0.33196863273E-01 -0.64938841535E-01  0.89172704987E+00  0.88000000000E+00 0. -1.
        -11    1    4    4    0    0  0.33749243075E-01  0.10853900180E-01  0.25182213337E-01  0.43488200087E-01  0.51100000000E-03 0. -1.
         11    1    4    4    0    0  0.74771638241E-01  0.31602056256E-01  0.24277442862E-01  0.84729824724E-01  0.51100000000E-03 0.  1.
</event>
<event>
 8    1  0.1076043E+005  0.1043930E+01  0.7957747E-01            NaN
         13   -1    0    0    0    0  0.00000000000E+00  0.00000000000E+00  0.74505805969E-08  0.10566000000E+00  0.10566000000E+00 0.  1.
     999900   -1    0    0    0    0 -0.00000000000E+00 -0.00000000000E+00 -0.74505805969E-08  0.93827000000E+00  0.93827000000E+00 0. -1.
     999902    2    1    2    0    0 -0.25192832809E-02 -0.21057056587E-01  0.12185705530E-01  0.10194710990E+01  0.10191776508E+01 0.  0.
     999903    2    3    3    0    0  0.11205250083E+00  0.25643249606E-01  0.57124056182E-01  0.12968063618E+00  0.18454549885E-01 0.  0.
         14    1    1    2    0    0  0.25192832809E-02  0.21057056587E-01 -0.12185705530E-01  0.24458901031E-01  0.00000000000E+00 0. -1.
     999901    1    3    3    0    0 -0.11457178412E+00 -0.46700306193E-01 -0.44938350651E-01  0.88979046279E+00  0.88000000000E+00 0.  1.
        -11    1    4    4    0    0  0.43984932884E-01  0.12711850247E-01  0.32494268198E-01  0.56146273645E-01  0.51100000000E-03 0. -1.
         11    1    4    4    0    0  0.68067567951E-01  0.12931399359E-01  0.24629787983E-01  0.73534362534E-01  0.51100000000E-03 0.  1.
</event>
<event>
 8    1  0.1076043E+005  0.1043930E+01  0.7957747E-01            NaN
         13   -1    0    0    0    0  0.00000000000E+00  0.00000000000E+00  0.74505805969E-08  0.10566000000E+00  0.10566000000E+00 0.  1.
     999900   -1    0    0    0    0 -0.00000000000E+00 -0.00000000000E+00 -0.74505805969E-08  0.93827000000E+00  0.93827000000E+00 0.  1.
     999902    2    1    2    0    0 -0.21445419111E-01  0.59378162042E-03  0.10247561245E-01  0.10201545696E+01  0.10198774803E+01 0.  0.
     999903    2    3    3    0    0 -0.12316209980E+00  0.44795158418E-01  0.10551017789E-01  0.13319338845E+00  0.21298960194E-01 0.  0.
         14    1    1    2    0    0  0.21445419111E-01 -0.59378162042E-03 -0.10247561245E-01  0.23775430363E-01  0.00000000000E+00 0. -1.
     999901    1    3    3    0    0  0.10171668069E+00 -0.44201376798E-01 -0.30345654417E-03  0.88696118118E+00  0.88000000000E+00 0.  1.
        -11    1    4    4    0    0 -0.31089129169E-01  0.20652980131E-01  0.67339777105E-02  0.37930029233E-01  0.51100000000E-03 0.  1.
         11    1    4    4    0    0 -0.92072970635E-01  0.24142178288E-01  0.38170400785E-02  0.95263359220E-01  0.51100000000E-03 0. -1.
</event>
<event>
 8    1  0.1076043E+005  0.1043930E+01  0.7957747E-01            NaN
         13   -1    0    0    0    0  0.00000000000E+00  0.00000000000E+00  0.74505805969E-08  0.10566000000E+00  0.10566000000E+00 0.  1.
     999900   -1    0    0    0    0 -0.00000000000E+00 -0.00000000000E+00 -0.74505805969E-08  0.93827000000E+00  0.93827000000E+00 0.  1.
     999902    2    1    2    0    0  0.72020452154E-02  0.18570260656E-01  0.28796807504E-01  0.10089160005E+01  0.10083082445E+01 0.  0.
     999903    2    3    3    0    0 -0.60496153766E-01 -0.79321385897E-01 -0.57113859605E-01  0.11675768312E+00  0.20462080232E-01 0.  0.
         14    1    1    2    0    0 -0.72020452154E-02 -0.18570260656E-01 -0.28796807504E-01  0.35013999465E-01  0.00000000000E+00 0. -1.
     999901    1    3    3    0    0  0.67698198981E-01  0.97891646553E-01  0.85910667109E-01  0.89215831742E+00  0.88000000000E+00 0. -1.
        -11    1    4    4    0    0 -0.60444980506E-02 -0.65067409370E-02 -0.12857187480E-01  0.15634641832E-01  0.51100000000E-03 0. -1.
         11    1    4    4    0    0 -0.54451655715E-01 -0.72814644960E-01 -0.44256672125E-01  0.10112304129E+00  0.51100000000E-03 0.  1.
</event>
<event>
 8    1  0.1076043E+005  0.1043930E+01  0.7957747E-01            NaN
         13   -1    0    0    0    0  0.00000000000E+00  0.00000000000E+00  0.74505805969E-08  0.10566000000E+00  0.10566000000E+00 0.  1.
     999900   -1    0    0    0    0 -0.00000000000E+00 -0.00000000000E+00 -0.74505805969E-08  0.93827000000E+00  0.93827000000E+00 0. -1.
     999902    2    1    2    0    0  0.27983900665E-02  0.62376935814E-02  0.22759730097E-01  0.10201656333E+01  0.10198888049E+01 0.  0.
     999903    2    3    3    0    0  0.12696959699E+00 -0.19405260658E-01 -0.46257850018E-02  0.13065677102E+00  0.23493642222E-01 0.  0.
         14    1    1    2    0    0 -0.27983900665E-02 -0.62376935814E-02 -0.22759730097E-01  0.23764366650E-01  0.00000000000E+00 0. -1.
     999901    1    3    3    0    0 -0.12417120692E+00  0.25642954239E-01  0.27385515099E-01  0.88950886233E+00  0.88000000000E+00 0. -1.
        -11    1    4    4    0    0  0.86728976252E-01 -0.15238837722E-01  0.76121396106E-02  0.88387461143E-01  0.51100000000E-03 0. -1.
         11    1    4    4    0    0  0.40240620738E-01 -0.41664229354E-02 -0.12237924612E-01  0.42269309874E-01  0.51100000000E-03 0.  1.
</event>
<event>
 8    1  0.1076043E+005  0.1043930E+01  0.7957747E-01            NaN
         13   -1    0    0    0    0  0.00000000000E+00  0.00000000000E+00  0.74505805969E-08  0.10566000000E+00  0.10566000000E+00 0. -1.
     999900   -1    0    0    0    0 -0.00000000000E+00 -0.00000000000E+00 -0.74505805969E-08  0.93827000000E+00  0.93827000000E+00 0.  1.
     999902    2    1    2    0    0  0.20946230679E-01  0.43345568145E-02 -0.83484366476E-02  0.10209685245E+01  0.10207102913E+01 0.  0.
     999903    2    3    3    0    0 -0.48614029333E-01  0.86349505164E-01 -0.83716590929E-01  0.13122393182E+00  0.19791205027E-01 0.  0.
         14    1    1    2    0    0 -0.20946230679E-01 -0.43345568145E-02  0.83484366476E-02  0.22961475495E-01  0.00000000000E+00 0. -1.
     999901    1    3    3    0    0  0.69560260012E-01 -0.82014948350E-01  0.75368154282E-01  0.88974459268E+00  0.88000000000E+00 0. -1.
        -11    1    4    4    0    0 -0.94211685289E-02  0.35718403229E-01 -0.33116362174E-01  0.49613680677E-01  0.51100000000E-03 0.  1.
         11    1    4    4    0    0 -0.39192860804E-01  0.50631101936E-01 -0.50600228756E-01  0.81610251148E-01  0.51100000000E-03 0. -1.
</event>
<event>
 8    1  0.1076043E+005  0.1043930E+01  0.7957747E-01            NaN
         13   -1    0    0    0    0  0.00000000000E+00  0.00000000000E+00  0.74505805969E-08  0.10566000000E+00  0.10566000000E+00 0.  1.
     999900   -1    0    0    0    0 -0.00000000000E+00 -0.00000000000E+00 -0.74505805969E-08  0.93827000000E+00  0.93827000000E+00 0.  1.
     999902    2    1    2    0    0  0.60715576222E-02 -0.22303195739E-03  0.18109200182E-01  0.10248287779E+01  0.10246507538E+01 0.  0.
     999903    2    3    3    0    0 -0.71056716026E-01 -0.11089535684E+00 -0.14298419389E-01  0.13395988298E+00  0.19848637016E-01 0.  0.
         14    1    1    2    0    0 -0.60715576222E-02  0.22303195739E-03 -0.18109200182E-01  0.19101222119E-01  0.00000000000E+00 0. -1.
     999901    1    3    3    0    0  0.77128273648E-01  0.11067232488E+00  0.32407619571E-01  0.89086889490E+00  0.88000000000E+00 0. -1.
        -11    1    4    4    0    0 -0.36265528503E-01 -0.71788976667E-01 -0.34634664538E-02  0.80505294543E-01  0.51100000000E-03 0.  1.
         11    1    4    4    0    0 -0.34791187522E-01 -0.39106380170E-01 -0.10834952935E-01  0.53454588440E-01  0.51100000000E-03 0. -1.
</event>
<event>
 8    1  0.1076043E+005  0.1043930E+01  0.7957747E-01            NaN
         13   -1    0    0    0    0  0.00000000000E+00  0.00000000000E+00  0.74505805969E-08  0.10566000000E+00  0.10566000000E+00 0.  1.
     999900   -1    0    0    0    0 -0.00000000000E+00 -0.00000000000E+00 -0.74505805969E-08  0.93827000000E+00  0.93827000000E+00 0. -1.
     999902    2    1    2    0    0 -0.28281622780E-02  0.11991118272E-01 -0.11387340033E-01  0.10271533218E+01  0.10270163044E+01 0.  0.
     999903    2    3    3    0    0 -0.10935971717E+00  0.72774969745E-01 -0.38265778492E-01  0.13824044683E+00  0.19758729077E-01 0.  0.
         14    1    1    2    0    0  0.28281622780E-02 -0.11991118272E-01  0.11387340033E-01  0.16776678226E-01  0.00000000000E+00 0.  1.
     999901    1    3    3    0    0  0.10653155489E+00 -0.60783851472E-01  0.26878438459E-01  0.88891287494E+00  0.88000000000E+00 0.  1.
        -11    1    4    4    0    0 -0.10696321317E-01  0.20775214637E-02  0.20692685302E-03  0.10910147793E-01  0.51100000000E-03 0. -1.
         11    1    4    4    0    0 -0.98663395855E-01  0.70697448281E-01 -0.38472705345E-01  0.12733029904E+00  0.51100000000E-03 0.  1.
</event>
<event>
 8    1  0.1076043E+005  0.1043930E+01  0.7957747E-01            NaN
         13   -1    0    0    0    0  0.00000000000E+00  0.00000000000E+00  0.74505805969E-08  0.10566000000E+00  0.10566000000E+00 0.  1.
     999900   -1    0    0    0    0 -0.00000000000E+00 -0.00000000000E+00 -0.74505805969E-08  0.93827000000E+00  0.93827000000E+00 0.  1.
     999902    2    1    2    0    0  0.18429405233E-02 -0.12799852363E-01 -0.19673865854E-01  0.10203865583E+01  0.10201149125E+01 0.  0.
     999903    2    3    3    0    0  0.10738514992E+00 -0.35376952327E-01 -0.66649505601E-01  0.13254896382E+00  0.18546483081E-01 0.  0.
         14    1    1    2    0    0 -0.18429405233E-02  0.12799852363E-01  0.19673865854E-01  0.23543441719E-01  0.00000000000E+00 0.  1.
     999901    1    3    3    0    0 -0.10554220939E+00  0.22577099963E-01  0.46975639746E-01  0.88783759446E+00  0.88000000000E+00 0.  1.
        -11    1    4    4    0    0  0.39256550956E-01 -0.36908260708E-02 -0.23317188573E-01  0.45811040088E-01  0.51100000000E-03 0. -1.
         11    1    4    4    0    0  0.68128598961E-01 -0.31686126256E-01 -0.43332317028E-01  0.86737923734E-01  0.51100000000E-03 0.  1.
</event>
<event>
 8    1  0.1076043E+005  0.1043930E+01  0.7957747E-01            NaN
         13   -1    0    0    0    0  0.00000000000E+00  0.00000000000E+00  0.74505805969E-08  0.10566000000E+00  0.10566000000E+00 0. -1.
     999900   -1    0    0    0    0 -0.00000000000E+00 -0.00000000000E+00 -0.74505805969E-08  0.93827000000E+00  0.93827000000E+00 0. -1.
     999902    2    1    2    0    0 -0.13058494436E-01 -0.68917652402E-02  0.16987053979E-01  0.10214226521E+01  0.10211746440E+01 0.  0.
     999903    2    3    3    0    0 -0.13131353977E+00  0.90931894101E-02  0.52471502624E-02  0.13329113042E+00  0.20323903219E-01 0.  0.
         14    1    1    2    0    0  0.13058494436E-01  0.68917652402E-02 -0.16987053979E-01  0.22507347866E-01  0.00000000000E+00 0.  1.
     999901    1    3    3    0    0  0.11825504533E+00 -0.15984954650E-01  0.11739903717E-01  0.88813152171E+00  0.88000000000E+00 0.  1.
        -11    1    4    4    0    0 -0.40321106061E-01  0.10431645531E-01 -0.38734647717E-02  0.41831515306E-01  0.51100000000E-03 0. -1.
         11    1    4    4    0    0 -0.90992433710E-01 -0.13384561214E-02  0.91206150341E-02  0.91459615114E-01  0.51100000000E-03 0.  1.
</event>
<event>
 8    1  0.1076043E+005  0.1043930E+01  0.7957747E-01            NaN
         13   -1    0    0    0    0  0.00000000000E+00  0.00000000000E+00  0.74505805969E-08  0.10566000000E+00  0.10566000000E+00 0.  1.
     999900   -1    0    0    0    0 -0.00000000000E+00 -0.00000000000E+00 -0.74505805969E-08  0.93827000000E+00  0.93827000000E+00 0.  1.
     999902    2    1    2    0    0 -0.17761605689E-01  0.75053528768E-02  0.15113987502E-01  0.10194302535E+01  0.10191358125E+01 0.  0.
     999903    2    3    3    0    0 -0.15532689101E-01 -0.43117918768E-01 -0.11787983009E+00  0.12799599392E+00  0.19669793290E-01 0.  0.
         14    1    1    2    0    0  0.17761605689E-01 -0.75053528768E-02 -0.15113987502E-01  0.24499746461E-01  0.00000000000E+00 0.  1.
     999901    1    3    3    0    0 -0.22289165874E-02  0.50623271644E-01  0.13299381759E+00  0.89143425962E+00  0.88000000000E+00 0. -1.
        -11    1    4    4    0    0 -0.12706518926E-01 -0.30690030025E-01 -0.58618528244E-01  0.67377492834E-01  0.51100000000E-03 0.  1.
         11    1    4    4    0    0 -0.28261701751E-02 -0.12427888743E-01 -0.59261301847E-01  0.60618501088E-01  0.51100000000E-03 0. -1.
</event>
<event>
 8    1  0.1076043E+005  0.1043930E+01  0.7957747E-01            NaN
         13   -1    0    0    0    0  0.00000000000E+00  0.00000000000E+00  0.74505805969E-08  0.10566000000E+00  0.10566000000E+00 0.  1.
     999900   -1    0    0    0    0 -0.00000000000E+00 -0.00000000000E+00 -0.74505805969E-08  0.93827000000E+00  0.93827000000E+00 0. -1.
     999902    2    1    2    0    0  0.52344638967E-02 -0.18917230493E-01  0.14157918498E-01  0.10197285976E+01  0.10194413690E+01 0.  0.
     999903    2    3    3    0    0 -0.55497305487E-01  0.10429767862E+00 -0.43277794160E-01  0.12722138602E+00  0.18824370119E-01 0.  0.
         14    1    1    2    0    0 -0.52344638967E-02  0.18917230493E-01 -0.14157918498E-01  0.24201402398E-01  0.00000000000E+00 0. -1.
     999901    1    3    3    0    0  0.60731769384E-01 -0.12321490912E+00  0.57435712659E-01  0.89250721158E+00  0.88000000000E+00 0.  1.
        -11    1    4    4    0    0 -0.47450235984E-01  0.88708194984E-01 -0.29295701844E-01  0.10478152518E+00  0.51100000000E-03 0. -1.
         11    1    4    4    0    0 -0.80470695024E-02  0.15589483640E-01 -0.13982092316E-01  0.22439860834E-01  0.51100000000E-03 0.  1.
</event>
<event>
 8    1  0.1076043E+005  0.1043930E+01  0.7957747E-01            NaN
         13   -1    0    0    0    0  0.00000000000E+00  0.00000000000E+00  0.74505805969E-08  0.10566000000E+00  0.10566000000E+00 0. -1.
     999900   -1    0    0    0    0 -0.00000000000E+00 -0.00000000000E+00 -0.74505805969E-08  0.93827000000E+00  0.93827000000E+00 0. -1.
     999902    2    1    2    0    0  0.44862157616E-03  0.15256972056E-01 -0.17067823047E-01  0.10210326848E+01  0.10207759090E+01 0.  0.
     999903    2    3    3    0    0  0.32478962960E-01  0.11053623724E+00 -0.62866563300E-01  0.13412704965E+00  0.27653532999E-01 0.  0.
         14    1    1    2    0    0 -0.44862157616E-03 -0.15256972056E-01  0.17067823047E-01  0.22897315152E-01  0.00000000000E+00 0. -1.
     999901    1    3    3    0    0 -0.32030341384E-01 -0.95279265185E-01  0.45798740253E-01  0.88690563520E+00  0.88000000000E+00 0.  1.
        -11    1    4    4    0    0  0.10418552280E-01  0.21325320078E-01 -0.18410884803E-02  0.23811052808E-01  0.51100000000E-03 0.  1.
         11    1    4    4    0    0  0.22060410681E-01  0.89210917163E-01 -0.61025474819E-01  0.11031599684E+00  0.51100000000E-03 0. -1.
</event>
<event>
 8    1  0.1076043E+005  0.1043930E+01  0.7957747E-01            NaN
         13   -1    0    0    0    0  0.00000000000E+00  0.00000000000E+00  0.74505805969E-08  0.10566000000E+00  0.10566000000E+00 0. -1.
     999900   -1    0    0    0    0 -0.00000000000E+00 -0.00000000000E+00 -0.74505805969E-08  0.93827000000E+00  0.93827000000E+00 0. -1.
     999902    2    1    2    0    0  0.11239986235E-01 -0.95040160079E-02  0.18463518765E-01  0.10203171828E+01  0.10200439149E+01 0.  0.
     999903    2    3    3    0    0 -0.33843954745E-01  0.12315312004E+00  0.75979493868E-02  0.12916706185E+00  0.17728417409E-01 0.  0.
         14    1    1    2    0    0 -0.11239986235E-01  0.95040160079E-02 -0.18463518765E-01  0.23612817198E-01  0.00000000000E+00 0.  1.
     999901    1    3    3    0    0  0.45083940980E-01 -0.13265713605E+00  0.10865569378E-01  0.89115012095E+00  0.88000000000E+00 0.  1.
        -11    1    4    4    0    0 -0.24258552055E-01  0.10281577643E+00  0.11772615188E-01  0.10629401121E+00  0.51100000000E-03 0. -1.
         11    1    4    4    0    0 -0.95854026898E-02  0.20337343608E-01 -0.41746658012E-02  0.22873050634E-01  0.51100000000E-03 0.  1.
</event>
<event>
 8    1  0.1076043E+005  0.1043930E+01  0.7957747E-01            NaN
         13   -1    0    0    0    0  0.00000000000E+00  0.00000000000E+00  0.74505805969E-08  0.10566000000E+00  0.10566000000E+00 0. -1.
     999900   -1    0    0    0    0 -0.00000000000E+00 -0.00000000000E+00 -0.74505805969E-08  0.93827000000E+00  0.93827000000E+00 0. -1.
     999902    2    1    2    0    0 -0.45586895356E-02  0.14128425232E-03  0.24458402388E-01  0.10190499868E+01  0.10187462198E+01 0.  0.
     999903    2    3    3    0    0 -0.57780904157E-01 -0.33253531460E-01 -0.10638543023E+00  0.12715990027E+00  0.20182919293E-01 0.  0.
         14    1    1    2    0    0  0.45586895356E-02 -0.14128425232E-03 -0.24458402388E-01  0.24880013242E-01  0.00000000000E+00 0.  1.
     999901    1    3    3    0    0  0.53222214621E-01  0.33394815713E-01  0.13084383262E+00  0.89189008649E+00  0.88000000000E+00 0.  1.
        -11    1    4    4    0    0 -0.26779551815E-01 -0.14645811868E-01 -0.67372359733E-01  0.73965804110E-01  0.51100000000E-03 0.  1.
         11    1    4    4    0    0 -0.31001352341E-01 -0.18607719592E-01 -0.39013070497E-01  0.53194096157E-01  0.51100000000E-03 0. -1.
</event>
<event>
 8    1  0.1076043E+005  0.1043930E+01  0.7957747E-01            NaN
         13   -1    0    0    0    0  0.00000000000E+00  0.00000000000E+00  0.74505805969E-08  0.10566000000E+00  0.10566000000E+00 0.  1.
     999900   -1    0    0    0    0 -0.00000000000E+00 -0.00000000000E+00 -0.74505805969E-08  0.93827000000E+00  0.93827000000E+00 0. -1.
     999902    2    1    2    0    0 -0.54283979473E-02  0.12331296458E-01 -0.19500208901E-01  0.10202279637E+01  0.10199526025E+01 0.  0.
     999903    2    3    3    0    0 -0.71898640401E-01 -0.98003686747E-01 -0.42955893736E-01  0.13054134991E+00  0.20535289652E-01 0.  0.
         14    1    1    2    0    0  0.54283979473E-02 -0.12331296458E-01  0.19500208901E-01  0.23702036279E-01  0.00000000000E+00 0.  1.
     999901    1    3    3    0    0  0.66470242454E-01  0.11033498320E+00  0.23455684836E-01  0.88968661382E+00  0.88000000000E+00 0.  1.
        -11    1    4    4    0    0 -0.44314573531E-01 -0.75526806335E-01 -0.27954329275E-01  0.91922715085E-01  0.51100000000E-03 0.  1.
         11    1    4    4    0    0 -0.27584066870E-01 -0.22476880412E-01 -0.15001564462E-01  0.38618634821E-01  0.51100000000E-03 0. -1.
</event>
<event>
 8    1  0.1076043E+005  0.1043930E+01  0.7957747E-01            NaN
         13   -1    0    0    0    0  0.00000000000E+00  0.00000000000E+00  0.74505805969E-08  0.10566000000E+00  0.10566000000E+00 0.  1.
     999900   -1    0    0    0    0 -0.00000000000E+00 -0.00000000000E+00 -0.74505805969E-08  0.93827000000E+00  0.93827000000E+00 0.  1.
     999902    2    1    2    0    0 -0.45189132126E-02  0.13265387641E-02 -0.22780573899E-01  0.10206676951E+01  0.10204025720E+01 0.  0.
     999903    2    3    3    0    0 -0.24970762962E-01 -0.79695482837E-01 -0.10167202615E+00  0.13319560688E+00  0.20711344782E-01 0.  0.
         14    1    1    2    0    0  0.45189132126E-02 -0.13265387641E-02  0.22780573899E-01  0.23262304892E-01  0.00000000000E+00 0.  1.
     999901    1    3    3    0    0  0.20451849750E-01  0.81022021601E-01  0.78891452256E-01  0.88747208823E+00  0.88000000000E+00 0. -1.
        -11    1    4    4    0    0 -0.14681508421E-01 -0.33714241616E-01 -0.30193497346E-01  0.47582614264E-01  0.51100000000E-03 0. -1.
         11    1    4    4    0    0 -0.10289254542E-01 -0.45981241221E-01 -0.71478528809E-01  0.85612992617E-01  0.51100000000E-03 0.  1.
</event>
<event>
 8    1  0.1076043E+005  0.1043930E+01  0.7957747E-01            NaN
         13   -1    0    0    0    0  0.00000000000E+00  0.00000000000E+00  0.74505805969E-08  0.10566000000E+00  0.10566000000E+00 0. -1.
     999900   -1    0    0    0    0 -0.00000000000E+00 -0.00000000000E+00 -0.74505805969E-08  0.93827000000E+00  0.93827000000E+00 0. -1.
     999902    2    1    2    0    0 -0.15505765613E-01  0.13854313328E-01 -0.11767237852E-01  0.10200377701E+01  0.10197579192E+01 0.  0.
     999903    2    3    3    0    0 -0.33071136220E-01 -0.92314351134E-01  0.80868719029E-01  0.12865583841E+00  0.19923241784E-01 0.  0.
         14    1    1    2    0    0  0.15505765613E-01 -0.13854313328E-01  0.11767237852E-01  0.23892229944E-01  0.00000000000E+00 0. -1.
     999901    1    3    3    0    0  0.17565370607E-01  0.10616866446E+00 -0.92635956881E-01  0.89138193165E+00  0.88000000000E+00 0. -1.
        -11    1    4    4    0    0 -0.32027768287E-01 -0.87973530370E-01  0.70012912873E-01  0.11690675377E+00  0.51100000000E-03 0.  1.
         11    1    4    4    0    0 -0.10433679328E-02 -0.43408207644E-02  0.10855806156E-01  0.11749084639E-01  0.51100000000E-03 0. -1.
</event>
<event>
 8    1  0.1076043E+005  0.1043930E+01  0.7957747E-01            NaN
         13   -1    0    0    0    0  0.00000000000E+00  0.00000000000E+00  0.74505805969E-08  0.10566000000E+00  0.10566000000E+00 0.  1.
     999900   -1    0    0    0    0 -0.00000000000E+00 -0.00000000000E+00 -0.74505805969E-08  0.93827000000E+00  0.93827000000E+00 0. -1.
     999902    2    1    2    0    0  0.37152472700E-02 -0.14279412395E-01 -0.18992776040E-01  0.10198794237E+01  0.10195958065E+01 0.  0.
     999903    2    3    3    0    0  0.30073530392E-01 -0.15992452829E-01  0.12051562845E+00  0.12849831071E+00  0.28768444122E-01 0.  0.
         14    1    1    2    0    0 -0.37152472700E-02  0.14279412395E-01  0.18992776040E-01  0.24050576341E-01  0.00000000000E+00 0.  1.
     999901    1    3    3    0    0 -0.26358283122E-01  0.17130404344E-02 -0.13950840449E+00  0.89138111295E+00  0.88000000000E+00 0. -1.
        -11    1    4    4    0    0  0.16356975372E-01 -0.15471151726E-01  0.10657145236E+00  0.10892494094E+00  0.51100000000E-03 0.  1.
         11    1    4    4    0    0  0.13716555020E-01 -0.52130110336E-03  0.13944176087E-01  0.19573369771E-01  0.51100000000E-03 0. -1.
</event>
<event>
 8    1  0.1076043E+005  0.1043930E+01  0.7957747E-01            NaN
         13   -1    0    0    0    0  0.00000000000E+00  0.00000000000E+00  0.74505805969E-08  0.10566000000E+00  0.10566000000E+00 0. -1.
     999900   -1    0    0    0    0 -0.00000000000E+00 -0.00000000000E+00 -0.74505805969E-08  0.93827000000E+00  0.93827000000E+00 0.  1.
     999902    2    1    2    0    0  0.53352123107E-02  0.21519313533E-01 -0.72602396933E-02  0.10206006960E+01  0.10203340258E+01 0.  0.
     999903    2    3    3    0    0  0.12356662327E+00 -0.37515973563E-01 -0.19574561059E-02  0.13071758503E+00  0.20176638541E-01 0.  0.
         14    1    1    2    0    0 -0.53352123107E-02 -0.21519313533E-01  0.72602396933E-02  0.23329304013E-01  0.00000000000E+00 0.  1.
     999901    1    3    3    0    0 -0.11823141096E+00  0.59035287096E-01 -0.53027835874E-02  0.88988311096E+00  0.88000000000E+00 0. -1.
        -11    1    4    4    0    0  0.74406502569E-01 -0.31247401442E-01 -0.64095133755E-02  0.80957215269E-01  0.51100000000E-03 0. -1.
         11    1    4    4    0    0  0.49160120698E-01 -0.62685721209E-02  0.44520572696E-02  0.49760369757E-01  0.51100000000E-03 0.  1.
</event>
<event>
 8    1  0.1076043E+005  0.1043930E+01  0.7957747E-01            NaN
         13   -1    0    0    0    0  0.00000000000E+00  0.00000000000E+00  0.74505805969E-08  0.10566000000E+00  0.10566000000E+00 0. -1.
     999900   -1    0    0    0    0 -0.00000000000E+00 -0.00000000000E+00 -0.74505805969E-08  0.93827000000E+00  0.93827000000E+00 0.  1.
     999902    2    1    2    0    0 -0.19699069254E-01 -0.62535841381E-02 -0.11950800069E-01  0.10200556986E+01  0.10197762725E+01 0.  0.
     999903    2    3    3    0    0 -0.44288929700E-01  0.29438188469E-01  0.11647860814E+00  0.12967787053E+00  0.20517497786E-01 0.  0.
         14    1    1    2    0    0  0.19699069254E-01  0.62535841381E-02  0.11950800069E-01  0.23874301379E-01  0.00000000000E+00 0. -1.
     999901    1    3    3    0    0  0.24589860446E-01 -0.35691772607E-01 -0.12842940821E+00  0.89037782809E+00  0.88000000000E+00 0.  1.
        -11    1    4    4    0    0 -0.20655899472E-01  0.15852283706E-01  0.34116881587E-01  0.42920668819E-01  0.51100000000E-03 0.  1.
         11    1    4    4    0    0 -0.23633030228E-01  0.13585904763E-01  0.82361726555E-01  0.86757201708E-01  0.51100000000E-03 0. -1.
</event>
<event>
 8    1  0.1076043E+005  0.1043930E+01  0.7957747E-01            NaN
         13   -1    0    0    0    0  0.00000000000E+00  0.00000000000E+00  0.74505805969E-08  0.10566000000E+00  0.10566000000E+00 0.  1.
     999900   -1    0    0    0    0 -0.00000000000E+00 -0.00000000000E+00 -0.74505805969E-08  0.93827000000E+00  0.93827000000E+00 0.  1.
     999902    2    1    2    0    0  0.16176158956E-01 -0.16958220692E-01  0.22858723852E-02  0.10203827161E+01  0.10201109806E+01 0.  0.
     999903    2    3    3    0    0  0.93184727599E-01 -0.91657644822E-01  0.21365344167E-01  0.13366159314E+00  0.18011836065E-01 0.  0.
         14    1    1    2    0    0 -0.16176158956E-01  0.16958220692E-01 -0.22858723852E-02  0.23547283924E-01  0.00000000000E+00 0.  1.
     999901    1    3    3    0    0 -0.77008568643E-01  0.74699424130E-01 -0.19079471781E-01  0.88672112293E+00  0.88000000000E+00 0. -1.
        -11    1    4    4    0    0  0.75669177443E-01 -0.77455989208E-01  0.11009931125E-01  0.10884270478E+00  0.51100000000E-03 0.  1.
         11    1    4    4    0    0  0.17515550157E-01 -0.14201655615E-01  0.10355413042E-01  0.24818888367E-01  0.51100000000E-03 0. -1.
</event>
<event>
 8    1  0.1076043E+005  0.1043930E+01  0.7957747E-01            NaN
         13   -1    0    0    0    0  0.00000000000E+00  0.00000000000E+00  0.74505805969E-08  0.10566000000E+00  0.10566000000E+00 0.  1.
     999900   -1    0    0    0    0 -0.00000000000E+00 -0.00000000000E+00 -0.74505805969E-08  0.93827000000E+00  0.93827000000E+00 0. -1.
     999902    2    1    2    0    0 -0.94934848236E-02  0.71018184363E-02  0.20728544872E-01  0.10200504135E+01  0.10197708622E+01 0.  0.
     999903    2    3    3    0    0 -0.12199213809E+00 -0.42902771145E-01 -0.83486658746E-02  0.13100491964E+00  0.19231724313E-01 0.  0.
         14    1    1    2    0    0  0.94934848236E-02 -0.71018184363E-02 -0.20728544872E-01  0.23879586507E-01  0.00000000000E+00 0. -1.
     999901    1    3    3    0    0  0.11249865326E+00  0.50004589582E-01  0.29077210747E-01  0.88904549386E+00  0.88000000000E+00 0. -1.
        -11    1    4    4    0    0 -0.78220995966E-01 -0.19958904536E-01 -0.11190128588E-01  0.81500688211E-01  0.51100000000E-03 0. -1.
         11    1    4    4    0    0 -0.43771142120E-01 -0.22943866610E-01  0.28414627133E-02  0.49504231424E-01  0.51100000000E-03 0.  1.
</event>
<event>
 8    1  0.1076043E+005  0.1043930E+01  0.7957747E-01            NaN
         13   -1    0    0    0    0  0.00000000000E+00  0.00000000000E+00  0.74505805969E-08  0.10566000000E+00  0.10566000000E+00 0.  1.
     999900   -1    0    0    0    0 -0.00000000000E+00 -0.00000000000E+00 -0.74505805969E-08  0.93827000000E+00  0.93827000000E+00 0. -1.
     999902    2    1    2    0    0  0.20540147613E-01  0.10661419278E-01 -0.17868541920E-01  0.10146922108E+01  0.10142708881E+01 0.  0.
     999903    2    3    3    0    0  0.21511720177E-01 -0.11435724493E+00  0.38428332438E-01  0.12407447667E+00  0.19426925981E-01 0.  0.
         14    1    1    2    0    0 -0.20540147613E-01 -0.10661419278E-01  0.17868541920E-01  0.29237789166E-01  0.00000000000E+00 0.  1.
     999901    1    3    3    0    0 -0.97157256454E-03  0.12501866421E+00 -0.56296874358E-01  0.89061773417E+00  0.88000000000E+00 0. -1.
        -11    1    4    4    0    0  0.51645772935E-02 -0.76879274921E-01  0.23815129100E-01  0.80650587512E-01  0.51100000000E-03 0.  1.
         11    1    4    4    0    0  0.16347142884E-01 -0.37477970007E-01  0.14613203338E-01  0.43423889153E-01  0.51100000000E-03 0. -1.
</event>
<event>
 8    1  0.1076043E+005  0.1043930E+01  0.7957747E-01            NaN
         13   -1    0    0    0    0  0.00000000000E+00  0.00000000000E+00  0.74505805969E-08  0.10566000000E+00  0.10566000000E+00 0.  1.
     999900   -1    0    0    0    0 -0.00000000000E+00 -0.00000000000E+00 -0.74505805969E-08  0.93827000000E+00  0.93827000000E+00 0.  1.
     999902    2    1    2    0    0 -0.17389388117E-01 -0.49419719317E-02 -0.12367194092E-01  0.10220265438E+01  0.10217918060E+01 0.  0.
     999903    2    3    3    0    0  0.12591198434E+00  0.41423151111E-02 -0.27773728227E-01  0.13025573861E+00  0.18005301625E-01 0.  0.
         14    1    1    2    0    0  0.17389388117E-01  0.49419719317E-02  0.12367194092E-01  0.21903456242E-01  0.00000000000E+00 0.  1.
     999901    1    3    3    0    0 -0.14330137246E+00 -0.90842870427E-02  0.15406534136E-01  0.89177080515E+00  0.88000000000E+00 0. -1.
        -11    1    4    4    0    0  0.33421532904E-01  0.74092378213E-02 -0.12538797412E-01  0.36460639439E-01  0.51100000000E-03 0.  1.
         11    1    4    4    0    0  0.92490451435E-01 -0.32669227102E-02 -0.15234930815E-01  0.93795099171E-01  0.51100000000E-03 0. -1.
</event>
<event>
 8    1  0.1076043E+005  0.1043930E+01  0.7957747E-01            NaN
         13   -1    0    0    0    0  0.00000000000E+00  0.00000000000E+00  0.74505805969E-08  0.10566000000E+00  0.10566000000E+00 0. -1.
     999900   -1    0    0    0    0 -0.00000000000E+00 -0.00000000000E+00 -0.74505805969E-08  0.93827000000E+00  0.93827000000E+00 0.  1.
     999902    2    1    2    0    0  0.61686349650E-03  0.68927294375E-02 -0.22721313838E-01  0.10201781929E+01  0.10199016604E+01 0.  0.
     999903    2    3    3    0    0  0.12543115889E+00 -0.76646953562E-02 -0.31476559353E-01  0.13120846263E+00  0.20812585186E-01 0.  0.
         14    1    1    2    0    0 -0.61686349650E-03 -0.68927294375E-02  0.22721313838E-01  0.23751807135E-01  0.00000000000E+00 0. -1.
     999901    1    3    3    0    0 -0.12481429539E+00  0.14557424794E-01  0.87552455152E-02  0.88896973024E+00  0.88000000000E+00 0. -1.
        -11    1    4    4    0    0  0.37417781510E-01 -0.65741277737E-02 -0.18419106201E-01  0.42223620444E-01  0.51100000000E-03 0.  1.
         11    1    4    4    0    0  0.88013377377E-01 -0.10905675825E-02 -0.13057453152E-01  0.88984842186E-01  0.51100000000E-03 0. -1.
</event>
<event>
 8    1  0.1076043E+005  0.1043930E+01  0.7957747E-01            NaN
         13   -1    0    0    0    0  0.00000000000E+00  0.00000000000E+00  0.74505805969E-08  0.10566000000E+00  0.10566000000E+00 0.  1.
     999900   -1    0    0    0    0 -0.00000000000E+00 -0.00000000000E+00 -0.74505805969E-08  0.93827000000E+00  0.93827000000E+00 0. -1.
     999902    2    1    2    0    0  0.15496146035E-01 -0.61905149169E-02  0.15937739656E-01  0.10208548063E+01  0.10205939795E+01 0.  0.
     999903    2    3    3    0    0  0.67003591433E-01  0.74712780135E-01 -0.80845425511E-01  0.13036879234E+00  0.19711884978E-01 0.  0.
         14    1    1    2    0    0 -0.15496146035E-01  0.61905149169E-02 -0.15937739656E-01  0.23075193655E-01  0.00000000000E+00 0. -1.
     999901    1    3    3    0    0 -0.51507445397E-01 -0.80903295052E-01  0.96783165167E-01  0.89048601401E+00  0.88000000000E+00 0.  1.
        -11    1    4    4    0    0  0.15189473488E-02  0.10029225631E-01 -0.95435966036E-02  0.13936783163E-01  0.51100000000E-03 0.  1.
         11    1    4    4    0    0  0.65484644084E-01  0.64683554504E-01 -0.71301828908E-01  0.11643200918E+00  0.51100000000E-03 0. -1.
</event>
<event>
 8    1  0.1076043E+005  0.1043930E+01  0.7957747E-01            NaN
         13   -1    0    0    0    0  0.00000000000E+00  0.00000000000E+00  0.74505805969E-08  0.10566000000E+00  0.10566000000E+00 0. -1.
     999900   -1    0    0    0    0 -0.00000000000E+00 -0.00000000000E+00 -0.74505805969E-08  0.93827000000E+00  0.93827000000E+00 0.  1.
     999902    2    1    2    0    0  0.20955203592E-02 -0.23253658187E-01  0.18648878490E-02  0.10205077535E+01  0.10202389295E+01 0.  0.
     999903    2    3    3    0    0  0.11886567899E+00  0.47216835277E-01 -0.13148148637E-01  0.12987497190E+00  0.18334539475E-01 0.  0.
         14    1    1    2    0    0 -0.20955203592E-02  0.23253658187E-01 -0.18648878490E-02  0.23422246505E-01  0.00000000000E+00 0.  1.
     999901    1    3    3    0    0 -0.11677015863E+00 -0.70470493464E-01  0.15013036486E-01  0.89063278160E+00  0.88000000000E+00 0. -1.
        -11    1    4    4    0    0  0.71807215865E-01  0.19167517282E-01 -0.50626856515E-02  0.74495381575E-01  0.51100000000E-03 0. -1.
         11    1    4    4    0    0  0.47058463121E-01  0.28049317995E-01 -0.80854629859E-02  0.55379590320E-01  0.51100000000E-03 0.  1.
</event>
<event>
 8    1  0.1076043E+005  0.1043930E+01  0.7957747E-01            NaN
         13   -1    0    0    0    0  0.00000000000E+00  0.00000000000E+00  0.74505805969E-08  0.10566000000E+00  0.10566000000E+00 0.  1.
     999900   -1    0    0    0    0 -0.00000000000E+00 -0.00000000000E+00 -0.74505805969E-08  0.93827000000E+00  0.93827000000E+00 0.  1.
     999902    2    1    2    0    0  0.11883371756E-01 -0.84821380815E-02 -0.19239270218E-01  0.10197781738E+01  0.10194921349E+01 0.  0.
     999903    2    3    3    0    0 -0.10820053758E+00 -0.66772750784E-01  0.10586660120E-01  0.12921232730E+00  0.20439950471E-01 0.  0.
         14    1    1    2    0    0 -0.11883371756E-01  0.84821380815E-02  0.19239270218E-01  0.24151826209E-01  0.00000000000E+00 0.  1.
     999901    1    3    3    0    0  0.12008390933E+00  0.58290612703E-01 -0.29825930338E-01  0.89056584649E+00  0.88000000000E+00 0.  1.
        -11    1    4    4    0    0 -0.66434703624E-01 -0.31683559369E-01  0.12341234604E-01  0.74632331951E-01  0.51100000000E-03 0.  1.
         11    1    4    4    0    0 -0.41765833953E-01 -0.35089191416E-01 -0.17545744842E-02  0.54579995352E-01  0.51100000000E-03 0. -1.
</event>
<event>
 8    1  0.1076043E+005  0.1043930E+01  0.7957747E-01            NaN
         13   -1    0    0    0    0  0.00000000000E+00  0.00000000000E+00  0.74505805969E-08  0.10566000000E+00  0.10566000000E+00 0.  1.
     999900   -1    0    0    0    0 -0.00000000000E+00 -0.00000000000E+00 -0.74505805969E-08  0.93827000000E+00  0.93827000000E+00 0. -1.
     999902    2    1    2    0    0  0.16510343138E-01  0.16914835748E-01 -0.32521009564E-02  0.10200704262E+01  0.10197913489E+01 0.  0.
     999903    2    3    3    0    0 -0.39113536451E-01  0.12166143474E+00 -0.25650812424E-01  0.13183196263E+00  0.19756739471E-01 0.  0.
         14    1    1    2    0    0 -0.16510343138E-01 -0.16914835748E-01  0.32521009564E-02  0.23859573750E-01  0.00000000000E+00 0. -1.
     999901    1    3    3    0    0  0.55623879589E-01 -0.10474659900E+00  0.22398711468E-01  0.88823846362E+00  0.88000000000E+00 0. -1.
        -11    1    4    4    0    0 -0.20246861314E-01  0.54631725225E-01 -0.20360411199E-02  0.58300663621E-01  0.51100000000E-03 0.  1.
         11    1    4    4    0    0 -0.18866675137E-01  0.67029709519E-01 -0.23614771304E-01  0.73531299007E-01  0.51100000000E-03 0. -1.
</event>
<event>
 8    1  0.1076043E+005  0.1043930E+01  0.7957747E-01            NaN
         13   -1    0    0    0    0  0.00000000000E+00  0.00000000000E+00  0.74505805969E-08  0.10566000000E+00  0.10566000000E+00 0.  1.
     999900   -1    0    0    0    0 -0.00000000000E+00 -0.00000000000E+00 -0.74505805969E-08  0.93827000000E+00  0.93827000000E+00 0. -1.
     999902    2    1    2    0    0  0.22006679361E-01  0.22289155621E-02  0.53608749857E-02  0.10211703651E+01  0.10209167025E+01 0.  0.
     999903    2    3    3    0    0 -0.55870706186E-01 -0.49044497217E-01 -0.10448261573E+00  0.12945323365E+00  0.17737649086E-01 0.  0.
         14    1    1    2    0    0 -0.22006679361E-01 -0.22289155621E-02 -0.53608749857E-02  0.22759634920E-01  0.00000000000E+00 0. -1.
     999901    1    3    3    0    0  0.77877385547E-01  0.51273412779E-01  0.10984349072E+00  0.89171713143E+00  0.88000000000E+00 0.  1.
        -11    1    4    4    0    0 -0.13732387358E-01 -0.23285772593E-01 -0.36614411346E-01  0.45515732522E-01  0.51100000000E-03 0.  1.
         11    1    4    4    0    0 -0.42138318829E-01 -0.25758724624E-01 -0.67868204384E-01  0.83937501126E-01  0.51100000000E-03 0. -1.
</event>
<event>
 8    1  0.1076043E+005  0.1043930E+01  0.7957747E-01            NaN
         13   -1    0    0    0    0  0.00000000000E+00  0.00000000000E+00  0.74505805969E-08  0.10566000000E+00  0.10566000000E+00 0. -1.
     999900   -1    0    0    0    0 -0.00000000000E+00 -0.00000000000E+00 -0.74505805969E-08  0.93827000000E+00  0.93827000000E+00 0. -1.
     999902    2    1    2    0    0 -0.14132822787E-01  0.16586109526E-01  0.97257446799E-02  0.10200673552E+01  0.10197882051E+01 0.  0.
     999903    2    3    3    0    0  0.37721693856E-01 -0.11141772243E+00 -0.45260041809E-01  0.12760037616E+00  0.19913551963E-01 0.  0.
         14    1    1    2    0    0  0.14132822787E-01 -0.16586109526E-01 -0.97257446799E-02  0.23862644839E-01  0.00000000000E+00 0.  1.
     999901    1    3    3    0    0 -0.51854516643E-01  0.12800383196E+00  0.54985786489E-01  0.89246697900E+00  0.88000000000E+00 0.  1.
        -11    1    4    4    0    0  0.16755647162E-01 -0.23783945589E-01 -0.88508935882E-02  0.30414260107E-01  0.51100000000E-03 0.  1.
         11    1    4    4    0    0  0.20966046694E-01 -0.87633776845E-01 -0.36409148221E-01  0.97186116052E-01  0.51100000000E-03 0. -1.
</event>
<event>
 8    1  0.1076043E+005  0.1043930E+01  0.7957747E-01            NaN
         13   -1    0    0    0    0  0.00000000000E+00  0.00000000000E+00  0.74505805969E-08  0.10566000000E+00  0.10566000000E+00 0. -1.
     999900   -1    0    0    0    0 -0.00000000000E+00 -0.00000000000E+00 -0.74505805969E-08  0.93827000000E+00  0.93827000000E+00 0.  1.
     999902    2    1    2    0    0 -0.14414917922E-01  0.16976414613E-01 -0.72938889894E-02  0.10204952112E+01  0.10202260959E+01 0.  0.
     999903    2    3    3    0    0  0.12186574403E+00 -0.17276712897E-01  0.30603784414E-01  0.12854121614E+00  0.20892779854E-01 0.  0.
         14    1    1    2    0    0  0.14414917922E-01 -0.16976414613E-01  0.72938889894E-02  0.23434788849E-01  0.00000000000E+00 0.  1.
     999901    1    3    3    0    0 -0.13628066195E+00  0.34253127510E-01 -0.37897673403E-01  0.89195399501E+00  0.88000000000E+00 0. -1.
        -11    1    4    4    0    0  0.10809873064E+00 -0.92016143945E-02  0.29994923466E-01  0.11256092497E+00  0.51100000000E-03 0. -1.
         11    1    4    4    0    0  0.13767013386E-01 -0.80750985029E-02  0.60886094717E-03  0.15980291175E-01  0.51100000000E-03 0.  1.
</event>
<event>
 8    1  0.1076043E+005  0.1043930E+01  0.7957747E-01            NaN
         13   -1    0    0    0    0  0.00000000000E+00  0.00000000000E+00  0.74505805969E-08  0.10566000000E+00  0.10566000000E+00 0.  1.
     999900   -1    0    0    0    0 -0.00000000000E+00 -0.00000000000E+00 -0.74505805969E-08  0.93827000000E+00  0.93827000000E+00 0.  1.
     999902    2    1    2    0    0  0.13701059109E-01  0.13251684949E-01  0.13048877628E-01  0.10208302298E+01  0.10205688408E+01 0.  0.
     999903    2    3    3    0    0 -0.56211611897E-01  0.39057314978E-02 -0.11425623840E+00  0.12887635155E+00  0.19483991488E-01 0.  0.
         14    1    1    2    0    0 -0.13701059109E-01 -0.13251684949E-01 -0.13048877628E-01  0.23099770173E-01  0.00000000000E+00 0. -1.
     999901    1    3    3    0    0  0.69912671006E-01  0.93459534510E-02  0.12730511603E+00  0.89195387828E+00  0.88000000000E+00 0. -1.
        -11    1    4    4    0    0 -0.48586045741E-01 -0.38378016925E-02 -0.93163718978E-01  0.10514310352E+00  0.51100000000E-03 0. -1.
         11    1    4    4    0    0 -0.76255661564E-02  0.77435331903E-02 -0.21092519421E-01  0.23733248029E-01  0.51100000000E-03 0.  1.
</event>
<event>
 8    1  0.1076043E+005  0.1043930E+01  0.7957747E-01            NaN
         13   -1    0    0    0    0  0.00000000000E+00  0.00000000000E+00  0.74505805969E-08  0.10566000000E+00  0.10566000000E+00 0. -1.
     999900   -1    0    0    0    0 -0.00000000000E+00 -0.00000000000E+00 -0.74505805969E-08  0.93827000000E+00  0.93827000000E+00 0.  1.
     999902    2    1    2    0    0  0.98367019567E-02 -0.21614377607E-01 -0.33454388965E-02  0.10199480487E+01  0.10196660670E+01 0.  0.
     999903    2    3    3    0    0  0.25627863630E-01 -0.24259555996E-01  0.12416525796E+00  0.13061383959E+00  0.19941172365E-01 0.  0.
         14    1    1    2    0    0 -0.98367019567E-02  0.21614377607E-01  0.33454388965E-02  0.23981951258E-01  0.00000000000E+00 0. -1.
     999901    1    3    3    0    0 -0.15791161673E-01  0.26451783883E-02 -0.12751069686E+00  0.88933420915E+00  0.88000000000E+00 0.  1.
        -11    1    4    4    0    0  0.44896116307E-02 -0.17680856331E-01  0.50736255403E-01  0.53918438650E-01  0.51100000000E-03 0. -1.
         11    1    4    4    0    0  0.21138251999E-01 -0.65786996651E-02  0.73429002562E-01  0.76695400939E-01  0.51100000000E-03 0.  1.
</event>
<event>
 8    1  0.1076043E+005  0.1043930E+01  0.7957747E-01            NaN
         13   -1    0    0    0    0  0.00000000000E+00  0.00000000000E+00  0.74505805969E-08  0.10566000000E+00  0.10566000000E+00 0. -1.
     999900   -1    0    0    0    0 -0.00000000000E+00 -0.00000000000E+00 -0.74505805969E-08  0.93827000000E+00  0.93827000000E+00 0.  1.
     999902    2    1    2    0    0  0.33279030114E-02 -0.18946544880E-01 -0.11923400294E-01  0.10212978553E+01  0.10210470583E+01 0.  0.
     999903    2    3    3    0    0 -0.72977083244E-01 -0.62326693551E-02  0.10569717598E+00  0.13010837286E+00  0.19793807956E-01 0.  0.
         14    1    1    2    0    0 -0.33279030114E-02  0.18946544880E-01  0.11923400294E-01  0.22632144748E-01  0.00000000000E+00 0. -1.
     999901    1    3    3    0    0  0.76304986255E-01 -0.12713875525E-01 -0.11762057627E+00  0.89118948239E+00  0.88000000000E+00 0.  1.
        -11    1    4    4    0    0 -0.54075585884E-02 -0.12784882314E-03  0.20440512393E-01  0.21150264847E-01  0.51100000000E-03 0. -1.
         11    1    4    4    0    0 -0.67569524655E-01 -0.61048205320E-02  0.85256663584E-01  0.10895810802E+00  0.51100000000E-03 0.  1.
</event>
<event>
 8    1  0.1076043E+005  0.1043930E+01  0.7957747E-01            NaN
         13   -1    0    0    0    0  0.00000000000E+00  0.00000000000E+00  0.74505805969E-08  0.10566000000E+00  0.10566000000E+00 0.  1.
     999900   -1    0    0    0    0 -0.00000000000E+00 -0.00000000000E+00 -0.74505805969E-08  0.93827000000E+00  0.93827000000E+00 0.  1.
     999902    2    1    2    0    0  0.14891605574E-02  0.10109996450E-02  0.24335235514E-01  0.10195282909E+01  0.10192362300E+01 0.  0.
     999903    2    3    3    0    0 -0.24279226263E-01 -0.88563874433E-01 -0.86390566463E-01  0.12770551083E+00  0.20305832678E-01 0.  0.
         14    1    1    2    0    0 -0.14891605574E-02 -0.10109996450E-02 -0.24335235514E-01  0.24401709099E-01  0.00000000000E+00 0. -1.
     999901    1    3    3    0    0  0.25768386820E-01  0.89574874078E-01  0.11072580198E+00  0.89182278007E+00  0.88000000000E+00 0. -1.
        -11    1    4    4    0    0 -0.97966970964E-02 -0.25381545013E-01 -0.14240107020E-01  0.30712210441E-01  0.51100000000E-03 0.  1.
         11    1    4    4    0    0 -0.14482529167E-01 -0.63182329420E-01 -0.72150459443E-01  0.96993300391E-01  0.51100000000E-03 0. -1.
</event>
<event>
 8    1  0.1445162E+005  0.1043930E+01  0.7957747E-01            NaN
         13   -1    0    0    0    0  0.00000000000E+00  0.00000000000E+00  0.74505805969E-08  0.10566000000E+00  0.10566000000E+00 0. -1.
     999900   -1    0    0    0    0 -0.00000000000E+00 -0.00000000000E+00 -0.74505805969E-08  0.93827000000E+00  0.93827000000E+00 0. -1.
     999902    2    1    2    0    0  0.81177541490E-02 -0.48823608668E-02 -0.21948407591E-01  0.10200246036E+01  0.10197444405E+01 0.  0.
     999903    2    3    3    0    0  0.11515563441E+00  0.21493513640E-02  0.56978135438E-01  0.13000440611E+00  0.19728097778E-01 0.  0.
         14    1    1    2    0    0 -0.81177541490E-02  0.48823608668E-02  0.21948407591E-01  0.23905396375E-01  0.00000000000E+00 0. -1.
     999901    1    3    3    0    0 -0.10703788026E+00 -0.70317122308E-02 -0.78926543029E-01  0.89002019751E+00  0.88000000000E+00 0. -1.
        -11    1    4    4    0    0  0.76270898276E-01 -0.77961175237E-02  0.39073469714E-01  0.86052463815E-01  0.51100000000E-03 0. -1.
         11    1    4    4    0    0  0.38884736137E-01  0.99454688877E-02  0.17904665725E-01  0.43951942296E-01  0.51100000000E-03 0.  1.
</event>
<event>
 8    1  0.1076043E+005  0.1043930E+01  0.7957747E-01            NaN
         13   -1    0    0    0    0  0.00000000000E+00  0.00000000000E+00  0.74505805969E-08  0.10566000000E+00  0.10566000000E+00 0.  1.
     999900   -1    0    0    0    0 -0.00000000000E+00 -0.00000000000E+00 -0.74505805969E-08  0.93827000000E+00  0.93827000000E+00 0.  1.
     999902    2    1    2    0    0 -0.11082536005E-01 -0.11127341902E-01  0.58668683269E-02  0.10271651413E+01  0.10270283185E+01 0.  0.
     999903    2    3    3    0    0 -0.30422451531E-01  0.32379160464E-01 -0.12734351643E+00  0.13586729286E+00  0.16419942235E-01 0.  0.
         14    1    1    2    0    0  0.11082536005E-01  0.11127341902E-01 -0.58668683269E-02  0.16764858665E-01  0.00000000000E+00 0.  1.
     999901    1    3    3    0    0  0.19339915526E-01 -0.43506502366E-01  0.13321038476E+00  0.89129784847E+00  0.88000000000E+00 0. -1.
        -11    1    4    4    0    0 -0.24333072897E-01  0.26027834943E-01 -0.78154519694E-01  0.85894916602E-01  0.51100000000E-03 0.  1.
         11    1    4    4    0    0 -0.60893786334E-02  0.63513255205E-02 -0.49188996739E-01  0.49972376262E-01  0.51100000000E-03 0. -1.
</event>
<event>
 8    1  0.1076043E+005  0.1043930E+01  0.7957747E-01            NaN
         13   -1    0    0    0    0  0.00000000000E+00  0.00000000000E+00  0.74505805969E-08  0.10566000000E+00  0.10566000000E+00 0.  1.
     999900   -1    0    0    0    0 -0.00000000000E+00 -0.00000000000E+00 -0.74505805969E-08  0.93827000000E+00  0.93827000000E+00 0. -1.
     999902    2    1    2    0    0  0.20019730302E-01  0.95669770545E-02 -0.57742118261E-02  0.10210027635E+01  0.10207453085E+01 0.  0.
     999903    2    3    3    0    0  0.51786544831E-01  0.55959225023E-01 -0.10771268084E+00  0.13333569605E+00  0.19055317786E-01 0.  0.
         14    1    1    2    0    0 -0.20019730302E-01 -0.95669770545E-02  0.57742118261E-02  0.22927236501E-01  0.00000000000E+00 0.  1.
     999901    1    3    3    0    0 -0.31766814529E-01 -0.46392247969E-01  0.10193846901E+00  0.88766706745E+00  0.88000000000E+00 0.  1.
        -11    1    4    4    0    0  0.19051169765E-02  0.98083761109E-02 -0.20135611456E-01  0.22484165147E-01  0.51100000000E-03 0.  1.
         11    1    4    4    0    0  0.49881427855E-01  0.46150848912E-01 -0.87577069382E-01  0.11085153090E+00  0.51100000000E-03 0. -1.
</event>
<event>
 8    1  0.1076043E+005  0.1043930E+01  0.7957747E-01            NaN
         13   -1    0    0    0    0  0.00000000000E+00  0.00000000000E+00  0.74505805969E-08  0.10566000000E+00  0.10566000000E+00 0. -1.
     999900   -1    0    0    0    0 -0.00000000000E+00 -0.00000000000E+00 -0.74505805969E-08  0.93827000000E+00  0.93827000000E+00 0.  1.
     999902    2    1    2    0    0 -0.72538915830E-02  0.22129329104E-01  0.28726311536E-02  0.10204655980E+01  0.10201957943E+01 0.  0.
     999903    2    3    3    0    0  0.95608509192E-01  0.87367903758E-01 -0.14377971860E-01  0.13190815565E+00  0.20466993326E-01 0.  0.
         14    1    1    2    0    0  0.72538915830E-02 -0.22129329104E-01 -0.28726311536E-02  0.23464401962E-01  0.00000000000E+00 0.  1.
     999901    1    3    3    0    0 -0.10286240077E+00 -0.65238574654E-01  0.17250603014E-01  0.88855744239E+00  0.88000000000E+00 0. -1.
        -11    1    4    4    0    0  0.73129480828E-01  0.66099217283E-01 -0.19639717878E-01  0.10051371613E+00  0.51100000000E-03 0.  1.
         11    1    4    4    0    0  0.22479028363E-01  0.21268686475E-01  0.52617460176E-02  0.31394439518E-01  0.51100000000E-03 0. -1.
</event>
<event>
 8    1  0.1076043E+005  0.1043930E+01  0.7957747E-01            NaN
         13   -1    0    0    0    0  0.00000000000E+00  0.00000000000E+00  0.74505805969E-08  0.10566000000E+00  0.10566000000E+00 0. -1.
     999900   -1    0    0    0    0 -0.00000000000E+00 -0.00000000000E+00 -0.74505805969E-08  0.93827000000E+00  0.93827000000E+00 0. -1.
     999902    2    1    2    0    0  0.17995444021E-01 -0.13646454414E-01  0.64317219697E-02  0.10204474795E+01  0.10201772540E+01 0.  0.
     999903    2    3    3    0    0 -0.86623044598E-01  0.90356036063E-01  0.19270209787E-01  0.12807627141E+00  0.19089924143E-01 0.  0.
         14    1    1    2    0    0 -0.17995444021E-01  0.13646454414E-01 -0.64317219697E-02  0.23482520544E-01  0.00000000000E+00 0. -1.
     999901    1    3    3    0    0  0.10461848862E+00 -0.10400249048E+00 -0.12838487817E-01  0.89237120805E+00  0.88000000000E+00 0. -1.
        -11    1    4    4    0    0 -0.44115568399E-01  0.59520050782E-01  0.10363727677E-01  0.74809677132E-01  0.51100000000E-03 0. -1.
         11    1    4    4    0    0 -0.42507476198E-01  0.30835985281E-01  0.89064821101E-02  0.53266594274E-01  0.51100000000E-03 0.  1.
</event>
<event>
 8    1  0.1076043E+005  0.1043930E+01  0.7957747E-01            NaN
         13   -1    0    0    0    0  0.00000000000E+00  0.00000000000E+00  0.74505805969E-08  0.10566000000E+00  0.10566000000E+00 0. -1.
     999900   -1    0    0    0    0 -0.00000000000E+00 -0.00000000000E+00 -0.74505805969E-08  0.93827000000E+00  0.93827000000E+00 0. -1.
     999902    2    1    2    0    0 -0.11445307185E-01  0.20158968690E-01  0.42177795818E-02  0.10203679810E+01  0.10200959013E+01 0.  0.
     999903    2    3    3    0    0 -0.12413859954E+00 -0.93470273088E-02 -0.37434999796E-01  0.13171431619E+00  0.21201958968E-01 0.  0.
         14    1    1    2    0    0  0.11445307185E-01 -0.20158968690E-01 -0.42177795818E-02  0.23562019010E-01  0.00000000000E+00 0. -1.
     999901    1    3    3    0    0  0.11269329235E+00  0.29505995999E-01  0.41652779378E-01  0.88865366480E+00  0.88000000000E+00 0. -1.
        -11    1    4    4    0    0 -0.96235236466E-01 -0.74773565787E-02 -0.19468065779E-01  0.98470291486E-01  0.51100000000E-03 0.  1.
         11    1    4    4    0    0 -0.27903363070E-01 -0.18696707301E-02 -0.17966934017E-01  0.33244024700E-01  0.51100000000E-03 0. -1.
</event>
<event>
 8    1  0.1128927E+005  0.1043930E+01  0.7957747E-01            NaN
         13   -1    0    0    0    0  0.00000000000E+00  0.00000000000E+00  0.74505805969E-08  0.10566000000E+00  0.10566000000E+00 0. -1.
     999900   -1    0    0    0    0 -0.00000000000E+00 -0.00000000000E+00 -0.74505805969E-08  0.93827000000E+00  0.93827000000E+00 0. -1.
     999902    2    1    2    0    0 -0.20369373846E-01 -0.44705121942E-02 -0.70017892449E-02  0.10219317746E+01  0.10216949789E+01 0.  0.
     999903    2    3    3    0    0  0.25443632675E-01 -0.10332071374E+00  0.76236701160E-01  0.13131466255E+00  0.10438278789E-01 0.  0.
         14    1    1    2    0    0  0.20369373846E-01  0.44705121942E-02  0.70017892449E-02  0.21998225447E-01  0.00000000000E+00 0. -1.
     999901    1    3    3    0    0 -0.45813006522E-01  0.98850201549E-01 -0.83238490405E-01  0.89061711201E+00  0.88000000000E+00 0. -1.
        -11    1    4    4    0    0  0.22652917809E-01 -0.83231429476E-01  0.57268364947E-01  0.10354009988E+00  0.51100000000E-03 0. -1.
         11    1    4    4    0    0  0.27907148660E-02 -0.20089284267E-01  0.18968336213E-01  0.27774562670E-01  0.51100000000E-03 0.  1.
</event>
<event>
 8    1  0.1076043E+005  0.1043930E+01  0.7957747E-01            NaN
         13   -1    0    0    0    0  0.00000000000E+00  0.00000000000E+00  0.74505805969E-08  0.10566000000E+00  0.10566000000E+00 0. -1.
     999900   -1    0    0    0    0 -0.00000000000E+00 -0.00000000000E+00 -0.74505805969E-08  0.93827000000E+00  0.93827000000E+00 0. -1.
     999902    2    1    2    0    0 -0.20055941310E-01  0.23796582976E-02 -0.11188702708E-01  0.10208412446E+01  0.10205801077E+01 0.  0.
     999903    2    3    3    0    0  0.78551285872E-01 -0.98183628635E-01 -0.23523772659E-01  0.12955648999E+00  0.20522835442E-01 0.  0.
         14    1    1    2    0    0  0.20055941310E-01 -0.23796582976E-02  0.11188702708E-01  0.23088755353E-01  0.00000000000E+00 0.  1.
     999901    1    3    3    0    0 -0.98607227182E-01  0.10056328693E+00  0.12335069951E-01  0.89128475466E+00  0.88000000000E+00 0. -1.
        -11    1    4    4    0    0  0.44830189784E-01 -0.51307946672E-01 -0.22653124960E-01  0.71803039624E-01  0.51100000000E-03 0. -1.
         11    1    4    4    0    0  0.33721096088E-01 -0.46875681963E-01 -0.87064769878E-03  0.57753450367E-01  0.51100000000E-03 0.  1.
</event>
<event>
 8    1  0.1076043E+005  0.1043930E+01  0.7957747E-01            NaN
         13   -1    0    0    0    0  0.00000000000E+00  0.00000000000E+00  0.74505805969E-08  0.10566000000E+00  0.10566000000E+00 0.  1.
     999900   -1    0    0    0    0 -0.00000000000E+00 -0.00000000000E+00 -0.74505805969E-08  0.93827000000E+00  0.93827000000E+00 0.  1.
     999902    2    1    2    0    0 -0.15609508789E-01 -0.42712309114E-02 -0.12037609838E-01  0.10237606116E+01  0.10235619110E+01 0.  0.
     999903    2    3    3    0    0  0.39668467794E-01 -0.12190067572E+00  0.30809123912E-01  0.13318316770E+00  0.18846537147E-01 0.  0.
         14    1    1    2    0    0  0.15609508789E-01  0.42712309114E-02  0.12037609838E-01  0.20169388408E-01  0.00000000000E+00 0.  1.
     999901    1    3    3    0    0 -0.55277976583E-01  0.11762944481E+00 -0.42846733750E-01  0.89057744390E+00  0.88000000000E+00 0. -1.
        -11    1    4    4    0    0  0.15585836953E-01 -0.29919655813E-01  0.14447880436E-01  0.36702949303E-01  0.51100000000E-03 0.  1.
         11    1    4    4    0    0  0.24082630840E-01 -0.91981019912E-01  0.16361243476E-01  0.96480218394E-01  0.51100000000E-03 0. -1.
</event>
<event>
 8    1  0.1076043E+005  0.1043930E+01  0.7957747E-01            NaN
         13   -1    0    0    0    0  0.00000000000E+00  0.00000000000E+00  0.74505805969E-08  0.10566000000E+00  0.10566000000E+00 0.  1.
     999900   -1    0    0    0    0 -0.00000000000E+00 -0.00000000000E+00 -0.74505805969E-08  0.93827000000E+00  0.93827000000E+00 0. -1.
     999902    2    1    2    0    0 -0.21750170366E-02  0.15036914070E-01 -0.17073636170E-01  0.10210750545E+01  0.10208192388E+01 0.  0.
     999903    2    3    3    0    0 -0.12148758053E+00  0.35384598992E-01 -0.34027535092E-01  0.13262868535E+00  0.20522986239E-01 0.  0.
         14    1    1    2    0    0  0.21750170366E-02 -0.15036914070E-01  0.17073636170E-01  0.22854945546E-01  0.00000000000E+00 0.  1.
     999901    1    3    3    0    0  0.11931256349E+00 -0.20347684922E-01  0.16953898922E-01  0.88844636911E+00  0.88000000000E+00 0.  1.
        -11    1    4    4    0    0 -0.90916088839E-01  0.16955070424E-01 -0.25009851482E-01  0.95806906927E-01  0.51100000000E-03 0. -1.
         11    1    4    4    0    0 -0.30571491690E-01  0.18429528568E-01 -0.90176836103E-02  0.36821778421E-01  0.51100000000E-03 0.  1.
</event>
<event>
 8    1  0.1076043E+005  0.1043930E+01  0.7957747E-01            NaN
         13   -1    0    0    0    0  0.00000000000E+00  0.00000000000E+00  0.74505805969E-08  0.10566000000E+00  0.10566000000E+00 0.  1.
     999900   -1    0    0    0    0 -0.00000000000E+00 -0.00000000000E+00 -0.74505805969E-08  0.93827000000E+00  0.93827000000E+00 0.  1.
     999902    2    1    2    0    0 -0.30287838977E-02 -0.22768281103E-01 -0.79652368154E-02  0.10196192379E+01  0.10193293762E+01 0.  0.
     999903    2    3    3    0    0 -0.34151258631E-01 -0.65518500611E-01  0.10596926697E+00  0.13070008474E+00  0.19850547113E-01 0.  0.
         14    1    1    2    0    0  0.30287838977E-02  0.22768281103E-01  0.79652368154E-02  0.24310762098E-01  0.00000000000E+00 0.  1.
     999901    1    3    3    0    0  0.31122474733E-01  0.42750219508E-01 -0.11393450379E+00  0.88891915316E+00  0.88000000000E+00 0.  1.
        -11    1    4    4    0    0 -0.18183888525E-01 -0.15746726249E-01  0.29413116585E-01  0.38000075496E-01  0.51100000000E-03 0. -1.
         11    1    4    4    0    0 -0.15967370106E-01 -0.49771774362E-01  0.76556150386E-01  0.92700009246E-01  0.51100000000E-03 0.  1.
</event>
<event>
 8    1  0.1076043E+005  0.1043930E+01  0.7957747E-01            NaN
         13   -1    0    0    0    0  0.00000000000E+00  0.00000000000E+00  0.74505805969E-08  0.10566000000E+00  0.10566000000E+00 0.  1.
     999900   -1    0    0    0    0 -0.00000000000E+00 -0.00000000000E+00 -0.74505805969E-08  0.93827000000E+00  0.93827000000E+00 0. -1.
     999902    2    1    2    0    0  0.15219575127E-02  0.42959106979E-03 -0.24277749363E-01  0.10196007991E+01  0.10193104922E+01 0.  0.
     999903    2    3    3    0    0 -0.10611146758E+00 -0.67665393941E-01 -0.27399585914E-01  0.13042611037E+00  0.20542245946E-01 0.  0.
         14    1    1    2    0    0 -0.15219575127E-02 -0.42959106979E-03  0.24277749363E-01  0.24329200917E-01  0.00000000000E+00 0.  1.
     999901    1    3    3    0    0  0.10763342510E+00  0.68094985011E-01  0.31218365509E-02  0.88917468871E+00  0.88000000000E+00 0. -1.
        -11    1    4    4    0    0 -0.75812500608E-01 -0.36920748138E-01 -0.17008460640E-01  0.86024564781E-01  0.51100000000E-03 0.  1.
         11    1    4    4    0    0 -0.30298966976E-01 -0.30744645803E-01 -0.10391125274E-01  0.44401545590E-01  0.51100000000E-03 0. -1.
</event>
<event>
 8    1  0.1076043E+005  0.1043930E+01  0.7957747E-01            NaN
         13   -1    0    0    0    0  0.00000000000E+00  0.00000000000E+00  0.74505805969E-08  0.10566000000E+00  0.10566000000E+00 0. -1.
     999900   -1    0    0    0    0 -0.00000000000E+00 -0.00000000000E+00 -0.74505805969E-08  0.93827000000E+00  0.93827000000E+00 0.  1.
     999902    2    1    2    0    0 -0.22262608914E-01  0.24750909300E-02  0.65928646946E-02  0.10205801457E+01  0.10203130001E+01 0.  0.
     999903    2    3    3    0    0 -0.12868113652E-01  0.44112217140E-02  0.12991182488E+00  0.13192972451E+00  0.18528970263E-01 0.  0.
         14    1    1    2    0    0  0.22262608914E-01 -0.24750909300E-02 -0.65928646946E-02  0.23349854296E-01  0.00000000000E+00 0.  1.
     999901    1    3    3    0    0 -0.93944952623E-02 -0.19361307840E-02 -0.12331896019E+00  0.88865042119E+00  0.88000000000E+00 0.  1.
        -11    1    4    4    0    0 -0.33911038411E-03 -0.63915969750E-02  0.34260822988E-01  0.34857318035E-01  0.51100000000E-03 0.  1.
         11    1    4    4    0    0 -0.12529003268E-01  0.10802818689E-01  0.95651001896E-01  0.97072406477E-01  0.51100000000E-03 0. -1.
</event>
<event>
 8    1  0.1076043E+005  0.1043930E+01  0.7957747E-01            NaN
         13   -1    0    0    0    0  0.00000000000E+00  0.00000000000E+00  0.74505805969E-08  0.10566000000E+00  0.10566000000E+00 0. -1.
     999900   -1    0    0    0    0 -0.00000000000E+00 -0.00000000000E+00 -0.74505805969E-08  0.93827000000E+00  0.93827000000E+00 0. -1.
     999902    2    1    2    0    0  0.24653191333E-02  0.22864801154E-01  0.40357551140E-02  0.10205812474E+01  0.10203141272E+01 0.  0.
     999903    2    3    3    0    0 -0.65694814242E-01 -0.10296655565E+00 -0.33671462071E-01  0.12822416168E+00  0.19742038416E-01 0.  0.
         14    1    1    2    0    0 -0.24653191333E-02 -0.22864801154E-01 -0.40357551140E-02  0.23348752634E-01  0.00000000000E+00 0.  1.
     999901    1    3    3    0    0  0.68160133375E-01  0.12583135681E+00  0.37707217185E-01  0.89235708568E+00  0.88000000000E+00 0.  1.
        -11    1    4    4    0    0 -0.13418606549E-01 -0.22750734513E-01 -0.15921670097E-01  0.30845025892E-01  0.51100000000E-03 0. -1.
         11    1    4    4    0    0 -0.52276207693E-01 -0.80215821138E-01 -0.17749791974E-01  0.97379135793E-01  0.51100000000E-03 0.  1.
</event>
<event>
 8    1  0.1076043E+005  0.1043930E+01  0.7957747E-01            NaN
         13   -1    0    0    0    0  0.00000000000E+00  0.00000000000E+00  0.74505805969E-08  0.10566000000E+00  0.10566000000E+00 0. -1.
     999900   -1    0    0    0    0 -0.00000000000E+00 -0.00000000000E+00 -0.74505805969E-08  0.93827000000E+00  0.93827000000E+00 0.  1.
     999902    2    1    2    0    0  0.12293193320E-01  0.19566763120E-01 -0.97984386906E-02  0.10188303940E+01  0.10185211738E+01 0.  0.
     999903    2    3    3    0    0 -0.46725415322E-01  0.54822582861E-01  0.10484846977E+00  0.12873484709E+00  0.19765606832E-01 0.  0.
         14    1    1    2    0    0 -0.12293193320E-01 -0.19566763120E-01  0.97984386906E-02  0.25099606009E-01  0.00000000000E+00 0. -1.
     999901    1    3    3    0    0  0.59018608642E-01 -0.35255819741E-01 -0.11464690846E+00  0.89009554690E+00  0.88000000000E+00 0.  1.
        -11    1    4    4    0    0 -0.19383798674E-01  0.11571620961E-01  0.23188384812E-01  0.32366593486E-01  0.51100000000E-03 0.  1.
         11    1    4    4    0    0 -0.27341616648E-01  0.43250961900E-01  0.81660084960E-01  0.96368253605E-01  0.51100000000E-03 0. -1.
</event>
<event>
 8    1  0.1076043E+005  0.1043930E+01  0.7957747E-01            NaN
         13   -1    0    0    0    0  0.00000000000E+00  0.00000000000E+00  0.74505805969E-08  0.10566000000E+00  0.10566000000E+00 0.  1.
     999900   -1    0    0    0    0 -0.00000000000E+00 -0.00000000000E+00 -0.74505805969E-08  0.93827000000E+00  0.93827000000E+00 0.  1.
     999902    2    1    2    0    0  0.45904719880E-02  0.83490233516E-02 -0.21447345776E-01  0.10204615688E+01  0.10201916712E+01 0.  0.
     999903    2    3    3    0    0  0.71258527793E-01 -0.39263983633E-01 -0.10307695031E+00  0.13289465836E+00  0.20413092413E-01 0.  0.
         14    1    1    2    0    0 -0.45904719880E-02 -0.83490233516E-02  0.21447345776E-01  0.23468431239E-01  0.00000000000E+00 0.  1.
     999901    1    3    3    0    0 -0.66668055805E-01  0.47613006985E-01  0.81629604534E-01  0.88756691040E+00  0.88000000000E+00 0.  1.
        -11    1    4    4    0    0  0.63090573577E-01 -0.32602084287E-01 -0.76930395911E-01  0.10469891743E+00  0.51100000000E-03 0.  1.
         11    1    4    4    0    0  0.81679542164E-02 -0.66618993463E-02 -0.26146554399E-01  0.28195740936E-01  0.51100000000E-03 0. -1.
</event>
<event>
 8    1  0.1076043E+005  0.1043930E+01  0.7957747E-01            NaN
         13   -1    0    0    0    0  0.00000000000E+00  0.00000000000E+00  0.74505805969E-08  0.10566000000E+00  0.10566000000E+00 0. -1.
     999900   -1    0    0    0    0 -0.00000000000E+00 -0.00000000000E+00 -0.74505805969E-08  0.93827000000E+00  0.93827000000E+00 0. -1.
     999902    2    1    2    0    0  0.20316882579E-01 -0.52861434756E-02  0.12143329546E-01  0.10196775881E+01  0.10193891329E+01 0.  0.
     999903    2    3    3    0    0 -0.69315948097E-01  0.87495848105E-01  0.61025076036E-01  0.12892960610E+00  0.20941808120E-01 0.  0.
         14    1    1    2    0    0 -0.20316882579E-01  0.52861434756E-02 -0.12143329546E-01  0.24252411902E-01  0.00000000000E+00 0.  1.
     999901    1    3    3    0    0  0.89632830677E-01 -0.92781991581E-01 -0.48881746489E-01  0.89074798200E+00  0.88000000000E+00 0. -1.
        -11    1    4    4    0    0 -0.20358454775E-01  0.34841013773E-01  0.31537959597E-01  0.51217838085E-01  0.51100000000E-03 0.  1.
         11    1    4    4    0    0 -0.48957493322E-01  0.52654834332E-01  0.29487116439E-01  0.77711768014E-01  0.51100000000E-03 0. -1.
</event>
<event>
 8    1  0.1076043E+005  0.1043930E+01  0.7957747E-01            NaN
         13   -1    0    0    0    0  0.00000000000E+00  0.00000000000E+00  0.74505805969E-08  0.10566000000E+00  0.10566000000E+00 0. -1.
     999900   -1    0    0    0    0 -0.00000000000E+00 -0.00000000000E+00 -0.74505805969E-08  0.93827000000E+00  0.93827000000E+00 0.  1.
     999902    2    1    2    0    0  0.23330482524E-01  0.69094629797E-03  0.25112281080E-02  0.10204545855E+01  0.10201845254E+01 0.  0.
     999903    2    3    3    0    0 -0.35056710404E-01 -0.39230264967E-01 -0.11683234513E+00  0.12958666265E+00  0.19362841601E-01 0.  0.
         14    1    1    2    0    0 -0.23330482524E-01 -0.69094629797E-03 -0.25112281080E-02  0.23475414548E-01  0.00000000000E+00 0.  1.
     999901    1    3    3    0    0  0.58387192928E-01  0.39921211265E-01  0.11934357324E+00  0.89086792280E+00  0.88000000000E+00 0. -1.
        -11    1    4    4    0    0 -0.13817699846E-01 -0.27607997146E-01 -0.53331845428E-01  0.61625296698E-01  0.51100000000E-03 0.  1.
         11    1    4    4    0    0 -0.21239010558E-01 -0.11622267821E-01 -0.63500499700E-01  0.67961365951E-01  0.51100000000E-03 0. -1.
</event>
<event>
 8    1  0.1076043E+005  0.1043930E+01  0.7957747E-01            NaN
         13   -1    0    0    0    0  0.00000000000E+00  0.00000000000E+00  0.74505805969E-08  0.10566000000E+00  0.10566000000E+00 0.  1.
     999900   -1    0    0    0    0 -0.00000000000E+00 -0.00000000000E+00 -0.74505805969E-08  0.93827000000E+00  0.93827000000E+00 0. -1.
     999902    2    1    2    0    0 -0.13421772168E-01  0.14896577871E-01  0.12569485273E-01  0.10202647521E+01  0.10199902550E+01 0.  0.
     999903    2    3    3    0    0 -0.59506062040E-02  0.19879055354E-01 -0.12612723849E+00  0.12935654994E+00  0.19860769557E-01 0.  0.
         14    1    1    2    0    0  0.13421772168E-01 -0.14896577871E-01 -0.12569485273E-01  0.23665247948E-01  0.00000000000E+00 0.  1.
     999901    1    3    3    0    0 -0.74711659638E-02 -0.49824774831E-02  0.13869672377E+00  0.89090820211E+00  0.88000000000E+00 0.  1.
        -11    1    4    4    0    0  0.26744121303E-02  0.31325505702E-02 -0.70541957092E-01  0.70663952512E-01  0.51100000000E-03 0.  1.
         11    1    4    4    0    0 -0.86250183343E-02  0.16746504784E-01 -0.55585281401E-01  0.58692597430E-01  0.51100000000E-03 0. -1.
</event>
<event>
 7    1  0.1076043E+005  0.1043930E+01  0.7957747E-01            NaN
         13   -1    0    0    0    0  0.00000000000E+00  0.00000000000E+00  0.74505805969E-08  0.10566000000E+00  0.10566000000E+00 0.  1.
     999900   -1    0    0    0    0 -0.00000000000E+00 -0.00000000000E+00 -0.74505805969E-08  0.93827000000E+00  0.93827000000E+00 0.  1.
     999902    2    1    2    0    0  0.16145270973E-01  0.15685841185E-01  0.59242335560E-02  0.10206531460E+01  0.10203876874E+01 0.  0.
         14    1    1    2    0    0 -0.16145270973E-01 -0.15685841185E-01 -0.59242335560E-02  0.23276853990E-01  0.00000000000E+00 0. -1.
     999901    1    3    3    0    0  0.56109846614E-01 -0.10448719768E-01  0.11023224961E+00  0.88871178651E+00  0.88000000000E+00 0. -1.
        -11    1    3    3    0    0  0.13982199113E-01  0.16292632601E-01 -0.51548134602E-01  0.55842842613E-01  0.51100000000E-03 0. -1.
         11    1    3    3    0    0 -0.53946774754E-01  0.98419283519E-02 -0.52759881453E-01  0.76098516884E-01  0.51100000000E-03 0.  1.
</event>
<event>
 8    1  0.1076043E+005  0.1043930E+01  0.7957747E-01            NaN
         13   -1    0    0    0    0  0.00000000000E+00  0.00000000000E+00  0.74505805969E-08  0.10566000000E+00  0.10566000000E+00 0.  1.
     999900   -1    0    0    0    0 -0.00000000000E+00 -0.00000000000E+00 -0.74505805969E-08  0.93827000000E+00  0.93827000000E+00 0.  1.
     999902    2    1    2    0    0  0.81969780832E-02  0.19146604896E-01 -0.11467526640E-01  0.10201542330E+01  0.10198771358E+01 0.  0.
     999903    2    3    3    0    0 -0.78458963495E-01  0.83401021086E-01  0.60101528588E-01  0.13068247299E+00  0.18819557287E-01 0.  0.
         14    1    1    2    0    0 -0.81969780832E-02 -0.19146604896E-01  0.11467526640E-01  0.23775766991E-01  0.00000000000E+00 0.  1.
     999901    1    3    3    0    0  0.86655941578E-01 -0.64254416190E-01 -0.71569055228E-01  0.88947176002E+00  0.88000000000E+00 0.  1.
        -11    1    4    4    0    0 -0.46690698294E-01  0.47027274931E-01  0.44904532300E-01  0.80051633567E-01  0.51100000000E-03 0.  1.
         11    1    4    4    0    0 -0.31768265201E-01  0.36373746156E-01  0.15196996288E-01  0.50630839421E-01  0.51100000000E-03 0. -1.
</event>
<event>
 8    1  0.1076043E+005  0.1043930E+01  0.7957747E-01            NaN
         13   -1    0    0    0    0  0.00000000000E+00  0.00000000000E+00  0.74505805969E-08  0.10566000000E+00  0.10566000000E+00 0. -1.
     999900   -1    0    0    0    0 -0.00000000000E+00 -0.00000000000E+00 -0.74505805969E-08  0.93827000000E+00  0.93827000000E+00 0. -1.
     999902    2    1    2    0    0 -0.78931393734E-02 -0.25989321164E-01  0.56799731202E-02  0.10161809719E+01  0.10158020275E+01 0.  0.
     999903    2    3    3    0    0  0.20368620760E-01  0.11177920205E+00 -0.44175051929E-01  0.12362037646E+00  0.20520515148E-01 0.  0.
         14    1    1    2    0    0  0.78931393734E-02  0.25989321164E-01 -0.56799731202E-02  0.27749028062E-01  0.00000000000E+00 0.  1.
     999901    1    3    3    0    0 -0.28261760133E-01 -0.13776852321E+00  0.49855025049E-01  0.89256059548E+00  0.88000000000E+00 0.  1.
        -11    1    4    4    0    0  0.94906848137E-02  0.41344440508E-01 -0.27073659374E-01  0.50325739061E-01  0.51100000000E-03 0.  1.
         11    1    4    4    0    0  0.10877935946E-01  0.70434761538E-01 -0.17101392554E-01  0.73294637401E-01  0.51100000000E-03 0. -1.
</event>
<event>
 8    1  0.1076043E+005  0.1043930E+01  0.7957747E-01            NaN
         13   -1    0    0    0    0  0.00000000000E+00  0.00000000000E+00  0.74505805969E-08  0.10566000000E+00  0.10566000000E+00 0.  1.
     999900   -1    0    0    0    0 -0.00000000000E+00 -0.00000000000E+00 -0.74505805969E-08  0.93827000000E+00  0.93827000000E+00 0. -1.
     999902    2    1    2    0    0 -0.62444776471E-02  0.16498860178E-01  0.16425780076E-01  0.10198258066E+01  0.10195409083E+01 0.  0.
     999903    2    3    3    0    0  0.50237754214E-01  0.66747767252E-01  0.10094572836E+00  0.13254974086E+00  0.20007432269E-01 0.  0.
         14    1    1    2    0    0  0.62444776471E-02 -0.16498860178E-01 -0.16425780076E-01  0.24104193398E-01  0.00000000000E+00 0. -1.
     999901    1    3    3    0    0 -0.56482231861E-01 -0.50248907074E-01 -0.84519948287E-01  0.88727606574E+00  0.88000000000E+00 0. -1.
        -11    1    4    4    0    0  0.27831291920E-01  0.47896720952E-01  0.54996793073E-01  0.78061418494E-01  0.51100000000E-03 0.  1.
         11    1    4    4    0    0  0.22406462294E-01  0.18851046300E-01  0.45948935290E-01  0.54488322368E-01  0.51100000000E-03 0. -1.
</event>
<event>
 8    1  0.1076043E+005  0.1043930E+01  0.7957747E-01            NaN
         13   -1    0    0    0    0  0.00000000000E+00  0.00000000000E+00  0.74505805969E-08  0.10566000000E+00  0.10566000000E+00 0. -1.
     999900   -1    0    0    0    0 -0.00000000000E+00 -0.00000000000E+00 -0.74505805969E-08  0.93827000000E+00  0.93827000000E+00 0.  1.
     999902    2    1    2    0    0 -0.36019862671E-02  0.41290843763E-02  0.22429833970E-01  0.10208405848E+01  0.10205794327E+01 0.  0.
     999903    2    3    3    0    0  0.52659338454E-01  0.45490655514E-01 -0.10661107144E+00  0.12869279911E+00  0.18801870183E-01 0.  0.
         14    1    1    2    0    0  0.36019862671E-02 -0.41290843763E-02 -0.22429833970E-01  0.23089415211E-01  0.00000000000E+00 0.  1.
     999901    1    3    3    0    0 -0.56261324721E-01 -0.41361571138E-01  0.12904090541E+00  0.89214778568E+00  0.88000000000E+00 0. -1.
        -11    1    4    4    0    0  0.22632727362E-01  0.31788835296E-01 -0.60082103178E-01  0.71644194744E-01  0.51100000000E-03 0.  1.
         11    1    4    4    0    0  0.30026611091E-01  0.13701820219E-01 -0.46528968265E-01  0.57048604363E-01  0.51100000000E-03 0. -1.
</event>
<event>
 8    1  0.1212893E+005  0.1043930E+01  0.7957747E-01            NaN
         13   -1    0    0    0    0  0.00000000000E+00  0.00000000000E+00  0.74505805969E-08  0.10566000000E+00  0.10566000000E+00 0.  1.
     999900   -1    0    0    0    0 -0.00000000000E+00 -0.00000000000E+00 -0.74505805969E-08  0.93827000000E+00  0.93827000000E+00 0.  1.
     999902    2    1    2    0    0 -0.13140114707E-01  0.31966579052E-02 -0.18237935850E-01  0.10212252970E+01  0.10209728711E+01 0.  0.
     999903    2    3    3    0    0  0.12617972791E+00  0.20827117762E-01  0.79449513892E-02  0.12970614671E+00  0.20136277555E-01 0.  0.
         14    1    1    2    0    0  0.13140114707E-01 -0.31966579052E-02  0.18237935850E-01  0.22704703045E-01  0.00000000000E+00 0.  1.
     999901    1    3    3    0    0 -0.13931984261E+00 -0.17630459856E-01 -0.26182887240E-01  0.89151915024E+00  0.88000000000E+00 0. -1.
        -11    1    4    4    0    0  0.69459614413E-01  0.40369129570E-02  0.11139173761E-01  0.70464721767E-01  0.51100000000E-03 0. -1.
         11    1    4    4    0    0  0.56720113496E-01  0.16790204805E-01 -0.31942223718E-02  0.59241424948E-01  0.51100000000E-03 0.  1.
</event>
<event>
 8    1  0.1076043E+005  0.1043930E+01  0.7957747E-01            NaN
         13   -1    0    0    0    0  0.00000000000E+00  0.00000000000E+00  0.74505805969E-08  0.10566000000E+00  0.10566000000E+00 0. -1.
     999900   -1    0    0    0    0 -0.00000000000E+00 -0.00000000000E+00 -0.74505805969E-08  0.93827000000E+00  0.93827000000E+00 0.  1.
     999902    2    1    2    0    0  0.15003772774E-01 -0.17341291334E-01 -0.17365129027E-02  0.10209332815E+01  0.10206742459E+01 0.  0.
     999903    2    3    3    0    0 -0.23647171396E-01  0.79948878422E-01  0.96616977956E-01  0.12928722970E+00  0.20720411610E-01 0.  0.
         14    1    1    2    0    0 -0.15003772774E-01  0.17341291334E-01  0.17365129027E-02  0.22996718453E-01  0.00000000000E+00 0. -1.
     999901    1    3    3    0    0  0.38650944169E-01 -0.97290169756E-01 -0.98353490859E-01  0.89164605185E+00  0.88000000000E+00 0. -1.
        -11    1    4    4    0    0 -0.41412261620E-02  0.49774778676E-01  0.57757652168E-01  0.76360237370E-01  0.51100000000E-03 0. -1.
         11    1    4    4    0    0 -0.19505945234E-01  0.30174099746E-01  0.38859325788E-01  0.52926992326E-01  0.51100000000E-03 0.  1.
</event>
<event>
 8    1  0.1076043E+005  0.1043930E+01  0.7957747E-01            NaN
         13   -1    0    0    0    0  0.00000000000E+00  0.00000000000E+00  0.74505805969E-08  0.10566000000E+00  0.10566000000E+00 0.  1.
     999900   -1    0    0    0    0 -0.00000000000E+00 -0.00000000000E+00 -0.74505805969E-08  0.93827000000E+00  0.93827000000E+00 0.  1.
     999902    2    1    2    0    0  0.32918956463E-02 -0.10311177830E-01 -0.20878509520E-01  0.10204125783E+01  0.10201415396E+01 0.  0.
     999903    2    3    3    0    0  0.12361632371E+00 -0.37678199029E-01  0.15720340207E-01  0.13104966155E+00  0.15041360482E-01 0.  0.
         14    1    1    2    0    0 -0.32918956463E-02  0.10311177830E-01  0.20878509520E-01  0.23517421733E-01  0.00000000000E+00 0.  1.
     999901    1    3    3    0    0 -0.12032442806E+00  0.27367021199E-01 -0.36598849727E-01  0.88936291672E+00  0.88000000000E+00 0.  1.
        -11    1    4    4    0    0  0.93173728828E-01 -0.33343478692E-01  0.76631590572E-02  0.99257828119E-01  0.51100000000E-03 0.  1.
         11    1    4    4    0    0  0.30442594882E-01 -0.43347203372E-02  0.80571811503E-02  0.31791833427E-01  0.51100000000E-03 0. -1.
</event>
<event>
 8    1  0.1076043E+005  0.1043930E+01  0.7957747E-01            NaN
         13   -1    0    0    0    0  0.00000000000E+00  0.00000000000E+00  0.74505805969E-08  0.10566000000E+00  0.10566000000E+00 0. -1.
     999900   -1    0    0    0    0 -0.00000000000E+00 -0.00000000000E+00 -0.74505805969E-08  0.93827000000E+00  0.93827000000E+00 0.  1.
     999902    2    1    2    0    0  0.64396949307E-03  0.21923723725E-01 -0.61179102348E-02  0.10211595546E+01  0.10209056483E+01 0.  0.
     999903    2    3    3    0    0  0.47527557566E-01  0.10994912359E+00 -0.56871429757E-01  0.13407305283E+00  0.19837980422E-01 0.  0.
         14    1    1    2    0    0 -0.64396949307E-03 -0.21923723725E-01  0.61179102348E-02  0.22770445413E-01  0.00000000000E+00 0. -1.
     999901    1    3    3    0    0 -0.46883588073E-01 -0.88025399863E-01  0.50753519522E-01  0.88708650175E+00  0.88000000000E+00 0. -1.
        -11    1    4    4    0    0  0.16064739828E-02  0.10450173905E-01 -0.11023890528E-01  0.15283133732E-01  0.51100000000E-03 0.  1.
         11    1    4    4    0    0  0.45921083583E-01  0.99498949683E-01 -0.45847539229E-01  0.11878991910E+00  0.51100000000E-03 0. -1.
</event>
<event>
 8    1  0.1076043E+005  0.1043930E+01  0.7957747E-01            NaN
         13   -1    0    0    0    0  0.00000000000E+00  0.00000000000E+00  0.74505805969E-08  0.10566000000E+00  0.10566000000E+00 0. -1.
     999900   -1    0    0    0    0 -0.00000000000E+00 -0.00000000000E+00 -0.74505805969E-08  0.93827000000E+00  0.93827000000E+00 0.  1.
     999902    2    1    2    0    0 -0.15818800963E-01 -0.10933042676E-01  0.14472339177E-01  0.10198631247E+01  0.10195791184E+01 0.  0.
     999903    2    3    3    0    0  0.37896676165E-01  0.10832315182E+00 -0.49679570230E-01  0.12788618559E+00  0.26772252072E-01 0.  0.
         14    1    1    2    0    0  0.15818800963E-01  0.10933042676E-01 -0.14472339177E-01  0.24066875313E-01  0.00000000000E+00 0.  1.
     999901    1    3    3    0    0 -0.53715477128E-01 -0.11925619450E+00  0.64151909406E-01  0.89197693910E+00  0.88000000000E+00 0. -1.
        -11    1    4    4    0    0  0.66715169261E-02  0.39345896613E-01 -0.29187610303E-01  0.49444781672E-01  0.51100000000E-03 0.  1.
         11    1    4    4    0    0  0.31225159239E-01  0.68977255207E-01 -0.20491959926E-01  0.78441403914E-01  0.51100000000E-03 0. -1.
</event>
<event>
 8    1  0.1076043E+005  0.1043930E+01  0.7957747E-01            NaN
         13   -1    0    0    0    0  0.00000000000E+00  0.00000000000E+00  0.74505805969E-08  0.10566000000E+00  0.10566000000E+00 0.  1.
     999900   -1    0    0    0    0 -0.00000000000E+00 -0.00000000000E+00 -0.74505805969E-08  0.93827000000E+00  0.93827000000E+00 0.  1.
     999902    2    1    2    0    0  0.79878753506E-03  0.18080126581E-01 -0.15791967393E-01  0.10199109394E+01  0.10196280739E+01 0.  0.
     999903    2    3    3    0    0  0.69729944613E-01  0.61521725565E-01 -0.92659770511E-01  0.13281041741E+00  0.20139166023E-01 0.  0.
         14    1    1    2    0    0 -0.79878753506E-03 -0.18080126581E-01  0.15791967393E-01  0.24019060616E-01  0.00000000000E+00 0. -1.
     999901    1    3    3    0    0 -0.68931157078E-01 -0.43441598984E-01  0.76867803118E-01  0.88710052198E+00  0.88000000000E+00 0.  1.
        -11    1    4    4    0    0  0.29566675896E-01  0.33764610927E-01 -0.55934086485E-01  0.71715552194E-01  0.51100000000E-03 0. -1.
         11    1    4    4    0    0  0.40163268717E-01  0.27757114638E-01 -0.36725684027E-01  0.61094865212E-01  0.51100000000E-03 0.  1.
</event>
<event>
 8    1  0.1076043E+005  0.1043930E+01  0.7957747E-01            NaN
         13   -1    0    0    0    0  0.00000000000E+00  0.00000000000E+00  0.74505805969E-08  0.10566000000E+00  0.10566000000E+00 0.  1.
     999900   -1    0    0    0    0 -0.00000000000E+00 -0.00000000000E+00 -0.74505805969E-08  0.93827000000E+00  0.93827000000E+00 0. -1.
     999902    2    1    2    0    0 -0.86019885545E-02 -0.22532901298E-01 -0.24761035571E-02  0.10196842388E+01  0.10193959436E+01 0.  0.
     999903    2    3    3    0    0  0.11547607910E+00  0.72795693607E-02 -0.52786077639E-01  0.12905791772E+00  0.21951290615E-01 0.  0.
         14    1    1    2    0    0  0.86019885545E-02  0.22532901298E-01  0.24761035571E-02  0.24245761213E-01  0.00000000000E+00 0. -1.
     999901    1    3    3    0    0 -0.12407806766E+00 -0.29812470658E-01  0.50309974082E-01  0.89062632106E+00  0.88000000000E+00 0.  1.
        -11    1    4    4    0    0  0.80361282615E-01 -0.78485098526E-03 -0.27121468534E-01  0.84819731850E-01  0.51100000000E-03 0. -1.
         11    1    4    4    0    0  0.35114796486E-01  0.80644203459E-02 -0.25664609106E-01  0.44238185873E-01  0.51100000000E-03 0.  1.
</event>
<event>
 8    1  0.1076043E+005  0.1043930E+01  0.7957747E-01            NaN
         13   -1    0    0    0    0  0.00000000000E+00  0.00000000000E+00  0.74505805969E-08  0.10566000000E+00  0.10566000000E+00 0. -1.
     999900   -1    0    0    0    0 -0.00000000000E+00 -0.00000000000E+00 -0.74505805969E-08  0.93827000000E+00  0.93827000000E+00 0.  1.
     999902    2    1    2    0    0 -0.23851680715E-01  0.10434647181E-01 -0.17204276562E-01  0.10127246853E+01  0.10122438029E+01 0.  0.
     999903    2    3    3    0    0  0.39112397475E-01  0.76369187321E-01  0.84643323339E-01  0.12217161424E+00  0.19984462288E-01 0.  0.
         14    1    1    2    0    0  0.23851680715E-01 -0.10434647181E-01  0.17204276562E-01  0.31205314720E-01  0.00000000000E+00 0.  1.
     999901    1    3    3    0    0 -0.62964078191E-01 -0.65934540140E-01 -0.10184759990E+00  0.89055307104E+00  0.88000000000E+00 0.  1.
        -11    1    4    4    0    0  0.26766123228E-01  0.67802703778E-01  0.67233233903E-01  0.99167539317E-01  0.51100000000E-03 0.  1.
         11    1    4    4    0    0  0.12346274247E-01  0.85664835433E-02  0.17410089436E-01  0.23004074927E-01  0.51100000000E-03 0. -1.
</event>
<event>
 8    1  0.1076043E+005  0.1043930E+01  0.7957747E-01            NaN
         13   -1    0    0    0    0  0.00000000000E+00  0.00000000000E+00  0.74505805969E-08  0.10566000000E+00  0.10566000000E+00 0. -1.
     999900   -1    0    0    0    0 -0.00000000000E+00 -0.00000000000E+00 -0.74505805969E-08  0.93827000000E+00  0.93827000000E+00 0.  1.
     999902    2    1    2    0    0 -0.10498521537E-01 -0.17656985787E-01 -0.11068022024E-01  0.10205957074E+01  0.10203289218E+01 0.  0.
     999903    2    3    3    0    0 -0.10457217842E-01  0.12689345003E+00  0.48400388006E-02  0.12866079011E+00  0.17856983827E-01 0.  0.
         14    1    1    2    0    0  0.10498521537E-01  0.17656985787E-01  0.11068022024E-01  0.23334292642E-01  0.00000000000E+00 0.  1.
     999901    1    3    3    0    0 -0.41303694911E-04 -0.14455043582E+00 -0.15908060825E-01  0.89193491724E+00  0.88000000000E+00 0. -1.
        -11    1    4    4    0    0 -0.33896972124E-02  0.11161922918E+00  0.28770263535E-02  0.11170891089E+00  0.51100000000E-03 0.  1.
         11    1    4    4    0    0 -0.70675206298E-02  0.15274220851E-01  0.19630124470E-02  0.16951879227E-01  0.51100000000E-03 0. -1.
</event>
<event>
 8    1  0.1076043E+005  0.1043930E+01  0.7957747E-01            NaN
         13   -1    0    0    0    0  0.00000000000E+00  0.00000000000E+00  0.74505805969E-08  0.10566000000E+00  0.10566000000E+00 0. -1.
     999900   -1    0    0    0    0 -0.00000000000E+00 -0.00000000000E+00 -0.74505805969E-08  0.93827000000E+00  0.93827000000E+00 0. -1.
     999902    2    1    2    0    0 -0.20082915597E-02 -0.26676714801E-01 -0.60577323072E-02  0.10165005183E+01  0.10161303692E+01 0.  0.
     999903    2    3    3    0    0 -0.66089456679E-01  0.68280992697E-01 -0.80153126032E-01  0.12598746990E+00  0.20450151869E-01 0.  0.
         14    1    1    2    0    0  0.20082915597E-02  0.26676714801E-01  0.60577323072E-02  0.27429481735E-01  0.00000000000E+00 0. -1.
     999901    1    3    3    0    0  0.64081165119E-01 -0.94957707498E-01  0.74095393724E-01  0.89051304836E+00  0.88000000000E+00 0.  1.
        -11    1    4    4    0    0 -0.16528133953E-01  0.30495585432E-01 -0.24952986334E-01  0.42732570608E-01  0.51100000000E-03 0.  1.
         11    1    4    4    0    0 -0.49561322726E-01  0.37785407266E-01 -0.55200139697E-01  0.83254899292E-01  0.51100000000E-03 0. -1.
</event>
<event>
 8    1  0.1076043E+005  0.1043930E+01  0.7957747E-01            NaN
         13   -1    0    0    0    0  0.00000000000E+00  0.00000000000E+00  0.74505805969E-08  0.10566000000E+00  0.10566000000E+00 0. -1.
     999900   -1    0    0    0    0 -0.00000000000E+00 -0.00000000000E+00 -0.74505805969E-08  0.93827000000E+00  0.93827000000E+00 0.  1.
     999902    2    1    2    0    0  0.16391012905E-01  0.14518803632E-01  0.90010519769E-02  0.10202555433E+01  0.10199808301E+01 0.  0.
     999903    2    3    3    0    0  0.96486023979E-01  0.72738118771E-02 -0.85620583836E-01  0.13153682815E+00  0.24669649806E-01 0.  0.
         14    1    1    2    0    0 -0.16391012905E-01 -0.14518803632E-01 -0.90010519769E-02  0.23674456691E-01  0.00000000000E+00 0.  1.
     999901    1    3    3    0    0 -0.80095011074E-01  0.72449917545E-02  0.94621635813E-01  0.88871871516E+00  0.88000000000E+00 0.  1.
        -11    1    4    4    0    0  0.68458907959E-01  0.15035684510E-01 -0.67238134877E-01  0.97128377884E-01  0.51100000000E-03 0. -1.
         11    1    4    4    0    0  0.28027116020E-01 -0.77618726328E-02 -0.18382448959E-01  0.34408450268E-01  0.51100000000E-03 0.  1.
</event>
<event>
 8    1  0.1076043E+005  0.1043930E+01  0.7957747E-01            NaN
         13   -1    0    0    0    0  0.00000000000E+00  0.00000000000E+00  0.74505805969E-08  0.10566000000E+00  0.10566000000E+00 0.  1.
     999900   -1    0    0    0    0 -0.00000000000E+00 -0.00000000000E+00 -0.74505805969E-08  0.93827000000E+00  0.93827000000E+00 0. -1.
     999902    2    1    2    0    0 -0.12213232250E-01  0.12707180542E-01 -0.13163589903E-01  0.10219319188E+01  0.10216951262E+01 0.  0.
     999903    2    3    3    0    0 -0.27190809415E-01 -0.22643044877E-01  0.12425607917E+00  0.13043983707E+00  0.17970261219E-01 0.  0.
         14    1    1    2    0    0  0.12213232250E-01 -0.12707180542E-01  0.13163589903E-01  0.21998081245E-01  0.00000000000E+00 0.  1.
     999901    1    3    3    0    0  0.14977577165E-01  0.35350225419E-01 -0.13741966907E+00  0.89149208168E+00  0.88000000000E+00 0. -1.
        -11    1    4    4    0    0 -0.70842918729E-02 -0.65002457086E-03  0.48678486675E-01  0.49198230753E-01  0.51100000000E-03 0. -1.
         11    1    4    4    0    0 -0.20106517542E-01 -0.21993020306E-01  0.75577592490E-01  0.81241606320E-01  0.51100000000E-03 0.  1.
</event>
<event>
 8    1  0.1076043E+005  0.1043930E+01  0.7957747E-01            NaN
         13   -1    0    0    0    0  0.00000000000E+00  0.00000000000E+00  0.74505805969E-08  0.10566000000E+00  0.10566000000E+00 0.  1.
     999900   -1    0    0    0    0 -0.00000000000E+00 -0.00000000000E+00 -0.74505805969E-08  0.93827000000E+00  0.93827000000E+00 0. -1.
     999902    2    1    2    0    0  0.17034856750E-01  0.16963457187E-01 -0.75021291697E-04  0.10198893916E+01  0.10196060123E+01 0.  0.
     999903    2    3    3    0    0 -0.75331837529E-01 -0.95931159400E-01  0.30809837026E-01  0.12734769781E+00  0.19761502771E-01 0.  0.
         14    1    1    2    0    0 -0.17034856750E-01 -0.16963457187E-01  0.75021291697E-04  0.24040608403E-01  0.00000000000E+00 0.  1.
     999901    1    3    3    0    0  0.92366694279E-01  0.11289461659E+00 -0.30884858317E-01  0.89254169378E+00  0.88000000000E+00 0.  1.
        -11    1    4    4    0    0 -0.66306173833E-01 -0.71681822658E-01  0.25623305158E-01  0.10095349066E+00  0.51100000000E-03 0. -1.
         11    1    4    4    0    0 -0.90256636965E-02 -0.24249336742E-01  0.51865318675E-02  0.26394207156E-01  0.51100000000E-03 0.  1.
</event>
<event>
 8    1  0.1076043E+005  0.1043930E+01  0.7957747E-01            NaN
         13   -1    0    0    0    0  0.00000000000E+00  0.00000000000E+00  0.74505805969E-08  0.10566000000E+00  0.10566000000E+00 0.  1.
     999900   -1    0    0    0    0 -0.00000000000E+00 -0.00000000000E+00 -0.74505805969E-08  0.93827000000E+00  0.93827000000E+00 0.  1.
     999902    2    1    2    0    0 -0.52387224958E-02  0.44164342897E-02 -0.22456906186E-01  0.10204510362E+01  0.10201808935E+01 0.  0.
     999903    2    3    3    0    0  0.12557571571E+00 -0.26681838920E-01 -0.49960362025E-02  0.13006662382E+00  0.20277705787E-01 0.  0.
         14    1    1    2    0    0  0.52387224958E-02 -0.44164342897E-02  0.22456906186E-01  0.23478963790E-01  0.00000000000E+00 0.  1.
     999901    1    3    3    0    0 -0.13081443820E+00  0.31098273210E-01 -0.17460869983E-01  0.89038441239E+00  0.88000000000E+00 0.  1.
        -11    1    4    4    0    0  0.46120355752E-01 -0.11770201773E-03 -0.37791914545E-02  0.46277904852E-01  0.51100000000E-03 0.  1.
         11    1    4    4    0    0  0.79455359955E-01 -0.26564136903E-01 -0.12168447479E-02  0.83788718973E-01  0.51100000000E-03 0. -1.
</event>
<event>
 8    1  0.1076043E+005  0.1043930E+01  0.7957747E-01            NaN
         13   -1    0    0    0    0  0.00000000000E+00  0.00000000000E+00  0.74505805969E-08  0.10566000000E+00  0.10566000000E+00 0.  1.
     999900   -1    0    0    0    0 -0.00000000000E+00 -0.00000000000E+00 -0.74505805969E-08  0.93827000000E+00  0.93827000000E+00 0. -1.
     999902    2    1    2    0    0 -0.19450227843E-01 -0.13923146013E-01 -0.10986638695E-02  0.10199848038E+01  0.10197036960E+01 0.  0.
     999903    2    3    3    0    0 -0.14008627271E-01 -0.12744367022E+00  0.25878344736E-01  0.13226622260E+00  0.19660473006E-01 0.  0.
         14    1    1    2    0    0  0.19450227843E-01  0.13923146013E-01  0.10986638695E-02  0.23945196185E-01  0.00000000000E+00 0. -1.
     999901    1    3    3    0    0 -0.54416005717E-02  0.11352052421E+00 -0.26977008605E-01  0.88771858121E+00  0.88000000000E+00 0.  1.
        -11    1    4    4    0    0  0.11210766650E-02 -0.34140302274E-01 -0.37510720055E-03  0.34164585153E-01  0.51100000000E-03 0.  1.
         11    1    4    4    0    0 -0.15129703936E-01 -0.93303367945E-01  0.26253451936E-01  0.98101637452E-01  0.51100000000E-03 0. -1.
</event>
<event>
 8    1  0.1076043E+005  0.1043930E+01  0.7957747E-01            NaN
         13   -1    0    0    0    0  0.00000000000E+00  0.00000000000E+00  0.74505805969E-08  0.10566000000E+00  0.10566000000E+00 0.  1.
     999900   -1    0    0    0    0 -0.00000000000E+00 -0.00000000000E+00 -0.74505805969E-08  0.93827000000E+00  0.93827000000E+00 0. -1.
     999902    2    1    2    0    0 -0.11343732857E-01  0.12875478913E-01 -0.17343304204E-01  0.10195322863E+01  0.10192403222E+01 0.  0.
     999903    2    3    3    0    0  0.12022298294E+00  0.29780512860E-01 -0.31998506147E-01  0.12947029082E+00  0.19955130543E-01 0.  0.
         14    1    1    2    0    0  0.11343732857E-01 -0.12875478913E-01  0.17343304204E-01  0.24397713686E-01  0.00000000000E+00 0.  1.
     999901    1    3    3    0    0 -0.13156671580E+00 -0.16905033947E-01  0.14655201943E-01  0.89006199549E+00  0.88000000000E+00 0.  1.
        -11    1    4    4    0    0  0.40211825400E-01  0.12225023531E-01 -0.20454038885E-01  0.46744742272E-01  0.51100000000E-03 0. -1.
         11    1    4    4    0    0  0.80011157544E-01  0.17555489329E-01 -0.11544467262E-01  0.82725548548E-01  0.51100000000E-03 0.  1.
</event>
<event>
 8    1  0.1076043E+005  0.1043930E+01  0.7957747E-01            NaN
         13   -1    0    0    0    0  0.00000000000E+00  0.00000000000E+00  0.74505805969E-08  0.10566000000E+00  0.10566000000E+00 0. -1.
     999900   -1    0    0    0    0 -0.00000000000E+00 -0.00000000000E+00 -0.74505805969E-08  0.93827000000E+00  0.93827000000E+00 0.  1.
     999902    2    1    2    0    0 -0.20367636983E-01 -0.70818574795E-02  0.12826198318E-01  0.10188400677E+01  0.10185310888E+01 0.  0.
     999903    2    3    3    0    0 -0.57095642923E-01  0.80341542739E-01  0.83845513343E-01  0.13090113933E+00  0.19757586919E-01 0.  0.
         14    1    1    2    0    0  0.20367636983E-01  0.70818574795E-02 -0.12826198318E-01  0.25089932342E-01  0.00000000000E+00 0.  1.
     999901    1    3    3    0    0  0.36728005940E-01 -0.87423400218E-01 -0.71019315025E-01  0.88793892832E+00  0.88000000000E+00 0.  1.
        -11    1    4    4    0    0 -0.54433999168E-03  0.10987021949E-01  0.83456322292E-02  0.13817440271E-01  0.51100000000E-03 0.  1.
         11    1    4    4    0    0 -0.56551302931E-01  0.69354520790E-01  0.75499881114E-01  0.11708369906E+00  0.51100000000E-03 0. -1.
</event>
<event>
 8    1  0.1076043E+005  0.1043930E+01  0.7957747E-01            NaN
         13   -1    0    0    0    0  0.00000000000E+00  0.00000000000E+00  0.74505805969E-08  0.10566000000E+00  0.10566000000E+00 0. -1.
     999900   -1    0    0    0    0 -0.00000000000E+00 -0.00000000000E+00 -0.74505805969E-08  0.93827000000E+00  0.93827000000E+00 0. -1.
     999902    2    1    2    0    0 -0.59913263439E-02  0.15439555088E-01 -0.17696183582E-01  0.10196930289E+01  0.10194049453E+01 0.  0.
     999903    2    3    3    0    0 -0.12063578742E+00  0.37209241676E-01 -0.31990500412E-01  0.13187457948E+00  0.20736241786E-01 0.  0.
         14    1    1    2    0    0  0.59913263439E-02 -0.15439555088E-01  0.17696183582E-01  0.24236971058E-01  0.00000000000E+00 0. -1.
     999901    1    3    3    0    0  0.11464446108E+00 -0.21769686588E-01  0.14294316830E-01  0.88781844946E+00  0.88000000000E+00 0.  1.
        -11    1    4    4    0    0 -0.89797820823E-01  0.34993368609E-01 -0.29785842686E-01  0.10087438732E+00  0.51100000000E-03 0.  1.
         11    1    4    4    0    0 -0.30837966600E-01  0.22158730663E-02 -0.22046577256E-02  0.31000192163E-01  0.51100000000E-03 0. -1.
</event>
<event>
 8    1  0.1076043E+005  0.1043930E+01  0.7957747E-01            NaN
         13   -1    0    0    0    0  0.00000000000E+00  0.00000000000E+00  0.74505805969E-08  0.10566000000E+00  0.10566000000E+00 0.  1.
     999900   -1    0    0    0    0 -0.00000000000E+00 -0.00000000000E+00 -0.74505805969E-08  0.93827000000E+00  0.93827000000E+00 0. -1.
     999902    2    1    2    0    0  0.38167981307E-02 -0.48275447475E-02 -0.24236105194E-01  0.10189247619E+01  0.10186178913E+01 0.  0.
     999903    2    3    3    0    0 -0.45738558795E-01 -0.11979780721E+00 -0.38996160032E-02  0.12983114062E+00  0.19934585476E-01 0.  0.
         14    1    1    2    0    0 -0.38167981307E-02  0.48275447475E-02  0.24236105194E-01  0.25005238076E-01  0.00000000000E+00 0.  1.
     999901    1    3    3    0    0  0.49555356925E-01  0.11497026246E+00 -0.20336489191E-01  0.88909362130E+00  0.88000000000E+00 0. -1.
        -11    1    4    4    0    0 -0.31981098039E-01 -0.10364210865E+00 -0.15582055278E-02  0.10847657094E+00  0.51100000000E-03 0. -1.
         11    1    4    4    0    0 -0.13757460755E-01 -0.16155698552E-01 -0.23414104754E-02  0.21354569678E-01  0.51100000000E-03 0.  1.
</event>
<event>
 8    1  0.1076043E+005  0.1043930E+01  0.7957747E-01            NaN
         13   -1    0    0    0    0  0.00000000000E+00  0.00000000000E+00  0.74505805969E-08  0.10566000000E+00  0.10566000000E+00 0. -1.
     999900   -1    0    0    0    0 -0.00000000000E+00 -0.00000000000E+00 -0.74505805969E-08  0.93827000000E+00  0.93827000000E+00 0.  1.
     999902    2    1    2    0    0 -0.17877656662E-01 -0.11904135489E-01 -0.84912904924E-02  0.10208340899E+01  0.10205727892E+01 0.  0.
     999903    2    3    3    0    0  0.11535662101E+00 -0.31927368509E-01  0.43916230230E-01  0.12903879341E+00  0.19896433239E-01 0.  0.
         14    1    1    2    0    0  0.17877656662E-01  0.11904135489E-01  0.84912904924E-02  0.23095910107E-01  0.00000000000E+00 0. -1.
     999901    1    3    3    0    0 -0.13323427767E+00  0.20023233020E-01 -0.52407520722E-01  0.89179529649E+00  0.88000000000E+00 0. -1.
        -11    1    4    4    0    0  0.36857170577E-01 -0.10056054895E-01  0.43632410464E-02  0.38456134185E-01  0.51100000000E-03 0.  1.
         11    1    4    4    0    0  0.78499450432E-01 -0.21871313614E-01  0.39552989183E-01  0.90582659222E-01  0.51100000000E-03 0. -1.
</event>
<event>
 8    1  0.1076043E+005  0.1043930E+01  0.7957747E-01            NaN
         13   -1    0    0    0    0  0.00000000000E+00  0.00000000000E+00  0.74505805969E-08  0.10566000000E+00  0.10566000000E+00 0. -1.
     999900   -1    0    0    0    0 -0.00000000000E+00 -0.00000000000E+00 -0.74505805969E-08  0.93827000000E+00  0.93827000000E+00 0.  1.
     999902    2    1    2    0    0 -0.77300520631E-02  0.22700842379E-01 -0.81358325270E-03  0.10199353367E+01  0.10196530523E+01 0.  0.
     999903    2    3    3    0    0  0.99238794509E-01  0.31573990493E-01  0.75288419495E-01  0.13015301403E+00  0.20644750918E-01 0.  0.
         14    1    1    2    0    0  0.77300520631E-02 -0.22700842379E-01  0.81358325270E-03  0.23994663309E-01  0.00000000000E+00 0.  1.
     999901    1    3    3    0    0 -0.10696884657E+00 -0.88731481140E-02 -0.76102002748E-01  0.88978232266E+00  0.88000000000E+00 0.  1.
        -11    1    4    4    0    0  0.85568318003E-01  0.21096499852E-01  0.68542228817E-01  0.11164809718E+00  0.51100000000E-03 0. -1.
         11    1    4    4    0    0  0.13670476505E-01  0.10477490640E-01  0.67461906774E-02  0.18504916851E-01  0.51100000000E-03 0.  1.
</event>
<event>
 8    1  0.1076043E+005  0.1043930E+01  0.7957747E-01            NaN
         13   -1    0    0    0    0  0.00000000000E+00  0.00000000000E+00  0.74505805969E-08  0.10566000000E+00  0.10566000000E+00 0.  1.
     999900   -1    0    0    0    0 -0.00000000000E+00 -0.00000000000E+00 -0.74505805969E-08  0.93827000000E+00  0.93827000000E+00 0.  1.
     999902    2    1    2    0    0 -0.13313378447E-01 -0.18658705702E-01  0.53765262511E-02  0.10203864153E+01  0.10201147662E+01 0.  0.
     999903    2    3    3    0    0  0.70081687178E-01  0.99881264888E-01  0.34085763009E-01  0.12806882509E+00  0.18763655459E-01 0.  0.
         14    1    1    2    0    0  0.13313378447E-01  0.18658705702E-01 -0.53765262511E-02  0.23543584661E-01  0.00000000000E+00 0.  1.
     999901    1    3    3    0    0 -0.83395065625E-01 -0.11853997059E+00 -0.28709236758E-01  0.89231759025E+00  0.88000000000E+00 0.  1.
        -11    1    4    4    0    0  0.55178478065E-01  0.64710013201E-01  0.20088882030E-01  0.87383491303E-01  0.51100000000E-03 0. -1.
         11    1    4    4    0    0  0.14903209113E-01  0.35171251686E-01  0.13996880979E-01  0.40685333785E-01  0.51100000000E-03 0.  1.
</event>
<event>
 8    1  0.1076043E+005  0.1043930E+01  0.7957747E-01            NaN
         13   -1    0    0    0    0  0.00000000000E+00  0.00000000000E+00  0.74505805969E-08  0.10566000000E+00  0.10566000000E+00 0. -1.
     999900   -1    0    0    0    0 -0.00000000000E+00 -0.00000000000E+00 -0.74505805969E-08  0.93827000000E+00  0.93827000000E+00 0. -1.
     999902    2    1    2    0    0  0.11289803557E-01 -0.20789296049E-02  0.21810263024E-01  0.10192831100E+01  0.10189850780E+01 0.  0.
     999903    2    3    3    0    0  0.82251281019E-01  0.73862530358E-01  0.69382524065E-01  0.13189043671E+00  0.18979094519E-01 0.  0.
         14    1    1    2    0    0 -0.11289803557E-01  0.20789296049E-02 -0.21810263024E-01  0.24646889983E-01  0.00000000000E+00 0.  1.
     999901    1    3    3    0    0 -0.70961477462E-01 -0.75941459963E-01 -0.47572261041E-01  0.88739267331E+00  0.88000000000E+00 0. -1.
        -11    1    4    4    0    0  0.73361178381E-02  0.14444825160E-01  0.65938730397E-02  0.17498910866E-01  0.51100000000E-03 0. -1.
         11    1    4    4    0    0  0.74915163181E-01  0.59417705198E-01  0.62788651025E-01  0.11439152584E+00  0.51100000000E-03 0.  1.
</event>
<event>
 8    1  0.1076043E+005  0.1043930E+01  0.7957747E-01            NaN
         13   -1    0    0    0    0  0.00000000000E+00  0.00000000000E+00  0.74505805969E-08  0.10566000000E+00  0.10566000000E+00 0.  1.
     999900   -1    0    0    0    0 -0.00000000000E+00 -0.00000000000E+00 -0.74505805969E-08  0.93827000000E+00  0.93827000000E+00 0. -1.
     999902    2    1    2    0    0  0.20912794785E-01 -0.32060460759E-02 -0.80507009590E-02  0.10212929175E+01  0.10210420099E+01 0.  0.
     999903    2    3    3    0    0  0.11024733160E+00  0.46568816355E-01  0.54912194230E-01  0.13313610560E+00  0.19665827118E-01 0.  0.
         14    1    1    2    0    0 -0.20912794785E-01  0.32060460759E-02  0.80507009590E-02  0.22637082477E-01  0.00000000000E+00 0. -1.
     999901    1    3    3    0    0 -0.89334536819E-01 -0.49774862430E-01 -0.62962895188E-01  0.88815681193E+00  0.88000000000E+00 0. -1.
        -11    1    4    4    0    0  0.47811775492E-01  0.99798840944E-02  0.19903088598E-01  0.52744270011E-01  0.51100000000E-03 0. -1.
         11    1    4    4    0    0  0.62435556111E-01  0.36588932260E-01  0.35009105632E-01  0.80391835587E-01  0.51100000000E-03 0.  1.
</event>
<event>
 8    1  0.1076043E+005  0.1043930E+01  0.7957747E-01            NaN
         13   -1    0    0    0    0  0.00000000000E+00  0.00000000000E+00  0.74505805969E-08  0.10566000000E+00  0.10566000000E+00 0. -1.
     999900   -1    0    0    0    0 -0.00000000000E+00 -0.00000000000E+00 -0.74505805969E-08  0.93827000000E+00  0.93827000000E+00 0. -1.
     999902    2    1    2    0    0  0.13591104489E-01  0.18833903097E-01  0.26602322158E-02  0.10205524282E+01  0.10202846406E+01 0.  0.
     999903    2    3    3    0    0  0.12229730324E+00  0.49113093770E-01  0.66204033317E-02  0.13333793893E+00  0.19142880110E-01 0.  0.
         14    1    1    2    0    0 -0.13591104489E-01 -0.18833903097E-01 -0.26602322158E-02  0.23377571785E-01  0.00000000000E+00 0. -1.
     999901    1    3    3    0    0 -0.10870619875E+00 -0.30279190674E-01 -0.39601711159E-02  0.88721448928E+00  0.88000000000E+00 0.  1.
        -11    1    4    4    0    0  0.60020823856E-01  0.31056917125E-01 -0.36791040737E-02  0.67681816801E-01  0.51100000000E-03 0. -1.
         11    1    4    4    0    0  0.62276479386E-01  0.18056176645E-01  0.10299507405E-01  0.65656122133E-01  0.51100000000E-03 0.  1.
</event>
<event>
 8    1  0.1076043E+005  0.1043930E+01  0.7957747E-01            NaN
         13   -1    0    0    0    0  0.00000000000E+00  0.00000000000E+00  0.74505805969E-08  0.10566000000E+00  0.10566000000E+00 0. -1.
     999900   -1    0    0    0    0 -0.00000000000E+00 -0.00000000000E+00 -0.74505805969E-08  0.93827000000E+00  0.93827000000E+00 0.  1.
     999902    2    1    2    0    0 -0.38312967550E-02  0.68799687529E-02 -0.17705977782E-01  0.10245518047E+01  0.10243685304E+01 0.  0.
     999903    2    3    3    0    0  0.11219601408E+00 -0.67307759466E-01  0.15586354063E-01  0.13321879438E+00  0.19647714471E-01 0.  0.
         14    1    1    2    0    0  0.38312967550E-02 -0.68799687529E-02  0.17705977782E-01  0.19378195326E-01  0.00000000000E+00 0. -1.
     999901    1    3    3    0    0 -0.11602731083E+00  0.74187728218E-01 -0.33292331845E-01  0.89133301029E+00  0.88000000000E+00 0.  1.
        -11    1    4    4    0    0  0.64734970912E-01 -0.36024737676E-01 -0.69027391548E-03  0.74088702126E-01  0.51100000000E-03 0. -1.
         11    1    4    4    0    0  0.47461043167E-01 -0.31283021789E-01  0.16276627979E-01  0.59130092256E-01  0.51100000000E-03 0.  1.
</event>
<event>
 8    1  0.1076043E+005  0.1043930E+01  0.7957747E-01            NaN
         13   -1    0    0    0    0  0.00000000000E+00  0.00000000000E+00  0.74505805969E-08  0.10566000000E+00  0.10566000000E+00 0. -1.
     999900   -1    0    0    0    0 -0.00000000000E+00 -0.00000000000E+00 -0.74505805969E-08  0.93827000000E+00  0.93827000000E+00 0. -1.
     999902    2    1    2    0    0 -0.99961405892E-02 -0.16721296239E-01 -0.13897147263E-01  0.10199997832E+01  0.10197190311E+01 0.  0.
     999903    2    3    3    0    0 -0.10006260359E+00 -0.76796631245E-01 -0.37041957649E-01  0.13306309104E+00  0.20577472227E-01 0.  0.
         14    1    1    2    0    0  0.99961405892E-02  0.16721296239E-01  0.13897147263E-01  0.23930216812E-01  0.00000000000E+00 0. -1.
     999901    1    3    3    0    0  0.90066462998E-01  0.60075335005E-01  0.23144810386E-01  0.88693669215E+00  0.88000000000E+00 0.  1.
        -11    1    4    4    0    0 -0.32419498768E-01 -0.25274743602E-01 -0.22279151461E-01  0.46759579503E-01  0.51100000000E-03 0. -1.
         11    1    4    4    0    0 -0.67643104820E-01 -0.51521887642E-01 -0.14762806188E-01  0.86303511536E-01  0.51100000000E-03 0.  1.
</event>
<event>
 8    1  0.1131981E+005  0.1043930E+01  0.7957747E-01            NaN
         13   -1    0    0    0    0  0.00000000000E+00  0.00000000000E+00  0.74505805969E-08  0.10566000000E+00  0.10566000000E+00 0.  1.
     999900   -1    0    0    0    0 -0.00000000000E+00 -0.00000000000E+00 -0.74505805969E-08  0.93827000000E+00  0.93827000000E+00 0.  1.
     999902    2    1    2    0    0  0.17075817550E-01 -0.89421498698E-02 -0.13855380309E-01  0.10201914838E+01  0.10199152643E+01 0.  0.
     999903    2    3    3    0    0  0.48749106636E-01  0.10920441048E+00  0.46143956596E-01  0.12970749885E+00  0.19816454350E-01 0.  0.
         14    1    1    2    0    0 -0.17075817550E-01  0.89421498698E-02  0.13855380309E-01  0.23738516230E-01  0.00000000000E+00 0.  1.
     999901    1    3    3    0    0 -0.31673289086E-01 -0.11814656035E+00 -0.59999336904E-01  0.89048398492E+00  0.88000000000E+00 0.  1.
        -11    1    4    4    0    0  0.24686778906E-01  0.68018059511E-01  0.36475238672E-01  0.81034545902E-01  0.51100000000E-03 0. -1.
         11    1    4    4    0    0  0.24062327730E-01  0.41186350967E-01  0.96687179236E-02  0.48672952952E-01  0.51100000000E-03 0.  1.
</event>
<event>
 8    1  0.1076043E+005  0.1043930E+01  0.7957747E-01            NaN
         13   -1    0    0    0    0  0.00000000000E+00  0.00000000000E+00  0.74505805969E-08  0.10566000000E+00  0.10566000000E+00 0. -1.
     999900   -1    0    0    0    0 -0.00000000000E+00 -0.00000000000E+00 -0.74505805969E-08  0.93827000000E+00  0.93827000000E+00 0. -1.
     999902    2    1    2    0    0  0.13919681063E-01 -0.49081318334E-02  0.18288891180E-01  0.10204282805E+01  0.10201576078E+01 0.  0.
     999903    2    3    3    0    0  0.11543608303E+00 -0.19594839393E-01 -0.55996706793E-01  0.13136156235E+00  0.20267755062E-01 0.  0.
         14    1    1    2    0    0 -0.13919681063E-01  0.49081318334E-02 -0.18288891180E-01  0.23501719503E-01  0.00000000000E+00 0.  1.
     999901    1    3    3    0    0 -0.10151640197E+00  0.14686707560E-01  0.74285597973E-01  0.88906671815E+00  0.88000000000E+00 0.  1.
        -11    1    4    4    0    0  0.59943828437E-01 -0.54778636595E-02 -0.38626198232E-01  0.71522820616E-01  0.51100000000E-03 0. -1.
         11    1    4    4    0    0  0.55492254594E-01 -0.14116975734E-01 -0.17370508561E-01  0.59838741735E-01  0.51100000000E-03 0.  1.
</event>
<event>
 8    1  0.1076043E+005  0.1043930E+01  0.7957747E-01            NaN
         13   -1    0    0    0    0  0.00000000000E+00  0.00000000000E+00  0.74505805969E-08  0.10566000000E+00  0.10566000000E+00 0. -1.
     999900   -1    0    0    0    0 -0.00000000000E+00 -0.00000000000E+00 -0.74505805969E-08  0.93827000000E+00  0.93827000000E+00 0.  1.
     999902    2    1    2    0    0  0.19342503272E-01 -0.11069963290E-01  0.88982859125E-02  0.10199329999E+01  0.10196506600E+01 0.  0.
     999903    2    3    3    0    0  0.89328709208E-01 -0.65212740414E-01 -0.69271380150E-01  0.13204786883E+00  0.20144372768E-01 0.  0.
         14    1    1    2    0    0 -0.19342503272E-01  0.11069963290E-01 -0.88982859125E-02  0.23997000067E-01  0.00000000000E+00 0.  1.
     999901    1    3    3    0    0 -0.69986205937E-01  0.54142777124E-01  0.78169666063E-01  0.88788513110E+00  0.88000000000E+00 0. -1.
        -11    1    4    4    0    0  0.27095348162E-01 -0.23932301080E-01 -0.12560755371E-01  0.38274621141E-01  0.51100000000E-03 0.  1.
         11    1    4    4    0    0  0.62233361046E-01 -0.41280439334E-01 -0.56710624780E-01  0.93773247692E-01  0.51100000000E-03 0. -1.
</event>
<event>
 8    1  0.1076043E+005  0.1043930E+01  0.7957747E-01            NaN
         13   -1    0    0    0    0  0.00000000000E+00  0.00000000000E+00  0.74505805969E-08  0.10566000000E+00  0.10566000000E+00 0. -1.
     999900   -1    0    0    0    0 -0.00000000000E+00 -0.00000000000E+00 -0.74505805969E-08  0.93827000000E+00  0.93827000000E+00 0. -1.
     999902    2    1    2    0    0 -0.22165664739E-01  0.63627265508E-02 -0.30118323916E-02  0.10206733425E+01  0.10204083496E+01 0.  0.
     999903    2    3    3    0    0  0.76258838290E-01  0.89872337462E-01  0.50058348106E-01  0.12967520450E+00  0.20429708480E-01 0.  0.
         14    1    1    2    0    0  0.22165664739E-01 -0.63627265508E-02  0.30118323916E-02  0.23256657473E-01  0.00000000000E+00 0.  1.
     999901    1    3    3    0    0 -0.98424503029E-01 -0.83509610911E-01 -0.53070180497E-01  0.89099813803E+00  0.88000000000E+00 0. -1.
        -11    1    4    4    0    0  0.53717673803E-01  0.66196897323E-01  0.26150687070E-01  0.89172513978E-01  0.51100000000E-03 0. -1.
         11    1    4    4    0    0  0.22541164487E-01  0.23675440139E-01  0.23907661036E-01  0.40502690521E-01  0.51100000000E-03 0.  1.
</event>
<event>
 8    1  0.1076043E+005  0.1043930E+01  0.7957747E-01            NaN
         13   -1    0    0    0    0  0.00000000000E+00  0.00000000000E+00  0.74505805969E-08  0.10566000000E+00  0.10566000000E+00 0. -1.
     999900   -1    0    0    0    0 -0.00000000000E+00 -0.00000000000E+00 -0.74505805969E-08  0.93827000000E+00  0.93827000000E+00 0.  1.
     999902    2    1    2    0    0 -0.98986571844E-02  0.19501703362E-01  0.19830543529E-02  0.10219702106E+01  0.10217342506E+01 0.  0.
     999903    2    3    3    0    0  0.82717517201E-01 -0.79229423670E-01 -0.57762772904E-01  0.12961649420E+00  0.18558243704E-01 0.  0.
         14    1    1    2    0    0  0.98986571844E-02 -0.19501703362E-01 -0.19830543529E-02  0.21959789449E-01  0.00000000000E+00 0.  1.
     999901    1    3    3    0    0 -0.92616174386E-01  0.98731127031E-01  0.59745827257E-01  0.89235371635E+00  0.88000000000E+00 0. -1.
        -11    1    4    4    0    0  0.47619434427E-01 -0.32796646458E-01 -0.28291174476E-01  0.64372993004E-01  0.51100000000E-03 0.  1.
         11    1    4    4    0    0  0.35098082774E-01 -0.46432777212E-01 -0.29471598429E-01  0.65243501201E-01  0.51100000000E-03 0. -1.
</event>
<event>
 8    1  0.1076043E+005  0.1043930E+01  0.7957747E-01            NaN
         13   -1    0    0    0    0  0.00000000000E+00  0.00000000000E+00  0.74505805969E-08  0.10566000000E+00  0.10566000000E+00 0. -1.
     999900   -1    0    0    0    0 -0.00000000000E+00 -0.00000000000E+00 -0.74505805969E-08  0.93827000000E+00  0.93827000000E+00 0. -1.
     999902    2    1    2    0    0  0.71256211776E-02 -0.18673652240E-01 -0.11515675491E-01  0.10208629120E+01  0.10206022705E+01 0.  0.
     999903    2    3    3    0    0 -0.95306243588E-01  0.81858580343E-01 -0.22906382775E-01  0.12916298217E+00  0.19345964664E-01 0.  0.
         14    1    1    2    0    0 -0.71256211776E-02  0.18673652240E-01  0.11515675491E-01  0.23067087965E-01  0.00000000000E+00 0.  1.
     999901    1    3    3    0    0  0.10243186477E+00 -0.10053223258E+00  0.11390707284E-01  0.89169992986E+00  0.88000000000E+00 0.  1.
        -11    1    4    4    0    0 -0.43333228671E-01  0.48363224361E-01 -0.69903524208E-02  0.65313829512E-01  0.51100000000E-03 0.  1.
         11    1    4    4    0    0 -0.51973014917E-01  0.33495355982E-01 -0.15916030354E-01  0.63849152658E-01  0.51100000000E-03 0. -1.
</event>
<event>
 8    1  0.1076043E+005  0.1043930E+01  0.7957747E-01            NaN
         13   -1    0    0    0    0  0.00000000000E+00  0.00000000000E+00  0.74505805969E-08  0.10566000000E+00  0.10566000000E+00 0. -1.
     999900   -1    0    0    0    0 -0.00000000000E+00 -0.00000000000E+00 -0.74505805969E-08  0.93827000000E+00  0.93827000000E+00 0. -1.
     999902    2    1    2    0    0 -0.13016441240E-01 -0.19304881350E-01  0.56460229281E-02  0.10199720418E+01  0.10196906307E+01 0.  0.
     999903    2    3    3    0    0  0.11842040800E+00 -0.44227388888E-01 -0.19452133466E-01  0.12950772798E+00  0.20357090913E-01 0.  0.
         14    1    1    2    0    0  0.13016441240E-01  0.19304881350E-01 -0.56460229281E-02  0.23957958206E-01  0.00000000000E+00 0.  1.
     999901    1    3    3    0    0 -0.13143684924E+00  0.24922507538E-01  0.25098156394E-01  0.89046431381E+00  0.88000000000E+00 0. -1.
        -11    1    4    4    0    0  0.40431148568E-01 -0.76697662835E-02 -0.12878742370E-01  0.43123383626E-01  0.51100000000E-03 0.  1.
         11    1    4    4    0    0  0.77989259436E-01 -0.36557622604E-01 -0.65733910964E-02  0.86384344354E-01  0.51100000000E-03 0. -1.
</event>
<event>
 8    1  0.1076043E+005  0.1043930E+01  0.7957747E-01            NaN
         13   -1    0    0    0    0  0.00000000000E+00  0.00000000000E+00  0.74505805969E-08  0.10566000000E+00  0.10566000000E+00 0.  1.
     999900   -1    0    0    0    0 -0.00000000000E+00 -0.00000000000E+00 -0.74505805969E-08  0.93827000000E+00  0.93827000000E+00 0. -1.
     999902    2    1    2    0    0 -0.18086772385E-01 -0.54992822901E-04  0.16654361636E-01  0.10193433752E+01  0.10190468166E+01 0.  0.
     999903    2    3    3    0    0  0.23302483516E-01 -0.65118600928E-01 -0.10532224721E+00  0.12758968904E+00  0.20072744369E-01 0.  0.
         14    1    1    2    0    0  0.18086772385E-01  0.54992822901E-04 -0.16654361636E-01  0.24586624839E-01  0.00000000000E+00 0. -1.
     999901    1    3    3    0    0 -0.41389255901E-01  0.65063608105E-01  0.12197660885E+00  0.89175368612E+00  0.88000000000E+00 0.  1.
        -11    1    4    4    0    0  0.55129728131E-02 -0.14210800151E-01 -0.40445533762E-01  0.43225478973E-01  0.51100000000E-03 0. -1.
         11    1    4    4    0    0  0.17789510703E-01 -0.50907800777E-01 -0.64876713451E-01  0.84364210067E-01  0.51100000000E-03 0.  1.
</event>
<event>
 8    1  0.1076043E+005  0.1043930E+01  0.7957747E-01            NaN
         13   -1    0    0    0    0  0.00000000000E+00  0.00000000000E+00  0.74505805969E-08  0.10566000000E+00  0.10566000000E+00 0. -1.
     999900   -1    0    0    0    0 -0.00000000000E+00 -0.00000000000E+00 -0.74505805969E-08  0.93827000000E+00  0.93827000000E+00 0.  1.
     999902    2    1    2    0    0  0.82571501644E-02 -0.10820798366E-01  0.19048373634E-01  0.10205182349E+01  0.10202496543E+01 0.  0.
     999903    2    3    3    0    0 -0.90007039639E-01  0.82376960605E-01  0.39759368761E-01  0.12991696690E+00  0.20257839502E-01 0.  0.
         14    1    1    2    0    0 -0.82571501644E-02  0.10820798366E-01 -0.19048373634E-01  0.23411765081E-01  0.00000000000E+00 0.  1.
     999901    1    3    3    0    0  0.98264189804E-01 -0.93197758972E-01 -0.20710995127E-01  0.89060126802E+00  0.88000000000E+00 0.  1.
        -11    1    4    4    0    0 -0.68434047922E-01  0.59023578375E-01  0.20255663134E-01  0.92615089101E-01  0.51100000000E-03 0. -1.
         11    1    4    4    0    0 -0.21572991718E-01  0.23353382230E-01  0.19503705627E-01  0.37301877801E-01  0.51100000000E-03 0.  1.
</event>
<event>
 8    1  0.1076043E+005  0.1043930E+01  0.7957747E-01            NaN
         13   -1    0    0    0    0  0.00000000000E+00  0.00000000000E+00  0.74505805969E-08  0.10566000000E+00  0.10566000000E+00 0. -1.
     999900   -1    0    0    0    0 -0.00000000000E+00 -0.00000000000E+00 -0.74505805969E-08  0.93827000000E+00  0.93827000000E+00 0.  1.
     999902    2    1    2    0    0  0.19303530257E-01  0.97984028718E-02  0.53090082907E-02  0.10216405283E+01  0.10213973510E+01 0.  0.
     999903    2    3    3    0    0 -0.93509880272E-01  0.62076018493E-01 -0.63095283451E-01  0.13027137817E+00  0.19801196845E-01 0.  0.
         14    1    1    2    0    0 -0.19303530257E-01 -0.97984028718E-02 -0.53090082907E-02  0.22289471690E-01  0.00000000000E+00 0. -1.
     999901    1    3    3    0    0  0.11281341053E+00 -0.52277615621E-01  0.68404291742E-01  0.89136915014E+00  0.88000000000E+00 0.  1.
        -11    1    4    4    0    0 -0.67117473250E-01  0.37250604717E-01 -0.34737696443E-01  0.84257530479E-01  0.51100000000E-03 0.  1.
         11    1    4    4    0    0 -0.26392407022E-01  0.24825413775E-01 -0.28357587008E-01  0.46013847692E-01  0.51100000000E-03 0. -1.
</event>
<event>
 8    1  0.1076043E+005  0.1043930E+01  0.7957747E-01            NaN
         13   -1    0    0    0    0  0.00000000000E+00  0.00000000000E+00  0.74505805969E-08  0.10566000000E+00  0.10566000000E+00 0. -1.
     999900   -1    0    0    0    0 -0.00000000000E+00 -0.00000000000E+00 -0.74505805969E-08  0.93827000000E+00  0.93827000000E+00 0.  1.
     999902    2    1    2    0    0 -0.22920988112E-01  0.36779521246E-02  0.11851497364E-02  0.10206855682E+01  0.10204208571E+01 0.  0.
     999903    2    3    3    0    0 -0.72209477318E-01  0.99606184090E-01 -0.46883453351E-01  0.13279921771E+00  0.17377384819E-01 0.  0.
         14    1    1    2    0    0  0.22920988112E-01 -0.36779521246E-02 -0.11851497364E-02  0.23244431758E-01  0.00000000000E+00 0. -1.
     999901    1    3    3    0    0  0.49288489206E-01 -0.95928231965E-01  0.48068603088E-01  0.88788635053E+00  0.88000000000E+00 0. -1.
        -11    1    4    4    0    0 -0.39665712835E-01  0.45719808436E-01 -0.30340446644E-01  0.67708740069E-01  0.51100000000E-03 0.  1.
         11    1    4    4    0    0 -0.32543764483E-01  0.53886375654E-01 -0.16543006707E-01  0.65090477643E-01  0.51100000000E-03 0. -1.
</event>
<event>
 8    1  0.1076043E+005  0.1043930E+01  0.7957747E-01            NaN
         13   -1    0    0    0    0  0.00000000000E+00  0.00000000000E+00  0.74505805969E-08  0.10566000000E+00  0.10566000000E+00 0.  1.
     999900   -1    0    0    0    0 -0.00000000000E+00 -0.00000000000E+00 -0.74505805969E-08  0.93827000000E+00  0.93827000000E+00 0. -1.
     999902    2    1    2    0    0 -0.18499683339E-01 -0.13202472199E-01 -0.47907944579E-02  0.10207029626E+01  0.10204386520E+01 0.  0.
     999903    2    3    3    0    0 -0.12155190808E+00 -0.36338357250E-01  0.33558361201E-01  0.13355827994E+00  0.24825550693E-01 0.  0.
         14    1    1    2    0    0  0.18499683339E-01  0.13202472199E-01  0.47907944579E-02  0.23227037421E-01  0.00000000000E+00 0. -1.
     999901    1    3    3    0    0  0.10305222474E+00  0.23135885052E-01 -0.38349155659E-01  0.88714468264E+00  0.88000000000E+00 0.  1.
        -11    1    4    4    0    0 -0.99746283090E-01 -0.27980798342E-01  0.36877389582E-01  0.10996567214E+00  0.51100000000E-03 0. -1.
         11    1    4    4    0    0 -0.21805624991E-01 -0.83575589087E-02 -0.33190283811E-02  0.23592607795E-01  0.51100000000E-03 0.  1.
</event>
<event>
 8    1  0.1076043E+005  0.1043930E+01  0.7957747E-01            NaN
         13   -1    0    0    0    0  0.00000000000E+00  0.00000000000E+00  0.74505805969E-08  0.10566000000E+00  0.10566000000E+00 0.  1.
     999900   -1    0    0    0    0 -0.00000000000E+00 -0.00000000000E+00 -0.74505805969E-08  0.93827000000E+00  0.93827000000E+00 0. -1.
     999902    2    1    2    0    0  0.44385422214E-02 -0.43222566123E-02 -0.23338357934E-01  0.10197833333E+01  0.10194974181E+01 0.  0.
     999903    2    3    3    0    0  0.66008926247E-01 -0.10183029474E+00 -0.47263038544E-01  0.13193699528E+00  0.21142105824E-01 0.  0.
         14    1    1    2    0    0 -0.44385422214E-02  0.43222566123E-02  0.23338357934E-01  0.24146666651E-01  0.00000000000E+00 0.  1.
     999901    1    3    3    0    0 -0.61570384025E-01  0.97508038129E-01  0.23924680610E-01  0.88784633807E+00  0.88000000000E+00 0.  1.
        -11    1    4    4    0    0  0.55256396222E-01 -0.69766809934E-01 -0.38686747860E-01  0.97044333542E-01  0.51100000000E-03 0.  1.
         11    1    4    4    0    0  0.10752530025E-01 -0.32063484807E-01 -0.85762906841E-02  0.34892661733E-01  0.51100000000E-03 0. -1.
</event>
<event>
 8    1  0.1076043E+005  0.1043930E+01  0.7957747E-01            NaN
         13   -1    0    0    0    0  0.00000000000E+00  0.00000000000E+00  0.74505805969E-08  0.10566000000E+00  0.10566000000E+00 0.  1.
     999900   -1    0    0    0    0 -0.00000000000E+00 -0.00000000000E+00 -0.74505805969E-08  0.93827000000E+00  0.93827000000E+00 0.  1.
     999902    2    1    2    0    0  0.17171700433E-01  0.11780319447E-01  0.10294963331E-01  0.10207000734E+01  0.10204356963E+01 0.  0.
     999903    2    3    3    0    0  0.58336912973E-03  0.12964181215E+00 -0.16258658758E-01  0.13229048367E+00  0.20714446830E-01 0.  0.
         14    1    1    2    0    0 -0.17171700433E-01 -0.11780319447E-01 -0.10294963331E-01  0.23229926647E-01  0.00000000000E+00 0. -1.
     999901    1    3    3    0    0  0.16588331303E-01 -0.11786149270E+00  0.26553622089E-01  0.88840958968E+00  0.88000000000E+00 0. -1.
        -11    1    4    4    0    0 -0.53134704142E-02  0.18845742640E-01  0.25536638924E-02  0.19752906211E-01  0.51100000000E-03 0.  1.
         11    1    4    4    0    0  0.58968395440E-02  0.11079606951E+00 -0.18812322650E-01  0.11253757746E+00  0.51100000000E-03 0. -1.
</event>
<event>
 8    1  0.1076043E+005  0.1043930E+01  0.7957747E-01            NaN
         13   -1    0    0    0    0  0.00000000000E+00  0.00000000000E+00  0.74505805969E-08  0.10566000000E+00  0.10566000000E+00 0.  1.
     999900   -1    0    0    0    0 -0.00000000000E+00 -0.00000000000E+00 -0.74505805969E-08  0.93827000000E+00  0.93827000000E+00 0. -1.
     999902    2    1    2    0    0  0.36675381191E-02  0.21967069707E-01  0.11559856866E-01  0.10188375055E+01  0.10185284627E+01 0.  0.
     999903    2    3    3    0    0 -0.85081173231E-01  0.38768068273E-01  0.89215315868E-01  0.13081218066E+00  0.20265361275E-01 0.  0.
         14    1    1    2    0    0 -0.36675381191E-02 -0.21967069707E-01 -0.11559856866E-01  0.25092494458E-01  0.00000000000E+00 0. -1.
     999901    1    3    3    0    0  0.88748711350E-01 -0.16800998566E-01 -0.77655459002E-01  0.88802532488E+00  0.88000000000E+00 0. -1.
        -11    1    4    4    0    0 -0.26725555797E-01  0.26760057316E-02  0.28860401303E-01  0.39428418986E-01  0.51100000000E-03 0. -1.
         11    1    4    4    0    0 -0.58355617434E-01  0.36092062541E-01  0.60354914565E-01  0.91383761674E-01  0.51100000000E-03 0.  1.
</event>
<event>
 8    1  0.1076043E+005  0.1043930E+01  0.7957747E-01            NaN
         13   -1    0    0    0    0  0.00000000000E+00  0.00000000000E+00  0.74505805969E-08  0.10566000000E+00  0.10566000000E+00 0.  1.
     999900   -1    0    0    0    0 -0.00000000000E+00 -0.00000000000E+00 -0.74505805969E-08  0.93827000000E+00  0.93827000000E+00 0.  1.
     999902    2    1    2    0    0 -0.45138985396E-03  0.21115996358E-01 -0.16521538018E-01  0.10171148872E+01  0.10167613503E+01 0.  0.
     999903    2    3    3    0    0 -0.11958616684E+00  0.10814284911E-01 -0.42018243844E-01  0.12866156692E+00  0.19247491478E-01 0.  0.
         14    1    1    2    0    0  0.45138985396E-03 -0.21115996358E-01  0.16521538018E-01  0.26815112781E-01  0.00000000000E+00 0.  1.
     999901    1    3    3    0    0  0.11913477699E+00  0.10301711447E-01  0.25496705826E-01  0.88845332030E+00  0.88000000000E+00 0.  1.
        -11    1    4    4    0    0 -0.87146526072E-01  0.16247111876E-01 -0.28810371265E-01  0.93213648487E-01  0.51100000000E-03 0.  1.
         11    1    4    4    0    0 -0.32439640769E-01 -0.54328269654E-02 -0.13207872579E-01  0.35447918431E-01  0.51100000000E-03 0. -1.
</event>
<event>
 8    1  0.1076043E+005  0.1043930E+01  0.7957747E-01            NaN
         13   -1    0    0    0    0  0.00000000000E+00  0.00000000000E+00  0.74505805969E-08  0.10566000000E+00  0.10566000000E+00 0. -1.
     999900   -1    0    0    0    0 -0.00000000000E+00 -0.00000000000E+00 -0.74505805969E-08  0.93827000000E+00  0.93827000000E+00 0.  1.
     999902    2    1    2    0    0  0.70629819608E-02  0.77792314088E-02  0.20730722318E-01  0.10206885499E+01  0.10204239074E+01 0.  0.
     999903    2    3    3    0    0  0.11724064462E+00  0.57215403874E-01 -0.67872191184E-02  0.13201521868E+00  0.19052045241E-01 0.  0.
         14    1    1    2    0    0 -0.70629819608E-02 -0.77792314088E-02 -0.20730722318E-01  0.23241450112E-01  0.00000000000E+00 0.  1.
     999901    1    3    3    0    0 -0.11017766266E+00 -0.49436172465E-01  0.27517941436E-01  0.88867333121E+00  0.88000000000E+00 0. -1.
        -11    1    4    4    0    0  0.42776109183E-01  0.14089399909E-01 -0.90178639167E-02  0.45933535649E-01  0.51100000000E-03 0. -1.
         11    1    4    4    0    0  0.74464535441E-01  0.43126003965E-01  0.22306447984E-02  0.86081683032E-01  0.51100000000E-03 0.  1.
</event>
<event>
 8    1  0.1076043E+005  0.1043930E+01  0.7957747E-01            NaN
         13   -1    0    0    0    0  0.00000000000E+00  0.00000000000E+00  0.74505805969E-08  0.10566000000E+00  0.10566000000E+00 0. -1.
     999900   -1    0    0    0    0 -0.00000000000E+00 -0.00000000000E+00 -0.74505805969E-08  0.93827000000E+00  0.93827000000E+00 0. -1.
     999902    2    1    2    0    0 -0.50622950543E-02 -0.20886617017E-01 -0.79424599230E-02  0.10210179885E+01  0.10207608792E+01 0.  0.
     999903    2    3    3    0    0  0.34833072015E-01  0.18332155914E-02  0.12362675797E+00  0.13005317987E+00  0.20335946572E-01 0.  0.
         14    1    1    2    0    0  0.50622950543E-02  0.20886617017E-01  0.79424599230E-02  0.22912011506E-01  0.00000000000E+00 0. -1.
     999901    1    3    3    0    0 -0.39895367069E-01 -0.22719832608E-01 -0.13156921789E+00  0.89096480862E+00  0.88000000000E+00 0. -1.
        -11    1    4    4    0    0  0.35240747938E-01  0.55786180510E-02  0.10120690300E+00  0.10731323139E+00  0.51100000000E-03 0. -1.
         11    1    4    4    0    0 -0.40767592306E-03 -0.37454024596E-02  0.22419854967E-01  0.22739948482E-01  0.51100000000E-03 0.  1.
</event>
<event>
 8    1  0.1076043E+005  0.1043930E+01  0.7957747E-01            NaN
         13   -1    0    0    0    0  0.00000000000E+00  0.00000000000E+00  0.74505805969E-08  0.10566000000E+00  0.10566000000E+00 0. -1.
     999900   -1    0    0    0    0 -0.00000000000E+00 -0.00000000000E+00 -0.74505805969E-08  0.93827000000E+00  0.93827000000E+00 0. -1.
     999902    2    1    2    0    0  0.54243526287E-02  0.16922720420E-01 -0.14829557893E-01  0.10207844204E+01  0.10205219817E+01 0.  0.
     999903    2    3    3    0    0  0.13739821100E-01  0.57525324319E-01  0.11444598593E+00  0.13037446724E+00  0.20041766141E-01 0.  0.
         14    1    1    2    0    0 -0.54243526287E-02 -0.16922720420E-01  0.14829557893E-01  0.23145579603E-01  0.00000000000E+00 0. -1.
     999901    1    3    3    0    0 -0.83154684714E-02 -0.40602603898E-01 -0.12927554382E+00  0.89040995316E+00  0.88000000000E+00 0. -1.
        -11    1    4    4    0    0 -0.46442722580E-02  0.21454155899E-01  0.40559665491E-01  0.46121553051E-01  0.51100000000E-03 0.  1.
         11    1    4    4    0    0  0.18384093358E-01  0.36071168420E-01  0.73886320437E-01  0.84252914184E-01  0.51100000000E-03 0. -1.
</event>
<event>
 8    1  0.1076043E+005  0.1043930E+01  0.7957747E-01            NaN
         13   -1    0    0    0    0  0.00000000000E+00  0.00000000000E+00  0.74505805969E-08  0.10566000000E+00  0.10566000000E+00 0. -1.
     999900   -1    0    0    0    0 -0.00000000000E+00 -0.00000000000E+00 -0.74505805969E-08  0.93827000000E+00  0.93827000000E+00 0. -1.
     999902    2    1    2    0    0 -0.20709563621E-01  0.91097830692E-02  0.66468508517E-02  0.10203491858E+01  0.10200766668E+01 0.  0.
     999903    2    3    3    0    0  0.10033329618E+00  0.76407913901E-01 -0.21311615195E-01  0.12907925577E+00  0.17387630585E-01 0.  0.
         14    1    1    2    0    0  0.20709563621E-01 -0.91097830692E-02 -0.66468508517E-02  0.23580814218E-01  0.00000000000E+00 0.  1.
     999901    1    3    3    0    0 -0.12104285981E+00 -0.67298130832E-01  0.27958466047E-01  0.89126993001E+00  0.88000000000E+00 0.  1.
        -11    1    4    4    0    0  0.27498623296E-01  0.11742346638E-01 -0.53485746299E-02  0.30379686623E-01  0.51100000000E-03 0. -1.
         11    1    4    4    0    0  0.72834672888E-01  0.64665567263E-01 -0.15963040565E-01  0.98699569145E-01  0.51100000000E-03 0.  1.
</event>
<event>
 8    1  0.1076043E+005  0.1043930E+01  0.7957747E-01            NaN
         13   -1    0    0    0    0  0.00000000000E+00  0.00000000000E+00  0.74505805969E-08  0.10566000000E+00  0.10566000000E+00 0. -1.
     999900   -1    0    0    0    0 -0.00000000000E+00 -0.00000000000E+00 -0.74505805969E-08  0.93827000000E+00  0.93827000000E+00 0. -1.
     999902    2    1    2    0    0  0.15511631165E-01 -0.12154663246E-02 -0.16617721424E-01  0.10211651867E+01  0.10209114074E+01 0.  0.
     999903    2    3    3    0    0  0.13475283955E-01 -0.11948201937E+00 -0.52241800581E-01  0.13253691835E+00  0.19475440065E-01 0.  0.
         14    1    1    2    0    0 -0.15511631165E-01  0.12154663246E-02  0.16617721424E-01  0.22764813312E-01  0.00000000000E+00 0. -1.
     999901    1    3    3    0    0  0.20363472105E-02  0.11826655305E+00  0.35624079156E-01  0.88862826834E+00  0.88000000000E+00 0.  1.
        -11    1    4    4    0    0  0.11589029421E-01 -0.68257843212E-01 -0.39515559161E-01  0.79719378445E-01  0.51100000000E-03 0. -1.
         11    1    4    4    0    0  0.18862545333E-02 -0.51224176161E-01 -0.12726241420E-01  0.52817539901E-01  0.51100000000E-03 0.  1.
</event>
<event>
 8    1  0.1076043E+005  0.1043930E+01  0.7957747E-01            NaN
         13   -1    0    0    0    0  0.00000000000E+00  0.00000000000E+00  0.74505805969E-08  0.10566000000E+00  0.10566000000E+00 0. -1.
     999900   -1    0    0    0    0 -0.00000000000E+00 -0.00000000000E+00 -0.74505805969E-08  0.93827000000E+00  0.93827000000E+00 0. -1.
     999902    2    1    2    0    0 -0.10252973295E-01 -0.22304631117E-02 -0.20630622579E-01  0.10207843521E+01  0.10205219118E+01 0.  0.
     999903    2    3    3    0    0  0.38642477782E-01  0.11740885454E+00 -0.39079211115E-01  0.13115258456E+00  0.19893101351E-01 0.  0.
         14    1    1    2    0    0  0.10252973295E-01  0.22304631117E-02  0.20630622579E-01  0.23145647865E-01  0.00000000000E+00 0. -1.
     999901    1    3    3    0    0 -0.48895451077E-01 -0.11963931765E+00  0.18448588536E-01  0.88963176758E+00  0.88000000000E+00 0. -1.
        -11    1    4    4    0    0  0.25190118158E-01  0.98727354400E-01 -0.28435632655E-01  0.10578505984E+00  0.51100000000E-03 0. -1.
         11    1    4    4    0    0  0.13452359624E-01  0.18681500139E-01 -0.10643578461E-01  0.25367524719E-01  0.51100000000E-03 0.  1.
</event>
<event>
 8    1  0.1076043E+005  0.1043930E+01  0.7957747E-01            NaN
         13   -1    0    0    0    0  0.00000000000E+00  0.00000000000E+00  0.74505805969E-08  0.10566000000E+00  0.10566000000E+00 0. -1.
     999900   -1    0    0    0    0 -0.00000000000E+00 -0.00000000000E+00 -0.74505805969E-08  0.93827000000E+00  0.93827000000E+00 0.  1.
     999902    2    1    2    0    0 -0.14722223888E-01  0.17486108471E-01  0.26698604910E-02  0.10209161776E+01  0.10206567521E+01 0.  0.
     999903    2    3    3    0    0 -0.56800231219E-01 -0.10190343308E+00  0.54633798993E-01  0.13034070511E+00  0.19831073492E-01 0.  0.
         14    1    1    2    0    0  0.14722223888E-01 -0.17486108471E-01 -0.26698604910E-02  0.23013822384E-01  0.00000000000E+00 0.  1.
     999901    1    3    3    0    0  0.42078007331E-01  0.11938954155E+00 -0.51963938502E-01  0.89057547251E+00  0.88000000000E+00 0.  1.
        -11    1    4    4    0    0 -0.36181680428E-01 -0.44760764507E-01  0.25133893456E-01  0.62806160200E-01  0.51100000000E-03 0. -1.
         11    1    4    4    0    0 -0.20618550792E-01 -0.57142668569E-01  0.29499905538E-01  0.67534544906E-01  0.51100000000E-03 0.  1.
</event>
<event>
 8    1  0.1076043E+005  0.1043930E+01  0.7957747E-01            NaN
         13   -1    0    0    0    0  0.00000000000E+00  0.00000000000E+00  0.74505805969E-08  0.10566000000E+00  0.10566000000E+00 0. -1.
     999900   -1    0    0    0    0 -0.00000000000E+00 -0.00000000000E+00 -0.74505805969E-08  0.93827000000E+00  0.93827000000E+00 0.  1.
     999902    2    1    2    0    0 -0.26235172519E-01 -0.85323765523E-02  0.19963086415E-02  0.10162700836E+01  0.10158936026E+01 0.  0.
     999903    2    3    3    0    0  0.11343527155E+00 -0.45342225502E-01  0.12006144546E-01  0.12443882449E+00  0.20430254200E-01 0.  0.
         14    1    1    2    0    0  0.26235172519E-01  0.85323765523E-02 -0.19963086415E-02  0.27659916394E-01  0.00000000000E+00 0.  1.
     999901    1    3    3    0    0 -0.13967044407E+00  0.36809848950E-01 -0.10009835905E-01  0.89183125912E+00  0.88000000000E+00 0. -1.
        -11    1    4    4    0    0  0.96544664459E-01 -0.37277928944E-01  0.26961489773E-02  0.10352799893E+00  0.51100000000E-03 0. -1.
         11    1    4    4    0    0  0.16890607095E-01 -0.80642965583E-02  0.93099955691E-02  0.20910825558E-01  0.51100000000E-03 0.  1.
</event>
<event>
 8    1  0.1076043E+005  0.1043930E+01  0.7957747E-01            NaN
         13   -1    0    0    0    0  0.00000000000E+00  0.00000000000E+00  0.74505805969E-08  0.10566000000E+00  0.10566000000E+00 0.  1.
     999900   -1    0    0    0    0 -0.00000000000E+00 -0.00000000000E+00 -0.74505805969E-08  0.93827000000E+00  0.93827000000E+00 0.  1.
     999902    2    1    2    0    0 -0.17499948861E-01  0.16274854688E-01  0.46172967270E-02  0.10195899397E+01  0.10192993705E+01 0.  0.
     999903    2    3    3    0    0  0.94271033367E-01  0.44282109576E-01  0.74576496415E-01  0.12932512046E+00  0.17759504609E-01 0.  0.
         14    1    1    2    0    0  0.17499948861E-01 -0.16274854688E-01 -0.46172967270E-02  0.24340060277E-01  0.00000000000E+00 0. -1.
     999901    1    3    3    0    0 -0.11177098223E+00 -0.28007254888E-01 -0.69959199688E-01  0.89026481926E+00  0.88000000000E+00 0.  1.
        -11    1    4    4    0    0  0.60007566582E-01  0.20712473504E-01  0.38338953882E-01  0.74162329464E-01  0.51100000000E-03 0. -1.
         11    1    4    4    0    0  0.34263466785E-01  0.23569636072E-01  0.36237542533E-01  0.55162790997E-01  0.51100000000E-03 0.  1.
</event>
<event>
 8    1  0.1076043E+005  0.1043930E+01  0.7957747E-01            NaN
         13   -1    0    0    0    0  0.00000000000E+00  0.00000000000E+00  0.74505805969E-08  0.10566000000E+00  0.10566000000E+00 0. -1.
     999900   -1    0    0    0    0 -0.00000000000E+00 -0.00000000000E+00 -0.74505805969E-08  0.93827000000E+00  0.93827000000E+00 0. -1.
     999902    2    1    2    0    0 -0.18196405002E-01 -0.52468909116E-02 -0.13482347290E-01  0.10206832216E+01  0.10204184564E+01 0.  0.
     999903    2    3    3    0    0 -0.24578325693E-01 -0.12504217653E+00  0.22409171544E-01  0.13181886718E+00  0.25187353360E-01 0.  0.
         14    1    1    2    0    0  0.18196405002E-01  0.52468909116E-02  0.13482347290E-01  0.23246778437E-01  0.00000000000E+00 0.  1.
     999901    1    3    3    0    0  0.63819206905E-02  0.11979528562E+00 -0.35891518835E-01  0.88886435438E+00  0.88000000000E+00 0.  1.
        -11    1    4    4    0    0 -0.20727502617E-01 -0.50397249611E-01  0.29194298716E-02  0.54573769568E-01  0.51100000000E-03 0. -1.
         11    1    4    4    0    0 -0.38508230754E-02 -0.74644926922E-01  0.19489741673E-01  0.77245097612E-01  0.51100000000E-03 0.  1.
</event>
<event>
 8    1  0.1076043E+005  0.1043930E+01  0.7957747E-01            NaN
         13   -1    0    0    0    0  0.00000000000E+00  0.00000000000E+00  0.74505805969E-08  0.10566000000E+00  0.10566000000E+00 0. -1.
     999900   -1    0    0    0    0 -0.00000000000E+00 -0.00000000000E+00 -0.74505805969E-08  0.93827000000E+00  0.93827000000E+00 0.  1.
     999902    2    1    2    0    0 -0.13462566892E-01  0.13833086906E-01  0.14763609839E-01  0.10196285767E+01  0.10193389403E+01 0.  0.
     999903    2    3    3    0    0  0.64867709409E-01 -0.77905988872E-01  0.77477852084E-01  0.12918780582E+00  0.20236323325E-01 0.  0.
         14    1    1    2    0    0  0.13462566892E-01 -0.13833086906E-01 -0.14763609839E-01  0.24301423336E-01  0.00000000000E+00 0.  1.
     999901    1    3    3    0    0 -0.78330276301E-01  0.91739075778E-01 -0.62714242246E-01  0.89044077085E+00  0.88000000000E+00 0. -1.
        -11    1    4    4    0    0  0.16248657125E-01 -0.91908086180E-02  0.92920037130E-02  0.20858865631E-01  0.51100000000E-03 0. -1.
         11    1    4    4    0    0  0.48619052284E-01 -0.68715180254E-01  0.68185848371E-01  0.10832894018E+00  0.51100000000E-03 0.  1.
</event>
<event>
 8    1  0.1076043E+005  0.1043930E+01  0.7957747E-01            NaN
         13   -1    0    0    0    0  0.00000000000E+00  0.00000000000E+00  0.74505805969E-08  0.10566000000E+00  0.10566000000E+00 0.  1.
     999900   -1    0    0    0    0 -0.00000000000E+00 -0.00000000000E+00 -0.74505805969E-08  0.93827000000E+00  0.93827000000E+00 0. -1.
     999902    2    1    2    0    0  0.15047150930E-01 -0.17934108789E-01 -0.34250537992E-02  0.10202703296E+01  0.10199959635E+01 0.  0.
     999903    2    3    3    0    0 -0.85091633568E-01  0.78301439943E-01  0.50591186895E-01  0.12774200443E+00  0.19668500297E-01 0.  0.
         14    1    1    2    0    0 -0.15047150930E-01  0.17934108789E-01  0.34250537992E-02  0.23659670384E-01  0.00000000000E+00 0.  1.
     999901    1    3    3    0    0  0.10013878450E+00 -0.96235548731E-01 -0.54016240694E-01  0.89252832519E+00  0.88000000000E+00 0.  1.
        -11    1    4    4    0    0 -0.36261866410E-01  0.43974324382E-01  0.18230564769E-01  0.59843786421E-01  0.51100000000E-03 0.  1.
         11    1    4    4    0    0 -0.48829767158E-01  0.34327115561E-01  0.32360622126E-01  0.67898218009E-01  0.51100000000E-03 0. -1.
</event>
<event>
 8    1  0.1076043E+005  0.1043930E+01  0.7957747E-01            NaN
         13   -1    0    0    0    0  0.00000000000E+00  0.00000000000E+00  0.74505805969E-08  0.10566000000E+00  0.10566000000E+00 0.  1.
     999900   -1    0    0    0    0 -0.00000000000E+00 -0.00000000000E+00 -0.74505805969E-08  0.93827000000E+00  0.93827000000E+00 0.  1.
     999902    2    1    2    0    0 -0.13882283733E-01  0.12013604884E-01  0.13585169105E-01  0.10210914071E+01  0.10208359616E+01 0.  0.
     999903    2    3    3    0    0  0.12054270285E+00  0.38517498494E-01  0.24091957112E-01  0.13042708992E+00  0.20412312130E-01 0.  0.
         14    1    1    2    0    0  0.13882283733E-01 -0.12013604884E-01 -0.13585169105E-01  0.22838592854E-01  0.00000000000E+00 0.  1.
     999901    1    3    3    0    0 -0.13442498658E+00 -0.26503893610E-01 -0.10506788006E-01  0.89066431723E+00  0.88000000000E+00 0. -1.
        -11    1    4    4    0    0  0.72299023789E-01  0.21827199919E-01  0.42116697794E-02  0.75641091878E-01  0.51100000000E-03 0.  1.
         11    1    4    4    0    0  0.48243679057E-01  0.16690298575E-01  0.19880287332E-01  0.54785998037E-01  0.51100000000E-03 0. -1.
</event>
<event>
 8    1  0.1076043E+005  0.1043930E+01  0.7957747E-01            NaN
         13   -1    0    0    0    0  0.00000000000E+00  0.00000000000E+00  0.74505805969E-08  0.10566000000E+00  0.10566000000E+00 0. -1.
     999900   -1    0    0    0    0 -0.00000000000E+00 -0.00000000000E+00 -0.74505805969E-08  0.93827000000E+00  0.93827000000E+00 0.  1.
     999902    2    1    2    0    0  0.19839786423E-01  0.41409387638E-04 -0.13600478852E-01  0.10198760634E+01  0.10195923660E+01 0.  0.
     999903    2    3    3    0    0 -0.11753997597E+00  0.27218275055E-01  0.34410705473E-01  0.12751018836E+00  0.22765566897E-01 0.  0.
         14    1    1    2    0    0 -0.19839786423E-01 -0.41409387638E-04  0.13600478852E-01  0.24053936582E-01  0.00000000000E+00 0. -1.
     999901    1    3    3    0    0  0.13737976240E+00 -0.27176865667E-01 -0.48011184325E-01  0.89236587506E+00  0.88000000000E+00 0.  1.
        -11    1    4    4    0    0 -0.86008628943E-01  0.19116366762E-01  0.35353120362E-01  0.94936947345E-01  0.51100000000E-03 0. -1.
         11    1    4    4    0    0 -0.31531347031E-01  0.81019082934E-02 -0.94241488863E-03  0.32573241018E-01  0.51100000000E-03 0.  1.
</event>
<event>
 8    1  0.1076043E+005  0.1043930E+01  0.7957747E-01            NaN
         13   -1    0    0    0    0  0.00000000000E+00  0.00000000000E+00  0.74505805969E-08  0.10566000000E+00  0.10566000000E+00 0.  1.
     999900   -1    0    0    0    0 -0.00000000000E+00 -0.00000000000E+00 -0.74505805969E-08  0.93827000000E+00  0.93827000000E+00 0.  1.
     999902    2    1    2    0    0 -0.24026844059E-01  0.17114100324E-02 -0.47719510365E-02  0.10193741519E+01  0.10190783443E+01 0.  0.
     999903    2    3    3    0    0 -0.97827739649E-01  0.86545353057E-01 -0.44542871756E-02  0.13221944667E+00  0.20044366371E-01 0.  0.
         14    1    1    2    0    0  0.24026844059E-01 -0.17114100324E-02  0.47719510365E-02  0.24555848111E-01  0.00000000000E+00 0. -1.
     999901    1    3    3    0    0  0.73800895590E-01 -0.84833943025E-01 -0.31766386088E-03  0.88715470522E+00  0.88000000000E+00 0.  1.
        -11    1    4    4    0    0 -0.50642390475E-01  0.54922780651E-01  0.38677271188E-02  0.74808983294E-01  0.51100000000E-03 0. -1.
         11    1    4    4    0    0 -0.47185349175E-01  0.31622572406E-01 -0.83220142943E-02  0.57410463378E-01  0.51100000000E-03 0.  1.
</event>
<event>
 8    1  0.1076043E+005  0.1043930E+01  0.7957747E-01            NaN
         13   -1    0    0    0    0  0.00000000000E+00  0.00000000000E+00  0.74505805969E-08  0.10566000000E+00  0.10566000000E+00 0. -1.
     999900   -1    0    0    0    0 -0.00000000000E+00 -0.00000000000E+00 -0.74505805969E-08  0.93827000000E+00  0.93827000000E+00 0. -1.
     999902    2    1    2    0    0 -0.12708522379E-02 -0.16972087091E-01  0.16647142500E-01  0.10201225608E+01  0.10198447161E+01 0.  0.
     999903    2    3    3    0    0 -0.54413566135E-01 -0.10767647462E+00 -0.48322778022E-01  0.13148735755E+00  0.19969350385E-01 0.  0.
         14    1    1    2    0    0  0.12708522379E-02  0.16972087091E-01 -0.16647142500E-01  0.23807439154E-01  0.00000000000E+00 0.  1.
     999901    1    3    3    0    0  0.53142713897E-01  0.90704387529E-01  0.64969920522E-01  0.88863520329E+00  0.88000000000E+00 0.  1.
        -11    1    4    4    0    0 -0.31228094892E-01 -0.52662738167E-01 -0.14696084812E-01  0.62966609657E-01  0.51100000000E-03 0.  1.
         11    1    4    4    0    0 -0.23185471243E-01 -0.55013736452E-01 -0.33626693210E-01  0.68520747898E-01  0.51100000000E-03 0. -1.
</event>
<event>
 8    1  0.1076043E+005  0.1043930E+01  0.7957747E-01            NaN
         13   -1    0    0    0    0  0.00000000000E+00  0.00000000000E+00  0.74505805969E-08  0.10566000000E+00  0.10566000000E+00 0.  1.
     999900   -1    0    0    0    0 -0.00000000000E+00 -0.00000000000E+00 -0.74505805969E-08  0.93827000000E+00  0.93827000000E+00 0.  1.
     999902    2    1    2    0    0  0.77195290458E-02 -0.19927468740E-01  0.87879860503E-03  0.10225415118E+01  0.10223177960E+01 0.  0.
     999903    2    3    3    0    0  0.96429545310E-01 -0.77827434741E-01 -0.48466358697E-01  0.13481586863E+00  0.21692480321E-01 0.  0.
         14    1    1    2    0    0 -0.77195290458E-02  0.19927468740E-01 -0.87879860503E-03  0.21388488167E-01  0.00000000000E+00 0. -1.
     999901    1    3    3    0    0 -0.88710016264E-01  0.57899966001E-01  0.49345157302E-01  0.88772564320E+00  0.88000000000E+00 0.  1.
        -11    1    4    4    0    0  0.61832691475E-01 -0.36665247205E-01 -0.24552305959E-01  0.75965116577E-01  0.51100000000E-03 0. -1.
         11    1    4    4    0    0  0.34596853835E-01 -0.41162187536E-01 -0.23914052737E-01  0.58850752054E-01  0.51100000000E-03 0.  1.
</event>
<event>
 8    1  0.1076043E+005  0.1043930E+01  0.7957747E-01            NaN
         13   -1    0    0    0    0  0.00000000000E+00  0.00000000000E+00  0.74505805969E-08  0.10566000000E+00  0.10566000000E+00 0. -1.
     999900   -1    0    0    0    0 -0.00000000000E+00 -0.00000000000E+00 -0.74505805969E-08  0.93827000000E+00  0.93827000000E+00 0.  1.
     999902    2    1    2    0    0 -0.16984505147E-02 -0.21257715980E-01 -0.96063184499E-02  0.10205407594E+01  0.10202727013E+01 0.  0.
     999903    2    3    3    0    0 -0.74887919236E-01 -0.39776823612E-01 -0.10011517441E+00  0.13268293929E+00  0.19781761466E-01 0.  0.
         14    1    1    2    0    0  0.16984505147E-02  0.21257715980E-01  0.96063184499E-02  0.23389240625E-01  0.00000000000E+00 0. -1.
     999901    1    3    3    0    0  0.73189468721E-01  0.18519107632E-01  0.90508855964E-01  0.88785782009E+00  0.88000000000E+00 0. -1.
        -11    1    4    4    0    0 -0.40814168697E-01 -0.10538386943E-01 -0.49727923845E-01  0.65191882138E-01  0.51100000000E-03 0. -1.
         11    1    4    4    0    0 -0.34073750539E-01 -0.29238436669E-01 -0.50387250569E-01  0.67491057152E-01  0.51100000000E-03 0.  1.
</event>
<event>
 8    1  0.1076043E+005  0.1043930E+01  0.7957747E-01            NaN
         13   -1    0    0    0    0  0.00000000000E+00  0.00000000000E+00  0.74505805969E-08  0.10566000000E+00  0.10566000000E+00 0. -1.
     999900   -1    0    0    0    0 -0.00000000000E+00 -0.00000000000E+00 -0.74505805969E-08  0.93827000000E+00  0.93827000000E+00 0.  1.
     999902    2    1    2    0    0  0.10038955930E-02  0.20756954000E-01  0.11653027226E-01  0.10201045516E+01  0.10198262814E+01 0.  0.
     999903    2    3    3    0    0  0.42618348470E-01 -0.11360444696E+00  0.37510373099E-01  0.12855906706E+00  0.19952735050E-01 0.  0.
         14    1    1    2    0    0 -0.10038955930E-02 -0.20756954000E-01 -0.11653027226E-01  0.23825448353E-01  0.00000000000E+00 0. -1.
     999901    1    3    3    0    0 -0.41614452877E-01  0.13436140096E+00 -0.25857345873E-01  0.89154548459E+00  0.88000000000E+00 0. -1.
        -11    1    4    4    0    0  0.38679917295E-01 -0.80372941140E-01  0.23237810161E-01  0.92174848041E-01  0.51100000000E-03 0. -1.
         11    1    4    4    0    0  0.39384311747E-02 -0.33231505825E-01  0.14272562938E-01  0.36384219015E-01  0.51100000000E-03 0.  1.
</event>
<event>
 8    1  0.1076043E+005  0.1043930E+01  0.7957747E-01            NaN
         13   -1    0    0    0    0  0.00000000000E+00  0.00000000000E+00  0.74505805969E-08  0.10566000000E+00  0.10566000000E+00 0. -1.
     999900   -1    0    0    0    0 -0.00000000000E+00 -0.00000000000E+00 -0.74505805969E-08  0.93827000000E+00  0.93827000000E+00 0.  1.
     999902    2    1    2    0    0  0.64097047071E-02  0.14751324342E-01 -0.16805586719E-01  0.10206681508E+01  0.10204030382E+01 0.  0.
     999903    2    3    3    0    0  0.90205523036E-01 -0.85174173030E-01  0.32354008052E-01  0.12970041289E+00  0.19589260577E-01 0.  0.
         14    1    1    2    0    0 -0.64097047071E-02 -0.14751324342E-01  0.16805586719E-01  0.23261849222E-01  0.00000000000E+00 0. -1.
     999901    1    3    3    0    0 -0.83795818329E-01  0.99925497372E-01 -0.49159594770E-01  0.89096773789E+00  0.88000000000E+00 0.  1.
        -11    1    4    4    0    0  0.62419403151E-01 -0.65390095581E-01  0.15757574660E-01  0.91763875081E-01  0.51100000000E-03 0.  1.
         11    1    4    4    0    0  0.27786119885E-01 -0.19784077450E-01  0.16596433391E-01  0.37936537812E-01  0.51100000000E-03 0. -1.
</event>
<event>
 8    1  0.1076043E+005  0.1043930E+01  0.7957747E-01            NaN
         13   -1    0    0    0    0  0.00000000000E+00  0.00000000000E+00  0.74505805969E-08  0.10566000000E+00  0.10566000000E+00 0.  1.
     999900   -1    0    0    0    0 -0.00000000000E+00 -0.00000000000E+00 -0.74505805969E-08  0.93827000000E+00  0.93827000000E+00 0.  1.
     999902    2    1    2    0    0 -0.79140336759E-02  0.94105324131E-02  0.18470289332E-01  0.10217412272E+01  0.10215002662E+01 0.  0.
     999903    2    3    3    0    0  0.12524809471E+00 -0.28187317248E-01 -0.11392580432E-01  0.13042896896E+00  0.20007872801E-01 0.  0.
         14    1    1    2    0    0  0.79140336759E-02 -0.94105324131E-02 -0.18470289332E-01  0.22188772776E-01  0.00000000000E+00 0. -1.
     999901    1    3    3    0    0 -0.13316212838E+00  0.37597849661E-01  0.29862869764E-01  0.89131225826E+00  0.88000000000E+00 0.  1.
        -11    1    4    4    0    0  0.94787517449E-01 -0.27281432384E-01 -0.14875991034E-01  0.99752224272E-01  0.51100000000E-03 0. -1.
         11    1    4    4    0    0  0.30460577260E-01 -0.90588486422E-03  0.34834106019E-02  0.30676744691E-01  0.51100000000E-03 0.  1.
</event>
<event>
 8    1  0.1076043E+005  0.1043930E+01  0.7957747E-01            NaN
         13   -1    0    0    0    0  0.00000000000E+00  0.00000000000E+00  0.74505805969E-08  0.10566000000E+00  0.10566000000E+00 0. -1.
     999900   -1    0    0    0    0 -0.00000000000E+00 -0.00000000000E+00 -0.74505805969E-08  0.93827000000E+00  0.93827000000E+00 0.  1.
     999902    2    1    2    0    0  0.80219821825E-02 -0.82622511397E-02  0.21969365085E-01  0.10191253635E+01  0.10188234570E+01 0.  0.
     999903    2    3    3    0    0 -0.12044474697E+00  0.25626859180E-01 -0.27388654675E-01  0.12778458327E+00  0.20373716737E-01 0.  0.
         14    1    1    2    0    0 -0.80219821825E-02  0.82622511397E-02 -0.21969365085E-01  0.24804636548E-01  0.00000000000E+00 0.  1.
     999901    1    3    3    0    0  0.12846672915E+00 -0.33889110320E-01  0.49358019760E-01  0.89134078018E+00  0.88000000000E+00 0.  1.
        -11    1    4    4    0    0 -0.34575697568E-01  0.93478022460E-02 -0.17376811524E-01  0.39812999998E-01  0.51100000000E-03 0.  1.
         11    1    4    4    0    0 -0.85869049400E-01  0.16279056934E-01 -0.10011843152E-01  0.87971583274E-01  0.51100000000E-03 0. -1.
</event>
<event>
 8    1  0.1076043E+005  0.1043930E+01  0.7957747E-01            NaN
         13   -1    0    0    0    0  0.00000000000E+00  0.00000000000E+00  0.74505805969E-08  0.10566000000E+00  0.10566000000E+00 0. -1.
     999900   -1    0    0    0    0 -0.00000000000E+00 -0.00000000000E+00 -0.74505805969E-08  0.93827000000E+00  0.93827000000E+00 0.  1.
     999902    2    1    2    0    0  0.22617057305E-01  0.37881773232E-02  0.65897575087E-02  0.10200698560E+01  0.10197907651E+01 0.  0.
     999903    2    3    3    0    0  0.74224307510E-01  0.10526929697E+00  0.24278196331E-01  0.13255951419E+00  0.19791949782E-01 0.  0.
         14    1    1    2    0    0 -0.22617057305E-01 -0.37881773232E-02 -0.65897575087E-02  0.23860144019E-01  0.00000000000E+00 0. -1.
     999901    1    3    3    0    0 -0.51607250205E-01 -0.10148111964E+00 -0.17688438822E-01  0.88751034179E+00  0.88000000000E+00 0. -1.
        -11    1    4    4    0    0  0.51565932448E-01  0.56938378614E-01  0.17075166279E-01  0.78694642593E-01  0.51100000000E-03 0. -1.
         11    1    4    4    0    0  0.22658375061E-01  0.48330918353E-01  0.72030300523E-02  0.53864871597E-01  0.51100000000E-03 0.  1.
</event>
<event>
 8    1  0.1076043E+005  0.1043930E+01  0.7957747E-01            NaN
         13   -1    0    0    0    0  0.00000000000E+00  0.00000000000E+00  0.74505805969E-08  0.10566000000E+00  0.10566000000E+00 0.  1.
     999900   -1    0    0    0    0 -0.00000000000E+00 -0.00000000000E+00 -0.74505805969E-08  0.93827000000E+00  0.93827000000E+00 0.  1.
     999902    2    1    2    0    0 -0.27753983476E-02 -0.14346266849E-01 -0.18535489653E-01  0.10203274030E+01  0.10200543744E+01 0.  0.
     999903    2    3    3    0    0  0.25023302345E-01 -0.47876392004E-01  0.11533464443E+00  0.12913816953E+00  0.21360525546E-01 0.  0.
         14    1    1    2    0    0  0.27753983476E-02  0.14346266849E-01  0.18535489653E-01  0.23602597000E-01  0.00000000000E+00 0.  1.
     999901    1    3    3    0    0 -0.27798700693E-01  0.33530125155E-01 -0.13387013408E+00  0.89118923347E+00  0.88000000000E+00 0.  1.
        -11    1    4    4    0    0  0.57299106607E-02 -0.13149807846E-01  0.13012287485E-01  0.19373437205E-01  0.51100000000E-03 0.  1.
         11    1    4    4    0    0  0.19293391685E-01 -0.34726584158E-01  0.10232235695E+00  0.10976473232E+00  0.51100000000E-03 0. -1.
</event>
<event>
 8    1  0.1076043E+005  0.1043930E+01  0.7957747E-01            NaN
         13   -1    0    0    0    0  0.00000000000E+00  0.00000000000E+00  0.74505805969E-08  0.10566000000E+00  0.10566000000E+00 0. -1.
     999900   -1    0    0    0    0 -0.00000000000E+00 -0.00000000000E+00 -0.74505805969E-08  0.93827000000E+00  0.93827000000E+00 0. -1.
     999902    2    1    2    0    0 -0.15466508136E-01 -0.40494740888E-02 -0.18037817866E-01  0.10198265980E+01  0.10195417186E+01 0.  0.
     999903    2    3    3    0    0 -0.29435176577E-01 -0.10434703628E+00  0.68454621471E-01  0.12980656074E+00  0.20223115685E-01 0.  0.
         14    1    1    2    0    0  0.15466508136E-01  0.40494740888E-02  0.18037817866E-01  0.24103401994E-01  0.00000000000E+00 0.  1.
     999901    1    3    3    0    0  0.13968668441E-01  0.10029756219E+00 -0.86492439338E-01  0.89002003727E+00  0.88000000000E+00 0.  1.
        -11    1    4    4    0    0 -0.52460006118E-02 -0.46510715937E-01  0.21670236037E-01  0.51581270538E-01  0.51100000000E-03 0. -1.
         11    1    4    4    0    0 -0.24189175965E-01 -0.57836320347E-01  0.46784385434E-01  0.78225290198E-01  0.51100000000E-03 0.  1.
</event>
<event>
 8    1  0.1076043E+005  0.1043930E+01  0.7957747E-01            NaN
         13   -1    0    0    0    0  0.00000000000E+00  0.00000000000E+00  0.74505805969E-08  0.10566000000E+00  0.10566000000E+00 0.  1.
     999900   -1    0    0    0    0 -0.00000000000E+00 -0.00000000000E+00 -0.74505805969E-08  0.93827000000E+00  0.93827000000E+00 0.  1.
     999902    2    1    2    0    0 -0.45384292964E-02 -0.16007946794E-01  0.77574549275E-02  0.10255716284E+01  0.10254073021E+01 0.  0.
     999903    2    3    3    0    0  0.11088993482E+00  0.67818236122E-01  0.25388143371E-01  0.13390948534E+00  0.19781345845E-01 0.  0.
         14    1    1    2    0    0  0.45384292964E-02  0.16007946794E-01 -0.77574549275E-02  0.18358371605E-01  0.00000000000E+00 0. -1.
     999901    1    3    3    0    0 -0.11542836412E+00 -0.83826182917E-01 -0.17630688444E-01  0.89166214306E+00  0.88000000000E+00 0.  1.
        -11    1    4    4    0    0  0.63052792613E-01  0.33903196109E-01  0.47766124690E-02  0.71750669059E-01  0.51100000000E-03 0.  1.
         11    1    4    4    0    0  0.47837142212E-01  0.33915040013E-01  0.20611530902E-01  0.62158816279E-01  0.51100000000E-03 0. -1.
</event>
<event>
 8    1  0.1076043E+005  0.1043930E+01  0.7957747E-01            NaN
         13   -1    0    0    0    0  0.00000000000E+00  0.00000000000E+00  0.74505805969E-08  0.10566000000E+00  0.10566000000E+00 0. -1.
     999900   -1    0    0    0    0 -0.00000000000E+00 -0.00000000000E+00 -0.74505805969E-08  0.93827000000E+00  0.93827000000E+00 0.  1.
     999902    2    1    2    0    0 -0.64848466168E-02  0.19200728602E-02  0.22592819492E-01  0.10203466286E+01  0.10200740498E+01 0.  0.
     999903    2    3    3    0    0  0.96480258071E-01  0.76634473918E-01 -0.34239982634E-01  0.12938421527E+00  0.19662552253E-01 0.  0.
         14    1    1    2    0    0  0.64848466168E-02 -0.19200728602E-02 -0.22592819492E-01  0.23583371430E-01  0.00000000000E+00 0.  1.
     999901    1    3    3    0    0 -0.10296510469E+00 -0.74714401058E-01  0.56832802126E-01  0.89096241330E+00  0.88000000000E+00 0. -1.
        -11    1    4    4    0    0  0.61350257848E-01  0.56815592251E-01 -0.16099092346E-01  0.85154609717E-01  0.51100000000E-03 0. -1.
         11    1    4    4    0    0  0.35130000223E-01  0.19818881667E-01 -0.18140890288E-01  0.44229605556E-01  0.51100000000E-03 0.  1.
</event>
<event>
 8    1  0.1076043E+005  0.1043930E+01  0.7957747E-01            NaN
         13   -1    0    0    0    0  0.00000000000E+00  0.00000000000E+00  0.74505805969E-08  0.10566000000E+00  0.10566000000E+00 0. -1.
     999900   -1    0    0    0    0 -0.00000000000E+00 -0.00000000000E+00 -0.74505805969E-08  0.93827000000E+00  0.93827000000E+00 0. -1.
     999902    2    1    2    0    0 -0.65418982481E-02 -0.21366059345E-01  0.63973622642E-02  0.10206871265E+01  0.10204224513E+01 0.  0.
     999903    2    3    3    0    0 -0.65624767564E-01 -0.94486309646E-01 -0.63278913741E-01  0.13294158870E+00  0.20855988407E-01 0.  0.
         14    1    1    2    0    0  0.65418982481E-02  0.21366059345E-01 -0.63973622642E-02  0.23242873501E-01  0.00000000000E+00 0.  1.
     999901    1    3    3    0    0  0.59082869316E-01  0.73120250301E-01  0.69676276006E-01  0.88774553780E+00  0.88000000000E+00 0. -1.
        -11    1    4    4    0    0 -0.50525454626E-01 -0.58094061360E-01 -0.47687428603E-01  0.90565410053E-01  0.51100000000E-03 0. -1.
         11    1    4    4    0    0 -0.15099312938E-01 -0.36392248287E-01 -0.15591485139E-01  0.42376178643E-01  0.51100000000E-03 0.  1.
</event>
<event>
 8    1  0.1076043E+005  0.1043930E+01  0.7957747E-01            NaN
         13   -1    0    0    0    0  0.00000000000E+00  0.00000000000E+00  0.74505805969E-08  0.10566000000E+00  0.10566000000E+00 0. -1.
     999900   -1    0    0    0    0 -0.00000000000E+00 -0.00000000000E+00 -0.74505805969E-08  0.93827000000E+00  0.93827000000E+00 0. -1.
     999902    2    1    2    0    0  0.15910901556E-01 -0.12937880626E-01 -0.11673114828E-01  0.10203332385E+01  0.10200603465E+01 0.  0.
     999903    2    3    3    0    0 -0.78893452340E-02  0.23971322794E-02  0.12729347235E+00  0.12897846810E+00  0.19074305195E-01 0.  0.
         14    1    1    2    0    0 -0.15910901556E-01  0.12937880626E-01  0.11673114828E-01  0.23596761498E-01  0.00000000000E+00 0. -1.
     999901    1    3    3    0    0  0.23800246790E-01 -0.15335012905E-01 -0.13896658718E+00  0.89135477040E+00  0.88000000000E+00 0. -1.
        -11    1    4    4    0    0 -0.10169711915E-01  0.34285211941E-02  0.34157070041E-01  0.35807043340E-01  0.51100000000E-03 0.  1.
         11    1    4    4    0    0  0.22803666812E-02 -0.10313889147E-02  0.93136402310E-01  0.93171424758E-01  0.51100000000E-03 0. -1.
</event>
<event>
 8    1  0.1076043E+005  0.1043930E+01  0.7957747E-01            NaN
         13   -1    0    0    0    0  0.00000000000E+00  0.00000000000E+00  0.74505805969E-08  0.10566000000E+00  0.10566000000E+00 0. -1.
     999900   -1    0    0    0    0 -0.00000000000E+00 -0.00000000000E+00 -0.74505805969E-08  0.93827000000E+00  0.93827000000E+00 0. -1.
     999902    2    1    2    0    0 -0.78632620888E-02 -0.22095865236E-01  0.47348198338E-02  0.10200035153E+01  0.10197228518E+01 0.  0.
     999903    2    3    3    0    0 -0.88231481388E-01  0.28235864304E-01 -0.89466345530E-01  0.12991015322E+00  0.17040028911E-01 0.  0.
         14    1    1    2    0    0  0.78632620888E-02  0.22095865236E-01 -0.47348198338E-02  0.23926484699E-01  0.00000000000E+00 0. -1.
     999901    1    3    3    0    0  0.80368219299E-01 -0.50331729540E-01  0.94201165363E-01  0.89009336208E+00  0.88000000000E+00 0.  1.
        -11    1    4    4    0    0 -0.33354631483E-01  0.24754099436E-02 -0.34966271261E-01  0.48389671860E-01  0.51100000000E-03 0. -1.
         11    1    4    4    0    0 -0.54876849904E-01  0.25760454360E-01 -0.54500074268E-01  0.81520481356E-01  0.51100000000E-03 0.  1.
</event>
<event>
 8    1  0.1076043E+005  0.1043930E+01  0.7957747E-01            NaN
         13   -1    0    0    0    0  0.00000000000E+00  0.00000000000E+00  0.74505805969E-08  0.10566000000E+00  0.10566000000E+00 0. -1.
     999900   -1    0    0    0    0 -0.00000000000E+00 -0.00000000000E+00 -0.74505805969E-08  0.93827000000E+00  0.93827000000E+00 0.  1.
     999902    2    1    2    0    0 -0.19572135812E-01 -0.74428185846E-02  0.76607884522E-02  0.10216331005E+01  0.10213897592E+01 0.  0.
     999903    2    3    3    0    0  0.63327878014E-01 -0.48387427949E-01 -0.10032571181E+00  0.13022412724E+00  0.23266102965E-01 0.  0.
         14    1    1    2    0    0  0.19572135812E-01  0.74428185846E-02 -0.76607884522E-02  0.22296899526E-01  0.00000000000E+00 0. -1.
     999901    1    3    3    0    0 -0.82900013826E-01  0.40944609364E-01  0.10798650026E+00  0.89140897324E+00  0.88000000000E+00 0. -1.
        -11    1    4    4    0    0  0.59615668011E-01 -0.37924360125E-01 -0.77743434573E-01  0.10505516505E+00  0.51100000000E-03 0.  1.
         11    1    4    4    0    0  0.37122100025E-02 -0.10463067824E-01 -0.22582277238E-01  0.25168962188E-01  0.51100000000E-03 0. -1.
</event>
<event>
 8    1  0.1076043E+005  0.1043930E+01  0.7957747E-01            NaN
         13   -1    0    0    0    0  0.00000000000E+00  0.00000000000E+00  0.74505805969E-08  0.10566000000E+00  0.10566000000E+00 0.  1.
     999900   -1    0    0    0    0 -0.00000000000E+00 -0.00000000000E+00 -0.74505805969E-08  0.93827000000E+00  0.93827000000E+00 0.  1.
     999902    2    1    2    0    0 -0.22688553841E-01  0.12757513711E-02 -0.59676126235E-02  0.10204350981E+01  0.10201645842E+01 0.  0.
     999903    2    3    3    0    0  0.32491774077E-01  0.47508323158E-01  0.11415083540E+00  0.12936228350E+00  0.19784615668E-01 0.  0.
         14    1    1    2    0    0  0.22688553841E-01 -0.12757513711E-02  0.59676126235E-02  0.23494901944E-01  0.00000000000E+00 0.  1.
     999901    1    3    3    0    0 -0.55180327917E-01 -0.46232571787E-01 -0.12011844803E+00  0.89107281456E+00  0.88000000000E+00 0.  1.
        -11    1    4    4    0    0  0.98107104911E-03  0.15621029382E-01  0.36125363055E-01  0.39373621071E-01  0.51100000000E-03 0.  1.
         11    1    4    4    0    0  0.31510703028E-01  0.31887293776E-01  0.78025472349E-01  0.89988662430E-01  0.51100000000E-03 0. -1.
</event>
<event>
 8    1  0.1076043E+005  0.1043930E+01  0.7957747E-01            NaN
         13   -1    0    0    0    0  0.00000000000E+00  0.00000000000E+00  0.74505805969E-08  0.10566000000E+00  0.10566000000E+00 0. -1.
     999900   -1    0    0    0    0 -0.00000000000E+00 -0.00000000000E+00 -0.74505805969E-08  0.93827000000E+00  0.93827000000E+00 0.  1.
     999902    2    1    2    0    0  0.53109306418E-02  0.15796253196E-01  0.15374546589E-01  0.10212561322E+01  0.10210043992E+01 0.  0.
     999903    2    3    3    0    0  0.25928750624E-02  0.21297928491E-01  0.13052783419E+00  0.13373264747E+00  0.19661656653E-01 0.  0.
         14    1    1    2    0    0 -0.53109306418E-02 -0.15796253196E-01 -0.15374546589E-01  0.22673867825E-01  0.00000000000E+00 0.  1.
     999901    1    3    3    0    0  0.27180555794E-02 -0.55016752952E-02 -0.11515328760E+00  0.88752348470E+00  0.88000000000E+00 0.  1.
        -11    1    4    4    0    0  0.43728611379E-02  0.15441246480E-01  0.12287470294E+00  0.12391935987E+00  0.51100000000E-03 0. -1.
         11    1    4    4    0    0 -0.17799860755E-02  0.58566820109E-02  0.76531312534E-02  0.98132876034E-02  0.51100000000E-03 0.  1.
</event>
<event>
 8    1  0.1076043E+005  0.1043930E+01  0.7957747E-01            NaN
         13   -1    0    0    0    0  0.00000000000E+00  0.00000000000E+00  0.74505805969E-08  0.10566000000E+00  0.10566000000E+00 0. -1.
     999900   -1    0    0    0    0 -0.00000000000E+00 -0.00000000000E+00 -0.74505805969E-08  0.93827000000E+00  0.93827000000E+00 0. -1.
     999902    2    1    2    0    0 -0.62923166609E-02  0.18688363273E-01  0.68143602587E-02  0.10230665469E+01  0.10228537900E+01 0.  0.
     999903    2    3    3    0    0  0.11475808059E-01 -0.50167707450E-01  0.12081900819E+00  0.13286773510E+00  0.20201714017E-01 0.  0.
         14    1    1    2    0    0  0.62923166609E-02 -0.18688363273E-01 -0.68143602587E-02  0.20863453130E-01  0.00000000000E+00 0.  1.
     999901    1    3    3    0    0 -0.17768124720E-01  0.68856070723E-01 -0.11400464793E+00  0.89019881177E+00  0.88000000000E+00 0. -1.
        -11    1    4    4    0    0  0.46669675584E-02 -0.36132324892E-01  0.61068007527E-01  0.71111800375E-01  0.51100000000E-03 0.  1.
         11    1    4    4    0    0  0.68088405004E-02 -0.14035382558E-01  0.59751000661E-01  0.61755934723E-01  0.51100000000E-03 0. -1.
</event>
<event>
 8    1  0.1076043E+005  0.1043930E+01  0.7957747E-01            NaN
         13   -1    0    0    0    0  0.00000000000E+00  0.00000000000E+00  0.74505805969E-08  0.10566000000E+00  0.10566000000E+00 0.  1.
     999900   -1    0    0    0    0 -0.00000000000E+00 -0.00000000000E+00 -0.74505805969E-08  0.93827000000E+00  0.93827000000E+00 0.  1.
     999902    2    1    2    0    0  0.16447110094E-01  0.33002922331E-02 -0.15317207239E-01  0.10212140101E+01  0.10209613304E+01 0.  0.
     999903    2    3    3    0    0  0.11367656034E+00  0.34068371742E-01  0.55699945925E-01  0.13248251142E+00  0.19134197998E-01 0.  0.
         14    1    1    2    0    0 -0.16447110094E-01 -0.33002922331E-02  0.15317207239E-01  0.22715989894E-01  0.00000000000E+00 0.  1.
     999901    1    3    3    0    0 -0.97229450244E-01 -0.30768079509E-01 -0.71017153164E-01  0.88873149868E+00  0.88000000000E+00 0.  1.
        -11    1    4    4    0    0  0.69860719089E-01  0.30459095352E-01  0.34056165452E-01  0.83476703862E-01  0.51100000000E-03 0. -1.
         11    1    4    4    0    0  0.43815841249E-01  0.36092763897E-02  0.21643780472E-01  0.49005807559E-01  0.51100000000E-03 0.  1.
</event>
<event>
 8    1  0.1076043E+005  0.1043930E+01  0.7957747E-01            NaN
         13   -1    0    0    0    0  0.00000000000E+00  0.00000000000E+00  0.74505805969E-08  0.10566000000E+00  0.10566000000E+00 0.  1.
     999900   -1    0    0    0    0 -0.00000000000E+00 -0.00000000000E+00 -0.74505805969E-08  0.93827000000E+00  0.93827000000E+00 0.  1.
     999902    2    1    2    0    0  0.20588186808E-01  0.11058853159E-01 -0.46663357939E-02  0.10200983748E+01  0.10198199586E+01 0.  0.
     999903    2    3    3    0    0  0.95267939323E-01  0.39554206776E-01 -0.81696918860E-01  0.13312443983E+00  0.20179553822E-01 0.  0.
         14    1    1    2    0    0 -0.20588186808E-01 -0.11058853159E-01  0.46663357939E-02  0.23831625186E-01  0.00000000000E+00 0.  1.
     999901    1    3    3    0    0 -0.74679752515E-01 -0.28495353616E-01  0.77030583066E-01  0.88697393498E+00  0.88000000000E+00 0. -1.
        -11    1    4    4    0    0  0.66402672857E-01  0.28498735506E-01 -0.44941942237E-01  0.85097192557E-01  0.51100000000E-03 0. -1.
         11    1    4    4    0    0  0.28865266466E-01  0.11055471269E-01 -0.36754976623E-01  0.48027247274E-01  0.51100000000E-03 0.  1.
</event>
<event>
 8    1  0.1076043E+005  0.1043930E+01  0.7957747E-01            NaN
         13   -1    0    0    0    0  0.00000000000E+00  0.00000000000E+00  0.74505805969E-08  0.10566000000E+00  0.10566000000E+00 0. -1.
     999900   -1    0    0    0    0 -0.00000000000E+00 -0.00000000000E+00 -0.74505805969E-08  0.93827000000E+00  0.93827000000E+00 0.  1.
     999902    2    1    2    0    0 -0.17281325904E-01  0.12975498839E-01  0.97998612709E-02  0.10202014291E+01  0.10199254438E+01 0.  0.
     999903    2    3    3    0    0 -0.36931397953E-01 -0.27406005308E-02 -0.12223280126E+00  0.12999597806E+00  0.24221014897E-01 0.  0.
         14    1    1    2    0    0  0.17281325904E-01 -0.12975498839E-01 -0.97998612709E-02  0.23728570882E-01  0.00000000000E+00 0.  1.
     999901    1    3    3    0    0  0.19650072048E-01  0.15716099370E-01  0.13203266253E+00  0.89020545105E+00  0.88000000000E+00 0. -1.
        -11    1    4    4    0    0 -0.28797983023E-01 -0.12480712436E-01 -0.91847817832E-01  0.97063766517E-01  0.51100000000E-03 0. -1.
         11    1    4    4    0    0 -0.81334149301E-02  0.97401119051E-02 -0.30384983430E-01  0.32932211547E-01  0.51100000000E-03 0.  1.
</event>
<event>
 8    1  0.1076043E+005  0.1043930E+01  0.7957747E-01            NaN
         13   -1    0    0    0    0  0.00000000000E+00  0.00000000000E+00  0.74505805969E-08  0.10566000000E+00  0.10566000000E+00 0.  1.
     999900   -1    0    0    0    0 -0.00000000000E+00 -0.00000000000E+00 -0.74505805969E-08  0.93827000000E+00  0.93827000000E+00 0. -1.
     999902    2    1    2    0    0  0.22276739889E-01 -0.24846647752E-02 -0.11188832688E-01  0.10188777211E+01  0.10185696805E+01 0.  0.
     999903    2    3    3    0    0 -0.35176993925E-01  0.32596646957E-01  0.11583538908E+00  0.12721254694E+00  0.21569247600E-01 0.  0.
         14    1    1    2    0    0 -0.22276739889E-01  0.24846647752E-02  0.11188832688E-01  0.25052278859E-01  0.00000000000E+00 0.  1.
     999901    1    3    3    0    0  0.57453733813E-01 -0.35081311733E-01 -0.12702422177E+00  0.89166517420E+00  0.88000000000E+00 0.  1.
        -11    1    4    4    0    0 -0.32898805200E-01  0.23612940557E-01  0.73975344140E-01  0.84335727939E-01  0.51100000000E-03 0.  1.
         11    1    4    4    0    0 -0.22781887244E-02  0.89837064001E-02  0.41860044940E-01  0.42876819004E-01  0.51100000000E-03 0. -1.
</event>
<event>
 8    1  0.1076043E+005  0.1043930E+01  0.7957747E-01            NaN
         13   -1    0    0    0    0  0.00000000000E+00  0.00000000000E+00  0.74505805969E-08  0.10566000000E+00  0.10566000000E+00 0.  1.
     999900   -1    0    0    0    0 -0.00000000000E+00 -0.00000000000E+00 -0.74505805969E-08  0.93827000000E+00  0.93827000000E+00 0.  1.
     999902    2    1    2    0    0  0.21006976043E-01  0.97090415361E-02 -0.31412012175E-02  0.10205756498E+01  0.10203084000E+01 0.  0.
     999903    2    3    3    0    0 -0.35467526103E-01 -0.10691591793E+00 -0.60150061872E-01  0.12926158572E+00  0.20039178721E-01 0.  0.
         14    1    1    2    0    0 -0.21006976043E-01 -0.97090415361E-02  0.31412012175E-02  0.23354350240E-01  0.00000000000E+00 0. -1.
     999901    1    3    3    0    0  0.56474502147E-01  0.11662495947E+00  0.57008860654E-01  0.89131406404E+00  0.88000000000E+00 0.  1.
        -11    1    4    4    0    0 -0.14833249792E-01 -0.73593606238E-01 -0.42544968725E-01  0.86292407912E-01  0.51100000000E-03 0. -1.
         11    1    4    4    0    0 -0.20634276312E-01 -0.33322311697E-01 -0.17605093147E-01  0.42969177807E-01  0.51100000000E-03 0.  1.
</event>
<event>
 8    1  0.1076043E+005  0.1043930E+01  0.7957747E-01            NaN
         13   -1    0    0    0    0  0.00000000000E+00  0.00000000000E+00  0.74505805969E-08  0.10566000000E+00  0.10566000000E+00 0. -1.
     999900   -1    0    0    0    0 -0.00000000000E+00 -0.00000000000E+00 -0.74505805969E-08  0.93827000000E+00  0.93827000000E+00 0. -1.
     999902    2    1    2    0    0 -0.52597137073E-02 -0.12840604165E-01 -0.19179249276E-01  0.10202574567E+01  0.10199827884E+01 0.  0.
     999903    2    3    3    0    0 -0.10573431944E+00  0.51832279813E-01  0.49649813533E-01  0.12951890459E+00  0.21064451672E-01 0.  0.
         14    1    1    2    0    0  0.52597137073E-02  0.12840604165E-01  0.19179249276E-01  0.23672543302E-01  0.00000000000E+00 0. -1.
     999901    1    3    3    0    0  0.10047460574E+00 -0.64672883978E-01 -0.68829062809E-01  0.89073855211E+00  0.88000000000E+00 0.  1.
        -11    1    4    4    0    0 -0.65795664463E-01  0.27417832080E-01  0.19730687431E-01  0.73961937006E-01  0.51100000000E-03 0. -1.
         11    1    4    4    0    0 -0.39938654979E-01  0.24414447733E-01  0.29919126102E-01  0.55556967587E-01  0.51100000000E-03 0.  1.
</event>
<event>
 8    1  0.1105102E+005  0.1043930E+01  0.7957747E-01            NaN
         13   -1    0    0    0    0  0.00000000000E+00  0.00000000000E+00  0.74505805969E-08  0.10566000000E+00  0.10566000000E+00 0.  1.
     999900   -1    0    0    0    0 -0.00000000000E+00 -0.00000000000E+00 -0.74505805969E-08  0.93827000000E+00  0.93827000000E+00 0.  1.
     999902    2    1    2    0    0 -0.21000678573E-01 -0.10893559060E-01  0.26660212115E-03  0.10202705578E+01  0.10199961970E+01 0.  0.
     999903    2    3    3    0    0 -0.13033354777E+00  0.16818505071E-01 -0.25675954931E-02  0.13306727360E+00  0.20751167896E-01 0.  0.
         14    1    1    2    0    0  0.21000678573E-01  0.10893559060E-01 -0.26660212115E-03  0.23659442221E-01  0.00000000000E+00 0. -1.
     999901    1    3    3    0    0  0.10933286920E+00 -0.27712064131E-01  0.28341976143E-02  0.88720328418E+00  0.88000000000E+00 0. -1.
        -11    1    4    4    0    0 -0.49353746543E-01 -0.37181014546E-02 -0.65880401842E-03  0.49500623430E-01  0.51100000000E-03 0.  1.
         11    1    4    4    0    0 -0.80979801227E-01  0.20536606526E-01 -0.19087914747E-02  0.83566650167E-01  0.51100000000E-03 0. -1.
</event>
<event>
 8    1  0.1076043E+005  0.1043930E+01  0.7957747E-01            NaN
         13   -1    0    0    0    0  0.00000000000E+00  0.00000000000E+00  0.74505805969E-08  0.10566000000E+00  0.10566000000E+00 0.  1.
     999900   -1    0    0    0    0 -0.00000000000E+00 -0.00000000000E+00 -0.74505805969E-08  0.93827000000E+00  0.93827000000E+00 0.  1.
     999902    2    1    2    0    0  0.20452412935E-01 -0.75317397138E-02  0.87365828824E-02  0.10204490252E+01  0.10201788357E+01 0.  0.
     999903    2    3    3    0    0  0.48041731865E-01  0.91390453204E-01 -0.77466320171E-01  0.13029302129E+00  0.17748737934E-01 0.  0.
         14    1    1    2    0    0 -0.20452412935E-01  0.75317397138E-02 -0.87365828824E-02  0.23480974819E-01  0.00000000000E+00 0.  1.
     999901    1    3    3    0    0 -0.27589318930E-01 -0.98922192918E-01  0.86202903054E-01  0.89015600389E+00  0.88000000000E+00 0. -1.
        -11    1    4    4    0    0  0.33593879745E-02  0.19013551210E-01 -0.10154141228E-01  0.21821281408E-01  0.51100000000E-03 0. -1.
         11    1    4    4    0    0  0.44682343891E-01  0.72376901993E-01 -0.67312178943E-01  0.10847173988E+00  0.51100000000E-03 0.  1.
</event>
<event>
 8    1  0.1076043E+005  0.1043930E+01  0.7957747E-01            NaN
         13   -1    0    0    0    0  0.00000000000E+00  0.00000000000E+00  0.74505805969E-08  0.10566000000E+00  0.10566000000E+00 0. -1.
     999900   -1    0    0    0    0 -0.00000000000E+00 -0.00000000000E+00 -0.74505805969E-08  0.93827000000E+00  0.93827000000E+00 0. -1.
     999902    2    1    2    0    0 -0.15053086578E-01  0.16800762296E-01 -0.37834821508E-02  0.10210569642E+01  0.10208007388E+01 0.  0.
     999903    2    3    3    0    0 -0.12914148998E+00  0.27636425143E-01  0.33795468948E-02  0.13359717111E+00  0.19886838879E-01 0.  0.
         14    1    1    2    0    0  0.15053086578E-01 -0.16800762296E-01  0.37834821508E-02  0.22873035794E-01  0.00000000000E+00 0.  1.
     999901    1    3    3    0    0  0.11408840341E+00 -0.10835662847E-01 -0.71630290456E-02  0.88745979310E+00  0.88000000000E+00 0. -1.
        -11    1    4    4    0    0 -0.95005610395E-01  0.29020946538E-01  0.40461237744E-02  0.99422902709E-01  0.51100000000E-03 0.  1.
         11    1    4    4    0    0 -0.34135879590E-01 -0.13845213944E-02 -0.66657687960E-03  0.34174268399E-01  0.51100000000E-03 0. -1.
</event>
<event>
 8    1  0.1076043E+005  0.1043930E+01  0.7957747E-01            NaN
         13   -1    0    0    0    0  0.00000000000E+00  0.00000000000E+00  0.74505805969E-08  0.10566000000E+00  0.10566000000E+00 0.  1.
     999900   -1    0    0    0    0 -0.00000000000E+00 -0.00000000000E+00 -0.74505805969E-08  0.93827000000E+00  0.93827000000E+00 0.  1.
     999902    2    1    2    0    0 -0.11670698830E-02  0.23110777876E-01  0.52941046968E-02  0.10201918945E+01  0.10199156848E+01 0.  0.
     999903    2    3    3    0    0  0.40953485440E-01  0.74170000810E-01 -0.98717650533E-01  0.13159770671E+00  0.19859629764E-01 0.  0.
         14    1    1    2    0    0  0.11670698830E-02 -0.23110777876E-01 -0.52941046968E-02  0.23738105457E-01  0.00000000000E+00 0. -1.
     999901    1    3    3    0    0 -0.42120555323E-01 -0.51059222934E-01  0.10401175523E+00  0.88859418783E+00  0.88000000000E+00 0. -1.
        -11    1    4    4    0    0  0.31540462911E-01  0.64376205170E-01 -0.71908104721E-01  0.10153882626E+00  0.51100000000E-03 0. -1.
         11    1    4    4    0    0  0.94130225289E-02  0.97937956403E-02 -0.26809545812E-01  0.30058880449E-01  0.51100000000E-03 0.  1.
</event>
<event>
 8    1  0.1076043E+005  0.1043930E+01  0.7957747E-01            NaN
         13   -1    0    0    0    0  0.00000000000E+00  0.00000000000E+00  0.74505805969E-08  0.10566000000E+00  0.10566000000E+00 0.  1.
     999900   -1    0    0    0    0 -0.00000000000E+00 -0.00000000000E+00 -0.74505805969E-08  0.93827000000E+00  0.93827000000E+00 0.  1.
     999902    2    1    2    0    0  0.34346982377E-02  0.15288557469E-02  0.24354138769E-01  0.10192873819E+01  0.10189894544E+01 0.  0.
     999903    2    3    3    0    0 -0.95901868399E-02 -0.12678979118E+00  0.16293806540E-01  0.12984919307E+00  0.20680956925E-01 0.  0.
         14    1    1    2    0    0 -0.34346982377E-02 -0.15288557469E-02 -0.24354138769E-01  0.24642618105E-01  0.00000000000E+00 0. -1.
     999901    1    3    3    0    0  0.13024885078E-01  0.12831864693E+00  0.80603322292E-02  0.88943818882E+00  0.88000000000E+00 0.  1.
        -11    1    4    4    0    0 -0.11978008071E-02 -0.41036737077E-01 -0.42288350465E-02  0.41274600950E-01  0.51100000000E-03 0. -1.
         11    1    4    4    0    0 -0.83923860327E-02 -0.85753054101E-01  0.20522641587E-01  0.88574592123E-01  0.51100000000E-03 0.  1.
</event>
<event>
 7    1  0.1076043E+005  0.1043930E+01  0.7957747E-01            NaN
         13   -1    0    0    0    0  0.00000000000E+00  0.00000000000E+00  0.74505805969E-08  0.10566000000E+00  0.10566000000E+00 0. -1.
     999900   -1    0    0    0    0 -0.00000000000E+00 -0.00000000000E+00 -0.74505805969E-08  0.93827000000E+00  0.93827000000E+00 0.  1.
     999903    2    1    2    0    0 -0.13095408368E+00 -0.46071905254E-01 -0.38243388146E-01  0.14537199825E+00  0.19971696266E-01 0.  0.
         14    1    1    2    0    0  0.58754079277E-02 -0.28383329209E-02 -0.34731161414E-02  0.73918257432E-02  0.00000000000E+00 0.  1.
     999901    1    1    2    0    0  0.12507867575E+00  0.48910238175E-01  0.41716504288E-01  0.89116617601E+00  0.88000000000E+00 0.  1.
        -11    1    3    3    0    0 -0.88295958993E-01 -0.23647363708E-01 -0.31617743576E-01  0.96722887750E-01  0.51100000000E-03 0.  1.
         11    1    3    3    0    0 -0.42658124689E-01 -0.22424541547E-01 -0.66256445700E-02  0.48649110501E-01  0.51100000000E-03 0. -1.
</event>
<event>
 8    1  0.1076043E+005  0.1043930E+01  0.7957747E-01            NaN
         13   -1    0    0    0    0  0.00000000000E+00  0.00000000000E+00  0.74505805969E-08  0.10566000000E+00  0.10566000000E+00 0.  1.
     999900   -1    0    0    0    0 -0.00000000000E+00 -0.00000000000E+00 -0.74505805969E-08  0.93827000000E+00  0.93827000000E+00 0.  1.
     999902    2    1    2    0    0  0.19811884823E-01  0.63056369098E-02 -0.11089545736E-01  0.10203662596E+01  0.10200941397E+01 0.  0.
     999903    2    3    3    0    0 -0.54734673631E-01  0.62530155779E-01  0.95606681584E-01  0.12901757876E+00  0.24474337326E-01 0.  0.
         14    1    1    2    0    0 -0.19811884823E-01 -0.63056369098E-02  0.11089545736E-01  0.23563740402E-01  0.00000000000E+00 0. -1.
     999901    1    3    3    0    0  0.74546558455E-01 -0.56224518869E-01 -0.10669622732E+00  0.89134868083E+00  0.88000000000E+00 0.  1.
        -11    1    4    4    0    0 -0.19230095471E-01  0.27808309114E-01  0.22419134727E-01  0.40570646414E-01  0.51100000000E-03 0. -1.
         11    1    4    4    0    0 -0.35504578161E-01  0.34721846665E-01  0.73187546857E-01  0.88446932350E-01  0.51100000000E-03 0.  1.
</event>
<event>
 8    1  0.1076043E+005  0.1043930E+01  0.7957747E-01            NaN
         13   -1    0    0    0    0  0.00000000000E+00  0.00000000000E+00  0.74505805969E-08  0.10566000000E+00  0.10566000000E+00 0.  1.
     999900   -1    0    0    0    0 -0.00000000000E+00 -0.00000000000E+00 -0.74505805969E-08  0.93827000000E+00  0.93827000000E+00 0. -1.
     999902    2    1    2    0    0 -0.19410625684E-01  0.37037326233E-02 -0.13024985063E-01  0.10202627175E+01  0.10199881727E+01 0.  0.
     999903    2    3    3    0    0  0.74070513007E-01  0.93242682281E-01 -0.48437983824E-01  0.13008856192E+00  0.19903692328E-01 0.  0.
         14    1    1    2    0    0  0.19410625684E-01 -0.37037326233E-02  0.13024985063E-01  0.23667282495E-01  0.00000000000E+00 0.  1.
     999901    1    3    3    0    0 -0.93481138692E-01 -0.89538949658E-01  0.35412998761E-01  0.89017415559E+00  0.88000000000E+00 0.  1.
        -11    1    4    4    0    0  0.23961300069E-01  0.21026893108E-01 -0.20291650185E-01  0.37792675520E-01  0.51100000000E-03 0.  1.
         11    1    4    4    0    0  0.50109212939E-01  0.72215789174E-01 -0.28146333639E-01  0.92295886396E-01  0.51100000000E-03 0. -1.
</event>
<event>
 8    1  0.1076043E+005  0.1043930E+01  0.7957747E-01            NaN
         13   -1    0    0    0    0  0.00000000000E+00  0.00000000000E+00  0.74505805969E-08  0.10566000000E+00  0.10566000000E+00 0.  1.
     999900   -1    0    0    0    0 -0.00000000000E+00 -0.00000000000E+00 -0.74505805969E-08  0.93827000000E+00  0.93827000000E+00 0.  1.
     999902    2    1    2    0    0 -0.19253989800E-02 -0.10924155630E-01  0.22483570440E-01  0.10188589953E+01  0.10185504882E+01 0.  0.
     999903    2    3    3    0    0 -0.12605121322E-01 -0.12771418829E+00 -0.10963856994E-01  0.13044878677E+00  0.20660997940E-01 0.  0.
         14    1    1    2    0    0  0.19253989800E-02  0.10924155630E-01 -0.22483570440E-01  0.25071004710E-01  0.00000000000E+00 0.  1.
     999901    1    3    3    0    0  0.10679722342E-01  0.11679003266E+00  0.33447427433E-01  0.88841020852E+00  0.88000000000E+00 0. -1.
        -11    1    4    4    0    0 -0.62827057533E-02 -0.71879874166E-01 -0.16390507584E-01  0.73993908949E-01  0.51100000000E-03 0.  1.
         11    1    4    4    0    0 -0.63224155685E-02 -0.55834314124E-01  0.54266505900E-02  0.56454877822E-01  0.51100000000E-03 0. -1.
</event>
<event>
 8    1  0.1076043E+005  0.1043930E+01  0.7957747E-01            NaN
         13   -1    0    0    0    0  0.00000000000E+00  0.00000000000E+00  0.74505805969E-08  0.10566000000E+00  0.10566000000E+00 0.  1.
     999900   -1    0    0    0    0 -0.00000000000E+00 -0.00000000000E+00 -0.74505805969E-08  0.93827000000E+00  0.93827000000E+00 0. -1.
     999902    2    1    2    0    0  0.10186619818E-01  0.75304736494E-02  0.20022326095E-01  0.10202367774E+01  0.10199616233E+01 0.  0.
     999903    2    3    3    0    0 -0.67430597438E-01  0.87765914985E-01 -0.63663726687E-01  0.12924546770E+00  0.20039449139E-01 0.  0.
         14    1    1    2    0    0 -0.10186619818E-01 -0.75304736494E-02 -0.20022326095E-01  0.23693222638E-01  0.00000000000E+00 0. -1.
     999901    1    3    3    0    0  0.77617217256E-01 -0.80235441336E-01  0.83686052782E-01  0.89099130966E+00  0.88000000000E+00 0.  1.
        -11    1    4    4    0    0 -0.64586844150E-01  0.77055282717E-01 -0.61736712879E-01  0.11798584606E+00  0.51100000000E-03 0.  1.
         11    1    4    4    0    0 -0.28437532879E-02  0.10710632269E-01 -0.19270138074E-02  0.11259621644E-01  0.51100000000E-03 0. -1.
</event>
<event>
 8    1  0.1076043E+005  0.1043930E+01  0.7957747E-01            NaN
         13   -1    0    0    0    0  0.00000000000E+00  0.00000000000E+00  0.74505805969E-08  0.10566000000E+00  0.10566000000E+00 0. -1.
     999900   -1    0    0    0    0 -0.00000000000E+00 -0.00000000000E+00 -0.74505805969E-08  0.93827000000E+00  0.93827000000E+00 0.  1.
     999902    2    1    2    0    0 -0.12136475906E-01  0.20768091013E-01  0.30122933999E-02  0.10196878556E+01  0.10193996475E+01 0.  0.
     999903    2    3    3    0    0 -0.18675487493E-01 -0.74857458536E-01 -0.10097485559E+00  0.12839647143E+00  0.18366259367E-01 0.  0.
         14    1    1    2    0    0  0.12136475906E-01 -0.20768091013E-01 -0.30122933999E-02  0.24242144362E-01  0.00000000000E+00 0.  1.
     999901    1    3    3    0    0  0.65390115866E-02  0.95625549549E-01  0.10398714899E+00  0.89129138420E+00  0.88000000000E+00 0.  1.
        -11    1    4    4    0    0 -0.10211829335E-01 -0.46034344681E-01 -0.46736994659E-01  0.66393148286E-01  0.51100000000E-03 0.  1.
         11    1    4    4    0    0 -0.84636581577E-02 -0.28823113855E-01 -0.54237860935E-01  0.62003323149E-01  0.51100000000E-03 0. -1.
</event>
<event>
 8    1  0.1076043E+005  0.1043930E+01  0.7957747E-01            NaN
         13   -1    0    0    0    0  0.00000000000E+00  0.00000000000E+00  0.74505805969E-08  0.10566000000E+00  0.10566000000E+00 0.  1.
     999900   -1    0    0    0    0 -0.00000000000E+00 -0.00000000000E+00 -0.74505805969E-08  0.93827000000E+00  0.93827000000E+00 0.  1.
     999902    2    1    2    0    0  0.73216904346E-02 -0.14483919079E-01 -0.17110402935E-01  0.10203470199E+01  0.10200744502E+01 0.  0.
     999903    2    3    3    0    0  0.46403845206E-01 -0.82177832873E-01 -0.93471823612E-01  0.13358834507E+00  0.14225015410E-01 0.  0.
         14    1    1    2    0    0 -0.73216904346E-02  0.14483919079E-01  0.17110402935E-01  0.23582980119E-01  0.00000000000E+00 0.  1.
     999901    1    3    3    0    0 -0.39082154772E-01  0.67693913794E-01  0.76361420677E-01  0.88675867481E+00  0.88000000000E+00 0.  1.
        -11    1    4    4    0    0  0.30913151307E-01 -0.61317024612E-01 -0.59837012955E-01  0.91083092127E-01  0.51100000000E-03 0. -1.
         11    1    4    4    0    0  0.15490693899E-01 -0.20860808261E-01 -0.33634810657E-01  0.42505252943E-01  0.51100000000E-03 0.  1.
</event>
<event>
 8    1  0.1076043E+005  0.1043930E+01  0.7957747E-01            NaN
         13   -1    0    0    0    0  0.00000000000E+00  0.00000000000E+00  0.74505805969E-08  0.10566000000E+00  0.10566000000E+00 0. -1.
     999900   -1    0    0    0    0 -0.00000000000E+00 -0.00000000000E+00 -0.74505805969E-08  0.93827000000E+00  0.93827000000E+00 0.  1.
     999902    2    1    2    0    0  0.17632678455E-01 -0.14271762394E-01 -0.12100553740E-03  0.10212450007E+01  0.10209930177E+01 0.  0.
     999903    2    3    3    0    0 -0.46967363264E-01 -0.10221446738E+00  0.66125777759E-01  0.13203427142E+00  0.20166799259E-01 0.  0.
         14    1    1    2    0    0 -0.17632678455E-01  0.14271762394E-01  0.12100553740E-03  0.22684999310E-01  0.00000000000E+00 0. -1.
     999901    1    3    3    0    0  0.64600041719E-01  0.87942704983E-01 -0.66246783297E-01  0.88921072927E+00  0.88000000000E+00 0.  1.
        -11    1    4    4    0    0 -0.19054419578E-01 -0.21067927867E-01  0.18258618215E-01  0.33772277835E-01  0.51100000000E-03 0.  1.
         11    1    4    4    0    0 -0.27912943686E-01 -0.81146539510E-01  0.47867159544E-01  0.98261993586E-01  0.51100000000E-03 0. -1.
</event>
<event>
 8    1  0.1076043E+005  0.1043930E+01  0.7957747E-01            NaN
         13   -1    0    0    0    0  0.00000000000E+00  0.00000000000E+00  0.74505805969E-08  0.10566000000E+00  0.10566000000E+00 0.  1.
     999900   -1    0    0    0    0 -0.00000000000E+00 -0.00000000000E+00 -0.74505805969E-08  0.93827000000E+00  0.93827000000E+00 0.  1.
     999902    2    1    2    0    0 -0.50876797940E-02 -0.22573049067E-01 -0.58207085738E-02  0.10200698307E+01  0.10197907393E+01 0.  0.
     999903    2    3    3    0    0  0.12354852150E+00 -0.37519703946E-02  0.33658369627E-01  0.12964290901E+00  0.19901848288E-01 0.  0.
         14    1    1    2    0    0  0.50876797940E-02  0.22573049067E-01  0.58207085738E-02  0.23860169282E-01  0.00000000000E+00 0.  1.
     999901    1    3    3    0    0 -0.12863620129E+00 -0.18821078672E-01 -0.39479078201E-01  0.89042692171E+00  0.88000000000E+00 0.  1.
        -11    1    4    4    0    0  0.41242928705E-01 -0.96919559544E-02  0.15740104418E-01  0.45198729921E-01  0.51100000000E-03 0. -1.
         11    1    4    4    0    0  0.82305592791E-01  0.59399855598E-02  0.17918265208E-01  0.84444179090E-01  0.51100000000E-03 0.  1.
</event>
<event>
 8    1  0.1076043E+005  0.1043930E+01  0.7957747E-01            NaN
         13   -1    0    0    0    0  0.00000000000E+00  0.00000000000E+00  0.74505805969E-08  0.10566000000E+00  0.10566000000E+00 0. -1.
     999900   -1    0    0    0    0 -0.00000000000E+00 -0.00000000000E+00 -0.74505805969E-08  0.93827000000E+00  0.93827000000E+00 0. -1.
     999902    2    1    2    0    0 -0.18999141081E-01 -0.11316059348E-01  0.53078284615E-02  0.10211881091E+01  0.10209348463E+01 0.  0.
     999903    2    3    3    0    0  0.11634681512E+00 -0.14584616085E-01  0.50922036878E-01  0.12966701153E+00  0.21706856607E-01 0.  0.
         14    1    1    2    0    0  0.18999141081E-01  0.11316059348E-01 -0.53078284615E-02  0.22741890949E-01  0.00000000000E+00 0.  1.
     999901    1    3    3    0    0 -0.13534595620E+00  0.32685567364E-02 -0.45614208417E-01  0.89152109752E+00  0.88000000000E+00 0. -1.
        -11    1    4    4    0    0  0.61086177984E-01 -0.43598014995E-02  0.15293766424E-01  0.63124396411E-01  0.51100000000E-03 0. -1.
         11    1    4    4    0    0  0.55260637134E-01 -0.10224814585E-01  0.35628270455E-01  0.66542615115E-01  0.51100000000E-03 0.  1.
</event>
<event>
 8    1  0.1076043E+005  0.1043930E+01  0.7957747E-01            NaN
         13   -1    0    0    0    0  0.00000000000E+00  0.00000000000E+00  0.74505805969E-08  0.10566000000E+00  0.10566000000E+00 0. -1.
     999900   -1    0    0    0    0 -0.00000000000E+00 -0.00000000000E+00 -0.74505805969E-08  0.93827000000E+00  0.93827000000E+00 0. -1.
     999902    2    1    2    0    0  0.30000831187E-02 -0.20517752479E-01 -0.11308606386E-01  0.10203108712E+01  0.10200374555E+01 0.  0.
     999903    2    3    3    0    0 -0.41869876470E-01  0.32618862442E-01 -0.11825361619E+00  0.13111232858E+00  0.19734442526E-01 0.  0.
         14    1    1    2    0    0 -0.30000831187E-02  0.20517752479E-01  0.11308606386E-01  0.23619128770E-01  0.00000000000E+00 0. -1.
     999901    1    3    3    0    0  0.44869959589E-01 -0.53136614921E-01  0.10694500981E+00  0.88919854264E+00  0.88000000000E+00 0.  1.
        -11    1    4    4    0    0 -0.25054797132E-01  0.16075714955E-01 -0.86995459171E-01  0.91949130001E-01  0.51100000000E-03 0. -1.
         11    1    4    4    0    0 -0.16815079338E-01  0.16543147487E-01 -0.31258157021E-01  0.39163198584E-01  0.51100000000E-03 0.  1.
</event>
<event>
 8    1  0.1076043E+005  0.1043930E+01  0.7957747E-01            NaN
         13   -1    0    0    0    0  0.00000000000E+00  0.00000000000E+00  0.74505805969E-08  0.10566000000E+00  0.10566000000E+00 0. -1.
     999900   -1    0    0    0    0 -0.00000000000E+00 -0.00000000000E+00 -0.74505805969E-08  0.93827000000E+00  0.93827000000E+00 0. -1.
     999902    2    1    2    0    0  0.22020608575E-01  0.38699769263E-02  0.24479894941E-02  0.10214382998E+01  0.10211906403E+01 0.  0.
     999903    2    3    3    0    0  0.70266979306E-01 -0.20620848470E-01 -0.10890125773E+00  0.13277291418E+00  0.20161721953E-01 0.  0.
         14    1    1    2    0    0 -0.22020608575E-01 -0.38699769263E-02 -0.24479894941E-02  0.22491700158E-01  0.00000000000E+00 0.  1.
     999901    1    3    3    0    0 -0.48246370731E-01  0.24490825396E-01  0.11134924722E+00  0.88866538566E+00  0.88000000000E+00 0.  1.
        -11    1    4    4    0    0  0.34755121485E-01  0.21850550642E-03 -0.51265816805E-01  0.61938770635E-01  0.51100000000E-03 0. -1.
         11    1    4    4    0    0  0.35511857821E-01 -0.20839353976E-01 -0.57635440925E-01  0.70834143544E-01  0.51100000000E-03 0.  1.
</event>
<event>
 8    1  0.1076043E+005  0.1043930E+01  0.7957747E-01            NaN
         13   -1    0    0    0    0  0.00000000000E+00  0.00000000000E+00  0.74505805969E-08  0.10566000000E+00  0.10566000000E+00 0. -1.
     999900   -1    0    0    0    0 -0.00000000000E+00 -0.00000000000E+00 -0.74505805969E-08  0.93827000000E+00  0.93827000000E+00 0.  1.
     999902    2    1    2    0    0  0.10155110264E-01 -0.17013395533E-01  0.63324957987E-03  0.10241062038E+01  0.10239143195E+01 0.  0.
     999903    2    3    3    0    0  0.45500715702E-01 -0.43778539205E-01  0.11788132834E+00  0.13522331119E+00  0.20061423065E-01 0.  0.
         14    1    1    2    0    0 -0.10155110264E-01  0.17013395533E-01 -0.63324957987E-03  0.19823796232E-01  0.00000000000E+00 0.  1.
     999901    1    3    3    0    0 -0.35345605438E-01  0.26765143672E-01 -0.11724807876E+00  0.88888289257E+00  0.88000000000E+00 0.  1.
        -11    1    4    4    0    0  0.17235413165E-01 -0.27988398014E-01  0.71061561906E-01  0.78296976902E-01  0.51100000000E-03 0. -1.
         11    1    4    4    0    0  0.28265302537E-01 -0.15790141191E-01  0.46819766430E-01  0.56926334291E-01  0.51100000000E-03 0.  1.
</event>
<event>
 8    1  0.1076043E+005  0.1043930E+01  0.7957747E-01            NaN
         13   -1    0    0    0    0  0.00000000000E+00  0.00000000000E+00  0.74505805969E-08  0.10566000000E+00  0.10566000000E+00 0. -1.
     999900   -1    0    0    0    0 -0.00000000000E+00 -0.00000000000E+00 -0.74505805969E-08  0.93827000000E+00  0.93827000000E+00 0. -1.
     999902    2    1    2    0    0 -0.12499309460E-01  0.18054366596E-01 -0.73719712932E-02  0.10207666917E+01  0.10205038462E+01 0.  0.
     999903    2    3    3    0    0 -0.73946888002E-01  0.42490766995E-01 -0.10046049372E+00  0.13338942381E+00  0.20659623966E-01 0.  0.
         14    1    1    2    0    0  0.12499309460E-01 -0.18054366596E-01  0.73719712932E-02  0.23163308290E-01  0.00000000000E+00 0. -1.
     999901    1    3    3    0    0  0.61447578542E-01 -0.24436400398E-01  0.93088522424E-01  0.88737726790E+00  0.88000000000E+00 0.  1.
        -11    1    4    4    0    0 -0.37108149455E-01  0.16280153742E-01 -0.61787663394E-01  0.73892047140E-01  0.51100000000E-03 0. -1.
         11    1    4    4    0    0 -0.36838738547E-01  0.26210613253E-01 -0.38672830323E-01  0.59497376673E-01  0.51100000000E-03 0.  1.
</event>
<event>
 8    1  0.1076043E+005  0.1043930E+01  0.7957747E-01            NaN
         13   -1    0    0    0    0  0.00000000000E+00  0.00000000000E+00  0.74505805969E-08  0.10566000000E+00  0.10566000000E+00 0.  1.
     999900   -1    0    0    0    0 -0.00000000000E+00 -0.00000000000E+00 -0.74505805969E-08  0.93827000000E+00  0.93827000000E+00 0. -1.
     999902    2    1    2    0    0  0.30619514197E-02 -0.21124346950E-01  0.10825690348E-01  0.10199965683E+01  0.10197157399E+01 0.  0.
     999903    2    3    3    0    0  0.78584639977E-01 -0.32075742905E-01 -0.96435206522E-01  0.13020529529E+00  0.21196012390E-01 0.  0.
         14    1    1    2    0    0 -0.30619514197E-02  0.21124346950E-01 -0.10825690348E-01  0.23933431682E-01  0.00000000000E+00 0. -1.
     999901    1    3    3    0    0 -0.75522688558E-01  0.10951395955E-01  0.10726089687E+00  0.88979127303E+00  0.88000000000E+00 0.  1.
        -11    1    4    4    0    0  0.20738507543E-01 -0.80331741776E-02 -0.12654665384E-01  0.25593344046E-01  0.51100000000E-03 0. -1.
         11    1    4    4    0    0  0.57846132434E-01 -0.24042568728E-01 -0.83780541137E-01  0.10461195124E+00  0.51100000000E-03 0.  1.
</event>
<event>
 8    1  0.1076043E+005  0.1043930E+01  0.7957747E-01            NaN
         13   -1    0    0    0    0  0.00000000000E+00  0.00000000000E+00  0.74505805969E-08  0.10566000000E+00  0.10566000000E+00 0.  1.
     999900   -1    0    0    0    0 -0.00000000000E+00 -0.00000000000E+00 -0.74505805969E-08  0.93827000000E+00  0.93827000000E+00 0. -1.
     999902    2    1    2    0    0 -0.24145297600E-02  0.21861286023E-01 -0.69405613881E-02  0.10208666704E+01  0.10206061148E+01 0.  0.
     999903    2    3    3    0    0 -0.43922352365E-01 -0.11577638637E+00  0.28181201590E-01  0.12850992198E+00  0.19679310081E-01 0.  0.
         14    1    1    2    0    0  0.24145297600E-02 -0.21861286023E-01  0.69405613881E-02  0.23063329615E-01  0.00000000000E+00 0. -1.
     999901    1    3    3    0    0  0.41507822605E-01  0.13763767239E+00 -0.35121762978E-01  0.89235674841E+00  0.88000000000E+00 0. -1.
        -11    1    4    4    0    0 -0.31301793682E-01 -0.64561896173E-01  0.86945124879E-02  0.72276527266E-01  0.51100000000E-03 0. -1.
         11    1    4    4    0    0 -0.12620558684E-01 -0.51214490195E-01  0.19486689102E-01  0.56233394709E-01  0.51100000000E-03 0.  1.
</event>
<event>
 8    1  0.1076043E+005  0.1043930E+01  0.7957747E-01            NaN
         13   -1    0    0    0    0  0.00000000000E+00  0.00000000000E+00  0.74505805969E-08  0.10566000000E+00  0.10566000000E+00 0. -1.
     999900   -1    0    0    0    0 -0.00000000000E+00 -0.00000000000E+00 -0.74505805969E-08  0.93827000000E+00  0.93827000000E+00 0. -1.
     999902    2    1    2    0    0  0.21543651748E-01 -0.77942632650E-02  0.22277119831E-02  0.10209116992E+01  0.10206521716E+01 0.  0.
     999903    2    3    3    0    0  0.12828452904E+00 -0.32065969310E-01 -0.98792074232E-02  0.13404682332E+00  0.19641927655E-01 0.  0.
         14    1    1    2    0    0 -0.21543651748E-01  0.77942632650E-02 -0.22277119831E-02  0.23018300788E-01  0.00000000000E+00 0. -1.
     999901    1    3    3    0    0 -0.10674087730E+00  0.24271706045E-01  0.12106919406E-01  0.88686487590E+00  0.88000000000E+00 0.  1.
        -11    1    4    4    0    0  0.73841606693E-01 -0.23191493874E-01 -0.14287241976E-01  0.78707144983E-01  0.51100000000E-03 0. -1.
         11    1    4    4    0    0  0.54442922351E-01 -0.88744754356E-02  0.44080345527E-02  0.55339678333E-01  0.51100000000E-03 0.  1.
</event>
<event>
 8    1  0.1076043E+005  0.1043930E+01  0.7957747E-01            NaN
         13   -1    0    0    0    0  0.00000000000E+00  0.00000000000E+00  0.74505805969E-08  0.10566000000E+00  0.10566000000E+00 0.  1.
     999900   -1    0    0    0    0 -0.00000000000E+00 -0.00000000000E+00 -0.74505805969E-08  0.93827000000E+00  0.93827000000E+00 0. -1.
     999902    2    1    2    0    0 -0.12062750135E-01 -0.15481439991E-01  0.13572375608E-01  0.10200680155E+01  0.10197888811E+01 0.  0.
     999903    2    3    3    0    0 -0.12534263266E+00 -0.91391047698E-02 -0.33464966049E-01  0.13153829257E+00  0.19700752807E-01 0.  0.
         14    1    1    2    0    0  0.12062750135E-01  0.15481439991E-01 -0.13572375608E-01  0.23861984508E-01  0.00000000000E+00 0. -1.
     999901    1    3    3    0    0  0.11327988253E+00 -0.63423352208E-02  0.47037341657E-01  0.88852972292E+00  0.88000000000E+00 0. -1.
        -11    1    4    4    0    0 -0.93184560902E-01 -0.14964097668E-01 -0.27583223475E-01  0.98327930660E-01  0.51100000000E-03 0.  1.
         11    1    4    4    0    0 -0.32158071761E-01  0.58249928980E-02 -0.58817425743E-02  0.33210361913E-01  0.51100000000E-03 0. -1.
</event>
<event>
 8    1  0.1076043E+005  0.1043930E+01  0.7957747E-01            NaN
         13   -1    0    0    0    0  0.00000000000E+00  0.00000000000E+00  0.74505805969E-08  0.10566000000E+00  0.10566000000E+00 0.  1.
     999900   -1    0    0    0    0 -0.00000000000E+00 -0.00000000000E+00 -0.74505805969E-08  0.93827000000E+00  0.93827000000E+00 0. -1.
     999902    2    1    2    0    0 -0.21894571323E-01  0.97685714681E-02 -0.19489119206E-02  0.10198759879E+01  0.10195922887E+01 0.  0.
     999903    2    3    3    0    0  0.46138239291E-01  0.11959638594E+00  0.13363107348E-01  0.13031144828E+00  0.19247552061E-01 0.  0.
         14    1    1    2    0    0  0.21894571323E-01 -0.97685714681E-02  0.19489119206E-02  0.24054012131E-01  0.00000000000E+00 0.  1.
     999901    1    3    3    0    0 -0.68032810614E-01 -0.10982781448E+00 -0.15312019268E-01  0.88956453958E+00  0.88000000000E+00 0. -1.
        -11    1    4    4    0    0  0.67042593233E-02  0.15694482232E-01 -0.47217600762E-02  0.17714965561E-01  0.51100000000E-03 0. -1.
         11    1    4    4    0    0  0.39433979968E-01  0.10390190371E+00  0.18084867424E-01  0.11259648272E+00  0.51100000000E-03 0.  1.
</event>
<event>
 8    1  0.1076043E+005  0.1043930E+01  0.7957747E-01            NaN
         13   -1    0    0    0    0  0.00000000000E+00  0.00000000000E+00  0.74505805969E-08  0.10566000000E+00  0.10566000000E+00 0. -1.
     999900   -1    0    0    0    0 -0.00000000000E+00 -0.00000000000E+00 -0.74505805969E-08  0.93827000000E+00  0.93827000000E+00 0.  1.
     999902    2    1    2    0    0  0.20532223338E-01 -0.44810324241E-02  0.19867192742E-01  0.10150101592E+01  0.10145980810E+01 0.  0.
     999903    2    3    3    0    0 -0.77516140804E-01 -0.20577545208E-01  0.95467113412E-01  0.12619750880E+00  0.19484712775E-01 0.  0.
         14    1    1    2    0    0 -0.20532223338E-01  0.44810324241E-02 -0.19867192742E-01  0.28919840841E-01  0.00000000000E+00 0.  1.
     999901    1    3    3    0    0  0.98048364142E-01  0.16096512784E-01 -0.75599920669E-01  0.88881265036E+00  0.88000000000E+00 0.  1.
        -11    1    4    4    0    0 -0.30770817280E-01 -0.12481371834E-01  0.26498079320E-01  0.42485728987E-01  0.51100000000E-03 0. -1.
         11    1    4    4    0    0 -0.46745323524E-01 -0.80961733747E-02  0.68969034092E-01  0.83711779812E-01  0.51100000000E-03 0.  1.
</event>
<event>
 8    1  0.1076043E+005  0.1043930E+01  0.7957747E-01            NaN
         13   -1    0    0    0    0  0.00000000000E+00  0.00000000000E+00  0.74505805969E-08  0.10566000000E+00  0.10566000000E+00 0. -1.
     999900   -1    0    0    0    0 -0.00000000000E+00 -0.00000000000E+00 -0.74505805969E-08  0.93827000000E+00  0.93827000000E+00 0. -1.
     999902    2    1    2    0    0  0.13305438580E-01 -0.19231132924E-01  0.43966357465E-02  0.10201350095E+01  0.10198574586E+01 0.  0.
     999903    2    3    3    0    0 -0.46177945560E-02  0.12301587817E+00 -0.31534141186E-01  0.12780856964E+00  0.13652769171E-01 0.  0.
         14    1    1    2    0    0 -0.13305438580E-01  0.19231132924E-01 -0.43966357465E-02  0.23794990549E-01  0.00000000000E+00 0.  1.
     999901    1    3    3    0    0  0.17923233136E-01 -0.14224701109E+00  0.35930776932E-01  0.89232643981E+00  0.88000000000E+00 0.  1.
        -11    1    4    4    0    0  0.13057612927E-02  0.10214186118E+00 -0.25763953624E-01  0.10535040221E+00  0.51100000000E-03 0. -1.
         11    1    4    4    0    0 -0.59235558486E-02  0.20874016985E-01 -0.57701875619E-02  0.22458167434E-01  0.51100000000E-03 0.  1.
</event>
<event>
 8    1  0.1076043E+005  0.1043930E+01  0.7957747E-01            NaN
         13   -1    0    0    0    0  0.00000000000E+00  0.00000000000E+00  0.74505805969E-08  0.10566000000E+00  0.10566000000E+00 0.  1.
     999900   -1    0    0    0    0 -0.00000000000E+00 -0.00000000000E+00 -0.74505805969E-08  0.93827000000E+00  0.93827000000E+00 0.  1.
     999902    2    1    2    0    0 -0.11747580904E-01  0.86250666878E-02 -0.18624532606E-01  0.10202810963E+01  0.10200069827E+01 0.  0.
     999903    2    3    3    0    0 -0.27310851923E-01  0.98238532235E-01  0.78635806553E-01  0.13026291546E+00  0.19701401566E-01 0.  0.
         14    1    1    2    0    0  0.11747580904E-01 -0.86250666878E-02  0.18624532606E-01  0.23648903722E-01  0.00000000000E+00 0.  1.
     999901    1    3    3    0    0  0.15563271019E-01 -0.89613465547E-01 -0.97260339159E-01  0.89001818082E+00  0.88000000000E+00 0. -1.
        -11    1    4    4    0    0 -0.23897009271E-02  0.29505993773E-01  0.14324263032E-01  0.32890119663E-01  0.51100000000E-03 0.  1.
         11    1    4    4    0    0 -0.24921150996E-01  0.68732538462E-01  0.64311543521E-01  0.97372795797E-01  0.51100000000E-03 0. -1.
</event>
<event>
 8    1  0.1076043E+005  0.1043930E+01  0.7957747E-01            NaN
         13   -1    0    0    0    0  0.00000000000E+00  0.00000000000E+00  0.74505805969E-08  0.10566000000E+00  0.10566000000E+00 0.  1.
     999900   -1    0    0    0    0 -0.00000000000E+00 -0.00000000000E+00 -0.74505805969E-08  0.93827000000E+00  0.93827000000E+00 0. -1.
     999902    2    1    2    0    0  0.37647657451E-02  0.19604587889E-01 -0.11837727118E-01  0.10207212708E+01  0.10204573816E+01 0.  0.
     999903    2    3    3    0    0  0.12129565159E+00 -0.34586398288E-01  0.26405869401E-01  0.13043325854E+00  0.20167075983E-01 0.  0.
         14    1    1    2    0    0 -0.37647657451E-02 -0.19604587889E-01  0.11837727118E-01  0.23208729193E-01  0.00000000000E+00 0. -1.
     999901    1    3    3    0    0 -0.11753088584E+00  0.54190986177E-01 -0.38243596519E-01  0.89028801227E+00  0.88000000000E+00 0. -1.
        -11    1    4    4    0    0  0.77192484885E-01 -0.17805734427E-01  0.74239929721E-02  0.79568214092E-01  0.51100000000E-03 0. -1.
         11    1    4    4    0    0  0.44103166705E-01 -0.16780663861E-01  0.18981876429E-01  0.50865044448E-01  0.51100000000E-03 0.  1.
</event>
<event>
 8    1  0.1076043E+005  0.1043930E+01  0.7957747E-01            NaN
         13   -1    0    0    0    0  0.00000000000E+00  0.00000000000E+00  0.74505805969E-08  0.10566000000E+00  0.10566000000E+00 0.  1.
     999900   -1    0    0    0    0 -0.00000000000E+00 -0.00000000000E+00 -0.74505805969E-08  0.93827000000E+00  0.93827000000E+00 0. -1.
     999902    2    1    2    0    0  0.32971283763E-02 -0.11978039263E-01  0.22691692918E-01  0.10180599902E+01  0.10177312446E+01 0.  0.
     999903    2    3    3    0    0 -0.12668155758E-02  0.33373048504E-01  0.12539834754E+00  0.13091501464E+00  0.17280923120E-01 0.  0.
         14    1    1    2    0    0 -0.32971283763E-02  0.11978039263E-01 -0.22691692918E-01  0.25870009810E-01  0.00000000000E+00 0.  1.
     999901    1    3    3    0    0  0.45639439521E-02 -0.45351087767E-01 -0.10270665462E+00  0.88714497555E+00  0.88000000000E+00 0. -1.
        -11    1    4    4    0    0  0.99402869524E-03  0.24777837717E-02  0.39616945232E-01  0.39710086577E-01  0.51100000000E-03 0. -1.
         11    1    4    4    0    0 -0.22608442710E-02  0.30895264732E-01  0.85781402306E-01  0.91204928059E-01  0.51100000000E-03 0.  1.
</event>
<event>
 8    1  0.1076043E+005  0.1043930E+01  0.7957747E-01            NaN
         13   -1    0    0    0    0  0.00000000000E+00  0.00000000000E+00  0.74505805969E-08  0.10566000000E+00  0.10566000000E+00 0.  1.
     999900   -1    0    0    0    0 -0.00000000000E+00 -0.00000000000E+00 -0.74505805969E-08  0.93827000000E+00  0.93827000000E+00 0. -1.
     999902    2    1    2    0    0 -0.61450629247E-02 -0.16372407101E-01 -0.13741690993E-01  0.10216892360E+01  0.10214471319E+01 0.  0.
     999903    2    3    3    0    0 -0.67872950333E-01 -0.63848006551E-01  0.91730181302E-01  0.13197659672E+00  0.17891075763E-01 0.  0.
         14    1    1    2    0    0  0.61450629247E-02  0.16372407101E-01  0.13741690993E-01  0.22240764015E-01  0.00000000000E+00 0.  1.
     999901    1    3    3    0    0  0.61727887408E-01  0.47475599450E-01 -0.10547187230E+00  0.88971263927E+00  0.88000000000E+00 0. -1.
        -11    1    4    4    0    0 -0.24601100021E-01 -0.30901291961E-01  0.48159475154E-01  0.62287238943E-01  0.51100000000E-03 0.  1.
         11    1    4    4    0    0 -0.43271850312E-01 -0.32946714589E-01  0.43570706148E-01  0.69689357774E-01  0.51100000000E-03 0. -1.
</event>
<event>
 8    1  0.1076043E+005  0.1043930E+01  0.7957747E-01            NaN
         13   -1    0    0    0    0  0.00000000000E+00  0.00000000000E+00  0.74505805969E-08  0.10566000000E+00  0.10566000000E+00 0. -1.
     999900   -1    0    0    0    0 -0.00000000000E+00 -0.00000000000E+00 -0.74505805969E-08  0.93827000000E+00  0.93827000000E+00 0. -1.
     999902    2    1    2    0    0 -0.21293351175E-01 -0.10266713740E-01  0.22355467467E-02  0.10201853188E+01  0.10199089542E+01 0.  0.
     999903    2    3    3    0    0 -0.13025102123E+00  0.15617437943E-01 -0.10951516586E-01  0.13298992782E+00  0.18898473109E-01 0.  0.
         14    1    1    2    0    0  0.21293351175E-01  0.10266713740E-01 -0.22355467467E-02  0.23744681184E-01  0.00000000000E+00 0. -1.
     999901    1    3    3    0    0  0.10895767005E+00 -0.25884151683E-01  0.13187063333E-01  0.88719539100E+00  0.88000000000E+00 0.  1.
        -11    1    4    4    0    0 -0.62175130401E-01  0.57654847273E-04 -0.11078321285E-01  0.63156476216E-01  0.51100000000E-03 0. -1.
         11    1    4    4    0    0 -0.68075890827E-01  0.15559783096E-01  0.12680469834E-03  0.69833451600E-01  0.51100000000E-03 0.  1.
</event>
<event>
 8    1  0.1076043E+005  0.1043930E+01  0.7957747E-01            NaN
         13   -1    0    0    0    0  0.00000000000E+00  0.00000000000E+00  0.74505805969E-08  0.10566000000E+00  0.10566000000E+00 0.  1.
     999900   -1    0    0    0    0 -0.00000000000E+00 -0.00000000000E+00 -0.74505805969E-08  0.93827000000E+00  0.93827000000E+00 0. -1.
     999902    2    1    2    0    0 -0.58803513657E-02 -0.16207587477E-01 -0.16053165217E-01  0.10203722298E+01  0.10201002494E+01 0.  0.
     999903    2    3    3    0    0 -0.88215382247E-01 -0.72735801159E-01 -0.65946805154E-01  0.13331875250E+00  0.18773870767E-01 0.  0.
         14    1    1    2    0    0  0.58803513657E-02  0.16207587477E-01  0.16053165217E-01  0.23557770215E-01  0.00000000000E+00 0.  1.
     999901    1    3    3    0    0  0.82335030882E-01  0.56528213683E-01  0.49893639937E-01  0.88705347728E+00  0.88000000000E+00 0.  1.
        -11    1    4    4    0    0 -0.43752518250E-01 -0.36068022625E-01 -0.43496867662E-01  0.71466241867E-01  0.51100000000E-03 0.  1.
         11    1    4    4    0    0 -0.44462863998E-01 -0.36667778534E-01 -0.22449937493E-01  0.61852510636E-01  0.51100000000E-03 0. -1.
</event>
<event>
 8    1  0.1076043E+005  0.1043930E+01  0.7957747E-01            NaN
         13   -1    0    0    0    0  0.00000000000E+00  0.00000000000E+00  0.74505805969E-08  0.10566000000E+00  0.10566000000E+00 0. -1.
     999900   -1    0    0    0    0 -0.00000000000E+00 -0.00000000000E+00 -0.74505805969E-08  0.93827000000E+00  0.93827000000E+00 0.  1.
     999902    2    1    2    0    0  0.11565853576E-02  0.11724268910E-01  0.20378000589E-01  0.10203915404E+01  0.10201200109E+01 0.  0.
     999903    2    3    3    0    0  0.12454065534E+00  0.35558464229E-01 -0.30184935865E-02  0.13115642330E+00  0.20447905948E-01 0.  0.
         14    1    1    2    0    0 -0.11565853576E-02 -0.11724268910E-01 -0.20378000589E-01  0.23538459575E-01  0.00000000000E+00 0.  1.
     999901    1    3    3    0    0 -0.12338406998E+00 -0.23834195319E-01  0.23396494176E-01  0.88923511713E+00  0.88000000000E+00 0.  1.
        -11    1    4    4    0    0  0.59161766203E-01  0.19598789332E-01 -0.11321422026E-01  0.63345582650E-01  0.51100000000E-03 0. -1.
         11    1    4    4    0    0  0.65378889137E-01  0.15959674897E-01  0.83029284397E-02  0.67810840648E-01  0.51100000000E-03 0.  1.
</event>
<event>
 8    1  0.1076043E+005  0.1043930E+01  0.7957747E-01            NaN
         13   -1    0    0    0    0  0.00000000000E+00  0.00000000000E+00  0.74505805969E-08  0.10566000000E+00  0.10566000000E+00 0.  1.
     999900   -1    0    0    0    0 -0.00000000000E+00 -0.00000000000E+00 -0.74505805969E-08  0.93827000000E+00  0.93827000000E+00 0.  1.
     999902    2    1    2    0    0 -0.74810587609E-02  0.21679320521E-01 -0.53552917500E-02  0.10203792393E+01  0.10201074226E+01 0.  0.
     999903    2    3    3    0    0  0.24834551639E-01  0.18023195631E-01  0.12492350686E+00  0.13019373546E+00  0.20073257129E-01 0.  0.
         14    1    1    2    0    0  0.74810587609E-02 -0.21679320521E-01  0.53552917500E-02  0.23550760671E-01  0.00000000000E+00 0. -1.
     999901    1    3    3    0    0 -0.32315610399E-01  0.36561248900E-02 -0.13027879861E+00  0.89018550387E+00  0.88000000000E+00 0.  1.
        -11    1    4    4    0    0  0.10883020698E-01  0.19573792379E-01  0.83532026421E-01  0.86483721281E-01  0.51100000000E-03 0.  1.
         11    1    4    4    0    0  0.13951530940E-01 -0.15505967482E-02  0.41391480440E-01  0.43710014183E-01  0.51100000000E-03 0. -1.
</event>
<event>
 8    1  0.1076043E+005  0.1043930E+01  0.7957747E-01            NaN
         13   -1    0    0    0    0  0.00000000000E+00  0.00000000000E+00  0.74505805969E-08  0.10566000000E+00  0.10566000000E+00 0. -1.
     999900   -1    0    0    0    0 -0.00000000000E+00 -0.00000000000E+00 -0.74505805969E-08  0.93827000000E+00  0.93827000000E+00 0. -1.
     999902    2    1    2    0    0 -0.14758525293E-01  0.19646340475E-01 -0.13524865319E-03  0.10193574329E+01  0.10190612174E+01 0.  0.
     999903    2    3    3    0    0  0.28580546306E-01 -0.12073576043E+00 -0.18041584121E-01  0.12699761406E+00  0.20221863085E-01 0.  0.
         14    1    1    2    0    0  0.14758525293E-01 -0.19646340475E-01  0.13524865319E-03  0.24572567124E-01  0.00000000000E+00 0. -1.
     999901    1    3    3    0    0 -0.43339071599E-01  0.14038210090E+00  0.17906335468E-01  0.89235981881E+00  0.88000000000E+00 0. -1.
        -11    1    4    4    0    0  0.24381717611E-01 -0.62443244568E-01 -0.58280632474E-02  0.67289333390E-01  0.51100000000E-03 0.  1.
         11    1    4    4    0    0  0.41988286950E-02 -0.58292515861E-01 -0.12213520874E-01  0.59708280673E-01  0.51100000000E-03 0. -1.
</event>
<event>
 8    1  0.1076043E+005  0.1043930E+01  0.7957747E-01            NaN
         13   -1    0    0    0    0  0.00000000000E+00  0.00000000000E+00  0.74505805969E-08  0.10566000000E+00  0.10566000000E+00 0.  1.
     999900   -1    0    0    0    0 -0.00000000000E+00 -0.00000000000E+00 -0.74505805969E-08  0.93827000000E+00  0.93827000000E+00 0.  1.
     999902    2    1    2    0    0  0.13245975143E-01 -0.18040793556E-01 -0.80883799030E-02  0.10201319333E+01  0.10198543099E+01 0.  0.
     999903    2    3    3    0    0 -0.66405904969E-01 -0.70181366273E-01  0.84807440587E-01  0.13013603735E+00  0.20196976298E-01 0.  0.
         14    1    1    2    0    0 -0.13245975143E-01  0.18040793556E-01  0.80883799030E-02  0.23798066709E-01  0.00000000000E+00 0. -1.
     999901    1    3    3    0    0  0.79651880112E-01  0.52140572717E-01 -0.92895820490E-01  0.88999589594E+00  0.88000000000E+00 0.  1.
        -11    1    4    4    0    0 -0.29313624808E-01 -0.43004878763E-01  0.37414312582E-01  0.64099922806E-01  0.51100000000E-03 0.  1.
         11    1    4    4    0    0 -0.37092280161E-01 -0.27176487510E-01  0.47393128005E-01  0.66036114544E-01  0.51100000000E-03 0. -1.
</event>
<event>
 8    1  0.1076043E+005  0.1043930E+01  0.7957747E-01            NaN
         13   -1    0    0    0    0  0.00000000000E+00  0.00000000000E+00  0.74505805969E-08  0.10566000000E+00  0.10566000000E+00 0.  1.
     999900   -1    0    0    0    0 -0.00000000000E+00 -0.00000000000E+00 -0.74505805969E-08  0.93827000000E+00  0.93827000000E+00 0. -1.
     999902    2    1    2    0    0 -0.14502352602E-01 -0.11664553560E-01  0.14330116245E-01  0.10204410181E+01  0.10201706421E+01 0.  0.
     999903    2    3    3    0    0  0.11362665009E+00 -0.49487537872E-01 -0.22497023221E-01  0.12959655483E+00  0.30481452660E-01 0.  0.
         14    1    1    2    0    0  0.14502352602E-01  0.11664553560E-01 -0.14330116245E-01  0.23488981935E-01  0.00000000000E+00 0. -1.
     999901    1    3    3    0    0 -0.12812900269E+00  0.37822984312E-01  0.36827139466E-01  0.89084446323E+00  0.88000000000E+00 0. -1.
        -11    1    4    4    0    0  0.48169228820E-01 -0.36815317100E-01 -0.15333178162E-01  0.62538065622E-01  0.51100000000E-03 0.  1.
         11    1    4    4    0    0  0.65457421266E-01 -0.12672220772E-01 -0.71638450592E-02  0.67058489210E-01  0.51100000000E-03 0. -1.
</event>
<event>
 8    1  0.1076043E+005  0.1043930E+01  0.7957747E-01            NaN
         13   -1    0    0    0    0  0.00000000000E+00  0.00000000000E+00  0.74505805969E-08  0.10566000000E+00  0.10566000000E+00 0.  1.
     999900   -1    0    0    0    0 -0.00000000000E+00 -0.00000000000E+00 -0.74505805969E-08  0.93827000000E+00  0.93827000000E+00 0.  1.
     999902    2    1    2    0    0 -0.14992677230E-01  0.40954439807E-02 -0.20269852401E-01  0.10183874874E+01  0.10180671169E+01 0.  0.
     999903    2    3    3    0    0 -0.52392014582E-01 -0.60348260908E-01  0.97136292453E-01  0.12746891406E+00  0.20640468818E-01 0.  0.
         14    1    1    2    0    0  0.14992677230E-01 -0.40954439807E-02  0.20269852401E-01  0.25542512568E-01  0.00000000000E+00 0.  1.
     999901    1    3    3    0    0  0.37399337352E-01  0.64443704889E-01 -0.11740614485E+00  0.89091857337E+00  0.88000000000E+00 0.  1.
        -11    1    4    4    0    0 -0.84541901674E-02 -0.18017412984E-01  0.13967553475E-01  0.24319830861E-01  0.51100000000E-03 0.  1.
         11    1    4    4    0    0 -0.43937824415E-01 -0.42330847924E-01  0.83168738978E-01  0.10314908320E+00  0.51100000000E-03 0. -1.
</event>
<event>
 8    1  0.1076043E+005  0.1043930E+01  0.7957747E-01            NaN
         13   -1    0    0    0    0  0.00000000000E+00  0.00000000000E+00  0.74505805969E-08  0.10566000000E+00  0.10566000000E+00 0.  1.
     999900   -1    0    0    0    0 -0.00000000000E+00 -0.00000000000E+00 -0.74505805969E-08  0.93827000000E+00  0.93827000000E+00 0.  1.
     999902    2    1    2    0    0 -0.15394994447E-01  0.12807758373E-02 -0.18089523128E-01  0.10201418288E+01  0.10198644389E+01 0.  0.
     999903    2    3    3    0    0 -0.64470442241E-01  0.69539896743E-01  0.86730885120E-01  0.12994239884E+00  0.19249556382E-01 0.  0.
         14    1    1    2    0    0  0.15394994447E-01 -0.12807758373E-02  0.18089523128E-01  0.23788171173E-01  0.00000000000E+00 0. -1.
     999901    1    3    3    0    0  0.49075447794E-01 -0.68259120905E-01 -0.10482040825E+00  0.89019942999E+00  0.88000000000E+00 0.  1.
        -11    1    4    4    0    0 -0.39768301609E-01  0.33339901706E-01  0.37493489568E-01  0.64024134041E-01  0.51100000000E-03 0. -1.
         11    1    4    4    0    0 -0.24702140631E-01  0.36199995037E-01  0.49237395552E-01  0.65918264800E-01  0.51100000000E-03 0.  1.
</event>
<event>
 8    1  0.1076043E+005  0.1043930E+01  0.7957747E-01            NaN
         13   -1    0    0    0    0  0.00000000000E+00  0.00000000000E+00  0.74505805969E-08  0.10566000000E+00  0.10566000000E+00 0.  1.
     999900   -1    0    0    0    0 -0.00000000000E+00 -0.00000000000E+00 -0.74505805969E-08  0.93827000000E+00  0.93827000000E+00 0.  1.
     999902    2    1    2    0    0 -0.21800669508E-01 -0.99369672646E-02  0.69786814272E-03  0.10199612802E+01  0.10196796132E+01 0.  0.
     999903    2    3    3    0    0  0.34523031896E-01 -0.12432797865E+00 -0.68971129652E-02  0.13073951563E+00  0.19898863597E-01 0.  0.
         14    1    1    2    0    0  0.21800669508E-01  0.99369672646E-02 -0.69786814272E-03  0.23968719811E-01  0.00000000000E+00 0. -1.
     999901    1    3    3    0    0 -0.56323701405E-01  0.11439101139E+00  0.75949811079E-02  0.88922176456E+00  0.88000000000E+00 0.  1.
        -11    1    4    4    0    0  0.23661925304E-01 -0.77450660746E-01  0.50941680274E-02  0.81146184310E-01  0.51100000000E-03 0. -1.
         11    1    4    4    0    0  0.10861106593E-01 -0.46877317908E-01 -0.11991280993E-01  0.49593331321E-01  0.51100000000E-03 0.  1.
</event>
<event>
 8    1  0.1076043E+005  0.1043930E+01  0.7957747E-01            NaN
         13   -1    0    0    0    0  0.00000000000E+00  0.00000000000E+00  0.74505805969E-08  0.10566000000E+00  0.10566000000E+00 0.  1.
     999900   -1    0    0    0    0 -0.00000000000E+00 -0.00000000000E+00 -0.74505805969E-08  0.93827000000E+00  0.93827000000E+00 0. -1.
     999902    2    1    2    0    0 -0.21796747266E-01 -0.29056083880E-02 -0.69894605158E-02  0.10208563503E+01  0.10205955588E+01 0.  0.
     999903    2    3    3    0    0 -0.10882144979E+00 -0.70656578404E-01  0.24028372460E-01  0.13342995971E+00  0.19792206978E-01 0.  0.
         14    1    1    2    0    0  0.21796747266E-01  0.29056083880E-02  0.69894605158E-02  0.23073649685E-01  0.00000000000E+00 0.  1.
     999901    1    3    3    0    0  0.87024702526E-01  0.67750970016E-01 -0.31017832976E-01  0.88742639061E+00  0.88000000000E+00 0. -1.
        -11    1    4    4    0    0 -0.25118822669E-01 -0.69971101312E-02  0.53259588519E-02  0.26618447760E-01  0.51100000000E-03 0.  1.
         11    1    4    4    0    0 -0.83702627123E-01 -0.63659468273E-01  0.18702413609E-01  0.10681151194E+00  0.51100000000E-03 0. -1.
</event>
<event>
 8    1  0.1076043E+005  0.1043930E+01  0.7957747E-01            NaN
         13   -1    0    0    0    0  0.00000000000E+00  0.00000000000E+00  0.74505805969E-08  0.10566000000E+00  0.10566000000E+00 0.  1.
     999900   -1    0    0    0    0 -0.00000000000E+00 -0.00000000000E+00 -0.74505805969E-08  0.93827000000E+00  0.93827000000E+00 0.  1.
     999902    2    1    2    0    0 -0.22818481209E-01  0.76159076017E-02 -0.78747705305E-02  0.10186180039E+01  0.10183034620E+01 0.  0.
     999903    2    3    3    0    0  0.83555684872E-01 -0.68172463671E-01  0.62620265399E-01  0.12618935665E+00  0.19324047586E-01 0.  0.
         14    1    1    2    0    0  0.22818481209E-01 -0.76159076017E-02  0.78747705305E-02  0.25311996053E-01  0.00000000000E+00 0.  1.
     999901    1    3    3    0    0 -0.10637416608E+00  0.75788371273E-01 -0.70495035930E-01  0.89242864730E+00  0.88000000000E+00 0.  1.
        -11    1    4    4    0    0  0.53809344439E-02 -0.94846097954E-02  0.11573642452E-01  0.15909827122E-01  0.51100000000E-03 0.  1.
         11    1    4    4    0    0  0.78174750428E-01 -0.58687853876E-01  0.51046622948E-01  0.11027952953E+00  0.51100000000E-03 0. -1.
</event>
<event>
 8    1  0.1076043E+005  0.1043930E+01  0.7957747E-01            NaN
         13   -1    0    0    0    0  0.00000000000E+00  0.00000000000E+00  0.74505805969E-08  0.10566000000E+00  0.10566000000E+00 0.  1.
     999900   -1    0    0    0    0 -0.00000000000E+00 -0.00000000000E+00 -0.74505805969E-08  0.93827000000E+00  0.93827000000E+00 0.  1.
     999902    2    1    2    0    0  0.21310573874E-01 -0.71299407859E-02 -0.88970138330E-02  0.10197611467E+01  0.10194746995E+01 0.  0.
     999903    2    3    3    0    0 -0.31683297597E-01 -0.54464571094E-01  0.11066297291E+00  0.12883830601E+00  0.19565139210E-01 0.  0.
         14    1    1    2    0    0 -0.21310573874E-01  0.71299407859E-02  0.88970138330E-02  0.24168853295E-01  0.00000000000E+00 0.  1.
     999901    1    3    3    0    0  0.52993871471E-01  0.47334630308E-01 -0.11955998674E+00  0.89092284069E+00  0.88000000000E+00 0.  1.
        -11    1    4    4    0    0 -0.17397780466E-01 -0.11993154752E-01  0.33741119690E-01  0.39815107748E-01  0.51100000000E-03 0.  1.
         11    1    4    4    0    0 -0.14285517132E-01 -0.42471416342E-01  0.76921853217E-01  0.89023198264E-01  0.51100000000E-03 0. -1.
</event>
<event>
 8    1  0.1076043E+005  0.1043930E+01  0.7957747E-01            NaN
         13   -1    0    0    0    0  0.00000000000E+00  0.00000000000E+00  0.74505805969E-08  0.10566000000E+00  0.10566000000E+00 0. -1.
     999900   -1    0    0    0    0 -0.00000000000E+00 -0.00000000000E+00 -0.74505805969E-08  0.93827000000E+00  0.93827000000E+00 0. -1.
     999902    2    1    2    0    0  0.23760842173E-01 -0.14526540411E-01 -0.47930943984E-02  0.10156709881E+01  0.10152777868E+01 0.  0.
     999903    2    3    3    0    0  0.50945686237E-01 -0.11394806529E+00  0.26287489876E-01  0.12911041036E+00  0.19971014285E-01 0.  0.
         14    1    1    2    0    0 -0.23760842173E-01  0.14526540411E-01  0.47930943984E-02  0.28259011855E-01  0.00000000000E+00 0. -1.
     999901    1    3    3    0    0 -0.27184844064E-01  0.99421524877E-01 -0.31080584274E-01  0.88656057778E+00  0.88000000000E+00 0. -1.
        -11    1    4    4    0    0  0.47348382020E-01 -0.98163515498E-01  0.28778351884E-01  0.11272266725E+00  0.51100000000E-03 0. -1.
         11    1    4    4    0    0  0.35973042168E-02 -0.15784549790E-01 -0.24908620081E-02  0.16387743110E-01  0.51100000000E-03 0.  1.
</event>
<event>
 8    1  0.1076043E+005  0.1043930E+01  0.7957747E-01            NaN
         13   -1    0    0    0    0  0.00000000000E+00  0.00000000000E+00  0.74505805969E-08  0.10566000000E+00  0.10566000000E+00 0.  1.
     999900   -1    0    0    0    0 -0.00000000000E+00 -0.00000000000E+00 -0.74505805969E-08  0.93827000000E+00  0.93827000000E+00 0. -1.
     999902    2    1    2    0    0  0.10036702177E-01 -0.22286765875E-02  0.14304306930E-01  0.10263142234E+01  0.10261630326E+01 0.  0.
     999903    2    3    3    0    0  0.11072748197E+00 -0.78387761236E-01 -0.30145326323E-02  0.13713551156E+00  0.19795068819E-01 0.  0.
         14    1    1    2    0    0 -0.10036702177E-01  0.22286765875E-02 -0.14304306930E-01  0.17615776641E-01  0.00000000000E+00 0.  1.
     999901    1    3    3    0    0 -0.10069077979E+00  0.76159084648E-01  0.17318839563E-01  0.88917871180E+00  0.88000000000E+00 0.  1.
        -11    1    4    4    0    0  0.16177440930E-01 -0.41521588612E-02 -0.26800034830E-02  0.16923166309E-01  0.51100000000E-03 0.  1.
         11    1    4    4    0    0  0.94550041039E-01 -0.74235602375E-01 -0.33452914925E-03  0.12021234525E+00  0.51100000000E-03 0. -1.
</event>
<event>
 8    1  0.1076043E+005  0.1043930E+01  0.7957747E-01            NaN
         13   -1    0    0    0    0  0.00000000000E+00  0.00000000000E+00  0.74505805969E-08  0.10566000000E+00  0.10566000000E+00 0. -1.
     999900   -1    0    0    0    0 -0.00000000000E+00 -0.00000000000E+00 -0.74505805969E-08  0.93827000000E+00  0.93827000000E+00 0. -1.
     999902    2    1    2    0    0  0.49496130088E-02  0.23861315539E-01  0.18236801565E-03  0.10195600532E+01  0.10192687613E+01 0.  0.
     999903    2    3    3    0    0 -0.31900206935E-01 -0.80693752165E-01 -0.90950161611E-01  0.12793523898E+00  0.23798920854E-01 0.  0.
         14    1    1    2    0    0 -0.49496130088E-02 -0.23861315539E-01 -0.18236801565E-03  0.24369946784E-01  0.00000000000E+00 0. -1.
     999901    1    3    3    0    0  0.36849819944E-01  0.10455506770E+00  0.91132529627E-01  0.89162481424E+00  0.88000000000E+00 0. -1.
        -11    1    4    4    0    0 -0.22036440981E-04 -0.87491674395E-02 -0.20577996274E-01  0.22366570326E-01  0.51100000000E-03 0. -1.
         11    1    4    4    0    0 -0.31878170494E-01 -0.71944584725E-01 -0.70372165337E-01  0.10556866865E+00  0.51100000000E-03 0.  1.
</event>
<event>
 8    1  0.1076043E+005  0.1043930E+01  0.7957747E-01            NaN
         13   -1    0    0    0    0  0.00000000000E+00  0.00000000000E+00  0.74505805969E-08  0.10566000000E+00  0.10566000000E+00 0. -1.
     999900   -1    0    0    0    0 -0.00000000000E+00 -0.00000000000E+00 -0.74505805969E-08  0.93827000000E+00  0.93827000000E+00 0.  1.
     999902    2    1    2    0    0  0.23391084431E-01  0.79386999078E-02  0.51421591717E-02  0.10186989162E+01  0.10183864072E+01 0.  0.
     999903    2    3    3    0    0  0.63575321132E-01 -0.11125445991E+00 -0.30204520663E-03  0.12973805006E+00  0.20309950649E-01 0.  0.
         14    1    1    2    0    0 -0.23391084431E-01 -0.79386999078E-02 -0.51421591717E-02  0.25231083767E-01  0.00000000000E+00 0. -1.
     999901    1    3    3    0    0 -0.40184236701E-01  0.11919315982E+00  0.54442043783E-02  0.88896086617E+00  0.88000000000E+00 0.  1.
        -11    1    4    4    0    0  0.47687407175E-01 -0.97196139893E-01 -0.32444917553E-02  0.10831420157E+00  0.51100000000E-03 0. -1.
         11    1    4    4    0    0  0.15887913958E-01 -0.14058320015E-01  0.29424465487E-02  0.21423848494E-01  0.51100000000E-03 0.  1.
</event>
<event>
 8    1  0.1076043E+005  0.1043930E+01  0.7957747E-01            NaN
         13   -1    0    0    0    0  0.00000000000E+00  0.00000000000E+00  0.74505805969E-08  0.10566000000E+00  0.10566000000E+00 0. -1.
     999900   -1    0    0    0    0 -0.00000000000E+00 -0.00000000000E+00 -0.74505805969E-08  0.93827000000E+00  0.93827000000E+00 0. -1.
     999902    2    1    2    0    0  0.20381819892E-02  0.23998629978E-01  0.39743253528E-02  0.10195192710E+01  0.10192269916E+01 0.  0.
     999903    2    3    3    0    0  0.10333433621E+00  0.99821802844E-02 -0.75956879572E-01  0.12999896815E+00  0.18779116152E-01 0.  0.
         14    1    1    2    0    0 -0.20381819892E-02 -0.23998629978E-01 -0.39743253528E-02  0.24410728966E-01  0.00000000000E+00 0.  1.
     999901    1    3    3    0    0 -0.10129615422E+00  0.14016449694E-01  0.79931204924E-01  0.88952030288E+00  0.88000000000E+00 0.  1.
        -11    1    4    4    0    0  0.21177262963E-01  0.80029340507E-02 -0.22733440879E-01  0.32087285258E-01  0.51100000000E-03 0.  1.
         11    1    4    4    0    0  0.82157073244E-01  0.19792462337E-02 -0.53223438693E-01  0.97911682893E-01  0.51100000000E-03 0. -1.
</event>
<event>
 8    1  0.1076043E+005  0.1043930E+01  0.7957747E-01            NaN
         13   -1    0    0    0    0  0.00000000000E+00  0.00000000000E+00  0.74505805969E-08  0.10566000000E+00  0.10566000000E+00 0.  1.
     999900   -1    0    0    0    0 -0.00000000000E+00 -0.00000000000E+00 -0.74505805969E-08  0.93827000000E+00  0.93827000000E+00 0. -1.
     999902    2    1    2    0    0  0.70025092514E-02  0.17454904957E-01  0.79724253621E-02  0.10235028512E+01  0.10232989876E+01 0.  0.
     999903    2    3    3    0    0 -0.10356448393E+00  0.82725764745E-01  0.81164859978E-02  0.13418549170E+00  0.19253943808E-01 0.  0.
         14    1    1    2    0    0 -0.70025092514E-02 -0.17454904957E-01 -0.79724253621E-02  0.20427148823E-01  0.00000000000E+00 0.  1.
     999901    1    3    3    0    0  0.11056699318E+00 -0.65270859789E-01 -0.14406063567E-03  0.88931735948E+00  0.88000000000E+00 0. -1.
        -11    1    4    4    0    0 -0.75502052894E-01  0.67734276815E-01  0.11952179394E-01  0.10213524348E+00  0.51100000000E-03 0. -1.
         11    1    4    4    0    0 -0.28062431038E-01  0.14991487931E-01 -0.38356933957E-02  0.32050248220E-01  0.51100000000E-03 0.  1.
</event>
<event>
 8    1  0.1076043E+005  0.1043930E+01  0.7957747E-01            NaN
         13   -1    0    0    0    0  0.00000000000E+00  0.00000000000E+00  0.74505805969E-08  0.10566000000E+00  0.10566000000E+00 0.  1.
     999900   -1    0    0    0    0 -0.00000000000E+00 -0.00000000000E+00 -0.74505805969E-08  0.93827000000E+00  0.93827000000E+00 0. -1.
     999902    2    1    2    0    0  0.70971807754E-02 -0.85651640948E-03  0.22589191754E-01  0.10202366427E+01  0.10199614855E+01 0.  0.
     999903    2    3    3    0    0  0.85314896995E-01 -0.96610255318E-01 -0.11295650128E-01  0.13094761650E+00  0.20186962931E-01 0.  0.
         14    1    1    2    0    0 -0.70971807754E-02  0.85651640948E-03 -0.22589191754E-01  0.23693357284E-01  0.00000000000E+00 0. -1.
     999901    1    3    3    0    0 -0.78217716220E-01  0.95753738908E-01  0.33884841881E-01  0.88928902622E+00  0.88000000000E+00 0.  1.
        -11    1    4    4    0    0  0.43289892477E-01 -0.59704335285E-01 -0.13489937419E-01  0.74972408091E-01  0.51100000000E-03 0. -1.
         11    1    4    4    0    0  0.42025004518E-01 -0.36905920033E-01  0.21942872909E-02  0.55975208405E-01  0.51100000000E-03 0.  1.
</event>
<event>
 8    1  0.1076043E+005  0.1043930E+01  0.7957747E-01            NaN
         13   -1    0    0    0    0  0.00000000000E+00  0.00000000000E+00  0.74505805969E-08  0.10566000000E+00  0.10566000000E+00 0.  1.
     999900   -1    0    0    0    0 -0.00000000000E+00 -0.00000000000E+00 -0.74505805969E-08  0.93827000000E+00  0.93827000000E+00 0.  1.
     999902    2    1    2    0    0  0.14356384830E-01  0.18307531597E-01  0.82748116987E-02  0.10192370049E+01  0.10189378431E+01 0.  0.
     999903    2    3    3    0    0  0.74272899251E-01  0.28531662554E-01  0.10351831140E+00  0.13201333198E+00  0.19518188750E-01 0.  0.
         14    1    1    2    0    0 -0.14356384830E-01 -0.18307531597E-01 -0.82748116987E-02  0.24692995104E-01  0.00000000000E+00 0.  1.
     999901    1    3    3    0    0 -0.59916514421E-01 -0.10224130957E-01 -0.95243499706E-01  0.88722367292E+00  0.88000000000E+00 0.  1.
        -11    1    4    4    0    0  0.98164155243E-02  0.90709113382E-02  0.26701084352E-01  0.29863899156E-01  0.51100000000E-03 0. -1.
         11    1    4    4    0    0  0.64456483726E-01  0.19460751216E-01  0.76817227053E-01  0.10214943282E+00  0.51100000000E-03 0.  1.
</event>
<event>
 8    1  0.1076043E+005  0.1043930E+01  0.7957747E-01            NaN
         13   -1    0    0    0    0  0.00000000000E+00  0.00000000000E+00  0.74505805969E-08  0.10566000000E+00  0.10566000000E+00 0. -1.
     999900   -1    0    0    0    0 -0.00000000000E+00 -0.00000000000E+00 -0.74505805969E-08  0.93827000000E+00  0.93827000000E+00 0.  1.
     999902    2    1    2    0    0 -0.23699692106E-01  0.26632450647E-02  0.37794667178E-02  0.10197835168E+01  0.10194976060E+01 0.  0.
     999903    2    3    3    0    0 -0.62197766212E-01  0.52128383699E-01 -0.10127888795E+00  0.13132070978E+00  0.20044579390E-01 0.  0.
         14    1    1    2    0    0  0.23699692106E-01 -0.26632450647E-02 -0.37794667178E-02  0.24146483158E-01  0.00000000000E+00 0.  1.
     999901    1    3    3    0    0  0.38498074106E-01 -0.49465138635E-01  0.10505835467E+00  0.88846280706E+00  0.88000000000E+00 0. -1.
        -11    1    4    4    0    0 -0.12480093532E-01  0.36491329954E-02 -0.24881002314E-01  0.28078360054E-01  0.51100000000E-03 0. -1.
         11    1    4    4    0    0 -0.49717672680E-01  0.48479250704E-01 -0.76397885639E-01  0.10324234972E+00  0.51100000000E-03 0.  1.
</event>
<event>
 8    1  0.1076043E+005  0.1043930E+01  0.7957747E-01            NaN
         13   -1    0    0    0    0  0.00000000000E+00  0.00000000000E+00  0.74505805969E-08  0.10566000000E+00  0.10566000000E+00 0. -1.
     999900   -1    0    0    0    0 -0.00000000000E+00 -0.00000000000E+00 -0.74505805969E-08  0.93827000000E+00  0.93827000000E+00 0.  1.
     999902    2    1    2    0    0 -0.16354980336E-01  0.25289253887E-02  0.16799762545E-01  0.10203479546E+01  0.10200754068E+01 0.  0.
     999903    2    3    3    0    0 -0.24351299547E-01 -0.92517937689E-01  0.88552138995E-01  0.13229038277E+00  0.22510208081E-01 0.  0.
         14    1    1    2    0    0  0.16354980336E-01 -0.25289253887E-02 -0.16799762545E-01  0.23582045436E-01  0.00000000000E+00 0.  1.
     999901    1    3    3    0    0  0.79963192117E-02  0.95046863078E-01 -0.71752376450E-01  0.88805757180E+00  0.88000000000E+00 0.  1.
        -11    1    4    4    0    0 -0.44489618887E-02 -0.16525285249E-01  0.55284883892E-02  0.17991765320E-01  0.51100000000E-03 0. -1.
         11    1    4    4    0    0 -0.19902337659E-01 -0.75992652440E-01  0.83023650605E-01  0.11429861745E+00  0.51100000000E-03 0.  1.
</event>
<event>
 8    1  0.1076043E+005  0.1043930E+01  0.7957747E-01            NaN
         13   -1    0    0    0    0  0.00000000000E+00  0.00000000000E+00  0.74505805969E-08  0.10566000000E+00  0.10566000000E+00 0.  1.
     999900   -1    0    0    0    0 -0.00000000000E+00 -0.00000000000E+00 -0.74505805969E-08  0.93827000000E+00  0.93827000000E+00 0.  1.
     999902    2    1    2    0    0 -0.21405331656E-01 -0.87903173781E-02  0.87916609212E-03  0.10207733414E+01  0.10205106485E+01 0.  0.
     999903    2    3    3    0    0 -0.10142901216E-01  0.35122502181E-01 -0.12394877008E+00  0.13080862769E+00  0.20276362324E-01 0.  0.
         14    1    1    2    0    0  0.21405331656E-01  0.87903173781E-02 -0.87916609212E-03  0.23156658566E-01  0.00000000000E+00 0.  1.
     999901    1    3    3    0    0 -0.11262430440E-01 -0.43912819559E-01  0.12482793617E+00  0.88996471374E+00  0.88000000000E+00 0. -1.
        -11    1    4    4    0    0 -0.11153778046E-01  0.78330677020E-02 -0.54533009174E-01  0.56212755891E-01  0.51100000000E-03 0.  1.
         11    1    4    4    0    0  0.10108768301E-02  0.27289434479E-01 -0.69415760907E-01  0.74595871799E-01  0.51100000000E-03 0. -1.
</event>
<event>
 8    1  0.1076043E+005  0.1043930E+01  0.7957747E-01            NaN
         13   -1    0    0    0    0  0.00000000000E+00  0.00000000000E+00  0.74505805969E-08  0.10566000000E+00  0.10566000000E+00 0. -1.
     999900   -1    0    0    0    0 -0.00000000000E+00 -0.00000000000E+00 -0.74505805969E-08  0.93827000000E+00  0.93827000000E+00 0. -1.
     999902    2    1    2    0    0  0.15201032429E-01 -0.16925138826E-01  0.33778111964E-02  0.10209312757E+01  0.10206721944E+01 0.  0.
     999903    2    3    3    0    0 -0.12597493378E+00  0.10218110374E-01 -0.16602924950E-01  0.12904191079E+00  0.20051531157E-01 0.  0.
         14    1    1    2    0    0 -0.15201032429E-01  0.16925138826E-01 -0.33778111964E-02  0.22998724305E-01  0.00000000000E+00 0. -1.
     999901    1    3    3    0    0  0.14117596621E+00 -0.27143249200E-01  0.19980736147E-01  0.89188936490E+00  0.88000000000E+00 0.  1.
        -11    1    4    4    0    0 -0.62647808691E-01  0.53548673709E-02 -0.18353417767E-01  0.65502149607E-01  0.51100000000E-03 0.  1.
         11    1    4    4    0    0 -0.63327125093E-01  0.48632430032E-02  0.17504928168E-02  0.63539761183E-01  0.51100000000E-03 0. -1.
</event>
<event>
 7    1  0.1076043E+005  0.1043930E+01  0.7957747E-01            NaN
         13   -1    0    0    0    0  0.00000000000E+00  0.00000000000E+00  0.74505805969E-08  0.10566000000E+00  0.10566000000E+00 0. -1.
     999900   -1    0    0    0    0 -0.00000000000E+00 -0.00000000000E+00 -0.74505805969E-08  0.93827000000E+00  0.93827000000E+00 0.  1.
     999903    2    1    2    0    0  0.12320505850E-01  0.29096892020E-01 -0.10322290369E+00  0.10970889420E+00  0.19561432265E-01 0.  0.
         14    1    1    2    0    0  0.57169182251E-02  0.41540891293E-01 -0.12257217950E-01  0.43687162821E-01  0.00000000000E+00 0.  1.
     999901    1    1    2    0    0 -0.18037424075E-01 -0.70637783314E-01  0.11548012164E+00  0.89053394298E+00  0.88000000000E+00 0. -1.
        -11    1    3    3    0    0  0.15560947331E-01  0.24531043959E-01 -0.66667335201E-01  0.72723516852E-01  0.51100000000E-03 0. -1.
         11    1    3    3    0    0 -0.32404414816E-02  0.45658480612E-02 -0.36555568486E-01  0.36985377351E-01  0.51100000000E-03 0.  1.
</event>
<event>
 8    1  0.1076043E+005  0.1043930E+01  0.7957747E-01            NaN
         13   -1    0    0    0    0  0.00000000000E+00  0.00000000000E+00  0.74505805969E-08  0.10566000000E+00  0.10566000000E+00 0.  1.
     999900   -1    0    0    0    0 -0.00000000000E+00 -0.00000000000E+00 -0.74505805969E-08  0.93827000000E+00  0.93827000000E+00 0.  1.
     999902    2    1    2    0    0 -0.60335038824E-02  0.18567883681E-01 -0.13078146601E-01  0.10204309066E+01  0.10201602951E+01 0.  0.
     999903    2    3    3    0    0  0.79939212795E-01 -0.73896168862E-01 -0.67673797032E-01  0.12974488217E+00  0.20076606500E-01 0.  0.
         14    1    1    2    0    0  0.60335038824E-02 -0.18567883681E-01  0.13078146601E-01  0.23499093429E-01  0.00000000000E+00 0.  1.
     999901    1    3    3    0    0 -0.85972716677E-01  0.92464052543E-01  0.54595650432E-01  0.89068602441E+00  0.88000000000E+00 0.  1.
        -11    1    4    4    0    0  0.28440419965E-01 -0.14015427625E-01 -0.18790535493E-01  0.36859666906E-01  0.51100000000E-03 0.  1.
         11    1    4    4    0    0  0.51498792830E-01 -0.59880741238E-01 -0.48883261540E-01  0.92885215260E-01  0.51100000000E-03 0. -1.
</event>
<event>
 8    1  0.1076043E+005  0.1043930E+01  0.7957747E-01            NaN
         13   -1    0    0    0    0  0.00000000000E+00  0.00000000000E+00  0.74505805969E-08  0.10566000000E+00  0.10566000000E+00 0. -1.
     999900   -1    0    0    0    0 -0.00000000000E+00 -0.00000000000E+00 -0.74505805969E-08  0.93827000000E+00  0.93827000000E+00 0. -1.
     999902    2    1    2    0    0 -0.50607961274E-03  0.14337567436E-01 -0.18852982402E-01  0.10202391389E+01  0.10199640403E+01 0.  0.
     999903    2    3    3    0    0  0.68327792010E-02  0.51864726358E-01  0.11625050246E+00  0.12910778034E+00  0.20445119468E-01 0.  0.
         14    1    1    2    0    0  0.50607961274E-03 -0.14337567436E-01  0.18852982402E-01  0.23690861150E-01  0.00000000000E+00 0. -1.
     999901    1    3    3    0    0 -0.73388588137E-02 -0.37527158922E-01 -0.13510348486E+00  0.89113135851E+00  0.88000000000E+00 0. -1.
        -11    1    4    4    0    0  0.10659889442E-01  0.32103012177E-01  0.54391007756E-01  0.64053723385E-01  0.51100000000E-03 0.  1.
         11    1    4    4    0    0 -0.38271102415E-02  0.19761714181E-01  0.61859494701E-01  0.65054056952E-01  0.51100000000E-03 0. -1.
</event>
<event>
 8    1  0.1076043E+005  0.1043930E+01  0.7957747E-01            NaN
         13   -1    0    0    0    0  0.00000000000E+00  0.00000000000E+00  0.74505805969E-08  0.10566000000E+00  0.10566000000E+00 0. -1.
     999900   -1    0    0    0    0 -0.00000000000E+00 -0.00000000000E+00 -0.74505805969E-08  0.93827000000E+00  0.93827000000E+00 0.  1.
     999902    2    1    2    0    0  0.93087904868E-02 -0.16503748840E-01 -0.12917421281E-01  0.10209977721E+01  0.10207402037E+01 0.  0.
     999903    2    3    3    0    0  0.48506306570E-01 -0.12214005438E+00 -0.16010307886E-01  0.13380836710E+00  0.19424069749E-01 0.  0.
         14    1    1    2    0    0 -0.93087904868E-02  0.16503748840E-01  0.12917421281E-01  0.22932227948E-01  0.00000000000E+00 0. -1.
     999901    1    3    3    0    0 -0.39197516083E-01  0.10563630554E+00  0.30928866050E-02  0.88718940495E+00  0.88000000000E+00 0.  1.
        -11    1    4    4    0    0  0.11725783477E-01 -0.48554877347E-01  0.22973500746E-03  0.49953818788E-01  0.51100000000E-03 0.  1.
         11    1    4    4    0    0  0.36780523093E-01 -0.73585177034E-01 -0.16240042893E-01  0.83854548310E-01  0.51100000000E-03 0. -1.
</event>
<event>
 8    1  0.1076043E+005  0.1043930E+01  0.7957747E-01            NaN
         13   -1    0    0    0    0  0.00000000000E+00  0.00000000000E+00  0.74505805969E-08  0.10566000000E+00  0.10566000000E+00 0. -1.
     999900   -1    0    0    0    0 -0.00000000000E+00 -0.00000000000E+00 -0.74505805969E-08  0.93827000000E+00  0.93827000000E+00 0.  1.
     999902    2    1    2    0    0 -0.76347204877E-02 -0.76405774672E-02  0.16097195809E-01  0.10245447712E+01  0.10243613626E+01 0.  0.
     999903    2    3    3    0    0  0.81505982840E-01  0.93735572493E-01  0.45406221787E-01  0.13376858848E+00  0.20068071625E-01 0.  0.
         14    1    1    2    0    0  0.76347204877E-02  0.76405774672E-02 -0.16097195809E-01  0.19385228755E-01  0.00000000000E+00 0.  1.
     999901    1    3    3    0    0 -0.89140703327E-01 -0.10137614996E+00 -0.29309025978E-01  0.89077618276E+00  0.88000000000E+00 0.  1.
        -11    1    4    4    0    0  0.44436159843E-01  0.65629243922E-01  0.30318261880E-01  0.84860049987E-01  0.51100000000E-03 0. -1.
         11    1    4    4    0    0  0.37069822997E-01  0.28106328571E-01  0.15087959908E-01  0.48908538497E-01  0.51100000000E-03 0.  1.
</event>
<event>
 8    1  0.1076043E+005  0.1043930E+01  0.7957747E-01            NaN
         13   -1    0    0    0    0  0.00000000000E+00  0.00000000000E+00  0.74505805969E-08  0.10566000000E+00  0.10566000000E+00 0.  1.
     999900   -1    0    0    0    0 -0.00000000000E+00 -0.00000000000E+00 -0.74505805969E-08  0.93827000000E+00  0.93827000000E+00 0. -1.
     999902    2    1    2    0    0  0.14579217024E-02  0.57865121791E-02 -0.22590100555E-01  0.10205650283E+01  0.10202975326E+01 0.  0.
     999903    2    3    3    0    0 -0.74637291281E-01  0.45691772884E-01 -0.98306815417E-01  0.13314408413E+00  0.20116009077E-01 0.  0.
         14    1    1    2    0    0 -0.14579217024E-02 -0.57865121791E-02  0.22590100555E-01  0.23364971688E-01  0.00000000000E+00 0.  1.
     999901    1    3    3    0    0  0.76095212983E-01 -0.39905260705E-01  0.75716714862E-01  0.88742094419E+00  0.88000000000E+00 0.  1.
        -11    1    4    4    0    0 -0.30390976437E-01  0.30008460235E-01 -0.43184913735E-01  0.60739748351E-01  0.51100000000E-03 0.  1.
         11    1    4    4    0    0 -0.44246314843E-01  0.15683312649E-01 -0.55121901682E-01  0.72404335775E-01  0.51100000000E-03 0. -1.
</event>
<event>
 8    1  0.1076043E+005  0.1043930E+01  0.7957747E-01            NaN
         13   -1    0    0    0    0  0.00000000000E+00  0.00000000000E+00  0.74505805969E-08  0.10566000000E+00  0.10566000000E+00 0. -1.
     999900   -1    0    0    0    0 -0.00000000000E+00 -0.00000000000E+00 -0.74505805969E-08  0.93827000000E+00  0.93827000000E+00 0. -1.
     999902    2    1    2    0    0  0.39429346592E-02 -0.22438541395E-01  0.53543535494E-02  0.10205269238E+01  0.10202585448E+01 0.  0.
     999903    2    3    3    0    0 -0.61940081474E-01  0.10337587499E+00 -0.37861342922E-01  0.12809348897E+00  0.21244185192E-01 0.  0.
         14    1    1    2    0    0 -0.39429346592E-02  0.22438541395E-01 -0.53543535494E-02  0.23403076199E-01  0.00000000000E+00 0.  1.
     999901    1    3    3    0    0  0.65883016133E-01 -0.12581441639E+00  0.43215696471E-01  0.89243343483E+00  0.88000000000E+00 0.  1.
        -11    1    4    4    0    0 -0.12186647911E-01  0.37476880317E-01 -0.17025420619E-01  0.42932004541E-01  0.51100000000E-03 0.  1.
         11    1    4    4    0    0 -0.49753433563E-01  0.65898994676E-01 -0.20835922303E-01  0.85161484427E-01  0.51100000000E-03 0. -1.
</event>
<event>
 8    1  0.1076043E+005  0.1043930E+01  0.7957747E-01            NaN
         13   -1    0    0    0    0  0.00000000000E+00  0.00000000000E+00  0.74505805969E-08  0.10566000000E+00  0.10566000000E+00 0. -1.
     999900   -1    0    0    0    0 -0.00000000000E+00 -0.00000000000E+00 -0.74505805969E-08  0.93827000000E+00  0.93827000000E+00 0. -1.
     999902    2    1    2    0    0 -0.23576806410E-01 -0.39300659744E-02 -0.23006840977E-02  0.10199174123E+01  0.10196347011E+01 0.  0.
     999903    2    3    3    0    0 -0.20356267752E-01  0.69279806178E-01 -0.10732710637E+00  0.13064770824E+00  0.18320663921E-01 0.  0.
         14    1    1    2    0    0  0.23576806410E-01  0.39300659744E-02  0.23006840977E-02  0.24012587665E-01  0.00000000000E+00 0. -1.
     999901    1    3    3    0    0 -0.32205386571E-02 -0.73209872152E-01  0.10502642227E+00  0.88926970410E+00  0.88000000000E+00 0.  1.
        -11    1    4    4    0    0 -0.14547309701E-01  0.50392113307E-01 -0.62087552368E-01  0.81278007992E-01  0.51100000000E-03 0.  1.
         11    1    4    4    0    0 -0.58089580517E-02  0.18887692871E-01 -0.45239553997E-01  0.49369700247E-01  0.51100000000E-03 0. -1.
</event>
<event>
 8    1  0.1076043E+005  0.1043930E+01  0.7957747E-01            NaN
         13   -1    0    0    0    0  0.00000000000E+00  0.00000000000E+00  0.74505805969E-08  0.10566000000E+00  0.10566000000E+00 0. -1.
     999900   -1    0    0    0    0 -0.00000000000E+00 -0.00000000000E+00 -0.74505805969E-08  0.93827000000E+00  0.93827000000E+00 0.  1.
     999902    2    1    2    0    0 -0.13881699459E-01  0.99408531643E-02  0.16942932111E-01  0.10198762042E+01  0.10195925102E+01 0.  0.
     999903    2    3    3    0    0 -0.10340550876E+00  0.77719421202E-01 -0.16966698749E-01  0.13209339873E+00  0.20683071493E-01 0.  0.
         14    1    1    2    0    0  0.13881699459E-01 -0.99408531643E-02 -0.16942932111E-01  0.24053795750E-01  0.00000000000E+00 0.  1.
     999901    1    3    3    0    0  0.89523809304E-01 -0.67778568037E-01  0.33909630860E-01  0.88778280552E+00  0.88000000000E+00 0. -1.
        -11    1    4    4    0    0 -0.79533366586E-01  0.69284069040E-01 -0.10816562163E-01  0.10603347472E+00  0.51100000000E-03 0. -1.
         11    1    4    4    0    0 -0.23872142177E-01  0.84353521612E-02 -0.61501365856E-02  0.26059924006E-01  0.51100000000E-03 0.  1.
</event>
<event>
 8    1  0.1076043E+005  0.1043930E+01  0.7957747E-01            NaN
         13   -1    0    0    0    0  0.00000000000E+00  0.00000000000E+00  0.74505805969E-08  0.10566000000E+00  0.10566000000E+00 0.  1.
     999900   -1    0    0    0    0 -0.00000000000E+00 -0.00000000000E+00 -0.74505805969E-08  0.93827000000E+00  0.93827000000E+00 0.  1.
     999902    2    1    2    0    0 -0.62415903766E-02  0.15668587098E-01 -0.16436518539E-01  0.10203796027E+01  0.10201077945E+01 0.  0.
     999903    2    3    3    0    0  0.80294023975E-01  0.17743876219E-01 -0.10137357525E+00  0.13206264181E+00  0.20049044188E-01 0.  0.
         14    1    1    2    0    0  0.62415903766E-02 -0.15668587098E-01  0.16436518539E-01  0.23550397316E-01  0.00000000000E+00 0.  1.
     999901    1    3    3    0    0 -0.86535614351E-01 -0.20752891215E-02  0.84937056713E-01  0.88831696088E+00  0.88000000000E+00 0. -1.
        -11    1    4    4    0    0  0.35093843371E-01  0.17584582657E-01 -0.42834553927E-01  0.58102112878E-01  0.51100000000E-03 0.  1.
         11    1    4    4    0    0  0.45200180603E-01  0.15929356197E-03 -0.58539021324E-01  0.73960528930E-01  0.51100000000E-03 0. -1.
</event>
<event>
 8    1  0.1076043E+005  0.1043930E+01  0.7957747E-01            NaN
         13   -1    0    0    0    0  0.00000000000E+00  0.00000000000E+00  0.74505805969E-08  0.10566000000E+00  0.10566000000E+00 0. -1.
     999900   -1    0    0    0    0 -0.00000000000E+00 -0.00000000000E+00 -0.74505805969E-08  0.93827000000E+00  0.93827000000E+00 0. -1.
     999902    2    1    2    0    0  0.15052791670E-01 -0.17090421118E-01 -0.56739012174E-02  0.10204595465E+01  0.10201896019E+01 0.  0.
     999903    2    3    3    0    0 -0.79694539138E-01 -0.10804463408E-01 -0.98928544750E-01  0.13045224403E+00  0.27622002257E-01 0.  0.
         14    1    1    2    0    0 -0.15052791670E-01  0.17090421118E-01  0.56739012174E-02  0.23470453470E-01  0.00000000000E+00 0. -1.
     999901    1    3    3    0    0  0.94747330807E-01 -0.62859577102E-02  0.93254643533E-01  0.89000730250E+00  0.88000000000E+00 0.  1.
        -11    1    4    4    0    0 -0.44105845949E-01 -0.53797724982E-02 -0.75152890753E-01  0.87306848005E-01  0.51100000000E-03 0.  1.
         11    1    4    4    0    0 -0.35588693188E-01 -0.54246909101E-02 -0.23775653997E-01  0.43145396027E-01  0.51100000000E-03 0. -1.
</event>
<event>
 8    1  0.1076043E+005  0.1043930E+01  0.7957747E-01            NaN
         13   -1    0    0    0    0  0.00000000000E+00  0.00000000000E+00  0.74505805969E-08  0.10566000000E+00  0.10566000000E+00 0. -1.
     999900   -1    0    0    0    0 -0.00000000000E+00 -0.00000000000E+00 -0.74505805969E-08  0.93827000000E+00  0.93827000000E+00 0. -1.
     999902    2    1    2    0    0  0.21005365077E-01  0.81018809546E-02 -0.81108379635E-02  0.10199998615E+01  0.10197191113E+01 0.  0.
     999903    2    3    3    0    0 -0.84307565624E-01 -0.86809637363E-01  0.35213744671E-01  0.12760083126E+00  0.19957093068E-01 0.  0.
         14    1    1    2    0    0 -0.21005365077E-01 -0.81018809546E-02  0.81108379635E-02  0.23930138518E-01  0.00000000000E+00 0. -1.
     999901    1    3    3    0    0  0.10531293070E+00  0.94911518318E-01 -0.43324582634E-01  0.89239903022E+00  0.88000000000E+00 0. -1.
        -11    1    4    4    0    0 -0.15549735668E-01 -0.25085870237E-01  0.14589184126E-01  0.32927201208E-01  0.51100000000E-03 0.  1.
         11    1    4    4    0    0 -0.68757829956E-01 -0.61723767127E-01  0.20624560545E-01  0.94673630052E-01  0.51100000000E-03 0. -1.
</event>
<event>
 8    1  0.1076043E+005  0.1043930E+01  0.7957747E-01            NaN
         13   -1    0    0    0    0  0.00000000000E+00  0.00000000000E+00  0.74505805969E-08  0.10566000000E+00  0.10566000000E+00 0. -1.
     999900   -1    0    0    0    0 -0.00000000000E+00 -0.00000000000E+00 -0.74505805969E-08  0.93827000000E+00  0.93827000000E+00 0.  1.
     999902    2    1    2    0    0  0.17536971674E-01  0.14753945937E-01  0.29355931352E-02  0.10208249788E+01  0.10205634696E+01 0.  0.
     999903    2    3    3    0    0 -0.11986157875E+00  0.10720206711E-01 -0.41896493024E-01  0.12902648777E+00  0.20268140661E-01 0.  0.
         14    1    1    2    0    0 -0.17536971674E-01 -0.14753945937E-01 -0.29355931352E-02  0.23105021170E-01  0.00000000000E+00 0.  1.
     999901    1    3    3    0    0  0.13739855042E+00  0.40337392262E-02  0.44832086159E-01  0.89179849106E+00  0.88000000000E+00 0. -1.
        -11    1    4    4    0    0 -0.72726093440E-02  0.47682955502E-02  0.98994147801E-04  0.87119693506E-02  0.51100000000E-03 0.  1.
         11    1    4    4    0    0 -0.11258896941E+00  0.59519111610E-02 -0.41995487172E-01  0.12031451842E+00  0.51100000000E-03 0. -1.
</event>
<event>
 8    1  0.1076043E+005  0.1043930E+01  0.7957747E-01            NaN
         13   -1    0    0    0    0  0.00000000000E+00  0.00000000000E+00  0.74505805969E-08  0.10566000000E+00  0.10566000000E+00 0. -1.
     999900   -1    0    0    0    0 -0.00000000000E+00 -0.00000000000E+00 -0.74505805969E-08  0.93827000000E+00  0.93827000000E+00 0.  1.
     999902    2    1    2    0    0  0.99890776611E-02 -0.61465802067E-02 -0.19989281136E-01  0.10207538597E+01  0.10204907195E+01 0.  0.
     999903    2    3    3    0    0 -0.13080380869E-01  0.12746075771E+00  0.74448680845E-02  0.12994762191E+00  0.20337582477E-01 0.  0.
         14    1    1    2    0    0 -0.99890776611E-02  0.61465802067E-02  0.19989281136E-01  0.23176140341E-01  0.00000000000E+00 0. -1.
     999901    1    3    3    0    0  0.23069458530E-01 -0.13360733792E+00 -0.27434149221E-01  0.89080623774E+00  0.88000000000E+00 0.  1.
        -11    1    4    4    0    0  0.40574032362E-02  0.45228701217E-01  0.69758940838E-02  0.45945861120E-01  0.51100000000E-03 0. -1.
         11    1    4    4    0    0 -0.17137784105E-01  0.82232056491E-01  0.46897400068E-03  0.84001760794E-01  0.51100000000E-03 0.  1.
</event>
<event>
 8    1  0.1076043E+005  0.1043930E+01  0.7957747E-01            NaN
         13   -1    0    0    0    0  0.00000000000E+00  0.00000000000E+00  0.74505805969E-08  0.10566000000E+00  0.10566000000E+00 0. -1.
     999900   -1    0    0    0    0 -0.00000000000E+00 -0.00000000000E+00 -0.74505805969E-08  0.93827000000E+00  0.93827000000E+00 0.  1.
     999902    2    1    2    0    0 -0.17942004995E-01  0.69066847209E-02 -0.14886179682E-01  0.10196150626E+01  0.10193251001E+01 0.  0.
     999903    2    3    3    0    0  0.22230466962E-02  0.12915141707E+00  0.17764968916E-02  0.13077984235E+00  0.20375984784E-01 0.  0.
         14    1    1    2    0    0  0.17942004995E-01 -0.69066847209E-02  0.14886179682E-01  0.24314937438E-01  0.00000000000E+00 0.  1.
     999901    1    3    3    0    0 -0.20165051692E-01 -0.12224473235E+00 -0.16662676573E-01  0.88883522021E+00  0.88000000000E+00 0. -1.
        -11    1    4    4    0    0 -0.28860995769E-02  0.32505047985E-01  0.86182748151E-02  0.33755643929E-01  0.51100000000E-03 0.  1.
         11    1    4    4    0    0  0.51091462731E-02  0.96646369087E-01 -0.68417779235E-02  0.97024198422E-01  0.51100000000E-03 0. -1.
</event>
<event>
 8    1  0.1076043E+005  0.1043930E+01  0.7957747E-01            NaN
         13   -1    0    0    0    0  0.00000000000E+00  0.00000000000E+00  0.74505805969E-08  0.10566000000E+00  0.10566000000E+00 0.  1.
     999900   -1    0    0    0    0 -0.00000000000E+00 -0.00000000000E+00 -0.74505805969E-08  0.93827000000E+00  0.93827000000E+00 0. -1.
     999902    2    1    2    0    0  0.61122266839E-04  0.23927102872E-01  0.16158886451E-03  0.10200022734E+01  0.10197215805E+01 0.  0.
     999903    2    3    3    0    0  0.25865703590E-01  0.11511571713E+00 -0.58024509189E-01  0.13300347873E+00  0.20060377280E-01 0.  0.
         14    1    1    2    0    0 -0.61122266839E-04 -0.23927102872E-01 -0.16158886451E-03  0.23927726568E-01  0.00000000000E+00 0.  1.
     999901    1    3    3    0    0 -0.25804581324E-01 -0.91188614257E-01  0.58186098054E-01  0.88699879470E+00  0.88000000000E+00 0. -1.
        -11    1    4    4    0    0  0.15671410537E-01  0.80067283935E-01 -0.49793577625E-01  0.95582553632E-01  0.51100000000E-03 0.  1.
         11    1    4    4    0    0  0.10194293054E-01  0.35048433193E-01 -0.82309315639E-02  0.37420925103E-01  0.51100000000E-03 0. -1.
</event>
<event>
 8    1  0.1076043E+005  0.1043930E+01  0.7957747E-01            NaN
         13   -1    0    0    0    0  0.00000000000E+00  0.00000000000E+00  0.74505805969E-08  0.10566000000E+00  0.10566000000E+00 0. -1.
     999900   -1    0    0    0    0 -0.00000000000E+00 -0.00000000000E+00 -0.74505805969E-08  0.93827000000E+00  0.93827000000E+00 0. -1.
     999902    2    1    2    0    0  0.68582035579E-02  0.22268725184E-01 -0.31337437600E-02  0.10204193338E+01  0.10201484526E+01 0.  0.
     999903    2    3    3    0    0  0.37042954262E-01  0.58639316578E-01  0.11037232657E+00  0.13187132318E+00  0.19931018412E-01 0.  0.
         14    1    1    2    0    0 -0.68582035579E-02 -0.22268725184E-01  0.31337437600E-02  0.23510666246E-01  0.00000000000E+00 0. -1.
     999901    1    3    3    0    0 -0.30184750704E-01 -0.36370591394E-01 -0.11350607033E+00  0.88854801057E+00  0.88000000000E+00 0. -1.
        -11    1    4    4    0    0  0.21770713019E-01  0.16490284954E-01  0.43186043052E-01  0.51099793333E-01  0.51100000000E-03 0.  1.
         11    1    4    4    0    0  0.15272241243E-01  0.42149031625E-01  0.67186283520E-01  0.80771529847E-01  0.51100000000E-03 0. -1.
</event>
<event>
 8    1  0.1076043E+005  0.1043930E+01  0.7957747E-01            NaN
         13   -1    0    0    0    0  0.00000000000E+00  0.00000000000E+00  0.74505805969E-08  0.10566000000E+00  0.10566000000E+00 0.  1.
     999900   -1    0    0    0    0 -0.00000000000E+00 -0.00000000000E+00 -0.74505805969E-08  0.93827000000E+00  0.93827000000E+00 0. -1.
     999902    2    1    2    0    0  0.13697619105E-01 -0.18515254801E-01  0.52215603230E-02  0.10203142400E+01  0.10200409032E+01 0.  0.
     999903    2    3    3    0    0  0.61704791869E-01 -0.76349907305E-01  0.87967317253E-01  0.13324243005E+00  0.19455245460E-01 0.  0.
         14    1    1    2    0    0 -0.13697619105E-01  0.18515254801E-01 -0.52215603230E-02  0.23615760028E-01  0.00000000000E+00 0.  1.
     999901    1    3    3    0    0 -0.48007172764E-01  0.57834652504E-01 -0.82745756930E-01  0.88707180992E+00  0.88000000000E+00 0. -1.
        -11    1    4    4    0    0  0.19059655454E-01 -0.27551610232E-01  0.42291428417E-01  0.53955423554E-01  0.51100000000E-03 0. -1.
         11    1    4    4    0    0  0.42645136416E-01 -0.48798297074E-01  0.45675888837E-01  0.79287006497E-01  0.51100000000E-03 0.  1.
</event>
<event>
 8    1  0.1076043E+005  0.1043930E+01  0.7957747E-01            NaN
         13   -1    0    0    0    0  0.00000000000E+00  0.00000000000E+00  0.74505805969E-08  0.10566000000E+00  0.10566000000E+00 0.  1.
     999900   -1    0    0    0    0 -0.00000000000E+00 -0.00000000000E+00 -0.74505805969E-08  0.93827000000E+00  0.93827000000E+00 0.  1.
     999902    2    1    2    0    0 -0.10827291511E-01  0.13192412826E-01  0.16307793569E-01  0.10203246165E+01  0.10200515227E+01 0.  0.
     999903    2    3    3    0    0 -0.12681156809E+00 -0.12223756225E-02  0.32387252121E-01  0.13245149073E+00  0.20292739858E-01 0.  0.
         14    1    1    2    0    0  0.10827291511E-01 -0.13192412826E-01 -0.16307793569E-01  0.23605383469E-01  0.00000000000E+00 0. -1.
     999901    1    3    3    0    0  0.11598427658E+00  0.14414788449E-01 -0.16079458553E-01  0.88787312581E+00  0.88000000000E+00 0.  1.
        -11    1    4    4    0    0 -0.32458023010E-01  0.72237411340E-02  0.36463411355E-02  0.33455382502E-01  0.51100000000E-03 0. -1.
         11    1    4    4    0    0 -0.94353545084E-01 -0.84461167565E-02  0.28740910986E-01  0.98996108224E-01  0.51100000000E-03 0.  1.
</event>
<event>
 8    1  0.1076043E+005  0.1043930E+01  0.7957747E-01            NaN
         13   -1    0    0    0    0  0.00000000000E+00  0.00000000000E+00  0.74505805969E-08  0.10566000000E+00  0.10566000000E+00 0.  1.
     999900   -1    0    0    0    0 -0.00000000000E+00 -0.00000000000E+00 -0.74505805969E-08  0.93827000000E+00  0.93827000000E+00 0. -1.
     999902    2    1    2    0    0  0.20081918177E-01 -0.40730164025E-02 -0.11484726451E-01  0.10204401758E+01  0.10201697802E+01 0.  0.
     999903    2    3    3    0    0 -0.85767039466E-02  0.32556163169E-01  0.12261332598E+00  0.12906746973E+00  0.22156724135E-01 0.  0.
         14    1    1    2    0    0 -0.20081918177E-01  0.40730164025E-02  0.11484726451E-01  0.23489824221E-01  0.00000000000E+00 0.  1.
     999901    1    3    3    0    0  0.28658622123E-01 -0.36629179571E-01 -0.13409805243E+00  0.89137270605E+00  0.88000000000E+00 0. -1.
        -11    1    4    4    0    0 -0.11917186750E-01  0.60249864163E-02  0.47025409563E-01  0.48887320104E-01  0.51100000000E-03 0.  1.
         11    1    4    4    0    0  0.33404828034E-02  0.26531176753E-01  0.75587916417E-01  0.80180149629E-01  0.51100000000E-03 0. -1.
</event>
<event>
 8    1  0.1076043E+005  0.1043930E+01  0.7957747E-01            NaN
         13   -1    0    0    0    0  0.00000000000E+00  0.00000000000E+00  0.74505805969E-08  0.10566000000E+00  0.10566000000E+00 0. -1.
     999900   -1    0    0    0    0 -0.00000000000E+00 -0.00000000000E+00 -0.74505805969E-08  0.93827000000E+00  0.93827000000E+00 0.  1.
     999902    2    1    2    0    0  0.68033386295E-02  0.66538634038E-02  0.21037963598E-01  0.10208398457E+01  0.10205786767E+01 0.  0.
     999903    2    3    3    0    0  0.88378981026E-01 -0.17614134443E-01 -0.90795623158E-01  0.12968875170E+00  0.21312557659E-01 0.  0.
         14    1    1    2    0    0 -0.68033386295E-02 -0.66538634038E-02 -0.21037963598E-01  0.23090154331E-01  0.00000000000E+00 0.  1.
     999901    1    3    3    0    0 -0.81575642397E-01  0.24267997847E-01  0.11183358676E+00  0.89115109397E+00  0.88000000000E+00 0. -1.
        -11    1    4    4    0    0  0.55077162598E-01 -0.37086604664E-02 -0.65256707311E-01  0.85474832391E-01  0.51100000000E-03 0.  1.
         11    1    4    4    0    0  0.33301818428E-01 -0.13905473977E-01 -0.25538915847E-01  0.44213919310E-01  0.51100000000E-03 0. -1.
</event>
<event>
 8    1  0.1076043E+005  0.1043930E+01  0.7957747E-01            NaN
         13   -1    0    0    0    0  0.00000000000E+00  0.00000000000E+00  0.74505805969E-08  0.10566000000E+00  0.10566000000E+00 0.  1.
     999900   -1    0    0    0    0 -0.00000000000E+00 -0.00000000000E+00 -0.74505805969E-08  0.93827000000E+00  0.93827000000E+00 0.  1.
     999902    2    1    2    0    0 -0.23307296745E-01  0.23659415873E-02  0.84552160339E-03  0.10204876736E+01  0.10202183831E+01 0.  0.
     999903    2    3    3    0    0  0.82771225641E-01 -0.14271989634E-01  0.95716754877E-01  0.12889918971E+00  0.19963428106E-01 0.  0.
         14    1    1    2    0    0  0.23307296745E-01 -0.23659415873E-02 -0.84552160339E-03  0.23442326419E-01  0.00000000000E+00 0.  1.
     999901    1    3    3    0    0 -0.10607852239E+00  0.16637931221E-01 -0.94871233274E-01  0.89158848387E+00  0.88000000000E+00 0. -1.
        -11    1    4    4    0    0  0.70462309842E-01 -0.18319467720E-01  0.75539646541E-01  0.10491443812E+00  0.51100000000E-03 0. -1.
         11    1    4    4    0    0  0.12308915799E-01  0.40474780863E-02  0.20177108336E-01  0.23984751589E-01  0.51100000000E-03 0.  1.
</event>
<event>
 8    1  0.1076043E+005  0.1043930E+01  0.7957747E-01            NaN
         13   -1    0    0    0    0  0.00000000000E+00  0.00000000000E+00  0.74505805969E-08  0.10566000000E+00  0.10566000000E+00 0. -1.
     999900   -1    0    0    0    0 -0.00000000000E+00 -0.00000000000E+00 -0.74505805969E-08  0.93827000000E+00  0.93827000000E+00 0. -1.
     999902    2    1    2    0    0 -0.56051650338E-02  0.21280590753E-01 -0.50340336474E-02  0.10213551708E+01  0.10211056567E+01 0.  0.
     999903    2    3    3    0    0  0.55723008270E-01 -0.11362364331E+00  0.94098135444E-02  0.12884807173E+00  0.22313561515E-01 0.  0.
         14    1    1    2    0    0  0.56051650338E-02 -0.21280590753E-01  0.50340336474E-02  0.22574829183E-01  0.00000000000E+00 0. -1.
     999901    1    3    3    0    0 -0.61328173304E-01  0.13490423406E+00 -0.14443847192E-01  0.89250709909E+00  0.88000000000E+00 0. -1.
        -11    1    4    4    0    0  0.43021554710E-01 -0.97711690485E-01  0.88110812679E-03  0.10676828227E+00  0.51100000000E-03 0.  1.
         11    1    4    4    0    0  0.12701453561E-01 -0.15911952821E-01  0.85287054176E-02  0.22079789452E-01  0.51100000000E-03 0. -1.
</event>
<event>
 8    1  0.1076043E+005  0.1043930E+01  0.7957747E-01            NaN
         13   -1    0    0    0    0  0.00000000000E+00  0.00000000000E+00  0.74505805969E-08  0.10566000000E+00  0.10566000000E+00 0.  1.
     999900   -1    0    0    0    0 -0.00000000000E+00 -0.00000000000E+00 -0.74505805969E-08  0.93827000000E+00  0.93827000000E+00 0. -1.
     999902    2    1    2    0    0 -0.91578357904E-02  0.17887499875E-01 -0.11333273927E-01  0.10208589856E+01  0.10205982543E+01 0.  0.
     999903    2    3    3    0    0 -0.12724834343E+00  0.10761358532E-01 -0.30228238823E-01  0.13274121773E+00  0.19963384462E-01 0.  0.
         14    1    1    2    0    0  0.91578357904E-02 -0.17887499875E-01  0.11333273927E-01  0.23071014413E-01  0.00000000000E+00 0. -1.
     999901    1    3    3    0    0  0.11809050764E+00  0.71261413426E-02  0.18894964896E-01  0.88811776786E+00  0.88000000000E+00 0.  1.
        -11    1    4    4    0    0 -0.93486305441E-01  0.12984199019E-01 -0.14751326000E-01  0.95530840408E-01  0.51100000000E-03 0. -1.
         11    1    4    4    0    0 -0.33762037988E-01 -0.22228404874E-02 -0.15476912824E-01  0.37210377323E-01  0.51100000000E-03 0.  1.
</event>
<event>
 8    1  0.1076043E+005  0.1043930E+01  0.7957747E-01            NaN
         13   -1    0    0    0    0  0.00000000000E+00  0.00000000000E+00  0.74505805969E-08  0.10566000000E+00  0.10566000000E+00 0. -1.
     999900   -1    0    0    0    0 -0.00000000000E+00 -0.00000000000E+00 -0.74505805969E-08  0.93827000000E+00  0.93827000000E+00 0. -1.
     999902    2    1    2    0    0  0.88156651573E-04 -0.20140243548E-01 -0.15598639069E-01  0.10184554103E+01  0.10181367629E+01 0.  0.
     999903    2    3    3    0    0  0.29994592942E-01  0.10529360945E+00  0.58904493752E-01  0.12594279790E+00  0.20135271612E-01 0.  0.
         14    1    1    2    0    0 -0.88156651573E-04  0.20140243548E-01  0.15598639069E-01  0.25474589743E-01  0.00000000000E+00 0. -1.
     999901    1    3    3    0    0 -0.29906436290E-01 -0.12543385300E+00 -0.74503132821E-01  0.89251261235E+00  0.88000000000E+00 0.  1.
        -11    1    4    4    0    0  0.96728978911E-02  0.26638313502E-01  0.59332853345E-02  0.28959103849E-01  0.51100000000E-03 0. -1.
         11    1    4    4    0    0  0.20321695051E-01  0.78655295948E-01  0.52971208418E-01  0.96983694055E-01  0.51100000000E-03 0.  1.
</event>
<event>
 8    1  0.1076043E+005  0.1043930E+01  0.7957747E-01            NaN
         13   -1    0    0    0    0  0.00000000000E+00  0.00000000000E+00  0.74505805969E-08  0.10566000000E+00  0.10566000000E+00 0.  1.
     999900   -1    0    0    0    0 -0.00000000000E+00 -0.00000000000E+00 -0.74505805969E-08  0.93827000000E+00  0.93827000000E+00 0.  1.
     999902    2    1    2    0    0 -0.24288958238E-02 -0.10037900484E-01 -0.21727756187E-01  0.10198726857E+01  0.10195889077E+01 0.  0.
     999903    2    3    3    0    0  0.98715746077E-01  0.23640126375E-01 -0.81380159798E-01  0.13143424817E+00  0.18670219175E-01 0.  0.
         14    1    1    2    0    0  0.24288958238E-02  0.10037900484E-01  0.21727756187E-01  0.24057314272E-01  0.00000000000E+00 0.  1.
     999901    1    3    3    0    0 -0.10114464190E+00 -0.33678026859E-01  0.59652403611E-01  0.88843843756E+00  0.88000000000E+00 0. -1.
        -11    1    4    4    0    0  0.85154807954E-01  0.26083468018E-01 -0.66513895897E-01  0.11115776217E+00  0.51100000000E-03 0. -1.
         11    1    4    4    0    0  0.13560938123E-01 -0.24433416432E-02 -0.14866263901E-01  0.20276486001E-01  0.51100000000E-03 0.  1.
</event>
<event>
 8    1  0.1076043E+005  0.1043930E+01  0.7957747E-01            NaN
         13   -1    0    0    0    0  0.00000000000E+00  0.00000000000E+00  0.74505805969E-08  0.10566000000E+00  0.10566000000E+00 0. -1.
     999900   -1    0    0    0    0 -0.00000000000E+00 -0.00000000000E+00 -0.74505805969E-08  0.93827000000E+00  0.93827000000E+00 0.  1.
     999902    2    1    2    0    0 -0.22438028425E-01  0.53772910367E-02  0.51988648970E-02  0.10202781803E+01  0.10200039983E+01 0.  0.
     999903    2    3    3    0    0 -0.11147580906E+00  0.69372661168E-01  0.13634667104E-01  0.13343304358E+00  0.19469228266E-01 0.  0.
         14    1    1    2    0    0  0.22438028425E-01 -0.53772910367E-02 -0.51988648970E-02  0.23651819692E-01  0.00000000000E+00 0.  1.
     999901    1    3    3    0    0  0.89037780633E-01 -0.63995370132E-01 -0.84358022066E-02  0.88684513673E+00  0.88000000000E+00 0.  1.
        -11    1    4    4    0    0 -0.32766378809E-01  0.24218676348E-01 -0.41644004663E-02  0.40960752148E-01  0.51100000000E-03 0. -1.
         11    1    4    4    0    0 -0.78709430250E-01  0.45153984820E-01  0.17799067570E-01  0.92472291432E-01  0.51100000000E-03 0.  1.
</event>
<event>
 8    1  0.1076043E+005  0.1043930E+01  0.7957747E-01            NaN
         13   -1    0    0    0    0  0.00000000000E+00  0.00000000000E+00  0.74505805969E-08  0.10566000000E+00  0.10566000000E+00 0. -1.
     999900   -1    0    0    0    0 -0.00000000000E+00 -0.00000000000E+00 -0.74505805969E-08  0.93827000000E+00  0.93827000000E+00 0. -1.
     999902    2    1    2    0    0  0.95842613477E-02  0.13541310210E-01  0.18111325940E-01  0.10193689480E+01  0.10190730135E+01 0.  0.
     999903    2    3    3    0    0 -0.33641044048E-02  0.57882639928E-01  0.11751980741E+00  0.13256803467E+00  0.20041493944E-01 0.  0.
         14    1    1    2    0    0 -0.95842613477E-02 -0.13541310210E-01 -0.18111325940E-01  0.24561051995E-01  0.00000000000E+00 0. -1.
     999901    1    3    3    0    0  0.12948365752E-01 -0.44341329718E-01 -0.99408481472E-01  0.88680091333E+00  0.88000000000E+00 0. -1.
        -11    1    4    4    0    0  0.46375010882E-02  0.27900755629E-01  0.73079008393E-01  0.78363008937E-01  0.51100000000E-03 0.  1.
         11    1    4    4    0    0 -0.80016054929E-02  0.29981884300E-01  0.44440799020E-01  0.54205025737E-01  0.51100000000E-03 0. -1.
</event>
<event>
 8    1  0.1076043E+005  0.1043930E+01  0.7957747E-01            NaN
         13   -1    0    0    0    0  0.00000000000E+00  0.00000000000E+00  0.74505805969E-08  0.10566000000E+00  0.10566000000E+00 0.  1.
     999900   -1    0    0    0    0 -0.00000000000E+00 -0.00000000000E+00 -0.74505805969E-08  0.93827000000E+00  0.93827000000E+00 0. -1.
     999902    2    1    2    0    0 -0.13150539956E-01 -0.12919029794E-01 -0.15590135679E-01  0.10197868775E+01  0.10195010472E+01 0.  0.
     999903    2    3    3    0    0 -0.20994940333E-01  0.12521602713E+00  0.71817204569E-02  0.12868565657E+00  0.19712435912E-01 0.  0.
         14    1    1    2    0    0  0.13150539956E-01  0.12919029794E-01  0.15590135679E-01  0.24143122467E-01  0.00000000000E+00 0.  1.
     999901    1    3    3    0    0  0.78444003766E-02 -0.13813505692E+00 -0.22771856136E-01  0.89110122096E+00  0.88000000000E+00 0. -1.
        -11    1    4    4    0    0 -0.16908620688E-01  0.93128982349E-01  0.13834104070E-01  0.95658519554E-01  0.51100000000E-03 0.  1.
         11    1    4    4    0    0 -0.40863196452E-02  0.32087044777E-01 -0.66523836135E-02  0.33027137017E-01  0.51100000000E-03 0. -1.
</event>
<event>
 8    1  0.1076043E+005  0.1043930E+01  0.7957747E-01            NaN
         13   -1    0    0    0    0  0.00000000000E+00  0.00000000000E+00  0.74505805969E-08  0.10566000000E+00  0.10566000000E+00 0. -1.
     999900   -1    0    0    0    0 -0.00000000000E+00 -0.00000000000E+00 -0.74505805969E-08  0.93827000000E+00  0.93827000000E+00 0.  1.
     999902    2    1    2    0    0 -0.16032714544E-01  0.55220208196E-02 -0.16799758249E-01  0.10200600916E+01  0.10197807696E+01 0.  0.
     999903    2    3    3    0    0  0.11815754339E+00 -0.39603658402E-01  0.21288361168E-01  0.12793114516E+00  0.19583890373E-01 0.  0.
         14    1    1    2    0    0  0.16032714544E-01 -0.55220208196E-02  0.16799758249E-01  0.23869908396E-01  0.00000000000E+00 0. -1.
     999901    1    3    3    0    0 -0.13419025793E+00  0.45125679222E-01 -0.38088119417E-01  0.89212894645E+00  0.88000000000E+00 0. -1.
        -11    1    4    4    0    0  0.40087267225E-01 -0.40682836536E-02  0.88285444446E-02  0.41252202892E-01  0.51100000000E-03 0.  1.
         11    1    4    4    0    0  0.78070276160E-01 -0.35535374749E-01  0.12459816723E-01  0.86678942265E-01  0.51100000000E-03 0. -1.
</event>
<event>
 8    1  0.1076043E+005  0.1043930E+01  0.7957747E-01            NaN
         13   -1    0    0    0    0  0.00000000000E+00  0.00000000000E+00  0.74505805969E-08  0.10566000000E+00  0.10566000000E+00 0. -1.
     999900   -1    0    0    0    0 -0.00000000000E+00 -0.00000000000E+00 -0.74505805969E-08  0.93827000000E+00  0.93827000000E+00 0. -1.
     999902    2    1    2    0    0  0.46469207953E-02 -0.47829261948E-02  0.22221340696E-01  0.10207296069E+01  0.10204659094E+01 0.  0.
     999903    2    3    3    0    0 -0.10250794051E+00  0.74320660115E-01 -0.18914480715E-01  0.12975727433E+00  0.21160204982E-01 0.  0.
         14    1    1    2    0    0 -0.46469207953E-02  0.47829261948E-02 -0.22221340696E-01  0.23200393061E-01  0.00000000000E+00 0. -1.
     999901    1    3    3    0    0  0.10715486130E+00 -0.79103586310E-01  0.41135821411E-01  0.89097233261E+00  0.88000000000E+00 0.  1.
        -11    1    4    4    0    0 -0.65601155854E-01  0.41613225742E-01 -0.20732703580E-01  0.80406954456E-01  0.51100000000E-03 0.  1.
         11    1    4    4    0    0 -0.36906784651E-01  0.32707434373E-01  0.18182228656E-02  0.49350319877E-01  0.51100000000E-03 0. -1.
</event>
<event>
 8    1  0.1076043E+005  0.1043930E+01  0.7957747E-01            NaN
         13   -1    0    0    0    0  0.00000000000E+00  0.00000000000E+00  0.74505805969E-08  0.10566000000E+00  0.10566000000E+00 0.  1.
     999900   -1    0    0    0    0 -0.00000000000E+00 -0.00000000000E+00 -0.74505805969E-08  0.93827000000E+00  0.93827000000E+00 0. -1.
     999902    2    1    2    0    0 -0.95435044095E-02  0.21238735380E-01 -0.38393698002E-02  0.10203312052E+01  0.10200582656E+01 0.  0.
     999903    2    3    3    0    0  0.27144868038E-01  0.69745506369E-01 -0.10717921754E+00  0.13219942011E+00  0.19698286363E-01 0.  0.
         14    1    1    2    0    0  0.95435044095E-02 -0.21238735380E-01  0.38393698002E-02  0.23598794830E-01  0.00000000000E+00 0.  1.
     999901    1    3    3    0    0 -0.36688372448E-01 -0.48506770989E-01  0.10333984774E+00  0.88813178506E+00  0.88000000000E+00 0.  1.
        -11    1    4    4    0    0  0.26235775446E-01  0.52832434132E-01 -0.71445603492E-01  0.92651591399E-01  0.51100000000E-03 0. -1.
         11    1    4    4    0    0  0.90909259244E-03  0.16913072237E-01 -0.35733614047E-01  0.39547828710E-01  0.51100000000E-03 0.  1.
</event>
<event>
 8    1  0.1076043E+005  0.1043930E+01  0.7957747E-01            NaN
         13   -1    0    0    0    0  0.00000000000E+00  0.00000000000E+00  0.74505805969E-08  0.10566000000E+00  0.10566000000E+00 0. -1.
     999900   -1    0    0    0    0 -0.00000000000E+00 -0.00000000000E+00 -0.74505805969E-08  0.93827000000E+00  0.93827000000E+00 0. -1.
     999902    2    1    2    0    0 -0.19580590064E-01 -0.11479444112E-01 -0.79228901997E-02  0.10198894232E+01  0.10196060446E+01 0.  0.
     999903    2    3    3    0    0  0.10614134815E+00 -0.20430955319E-01  0.65523792884E-01  0.12788014602E+00  0.19405014527E-01 0.  0.
         14    1    1    2    0    0  0.19580590064E-01  0.11479444112E-01  0.79228901997E-02  0.24040576813E-01  0.00000000000E+00 0. -1.
     999901    1    3    3    0    0 -0.12572193822E+00  0.89515112076E-02 -0.73446683084E-01  0.89200927717E+00  0.88000000000E+00 0. -1.
        -11    1    4    4    0    0  0.82174838636E-01 -0.10330923647E-01  0.42257938070E-01  0.92980785860E-01  0.51100000000E-03 0.  1.
         11    1    4    4    0    0  0.23966509515E-01 -0.10100031672E-01  0.23265854814E-01  0.34899360157E-01  0.51100000000E-03 0. -1.
</event>
<event>
 8    1  0.1076043E+005  0.1043930E+01  0.7957747E-01            NaN
         13   -1    0    0    0    0  0.00000000000E+00  0.00000000000E+00  0.74505805969E-08  0.10566000000E+00  0.10566000000E+00 0. -1.
     999900   -1    0    0    0    0 -0.00000000000E+00 -0.00000000000E+00 -0.74505805969E-08  0.93827000000E+00  0.93827000000E+00 0.  1.
     999902    2    1    2    0    0  0.21886927303E-01  0.58365360554E-02 -0.63166720034E-02  0.10204139824E+01  0.10201429764E+01 0.  0.
     999903    2    3    3    0    0  0.12375579011E+00 -0.33825470330E-01  0.28675452916E-01  0.13295987721E+00  0.19909528370E-01 0.  0.
         14    1    1    2    0    0 -0.21886927303E-01 -0.58365360554E-02  0.63166720034E-02  0.23516017628E-01  0.00000000000E+00 0. -1.
     999901    1    3    3    0    0 -0.10186886281E+00  0.39662006385E-01 -0.34992124919E-01  0.88745410516E+00  0.88000000000E+00 0.  1.
        -11    1    4    4    0    0  0.41964405408E-01 -0.30845624862E-02  0.14056716864E-01  0.44366409106E-01  0.51100000000E-03 0. -1.
         11    1    4    4    0    0  0.81791384700E-01 -0.30740907843E-01  0.14618736052E-01  0.88593468105E-01  0.51100000000E-03 0.  1.
</event>
<event>
 8    1  0.1076043E+005  0.1043930E+01  0.7957747E-01            NaN
         13   -1    0    0    0    0  0.00000000000E+00  0.00000000000E+00  0.74505805969E-08  0.10566000000E+00  0.10566000000E+00 0.  1.
     999900   -1    0    0    0    0 -0.00000000000E+00 -0.00000000000E+00 -0.74505805969E-08  0.93827000000E+00  0.93827000000E+00 0.  1.
     999902    2    1    2    0    0  0.39106633848E-02  0.69186783587E-02  0.20744017617E-01  0.10217156878E+01  0.10214741656E+01 0.  0.
     999903    2    3    3    0    0  0.68050152557E-01  0.10100273743E+00 -0.46990719346E-01  0.13179789453E+00  0.18170885129E-01 0.  0.
         14    1    1    2    0    0 -0.39106633848E-02 -0.69186783587E-02 -0.20744017617E-01  0.22214312171E-01  0.00000000000E+00 0. -1.
     999901    1    3    3    0    0 -0.64139489172E-01 -0.94084059069E-01  0.67734736963E-01  0.88991779330E+00  0.88000000000E+00 0. -1.
        -11    1    4    4    0    0  0.32388733885E-01  0.46174444778E-01 -0.31412114591E-01  0.64560758184E-01  0.51100000000E-03 0. -1.
         11    1    4    4    0    0  0.35661418672E-01  0.54828292650E-01 -0.15578604755E-01  0.67237136343E-01  0.51100000000E-03 0.  1.
</event>
<event>
 8    1  0.1076043E+005  0.1043930E+01  0.7957747E-01            NaN
         13   -1    0    0    0    0  0.00000000000E+00  0.00000000000E+00  0.74505805969E-08  0.10566000000E+00  0.10566000000E+00 0.  1.
     999900   -1    0    0    0    0 -0.00000000000E+00 -0.00000000000E+00 -0.74505805969E-08  0.93827000000E+00  0.93827000000E+00 0. -1.
     999902    2    1    2    0    0  0.78893574388E-02 -0.13882943496E-01 -0.16888851478E-01  0.10206875521E+01  0.10204228866E+01 0.  0.
     999903    2    3    3    0    0  0.22688129867E-01 -0.56331725415E-01 -0.11824170573E+00  0.13373022289E+00  0.14651177884E-01 0.  0.
         14    1    1    2    0    0 -0.78893574388E-02  0.13882943496E-01  0.16888851478E-01  0.23242447916E-01  0.00000000000E+00 0.  1.
     999901    1    3    3    0    0 -0.14798772428E-01  0.42448781919E-01  0.10135285426E+00  0.88695732920E+00  0.88000000000E+00 0.  1.
        -11    1    4    4    0    0  0.82327642650E-02 -0.35329434852E-01 -0.78973795933E-01  0.86908393953E-01  0.51100000000E-03 0.  1.
         11    1    4    4    0    0  0.14455365602E-01 -0.21002290562E-01 -0.39267909800E-01  0.46821828933E-01  0.51100000000E-03 0. -1.
</event>
<event>
 8    1  0.1076043E+005  0.1043930E+01  0.7957747E-01            NaN
         13   -1    0    0    0    0  0.00000000000E+00  0.00000000000E+00  0.74505805969E-08  0.10566000000E+00  0.10566000000E+00 0. -1.
     999900   -1    0    0    0    0 -0.00000000000E+00 -0.00000000000E+00 -0.74505805969E-08  0.93827000000E+00  0.93827000000E+00 0. -1.
     999902    2    1    2    0    0  0.20848786475E-01 -0.70884907176E-02  0.92572088995E-02  0.10200424611E+01  0.10197627214E+01 0.  0.
     999903    2    3    3    0    0  0.71925662518E-01 -0.76437346067E-01 -0.76961467662E-01  0.13164403067E+00  0.19776615063E-01 0.  0.
         14    1    1    2    0    0 -0.20848786475E-01  0.70884907176E-02 -0.92572088995E-02  0.23887538901E-01  0.00000000000E+00 0. -1.
     999901    1    3    3    0    0 -0.51076876043E-01  0.69348855350E-01  0.86218676562E-01  0.88839843043E+00  0.88000000000E+00 0.  1.
        -11    1    4    4    0    0  0.36750482741E-01 -0.28750148718E-01 -0.42362978625E-01  0.63024218456E-01  0.51100000000E-03 0. -1.
         11    1    4    4    0    0  0.35175179777E-01 -0.47687197350E-01 -0.34598489038E-01  0.68619812213E-01  0.51100000000E-03 0.  1.
</event>
<event>
 8    1  0.1076043E+005  0.1043930E+01  0.7957747E-01            NaN
         13   -1    0    0    0    0  0.00000000000E+00  0.00000000000E+00  0.74505805969E-08  0.10566000000E+00  0.10566000000E+00 0. -1.
     999900   -1    0    0    0    0 -0.00000000000E+00 -0.00000000000E+00 -0.74505805969E-08  0.93827000000E+00  0.93827000000E+00 0. -1.
     999902    2    1    2    0    0 -0.16731868763E-01 -0.32594329832E-02  0.16423587332E-01  0.10202590567E+01  0.10199844260E+01 0.  0.
     999903    2    3    3    0    0 -0.63161684073E-01 -0.11378986907E+00 -0.57994339855E-02  0.13185229867E+00  0.20343613003E-01 0.  0.
         14    1    1    2    0    0  0.16731868763E-01  0.32594329832E-02 -0.16423587332E-01  0.23670943296E-01  0.00000000000E+00 0.  1.
     999901    1    3    3    0    0  0.46429815310E-01  0.11053043609E+00  0.22223021318E-01  0.88840675804E+00  0.88000000000E+00 0.  1.
        -11    1    4    4    0    0 -0.20291312995E-01 -0.33393424495E-01 -0.10979244394E-01  0.40591416716E-01  0.51100000000E-03 0.  1.
         11    1    4    4    0    0 -0.42870371078E-01 -0.80396444579E-01  0.51798104085E-02  0.91260881949E-01  0.51100000000E-03 0. -1.
</event>
<event>
 8    1  0.1076043E+005  0.1043930E+01  0.7957747E-01            NaN
         13   -1    0    0    0    0  0.00000000000E+00  0.00000000000E+00  0.74505805969E-08  0.10566000000E+00  0.10566000000E+00 0. -1.
     999900   -1    0    0    0    0 -0.00000000000E+00 -0.00000000000E+00 -0.74505805969E-08  0.93827000000E+00  0.93827000000E+00 0.  1.
     999902    2    1    2    0    0 -0.14197799510E-01  0.10051392767E-01  0.15398168760E-01  0.10206983059E+01  0.10204338882E+01 0.  0.
     999903    2    3    3    0    0 -0.22729574073E-01 -0.66134413603E-01 -0.10599020698E+00  0.12906373616E+00  0.23089604086E-01 0.  0.
         14    1    1    2    0    0  0.14197799510E-01 -0.10051392767E-01 -0.15398168760E-01  0.23231694054E-01  0.00000000000E+00 0. -1.
     999901    1    3    3    0    0  0.85317745631E-02  0.76185806370E-01  0.12138837574E+00  0.89163456978E+00  0.88000000000E+00 0. -1.
        -11    1    4    4    0    0 -0.21962342031E-01 -0.34009270543E-01 -0.69547607731E-01  0.80474255588E-01  0.51100000000E-03 0.  1.
         11    1    4    4    0    0 -0.76723204268E-03 -0.32125143060E-01 -0.36442599246E-01  0.48589480574E-01  0.51100000000E-03 0. -1.
</event>
<event>
 8    1  0.1076043E+005  0.1043930E+01  0.7957747E-01            NaN
         13   -1    0    0    0    0  0.00000000000E+00  0.00000000000E+00  0.74505805969E-08  0.10566000000E+00  0.10566000000E+00 0. -1.
     999900   -1    0    0    0    0 -0.00000000000E+00 -0.00000000000E+00 -0.74505805969E-08  0.93827000000E+00  0.93827000000E+00 0. -1.
     999902    2    1    2    0    0 -0.44116333323E-02  0.16568622278E-01  0.14944295090E-01  0.10211854686E+01  0.10209321464E+01 0.  0.
     999903    2    3    3    0    0  0.12041594303E+00  0.41416915282E-01 -0.23843738489E-01  0.13118329274E+00  0.20619704735E-01 0.  0.
         14    1    1    2    0    0  0.44116333323E-02 -0.16568622278E-01 -0.14944295090E-01  0.22744531399E-01  0.00000000000E+00 0.  1.
     999901    1    3    3    0    0 -0.12482757636E+00 -0.24848293004E-01  0.38788033578E-01  0.89000217586E+00  0.88000000000E+00 0.  1.
        -11    1    4    4    0    0  0.89558778929E-01  0.24323024162E-01 -0.10222026112E-01  0.93365600338E-01  0.51100000000E-03 0.  1.
         11    1    4    4    0    0  0.30857164096E-01  0.17093891120E-01 -0.13621712377E-01  0.37817692403E-01  0.51100000000E-03 0. -1.
</event>
<event>
 8    1  0.1076043E+005  0.1043930E+01  0.7957747E-01            NaN
         13   -1    0    0    0    0  0.00000000000E+00  0.00000000000E+00  0.74505805969E-08  0.10566000000E+00  0.10566000000E+00 0.  1.
     999900   -1    0    0    0    0 -0.00000000000E+00 -0.00000000000E+00 -0.74505805969E-08  0.93827000000E+00  0.93827000000E+00 0.  1.
     999902    2    1    2    0    0  0.71385866802E-02  0.21001326340E-01  0.81664284054E-02  0.10202930442E+01  0.10200192108E+01 0.  0.
     999903    2    3    3    0    0  0.10570141915E+00  0.12851638087E-01 -0.75155954147E-01  0.13084171397E+00  0.11540453197E-01 0.  0.
         14    1    1    2    0    0 -0.71385866802E-02 -0.21001326340E-01 -0.81664284054E-02  0.23636955826E-01  0.00000000000E+00 0.  1.
     999901    1    3    3    0    0 -0.98562832468E-01  0.81496882528E-02  0.83322382552E-01  0.88945133020E+00  0.88000000000E+00 0. -1.
        -11    1    4    4    0    0  0.87610164958E-01  0.63490535462E-02 -0.62848260671E-01  0.10800933513E+00  0.51100000000E-03 0.  1.
         11    1    4    4    0    0  0.18091254191E-01  0.65025845412E-02 -0.12307693475E-01  0.22832378842E-01  0.51100000000E-03 0. -1.
</event>
<event>
 8    1  0.1076043E+005  0.1043930E+01  0.7957747E-01            NaN
         13   -1    0    0    0    0  0.00000000000E+00  0.00000000000E+00  0.74505805969E-08  0.10566000000E+00  0.10566000000E+00 0.  1.
     999900   -1    0    0    0    0 -0.00000000000E+00 -0.00000000000E+00 -0.74505805969E-08  0.93827000000E+00  0.93827000000E+00 0.  1.
     999902    2    1    2    0    0 -0.20469435248E-01  0.57439861730E-02 -0.10128095451E-01  0.10203807012E+01  0.10201089186E+01 0.  0.
     999903    2    3    3    0    0  0.58915499271E-01 -0.52751440286E-01 -0.10147395612E+00  0.13017412461E+00  0.19864250302E-01 0.  0.
         14    1    1    2    0    0  0.20469435248E-01 -0.57439861730E-02  0.10128095451E-01  0.23549298800E-01  0.00000000000E+00 0.  1.
     999901    1    3    3    0    0 -0.79384934518E-01  0.58495426459E-01  0.91345860671E-01  0.89020657659E+00  0.88000000000E+00 0. -1.
        -11    1    4    4    0    0  0.26527351059E-01 -0.12620021395E-01 -0.44506031685E-01  0.53329290935E-01  0.51100000000E-03 0.  1.
         11    1    4    4    0    0  0.32388148212E-01 -0.40131418891E-01 -0.56967924436E-01  0.76844833674E-01  0.51100000000E-03 0. -1.
</event>
<event>
 8    1  0.1076043E+005  0.1043930E+01  0.7957747E-01            NaN
         13   -1    0    0    0    0  0.00000000000E+00  0.00000000000E+00  0.74505805969E-08  0.10566000000E+00  0.10566000000E+00 0.  1.
     999900   -1    0    0    0    0 -0.00000000000E+00 -0.00000000000E+00 -0.74505805969E-08  0.93827000000E+00  0.93827000000E+00 0.  1.
     999902    2    1    2    0    0 -0.19875223481E-01  0.10209474775E-01  0.79012905150E-02  0.10202300364E+01  0.10199547239E+01 0.  0.
     999903    2    3    3    0    0  0.99291089123E-01  0.55314917631E-01  0.58882062734E-01  0.12959310128E+00  0.20219151708E-01 0.  0.
         14    1    1    2    0    0  0.19875223481E-01 -0.10209474775E-01 -0.79012905150E-02  0.23699963616E-01  0.00000000000E+00 0. -1.
     999901    1    3    3    0    0 -0.11916631260E+00 -0.45105442856E-01 -0.50980772219E-01  0.89063693510E+00  0.88000000000E+00 0.  1.
        -11    1    4    4    0    0  0.71667374393E-01  0.43807267763E-01  0.33797002969E-01  0.90541635682E-01  0.51100000000E-03 0.  1.
         11    1    4    4    0    0  0.27623714730E-01  0.11507649868E-01  0.25085059765E-01  0.39051465598E-01  0.51100000000E-03 0. -1.
</event>
<event>
 8    1  0.1076043E+005  0.1043930E+01  0.7957747E-01            NaN
         13   -1    0    0    0    0  0.00000000000E+00  0.00000000000E+00  0.74505805969E-08  0.10566000000E+00  0.10566000000E+00 0.  1.
     999900   -1    0    0    0    0 -0.00000000000E+00 -0.00000000000E+00 -0.74505805969E-08  0.93827000000E+00  0.93827000000E+00 0. -1.
     999902    2    1    2    0    0 -0.85059659593E-02  0.14860863895E-01 -0.17197404018E-01  0.10196617607E+01  0.10193729243E+01 0.  0.
     999903    2    3    3    0    0 -0.25540526634E-02  0.11462522886E+00 -0.64021854174E-01  0.13276780826E+00  0.19571071066E-01 0.  0.
         14    1    1    2    0    0  0.85059659593E-02 -0.14860863895E-01  0.17197404018E-01  0.24268239276E-01  0.00000000000E+00 0.  1.
     999901    1    3    3    0    0 -0.59519132959E-02 -0.99764364961E-01  0.46824450156E-01  0.88689395247E+00  0.88000000000E+00 0.  1.
        -11    1    4    4    0    0 -0.11075567828E-01  0.64387967748E-01 -0.37158858461E-01  0.75163292082E-01  0.51100000000E-03 0. -1.
         11    1    4    4    0    0  0.85215151641E-02  0.50237261108E-01 -0.26862995712E-01  0.57604516177E-01  0.51100000000E-03 0.  1.
</event>
<event>
 8    1  0.1076043E+005  0.1043930E+01  0.7957747E-01            NaN
         13   -1    0    0    0    0  0.00000000000E+00  0.00000000000E+00  0.74505805969E-08  0.10566000000E+00  0.10566000000E+00 0.  1.
     999900   -1    0    0    0    0 -0.00000000000E+00 -0.00000000000E+00 -0.74505805969E-08  0.93827000000E+00  0.93827000000E+00 0. -1.
     999902    2    1    2    0    0 -0.98510746223E-02 -0.15431645884E-01 -0.15837402114E-01  0.10197225079E+01  0.10194351331E+01 0.  0.
     999903    2    3    3    0    0 -0.52344315081E-01  0.85482200366E-01  0.77435678674E-01  0.12804479293E+00  0.18763015871E-01 0.  0.
         14    1    1    2    0    0  0.98510746223E-02  0.15431645884E-01  0.15837402114E-01  0.24207492056E-01  0.00000000000E+00 0. -1.
     999901    1    3    3    0    0  0.42493240458E-01 -0.10091384625E+00 -0.93273080788E-01  0.89167771501E+00  0.88000000000E+00 0. -1.
        -11    1    4    4    0    0 -0.43257454229E-01  0.74515856450E-01  0.57687578260E-01  0.10369155229E+00  0.51100000000E-03 0. -1.
         11    1    4    4    0    0 -0.90868608515E-02  0.10966343916E-01  0.19748100414E-01  0.24353240646E-01  0.51100000000E-03 0.  1.
</event>
<event>
 8    1  0.1076043E+005  0.1043930E+01  0.7957747E-01            NaN
         13   -1    0    0    0    0  0.00000000000E+00  0.00000000000E+00  0.74505805969E-08  0.10566000000E+00  0.10566000000E+00 0. -1.
     999900   -1    0    0    0    0 -0.00000000000E+00 -0.00000000000E+00 -0.74505805969E-08  0.93827000000E+00  0.93827000000E+00 0. -1.
     999902    2    1    2    0    0 -0.17416094793E-01  0.29913482024E-02  0.15999278893E-01  0.10200921006E+01  0.10198135360E+01 0.  0.
     999903    2    3    3    0    0  0.98136149359E-01 -0.63748885478E-01 -0.46955845947E-01  0.12780855394E+00  0.20869853420E-01 0.  0.
         14    1    1    2    0    0  0.17416094793E-01 -0.29913482024E-02 -0.15999278893E-01  0.23837899383E-01  0.00000000000E+00 0.  1.
     999901    1    3    3    0    0 -0.11555224415E+00  0.66740233681E-01  0.62955124840E-01  0.89228354667E+00  0.88000000000E+00 0. -1.
        -11    1    4    4    0    0  0.31834447453E-01 -0.31239636629E-01 -0.12516238945E-01  0.46327791871E-01  0.51100000000E-03 0.  1.
         11    1    4    4    0    0  0.66301701906E-01 -0.32509248850E-01 -0.34439607002E-01  0.81480762072E-01  0.51100000000E-03 0. -1.
</event>
<event>
 8    1  0.1076043E+005  0.1043930E+01  0.7957747E-01            NaN
         13   -1    0    0    0    0  0.00000000000E+00  0.00000000000E+00  0.74505805969E-08  0.10566000000E+00  0.10566000000E+00 0. -1.
     999900   -1    0    0    0    0 -0.00000000000E+00 -0.00000000000E+00 -0.74505805969E-08  0.93827000000E+00  0.93827000000E+00 0. -1.
     999902    2    1    2    0    0 -0.57237525200E-02 -0.20705635926E-01 -0.87653818485E-02  0.10207283487E+01  0.10204646223E+01 0.  0.
     999903    2    3    3    0    0  0.10402765018E+00  0.98004573277E-02 -0.76905298475E-01  0.13077383285E+00  0.16418570548E-01 0.  0.
         14    1    1    2    0    0  0.57237525200E-02  0.20705635926E-01  0.87653818485E-02  0.23201651255E-01  0.00000000000E+00 0.  1.
     999901    1    3    3    0    0 -0.10975140270E+00 -0.30506093254E-01  0.68139916626E-01  0.88995451589E+00  0.88000000000E+00 0.  1.
        -11    1    4    4    0    0  0.92447373477E-01  0.42023739495E-02 -0.70833913402E-01  0.11654132837E+00  0.51100000000E-03 0. -1.
         11    1    4    4    0    0  0.11580276706E-01  0.55980833781E-02 -0.60713850722E-02  0.14232504481E-01  0.51100000000E-03 0.  1.
</event>
<event>
 8    1  0.1076043E+005  0.1043930E+01  0.7957747E-01            NaN
         13   -1    0    0    0    0  0.00000000000E+00  0.00000000000E+00  0.74505805969E-08  0.10566000000E+00  0.10566000000E+00 0.  1.
     999900   -1    0    0    0    0 -0.00000000000E+00 -0.00000000000E+00 -0.74505805969E-08  0.93827000000E+00  0.93827000000E+00 0. -1.
     999902    2    1    2    0    0  0.15736130034E-01  0.20568010874E-02 -0.17388997494E-01  0.10203878367E+01  0.10201162207E+01 0.  0.
     999903    2    3    3    0    0 -0.85210832729E-01  0.21755879073E-01  0.90601274858E-01  0.12784078366E+00  0.20011763339E-01 0.  0.
         14    1    1    2    0    0 -0.15736130034E-01 -0.20568010874E-02  0.17388997494E-01  0.23542163304E-01  0.00000000000E+00 0.  1.
     999901    1    3    3    0    0  0.10094696276E+00 -0.19699077986E-01 -0.10799027235E+00  0.89254705304E+00  0.88000000000E+00 0.  1.
        -11    1    4    4    0    0 -0.41428457427E-01  0.20876646484E-01  0.45993632627E-01  0.65328606417E-01  0.51100000000E-03 0. -1.
         11    1    4    4    0    0 -0.43782375302E-01  0.87923258881E-03  0.44607642230E-01  0.62512177241E-01  0.51100000000E-03 0.  1.
</event>
<event>
 8    1  0.1076043E+005  0.1043930E+01  0.7957747E-01            NaN
         13   -1    0    0    0    0  0.00000000000E+00  0.00000000000E+00  0.74505805969E-08  0.10566000000E+00  0.10566000000E+00 0.  1.
     999900   -1    0    0    0    0 -0.00000000000E+00 -0.00000000000E+00 -0.74505805969E-08  0.93827000000E+00  0.93827000000E+00 0.  1.
     999902    2    1    2    0    0  0.22870650200E-01 -0.49907909640E-02  0.50720726897E-03  0.10205156477E+01  0.10202470070E+01 0.  0.
     999903    2    3    3    0    0  0.12875242640E+00 -0.23286613229E-01  0.19728994597E-01  0.13377151055E+00  0.19650194559E-01 0.  0.
         14    1    1    2    0    0 -0.22870650200E-01  0.49907909640E-02 -0.50720726897E-03  0.23414352313E-01  0.00000000000E+00 0.  1.
     999901    1    3    3    0    0 -0.10588177620E+00  0.18295822265E-01 -0.19221787328E-01  0.88674413714E+00  0.88000000000E+00 0.  1.
        -11    1    4    4    0    0  0.10258533783E+00 -0.20239163048E-01  0.23449693616E-01  0.10716120805E+00  0.51100000000E-03 0. -1.
         11    1    4    4    0    0  0.26167088568E-01 -0.30474501805E-02 -0.37206990182E-02  0.26610302495E-01  0.51100000000E-03 0.  1.
</event>
<event>
 8    1  0.1076043E+005  0.1043930E+01  0.7957747E-01            NaN
         13   -1    0    0    0    0  0.00000000000E+00  0.00000000000E+00  0.74505805969E-08  0.10566000000E+00  0.10566000000E+00 0. -1.
     999900   -1    0    0    0    0 -0.00000000000E+00 -0.00000000000E+00 -0.74505805969E-08  0.93827000000E+00  0.93827000000E+00 0. -1.
     999902    2    1    2    0    0  0.96526005433E-02  0.81890188813E-02  0.19741746884E-01  0.10204785758E+01  0.10202090738E+01 0.  0.
     999903    2    3    3    0    0 -0.83189841438E-01 -0.50101307400E-01  0.85802998782E-01  0.13121957518E+00  0.20633264102E-01 0.  0.
         14    1    1    2    0    0 -0.96526005433E-02 -0.81890188813E-02 -0.19741746884E-01  0.23451424210E-01  0.00000000000E+00 0.  1.
     999901    1    3    3    0    0  0.92842441982E-01  0.58290326281E-01 -0.66061251898E-01  0.88925900061E+00  0.88000000000E+00 0. -1.
        -11    1    4    4    0    0 -0.18989768119E-01 -0.22078469060E-01  0.22525097093E-01  0.36819983831E-01  0.51100000000E-03 0.  1.
         11    1    4    4    0    0 -0.64200073320E-01 -0.28022838340E-01  0.63277901689E-01  0.94399591344E-01  0.51100000000E-03 0. -1.
</event>
<event>
 8    1  0.1076043E+005  0.1043930E+01  0.7957747E-01            NaN
         13   -1    0    0    0    0  0.00000000000E+00  0.00000000000E+00  0.74505805969E-08  0.10566000000E+00  0.10566000000E+00 0.  1.
     999900   -1    0    0    0    0 -0.00000000000E+00 -0.00000000000E+00 -0.74505805969E-08  0.93827000000E+00  0.93827000000E+00 0. -1.
     999902    2    1    2    0    0 -0.62090177652E-02 -0.20450690439E-01  0.38448061275E-02  0.10222144485E+01  0.10219837639E+01 0.  0.
     999903    2    3    3    0    0 -0.93842212668E-01  0.24231745095E-01 -0.87281585095E-01  0.13205709387E+00  0.20675168593E-01 0.  0.
         14    1    1    2    0    0  0.62090177652E-02  0.20450690439E-01 -0.38448061275E-02  0.21715551460E-01  0.00000000000E+00 0.  1.
     999901    1    3    3    0    0  0.87633194903E-01 -0.44682435534E-01  0.91126391223E-01  0.89015735467E+00  0.88000000000E+00 0.  1.
        -11    1    4    4    0    0 -0.55334433876E-01  0.11733426255E-01 -0.63744083018E-01  0.85224069985E-01  0.51100000000E-03 0. -1.
         11    1    4    4    0    0 -0.38507778792E-01  0.12498318839E-01 -0.23537502077E-01  0.46833023886E-01  0.51100000000E-03 0.  1.
</event>
<event>
 8    1  0.1076043E+005  0.1043930E+01  0.7957747E-01            NaN
         13   -1    0    0    0    0  0.00000000000E+00  0.00000000000E+00  0.74505805969E-08  0.10566000000E+00  0.10566000000E+00 0. -1.
     999900   -1    0    0    0    0 -0.00000000000E+00 -0.00000000000E+00 -0.74505805969E-08  0.93827000000E+00  0.93827000000E+00 0. -1.
     999902    2    1    2    0    0  0.12985631633E-02  0.19598603495E-01  0.13342241709E-01  0.10201853808E+01  0.10199090177E+01 0.  0.
     999903    2    3    3    0    0  0.98435448886E-01 -0.59632575809E-01  0.57681005589E-01  0.13019713354E+00  0.19457992763E-01 0.  0.
         14    1    1    2    0    0 -0.12985631633E-02 -0.19598603495E-01 -0.13342241709E-01  0.23744619160E-01  0.00000000000E+00 0.  1.
     999901    1    3    3    0    0 -0.97136885722E-01  0.79231179304E-01 -0.44338763880E-01  0.88998824730E+00  0.88000000000E+00 0. -1.
        -11    1    4    4    0    0  0.51420673345E-01 -0.37508178766E-01  0.22786116327E-01  0.67604861806E-01  0.51100000000E-03 0.  1.
         11    1    4    4    0    0  0.47014775541E-01 -0.22124397043E-01  0.34894889262E-01  0.62592271738E-01  0.51100000000E-03 0. -1.
</event>
<event>
 8    1  0.1076043E+005  0.1043930E+01  0.7957747E-01            NaN
         13   -1    0    0    0    0  0.00000000000E+00  0.00000000000E+00  0.74505805969E-08  0.10566000000E+00  0.10566000000E+00 0. -1.
     999900   -1    0    0    0    0 -0.00000000000E+00 -0.00000000000E+00 -0.74505805969E-08  0.93827000000E+00  0.93827000000E+00 0.  1.
     999902    2    1    2    0    0 -0.11380877516E-01 -0.97947891839E-02 -0.17156066784E-01  0.10211310330E+01  0.10208764831E+01 0.  0.
     999903    2    3    3    0    0  0.55875348523E-01  0.11514008440E+00 -0.67520737524E-02  0.12970500375E+00  0.19962562161E-01 0.  0.
         14    1    1    2    0    0  0.11380877516E-01  0.97947891839E-02  0.17156066784E-01  0.22798966987E-01  0.00000000000E+00 0. -1.
     999901    1    3    3    0    0 -0.67256226039E-01 -0.12493487359E+00 -0.10403993032E-01  0.89142602926E+00  0.88000000000E+00 0.  1.
        -11    1    4    4    0    0  0.21592836603E-01  0.66874165396E-01 -0.18840185237E-02  0.70300890726E-01  0.51100000000E-03 0.  1.
         11    1    4    4    0    0  0.34282511920E-01  0.48265919008E-01 -0.48680552287E-02  0.59404113022E-01  0.51100000000E-03 0. -1.
</event>
<event>
 8    1  0.1076043E+005  0.1043930E+01  0.7957747E-01            NaN
         13   -1    0    0    0    0  0.00000000000E+00  0.00000000000E+00  0.74505805969E-08  0.10566000000E+00  0.10566000000E+00 0. -1.
     999900   -1    0    0    0    0 -0.00000000000E+00 -0.00000000000E+00 -0.74505805969E-08  0.93827000000E+00  0.93827000000E+00 0. -1.
     999902    2    1    2    0    0  0.13423403224E-01  0.17690917094E-01  0.10650758808E-01  0.10193008513E+01  0.10190032534E+01 0.  0.
     999903    2    3    3    0    0 -0.11254658165E+00 -0.12537266830E-01  0.57445199865E-01  0.12858658742E+00  0.20264337553E-01 0.  0.
         14    1    1    2    0    0 -0.13423403224E-01 -0.17690917094E-01 -0.10650758808E-01  0.24629148684E-01  0.00000000000E+00 0.  1.
     999901    1    3    3    0    0  0.12596998487E+00  0.30228183924E-01 -0.46794441057E-01  0.89071426390E+00  0.88000000000E+00 0.  1.
        -11    1    4    4    0    0 -0.40720626786E-01 -0.89346796984E-02  0.31024273700E-01  0.51968881331E-01  0.51100000000E-03 0.  1.
         11    1    4    4    0    0 -0.71825954863E-01 -0.36025871314E-02  0.26420926166E-01  0.76617706090E-01  0.51100000000E-03 0. -1.
</event>
<event>
 8    1  0.1076043E+005  0.1043930E+01  0.7957747E-01            NaN
         13   -1    0    0    0    0  0.00000000000E+00  0.00000000000E+00  0.74505805969E-08  0.10566000000E+00  0.10566000000E+00 0. -1.
     999900   -1    0    0    0    0 -0.00000000000E+00 -0.00000000000E+00 -0.74505805969E-08  0.93827000000E+00  0.93827000000E+00 0.  1.
     999902    2    1    2    0    0  0.60110230251E-02 -0.14611636413E-01 -0.22361759252E-01  0.10165497043E+01  0.10161808996E+01 0.  0.
     999903    2    3    3    0    0 -0.81020467143E-02 -0.53032907043E-01 -0.11726847396E+00  0.13050080198E+00  0.20010795678E-01 0.  0.
         14    1    1    2    0    0 -0.60110230251E-02  0.14611636413E-01  0.22361759252E-01  0.27380295713E-01  0.00000000000E+00 0. -1.
     999901    1    3    3    0    0  0.14113069739E-01  0.38421270629E-01  0.94906714707E-01  0.88604890230E+00  0.88000000000E+00 0. -1.
        -11    1    4    4    0    0  0.36998375418E-02 -0.22739195978E-01 -0.33661392757E-01  0.40793508245E-01  0.51100000000E-03 0. -1.
         11    1    4    4    0    0 -0.11801884256E-01 -0.30293711064E-01 -0.83607081202E-01  0.89707293740E-01  0.51100000000E-03 0.  1.
</event>
<event>
 8    1  0.1076043E+005  0.1043930E+01  0.7957747E-01            NaN
         13   -1    0    0    0    0  0.00000000000E+00  0.00000000000E+00  0.74505805969E-08  0.10566000000E+00  0.10566000000E+00 0. -1.
     999900   -1    0    0    0    0 -0.00000000000E+00 -0.00000000000E+00 -0.74505805969E-08  0.93827000000E+00  0.93827000000E+00 0.  1.
     999902    2    1    2    0    0 -0.67858047623E-02  0.10031457024E-01 -0.39524856146E-03  0.10318125127E+01  0.10317413571E+01 0.  0.
     999903    2    3    3    0    0 -0.11467895728E+00  0.81993436497E-01 -0.15827346923E-02  0.14230654368E+00  0.19350980730E-01 0.  0.
         14    1    1    2    0    0  0.67858047623E-02 -0.10031457024E-01  0.39524856146E-03  0.12117487269E-01  0.00000000000E+00 0. -1.
     999901    1    3    3    0    0  0.10789315251E+00 -0.71961979474E-01  0.11874861308E-02  0.88950596905E+00  0.88000000000E+00 0. -1.
        -11    1    4    4    0    0 -0.29891600474E-02  0.65621331430E-02 -0.21037802302E-02  0.75288565821E-02  0.51100000000E-03 0.  1.
         11    1    4    4    0    0 -0.11168979723E+00  0.75431303354E-01  0.52104553797E-03  0.13477768710E+00  0.51100000000E-03 0. -1.
</event>
<event>
 8    1  0.1076043E+005  0.1043930E+01  0.7957747E-01            NaN
         13   -1    0    0    0    0  0.00000000000E+00  0.00000000000E+00  0.74505805969E-08  0.10566000000E+00  0.10566000000E+00 0.  1.
     999900   -1    0    0    0    0 -0.00000000000E+00 -0.00000000000E+00 -0.74505805969E-08  0.93827000000E+00  0.93827000000E+00 0.  1.
     999902    2    1    2    0    0 -0.11649670422E-01 -0.42709037941E-02 -0.21053051062E-01  0.10194926024E+01  0.10191996762E+01 0.  0.
     999903    2    3    3    0    0  0.10548557644E+00  0.36180474059E-01 -0.63212584441E-01  0.12981040847E+00  0.20461617086E-01 0.  0.
         14    1    1    2    0    0  0.11649670422E-01  0.42709037941E-02  0.21053051062E-01  0.24437397553E-01  0.00000000000E+00 0.  1.
     999901    1    3    3    0    0 -0.11713524687E+00 -0.40451377854E-01  0.42159533379E-01  0.88968219398E+00  0.88000000000E+00 0.  1.
        -11    1    4    4    0    0  0.24518311545E-01  0.90718082422E-02 -0.54174227587E-02  0.26703087764E-01  0.51100000000E-03 0.  1.
         11    1    4    4    0    0  0.80967264900E-01  0.27108665817E-01 -0.57795161682E-01  0.10310732070E+00  0.51100000000E-03 0. -1.
</event>
<event>
 8    1  0.1076043E+005  0.1043930E+01  0.7957747E-01            NaN
         13   -1    0    0    0    0  0.00000000000E+00  0.00000000000E+00  0.74505805969E-08  0.10566000000E+00  0.10566000000E+00 0. -1.
     999900   -1    0    0    0    0 -0.00000000000E+00 -0.00000000000E+00 -0.74505805969E-08  0.93827000000E+00  0.93827000000E+00 0.  1.
     999902    2    1    2    0    0  0.12829537770E-01 -0.18029174705E-03 -0.22020150936E-01  0.10184443846E+01  0.10181254579E+01 0.  0.
     999903    2    3    3    0    0  0.10307805715E+00  0.31734869679E-01 -0.72785341031E-01  0.13179875230E+00  0.21000414736E-01 0.  0.
         14    1    1    2    0    0 -0.12829537770E-01  0.18029174705E-03  0.22020150936E-01  0.25485615389E-01  0.00000000000E+00 0. -1.
     999901    1    3    3    0    0 -0.90248519376E-01 -0.31915161426E-01  0.50765190095E-01  0.88664563232E+00  0.88000000000E+00 0. -1.
        -11    1    4    4    0    0  0.21270477517E-01 -0.16248226373E-02 -0.11164855821E-01  0.24082948094E-01  0.51100000000E-03 0.  1.
         11    1    4    4    0    0  0.81807579630E-01  0.33359692316E-01 -0.61620485210E-01  0.10771580420E+00  0.51100000000E-03 0. -1.
</event>
<event>
 8    1  0.1076043E+005  0.1043930E+01  0.7957747E-01            NaN
         13   -1    0    0    0    0  0.00000000000E+00  0.00000000000E+00  0.74505805969E-08  0.10566000000E+00  0.10566000000E+00 0.  1.
     999900   -1    0    0    0    0 -0.00000000000E+00 -0.00000000000E+00 -0.74505805969E-08  0.93827000000E+00  0.93827000000E+00 0. -1.
     999902    2    1    2    0    0 -0.66376551970E-02 -0.11644905208E-01  0.18792833424E-01  0.10208468271E+01  0.10205858178E+01 0.  0.
     999903    2    3    3    0    0  0.11267722528E-01  0.95856796057E-02  0.13100554819E+00  0.13328666933E+00  0.19596829812E-01 0.  0.
         14    1    1    2    0    0  0.66376551970E-02  0.11644905208E-01 -0.18792833424E-01  0.23083172917E-01  0.00000000000E+00 0. -1.
     999901    1    3    3    0    0 -0.17905377725E-01 -0.21230584814E-01 -0.11221271477E+00  0.88756015776E+00  0.88000000000E+00 0. -1.
        -11    1    4    4    0    0  0.82934451906E-02  0.18538138517E-02  0.11445843336E+00  0.11477461369E+00  0.51100000000E-03 0. -1.
         11    1    4    4    0    0  0.29742773372E-02  0.77318657539E-02  0.16547114830E-01  0.18512055637E-01  0.51100000000E-03 0.  1.
</event>
<event>
 8    1  0.1076043E+005  0.1043930E+01  0.7957747E-01            NaN
         13   -1    0    0    0    0  0.00000000000E+00  0.00000000000E+00  0.74505805969E-08  0.10566000000E+00  0.10566000000E+00 0.  1.
     999900   -1    0    0    0    0 -0.00000000000E+00 -0.00000000000E+00 -0.74505805969E-08  0.93827000000E+00  0.93827000000E+00 0.  1.
     999902    2    1    2    0    0 -0.27000736356E-02 -0.13439181513E-01 -0.19266981932E-01  0.10202843114E+01  0.10200102732E+01 0.  0.
     999903    2    3    3    0    0  0.23009023054E-01 -0.64345129655E-01  0.10789282862E+00  0.12931742612E+00  0.20308209635E-01 0.  0.
         14    1    1    2    0    0  0.27000736356E-02  0.13439181513E-01  0.19266981932E-01  0.23645688617E-01  0.00000000000E+00 0.  1.
     999901    1    3    3    0    0 -0.25709096690E-01  0.50905948142E-01 -0.12715981056E+00  0.89096688526E+00  0.88000000000E+00 0.  1.
        -11    1    4    4    0    0  0.49114267145E-02 -0.18035950088E-01  0.47757959534E-01  0.51288414168E-01  0.51100000000E-03 0. -1.
         11    1    4    4    0    0  0.18097596340E-01 -0.46309179566E-01  0.60134869090E-01  0.78029011956E-01  0.51100000000E-03 0.  1.
</event>
<event>
 8    1  0.1076043E+005  0.1043930E+01  0.7957747E-01            NaN
         13   -1    0    0    0    0  0.00000000000E+00  0.00000000000E+00  0.74505805969E-08  0.10566000000E+00  0.10566000000E+00 0. -1.
     999900   -1    0    0    0    0 -0.00000000000E+00 -0.00000000000E+00 -0.74505805969E-08  0.93827000000E+00  0.93827000000E+00 0. -1.
     999902    2    1    2    0    0  0.14078113217E-01  0.18803369597E-01 -0.84485921161E-03  0.10204252395E+01  0.10201544959E+01 0.  0.
     999903    2    3    3    0    0  0.11863173540E+00  0.54336761304E-01 -0.19009946236E-01  0.13333784118E+00  0.19789632666E-01 0.  0.
         14    1    1    2    0    0 -0.14078113217E-01 -0.18803369597E-01  0.84485921161E-03  0.23504760519E-01  0.00000000000E+00 0. -1.
     999901    1    3    3    0    0 -0.10455362218E+00 -0.35533391707E-01  0.18165087024E-01  0.88708739830E+00  0.88000000000E+00 0.  1.
        -11    1    4    4    0    0  0.37464128571E-01  0.19704331261E-01  0.28275373463E-02  0.42427322429E-01  0.51100000000E-03 0.  1.
         11    1    4    4    0    0  0.81167606832E-01  0.34632430043E-01 -0.21837483582E-01  0.90910518751E-01  0.51100000000E-03 0. -1.
</event>
<event>
 8    1  0.1076043E+005  0.1043930E+01  0.7957747E-01            NaN
         13   -1    0    0    0    0  0.00000000000E+00  0.00000000000E+00  0.74505805969E-08  0.10566000000E+00  0.10566000000E+00 0. -1.
     999900   -1    0    0    0    0 -0.00000000000E+00 -0.00000000000E+00 -0.74505805969E-08  0.93827000000E+00  0.93827000000E+00 0.  1.
     999902    2    1    2    0    0  0.16146089151E-01 -0.15969183842E-01 -0.68056461042E-02  0.10202228735E+01  0.10199473927E+01 0.  0.
     999903    2    3    3    0    0 -0.18658818563E-01 -0.12723334438E+00  0.22379231055E-01  0.13205461689E+00  0.20027891186E-01 0.  0.
         14    1    1    2    0    0 -0.16146089151E-01  0.15969183842E-01  0.68056461042E-02  0.23707126488E-01  0.00000000000E+00 0. -1.
     999901    1    3    3    0    0  0.34804907714E-01  0.11126416054E+00 -0.29184877160E-01  0.88816825663E+00  0.88000000000E+00 0. -1.
        -11    1    4    4    0    0 -0.69409305268E-02 -0.89219110476E-01  0.22485971819E-01  0.92271914688E-01  0.51100000000E-03 0.  1.
         11    1    4    4    0    0 -0.11717888036E-01 -0.38014233907E-01 -0.10674076322E-03  0.39782702198E-01  0.51100000000E-03 0. -1.
</event>
<event>
 8    1  0.1076043E+005  0.1043930E+01  0.7957747E-01            NaN
         13   -1    0    0    0    0  0.00000000000E+00  0.00000000000E+00  0.74505805969E-08  0.10566000000E+00  0.10566000000E+00 0. -1.
     999900   -1    0    0    0    0 -0.00000000000E+00 -0.00000000000E+00 -0.74505805969E-08  0.93827000000E+00  0.93827000000E+00 0.  1.
     999902    2    1    2    0    0 -0.87334275112E-02 -0.21833500794E-01  0.55692367977E-02  0.10197640961E+01  0.10194777196E+01 0.  0.
     999903    2    3    3    0    0 -0.10365793091E+00  0.50257740962E-01  0.59844475020E-01  0.13007110974E+00  0.81440304772E-02 0.  0.
         14    1    1    2    0    0  0.87334275112E-02  0.21833500794E-01 -0.55692367977E-02  0.24165903904E-01  0.00000000000E+00 0.  1.
     999901    1    3    3    0    0  0.94924503396E-01 -0.72091241756E-01 -0.54275238223E-01  0.88969298635E+00  0.88000000000E+00 0. -1.
        -11    1    4    4    0    0 -0.88696470449E-01  0.45867222371E-01  0.50729032545E-01  0.11200250811E+00  0.51100000000E-03 0.  1.
         11    1    4    4    0    0 -0.14961460458E-01  0.43905185912E-02  0.91154424754E-02  0.18068601635E-01  0.51100000000E-03 0. -1.
</event>
<event>
 8    1  0.1076043E+005  0.1043930E+01  0.7957747E-01            NaN
         13   -1    0    0    0    0  0.00000000000E+00  0.00000000000E+00  0.74505805969E-08  0.10566000000E+00  0.10566000000E+00 0.  1.
     999900   -1    0    0    0    0 -0.00000000000E+00 -0.00000000000E+00 -0.74505805969E-08  0.93827000000E+00  0.93827000000E+00 0.  1.
     999902    2    1    2    0    0  0.84658064969E-02  0.20041983585E-01 -0.93236490937E-02  0.10202597356E+01  0.10199851208E+01 0.  0.
     999903    2    3    3    0    0  0.67575228430E-01 -0.98173555426E-01 -0.46687865706E-01  0.12960552539E+00  0.20331672979E-01 0.  0.
         14    1    1    2    0    0 -0.84658064969E-02 -0.20041983585E-01  0.93236490937E-02  0.23670264428E-01  0.00000000000E+00 0. -1.
     999901    1    3    3    0    0 -0.59109421933E-01  0.11821553901E+00  0.37364216613E-01  0.89065421018E+00  0.88000000000E+00 0. -1.
        -11    1    4    4    0    0  0.12560346154E-01 -0.29258135443E-01 -0.56517620471E-02  0.32341990049E-01  0.51100000000E-03 0. -1.
         11    1    4    4    0    0  0.55014882276E-01 -0.68915419983E-01 -0.41036103659E-01  0.97263535345E-01  0.51100000000E-03 0.  1.
</event>
<event>
 8    1  0.1076043E+005  0.1043930E+01  0.7957747E-01            NaN
         13   -1    0    0    0    0  0.00000000000E+00  0.00000000000E+00  0.74505805969E-08  0.10566000000E+00  0.10566000000E+00 0.  1.
     999900   -1    0    0    0    0 -0.00000000000E+00 -0.00000000000E+00 -0.74505805969E-08  0.93827000000E+00  0.93827000000E+00 0. -1.
     999902    2    1    2    0    0 -0.39830173946E-02  0.25366209885E-01  0.16209408328E-02  0.10182018737E+01  0.10178767702E+01 0.  0.
     999903    2    3    3    0    0  0.11220627707E+00 -0.26186054987E-01 -0.50864715480E-01  0.12752104860E+00  0.19960973533E-01 0.  0.
         14    1    1    2    0    0  0.39830173946E-02 -0.25366209885E-01 -0.16209408328E-02  0.25728126257E-01  0.00000000000E+00 0. -1.
     999901    1    3    3    0    0 -0.11618929447E+00  0.51552264872E-01  0.52485656313E-01  0.89068082514E+00  0.88000000000E+00 0.  1.
        -11    1    4    4    0    0  0.90086034508E-01 -0.12579628026E-01 -0.39342948551E-01  0.99105344843E-01  0.51100000000E-03 0. -1.
         11    1    4    4    0    0  0.22120242565E-01 -0.13606426961E-01 -0.11521766929E-01  0.28415703756E-01  0.51100000000E-03 0.  1.
</event>
<event>
 8    1  0.1076043E+005  0.1043930E+01  0.7957747E-01            NaN
         13   -1    0    0    0    0  0.00000000000E+00  0.00000000000E+00  0.74505805969E-08  0.10566000000E+00  0.10566000000E+00 0.  1.
     999900   -1    0    0    0    0 -0.00000000000E+00 -0.00000000000E+00 -0.74505805969E-08  0.93827000000E+00  0.93827000000E+00 0. -1.
     999902    2    1    2    0    0 -0.75650297602E-02  0.15260033234E-01 -0.16350510367E-01  0.10203198861E+01  0.10200466815E+01 0.  0.
     999903    2    3    3    0    0 -0.53511839193E-01  0.55608295524E-01  0.10293419325E+00  0.13016937517E+00  0.19819652571E-01 0.  0.
         14    1    1    2    0    0  0.75650297602E-02 -0.15260033234E-01  0.16350510367E-01  0.23610113910E-01  0.00000000000E+00 0. -1.
     999901    1    3    3    0    0  0.45946809433E-01 -0.40348262290E-01 -0.11928470362E+00  0.89015051092E+00  0.88000000000E+00 0. -1.
        -11    1    4    4    0    0 -0.36583745782E-01  0.48271932389E-01  0.71399844323E-01  0.93630917983E-01  0.51100000000E-03 0. -1.
         11    1    4    4    0    0 -0.16928093412E-01  0.73363631351E-02  0.31534348927E-01  0.36538457190E-01  0.51100000000E-03 0.  1.
</event>
<event>
 8    1  0.1076043E+005  0.1043930E+01  0.7957747E-01            NaN
         13   -1    0    0    0    0  0.00000000000E+00  0.00000000000E+00  0.74505805969E-08  0.10566000000E+00  0.10566000000E+00 0. -1.
     999900   -1    0    0    0    0 -0.00000000000E+00 -0.00000000000E+00 -0.74505805969E-08  0.93827000000E+00  0.93827000000E+00 0.  1.
     999902    2    1    2    0    0 -0.16948194738E-01 -0.15467107720E-01  0.37018169497E-02  0.10206883096E+01  0.10204236616E+01 0.  0.
     999903    2    3    3    0    0  0.97369362741E-01  0.58192702377E-01  0.57323581776E-01  0.12862913818E+00  0.19806028132E-01 0.  0.
         14    1    1    2    0    0  0.16948194738E-01  0.15467107720E-01 -0.37018169497E-02  0.23241690447E-01  0.00000000000E+00 0.  1.
     999901    1    3    3    0    0 -0.11431755748E+00 -0.73659810097E-01 -0.53621764826E-01  0.89205917138E+00  0.88000000000E+00 0.  1.
        -11    1    4    4    0    0  0.65947214255E-01  0.39947456402E-01  0.28341123878E-01  0.82148126970E-01  0.51100000000E-03 0.  1.
         11    1    4    4    0    0  0.31422148486E-01  0.18245245975E-01  0.28982457898E-01  0.46481011208E-01  0.51100000000E-03 0. -1.
</event>
<event>
 8    1  0.1076043E+005  0.1043930E+01  0.7957747E-01            NaN
         13   -1    0    0    0    0  0.00000000000E+00  0.00000000000E+00  0.74505805969E-08  0.10566000000E+00  0.10566000000E+00 0.  1.
     999900   -1    0    0    0    0 -0.00000000000E+00 -0.00000000000E+00 -0.74505805969E-08  0.93827000000E+00  0.93827000000E+00 0.  1.
     999902    2    1    2    0    0 -0.71572182259E-02  0.14306758558E-01 -0.13508421972E-01  0.10229923168E+01  0.10227780276E+01 0.  0.
     999903    2    3    3    0    0  0.84811375198E-01 -0.14516960656E-01 -0.10014671721E+00  0.13350076364E+00  0.19732648415E-01 0.  0.
         14    1    1    2    0    0  0.71572182259E-02 -0.14306758558E-01  0.13508421972E-01  0.20937683189E-01  0.00000000000E+00 0.  1.
     999901    1    3    3    0    0 -0.91968593424E-01  0.28823719215E-01  0.86638295241E-01  0.88949155317E+00  0.88000000000E+00 0. -1.
        -11    1    4    4    0    0  0.16457533936E-01 -0.56525731608E-02 -0.32799063685E-01  0.37132757859E-01  0.51100000000E-03 0. -1.
         11    1    4    4    0    0  0.68353841261E-01 -0.88643874956E-02 -0.67347653527E-01  0.96368005777E-01  0.51100000000E-03 0.  1.
</event>
<event>
 8    1  0.1076043E+005  0.1043930E+01  0.7957747E-01            NaN
         13   -1    0    0    0    0  0.00000000000E+00  0.00000000000E+00  0.74505805969E-08  0.10566000000E+00  0.10566000000E+00 0. -1.
     999900   -1    0    0    0    0 -0.00000000000E+00 -0.00000000000E+00 -0.74505805969E-08  0.93827000000E+00  0.93827000000E+00 0. -1.
     999902    2    1    2    0    0 -0.11343329317E-01 -0.19200284439E-01  0.77770879642E-02  0.10203121013E+01  0.10200387144E+01 0.  0.
     999903    2    3    3    0    0  0.10354219425E+00 -0.40614967996E-02  0.76087658813E-01  0.13009066787E+00  0.19919043586E-01 0.  0.
         14    1    1    2    0    0  0.11343329317E-01  0.19200284439E-01 -0.77770879642E-02  0.23617898716E-01  0.00000000000E+00 0.  1.
     999901    1    3    3    0    0 -0.11488552357E+00 -0.15138787640E-01 -0.68310570849E-01  0.89022143341E+00  0.88000000000E+00 0. -1.
        -11    1    4    4    0    0  0.65697035131E-01  0.57537623989E-02  0.53598500406E-01  0.84983919499E-01  0.51100000000E-03 0.  1.
         11    1    4    4    0    0  0.37845159120E-01 -0.98152591985E-02  0.22489158407E-01  0.45106748373E-01  0.51100000000E-03 0. -1.
</event>
<event>
 8    1  0.1076043E+005  0.1043930E+01  0.7957747E-01            NaN
         13   -1    0    0    0    0  0.00000000000E+00  0.00000000000E+00  0.74505805969E-08  0.10566000000E+00  0.10566000000E+00 0.  1.
     999900   -1    0    0    0    0 -0.00000000000E+00 -0.00000000000E+00 -0.74505805969E-08  0.93827000000E+00  0.93827000000E+00 0. -1.
     999902    2    1    2    0    0 -0.12878065433E-01  0.94155877506E-02 -0.17334167179E-01  0.10203721730E+01  0.10201001912E+01 0.  0.
     999903    2    3    3    0    0 -0.58487488127E-01 -0.10922366548E+00  0.33356995904E-01  0.12979646825E+00  0.19591799958E-01 0.  0.
         14    1    1    2    0    0  0.12878065433E-01 -0.94155877506E-02  0.17334167179E-01  0.23557827018E-01  0.00000000000E+00 0.  1.
     999901    1    3    3    0    0  0.45609422694E-01  0.11863925323E+00 -0.50691163083E-01  0.89057570473E+00  0.88000000000E+00 0.  1.
        -11    1    4    4    0    0 -0.48106671369E-01 -0.95761060490E-01  0.22159941155E-01  0.10943380031E+00  0.51100000000E-03 0.  1.
         11    1    4    4    0    0 -0.10380816758E-01 -0.13462604991E-01  0.11197054749E-01  0.20362667943E-01  0.51100000000E-03 0. -1.
</event>
<event>
 8    1  0.1076043E+005  0.1043930E+01  0.7957747E-01            NaN
         13   -1    0    0    0    0  0.00000000000E+00  0.00000000000E+00  0.74505805969E-08  0.10566000000E+00  0.10566000000E+00 0.  1.
     999900   -1    0    0    0    0 -0.00000000000E+00 -0.00000000000E+00 -0.74505805969E-08  0.93827000000E+00  0.93827000000E+00 0. -1.
     999902    2    1    2    0    0 -0.20848029754E-01  0.28449891848E-02  0.90873051365E-02  0.10210102831E+01  0.10207529989E+01 0.  0.
     999903    2    3    3    0    0 -0.81561540285E-01 -0.17945746321E-01  0.10253817743E+00  0.13373836842E+00  0.19938372355E-01 0.  0.
         14    1    1    2    0    0  0.20848029754E-01 -0.28449891848E-02 -0.90873051365E-02  0.22919716899E-01  0.00000000000E+00 0. -1.
     999901    1    3    3    0    0  0.60713510530E-01  0.20790735506E-01 -0.93450872297E-01  0.88727191468E+00  0.88000000000E+00 0. -1.
        -11    1    4    4    0    0 -0.63610025223E-01 -0.10720174780E-01  0.65421785329E-01  0.91877247307E-01  0.51100000000E-03 0.  1.
         11    1    4    4    0    0 -0.17951515062E-01 -0.72255715411E-02  0.37116392105E-01  0.41861121115E-01  0.51100000000E-03 0. -1.
</event>
<event>
 8    1  0.1076043E+005  0.1043930E+01  0.7957747E-01            NaN
         13   -1    0    0    0    0  0.00000000000E+00  0.00000000000E+00  0.74505805969E-08  0.10566000000E+00  0.10566000000E+00 0. -1.
     999900   -1    0    0    0    0 -0.00000000000E+00 -0.00000000000E+00 -0.74505805969E-08  0.93827000000E+00  0.93827000000E+00 0.  1.
     999902    2    1    2    0    0 -0.74399526969E-02 -0.22096036223E-01  0.63417891856E-02  0.10197679222E+01  0.10194816375E+01 0.  0.
     999903    2    3    3    0    0  0.31829583112E-01  0.10568977328E+00 -0.60930547201E-01  0.12713312746E+00  0.16335543477E-01 0.  0.
         14    1    1    2    0    0  0.74399526969E-02  0.22096036223E-01 -0.63417891856E-02  0.24162077787E-01  0.00000000000E+00 0.  1.
     999901    1    3    3    0    0 -0.39269535809E-01 -0.12778580950E+00  0.67272336387E-01  0.89263479475E+00  0.88000000000E+00 0. -1.
        -11    1    4    4    0    0  0.72686769026E-02  0.30793950054E-01 -0.95905242991E-02  0.33065696744E-01  0.51100000000E-03 0.  1.
         11    1    4    4    0    0  0.24560906209E-01  0.74895823221E-01 -0.51340022902E-01  0.94067430721E-01  0.51100000000E-03 0. -1.
</event>
<event>
 8    1  0.1076043E+005  0.1043930E+01  0.7957747E-01            NaN
         13   -1    0    0    0    0  0.00000000000E+00  0.00000000000E+00  0.74505805969E-08  0.10566000000E+00  0.10566000000E+00 0.  1.
     999900   -1    0    0    0    0 -0.00000000000E+00 -0.00000000000E+00 -0.74505805969E-08  0.93827000000E+00  0.93827000000E+00 0.  1.
     999902    2    1    2    0    0 -0.26074753753E-01 -0.23636963639E-02 -0.91624393464E-02  0.10161913962E+01  0.10158127404E+01 0.  0.
     999903    2    3    3    0    0 -0.28887395217E-01 -0.12240528144E+00 -0.19124887631E-01  0.12798131778E+00  0.13997208537E-01 0.  0.
         14    1    1    2    0    0  0.26074753753E-01  0.23636963639E-02  0.91624393464E-02  0.27738603760E-01  0.00000000000E+00 0.  1.
     999901    1    3    3    0    0  0.28126414636E-02  0.12004158508E+00  0.99624482848E-02  0.88821007846E+00  0.88000000000E+00 0.  1.
        -11    1    4    4    0    0 -0.25513727285E-01 -0.90943873153E-01 -0.18931439290E-01  0.96334826820E-01  0.51100000000E-03 0.  1.
         11    1    4    4    0    0 -0.33736679318E-02 -0.31461408289E-01 -0.19344834155E-03  0.31646490961E-01  0.51100000000E-03 0. -1.
</event>
<event>
 8    1  0.1076043E+005  0.1043930E+01  0.7957747E-01            NaN
         13   -1    0    0    0    0  0.00000000000E+00  0.00000000000E+00  0.74505805969E-08  0.10566000000E+00  0.10566000000E+00 0.  1.
     999900   -1    0    0    0    0 -0.00000000000E+00 -0.00000000000E+00 -0.74505805969E-08  0.93827000000E+00  0.93827000000E+00 0. -1.
     999902    2    1    2    0    0 -0.12681941818E-01  0.30177250215E-02 -0.19650701277E-01  0.10203484739E+01  0.10200759383E+01 0.  0.
     999903    2    3    3    0    0  0.31771174597E-01  0.96118307827E-01 -0.82449005483E-01  0.13209883270E+00  0.20102896827E-01 0.  0.
         14    1    1    2    0    0  0.12681941818E-01 -0.30177250215E-02  0.19650701277E-01  0.23581526101E-01  0.00000000000E+00 0.  1.
     999901    1    3    3    0    0 -0.44453116415E-01 -0.93100582806E-01  0.62798304207E-01  0.88824964120E+00  0.88000000000E+00 0.  1.
        -11    1    4    4    0    0  0.22709035245E-01  0.37789859238E-01 -0.37963209041E-01  0.58182816232E-01  0.51100000000E-03 0.  1.
         11    1    4    4    0    0  0.90621393517E-02  0.58328448590E-01 -0.44485796442E-01  0.73916016469E-01  0.51100000000E-03 0. -1.
</event>
<event>
 8    1  0.1076043E+005  0.1043930E+01  0.7957747E-01            NaN
         13   -1    0    0    0    0  0.00000000000E+00  0.00000000000E+00  0.74505805969E-08  0.10566000000E+00  0.10566000000E+00 0. -1.
     999900   -1    0    0    0    0 -0.00000000000E+00 -0.00000000000E+00 -0.74505805969E-08  0.93827000000E+00  0.93827000000E+00 0.  1.
     999902    2    1    2    0    0 -0.58640328597E-02 -0.18135778072E-01  0.14122333200E-01  0.10202079929E+01  0.10199321620E+01 0.  0.
     999903    2    3    3    0    0 -0.27709683042E-01 -0.84237518584E-01 -0.94888467520E-01  0.13075308833E+00  0.15124905509E-01 0.  0.
         14    1    1    2    0    0  0.58640328597E-02  0.18135778072E-01 -0.14122333200E-01  0.23722007138E-01  0.00000000000E+00 0.  1.
     999901    1    3    3    0    0  0.21845650182E-01  0.66101740513E-01  0.10901080072E+00  0.88945490454E+00  0.88000000000E+00 0.  1.
        -11    1    4    4    0    0  0.41962699922E-03 -0.81581230849E-02 -0.13887259880E-01  0.16119806669E-01  0.51100000000E-03 0.  1.
         11    1    4    4    0    0 -0.28129310041E-01 -0.76079395499E-01 -0.81001207641E-01  0.11463328166E+00  0.51100000000E-03 0. -1.
</event>
<event>
 8    1  0.1076043E+005  0.1043930E+01  0.7957747E-01            NaN
         13   -1    0    0    0    0  0.00000000000E+00  0.00000000000E+00  0.74505805969E-08  0.10566000000E+00  0.10566000000E+00 0.  1.
     999900   -1    0    0    0    0 -0.00000000000E+00 -0.00000000000E+00 -0.74505805969E-08  0.93827000000E+00  0.93827000000E+00 0. -1.
     999902    2    1    2    0    0 -0.41694511828E-03  0.10749726157E-01  0.20715478157E-01  0.10205877317E+01  0.10203207616E+01 0.  0.
     999903    2    3    3    0    0  0.87495466718E-01  0.57963727463E-01  0.79251885863E-01  0.13301561341E+00  0.19925902773E-01 0.  0.
         14    1    1    2    0    0  0.41694511828E-03 -0.10749726157E-01 -0.20715478157E-01  0.23342268333E-01  0.00000000000E+00 0. -1.
     999901    1    3    3    0    0 -0.87912411836E-01 -0.47214001306E-01 -0.58536407706E-01  0.88757211825E+00  0.88000000000E+00 0. -1.
        -11    1    4    4    0    0  0.41933715346E-01  0.38152065128E-01  0.48288809388E-01  0.74472053748E-01  0.51100000000E-03 0.  1.
         11    1    4    4    0    0  0.45561751372E-01  0.19811662334E-01  0.30963076474E-01  0.58543559665E-01  0.51100000000E-03 0. -1.
</event>
<event>
 8    1  0.1076043E+005  0.1043930E+01  0.7957747E-01            NaN
         13   -1    0    0    0    0  0.00000000000E+00  0.00000000000E+00  0.74505805969E-08  0.10566000000E+00  0.10566000000E+00 0.  1.
     999900   -1    0    0    0    0 -0.00000000000E+00 -0.00000000000E+00 -0.74505805969E-08  0.93827000000E+00  0.93827000000E+00 0. -1.
     999902    2    1    2    0    0 -0.13272697295E-01  0.98057019646E-02 -0.16648805944E-01  0.10204886045E+01  0.10202193357E+01 0.  0.
     999903    2    3    3    0    0  0.11964385609E+00 -0.41832470732E-01  0.87063618816E-02  0.12864994442E+00  0.20258320590E-01 0.  0.
         14    1    1    2    0    0  0.13272697295E-01 -0.98057019646E-02  0.16648805944E-01  0.23441395519E-01  0.00000000000E+00 0.  1.
     999901    1    3    3    0    0 -0.13291655339E+00  0.51638172697E-01 -0.25355167826E-01  0.89183866006E+00  0.88000000000E+00 0.  1.
        -11    1    4    4    0    0  0.41910005487E-01 -0.77521619342E-02 -0.40611161045E-02  0.42817033522E-01  0.51100000000E-03 0. -1.
         11    1    4    4    0    0  0.77733850608E-01 -0.34080308798E-01  0.12767477986E-01  0.85832910898E-01  0.51100000000E-03 0.  1.
</event>
<event>
 8    1  0.1076043E+005  0.1043930E+01  0.7957747E-01            NaN
         13   -1    0    0    0    0  0.00000000000E+00  0.00000000000E+00  0.74505805969E-08  0.10566000000E+00  0.10566000000E+00 0.  1.
     999900   -1    0    0    0    0 -0.00000000000E+00 -0.00000000000E+00 -0.74505805969E-08  0.93827000000E+00  0.93827000000E+00 0. -1.
     999902    2    1    2    0    0 -0.50523057493E-02 -0.24104326661E-02  0.20888081712E-01  0.10223048309E+01  0.10220760830E+01 0.  0.
     999903    2    3    3    0    0 -0.94099532750E-01 -0.76950145416E-01  0.53432607976E-01  0.13407922694E+00  0.18605068119E-01 0.  0.
         14    1    1    2    0    0  0.50523057493E-02  0.24104326661E-02 -0.20888081712E-01  0.21625169054E-01  0.00000000000E+00 0. -1.
     999901    1    3    3    0    0  0.89047227000E-01  0.74539712750E-01 -0.32544526265E-01  0.88822560400E+00  0.88000000000E+00 0. -1.
        -11    1    4    4    0    0 -0.41753353704E-01 -0.42943390476E-01  0.33051999599E-01  0.68411790867E-01  0.51100000000E-03 0.  1.
         11    1    4    4    0    0 -0.52346179046E-01 -0.34006754940E-01  0.20380608377E-01  0.65667436078E-01  0.51100000000E-03 0. -1.
</event>
<event>
 8    1  0.1076043E+005  0.1043930E+01  0.7957747E-01            NaN
         13   -1    0    0    0    0  0.00000000000E+00  0.00000000000E+00  0.74505805969E-08  0.10566000000E+00  0.10566000000E+00 0. -1.
     999900   -1    0    0    0    0 -0.00000000000E+00 -0.00000000000E+00 -0.74505805969E-08  0.93827000000E+00  0.93827000000E+00 0. -1.
     999902    2    1    2    0    0  0.84749872062E-02  0.19634428551E-01 -0.10145686943E-01  0.10202599523E+01  0.10199853426E+01 0.  0.
     999903    2    3    3    0    0 -0.77916986397E-01  0.86292931744E-01  0.57162810911E-01  0.13096958186E+00  0.19181177818E-01 0.  0.
         14    1    1    2    0    0 -0.84749872062E-02 -0.19634428551E-01  0.10145686943E-01  0.23670047660E-01  0.00000000000E+00 0.  1.
     999901    1    3    3    0    0  0.86391973603E-01 -0.66658503192E-01 -0.67308497854E-01  0.88929037048E+00  0.88000000000E+00 0. -1.
        -11    1    4    4    0    0 -0.51280035840E-01  0.48408581661E-01  0.42737384715E-01  0.82460766596E-01  0.51100000000E-03 0. -1.
         11    1    4    4    0    0 -0.26636950556E-01  0.37884350083E-01  0.14425426195E-01  0.48508815261E-01  0.51100000000E-03 0.  1.
</event>
<event>
 8    1  0.1076043E+005  0.1043930E+01  0.7957747E-01            NaN
         13   -1    0    0    0    0  0.00000000000E+00  0.00000000000E+00  0.74505805969E-08  0.10566000000E+00  0.10566000000E+00 0. -1.
     999900   -1    0    0    0    0 -0.00000000000E+00 -0.00000000000E+00 -0.74505805969E-08  0.93827000000E+00  0.93827000000E+00 0.  1.
     999902    2    1    2    0    0 -0.19569900171E-01 -0.13639797304E-01 -0.39590044544E-02  0.10197494545E+01  0.10194627267E+01 0.  0.
     999903    2    3    3    0    0  0.22184205433E-01 -0.97098125758E-01  0.82319174224E-01  0.13061919296E+00  0.19098223137E-01 0.  0.
         14    1    1    2    0    0  0.19569900171E-01  0.13639797304E-01  0.39590044544E-02  0.24180545475E-01  0.00000000000E+00 0. -1.
     999901    1    3    3    0    0 -0.41754105604E-01  0.83458328454E-01 -0.86278178678E-01  0.88913026157E+00  0.88000000000E+00 0.  1.
        -11    1    4    4    0    0  0.17915831672E-01 -0.84529721855E-01  0.62029489532E-01  0.10636808541E+00  0.51100000000E-03 0. -1.
         11    1    4    4    0    0  0.42683737613E-02 -0.12568403903E-01  0.20289684692E-01  0.24251107545E-01  0.51100000000E-03 0.  1.
</event>
<event>
 8    1  0.1076043E+005  0.1043930E+01  0.7957747E-01            NaN
         13   -1    0    0    0    0  0.00000000000E+00  0.00000000000E+00  0.74505805969E-08  0.10566000000E+00  0.10566000000E+00 0.  1.
     999900   -1    0    0    0    0 -0.00000000000E+00 -0.00000000000E+00 -0.74505805969E-08  0.93827000000E+00  0.93827000000E+00 0. -1.
     999902    2    1    2    0    0 -0.12077818994E-01  0.17392851125E-01 -0.91206978118E-02  0.10208741524E+01  0.10206137677E+01 0.  0.
     999903    2    3    3    0    0  0.58148972805E-01  0.10137567449E+00 -0.59141406704E-01  0.13268104935E+00  0.21171312051E-01 0.  0.
         14    1    1    2    0    0  0.12077818994E-01 -0.17392851125E-01  0.91206978118E-02  0.23055847642E-01  0.00000000000E+00 0. -1.
     999901    1    3    3    0    0 -0.70226791800E-01 -0.83982823364E-01  0.50020708893E-01  0.88819310300E+00  0.88000000000E+00 0.  1.
        -11    1    4    4    0    0  0.17678262273E-01  0.47645343358E-01 -0.18476851701E-01  0.54076379968E-01  0.51100000000E-03 0. -1.
         11    1    4    4    0    0  0.40470710532E-01  0.53730331132E-01 -0.40664555004E-01  0.78604669385E-01  0.51100000000E-03 0.  1.
</event>
<event>
 8    1  0.1076043E+005  0.1043930E+01  0.7957747E-01            NaN
         13   -1    0    0    0    0  0.00000000000E+00  0.00000000000E+00  0.74505805969E-08  0.10566000000E+00  0.10566000000E+00 0. -1.
     999900   -1    0    0    0    0 -0.00000000000E+00 -0.00000000000E+00 -0.74505805969E-08  0.93827000000E+00  0.93827000000E+00 0. -1.
     999902    2    1    2    0    0  0.22555070684E-01 -0.89007989011E-02  0.76152947932E-03  0.10196702522E+01  0.10193816204E+01 0.  0.
     999903    2    3    3    0    0  0.18087584058E-01 -0.39143316569E-01 -0.12169413614E+00  0.13066521380E+00  0.20114059679E-01 0.  0.
         14    1    1    2    0    0 -0.22555070684E-01  0.89007989011E-02 -0.76152947932E-03  0.24259747768E-01  0.00000000000E+00 0. -1.
     999901    1    3    3    0    0  0.44674866256E-02  0.30242517668E-01  0.12245566562E+00  0.88900503843E+00  0.88000000000E+00 0.  1.
        -11    1    4    4    0    0  0.15621289891E-02 -0.23378944858E-01 -0.76748726876E-01  0.80247389414E-01  0.51100000000E-03 0. -1.
         11    1    4    4    0    0  0.16525455069E-01 -0.15764371711E-01 -0.44945409268E-01  0.50417824387E-01  0.51100000000E-03 0.  1.
</event>
<event>
 8    1  0.1076043E+005  0.1043930E+01  0.7957747E-01            NaN
         13   -1    0    0    0    0  0.00000000000E+00  0.00000000000E+00  0.74505805969E-08  0.10566000000E+00  0.10566000000E+00 0. -1.
     999900   -1    0    0    0    0 -0.00000000000E+00 -0.00000000000E+00 -0.74505805969E-08  0.93827000000E+00  0.93827000000E+00 0. -1.
     999902    2    1    2    0    0  0.14303599389E-01  0.19903716796E-01 -0.46699454949E-02  0.10189788620E+01  0.10186733342E+01 0.  0.
     999903    2    3    3    0    0 -0.88054468309E-01  0.53757680535E-02  0.90425413287E-01  0.12783837778E+00  0.19580786330E-01 0.  0.
         14    1    1    2    0    0 -0.14303599389E-01 -0.19903716796E-01  0.46699454949E-02  0.24951138024E-01  0.00000000000E+00 0.  1.
     999901    1    3    3    0    0  0.10235806770E+00  0.14527948742E-01 -0.95095358782E-01  0.89114048420E+00  0.88000000000E+00 0. -1.
        -11    1    4    4    0    0 -0.26043345754E-01 -0.73173948671E-02  0.26220646685E-01  0.37677361363E-01  0.51100000000E-03 0. -1.
         11    1    4    4    0    0 -0.62011122554E-01  0.12693162921E-01  0.64204766601E-01  0.90161016413E-01  0.51100000000E-03 0.  1.
</event>
<event>
 8    1  0.1076043E+005  0.1043930E+01  0.7957747E-01            NaN
         13   -1    0    0    0    0  0.00000000000E+00  0.00000000000E+00  0.74505805969E-08  0.10566000000E+00  0.10566000000E+00 0. -1.
     999900   -1    0    0    0    0 -0.00000000000E+00 -0.00000000000E+00 -0.74505805969E-08  0.93827000000E+00  0.93827000000E+00 0. -1.
     999902    2    1    2    0    0 -0.17858044256E-01  0.74603447029E-03  0.15719719875E-01  0.10201271450E+01  0.10198494085E+01 0.  0.
     999903    2    3    3    0    0  0.35732591556E-01 -0.83446573457E-01 -0.88556854425E-01  0.12836823398E+00  0.19898198628E-01 0.  0.
         14    1    1    2    0    0  0.17858044256E-01 -0.74603447029E-03 -0.15719719875E-01  0.23802854976E-01  0.00000000000E+00 0.  1.
     999901    1    3    3    0    0 -0.53590635811E-01  0.84192607928E-01  0.10427657430E+00  0.89175891104E+00  0.88000000000E+00 0.  1.
        -11    1    4    4    0    0  0.14278321322E-01 -0.57322871248E-01 -0.58250131714E-01  0.82964576740E-01  0.51100000000E-03 0. -1.
         11    1    4    4    0    0  0.21454270234E-01 -0.26123702210E-01 -0.30306722711E-01  0.45403657241E-01  0.51100000000E-03 0.  1.
</event>
<event>
 8    1  0.1076043E+005  0.1043930E+01  0.7957747E-01            NaN
         13   -1    0    0    0    0  0.00000000000E+00  0.00000000000E+00  0.74505805969E-08  0.10566000000E+00  0.10566000000E+00 0.  1.
     999900   -1    0    0    0    0 -0.00000000000E+00 -0.00000000000E+00 -0.74505805969E-08  0.93827000000E+00  0.93827000000E+00 0. -1.
     999902    2    1    2    0    0  0.12488202452E-01  0.14288005756E-01  0.14587924728E-01  0.10199944646E+01  0.10197135862E+01 0.  0.
     999903    2    3    3    0    0  0.10584463956E+00  0.74571470924E-01  0.23468714841E-01  0.13296098776E+00  0.19074896911E-01 0.  0.
         14    1    1    2    0    0 -0.12488202452E-01 -0.14288005756E-01 -0.14587924728E-01  0.23935535440E-01  0.00000000000E+00 0. -1.
     999901    1    3    3    0    0 -0.93356437106E-01 -0.60283465169E-01 -0.88807901136E-02  0.88703347679E+00  0.88000000000E+00 0.  1.
        -11    1    4    4    0    0  0.63512798741E-02  0.58612242973E-02  0.65768832088E-02  0.10872406359E-01  0.51100000000E-03 0.  1.
         11    1    4    4    0    0  0.99493359683E-01  0.68710246627E-01  0.16891831633E-01  0.12208858141E+00  0.51100000000E-03 0. -1.
</event>
<event>
 8    1  0.1076043E+005  0.1043930E+01  0.7957747E-01            NaN
         13   -1    0    0    0    0  0.00000000000E+00  0.00000000000E+00  0.74505805969E-08  0.10566000000E+00  0.10566000000E+00 0. -1.
     999900   -1    0    0    0    0 -0.00000000000E+00 -0.00000000000E+00 -0.74505805969E-08  0.93827000000E+00  0.93827000000E+00 0.  1.
     999902    2    1    2    0    0  0.41651937937E-02 -0.82018882031E-02  0.16966013885E-01  0.10246306364E+01  0.10244488643E+01 0.  0.
     999903    2    3    3    0    0 -0.47845078025E-01  0.11071995023E+00  0.55550203784E-01  0.13427328578E+00  0.19885453595E-01 0.  0.
         14    1    1    2    0    0 -0.41651937937E-02  0.82018882031E-02 -0.16966013885E-01  0.19299363631E-01  0.00000000000E+00 0.  1.
     999901    1    3    3    0    0  0.52010271819E-01 -0.11892183843E+00 -0.38584189899E-01  0.89035735059E+00  0.88000000000E+00 0.  1.
        -11    1    4    4    0    0 -0.14657728182E-01  0.58788386712E-01  0.26296953015E-01  0.66050846069E-01  0.51100000000E-03 0.  1.
         11    1    4    4    0    0 -0.33187349843E-01  0.51931563518E-01  0.29253250769E-01  0.68222439714E-01  0.51100000000E-03 0. -1.
</event>
<event>
 8    1  0.1076043E+005  0.1043930E+01  0.7957747E-01            NaN
         13   -1    0    0    0    0  0.00000000000E+00  0.00000000000E+00  0.74505805969E-08  0.10566000000E+00  0.10566000000E+00 0. -1.
     999900   -1    0    0    0    0 -0.00000000000E+00 -0.00000000000E+00 -0.74505805969E-08  0.93827000000E+00  0.93827000000E+00 0.  1.
     999902    2    1    2    0    0  0.78993443211E-02  0.15548706567E-01 -0.16604097472E-01  0.10198497598E+01  0.10195654342E+01 0.  0.
     999903    2    3    3    0    0 -0.89552406352E-01 -0.88830299502E-01  0.95452705018E-02  0.12795536576E+00  0.19261563947E-01 0.  0.
         14    1    1    2    0    0 -0.78993443211E-02 -0.15548706567E-01  0.16604097472E-01  0.24080240228E-01  0.00000000000E+00 0. -1.
     999901    1    3    3    0    0  0.97451750673E-01  0.10437900607E+00 -0.26149367974E-01  0.89189439401E+00  0.88000000000E+00 0.  1.
        -11    1    4    4    0    0 -0.56468763934E-01 -0.67789751148E-01  0.36603479048E-02  0.88305327861E-01  0.51100000000E-03 0.  1.
         11    1    4    4    0    0 -0.33083642418E-01 -0.21040548355E-01  0.58849225970E-02  0.39650037903E-01  0.51100000000E-03 0. -1.
</event>
<event>
 8    1  0.1076043E+005  0.1043930E+01  0.7957747E-01            NaN
         13   -1    0    0    0    0  0.00000000000E+00  0.00000000000E+00  0.74505805969E-08  0.10566000000E+00  0.10566000000E+00 0.  1.
     999900   -1    0    0    0    0 -0.00000000000E+00 -0.00000000000E+00 -0.74505805969E-08  0.93827000000E+00  0.93827000000E+00 0. -1.
     999902    2    1    2    0    0 -0.94638038487E-02 -0.13151144249E-01 -0.19151236191E-01  0.10188444259E+01  0.10185355557E+01 0.  0.
     999903    2    3    3    0    0  0.52754794170E-01  0.11234661037E+00 -0.19486352272E-01  0.12776589256E+00  0.23228779670E-01 0.  0.
         14    1    1    2    0    0  0.94638038487E-02  0.13151144249E-01  0.19151236191E-01  0.25085574061E-01  0.00000000000E+00 0. -1.
     999901    1    3    3    0    0 -0.62218598018E-01 -0.12549775462E+00  0.33511608086E-03  0.89107853338E+00  0.88000000000E+00 0.  1.
        -11    1    4    4    0    0  0.11773912464E-01  0.38427013749E-01  0.29984358738E-02  0.40305237117E-01  0.51100000000E-03 0. -1.
         11    1    4    4    0    0  0.40980881706E-01  0.73919596626E-01 -0.22484788145E-01  0.87460655438E-01  0.51100000000E-03 0.  1.
</event>
<event>
 8    1  0.1076043E+005  0.1043930E+01  0.7957747E-01            NaN
         13   -1    0    0    0    0  0.00000000000E+00  0.00000000000E+00  0.74505805969E-08  0.10566000000E+00  0.10566000000E+00 0.  1.
     999900   -1    0    0    0    0 -0.00000000000E+00 -0.00000000000E+00 -0.74505805969E-08  0.93827000000E+00  0.93827000000E+00 0. -1.
     999902    2    1    2    0    0  0.71271959729E-02  0.12476950979E-01  0.18798047768E-01  0.10202691076E+01  0.10199947128E+01 0.  0.
     999903    2    3    3    0    0 -0.88825437297E-01 -0.73462057109E-01  0.56945429757E-01  0.13007382360E+00  0.19742985347E-01 0.  0.
         14    1    1    2    0    0 -0.71271959729E-02 -0.12476950979E-01 -0.18798047768E-01  0.23660892376E-01  0.00000000000E+00 0. -1.
     999901    1    3    3    0    0  0.95952633270E-01  0.85939008088E-01 -0.38147381990E-01  0.89019528402E+00  0.88000000000E+00 0. -1.
        -11    1    4    4    0    0 -0.71639597964E-01 -0.49779402586E-01  0.47442272558E-01  0.99303833082E-01  0.51100000000E-03 0.  1.
         11    1    4    4    0    0 -0.17185839333E-01 -0.23682654523E-01  0.95031571994E-02  0.30769990520E-01  0.51100000000E-03 0. -1.
</event>
<event>
 8    1  0.1076043E+005  0.1043930E+01  0.7957747E-01            NaN
         13   -1    0    0    0    0  0.00000000000E+00  0.00000000000E+00  0.74505805969E-08  0.10566000000E+00  0.10566000000E+00 0.  1.
     999900   -1    0    0    0    0 -0.00000000000E+00 -0.00000000000E+00 -0.74505805969E-08  0.93827000000E+00  0.93827000000E+00 0.  1.
     999902    2    1    2    0    0  0.16297518186E-01 -0.13665989153E-01 -0.11569770986E-01  0.10197178551E+01  0.10194303684E+01 0.  0.
     999903    2    3    3    0    0 -0.54769777010E-01  0.10408091669E+00  0.44353920756E-01  0.12728166493E+00  0.20019646569E-01 0.  0.
         14    1    1    2    0    0 -0.16297518186E-01  0.13665989153E-01  0.11569770986E-01  0.24212144870E-01  0.00000000000E+00 0.  1.
     999901    1    3    3    0    0  0.71067295195E-01 -0.11774690584E+00 -0.55923691743E-01  0.89243619020E+00  0.88000000000E+00 0.  1.
        -11    1    4    4    0    0 -0.11819137028E-01  0.42654173936E-01  0.18786090511E-01  0.48085848978E-01  0.51100000000E-03 0. -1.
         11    1    4    4    0    0 -0.42950639981E-01  0.61426742750E-01  0.25567830245E-01  0.79195815951E-01  0.51100000000E-03 0.  1.
</event>
<event>
 8    1  0.1076043E+005  0.1043930E+01  0.7957747E-01            NaN
         13   -1    0    0    0    0  0.00000000000E+00  0.00000000000E+00  0.74505805969E-08  0.10566000000E+00  0.10566000000E+00 0.  1.
     999900   -1    0    0    0    0 -0.00000000000E+00 -0.00000000000E+00 -0.74505805969E-08  0.93827000000E+00  0.93827000000E+00 0. -1.
     999902    2    1    2    0    0 -0.59026343014E-02  0.21191046669E-02 -0.19130992298E-01  0.10237972763E+01  0.10235993046E+01 0.  0.
     999903    2    3    3    0    0 -0.46065369620E-01  0.75214300274E-01  0.96576506230E-01  0.13231302063E+00  0.20012611767E-01 0.  0.
         14    1    1    2    0    0  0.59026343014E-02 -0.21191046669E-02  0.19130992298E-01  0.20132723675E-01  0.00000000000E+00 0.  1.
     999901    1    3    3    0    0  0.40162735319E-01 -0.73095195608E-01 -0.11570749853E+00  0.89148425569E+00  0.88000000000E+00 0. -1.
        -11    1    4    4    0    0 -0.31604903143E-01  0.65393060357E-01  0.82047476698E-01  0.10957724125E+00  0.51100000000E-03 0. -1.
         11    1    4    4    0    0 -0.14460466477E-01  0.98212399171E-02  0.14529029532E-01  0.22735779388E-01  0.51100000000E-03 0.  1.
</event>
<event>
 8    1  0.1076043E+005  0.1043930E+01  0.7957747E-01            NaN
         13   -1    0    0    0    0  0.00000000000E+00  0.00000000000E+00  0.74505805969E-08  0.10566000000E+00  0.10566000000E+00 0.  1.
     999900   -1    0    0    0    0 -0.00000000000E+00 -0.00000000000E+00 -0.74505805969E-08  0.93827000000E+00  0.93827000000E+00 0. -1.
     999902    2    1    2    0    0 -0.15379519112E-01  0.44268382015E-02 -0.15106215127E-01  0.10219226321E+01  0.10216856375E+01 0.  0.
     999903    2    3    3    0    0 -0.10570402023E+00 -0.29249648559E-01  0.71440544051E-01  0.13243797079E+00  0.20178774466E-01 0.  0.
         14    1    1    2    0    0  0.15379519112E-01 -0.44268382015E-02  0.15106215127E-01  0.22007367858E-01  0.00000000000E+00 0.  1.
     999901    1    3    3    0    0  0.90324501115E-01  0.33676486760E-01 -0.86546759178E-01  0.88948466136E+00  0.88000000000E+00 0. -1.
        -11    1    4    4    0    0 -0.75894051709E-01 -0.30204791596E-01  0.51969849056E-01  0.96816129091E-01  0.51100000000E-03 0. -1.
         11    1    4    4    0    0 -0.29809968518E-01  0.95514303778E-03  0.19470694995E-01  0.35621841696E-01  0.51100000000E-03 0.  1.
</event>
<event>
 8    1  0.1076043E+005  0.1043930E+01  0.7957747E-01            NaN
         13   -1    0    0    0    0  0.00000000000E+00  0.00000000000E+00  0.74505805969E-08  0.10566000000E+00  0.10566000000E+00 0. -1.
     999900   -1    0    0    0    0 -0.00000000000E+00 -0.00000000000E+00 -0.74505805969E-08  0.93827000000E+00  0.93827000000E+00 0. -1.
     999902    2    1    2    0    0  0.10681208207E-01  0.14243509541E-01  0.16033124679E-01  0.10199711424E+01  0.10196897098E+01 0.  0.
     999903    2    3    3    0    0  0.53204895248E-02 -0.11600234617E+00  0.53827198056E-01  0.12956611529E+00  0.20128563157E-01 0.  0.
         14    1    1    2    0    0 -0.10681208207E-01 -0.14243509541E-01 -0.16033124679E-01  0.23958857648E-01  0.00000000000E+00 0.  1.
     999901    1    3    3    0    0  0.53607186820E-02  0.13024585571E+00 -0.37794073377E-01  0.89040502706E+00  0.88000000000E+00 0. -1.
        -11    1    4    4    0    0  0.12283448295E-01 -0.71062198990E-01  0.37163524050E-01  0.81130190855E-01  0.51100000000E-03 0.  1.
         11    1    4    4    0    0 -0.69629587703E-02 -0.44940147182E-01  0.16663674006E-01  0.48435924435E-01  0.51100000000E-03 0. -1.
</event>
<event>
 8    1  0.1076043E+005  0.1043930E+01  0.7957747E-01            NaN
         13   -1    0    0    0    0  0.00000000000E+00  0.00000000000E+00  0.74505805969E-08  0.10566000000E+00  0.10566000000E+00 0. -1.
     999900   -1    0    0    0    0 -0.00000000000E+00 -0.00000000000E+00 -0.74505805969E-08  0.93827000000E+00  0.93827000000E+00 0. -1.
     999902    2    1    2    0    0 -0.20534275534E-01  0.99510512463E-02  0.66054604575E-02  0.10201747479E+01  0.10198981343E+01 0.  0.
     999903    2    3    3    0    0 -0.43501163189E-01 -0.11892895956E+00 -0.21282482299E-01  0.13005381657E+00  0.20605885810E-01 0.  0.
         14    1    1    2    0    0  0.20534275534E-01 -0.99510512463E-02 -0.66054604575E-02  0.23755252061E-01  0.00000000000E+00 0. -1.
     999901    1    3    3    0    0  0.22966887655E-01  0.12888001081E+00  0.27887942756E-01  0.89012093137E+00  0.88000000000E+00 0.  1.
        -11    1    4    4    0    0 -0.29166885381E-01 -0.51717416075E-01 -0.13472204274E-01  0.60886449538E-01  0.51100000000E-03 0. -1.
         11    1    4    4    0    0 -0.14334277807E-01 -0.67211543486E-01 -0.78102780251E-02  0.69167367030E-01  0.51100000000E-03 0.  1.
</event>
<event>
 8    1  0.1076043E+005  0.1043930E+01  0.7957747E-01            NaN
         13   -1    0    0    0    0  0.00000000000E+00  0.00000000000E+00  0.74505805969E-08  0.10566000000E+00  0.10566000000E+00 0.  1.
     999900   -1    0    0    0    0 -0.00000000000E+00 -0.00000000000E+00 -0.74505805969E-08  0.93827000000E+00  0.93827000000E+00 0. -1.
     999902    2    1    2    0    0 -0.42503320014E-02 -0.23063681227E-01  0.39250479388E-02  0.10201517596E+01  0.10198746040E+01 0.  0.
     999903    2    3    3    0    0  0.73030589721E-03 -0.36769201434E-02  0.12788418674E+00  0.13123864725E+00  0.29243191109E-01 0.  0.
         14    1    1    2    0    0  0.42503320014E-02  0.23063681227E-01 -0.39250479388E-02  0.23778240372E-01  0.00000000000E+00 0.  1.
     999901    1    3    3    0    0 -0.49806378986E-02 -0.19386761084E-01 -0.12395913880E+00  0.88891311237E+00  0.88000000000E+00 0. -1.
        -11    1    4    4    0    0 -0.33185956864E-02  0.11832309879E-01  0.38181049732E-01  0.40113218695E-01  0.51100000000E-03 0. -1.
         11    1    4    4    0    0  0.40489015836E-02 -0.15509230022E-01  0.89703137008E-01  0.91125428559E-01  0.51100000000E-03 0.  1.
</event>
<event>
 8    1  0.1076043E+005  0.1043930E+01  0.7957747E-01            NaN
         13   -1    0    0    0    0  0.00000000000E+00  0.00000000000E+00  0.74505805969E-08  0.10566000000E+00  0.10566000000E+00 0. -1.
     999900   -1    0    0    0    0 -0.00000000000E+00 -0.00000000000E+00 -0.74505805969E-08  0.93827000000E+00  0.93827000000E+00 0.  1.
     999902    2    1    2    0    0 -0.18239437303E-01  0.12107346337E-01  0.65220149598E-02  0.10210870232E+01  0.10208314785E+01 0.  0.
     999903    2    3    3    0    0 -0.24740074158E-01 -0.15717756418E-01 -0.12577947505E+00  0.13073867630E+00  0.20322549092E-01 0.  0.
         14    1    1    2    0    0  0.18239437303E-01 -0.12107346337E-01 -0.65220149598E-02  0.22842976767E-01  0.00000000000E+00 0.  1.
     999901    1    3    3    0    0  0.65006368556E-02  0.27825102755E-01  0.13230149001E+00  0.89034834693E+00  0.88000000000E+00 0. -1.
        -11    1    4    4    0    0 -0.25823831104E-01 -0.18219575849E-01 -0.12213394079E+00  0.12615777349E+00  0.51100000000E-03 0. -1.
         11    1    4    4    0    0  0.10837569460E-02  0.25018194306E-02 -0.36455342577E-02  0.45809028156E-02  0.51100000000E-03 0.  1.
</event>
<event>
 8    1  0.1076043E+005  0.1043930E+01  0.7957747E-01            NaN
         13   -1    0    0    0    0  0.00000000000E+00  0.00000000000E+00  0.74505805969E-08  0.10566000000E+00  0.10566000000E+00 0.  1.
     999900   -1    0    0    0    0 -0.00000000000E+00 -0.00000000000E+00 -0.74505805969E-08  0.93827000000E+00  0.93827000000E+00 0. -1.
     999902    2    1    2    0    0 -0.81758957324E-02 -0.13543134809E-01  0.17624851700E-01  0.10202467323E+01  0.10199718122E+01 0.  0.
     999903    2    3    3    0    0  0.25194887130E-01  0.40162127111E-01 -0.11702695202E+00  0.12776201392E+00  0.19494766193E-01 0.  0.
         14    1    1    2    0    0  0.81758957324E-02  0.13543134809E-01 -0.17624851700E-01  0.23683267699E-01  0.00000000000E+00 0.  1.
     999901    1    3    3    0    0 -0.33370782862E-01 -0.53705261920E-01  0.13465180372E+00  0.89248471839E+00  0.88000000000E+00 0.  1.
        -11    1    4    4    0    0  0.16174629500E-01  0.33834918036E-01 -0.10472934387E+00  0.11124260383E+00  0.51100000000E-03 0. -1.
         11    1    4    4    0    0  0.90202576294E-02  0.63272090753E-02 -0.12297608146E-01  0.16519410083E-01  0.51100000000E-03 0.  1.
</event>
<event>
 8    1  0.1076043E+005  0.1043930E+01  0.7957747E-01            NaN
         13   -1    0    0    0    0  0.00000000000E+00  0.00000000000E+00  0.74505805969E-08  0.10566000000E+00  0.10566000000E+00 0.  1.
     999900   -1    0    0    0    0 -0.00000000000E+00 -0.00000000000E+00 -0.74505805969E-08  0.93827000000E+00  0.93827000000E+00 0.  1.
     999902    2    1    2    0    0 -0.79531682107E-03  0.23557313455E-01 -0.51491561298E-03  0.10203536414E+01  0.10200812266E+01 0.  0.
     999903    2    3    3    0    0 -0.65035143814E-01  0.22160660835E-01  0.10991259064E+00  0.13112760708E+00  0.19824402578E-01 0.  0.
         14    1    1    2    0    0  0.79531682107E-03 -0.23557313455E-01  0.51491561298E-03  0.23576358585E-01  0.00000000000E+00 0. -1.
     999901    1    3    3    0    0  0.64239826993E-01  0.13966526197E-02 -0.11042750625E+00  0.88922603434E+00  0.88000000000E+00 0.  1.
        -11    1    4    4    0    0 -0.52229792947E-01  0.18572774189E-01  0.71489028547E-01  0.90464587193E-01  0.51100000000E-03 0.  1.
         11    1    4    4    0    0 -0.12805350867E-01  0.35878866458E-02  0.38423562088E-01  0.40663019883E-01  0.51100000000E-03 0. -1.
</event>
<event>
 8    1  0.1076043E+005  0.1043930E+01  0.7957747E-01            NaN
         13   -1    0    0    0    0  0.00000000000E+00  0.00000000000E+00  0.74505805969E-08  0.10566000000E+00  0.10566000000E+00 0.  1.
     999900   -1    0    0    0    0 -0.00000000000E+00 -0.00000000000E+00 -0.74505805969E-08  0.93827000000E+00  0.93827000000E+00 0.  1.
     999902    2    1    2    0    0  0.13642787366E-01  0.17235006664E-01  0.78644651703E-02  0.10205843170E+01  0.10203172679E+01 0.  0.
     999903    2    3    3    0    0 -0.53957335988E-01 -0.60096173648E-01 -0.97549571206E-01  0.12836124670E+00  0.20922395136E-01 0.  0.
         14    1    1    2    0    0 -0.13642787366E-01 -0.17235006664E-01 -0.78644651703E-02  0.23345682990E-01  0.00000000000E+00 0. -1.
     999901    1    3    3    0    0  0.67600123354E-01  0.77331180312E-01  0.10541403638E+00  0.89222307031E+00  0.88000000000E+00 0.  1.
        -11    1    4    4    0    0 -0.20354934371E-01 -0.37908496420E-01 -0.53966371929E-01  0.69021792749E-01  0.51100000000E-03 0.  1.
         11    1    4    4    0    0 -0.33602401617E-01 -0.22187677229E-01 -0.43583199277E-01  0.59339453953E-01  0.51100000000E-03 0. -1.
</event>
<event>
 8    1  0.1076043E+005  0.1043930E+01  0.7957747E-01            NaN
         13   -1    0    0    0    0  0.00000000000E+00  0.00000000000E+00  0.74505805969E-08  0.10566000000E+00  0.10566000000E+00 0.  1.
     999900   -1    0    0    0    0 -0.00000000000E+00 -0.00000000000E+00 -0.74505805969E-08  0.93827000000E+00  0.93827000000E+00 0. -1.
     999902    2    1    2    0    0  0.14604912600E-01  0.20691071050E-01  0.15292873049E-01  0.10143446006E+01  0.10139130499E+01 0.  0.
     999903    2    3    3    0    0  0.80918062290E-01  0.92959564575E-01 -0.27452000337E-01  0.12786431699E+00  0.20160798252E-01 0.  0.
         14    1    1    2    0    0 -0.14604912600E-01 -0.20691071050E-01 -0.15292873049E-01  0.29585399429E-01  0.00000000000E+00 0.  1.
     999901    1    3    3    0    0 -0.66313149690E-01 -0.72268493525E-01  0.42744873386E-01  0.88648028358E+00  0.88000000000E+00 0.  1.
        -11    1    4    4    0    0  0.63062785654E-01  0.75898714551E-01 -0.13796838061E-01  0.99640070586E-01  0.51100000000E-03 0. -1.
         11    1    4    4    0    0  0.17855276636E-01  0.17060850023E-01 -0.13655162276E-01  0.28224246404E-01  0.51100000000E-03 0.  1.
</event>
<event>
 8    1  0.1076043E+005  0.1043930E+01  0.7957747E-01            NaN
         13   -1    0    0    0    0  0.00000000000E+00  0.00000000000E+00  0.74505805969E-08  0.10566000000E+00  0.10566000000E+00 0. -1.
     999900   -1    0    0    0    0 -0.00000000000E+00 -0.00000000000E+00 -0.74505805969E-08  0.93827000000E+00  0.93827000000E+00 0. -1.
     999902    2    1    2    0    0 -0.10296812483E-01 -0.21222668262E-01  0.30158361697E-02  0.10201493090E+01  0.10198720956E+01 0.  0.
     999903    2    3    3    0    0 -0.12686057675E+00 -0.16047807912E-01 -0.25544905607E-01  0.13198850923E+00  0.20427586630E-01 0.  0.
         14    1    1    2    0    0  0.10296812483E-01  0.21222668262E-01 -0.30158361697E-02  0.23780690975E-01  0.00000000000E+00 0.  1.
     999901    1    3    3    0    0  0.11656376426E+00 -0.51748603500E-02  0.28560741777E-01  0.88816079979E+00  0.88000000000E+00 0. -1.
        -11    1    4    4    0    0 -0.95302752009E-01 -0.31056814418E-02 -0.17650347774E-01  0.96974510544E-01  0.51100000000E-03 0. -1.
         11    1    4    4    0    0 -0.31557824737E-01 -0.12942126470E-01 -0.78945578330E-02  0.35013998688E-01  0.51100000000E-03 0.  1.
</event>
<event>
 8    1  0.1076043E+005  0.1043930E+01  0.7957747E-01            NaN
         13   -1    0    0    0    0  0.00000000000E+00  0.00000000000E+00  0.74505805969E-08  0.10566000000E+00  0.10566000000E+00 0.  1.
     999900   -1    0    0    0    0 -0.00000000000E+00 -0.00000000000E+00 -0.74505805969E-08  0.93827000000E+00  0.93827000000E+00 0.  1.
     999902    2    1    2    0    0  0.22406794101E-01  0.10769342546E-02  0.61787231022E-02  0.10206619784E+01  0.10203967235E+01 0.  0.
     999903    2    3    3    0    0 -0.26976666002E-01 -0.12136466459E+00  0.33586232604E-01  0.13039132135E+00  0.20414194607E-01 0.  0.
         14    1    1    2    0    0 -0.22406794101E-01 -0.10769342546E-02 -0.61787231022E-02  0.23268021584E-01  0.00000000000E+00 0. -1.
     999901    1    3    3    0    0  0.49383460103E-01  0.12244159885E+00 -0.27407509502E-01  0.89027065707E+00  0.88000000000E+00 0.  1.
        -11    1    4    4    0    0 -0.38238692487E-02 -0.48482874484E-01  0.55952555038E-02  0.48956910640E-01  0.51100000000E-03 0. -1.
         11    1    4    4    0    0 -0.23152796753E-01 -0.72881790110E-01  0.27990977101E-01  0.81434410707E-01  0.51100000000E-03 0.  1.
</event>
<event>
 8    1  0.1076043E+005  0.1043930E+01  0.7957747E-01            NaN
         13   -1    0    0    0    0  0.00000000000E+00  0.00000000000E+00  0.74505805969E-08  0.10566000000E+00  0.10566000000E+00 0. -1.
     999900   -1    0    0    0    0 -0.00000000000E+00 -0.00000000000E+00 -0.74505805969E-08  0.93827000000E+00  0.93827000000E+00 0. -1.
     999902    2    1    2    0    0 -0.48463803777E-02 -0.13303771235E-01  0.22954661241E-01  0.10169597533E+01  0.10166020587E+01 0.  0.
     999903    2    3    3    0    0  0.92358744724E-01 -0.17749243946E-01  0.86990556971E-01  0.12928346409E+00  0.17369044199E-01 0.  0.
         14    1    1    2    0    0  0.48463803777E-02  0.13303771235E-01 -0.22954661241E-01  0.26970246653E-01  0.00000000000E+00 0.  1.
     999901    1    3    3    0    0 -0.97205125102E-01  0.44454727102E-02 -0.64035895730E-01  0.88767628926E+00  0.88000000000E+00 0.  1.
        -11    1    4    4    0    0  0.69838776158E-01 -0.59707067677E-02  0.66701520156E-01  0.96759794888E-01  0.51100000000E-03 0. -1.
         11    1    4    4    0    0  0.22519968566E-01 -0.11778537178E-01  0.20289036815E-01  0.32523669199E-01  0.51100000000E-03 0.  1.
</event>
<event>
 8    1  0.1076043E+005  0.1043930E+01  0.7957747E-01            NaN
         13   -1    0    0    0    0  0.00000000000E+00  0.00000000000E+00  0.74505805969E-08  0.10566000000E+00  0.10566000000E+00 0. -1.
     999900   -1    0    0    0    0 -0.00000000000E+00 -0.00000000000E+00 -0.74505805969E-08  0.93827000000E+00  0.93827000000E+00 0.  1.
     999902    2    1    2    0    0  0.18970042536E-01 -0.63835515128E-02  0.29369464779E-02  0.10237003708E+01  0.10235004696E+01 0.  0.
     999903    2    3    3    0    0 -0.99885104510E-01  0.75436880059E-01  0.34550082523E-01  0.13138847499E+00  0.20036621009E-01 0.  0.
         14    1    1    2    0    0 -0.18970042536E-01  0.63835515128E-02 -0.29369464779E-02  0.20229629219E-01  0.00000000000E+00 0. -1.
     999901    1    3    3    0    0  0.11885514705E+00 -0.81820431571E-01 -0.31613136045E-01  0.89231189579E+00  0.88000000000E+00 0. -1.
        -11    1    4    4    0    0 -0.83983954132E-01  0.66785829063E-01  0.36100477103E-01  0.11321288391E+00  0.51100000000E-03 0.  1.
         11    1    4    4    0    0 -0.15901150378E-01  0.86510509951E-02 -0.15503945797E-02  0.18175591078E-01  0.51100000000E-03 0. -1.
</event>
<event>
 8    1  0.1076043E+005  0.1043930E+01  0.7957747E-01            NaN
         13   -1    0    0    0    0  0.00000000000E+00  0.00000000000E+00  0.74505805969E-08  0.10566000000E+00  0.10566000000E+00 0.  1.
     999900   -1    0    0    0    0 -0.00000000000E+00 -0.00000000000E+00 -0.74505805969E-08  0.93827000000E+00  0.93827000000E+00 0.  1.
     999902    2    1    2    0    0 -0.18178828396E-02 -0.21463080458E-01  0.11330093911E-01  0.10195919732E+01  0.10193014531E+01 0.  0.
     999903    2    3    3    0    0  0.21443708609E-01  0.67286918690E-01  0.10692114281E+00  0.12967326195E+00  0.19891254882E-01 0.  0.
         14    1    1    2    0    0  0.18178828396E-02  0.21463080458E-01 -0.11330093911E-01  0.24338026806E-01  0.00000000000E+00 0.  1.
     999901    1    3    3    0    0 -0.23261591448E-01 -0.88749999147E-01 -0.95591048897E-01  0.88991871124E+00  0.88000000000E+00 0.  1.
        -11    1    4    4    0    0 -0.18353779332E-02  0.24603692846E-01  0.33346163906E-01  0.41484190749E-01  0.51100000000E-03 0. -1.
         11    1    4    4    0    0  0.23279086542E-01  0.42683225844E-01  0.73574978903E-01  0.88189071206E-01  0.51100000000E-03 0.  1.
</event>
<event>
 8    1  0.1076043E+005  0.1043930E+01  0.7957747E-01            NaN
         13   -1    0    0    0    0  0.00000000000E+00  0.00000000000E+00  0.74505805969E-08  0.10566000000E+00  0.10566000000E+00 0. -1.
     999900   -1    0    0    0    0 -0.00000000000E+00 -0.00000000000E+00 -0.74505805969E-08  0.93827000000E+00  0.93827000000E+00 0. -1.
     999902    2    1    2    0    0 -0.16347041281E-01 -0.14153598438E-01 -0.87904212339E-02  0.10205885859E+01  0.10203216356E+01 0.  0.
     999903    2    3    3    0    0 -0.10901396773E+00  0.67287746795E-01 -0.22022012459E-01  0.13188451423E+00  0.22290581663E-01 0.  0.
         14    1    1    2    0    0  0.16347041281E-01  0.14153598438E-01  0.87904212339E-02  0.23341414115E-01  0.00000000000E+00 0. -1.
     999901    1    3    3    0    0  0.92666926453E-01 -0.81441345233E-01  0.13231591225E-01  0.88870407166E+00  0.88000000000E+00 0.  1.
        -11    1    4    4    0    0 -0.89404715366E-01  0.64356935403E-01 -0.19819331037E-01  0.11192892954E+00  0.51100000000E-03 0. -1.
         11    1    4    4    0    0 -0.19609252368E-01  0.29308113915E-02 -0.22026814219E-02  0.19955584689E-01  0.51100000000E-03 0.  1.
</event>
<event>
 8    1  0.1076043E+005  0.1043930E+01  0.7957747E-01            NaN
         13   -1    0    0    0    0  0.00000000000E+00  0.00000000000E+00  0.74505805969E-08  0.10566000000E+00  0.10566000000E+00 0. -1.
     999900   -1    0    0    0    0 -0.00000000000E+00 -0.00000000000E+00 -0.74505805969E-08  0.93827000000E+00  0.93827000000E+00 0.  1.
     999902    2    1    2    0    0  0.30211592464E-03  0.66998938667E-02  0.24651899424E-01  0.10183820843E+01  0.10180615765E+01 0.  0.
     999903    2    3    3    0    0  0.54996048586E-01  0.53005073165E-01  0.10608660184E+00  0.13172137880E+00  0.16188001778E-01 0.  0.
         14    1    1    2    0    0 -0.30211592464E-03 -0.66998938667E-02 -0.24651899424E-01  0.25547915709E-01  0.00000000000E+00 0.  1.
     999901    1    3    3    0    0 -0.54693932661E-01 -0.46305179298E-01 -0.81434702420E-01  0.88666070549E+00  0.88000000000E+00 0.  1.
        -11    1    4    4    0    0  0.16232268171E-01  0.17173044706E-01  0.46155410927E-01  0.51855405439E-01  0.51100000000E-03 0.  1.
         11    1    4    4    0    0  0.38763780414E-01  0.35832028459E-01  0.59931190917E-01  0.79865973363E-01  0.51100000000E-03 0. -1.
</event>
<event>
 8    1  0.1076043E+005  0.1043930E+01  0.7957747E-01            NaN
         13   -1    0    0    0    0  0.00000000000E+00  0.00000000000E+00  0.74505805969E-08  0.10566000000E+00  0.10566000000E+00 0.  1.
     999900   -1    0    0    0    0 -0.00000000000E+00 -0.00000000000E+00 -0.74505805969E-08  0.93827000000E+00  0.93827000000E+00 0.  1.
     999902    2    1    2    0    0  0.14138722052E-01  0.18554982045E-01  0.39292558998E-02  0.10202735025E+01  0.10199992108E+01 0.  0.
     999903    2    3    3    0    0  0.66196383553E-01  0.10889752728E+00 -0.33831378955E-01  0.13331372829E+00  0.19681344079E-01 0.  0.
         14    1    1    2    0    0 -0.14138722052E-01 -0.18554982045E-01 -0.39292558998E-02  0.23656497456E-01  0.00000000000E+00 0. -1.
     999901    1    3    3    0    0 -0.52057661501E-01 -0.90342545236E-01  0.37760634855E-01  0.88695977425E+00  0.88000000000E+00 0. -1.
        -11    1    4    4    0    0  0.52685302076E-01  0.76316534873E-01 -0.17217772275E-01  0.94322146673E-01  0.51100000000E-03 0. -1.
         11    1    4    4    0    0  0.13511081477E-01  0.32580992409E-01 -0.16613606680E-01  0.38991581616E-01  0.51100000000E-03 0.  1.
</event>
<event>
 8    1  0.1076043E+005  0.1043930E+01  0.7957747E-01            NaN
         13   -1    0    0    0    0  0.00000000000E+00  0.00000000000E+00  0.74505805969E-08  0.10566000000E+00  0.10566000000E+00 0.  1.
     999900   -1    0    0    0    0 -0.00000000000E+00 -0.00000000000E+00 -0.74505805969E-08  0.93827000000E+00  0.93827000000E+00 0. -1.
     999902    2    1    2    0    0 -0.12496364037E-01 -0.12203989263E-01 -0.12295720358E-01  0.10225692601E+01  0.10223461305E+01 0.  0.
     999903    2    3    3    0    0  0.69349370530E-01 -0.88565051810E-01  0.66386116437E-01  0.13199609213E+00  0.19045952002E-01 0.  0.
         14    1    1    2    0    0  0.12496364037E-01  0.12203989263E-01  0.12295720358E-01  0.21360739856E-01  0.00000000000E+00 0. -1.
     999901    1    3    3    0    0 -0.81845734567E-01  0.76361062546E-01 -0.78681836795E-01  0.89057316801E+00  0.88000000000E+00 0. -1.
        -11    1    4    4    0    0  0.48280669703E-01 -0.70922567775E-01  0.43315342491E-01  0.96111985219E-01  0.51100000000E-03 0. -1.
         11    1    4    4    0    0  0.21068700827E-01 -0.17642484035E-01  0.23070773946E-01  0.35884106913E-01  0.51100000000E-03 0.  1.
</event>
<event>
 8    1  0.1076043E+005  0.1043930E+01  0.7957747E-01            NaN
         13   -1    0    0    0    0  0.00000000000E+00  0.00000000000E+00  0.74505805969E-08  0.10566000000E+00  0.10566000000E+00 0. -1.
     999900   -1    0    0    0    0 -0.00000000000E+00 -0.00000000000E+00 -0.74505805969E-08  0.93827000000E+00  0.93827000000E+00 0.  1.
     999902    2    1    2    0    0 -0.13326943991E-01 -0.12070651745E-01  0.14675089165E-01  0.10207208141E+01  0.10204569143E+01 0.  0.
     999903    2    3    3    0    0 -0.62109553367E-01 -0.10267347637E+00 -0.52007753667E-01  0.13221914477E+00  0.19433384510E-01 0.  0.
         14    1    1    2    0    0  0.13326943991E-01  0.12070651745E-01 -0.14675089165E-01  0.23209185933E-01  0.00000000000E+00 0.  1.
     999901    1    3    3    0    0  0.48782609377E-01  0.90602824626E-01  0.66682842832E-01  0.88850166929E+00  0.88000000000E+00 0. -1.
        -11    1    4    4    0    0 -0.21077538334E-01 -0.35025639863E-01 -0.27944901271E-01  0.49520063591E-01  0.51100000000E-03 0. -1.
         11    1    4    4    0    0 -0.41032015034E-01 -0.67647836509E-01 -0.24062852395E-01  0.82699081183E-01  0.51100000000E-03 0.  1.
</event>
<event>
 7    1  0.1528494E+005  0.1043930E+01  0.7957747E-01            NaN
         13   -1    0    0    0    0  0.00000000000E+00  0.00000000000E+00  0.74505805969E-08  0.10566000000E+00  0.10566000000E+00 0. -1.
     999900   -1    0    0    0    0 -0.00000000000E+00 -0.00000000000E+00 -0.74505805969E-08  0.93827000000E+00  0.93827000000E+00 0.  1.
     999903    2    1    2    0    0 -0.76333892830E-01 -0.29841548496E-02 -0.78450643694E-01  0.11129598778E+00  0.19912936142E-01 0.  0.
         14    1    1    2    0    0  0.46083777033E-01 -0.14477507503E-01  0.96411345890E-02  0.49257123397E-01  0.00000000000E+00 0. -1.
     999901    1    1    2    0    0  0.30250115797E-01  0.17461662353E-01  0.68809509105E-01  0.88337688882E+00  0.88000000000E+00 0. -1.
        -11    1    3    3    0    0 -0.59129709289E-01  0.17978389407E-02 -0.48842937155E-01  0.76716676000E-01  0.51100000000E-03 0. -1.
         11    1    3    3    0    0 -0.17204183541E-01 -0.47819937903E-02 -0.29607706539E-01  0.34579311783E-01  0.51100000000E-03 0.  1.
</event>
<event>
 8    1  0.1076043E+005  0.1043930E+01  0.7957747E-01            NaN
         13   -1    0    0    0    0  0.00000000000E+00  0.00000000000E+00  0.74505805969E-08  0.10566000000E+00  0.10566000000E+00 0. -1.
     999900   -1    0    0    0    0 -0.00000000000E+00 -0.00000000000E+00 -0.74505805969E-08  0.93827000000E+00  0.93827000000E+00 0. -1.
     999902    2    1    2    0    0  0.10554662079E-01  0.95374756800E-02  0.20167165793E-01  0.10192504759E+01  0.10189516444E+01 0.  0.
     999903    2    3    3    0    0 -0.15074031455E-01  0.57746573079E-01  0.11640882686E+00  0.13232127673E+00  0.19900054695E-01 0.  0.
         14    1    1    2    0    0 -0.10554662079E-01 -0.95374756800E-02 -0.20167165793E-01  0.24679524105E-01  0.00000000000E+00 0.  1.
     999901    1    3    3    0    0  0.25628693534E-01 -0.48209097399E-01 -0.96241661072E-01  0.88692919916E+00  0.88000000000E+00 0. -1.
        -11    1    4    4    0    0 -0.18404271444E-01  0.31808626278E-01  0.67345183052E-01  0.76721188171E-01  0.51100000000E-03 0.  1.
         11    1    4    4    0    0  0.33302399885E-02  0.25937946801E-01  0.49063643813E-01  0.55600088560E-01  0.51100000000E-03 0. -1.
</event>
<event>
 8    1  0.1076043E+005  0.1043930E+01  0.7957747E-01            NaN
         13   -1    0    0    0    0  0.00000000000E+00  0.00000000000E+00  0.74505805969E-08  0.10566000000E+00  0.10566000000E+00 0.  1.
     999900   -1    0    0    0    0 -0.00000000000E+00 -0.00000000000E+00 -0.74505805969E-08  0.93827000000E+00  0.93827000000E+00 0. -1.
     999902    2    1    2    0    0  0.43662732596E-02  0.16862315524E-01 -0.54418758491E-02  0.10256812729E+01  0.10255189211E+01 0.  0.
     999903    2    3    3    0    0 -0.72977105571E-01 -0.52382389015E-01  0.96849335855E-01  0.13369454693E+00  0.20612263533E-01 0.  0.
         14    1    1    2    0    0 -0.43662732596E-02 -0.16862315524E-01  0.54418758491E-02  0.18248727073E-01  0.00000000000E+00 0. -1.
     999901    1    3    3    0    0  0.77343378831E-01  0.69244704540E-01 -0.10229121170E+00  0.89198672599E+00  0.88000000000E+00 0. -1.
        -11    1    4    4    0    0 -0.86685643449E-02  0.70266140448E-03  0.10667954144E-01  0.13773311420E-01  0.51100000000E-03 0. -1.
         11    1    4    4    0    0 -0.64308541226E-01 -0.53085050420E-01  0.86181381711E-01  0.11992123551E+00  0.51100000000E-03 0.  1.
</event>
<event>
 8    1  0.1076043E+005  0.1043930E+01  0.7957747E-01            NaN
         13   -1    0    0    0    0  0.00000000000E+00  0.00000000000E+00  0.74505805969E-08  0.10566000000E+00  0.10566000000E+00 0.  1.
     999900   -1    0    0    0    0 -0.00000000000E+00 -0.00000000000E+00 -0.74505805969E-08  0.93827000000E+00  0.93827000000E+00 0. -1.
     999902    2    1    2    0    0  0.10687599855E-01  0.18210869102E-01  0.97266984467E-02  0.10206820064E+01  0.10204172132E+01 0.  0.
     999903    2    3    3    0    0  0.79421029478E-02 -0.12523015653E+00  0.79605657579E-02  0.12906214075E+00  0.29120378817E-01 0.  0.
         14    1    1    2    0    0 -0.10687599855E-01 -0.18210869102E-01 -0.97266984467E-02  0.23247993608E-01  0.00000000000E+00 0. -1.
     999901    1    3    3    0    0  0.27454969072E-02  0.14344102564E+00  0.17661326888E-02  0.89161986565E+00  0.88000000000E+00 0.  1.
        -11    1    4    4    0    0  0.10938381827E-01 -0.85613482658E-01  0.17803550107E-01  0.88127998544E-01  0.51100000000E-03 0.  1.
         11    1    4    4    0    0 -0.29962788794E-02 -0.39616673875E-01 -0.98429843493E-02  0.40934142203E-01  0.51100000000E-03 0. -1.
</event>
<event>
 8    1  0.1076043E+005  0.1043930E+01  0.7957747E-01            NaN
         13   -1    0    0    0    0  0.00000000000E+00  0.00000000000E+00  0.74505805969E-08  0.10566000000E+00  0.10566000000E+00 0.  1.
     999900   -1    0    0    0    0 -0.00000000000E+00 -0.00000000000E+00 -0.74505805969E-08  0.93827000000E+00  0.93827000000E+00 0. -1.
     999902    2    1    2    0    0  0.75124571554E-02  0.50568963733E-03  0.21845444679E-01  0.10208233735E+01  0.10205618275E+01 0.  0.
     999903    2    3    3    0    0 -0.57320292880E-01 -0.44588567180E-01 -0.10385279520E+00  0.12839028079E+00  0.20613219832E-01 0.  0.
         14    1    1    2    0    0 -0.75124571554E-02 -0.50568963733E-03 -0.21845444679E-01  0.23106626490E-01  0.00000000000E+00 0. -1.
     999901    1    3    3    0    0  0.64832750035E-01  0.45094256817E-01  0.12569823988E+00  0.89243309272E+00  0.88000000000E+00 0.  1.
        -11    1    4    4    0    0 -0.15236992351E-01 -0.20629376153E-01 -0.24779276254E-01  0.35665259694E-01  0.51100000000E-03 0. -1.
         11    1    4    4    0    0 -0.42083300529E-01 -0.23959191027E-01 -0.79073518943E-01  0.92725021095E-01  0.51100000000E-03 0.  1.
</event>
<event>
 8    1  0.1076043E+005  0.1043930E+01  0.7957747E-01            NaN
         13   -1    0    0    0    0  0.00000000000E+00  0.00000000000E+00  0.74505805969E-08  0.10566000000E+00  0.10566000000E+00 0. -1.
     999900   -1    0    0    0    0 -0.00000000000E+00 -0.00000000000E+00 -0.74505805969E-08  0.93827000000E+00  0.93827000000E+00 0. -1.
     999902    2    1    2    0    0  0.32131115177E-03  0.21978250425E-01  0.66116796956E-02  0.10209765462E+01  0.10207184954E+01 0.  0.
     999903    2    3    3    0    0  0.25627945964E-01  0.12929964303E+00  0.14294805097E-01  0.13406204216E+00  0.19826759535E-01 0.  0.
         14    1    1    2    0    0 -0.32131115177E-03 -0.21978250425E-01 -0.66116796956E-02  0.22953453792E-01  0.00000000000E+00 0. -1.
     999901    1    3    3    0    0 -0.25306634812E-01 -0.10732139260E+00 -0.76831254012E-02  0.88691450405E+00  0.88000000000E+00 0. -1.
        -11    1    4    4    0    0  0.22725474125E-01  0.64289455865E-01  0.58681427494E-02  0.68441782048E-01  0.51100000000E-03 0.  1.
         11    1    4    4    0    0  0.29024718397E-02  0.65010187163E-01  0.84266623474E-02  0.65620260111E-01  0.51100000000E-03 0. -1.
</event>
<event>
 8    1  0.1076043E+005  0.1043930E+01  0.7957747E-01            NaN
         13   -1    0    0    0    0  0.00000000000E+00  0.00000000000E+00  0.74505805969E-08  0.10566000000E+00  0.10566000000E+00 0.  1.
     999900   -1    0    0    0    0 -0.00000000000E+00 -0.00000000000E+00 -0.74505805969E-08  0.93827000000E+00  0.93827000000E+00 0.  1.
     999902    2    1    2    0    0 -0.16955631696E-01  0.41626991995E-02  0.16528599286E-01  0.10198880345E+01  0.10196046228E+01 0.  0.
     999903    2    3    3    0    0  0.55743754817E-01  0.10763415931E+00  0.43796611367E-01  0.13043028489E+00  0.20035907686E-01 0.  0.
         14    1    1    2    0    0  0.16955631696E-01 -0.41626991995E-02 -0.16528599286E-01  0.24041965502E-01  0.00000000000E+00 0. -1.
     999901    1    3    3    0    0 -0.72699386513E-01 -0.10347146011E+00 -0.27268012081E-01  0.88945774961E+00  0.88000000000E+00 0.  1.
        -11    1    4    4    0    0  0.17738660662E-01  0.55897060553E-01  0.21854353600E-01  0.62586063567E-01  0.51100000000E-03 0.  1.
         11    1    4    4    0    0  0.38005094155E-01  0.51737098760E-01  0.21942257767E-01  0.67844221322E-01  0.51100000000E-03 0. -1.
</event>
<event>
 8    1  0.1076043E+005  0.1043930E+01  0.7957747E-01            NaN
         13   -1    0    0    0    0  0.00000000000E+00  0.00000000000E+00  0.74505805969E-08  0.10566000000E+00  0.10566000000E+00 0. -1.
     999900   -1    0    0    0    0 -0.00000000000E+00 -0.00000000000E+00 -0.74505805969E-08  0.93827000000E+00  0.93827000000E+00 0.  1.
     999902    2    1    2    0    0 -0.36256750668E-02 -0.16584076673E-01  0.18028653843E-01  0.10191669332E+01  0.10188660502E+01 0.  0.
     999903    2    3    3    0    0  0.36181743317E-01 -0.78935727862E-01  0.98114866564E-01  0.13243915058E+00  0.19329611587E-01 0.  0.
         14    1    1    2    0    0  0.36256750668E-02  0.16584076673E-01 -0.18028653843E-01  0.24763066817E-01  0.00000000000E+00 0.  1.
     999901    1    3    3    0    0 -0.39807418384E-01  0.62351651189E-01 -0.80086212721E-01  0.88672778260E+00  0.88000000000E+00 0.  1.
        -11    1    4    4    0    0  0.72315474049E-02 -0.35019852981E-01  0.32331492269E-01  0.48210703106E-01  0.51100000000E-03 0. -1.
         11    1    4    4    0    0  0.28950195912E-01 -0.43915874881E-01  0.65783374295E-01  0.84228447478E-01  0.51100000000E-03 0.  1.
</event>
<event>
 8    1  0.1076043E+005  0.1043930E+01  0.7957747E-01            NaN
         13   -1    0    0    0    0  0.00000000000E+00  0.00000000000E+00  0.74505805969E-08  0.10566000000E+00  0.10566000000E+00 0. -1.
     999900   -1    0    0    0    0 -0.00000000000E+00 -0.00000000000E+00 -0.74505805969E-08  0.93827000000E+00  0.93827000000E+00 0.  1.
     999902    2    1    2    0    0 -0.11274488725E-01 -0.47344503241E-02  0.20333597580E-01  0.10202027097E+01  0.10199267545E+01 0.  0.
     999903    2    3    3    0    0  0.22635337738E-01  0.99723643060E-01 -0.74778314201E-01  0.12829035671E+00  0.20235015436E-01 0.  0.
         14    1    1    2    0    0  0.11274488725E-01  0.47344503241E-02 -0.20333597580E-01  0.23727290330E-01  0.00000000000E+00 0.  1.
     999901    1    3    3    0    0 -0.33909826463E-01 -0.10445809338E+00  0.95111911781E-01  0.89191235296E+00  0.88000000000E+00 0. -1.
        -11    1    4    4    0    0  0.12301251771E-01  0.86874493684E-01 -0.62565125105E-01  0.10776434683E+00  0.51100000000E-03 0.  1.
         11    1    4    4    0    0  0.10334085967E-01  0.12849149376E-01 -0.12213189096E-01  0.20526009874E-01  0.51100000000E-03 0. -1.
</event>
<event>
 8    1  0.1076043E+005  0.1043930E+01  0.7957747E-01            NaN
         13   -1    0    0    0    0  0.00000000000E+00  0.00000000000E+00  0.74505805969E-08  0.10566000000E+00  0.10566000000E+00 0.  1.
     999900   -1    0    0    0    0 -0.00000000000E+00 -0.00000000000E+00 -0.74505805969E-08  0.93827000000E+00  0.93827000000E+00 0. -1.
     999902    2    1    2    0    0 -0.14031291500E-01  0.13237116575E-01  0.13275818592E-01  0.10205132164E+01  0.10202445192E+01 0.  0.
     999903    2    3    3    0    0  0.55191486242E-01  0.39712979512E-01 -0.10786132670E+00  0.12912835434E+00  0.20416787273E-01 0.  0.
         14    1    1    2    0    0  0.14031291500E-01 -0.13237116575E-01 -0.13275818592E-01  0.23416783632E-01  0.00000000000E+00 0. -1.
     999901    1    3    3    0    0 -0.69222777742E-01 -0.26475862937E-01  0.12113714529E+00  0.89138486202E+00  0.88000000000E+00 0.  1.
        -11    1    4    4    0    0  0.53918556706E-01  0.31149814184E-01 -0.96196373140E-01  0.11459286630E+00  0.51100000000E-03 0. -1.
         11    1    4    4    0    0  0.12729295352E-02  0.85631653277E-02 -0.11664953560E-01  0.14535488041E-01  0.51100000000E-03 0.  1.
</event>
<event>
 8    1  0.1076043E+005  0.1043930E+01  0.7957747E-01            NaN
         13   -1    0    0    0    0  0.00000000000E+00  0.00000000000E+00  0.74505805969E-08  0.10566000000E+00  0.10566000000E+00 0. -1.
     999900   -1    0    0    0    0 -0.00000000000E+00 -0.00000000000E+00 -0.74505805969E-08  0.93827000000E+00  0.93827000000E+00 0.  1.
     999902    2    1    2    0    0  0.36332142788E-02  0.54810781196E-02 -0.23650438227E-01  0.10193823791E+01  0.10190867721E+01 0.  0.
     999903    2    3    3    0    0  0.11178584494E+00  0.42036125880E-01  0.44070985825E-01  0.12942763064E+00  0.23369826154E-01 0.  0.
         14    1    1    2    0    0 -0.36332142788E-02 -0.54810781196E-02  0.23650438227E-01  0.24547620896E-01  0.00000000000E+00 0. -1.
     999901    1    3    3    0    0 -0.10815263066E+00 -0.36555047761E-01 -0.67721424052E-01  0.88995474846E+00  0.88000000000E+00 0. -1.
        -11    1    4    4    0    0  0.70777488400E-01  0.24132083165E-01  0.15603046712E-01  0.76390617813E-01  0.51100000000E-03 0.  1.
         11    1    4    4    0    0  0.41008356537E-01  0.17904042715E-01  0.28467939113E-01  0.53037012829E-01  0.51100000000E-03 0. -1.
</event>
<event>
 8    1  0.1076043E+005  0.1043930E+01  0.7957747E-01            NaN
         13   -1    0    0    0    0  0.00000000000E+00  0.00000000000E+00  0.74505805969E-08  0.10566000000E+00  0.10566000000E+00 0.  1.
     999900   -1    0    0    0    0 -0.00000000000E+00 -0.00000000000E+00 -0.74505805969E-08  0.93827000000E+00  0.93827000000E+00 0. -1.
     999902    2    1    2    0    0  0.81333605306E-02 -0.21690208379E-01  0.38904188594E-02  0.10204405970E+01  0.10201702113E+01 0.  0.
     999903    2    3    3    0    0 -0.88397258474E-01 -0.54656857346E-01  0.77914546801E-01  0.13146110803E+00  0.20245961565E-01 0.  0.
         14    1    1    2    0    0 -0.81333605306E-02  0.21690208379E-01 -0.38904188594E-02  0.23489402971E-01  0.00000000000E+00 0.  1.
     999901    1    3    3    0    0  0.96530619005E-01  0.32966648967E-01 -0.74024127942E-01  0.88897948900E+00  0.88000000000E+00 0. -1.
        -11    1    4    4    0    0 -0.43873854707E-01 -0.36826760437E-01  0.35196322578E-01  0.67232192105E-01  0.51100000000E-03 0. -1.
         11    1    4    4    0    0 -0.44523403767E-01 -0.17830096909E-01  0.42718224223E-01  0.64228915922E-01  0.51100000000E-03 0.  1.
</event>
<event>
 8    1  0.1076043E+005  0.1043930E+01  0.7957747E-01            NaN
         13   -1    0    0    0    0  0.00000000000E+00  0.00000000000E+00  0.74505805969E-08  0.10566000000E+00  0.10566000000E+00 0.  1.
     999900   -1    0    0    0    0 -0.00000000000E+00 -0.00000000000E+00 -0.74505805969E-08  0.93827000000E+00  0.93827000000E+00 0. -1.
     999902    2    1    2    0    0  0.21128212990E-01  0.28541280498E-02 -0.77605035049E-02  0.10212413939E+01  0.10209893299E+01 0.  0.
     999903    2    3    3    0    0 -0.11670860929E+00  0.29714053520E-01 -0.42925019540E-01  0.12941350225E+00  0.20036786297E-01 0.  0.
         14    1    1    2    0    0 -0.21128212990E-01 -0.28541280498E-02  0.77605035049E-02  0.22688606077E-01  0.00000000000E+00 0.  1.
     999901    1    3    3    0    0  0.13783682228E+00 -0.26859925470E-01  0.35164516035E-01  0.89182789167E+00  0.88000000000E+00 0.  1.
        -11    1    4    4    0    0 -0.41680662338E-01  0.14222944692E-01 -0.25326111628E-01  0.50805932919E-01  0.51100000000E-03 0. -1.
         11    1    4    4    0    0 -0.75027946948E-01  0.15491108828E-01 -0.17598907912E-01  0.78607569334E-01  0.51100000000E-03 0.  1.
</event>
<event>
 8    1  0.1076043E+005  0.1043930E+01  0.7957747E-01            NaN
         13   -1    0    0    0    0  0.00000000000E+00  0.00000000000E+00  0.74505805969E-08  0.10566000000E+00  0.10566000000E+00 0. -1.
     999900   -1    0    0    0    0 -0.00000000000E+00 -0.00000000000E+00 -0.74505805969E-08  0.93827000000E+00  0.93827000000E+00 0.  1.
     999902    2    1    2    0    0 -0.18738643995E-01 -0.95690261512E-02 -0.10610782371E-01  0.10203653709E+01  0.10200932303E+01 0.  0.
     999903    2    3    3    0    0  0.11306462346E+00 -0.49100455989E-01 -0.34620872937E-01  0.12934835668E+00  0.18382836453E-01 0.  0.
         14    1    1    2    0    0  0.18738643995E-01  0.95690261512E-02  0.10610782371E-01  0.23564629061E-01  0.00000000000E+00 0.  1.
     999901    1    3    3    0    0 -0.13180326745E+00  0.39531429837E-01  0.24010090567E-01  0.89101701426E+00  0.88000000000E+00 0. -1.
        -11    1    4    4    0    0  0.35723416567E-01 -0.21905875204E-01 -0.51298333066E-02  0.42220921004E-01  0.51100000000E-03 0. -1.
         11    1    4    4    0    0  0.77341206891E-01 -0.27194580784E-01 -0.29491039631E-01  0.87127435672E-01  0.51100000000E-03 0.  1.
</event>
<event>
 8    1  0.1076043E+005  0.1043930E+01  0.7957747E-01            NaN
         13   -1    0    0    0    0  0.00000000000E+00  0.00000000000E+00  0.74505805969E-08  0.10566000000E+00  0.10566000000E+00 0. -1.
     999900   -1    0    0    0    0 -0.00000000000E+00 -0.00000000000E+00 -0.74505805969E-08  0.93827000000E+00  0.93827000000E+00 0. -1.
     999902    2    1    2    0    0 -0.12434500227E-01  0.19936535942E-01  0.10051248459E-02  0.10204120805E+01  0.10201410302E+01 0.  0.
     999903    2    3    3    0    0  0.22412546414E-01  0.12890327530E+00  0.14565202423E-01  0.13290323962E+00  0.18241418798E-01 0.  0.
         14    1    1    2    0    0  0.12434500227E-01 -0.19936535942E-01 -0.10051248459E-02  0.23517919492E-01  0.00000000000E+00 0.  1.
     999901    1    3    3    0    0 -0.34847046642E-01 -0.10896673936E+00 -0.13560077577E-01  0.88750884089E+00  0.88000000000E+00 0.  1.
        -11    1    4    4    0    0  0.19370240548E-02  0.27228614421E-01 -0.38233364323E-02  0.27568614908E-01  0.51100000000E-03 0.  1.
         11    1    4    4    0    0  0.20475522360E-01  0.10167466088E+00  0.18388538855E-01  0.10533462471E+00  0.51100000000E-03 0. -1.
</event>
<event>
 8    1  0.1076043E+005  0.1043930E+01  0.7957747E-01            NaN
         13   -1    0    0    0    0  0.00000000000E+00  0.00000000000E+00  0.74505805969E-08  0.10566000000E+00  0.10566000000E+00 0.  1.
     999900   -1    0    0    0    0 -0.00000000000E+00 -0.00000000000E+00 -0.74505805969E-08  0.93827000000E+00  0.93827000000E+00 0.  1.
     999902    2    1    2    0    0  0.19984443841E-01  0.99028817694E-02 -0.40955341604E-02  0.10212536144E+01  0.10210018249E+01 0.  0.
     999903    2    3    3    0    0  0.64170049719E-01  0.10162121682E+00  0.54516081308E-01  0.13344736178E+00  0.19787072967E-01 0.  0.
         14    1    1    2    0    0 -0.19984443841E-01 -0.99028817694E-02  0.40955341604E-02  0.22676385581E-01  0.00000000000E+00 0.  1.
     999901    1    3    3    0    0 -0.44185605877E-01 -0.91718335051E-01 -0.58611615469E-01  0.88780625264E+00  0.88000000000E+00 0.  1.
        -11    1    4    4    0    0  0.17581425576E-01  0.38534471198E-01  0.27479291455E-01  0.50491430715E-01  0.51100000000E-03 0. -1.
         11    1    4    4    0    0  0.46588624142E-01  0.63086745623E-01  0.27036789854E-01  0.82955931068E-01  0.51100000000E-03 0.  1.
</event>
<event>
 8    1  0.1076043E+005  0.1043930E+01  0.7957747E-01            NaN
         13   -1    0    0    0    0  0.00000000000E+00  0.00000000000E+00  0.74505805969E-08  0.10566000000E+00  0.10566000000E+00 0.  1.
     999900   -1    0    0    0    0 -0.00000000000E+00 -0.00000000000E+00 -0.74505805969E-08  0.93827000000E+00  0.93827000000E+00 0.  1.
     999902    2    1    2    0    0  0.10960140586E-01 -0.27098465473E-02 -0.20283657843E-01  0.10207158938E+01  0.10204518809E+01 0.  0.
     999903    2    3    3    0    0 -0.51746614260E-01 -0.43339428977E-02 -0.12057190057E+00  0.13280119836E+00  0.20051930872E-01 0.  0.
         14    1    1    2    0    0 -0.10960140586E-01  0.27098465473E-02  0.20283657843E-01  0.23214106174E-01  0.00000000000E+00 0.  1.
     999901    1    3    3    0    0  0.62706754846E-01  0.16240963504E-02  0.10028824272E+00  0.88791469546E+00  0.88000000000E+00 0. -1.
        -11    1    4    4    0    0 -0.11073720348E-01 -0.16776839302E-02 -0.10255762719E-01  0.15194857541E-01  0.51100000000E-03 0.  1.
         11    1    4    4    0    0 -0.40672893912E-01 -0.26562589675E-02 -0.11031613785E+00  0.11760634082E+00  0.51100000000E-03 0. -1.
</event>
<event>
 8    1  0.1076043E+005  0.1043930E+01  0.7957747E-01            NaN
         13   -1    0    0    0    0  0.00000000000E+00  0.00000000000E+00  0.74505805969E-08  0.10566000000E+00  0.10566000000E+00 0. -1.
     999900   -1    0    0    0    0 -0.00000000000E+00 -0.00000000000E+00 -0.74505805969E-08  0.93827000000E+00  0.93827000000E+00 0. -1.
     999902    2    1    2    0    0  0.19240438278E-01  0.11497312945E-01  0.62512329932E-02  0.10206606944E+01  0.10203954099E+01 0.  0.
     999903    2    3    3    0    0  0.10471890811E+00  0.54708170064E-01 -0.57392840150E-01  0.13317868610E+00  0.21990696744E-01 0.  0.
         14    1    1    2    0    0 -0.19240438278E-01 -0.11497312945E-01 -0.62512329932E-02  0.23269305620E-01  0.00000000000E+00 0.  1.
     999901    1    3    3    0    0 -0.85478469831E-01 -0.43210857119E-01  0.63644073143E-01  0.88748200828E+00  0.88000000000E+00 0.  1.
        -11    1    4    4    0    0  0.44083874274E-01  0.21317013826E-01 -0.12061739514E-01  0.50433617068E-01  0.51100000000E-03 0.  1.
         11    1    4    4    0    0  0.60635033835E-01  0.33391156238E-01 -0.45331100635E-01  0.82745069030E-01  0.51100000000E-03 0. -1.
</event>
<event>
 8    1  0.1076043E+005  0.1043930E+01  0.7957747E-01            NaN
         13   -1    0    0    0    0  0.00000000000E+00  0.00000000000E+00  0.74505805969E-08  0.10566000000E+00  0.10566000000E+00 0.  1.
     999900   -1    0    0    0    0 -0.00000000000E+00 -0.00000000000E+00 -0.74505805969E-08  0.93827000000E+00  0.93827000000E+00 0. -1.
     999902    2    1    2    0    0 -0.11064377086E-01  0.69106194629E-02 -0.20564563166E-01  0.10195767998E+01  0.10192859129E+01 0.  0.
     999903    2    3    3    0    0 -0.10260749167E+00  0.50007783503E-01  0.59110569053E-01  0.13020306842E+00  0.20729300390E-01 0.  0.
         14    1    1    2    0    0  0.11064377086E-01 -0.69106194629E-02  0.20564563166E-01  0.24353200198E-01  0.00000000000E+00 0.  1.
     999901    1    3    3    0    0  0.91543114586E-01 -0.43097164040E-01 -0.79675132219E-01  0.88937373138E+00  0.88000000000E+00 0. -1.
        -11    1    4    4    0    0 -0.69939415734E-01  0.26022880059E-01  0.45721168187E-01  0.87517989586E-01  0.51100000000E-03 0. -1.
         11    1    4    4    0    0 -0.32668075937E-01  0.23984903444E-01  0.13389400867E-01  0.42685078835E-01  0.51100000000E-03 0.  1.
</event>
<event>
 8    1  0.1076043E+005  0.1043930E+01  0.7957747E-01            NaN
         13   -1    0    0    0    0  0.00000000000E+00  0.00000000000E+00  0.74505805969E-08  0.10566000000E+00  0.10566000000E+00 0.  1.
     999900   -1    0    0    0    0 -0.00000000000E+00 -0.00000000000E+00 -0.74505805969E-08  0.93827000000E+00  0.93827000000E+00 0. -1.
     999902    2    1    2    0    0  0.15208184477E-01 -0.45032596552E-02 -0.20443848231E-01  0.10180549318E+01  0.10177260560E+01 0.  0.
     999903    2    3    3    0    0  0.11122522160E+00  0.58698637713E-01 -0.29196206403E-01  0.13053571794E+00  0.19250329878E-01 0.  0.
         14    1    1    2    0    0 -0.15208184477E-01  0.45032596552E-02  0.20443848231E-01  0.25875068176E-01  0.00000000000E+00 0.  1.
     999901    1    3    3    0    0 -0.96017037119E-01 -0.63201897368E-01  0.87523581716E-02  0.88751921389E+00  0.88000000000E+00 0. -1.
        -11    1    4    4    0    0  0.95732613143E-01  0.48552228897E-01 -0.17864448993E-01  0.10881843506E+00  0.51100000000E-03 0.  1.
         11    1    4    4    0    0  0.15492608452E-01  0.10146408816E-01 -0.11331757410E-01  0.21717282876E-01  0.51100000000E-03 0. -1.
</event>
<event>
 8    1  0.1076043E+005  0.1043930E+01  0.7957747E-01            NaN
         13   -1    0    0    0    0  0.00000000000E+00  0.00000000000E+00  0.74505805969E-08  0.10566000000E+00  0.10566000000E+00 0.  1.
     999900   -1    0    0    0    0 -0.00000000000E+00 -0.00000000000E+00 -0.74505805969E-08  0.93827000000E+00  0.93827000000E+00 0. -1.
     999902    2    1    2    0    0  0.58801764191E-02  0.14447880370E-01 -0.17114288658E-01  0.10207736489E+01  0.10205109630E+01 0.  0.
     999903    2    3    3    0    0 -0.94926518778E-01  0.63105391001E-01 -0.64263775550E-01  0.13243102506E+00  0.20366865508E-01 0.  0.
         14    1    1    2    0    0 -0.58801764191E-02 -0.14447880370E-01  0.17114288658E-01  0.23156351141E-01  0.00000000000E+00 0.  1.
     999901    1    3    3    0    0  0.10080669520E+00 -0.48657510631E-01  0.47149486892E-01  0.88834262380E+00  0.88000000000E+00 0.  1.
        -11    1    4    4    0    0 -0.50995860445E-01  0.28227210704E-01 -0.22435249645E-01  0.62457623669E-01  0.51100000000E-03 0.  1.
         11    1    4    4    0    0 -0.43930658333E-01  0.34878180297E-01 -0.41828525904E-01  0.69973401395E-01  0.51100000000E-03 0. -1.
</event>
<event>
 8    1  0.1076043E+005  0.1043930E+01  0.7957747E-01            NaN
         13   -1    0    0    0    0  0.00000000000E+00  0.00000000000E+00  0.74505805969E-08  0.10566000000E+00  0.10566000000E+00 0. -1.
     999900   -1    0    0    0    0 -0.00000000000E+00 -0.00000000000E+00 -0.74505805969E-08  0.93827000000E+00  0.93827000000E+00 0. -1.
     999902    2    1    2    0    0  0.61594438975E-02  0.12411688364E-01 -0.18501362516E-01  0.10208153040E+01  0.10205535731E+01 0.  0.
     999903    2    3    3    0    0  0.89843720704E-02 -0.81704206190E-01  0.97223223911E-01  0.12825832444E+00  0.15541758873E-01 0.  0.
         14    1    1    2    0    0 -0.61594438975E-02 -0.12411688364E-01  0.18501362516E-01  0.23114696021E-01  0.00000000000E+00 0. -1.
     999901    1    3    3    0    0 -0.28249281729E-02  0.94115894554E-01 -0.11572458643E+00  0.89255697954E+00  0.88000000000E+00 0. -1.
        -11    1    4    4    0    0  0.31929866149E-03 -0.56369067011E-01  0.59156477481E-01  0.81714892255E-01  0.51100000000E-03 0. -1.
         11    1    4    4    0    0  0.86650734089E-02 -0.25335139179E-01  0.38066746430E-01  0.46543432181E-01  0.51100000000E-03 0.  1.
</event>
<event>
 8    1  0.1076043E+005  0.1043930E+01  0.7957747E-01            NaN
         13   -1    0    0    0    0  0.00000000000E+00  0.00000000000E+00  0.74505805969E-08  0.10566000000E+00  0.10566000000E+00 0. -1.
     999900   -1    0    0    0    0 -0.00000000000E+00 -0.00000000000E+00 -0.74505805969E-08  0.93827000000E+00  0.93827000000E+00 0. -1.
     999902    2    1    2    0    0 -0.20510367626E-01 -0.54232700198E-02  0.45888470270E-02  0.10222241355E+01  0.10219936588E+01 0.  0.
     999903    2    3    3    0    0  0.11148517629E+00 -0.75706614789E-03  0.64591564548E-01  0.13034694483E+00  0.19716443257E-01 0.  0.
         14    1    1    2    0    0  0.20510367626E-01  0.54232700198E-02 -0.45888470270E-02  0.21705864528E-01  0.00000000000E+00 0. -1.
     999901    1    3    3    0    0 -0.13199554392E+00 -0.46662038720E-02 -0.60002717521E-01  0.89187719064E+00  0.88000000000E+00 0.  1.
        -11    1    4    4    0    0  0.11213132667E-01  0.20293803810E-02  0.13815608611E-01  0.17916051218E-01  0.51100000000E-03 0. -1.
         11    1    4    4    0    0  0.10027204362E+00 -0.27864465289E-02  0.50775955936E-01  0.11243089362E+00  0.51100000000E-03 0.  1.
</event>
<event>
 7    1  0.1076043E+005  0.1043930E+01  0.7957747E-01            NaN
         13   -1    0    0    0    0  0.00000000000E+00  0.00000000000E+00  0.74505805969E-08  0.10566000000E+00  0.10566000000E+00 0.  1.
     999900   -1    0    0    0    0 -0.00000000000E+00 -0.00000000000E+00 -0.74505805969E-08  0.93827000000E+00  0.93827000000E+00 0. -1.
     999903    2    1    2    0    0  0.34566098658E-01  0.95051197683E-01 -0.41979763265E-01  0.11141821315E+00  0.20546832841E-01 0.  0.
         14    1    1    2    0    0 -0.36012302756E-01 -0.27052109510E-01  0.20853843563E-01  0.49634517929E-01  0.00000000000E+00 0.  1.
     999901    1    1    2    0    0  0.14462040971E-02 -0.67999088172E-01  0.21125919702E-01  0.88287726892E+00  0.88000000000E+00 0.  1.
        -11    1    3    3    0    0  0.21387450609E-01  0.62329322973E-01 -0.16597852118E-01  0.67956731541E-01  0.51100000000E-03 0.  1.
         11    1    3    3    0    0  0.13178648049E-01  0.32721874710E-01 -0.25381911147E-01  0.43461481606E-01  0.51100000000E-03 0. -1.
</event>
<event>
 8    1  0.1076043E+005  0.1043930E+01  0.7957747E-01            NaN
         13   -1    0    0    0    0  0.00000000000E+00  0.00000000000E+00  0.74505805969E-08  0.10566000000E+00  0.10566000000E+00 0. -1.
     999900   -1    0    0    0    0 -0.00000000000E+00 -0.00000000000E+00 -0.74505805969E-08  0.93827000000E+00  0.93827000000E+00 0. -1.
     999902    2    1    2    0    0 -0.78292625395E-02  0.31042947005E-02  0.22201202366E-01  0.10201849503E+01  0.10199085770E+01 0.  0.
     999903    2    3    3    0    0 -0.10206071058E+00 -0.15661619051E-03  0.83043598021E-01  0.13305925661E+00  0.19801854079E-01 0.  0.
         14    1    1    2    0    0  0.78292625395E-02 -0.31042947005E-02 -0.22201202366E-01  0.23745049674E-01  0.00000000000E+00 0.  1.
     999901    1    3    3    0    0  0.94231448041E-01  0.32609108910E-02 -0.60842395654E-01  0.88712569371E+00  0.88000000000E+00 0. -1.
        -11    1    4    4    0    0 -0.42034804299E-01 -0.58938950020E-02  0.44459133476E-01  0.61469817318E-01  0.51100000000E-03 0. -1.
         11    1    4    4    0    0 -0.60025906281E-01  0.57372788114E-02  0.38584464545E-01  0.71589439293E-01  0.51100000000E-03 0.  1.
</event>
<event>
 8    1  0.1076043E+005  0.1043930E+01  0.7957747E-01            NaN
         13   -1    0    0    0    0  0.00000000000E+00  0.00000000000E+00  0.74505805969E-08  0.10566000000E+00  0.10566000000E+00 0. -1.
     999900   -1    0    0    0    0 -0.00000000000E+00 -0.00000000000E+00 -0.74505805969E-08  0.93827000000E+00  0.93827000000E+00 0.  1.
     999902    2    1    2    0    0 -0.38174923526E-02  0.22468085083E-01  0.47653640360E-02  0.10206470279E+01  0.10203814281E+01 0.  0.
     999903    2    3    3    0    0 -0.18623078013E-01  0.76846362276E-01  0.10550577310E+00  0.13310839077E+00  0.18280949252E-01 0.  0.
         14    1    1    2    0    0  0.38174923526E-02 -0.22468085083E-01 -0.47653640360E-02  0.23282972094E-01  0.00000000000E+00 0. -1.
     999901    1    3    3    0    0  0.14805585660E-01 -0.54378277193E-01 -0.10074040906E+00  0.88753863714E+00  0.88000000000E+00 0.  1.
        -11    1    4    4    0    0 -0.21407524532E-01  0.63635526155E-01  0.81839594127E-01  0.10585718012E+00  0.51100000000E-03 0. -1.
         11    1    4    4    0    0  0.27844465196E-02  0.13210836120E-01  0.23666178971E-01  0.27251210643E-01  0.51100000000E-03 0.  1.
</event>
<event>
 8    1  0.1076043E+005  0.1043930E+01  0.7957747E-01            NaN
         13   -1    0    0    0    0  0.00000000000E+00  0.00000000000E+00  0.74505805969E-08  0.10566000000E+00  0.10566000000E+00 0.  1.
     999900   -1    0    0    0    0 -0.00000000000E+00 -0.00000000000E+00 -0.74505805969E-08  0.93827000000E+00  0.93827000000E+00 0.  1.
     999902    2    1    2    0    0 -0.19235078483E-01 -0.15416631165E-01  0.17320354703E-01  0.10138026794E+01  0.10133549315E+01 0.  0.
     999903    2    3    3    0    0 -0.37867987702E-01 -0.84424965606E-01 -0.82097451057E-01  0.12532463484E+00  0.20117487846E-01 0.  0.
         14    1    1    2    0    0  0.19235078483E-01  0.15416631165E-01 -0.17320354703E-01  0.30127320621E-01  0.00000000000E+00 0. -1.
     999901    1    3    3    0    0  0.18632909219E-01  0.69008334441E-01  0.99417805760E-01  0.88847804454E+00  0.88000000000E+00 0. -1.
        -11    1    4    4    0    0 -0.18944898145E-01 -0.37598641332E-01 -0.24483345110E-01  0.48705875462E-01  0.51100000000E-03 0.  1.
         11    1    4    4    0    0 -0.18923089558E-01 -0.46826324274E-01 -0.57614105947E-01  0.76618759377E-01  0.51100000000E-03 0. -1.
</event>
<event>
 8    1  0.1076043E+005  0.1043930E+01  0.7957747E-01            NaN
         13   -1    0    0    0    0  0.00000000000E+00  0.00000000000E+00  0.74505805969E-08  0.10566000000E+00  0.10566000000E+00 0.  1.
     999900   -1    0    0    0    0 -0.00000000000E+00 -0.00000000000E+00 -0.74505805969E-08  0.93827000000E+00  0.93827000000E+00 0. -1.
     999902    2    1    2    0    0  0.22545585691E-01  0.43170454947E-02 -0.45525190814E-02  0.10205277406E+01  0.10202593805E+01 0.  0.
     999903    2    3    3    0    0 -0.30657827387E-01 -0.88880824533E-01 -0.87787943469E-01  0.13010953433E+00  0.19546471718E-01 0.  0.
         14    1    1    2    0    0 -0.22545585691E-01 -0.43170454947E-02  0.45525190814E-02  0.23402259419E-01  0.00000000000E+00 0. -1.
     999901    1    3    3    0    0  0.53203413078E-01  0.93197870028E-01  0.83235424387E-01  0.89041820625E+00  0.88000000000E+00 0.  1.
        -11    1    4    4    0    0 -0.13335526150E-02 -0.19944005455E-01 -0.10961056843E-01  0.22802359620E-01  0.51100000000E-03 0.  1.
         11    1    4    4    0    0 -0.29324274772E-01 -0.68936819078E-01 -0.76826886626E-01  0.10730717471E+00  0.51100000000E-03 0. -1.
</event>
<event>
 8    1  0.1076043E+005  0.1043930E+01  0.7957747E-01            NaN
         13   -1    0    0    0    0  0.00000000000E+00  0.00000000000E+00  0.74505805969E-08  0.10566000000E+00  0.10566000000E+00 0.  1.
     999900   -1    0    0    0    0 -0.00000000000E+00 -0.00000000000E+00 -0.74505805969E-08  0.93827000000E+00  0.93827000000E+00 0. -1.
     999902    2    1    2    0    0  0.81564977476E-02  0.22851997779E-01  0.11707116234E-01  0.10169893462E+01  0.10166324466E+01 0.  0.
     999903    2    3    3    0    0  0.91956184995E-01  0.32997178845E-01 -0.80610118082E-01  0.12814302423E+00  0.19439386600E-01 0.  0.
         14    1    1    2    0    0 -0.81564977476E-02 -0.22851997779E-01 -0.11707116234E-01  0.26940653825E-01  0.00000000000E+00 0. -1.
     999901    1    3    3    0    0 -0.83799687247E-01 -0.10145181066E-01  0.92317234316E-01  0.88884632194E+00  0.88000000000E+00 0.  1.
        -11    1    4    4    0    0  0.73809291786E-01  0.19767340260E-01 -0.68512077272E-01  0.10262906581E+00  0.51100000000E-03 0. -1.
         11    1    4    4    0    0  0.18146893209E-01  0.13229838585E-01 -0.12098040809E-01  0.25513958425E-01  0.51100000000E-03 0.  1.
</event>
<event>
 8    1  0.1076043E+005  0.1043930E+01  0.7957747E-01            NaN
         13   -1    0    0    0    0  0.00000000000E+00  0.00000000000E+00  0.74505805969E-08  0.10566000000E+00  0.10566000000E+00 0.  1.
     999900   -1    0    0    0    0 -0.00000000000E+00 -0.00000000000E+00 -0.74505805969E-08  0.93827000000E+00  0.93827000000E+00 0. -1.
     999902    2    1    2    0    0  0.14508055817E-01 -0.44181125548E-02  0.17839589246E-01  0.10205151682E+01  0.10202465164E+01 0.  0.
     999903    2    3    3    0    0 -0.43168170160E-01 -0.11019917868E+00 -0.49406642753E-01  0.12976366713E+00  0.19754570690E-01 0.  0.
         14    1    1    2    0    0 -0.14508055817E-01  0.44181125548E-02 -0.17839589246E-01  0.23414831766E-01  0.00000000000E+00 0. -1.
     999901    1    3    3    0    0  0.57676225977E-01  0.10578106613E+00  0.67246231999E-01  0.89075150110E+00  0.88000000000E+00 0. -1.
        -11    1    4    4    0    0 -0.31490726289E-01 -0.54973091106E-01 -0.29714677704E-01  0.69978066421E-01  0.51100000000E-03 0.  1.
         11    1    4    4    0    0 -0.11677443871E-01 -0.55226087574E-01 -0.19691965049E-01  0.59785600713E-01  0.51100000000E-03 0. -1.
</event>
<event>
 8    1  0.1076043E+005  0.1043930E+01  0.7957747E-01            NaN
         13   -1    0    0    0    0  0.00000000000E+00  0.00000000000E+00  0.74505805969E-08  0.10566000000E+00  0.10566000000E+00 0.  1.
     999900   -1    0    0    0    0 -0.00000000000E+00 -0.00000000000E+00 -0.74505805969E-08  0.93827000000E+00  0.93827000000E+00 0. -1.
     999902    2    1    2    0    0  0.19461769734E-01  0.10804628185E-01 -0.83860441969E-02  0.10201428983E+01  0.10198655336E+01 0.  0.
     999903    2    3    3    0    0  0.80806383350E-01  0.10229922231E+00 -0.17952580854E-01  0.13322354399E+00  0.20770532935E-01 0.  0.
         14    1    1    2    0    0 -0.19461769734E-01 -0.10804628185E-01  0.83860441969E-02  0.23787101729E-01  0.00000000000E+00 0. -1.
     999901    1    3    3    0    0 -0.61344613616E-01 -0.91494594126E-01  0.95665366569E-02  0.88691935428E+00  0.88000000000E+00 0. -1.
        -11    1    4    4    0    0  0.57241388336E-01  0.57995601254E-01 -0.64804339225E-02  0.81745479681E-01  0.51100000000E-03 0. -1.
         11    1    4    4    0    0  0.23564995014E-01  0.44303621058E-01 -0.11472146931E-01  0.51478064309E-01  0.51100000000E-03 0.  1.
</event>
<event>
 8    1  0.1076043E+005  0.1043930E+01  0.7957747E-01            NaN
         13   -1    0    0    0    0  0.00000000000E+00  0.00000000000E+00  0.74505805969E-08  0.10566000000E+00  0.10566000000E+00 0.  1.
     999900   -1    0    0    0    0 -0.00000000000E+00 -0.00000000000E+00 -0.74505805969E-08  0.93827000000E+00  0.93827000000E+00 0. -1.
     999902    2    1    2    0    0 -0.21166161449E-02  0.92817446345E-02 -0.21621260948E-01  0.10203056530E+01  0.10200321150E+01 0.  0.
     999903    2    3    3    0    0 -0.10788536619E+00  0.47121782205E-01  0.51835888467E-01  0.13012878868E+00  0.19667936166E-01 0.  0.
         14    1    1    2    0    0  0.21166161449E-02 -0.92817446345E-02  0.21621260948E-01  0.23624347025E-01  0.00000000000E+00 0.  1.
     999901    1    3    3    0    0  0.10576875005E+00 -0.37840037570E-01 -0.73457149415E-01  0.89017686430E+00  0.88000000000E+00 0. -1.
        -11    1    4    4    0    0 -0.35175988916E-01  0.17538496082E-01  0.27393309302E-01  0.47912457217E-01  0.51100000000E-03 0.  1.
         11    1    4    4    0    0 -0.72709377276E-01  0.29583286123E-01  0.24442579166E-01  0.82216331461E-01  0.51100000000E-03 0. -1.
</event>
<event>
 8    1  0.1076043E+005  0.1043930E+01  0.7957747E-01            NaN
         13   -1    0    0    0    0  0.00000000000E+00  0.00000000000E+00  0.74505805969E-08  0.10566000000E+00  0.10566000000E+00 0.  1.
     999900   -1    0    0    0    0 -0.00000000000E+00 -0.00000000000E+00 -0.74505805969E-08  0.93827000000E+00  0.93827000000E+00 0. -1.
     999902    2    1    2    0    0 -0.18131919134E-01 -0.14047715638E-01  0.53219082156E-02  0.10203837155E+01  0.10201120033E+01 0.  0.
     999903    2    3    3    0    0 -0.13187944390E-01  0.52198299962E-01  0.11478573837E+00  0.13111699086E+00  0.33426264561E-01 0.  0.
         14    1    1    2    0    0  0.18131919134E-01  0.14047715638E-01 -0.53219082156E-02  0.23546284488E-01  0.00000000000E+00 0. -1.
     999901    1    3    3    0    0 -0.49439747434E-02 -0.66246015600E-01 -0.10946383015E+00  0.88926672466E+00  0.88000000000E+00 0. -1.
        -11    1    4    4    0    0  0.69847154979E-02  0.32312683947E-01  0.45341092040E-01  0.56115697829E-01  0.51100000000E-03 0. -1.
         11    1    4    4    0    0 -0.20172659888E-01  0.19885616015E-01  0.69444646327E-01  0.75001293027E-01  0.51100000000E-03 0.  1.
</event>
<event>
 8    1  0.1076043E+005  0.1043930E+01  0.7957747E-01            NaN
         13   -1    0    0    0    0  0.00000000000E+00  0.00000000000E+00  0.74505805969E-08  0.10566000000E+00  0.10566000000E+00 0.  1.
     999900   -1    0    0    0    0 -0.00000000000E+00 -0.00000000000E+00 -0.74505805969E-08  0.93827000000E+00  0.93827000000E+00 0.  1.
     999902    2    1    2    0    0 -0.15511667587E-01  0.11065706291E-01 -0.91535427490E-02  0.10227911961E+01  0.10225727269E+01 0.  0.
     999903    2    3    3    0    0 -0.12205232205E+00 -0.29808550747E-01  0.41825239917E-01  0.13396024913E+00  0.20265207582E-01 0.  0.
         14    1    1    2    0    0  0.15511667587E-01 -0.11065706291E-01  0.91535427490E-02  0.21138803938E-01  0.00000000000E+00 0.  1.
     999901    1    3    3    0    0  0.10654065446E+00  0.40874257038E-01 -0.50978782666E-01  0.88883094693E+00  0.88000000000E+00 0.  1.
        -11    1    4    4    0    0 -0.61683000820E-01 -0.18897359835E-01  0.31328520203E-01  0.71719175246E-01  0.51100000000E-03 0. -1.
         11    1    4    4    0    0 -0.60369321227E-01 -0.10911190911E-01  0.10496719714E-01  0.62241073884E-01  0.51100000000E-03 0.  1.
</event>
<event>
 8    1  0.1076043E+005  0.1043930E+01  0.7957747E-01            NaN
         13   -1    0    0    0    0  0.00000000000E+00  0.00000000000E+00  0.74505805969E-08  0.10566000000E+00  0.10566000000E+00 0.  1.
     999900   -1    0    0    0    0 -0.00000000000E+00 -0.00000000000E+00 -0.74505805969E-08  0.93827000000E+00  0.93827000000E+00 0.  1.
     999902    2    1    2    0    0  0.85446232656E-02  0.21492372960E-01  0.15417035060E-02  0.10207500619E+01  0.10204868344E+01 0.  0.
     999903    2    3    3    0    0 -0.34271197124E-01 -0.74187104057E-01 -0.97741886937E-01  0.12898496492E+00  0.20134630689E-01 0.  0.
         14    1    1    2    0    0 -0.85446232656E-02 -0.21492372960E-01 -0.15417035060E-02  0.23179938134E-01  0.00000000000E+00 0. -1.
     999901    1    3    3    0    0  0.42815820389E-01  0.95679477017E-01  0.99283590443E-01  0.89176509694E+00  0.88000000000E+00 0. -1.
        -11    1    4    4    0    0 -0.22475324720E-01 -0.26540105693E-01 -0.45904328362E-01  0.57593280119E-01  0.51100000000E-03 0. -1.
         11    1    4    4    0    0 -0.11795872404E-01 -0.47646998365E-01 -0.51837558575E-01  0.71391684802E-01  0.51100000000E-03 0.  1.
</event>
<event>
 8    1  0.1076043E+005  0.1043930E+01  0.7957747E-01            NaN
         13   -1    0    0    0    0  0.00000000000E+00  0.00000000000E+00  0.74505805969E-08  0.10566000000E+00  0.10566000000E+00 0.  1.
     999900   -1    0    0    0    0 -0.00000000000E+00 -0.00000000000E+00 -0.74505805969E-08  0.93827000000E+00  0.93827000000E+00 0. -1.
     999902    2    1    2    0    0 -0.10464291373E-01  0.13531982378E-01 -0.18492312843E-01  0.10187390974E+01  0.10184275953E+01 0.  0.
     999903    2    3    3    0    0 -0.31186406292E-01 -0.67332017567E-01 -0.10549840050E+00  0.13051702389E+00  0.19964681053E-01 0.  0.
         14    1    1    2    0    0  0.10464291373E-01 -0.13531982378E-01  0.18492312843E-01  0.25190902630E-01  0.00000000000E+00 0.  1.
     999901    1    3    3    0    0  0.20722114919E-01  0.80863999946E-01  0.87006087655E-01  0.88822207348E+00  0.88000000000E+00 0.  1.
        -11    1    4    4    0    0 -0.16258717687E-01 -0.31273580989E-01 -0.33552130037E-01  0.48666100313E-01  0.51100000000E-03 0.  1.
         11    1    4    4    0    0 -0.14927688605E-01 -0.36058436578E-01 -0.71946270461E-01  0.81850923574E-01  0.51100000000E-03 0. -1.
</event>
<event>
 8    1  0.1076043E+005  0.1043930E+01  0.7957747E-01            NaN
         13   -1    0    0    0    0  0.00000000000E+00  0.00000000000E+00  0.74505805969E-08  0.10566000000E+00  0.10566000000E+00 0. -1.
     999900   -1    0    0    0    0 -0.00000000000E+00 -0.00000000000E+00 -0.74505805969E-08  0.93827000000E+00  0.93827000000E+00 0. -1.
     999902    2    1    2    0    0  0.18840970715E-01 -0.14111326485E-01  0.26239791840E-02  0.10202446252E+01  0.10199696556E+01 0.  0.
     999903    2    3    3    0    0  0.13366022328E-01 -0.73380863254E-01 -0.10640095072E+00  0.13152122144E+00  0.20328987412E-01 0.  0.
         14    1    1    2    0    0 -0.18840970715E-01  0.14111326485E-01 -0.26239791840E-02  0.23685374800E-01  0.00000000000E+00 0.  1.
     999901    1    3    3    0    0  0.54749483869E-02  0.59269536769E-01  0.10902492991E+00  0.88872340376E+00  0.88000000000E+00 0.  1.
        -11    1    4    4    0    0  0.56937930665E-02 -0.43679759636E-01 -0.45514210530E-01  0.63341496371E-01  0.51100000000E-03 0.  1.
         11    1    4    4    0    0  0.76722292620E-02 -0.29701103618E-01 -0.60886740195E-01  0.68179725069E-01  0.51100000000E-03 0. -1.
</event>
<event>
 8    1  0.1076043E+005  0.1043930E+01  0.7957747E-01            NaN
         13   -1    0    0    0    0  0.00000000000E+00  0.00000000000E+00  0.74505805969E-08  0.10566000000E+00  0.10566000000E+00 0. -1.
     999900   -1    0    0    0    0 -0.00000000000E+00 -0.00000000000E+00 -0.74505805969E-08  0.93827000000E+00  0.93827000000E+00 0.  1.
     999902    2    1    2    0    0 -0.97442862177E-02  0.13792898326E-01  0.16132071560E-01  0.10205753668E+01  0.10203081106E+01 0.  0.
     999903    2    3    3    0    0  0.59960119701E-01 -0.62699781525E-01  0.95987587402E-01  0.13091996292E+00  0.19998529904E-01 0.  0.
         14    1    1    2    0    0  0.97442862177E-02 -0.13792898326E-01 -0.16132071560E-01  0.23354633179E-01  0.00000000000E+00 0.  1.
     999901    1    3    3    0    0 -0.69704405919E-01  0.76492679851E-01 -0.79855515842E-01  0.88965540390E+00  0.88000000000E+00 0.  1.
        -11    1    4    4    0    0  0.80692018273E-02 -0.12108668220E-01  0.70031448680E-02  0.16156640221E-01  0.51100000000E-03 0. -1.
         11    1    4    4    0    0  0.51890917874E-01 -0.50591113305E-01  0.88984442534E-01  0.11476332270E+00  0.51100000000E-03 0.  1.
</event>
<event>
 8    1  0.1076043E+005  0.1043930E+01  0.7957747E-01            NaN
         13   -1    0    0    0    0  0.00000000000E+00  0.00000000000E+00  0.74505805969E-08  0.10566000000E+00  0.10566000000E+00 0. -1.
     999900   -1    0    0    0    0 -0.00000000000E+00 -0.00000000000E+00 -0.74505805969E-08  0.93827000000E+00  0.93827000000E+00 0. -1.
     999902    2    1    2    0    0 -0.10655620724E-01 -0.21129543286E-01 -0.34739182492E-02  0.10200120578E+01  0.10197315971E+01 0.  0.
     999903    2    3    3    0    0 -0.10169548030E+00 -0.19048226769E-01 -0.80813773148E-01  0.13193883947E+00  0.13121957667E-01 0.  0.
         14    1    1    2    0    0  0.10655620724E-01  0.21129543286E-01  0.34739182492E-02  0.23917942229E-01  0.00000000000E+00 0.  1.
     999901    1    3    3    0    0  0.91039859577E-01 -0.20813165163E-02  0.77339854899E-01  0.88807321830E+00  0.88000000000E+00 0.  1.
        -11    1    4    4    0    0 -0.76216100839E-01 -0.97492307348E-02 -0.64187945691E-01  0.10012140141E+00  0.51100000000E-03 0. -1.
         11    1    4    4    0    0 -0.25479379462E-01 -0.92989960347E-02 -0.16625827458E-01  0.31817438060E-01  0.51100000000E-03 0.  1.
</event>
<event>
 8    1  0.1076043E+005  0.1043930E+01  0.7957747E-01            NaN
         13   -1    0    0    0    0  0.00000000000E+00  0.00000000000E+00  0.74505805969E-08  0.10566000000E+00  0.10566000000E+00 0. -1.
     999900   -1    0    0    0    0 -0.00000000000E+00 -0.00000000000E+00 -0.74505805969E-08  0.93827000000E+00  0.93827000000E+00 0.  1.
     999902    2    1    2    0    0 -0.60521995184E-02  0.23208609792E-01  0.14850204139E-01  0.10157201214E+01  0.10153283054E+01 0.  0.
     999903    2    3    3    0    0  0.62745898049E-02  0.99642767012E-01 -0.76662535441E-01  0.12759360360E+00  0.20855019623E-01 0.  0.
         14    1    1    2    0    0  0.60521995184E-02 -0.23208609792E-01 -0.14850204139E-01  0.28209878598E-01  0.00000000000E+00 0. -1.
     999901    1    3    3    0    0 -0.12326789323E-01 -0.76434157220E-01  0.91512739580E-01  0.88812651781E+00  0.88000000000E+00 0. -1.
        -11    1    4    4    0    0 -0.73052613066E-02  0.47640499498E-01 -0.38168025627E-01  0.61482057029E-01  0.51100000000E-03 0. -1.
         11    1    4    4    0    0  0.13579851112E-01  0.52002267514E-01 -0.38494509814E-01  0.66111546568E-01  0.51100000000E-03 0.  1.
</event>
<event>
 8    1  0.1076043E+005  0.1043930E+01  0.7957747E-01            NaN
         13   -1    0    0    0    0  0.00000000000E+00  0.00000000000E+00  0.74505805969E-08  0.10566000000E+00  0.10566000000E+00 0. -1.
     999900   -1    0    0    0    0 -0.00000000000E+00 -0.00000000000E+00 -0.74505805969E-08  0.93827000000E+00  0.93827000000E+00 0.  1.
     999902    2    1    2    0    0  0.10961760873E-02 -0.22891155878E-01 -0.26847100996E-02  0.10208558957E+01  0.10205950938E+01 0.  0.
     999903    2    3    3    0    0 -0.41046491826E-01 -0.75946396185E-01 -0.99053869132E-01  0.13300575196E+00  0.20644405530E-01 0.  0.
         14    1    1    2    0    0 -0.10961760873E-02  0.22891155878E-01  0.26847100996E-02  0.23074104268E-01  0.00000000000E+00 0. -1.
     999901    1    3    3    0    0  0.42142667913E-01  0.53055240307E-01  0.96369159033E-01  0.88785014377E+00  0.88000000000E+00 0. -1.
        -11    1    4    4    0    0 -0.14727482056E-01 -0.47728931851E-01 -0.60502375547E-01  0.78458576531E-01  0.51100000000E-03 0.  1.
         11    1    4    4    0    0 -0.26319009769E-01 -0.28217464334E-01 -0.38551493585E-01  0.54547175429E-01  0.51100000000E-03 0. -1.
</event>
<event>
 8    1  0.1076043E+005  0.1043930E+01  0.7957747E-01            NaN
         13   -1    0    0    0    0  0.00000000000E+00  0.00000000000E+00  0.74505805969E-08  0.10566000000E+00  0.10566000000E+00 0. -1.
     999900   -1    0    0    0    0 -0.00000000000E+00 -0.00000000000E+00 -0.74505805969E-08  0.93827000000E+00  0.93827000000E+00 0.  1.
     999902    2    1    2    0    0 -0.18907431493E-01  0.89014185205E-02  0.10967295085E-01  0.10203289878E+01  0.10200559962E+01 0.  0.
     999903    2    3    3    0    0 -0.78098625564E-01 -0.29873038440E-01 -0.98512484230E-01  0.13072633598E+00  0.19820989625E-01 0.  0.
         14    1    1    2    0    0  0.18907431493E-01 -0.89014185205E-02 -0.10967295085E-01  0.23601012241E-01  0.00000000000E+00 0.  1.
     999901    1    3    3    0    0  0.59191194071E-01  0.38774456960E-01  0.10947977931E+00  0.88960265178E+00  0.88000000000E+00 0. -1.
        -11    1    4    4    0    0 -0.11963576071E-01 -0.12654312742E-01 -0.23443018709E-01  0.29207790580E-01  0.51100000000E-03 0.  1.
         11    1    4    4    0    0 -0.66135049493E-01 -0.17218725698E-01 -0.75069465521E-01  0.10151854540E+00  0.51100000000E-03 0. -1.
</event>
<event>
 8    1  0.1076043E+005  0.1043930E+01  0.7957747E-01            NaN
         13   -1    0    0    0    0  0.00000000000E+00  0.00000000000E+00  0.74505805969E-08  0.10566000000E+00  0.10566000000E+00 0. -1.
     999900   -1    0    0    0    0 -0.00000000000E+00 -0.00000000000E+00 -0.74505805969E-08  0.93827000000E+00  0.93827000000E+00 0. -1.
     999902    2    1    2    0    0  0.38163762750E-02  0.23089027284E-01 -0.11622658199E-02  0.10204988504E+01  0.10202298197E+01 0.  0.
     999903    2    3    3    0    0  0.74547785301E-01  0.40150211798E-01  0.98909304490E-01  0.13184349798E+00  0.20742363505E-01 0.  0.
         14    1    1    2    0    0 -0.38163762750E-02 -0.23089027284E-01  0.11622658199E-02  0.23431149580E-01  0.00000000000E+00 0.  1.
     999901    1    3    3    0    0 -0.70731409026E-01 -0.17061184514E-01 -0.10007157031E+00  0.88865535244E+00  0.88000000000E+00 0. -1.
        -11    1    4    4    0    0  0.38034439739E-01  0.32079538385E-01  0.55114574694E-01  0.74253571321E-01  0.51100000000E-03 0. -1.
         11    1    4    4    0    0  0.36513345562E-01  0.80706734131E-02  0.43794729796E-01  0.57589926657E-01  0.51100000000E-03 0.  1.
</event>
<event>
 8    1  0.1076043E+005  0.1043930E+01  0.7957747E-01            NaN
         13   -1    0    0    0    0  0.00000000000E+00  0.00000000000E+00  0.74505805969E-08  0.10566000000E+00  0.10566000000E+00 0.  1.
     999900   -1    0    0    0    0 -0.00000000000E+00 -0.00000000000E+00 -0.74505805969E-08  0.93827000000E+00  0.93827000000E+00 0. -1.
     999902    2    1    2    0    0 -0.22070943510E-01 -0.15927831194E-02 -0.11309088907E-01  0.10190792657E+01  0.10187762221E+01 0.  0.
     999903    2    3    3    0    0 -0.11611083306E+00 -0.55074030887E-01  0.22852464719E-01  0.13179647171E+00  0.18253777141E-01 0.  0.
         14    1    1    2    0    0  0.22070943510E-01  0.15927831194E-02  0.11309088907E-01  0.24850734343E-01  0.00000000000E+00 0.  1.
     999901    1    3    3    0    0  0.94039889547E-01  0.53481247768E-01 -0.34161553625E-01  0.88728279395E+00  0.88000000000E+00 0. -1.
        -11    1    4    4    0    0 -0.99404644162E-01 -0.45248288197E-01  0.25693523217E-01  0.11220119929E+00  0.51100000000E-03 0.  1.
         11    1    4    4    0    0 -0.16706188895E-01 -0.98257426896E-02 -0.28410584983E-02  0.19595272420E-01  0.51100000000E-03 0. -1.
</event>
<event>
 8    1  0.1076043E+005  0.1043930E+01  0.7957747E-01            NaN
         13   -1    0    0    0    0  0.00000000000E+00  0.00000000000E+00  0.74505805969E-08  0.10566000000E+00  0.10566000000E+00 0.  1.
     999900   -1    0    0    0    0 -0.00000000000E+00 -0.00000000000E+00 -0.74505805969E-08  0.93827000000E+00  0.93827000000E+00 0.  1.
     999902    2    1    2    0    0 -0.20925717339E-01 -0.51670873675E-02 -0.10218590873E-01  0.10200761945E+01  0.10197972536E+01 0.  0.
     999903    2    3    3    0    0  0.65148820991E-01 -0.39409481624E-01  0.10118342254E+00  0.12822879930E+00  0.20175823481E-01 0.  0.
         14    1    1    2    0    0  0.20925717339E-01  0.51670873675E-02  0.10218590873E-01  0.23853805513E-01  0.00000000000E+00 0.  1.
     999901    1    3    3    0    0 -0.86074538329E-01  0.34242394257E-01 -0.11140201342E+00  0.89184739519E+00  0.88000000000E+00 0. -1.
        -11    1    4    4    0    0  0.52722516234E-01 -0.27490729314E-01  0.64642717958E-01  0.87831349883E-01  0.51100000000E-03 0. -1.
         11    1    4    4    0    0  0.12426304756E-01 -0.11918752310E-01  0.36540704586E-01  0.40397449414E-01  0.51100000000E-03 0.  1.
</event>
<event>
 8    1  0.1076043E+005  0.1043930E+01  0.7957747E-01            NaN
         13   -1    0    0    0    0  0.00000000000E+00  0.00000000000E+00  0.74505805969E-08  0.10566000000E+00  0.10566000000E+00 0. -1.
     999900   -1    0    0    0    0 -0.00000000000E+00 -0.00000000000E+00 -0.74505805969E-08  0.93827000000E+00  0.93827000000E+00 0.  1.
     999902    2    1    2    0    0 -0.61424246011E-02 -0.12867308861E-04 -0.23006638232E-01  0.10201175044E+01  0.10198395402E+01 0.  0.
     999903    2    3    3    0    0  0.11595268482E+00 -0.52083110749E-01 -0.21960497223E-01  0.13016266259E+00  0.17389069881E-01 0.  0.
         14    1    1    2    0    0  0.61424246011E-02  0.12867308861E-04  0.23006638232E-01  0.23812495633E-01  0.00000000000E+00 0. -1.
     999901    1    3    3    0    0 -0.12209510942E+00  0.52070243441E-01 -0.10461410090E-02  0.88995484178E+00  0.88000000000E+00 0.  1.
        -11    1    4    4    0    0  0.31754151125E-01 -0.19358685615E-01  0.11051021849E-04  0.37193360504E-01  0.51100000000E-03 0. -1.
         11    1    4    4    0    0  0.84198533695E-01 -0.32724425134E-01 -0.21971548244E-01  0.92969302084E-01  0.51100000000E-03 0.  1.
</event>
<event>
 8    1  0.1076043E+005  0.1043930E+01  0.7957747E-01            NaN
         13   -1    0    0    0    0  0.00000000000E+00  0.00000000000E+00  0.74505805969E-08  0.10566000000E+00  0.10566000000E+00 0. -1.
     999900   -1    0    0    0    0 -0.00000000000E+00 -0.00000000000E+00 -0.74505805969E-08  0.93827000000E+00  0.93827000000E+00 0.  1.
     999902    2    1    2    0    0 -0.45697474249E-02  0.20324488649E-01  0.15211155098E-01  0.10181356853E+01  0.10178088853E+01 0.  0.
     999903    2    3    3    0    0 -0.11447032546E+00  0.57879902769E-01  0.14087973580E-01  0.13050411326E+00  0.19475985800E-01 0.  0.
         14    1    1    2    0    0  0.45697474249E-02 -0.20324488649E-01 -0.15211155098E-01  0.25794314680E-01  0.00000000000E+00 0.  1.
     999901    1    3    3    0    0  0.10990057803E+00 -0.37555414120E-01  0.11231815178E-02  0.88763157206E+00  0.88000000000E+00 0.  1.
        -11    1    4    4    0    0 -0.96659880202E-01  0.54784567183E-01  0.78892925396E-02  0.11138663879E+00  0.51100000000E-03 0.  1.
         11    1    4    4    0    0 -0.17810445257E-01  0.30953355859E-02  0.61986810404E-02  0.19117474474E-01  0.51100000000E-03 0. -1.
</event>
<event>
 7    1  0.1076043E+005  0.1043930E+01  0.7957747E-01            NaN
         13   -1    0    0    0    0  0.00000000000E+00  0.00000000000E+00  0.74505805969E-08  0.10566000000E+00  0.10566000000E+00 0.  1.
     999900   -1    0    0    0    0 -0.00000000000E+00 -0.00000000000E+00 -0.74505805969E-08  0.93827000000E+00  0.93827000000E+00 0.  1.
     999903    2    1    2    0    0 -0.80518114893E-01  0.63466582479E-01  0.27640272284E-01  0.10803266287E+00  0.19897177600E-01 0.  0.
         14    1    1    2    0    0  0.10022601469E-01  0.39288003699E-01  0.21244890555E-01  0.45774940191E-01  0.00000000000E+00 0.  1.
     999901    1    1    2    0    0  0.70495513424E-01 -0.10275458618E+00 -0.48885162839E-01  0.89012239694E+00  0.88000000000E+00 0.  1.
        -11    1    3    3    0    0 -0.24871774402E-01  0.10452134791E-01  0.22017659922E-02  0.27073255771E-01  0.51100000000E-03 0. -1.
         11    1    3    3    0    0 -0.55646340491E-01  0.53014447688E-01  0.25438506291E-01  0.80959407094E-01  0.51100000000E-03 0.  1.
</event>
<event>
 8    1  0.1076043E+005  0.1043930E+01  0.7957747E-01            NaN
         13   -1    0    0    0    0  0.00000000000E+00  0.00000000000E+00  0.74505805969E-08  0.10566000000E+00  0.10566000000E+00 0.  1.
     999900   -1    0    0    0    0 -0.00000000000E+00 -0.00000000000E+00 -0.74505805969E-08  0.93827000000E+00  0.93827000000E+00 0. -1.
     999902    2    1    2    0    0 -0.16334076644E-01  0.84878879346E-02  0.65847223664E-03  0.10255104482E+01  0.10253450149E+01 0.  0.
     999903    2    3    3    0    0 -0.78939648554E-01  0.97111879176E-01 -0.53019229263E-01  0.13722278926E+00  0.18891003930E-01 0.  0.
         14    1    1    2    0    0  0.16334076644E-01 -0.84878879346E-02 -0.65847223664E-03  0.18419551761E-01  0.00000000000E+00 0.  1.
     999901    1    3    3    0    0  0.62605571910E-01 -0.88623991241E-01  0.53677701500E-01  0.88828765898E+00  0.88000000000E+00 0.  1.
        -11    1    4    4    0    0 -0.45862183500E-01  0.46053267700E-01 -0.34736868519E-01  0.73696366917E-01  0.51100000000E-03 0. -1.
         11    1    4    4    0    0 -0.33077465054E-01  0.51058611476E-01 -0.18282360744E-01  0.63526422342E-01  0.51100000000E-03 0.  1.
</event>
<event>
 8    1  0.1076043E+005  0.1043930E+01  0.7957747E-01            NaN
         13   -1    0    0    0    0  0.00000000000E+00  0.00000000000E+00  0.74505805969E-08  0.10566000000E+00  0.10566000000E+00 0.  1.
     999900   -1    0    0    0    0 -0.00000000000E+00 -0.00000000000E+00 -0.74505805969E-08  0.93827000000E+00  0.93827000000E+00 0. -1.
     999902    2    1    2    0    0 -0.16314466542E-01 -0.45386204484E-02  0.14332657906E-01  0.10217447351E+01  0.10215038511E+01 0.  0.
     999903    2    3    3    0    0  0.61015679492E-01  0.85429090248E-01  0.76789395955E-01  0.13159026283E+00  0.19958540422E-01 0.  0.
         14    1    1    2    0    0  0.16314466542E-01  0.45386204484E-02 -0.14332657906E-01  0.22185264857E-01  0.00000000000E+00 0. -1.
     999901    1    3    3    0    0 -0.77330146034E-01 -0.89967710696E-01 -0.62456738049E-01  0.89015447231E+00  0.88000000000E+00 0. -1.
        -11    1    4    4    0    0  0.32603582233E-01  0.34795462485E-01  0.44130286973E-01  0.64972772246E-01  0.51100000000E-03 0. -1.
         11    1    4    4    0    0  0.28412097259E-01  0.50633627763E-01  0.32659108982E-01  0.66617490583E-01  0.51100000000E-03 0.  1.
</event>
<event>
 8    1  0.1076043E+005  0.1043930E+01  0.7957747E-01            NaN
         13   -1    0    0    0    0  0.00000000000E+00  0.00000000000E+00  0.74505805969E-08  0.10566000000E+00  0.10566000000E+00 0. -1.
     999900   -1    0    0    0    0 -0.00000000000E+00 -0.00000000000E+00 -0.74505805969E-08  0.93827000000E+00  0.93827000000E+00 0. -1.
     999902    2    1    2    0    0  0.96662260103E-02  0.30468656573E-02 -0.21183209925E-01  0.10204470765E+01  0.10201768416E+01 0.  0.
     999903    2    3    3    0    0  0.45856551304E-01 -0.10272196862E+00 -0.66900591702E-01  0.13219775056E+00  0.18599192181E-01 0.  0.
         14    1    1    2    0    0 -0.96662260103E-02 -0.30468656573E-02  0.21183209925E-01  0.23482923548E-01  0.00000000000E+00 0. -1.
     999901    1    3    3    0    0 -0.36190325293E-01  0.10576883427E+00  0.45717381777E-01  0.88824932589E+00  0.88000000000E+00 0.  1.
        -11    1    4    4    0    0  0.20211959885E-01 -0.65998262502E-01 -0.44369036599E-01  0.82055874290E-01  0.51100000000E-03 0.  1.
         11    1    4    4    0    0  0.25644591419E-01 -0.36723706114E-01 -0.22531555103E-01  0.50141876272E-01  0.51100000000E-03 0. -1.
</event>
<event>
 8    1  0.1076043E+005  0.1043930E+01  0.7957747E-01            NaN
         13   -1    0    0    0    0  0.00000000000E+00  0.00000000000E+00  0.74505805969E-08  0.10566000000E+00  0.10566000000E+00 0.  1.
     999900   -1    0    0    0    0 -0.00000000000E+00 -0.00000000000E+00 -0.74505805969E-08  0.93827000000E+00  0.93827000000E+00 0. -1.
     999902    2    1    2    0    0 -0.22038120571E-01 -0.53511017363E-02  0.58271233721E-02  0.10205148678E+01  0.10202462090E+01 0.  0.
     999903    2    3    3    0    0  0.12131449900E+00 -0.88490892834E-02 -0.34336243867E-01  0.12800419252E+00  0.20262813512E-01 0.  0.
         14    1    1    2    0    0  0.22038120571E-01  0.53511017363E-02 -0.58271233721E-02  0.23415132177E-01  0.00000000000E+00 0. -1.
     999901    1    3    3    0    0 -0.14335261957E+00  0.34979875471E-02  0.40163367239E-01  0.89251067530E+00  0.88000000000E+00 0.  1.
        -11    1    4    4    0    0  0.99123567779E-01 -0.95521356225E-03 -0.22551270085E-01  0.10166225959E+00  0.51100000000E-03 0. -1.
         11    1    4    4    0    0  0.22190931223E-01 -0.78938757211E-02 -0.11784973782E-01  0.26341932930E-01  0.51100000000E-03 0.  1.
</event>
<event>
 8    1  0.1076043E+005  0.1043930E+01  0.7957747E-01            NaN
         13   -1    0    0    0    0  0.00000000000E+00  0.00000000000E+00  0.74505805969E-08  0.10566000000E+00  0.10566000000E+00 0.  1.
     999900   -1    0    0    0    0 -0.00000000000E+00 -0.00000000000E+00 -0.74505805969E-08  0.93827000000E+00  0.93827000000E+00 0.  1.
     999902    2    1    2    0    0  0.14013263642E-01 -0.19980149905E-01  0.35498512220E-03  0.10195229526E+01  0.10192307624E+01 0.  0.
     999903    2    3    3    0    0 -0.69354256299E-01 -0.41593706090E-01 -0.99456003279E-01  0.12970301430E+00  0.19781963460E-01 0.  0.
         14    1    1    2    0    0 -0.14013263642E-01  0.19980149905E-01 -0.35498512220E-03  0.24407047395E-01  0.00000000000E+00 0. -1.
     999901    1    3    3    0    0  0.83367519941E-01  0.21613556186E-01  0.99810988401E-01  0.88981993830E+00  0.88000000000E+00 0. -1.
        -11    1    4    4    0    0 -0.52790940650E-01 -0.21150196661E-01 -0.70370777078E-01  0.90479398876E-01  0.51100000000E-03 0.  1.
         11    1    4    4    0    0 -0.16563315649E-01 -0.20443509429E-01 -0.29085226201E-01  0.39223615428E-01  0.51100000000E-03 0. -1.
</event>
<event>
 8    1  0.1076043E+005  0.1043930E+01  0.7957747E-01            NaN
         13   -1    0    0    0    0  0.00000000000E+00  0.00000000000E+00  0.74505805969E-08  0.10566000000E+00  0.10566000000E+00 0. -1.
     999900   -1    0    0    0    0 -0.00000000000E+00 -0.00000000000E+00 -0.74505805969E-08  0.93827000000E+00  0.93827000000E+00 0.  1.
     999902    2    1    2    0    0 -0.94116638412E-02 -0.17603914797E-01  0.54464603723E-02  0.10232384277E+01  0.10230291974E+01 0.  0.
     999903    2    3    3    0    0 -0.29302315237E-01  0.97391825513E-01 -0.79585892730E-01  0.13147043134E+00  0.24632633664E-01 0.  0.
         14    1    1    2    0    0  0.94116638412E-02  0.17603914797E-01 -0.54464603723E-02  0.20691572271E-01  0.00000000000E+00 0.  1.
     999901    1    3    3    0    0  0.19890651396E-01 -0.11499574031E+00  0.85032353103E-01  0.89176799639E+00  0.88000000000E+00 0. -1.
        -11    1    4    4    0    0 -0.25525776801E-01  0.57731775527E-01 -0.37076970834E-01  0.73208510940E-01  0.51100000000E-03 0. -1.
         11    1    4    4    0    0 -0.37765384362E-02  0.39660049985E-01 -0.42508921896E-01  0.58261920404E-01  0.51100000000E-03 0.  1.
</event>
<event>
 8    1  0.1076043E+005  0.1043930E+01  0.7957747E-01            NaN
         13   -1    0    0    0    0  0.00000000000E+00  0.00000000000E+00  0.74505805969E-08  0.10566000000E+00  0.10566000000E+00 0.  1.
     999900   -1    0    0    0    0 -0.00000000000E+00 -0.00000000000E+00 -0.74505805969E-08  0.93827000000E+00  0.93827000000E+00 0. -1.
     999902    2    1    2    0    0 -0.17207099005E-01  0.15441824194E-01 -0.31598641910E-02  0.10205950706E+01  0.10203282703E+01 0.  0.
     999903    2    3    3    0    0  0.41544021881E-01  0.84872170124E-02  0.12114948690E+00  0.12989148600E+00  0.19916358891E-01 0.  0.
         14    1    1    2    0    0  0.17207099005E-01 -0.15441824194E-01  0.31598641910E-02  0.23334929447E-01  0.00000000000E+00 0.  1.
     999901    1    3    3    0    0 -0.58751120886E-01  0.69546071817E-02 -0.12430935109E+00  0.89070358455E+00  0.88000000000E+00 0. -1.
        -11    1    4    4    0    0  0.19576972733E-01  0.64756212841E-02  0.32151829260E-01  0.38199381908E-01  0.51100000000E-03 0. -1.
         11    1    4    4    0    0  0.21967049149E-01  0.20115957283E-02  0.88997657644E-01  0.91692104092E-01  0.51100000000E-03 0.  1.
</event>
<event>
 8    1  0.1076043E+005  0.1043930E+01  0.7957747E-01            NaN
         13   -1    0    0    0    0  0.00000000000E+00  0.00000000000E+00  0.74505805969E-08  0.10566000000E+00  0.10566000000E+00 0.  1.
     999900   -1    0    0    0    0 -0.00000000000E+00 -0.00000000000E+00 -0.74505805969E-08  0.93827000000E+00  0.93827000000E+00 0.  1.
     999902    2    1    2    0    0 -0.43599914291E-02  0.41261759522E-02  0.22285616255E-01  0.10208500618E+01  0.10205891265E+01 0.  0.
     999903    2    3    3    0    0 -0.97528506757E-01  0.70881633946E-01 -0.46618420675E-01  0.13074645567E+00  0.19630151900E-01 0.  0.
         14    1    1    2    0    0  0.43599914291E-02 -0.41261759522E-02 -0.22285616255E-01  0.23079938152E-01  0.00000000000E+00 0. -1.
     999901    1    3    3    0    0  0.93168515328E-01 -0.66755457994E-01  0.68904036930E-01  0.89010360617E+00  0.88000000000E+00 0.  1.
        -11    1    4    4    0    0 -0.84138016140E-01  0.53803934576E-01 -0.43018737501E-01  0.10874254932E+00  0.51100000000E-03 0. -1.
         11    1    4    4    0    0 -0.13390490617E-01  0.17077699370E-01 -0.35996831739E-02  0.22003906351E-01  0.51100000000E-03 0.  1.
</event>
<event>
 8    1  0.1076043E+005  0.1043930E+01  0.7957747E-01            NaN
         13   -1    0    0    0    0  0.00000000000E+00  0.00000000000E+00  0.74505805969E-08  0.10566000000E+00  0.10566000000E+00 0.  1.
     999900   -1    0    0    0    0 -0.00000000000E+00 -0.00000000000E+00 -0.74505805969E-08  0.93827000000E+00  0.93827000000E+00 0. -1.
     999902    2    1    2    0    0  0.79304173096E-02  0.36549687878E-02 -0.21651024290E-01  0.10205843972E+01  0.10203173500E+01 0.  0.
     999903    2    3    3    0    0  0.65924376530E-01  0.47618005858E-01  0.98659841833E-01  0.12942181250E+00  0.20068464229E-01 0.  0.
         14    1    1    2    0    0 -0.79304173096E-02 -0.36549687878E-02  0.21651024290E-01  0.23345602763E-01  0.00000000000E+00 0.  1.
     999901    1    3    3    0    0 -0.57993959220E-01 -0.43963037070E-01 -0.12031086612E+00  0.89116258474E+00  0.88000000000E+00 0. -1.
        -11    1    4    4    0    0  0.28998646246E-01  0.11320779958E-01  0.46194272266E-01  0.55706852848E-01  0.51100000000E-03 0. -1.
         11    1    4    4    0    0  0.36925730283E-01  0.36297225900E-01  0.52465569567E-01  0.73714959649E-01  0.51100000000E-03 0.  1.
</event>
<event>
 8    1  0.1076043E+005  0.1043930E+01  0.7957747E-01            NaN
         13   -1    0    0    0    0  0.00000000000E+00  0.00000000000E+00  0.74505805969E-08  0.10566000000E+00  0.10566000000E+00 0. -1.
     999900   -1    0    0    0    0 -0.00000000000E+00 -0.00000000000E+00 -0.74505805969E-08  0.93827000000E+00  0.93827000000E+00 0. -1.
     999902    2    1    2    0    0  0.59006727746E-02  0.10680219454E-01 -0.21043856659E-01  0.10196045210E+01  0.10193143040E+01 0.  0.
     999903    2    3    3    0    0 -0.91847530723E-01 -0.64882398706E-01 -0.62239008486E-01  0.13001952724E+00  0.19638959327E-01 0.  0.
         14    1    1    2    0    0 -0.59006727746E-02 -0.10680219454E-01  0.21043856659E-01  0.24325479026E-01  0.00000000000E+00 0. -1.
     999901    1    3    3    0    0  0.97748203498E-01  0.75562618159E-01  0.41195151827E-01  0.88958499374E+00  0.88000000000E+00 0. -1.
        -11    1    4    4    0    0 -0.40902348185E-01 -0.21214080928E-01 -0.33768688662E-01  0.57128143428E-01  0.51100000000E-03 0.  1.
         11    1    4    4    0    0 -0.50945182539E-01 -0.43668317777E-01 -0.28470319824E-01  0.72891383807E-01  0.51100000000E-03 0. -1.
</event>
<event>
 8    1  0.1076043E+005  0.1043930E+01  0.7957747E-01            NaN
         13   -1    0    0    0    0  0.00000000000E+00  0.00000000000E+00  0.74505805969E-08  0.10566000000E+00  0.10566000000E+00 0. -1.
     999900   -1    0    0    0    0 -0.00000000000E+00 -0.00000000000E+00 -0.74505805969E-08  0.93827000000E+00  0.93827000000E+00 0.  1.
     999902    2    1    2    0    0  0.54197292397E-02  0.29417832450E-02 -0.14087120937E-01  0.10285522716E+01  0.10284373102E+01 0.  0.
     999903    2    3    3    0    0 -0.12713389150E+00  0.33028660391E-02 -0.49258499970E-01  0.13793023133E+00  0.20601301054E-01 0.  0.
         14    1    1    2    0    0 -0.54197292397E-02 -0.29417832450E-02  0.14087120937E-01  0.15377728376E-01  0.00000000000E+00 0. -1.
     999901    1    3    3    0    0  0.13255362074E+00 -0.36108279414E-03  0.35171379032E-01  0.89062204029E+00  0.88000000000E+00 0. -1.
        -11    1    4    4    0    0 -0.96854438633E-01 -0.25764626599E-02 -0.29441768843E-01  0.10126450176E+00  0.51100000000E-03 0.  1.
         11    1    4    4    0    0 -0.30279452863E-01  0.58793286990E-02 -0.19816731127E-01  0.36665729574E-01  0.51100000000E-03 0. -1.
</event>
<event>
 8    1  0.1076043E+005  0.1043930E+01  0.7957747E-01            NaN
         13   -1    0    0    0    0  0.00000000000E+00  0.00000000000E+00  0.74505805969E-08  0.10566000000E+00  0.10566000000E+00 0. -1.
     999900   -1    0    0    0    0 -0.00000000000E+00 -0.00000000000E+00 -0.74505805969E-08  0.93827000000E+00  0.93827000000E+00 0.  1.
     999902    2    1    2    0    0 -0.23037270181E-01  0.57480563344E-02  0.34458267273E-02  0.10199377160E+01  0.10196554883E+01 0.  0.
     999903    2    3    3    0    0 -0.97864005198E-01  0.84857103335E-01  0.23825889507E-01  0.13299204206E+00  0.18469400099E-01 0.  0.
         14    1    1    2    0    0  0.23037270181E-01 -0.57480563344E-02 -0.34458267273E-02  0.23992283986E-01  0.00000000000E+00 0. -1.
     999901    1    3    3    0    0  0.74826735017E-01 -0.79109047001E-01 -0.20380062780E-01  0.88694567396E+00  0.88000000000E+00 0.  1.
        -11    1    4    4    0    0 -0.33220530046E-01  0.23547873156E-01 -0.16664402532E-03  0.40723394234E-01  0.51100000000E-03 0.  1.
         11    1    4    4    0    0 -0.64643475152E-01  0.61309230180E-01  0.23992533533E-01  0.92268647824E-01  0.51100000000E-03 0. -1.
</event>
<event>
 8    1  0.1076043E+005  0.1043930E+01  0.7957747E-01            NaN
         13   -1    0    0    0    0  0.00000000000E+00  0.00000000000E+00  0.74505805969E-08  0.10566000000E+00  0.10566000000E+00 0. -1.
     999900   -1    0    0    0    0 -0.00000000000E+00 -0.00000000000E+00 -0.74505805969E-08  0.93827000000E+00  0.93827000000E+00 0. -1.
     999902    2    1    2    0    0  0.12916208403E-01 -0.19447486809E-01  0.58633095341E-02  0.10198590303E+01  0.10195749262E+01 0.  0.
     999903    2    3    3    0    0 -0.27470009288E-01  0.11464536145E+00  0.47172013325E-01  0.12782856697E+00  0.14723565500E-01 0.  0.
         14    1    1    2    0    0 -0.12916208403E-01  0.19447486809E-01 -0.58633095341E-02  0.24070969682E-01  0.00000000000E+00 0.  1.
     999901    1    3    3    0    0  0.40386217692E-01 -0.13409284826E+00 -0.41308703791E-01  0.89203046335E+00  0.88000000000E+00 0. -1.
        -11    1    4    4    0    0 -0.10532859329E-01  0.72020659136E-01  0.32034381001E-01  0.79525965289E-01  0.51100000000E-03 0. -1.
         11    1    4    4    0    0 -0.16937149959E-01  0.42624702310E-01  0.15137632324E-01  0.48302601681E-01  0.51100000000E-03 0.  1.
</event>
<event>
 8    1  0.1217040E+005  0.1043930E+01  0.7957747E-01            NaN
         13   -1    0    0    0    0  0.00000000000E+00  0.00000000000E+00  0.74505805969E-08  0.10566000000E+00  0.10566000000E+00 0.  1.
     999900   -1    0    0    0    0 -0.00000000000E+00 -0.00000000000E+00 -0.74505805969E-08  0.93827000000E+00  0.93827000000E+00 0. -1.
     999902    2    1    2    0    0 -0.37687286993E-02  0.22481476702E-01 -0.65794599508E-02  0.10202042881E+01  0.10199283701E+01 0.  0.
     999903    2    3    3    0    0 -0.53011196623E-01  0.43674395588E-01 -0.11135375042E+00  0.13236893605E+00  0.20105663358E-01 0.  0.
         14    1    1    2    0    0  0.37687286993E-02 -0.22481476702E-01  0.65794599508E-02  0.23725711874E-01  0.00000000000E+00 0.  1.
     999901    1    3    3    0    0  0.49242467924E-01 -0.21192918886E-01  0.10477429047E+00  0.88783535208E+00  0.88000000000E+00 0.  1.
        -11    1    4    4    0    0 -0.33060251256E-01  0.18393703995E-01 -0.46425423482E-01  0.59890647235E-01  0.51100000000E-03 0. -1.
         11    1    4    4    0    0 -0.19950945367E-01  0.25280691592E-01 -0.64928326942E-01  0.72478288811E-01  0.51100000000E-03 0.  1.
</event>
<event>
 8    1  0.1076043E+005  0.1043930E+01  0.7957747E-01            NaN
         13   -1    0    0    0    0  0.00000000000E+00  0.00000000000E+00  0.74505805969E-08  0.10566000000E+00  0.10566000000E+00 0.  1.
     999900   -1    0    0    0    0 -0.00000000000E+00 -0.00000000000E+00 -0.74505805969E-08  0.93827000000E+00  0.93827000000E+00 0.  1.
     999902    2    1    2    0    0 -0.46481329301E-02 -0.67805914792E-02 -0.22491139759E-01  0.10199835404E+01  0.10197024025E+01 0.  0.
     999903    2    3    3    0    0  0.11986293768E+00 -0.20103513279E-01 -0.43956570211E-01  0.13085966169E+00  0.20513310771E-01 0.  0.
         14    1    1    2    0    0  0.46481329301E-02  0.67805914792E-02  0.22491139759E-01  0.23946459617E-01  0.00000000000E+00 0.  1.
     999901    1    3    3    0    0 -0.12451107061E+00  0.13322921800E-01  0.21465430452E-01  0.88912387869E+00  0.88000000000E+00 0. -1.
        -11    1    4    4    0    0  0.30208973287E-01 -0.53657923498E-02 -0.20880357233E-01  0.37116360729E-01  0.51100000000E-03 0. -1.
         11    1    4    4    0    0  0.89653964392E-01 -0.14737720929E-01 -0.23076212978E-01  0.93743300965E-01  0.51100000000E-03 0.  1.
</event>
<event>
 8    1  0.1076043E+005  0.1043930E+01  0.7957747E-01            NaN
         13   -1    0    0    0    0  0.00000000000E+00  0.00000000000E+00  0.74505805969E-08  0.10566000000E+00  0.10566000000E+00 0.  1.
     999900   -1    0    0    0    0 -0.00000000000E+00 -0.00000000000E+00 -0.74505805969E-08  0.93827000000E+00  0.93827000000E+00 0. -1.
     999902    2    1    2    0    0  0.16005482090E-01 -0.18050127399E-01  0.15630219499E-02  0.10197551041E+01  0.10194685119E+01 0.  0.
     999903    2    3    3    0    0  0.11603394521E+00  0.21983375173E-01 -0.53824551418E-01  0.13145551606E+00  0.20888397314E-01 0.  0.
         14    1    1    2    0    0 -0.16005482090E-01  0.18050127399E-01 -0.15630219499E-02  0.24174895939E-01  0.00000000000E+00 0. -1.
     999901    1    3    3    0    0 -0.10002846312E+00 -0.40033502572E-01  0.55387573368E-01  0.88829958800E+00  0.88000000000E+00 0. -1.
        -11    1    4    4    0    0  0.53328446863E-01  0.59172540167E-02 -0.14004769535E-01  0.55455674467E-01  0.51100000000E-03 0.  1.
         11    1    4    4    0    0  0.62705498345E-01  0.16066121156E-01 -0.39819781882E-01  0.75999841591E-01  0.51100000000E-03 0. -1.
</event>
<event>
 8    1  0.1076043E+005  0.1043930E+01  0.7957747E-01            NaN
         13   -1    0    0    0    0  0.00000000000E+00  0.00000000000E+00  0.74505805969E-08  0.10566000000E+00  0.10566000000E+00 0. -1.
     999900   -1    0    0    0    0 -0.00000000000E+00 -0.00000000000E+00 -0.74505805969E-08  0.93827000000E+00  0.93827000000E+00 0.  1.
     999902    2    1    2    0    0  0.63657517786E-02  0.16610883144E-01  0.15467317961E-01  0.10203570884E+01  0.10200847542E+01 0.  0.
     999903    2    3    3    0    0 -0.65422720094E-01 -0.48658686848E-01 -0.96560975172E-01  0.12796477565E+00  0.20078888695E-01 0.  0.
         14    1    1    2    0    0 -0.63657517786E-02 -0.16610883144E-01 -0.15467317961E-01  0.23572911560E-01  0.00000000000E+00 0.  1.
     999901    1    3    3    0    0  0.71788471872E-01  0.65269569992E-01  0.11202829313E+00  0.89239231279E+00  0.88000000000E+00 0. -1.
        -11    1    4    4    0    0 -0.35670308530E-01 -0.28555269550E-01 -0.38775893441E-01  0.59930003862E-01  0.51100000000E-03 0. -1.
         11    1    4    4    0    0 -0.29752411564E-01 -0.20103417298E-01 -0.57785081731E-01  0.68034771790E-01  0.51100000000E-03 0.  1.
</event>
<event>
 8    1  0.1076043E+005  0.1043930E+01  0.7957747E-01            NaN
         13   -1    0    0    0    0  0.00000000000E+00  0.00000000000E+00  0.74505805969E-08  0.10566000000E+00  0.10566000000E+00 0. -1.
     999900   -1    0    0    0    0 -0.00000000000E+00 -0.00000000000E+00 -0.74505805969E-08  0.93827000000E+00  0.93827000000E+00 0.  1.
     999902    2    1    2    0    0 -0.12687994847E-01  0.12716272925E-01 -0.14856739475E-01  0.10206188113E+01  0.10203525599E+01 0.  0.
     999903    2    3    3    0    0 -0.38012129946E-01 -0.12121347059E+00 -0.20122582933E-01  0.13010984610E+00  0.19647550270E-01 0.  0.
         14    1    1    2    0    0  0.12687994847E-01 -0.12716272925E-01  0.14856739475E-01  0.23311188691E-01  0.00000000000E+00 0. -1.
     999901    1    3    3    0    0  0.25324135099E-01  0.13392974352E+00  0.52658434575E-02  0.89050896521E+00  0.88000000000E+00 0. -1.
        -11    1    4    4    0    0 -0.12384801834E-01 -0.71634727100E-01 -0.99371765112E-02  0.73375241337E-01  0.51100000000E-03 0.  1.
         11    1    4    4    0    0 -0.25627328112E-01 -0.49578743491E-01 -0.10185406422E-01  0.56734604760E-01  0.51100000000E-03 0. -1.
</event>
<event>
 8    1  0.1076043E+005  0.1043930E+01  0.7957747E-01            NaN
         13   -1    0    0    0    0  0.00000000000E+00  0.00000000000E+00  0.74505805969E-08  0.10566000000E+00  0.10566000000E+00 0.  1.
     999900   -1    0    0    0    0 -0.00000000000E+00 -0.00000000000E+00 -0.74505805969E-08  0.93827000000E+00  0.93827000000E+00 0. -1.
     999902    2    1    2    0    0  0.15773725288E-02 -0.57456953942E-03  0.23991933414E-01  0.10198794053E+01  0.10195957877E+01 0.  0.
     999903    2    3    3    0    0  0.12349015942E+00 -0.34350961094E-01 -0.10426018269E-01  0.13016699809E+00  0.20123059685E-01 0.  0.
         14    1    1    2    0    0 -0.15773725288E-02  0.57456953942E-03 -0.23991933414E-01  0.24050594653E-01  0.00000000000E+00 0. -1.
     999901    1    3    3    0    0 -0.12191278690E+00  0.33776391555E-01  0.34417951683E-01  0.88971240726E+00  0.88000000000E+00 0. -1.
        -11    1    4    4    0    0  0.95113758985E-01 -0.18274488683E-01 -0.11474854327E-01  0.97532135666E-01  0.51100000000E-03 0.  1.
         11    1    4    4    0    0  0.28376400440E-01 -0.16076472411E-01  0.10488360573E-02  0.32634862420E-01  0.51100000000E-03 0. -1.
</event>
<event>
 8    1  0.1076043E+005  0.1043930E+01  0.7957747E-01            NaN
         13   -1    0    0    0    0  0.00000000000E+00  0.00000000000E+00  0.74505805969E-08  0.10566000000E+00  0.10566000000E+00 0. -1.
     999900   -1    0    0    0    0 -0.00000000000E+00 -0.00000000000E+00 -0.74505805969E-08  0.93827000000E+00  0.93827000000E+00 0.  1.
     999902    2    1    2    0    0  0.16629261003E-01 -0.17747985906E-01  0.42798683411E-02  0.10192350491E+01  0.10189358394E+01 0.  0.
     999903    2    3    3    0    0  0.10180080805E+00 -0.70798430356E-01 -0.41772109228E-01  0.13233633636E+00  0.19803397496E-01 0.  0.
         14    1    1    2    0    0 -0.16629261003E-01  0.17747985906E-01 -0.42798683411E-02  0.24694950866E-01  0.00000000000E+00 0. -1.
     999901    1    3    3    0    0 -0.85171547042E-01  0.53050444450E-01  0.46051977569E-01  0.88689871277E+00  0.88000000000E+00 0. -1.
        -11    1    4    4    0    0  0.81126291209E-01 -0.49924363321E-01 -0.38598323961E-01  0.10278136461E+00  0.51100000000E-03 0. -1.
         11    1    4    4    0    0  0.20674516837E-01 -0.20874067035E-01 -0.31737852665E-02  0.29554971747E-01  0.51100000000E-03 0.  1.
</event>
<event>
 8    1  0.1076043E+005  0.1043930E+01  0.7957747E-01            NaN
         13   -1    0    0    0    0  0.00000000000E+00  0.00000000000E+00  0.74505805969E-08  0.10566000000E+00  0.10566000000E+00 0. -1.
     999900   -1    0    0    0    0 -0.00000000000E+00 -0.00000000000E+00 -0.74505805969E-08  0.93827000000E+00  0.93827000000E+00 0.  1.
     999902    2    1    2    0    0  0.22308638280E-01  0.18029825888E-03 -0.11627253064E-01  0.10187724790E+01  0.10184618123E+01 0.  0.
     999903    2    3    3    0    0 -0.69696332459E-01  0.90117203335E-01  0.52272106122E-01  0.12712417970E+00  0.21201294538E-01 0.  0.
         14    1    1    2    0    0 -0.22308638280E-01 -0.18029825888E-03  0.11627253064E-01  0.25157521006E-01  0.00000000000E+00 0. -1.
     999901    1    3    3    0    0  0.92004970739E-01 -0.89936905076E-01 -0.63899359185E-01  0.89164829930E+00  0.88000000000E+00 0.  1.
        -11    1    4    4    0    0 -0.23881884727E-01  0.32152115990E-01  0.29708616081E-01  0.49869489382E-01  0.51100000000E-03 0.  1.
         11    1    4    4    0    0 -0.45814447732E-01  0.57965087345E-01  0.22563490041E-01  0.77254690315E-01  0.51100000000E-03 0. -1.
</event>
<event>
 8    1  0.1076043E+005  0.1043930E+01  0.7957747E-01            NaN
         13   -1    0    0    0    0  0.00000000000E+00  0.00000000000E+00  0.74505805969E-08  0.10566000000E+00  0.10566000000E+00 0. -1.
     999900   -1    0    0    0    0 -0.00000000000E+00 -0.00000000000E+00 -0.74505805969E-08  0.93827000000E+00  0.93827000000E+00 0. -1.
     999902    2    1    2    0    0 -0.49238983343E-02 -0.32268309387E-02 -0.21504588686E-01  0.10216341585E+01  0.10213908406E+01 0.  0.
     999903    2    3    3    0    0  0.84568364033E-01  0.96284749406E-01 -0.22188560532E-01  0.13151512858E+00  0.19527817681E-01 0.  0.
         14    1    1    2    0    0  0.49238983343E-02  0.32268309387E-02  0.21504588686E-01  0.22295841479E-01  0.00000000000E+00 0. -1.
     999901    1    3    3    0    0 -0.89492262367E-01 -0.99511580344E-01  0.68397184631E-03  0.89011902994E+00  0.88000000000E+00 0.  1.
        -11    1    4    4    0    0  0.12983460154E-01  0.26752364277E-01 -0.71881414016E-02  0.30597217681E-01  0.51100000000E-03 0.  1.
         11    1    4    4    0    0  0.71584903879E-01  0.69532385128E-01 -0.15000419131E-01  0.10091791090E+00  0.51100000000E-03 0. -1.
</event>
<event>
 8    1  0.1438656E+005  0.1043930E+01  0.7957747E-01            NaN
         13   -1    0    0    0    0  0.00000000000E+00  0.00000000000E+00  0.74505805969E-08  0.10566000000E+00  0.10566000000E+00 0. -1.
     999900   -1    0    0    0    0 -0.00000000000E+00 -0.00000000000E+00 -0.74505805969E-08  0.93827000000E+00  0.93827000000E+00 0.  1.
     999902    2    1    2    0    0  0.15583923781E-01 -0.31766300182E-02 -0.17726929297E-01  0.10201141716E+01  0.10198361287E+01 0.  0.
     999903    2    3    3    0    0 -0.12483497808E+00  0.21791131248E-01 -0.70258906262E-02  0.12856755516E+00  0.20533581003E-01 0.  0.
         14    1    1    2    0    0 -0.15583923781E-01  0.31766300182E-02  0.17726929297E-01  0.23815828371E-01  0.00000000000E+00 0. -1.
     999901    1    3    3    0    0  0.14041890186E+00 -0.24967761266E-01 -0.10701038671E-01  0.89154661647E+00  0.88000000000E+00 0. -1.
        -11    1    4    4    0    0 -0.32960779995E-01 -0.27943619803E-02 -0.48323745214E-02  0.33434031185E-01  0.51100000000E-03 0.  1.
         11    1    4    4    0    0 -0.91874198084E-01  0.24585493228E-01 -0.21935161048E-02  0.95133523979E-01  0.51100000000E-03 0. -1.
</event>
<event>
 8    1  0.1076043E+005  0.1043930E+01  0.7957747E-01            NaN
         13   -1    0    0    0    0  0.00000000000E+00  0.00000000000E+00  0.74505805969E-08  0.10566000000E+00  0.10566000000E+00 0. -1.
     999900   -1    0    0    0    0 -0.00000000000E+00 -0.00000000000E+00 -0.74505805969E-08  0.93827000000E+00  0.93827000000E+00 0.  1.
     999902    2    1    2    0    0  0.18243190066E-01 -0.16567010641E-01  0.52823085236E-02  0.10187271706E+01  0.10184153699E+01 0.  0.
     999903    2    3    3    0    0 -0.24775970354E-01  0.12154802102E+00  0.16656501550E-01  0.12684389216E+00  0.20595237640E-01 0.  0.
         14    1    1    2    0    0 -0.18243190066E-01  0.16567010641E-01 -0.52823085236E-02  0.25202829379E-01  0.00000000000E+00 0. -1.
     999901    1    3    3    0    0  0.43019160420E-01 -0.13811503166E+00 -0.11374193026E-01  0.89188327846E+00  0.88000000000E+00 0. -1.
        -11    1    4    4    0    0 -0.63890005202E-02  0.81136998152E-02  0.45340339180E-02  0.11290262925E-01  0.51100000000E-03 0.  1.
         11    1    4    4    0    0 -0.18386969834E-01  0.11343432120E+00  0.12122467632E-01  0.11555362923E+00  0.51100000000E-03 0. -1.
</event>
<event>
 8    1  0.1076043E+005  0.1043930E+01  0.7957747E-01            NaN
         13   -1    0    0    0    0  0.00000000000E+00  0.00000000000E+00  0.74505805969E-08  0.10566000000E+00  0.10566000000E+00 0.  1.
     999900   -1    0    0    0    0 -0.00000000000E+00 -0.00000000000E+00 -0.74505805969E-08  0.93827000000E+00  0.93827000000E+00 0.  1.
     999902    2    1    2    0    0 -0.23639274908E-01  0.15402082640E-02  0.13455194614E-02  0.10202024215E+01  0.10199264595E+01 0.  0.
     999903    2    3    3    0    0 -0.11749227943E+00  0.59580238057E-01 -0.23829173720E-02  0.13330280329E+00  0.20241506303E-01 0.  0.
         14    1    1    2    0    0  0.23639274908E-01 -0.15402082640E-02 -0.13455194614E-02  0.23727578517E-01  0.00000000000E+00 0. -1.
     999901    1    3    3    0    0  0.93853004517E-01 -0.58040029793E-01  0.37284368334E-02  0.88689961820E+00  0.88000000000E+00 0.  1.
        -11    1    4    4    0    0 -0.48046403920E-01  0.34049337697E-01  0.40642259564E-02  0.59030444525E-01  0.51100000000E-03 0. -1.
         11    1    4    4    0    0 -0.69445875505E-01  0.25530900360E-01 -0.64471433284E-02  0.74272358761E-01  0.51100000000E-03 0.  1.
</event>
<event>
 8    1  0.1076043E+005  0.1043930E+01  0.7957747E-01            NaN
         13   -1    0    0    0    0  0.00000000000E+00  0.00000000000E+00  0.74505805969E-08  0.10566000000E+00  0.10566000000E+00 0. -1.
     999900   -1    0    0    0    0 -0.00000000000E+00 -0.00000000000E+00 -0.74505805969E-08  0.93827000000E+00  0.93827000000E+00 0. -1.
     999902    2    1    2    0    0 -0.58813611711E-02 -0.90250675875E-02 -0.20613965743E-01  0.10206710697E+01  0.10204060244E+01 0.  0.
     999903    2    3    3    0    0 -0.71173230052E-01  0.66695763471E-01  0.82158772354E-01  0.12906638821E+00  0.19852333591E-01 0.  0.
         14    1    1    2    0    0  0.58813611711E-02  0.90250675875E-02  0.20613965743E-01  0.23258930281E-01  0.00000000000E+00 0. -1.
     999901    1    3    3    0    0  0.65291868880E-01 -0.75720831059E-01 -0.10277273810E+00  0.89160468151E+00  0.88000000000E+00 0. -1.
        -11    1    4    4    0    0 -0.65890921071E-02  0.44496570946E-02  0.15095223257E-01  0.17068757108E-01  0.51100000000E-03 0. -1.
         11    1    4    4    0    0 -0.64584137945E-01  0.62246106376E-01  0.67063549097E-01  0.11199763110E+00  0.51100000000E-03 0.  1.
</event>
<event>
 8    1  0.1076043E+005  0.1043930E+01  0.7957747E-01            NaN
         13   -1    0    0    0    0  0.00000000000E+00  0.00000000000E+00  0.74505805969E-08  0.10566000000E+00  0.10566000000E+00 0.  1.
     999900   -1    0    0    0    0 -0.00000000000E+00 -0.00000000000E+00 -0.74505805969E-08  0.93827000000E+00  0.93827000000E+00 0. -1.
     999902    2    1    2    0    0 -0.25077728326E-01 -0.38101259089E-02 -0.61676571880E-02  0.10178254120E+01  0.10174905994E+01 0.  0.
     999903    2    3    3    0    0  0.44167550230E-01 -0.11196365740E+00 -0.38384208990E-01  0.12792092212E+00  0.20094321169E-01 0.  0.
         14    1    1    2    0    0  0.25077728326E-01  0.38101259089E-02  0.61676571880E-02  0.26104587961E-01  0.00000000000E+00 0.  1.
     999901    1    3    3    0    0 -0.69245278556E-01  0.10815353149E+00  0.32216551802E-01  0.88990448992E+00  0.88000000000E+00 0. -1.
        -11    1    4    4    0    0  0.89303567377E-02 -0.25908317723E-01 -0.23983855791E-03  0.27410050023E-01  0.51100000000E-03 0.  1.
         11    1    4    4    0    0  0.35237193493E-01 -0.86055339677E-01 -0.38144370432E-01  0.10051087209E+00  0.51100000000E-03 0. -1.
</event>
<event>
 8    1  0.1076043E+005  0.1043930E+01  0.7957747E-01            NaN
         13   -1    0    0    0    0  0.00000000000E+00  0.00000000000E+00  0.74505805969E-08  0.10566000000E+00  0.10566000000E+00 0.  1.
     999900   -1    0    0    0    0 -0.00000000000E+00 -0.00000000000E+00 -0.74505805969E-08  0.93827000000E+00  0.93827000000E+00 0. -1.
     999902    2    1    2    0    0 -0.15727524007E-01  0.89277788486E-02 -0.14359474583E-01  0.10208376905E+01  0.10205764722E+01 0.  0.
     999903    2    3    3    0    0  0.12056878532E+00  0.26811506572E-01  0.30859872549E-01  0.12901859396E+00  0.20923120576E-01 0.  0.
         14    1    1    2    0    0  0.15727524007E-01 -0.89277788486E-02  0.14359474583E-01  0.23092309474E-01  0.00000000000E+00 0.  1.
     999901    1    3    3    0    0 -0.13629630932E+00 -0.17883727723E-01 -0.45219347132E-01  0.89181909657E+00  0.88000000000E+00 0.  1.
        -11    1    4    4    0    0  0.14440777509E-01  0.57610868862E-02  0.10903856615E-01  0.18996878356E-01  0.51100000000E-03 0. -1.
         11    1    4    4    0    0  0.10612800781E+00  0.21050419686E-01  0.19956015934E-01  0.11002171560E+00  0.51100000000E-03 0.  1.
</event>
<event>
 8    1  0.1076043E+005  0.1043930E+01  0.7957747E-01            NaN
         13   -1    0    0    0    0  0.00000000000E+00  0.00000000000E+00  0.74505805969E-08  0.10566000000E+00  0.10566000000E+00 0.  1.
     999900   -1    0    0    0    0 -0.00000000000E+00 -0.00000000000E+00 -0.74505805969E-08  0.93827000000E+00  0.93827000000E+00 0.  1.
     999902    2    1    2    0    0  0.13848719225E-01  0.13889320933E-01 -0.14466397358E-01  0.10195583584E+01  0.10192670255E+01 0.  0.
     999903    2    3    3    0    0 -0.78503825612E-01 -0.54139049930E-01 -0.85038279997E-01  0.12931275053E+00  0.19909571078E-01 0.  0.
         14    1    1    2    0    0 -0.13848719225E-01 -0.13889320933E-01  0.14466397358E-01  0.24371641567E-01  0.00000000000E+00 0.  1.
     999901    1    3    3    0    0  0.92352544837E-01  0.68028370863E-01  0.70571882638E-01  0.89024560791E+00  0.88000000000E+00 0. -1.
        -11    1    4    4    0    0 -0.25975109526E-01 -0.15244960216E-01 -0.39390775665E-01  0.49588400412E-01  0.51100000000E-03 0.  1.
         11    1    4    4    0    0 -0.52528716086E-01 -0.38894089714E-01 -0.45647504332E-01  0.79724350113E-01  0.51100000000E-03 0. -1.
</event>
<event>
 8    1  0.1076043E+005  0.1043930E+01  0.7957747E-01            NaN
         13   -1    0    0    0    0  0.00000000000E+00  0.00000000000E+00  0.74505805969E-08  0.10566000000E+00  0.10566000000E+00 0.  1.
     999900   -1    0    0    0    0 -0.00000000000E+00 -0.00000000000E+00 -0.74505805969E-08  0.93827000000E+00  0.93827000000E+00 0. -1.
     999902    2    1    2    0    0 -0.41013825693E-02  0.18010259918E-01  0.14781396341E-01  0.10202724329E+01  0.10199981161E+01 0.  0.
     999903    2    3    3    0    0 -0.10897294310E+00 -0.45884752832E-01  0.52434561575E-01  0.13094775786E+00  0.20430838732E-01 0.  0.
         14    1    1    2    0    0  0.41013825693E-02 -0.18010259918E-01 -0.14781396341E-01  0.23657567057E-01  0.00000000000E+00 0.  1.
     999901    1    3    3    0    0  0.10487156053E+00  0.63895012750E-01 -0.37653165235E-01  0.88932467508E+00  0.88000000000E+00 0. -1.
        -11    1    4    4    0    0 -0.76423854580E-01 -0.28041037748E-01  0.45242862503E-01  0.93134757611E-01  0.51100000000E-03 0.  1.
         11    1    4    4    0    0 -0.32549088515E-01 -0.17843715083E-01  0.71916990727E-02  0.37813000247E-01  0.51100000000E-03 0. -1.
</event>
<event>
 8    1  0.1076043E+005  0.1043930E+01  0.7957747E-01            NaN
         13   -1    0    0    0    0  0.00000000000E+00  0.00000000000E+00  0.74505805969E-08  0.10566000000E+00  0.10566000000E+00 0. -1.
     999900   -1    0    0    0    0 -0.00000000000E+00 -0.00000000000E+00 -0.74505805969E-08  0.93827000000E+00  0.93827000000E+00 0. -1.
     999902    2    1    2    0    0  0.19442554276E-02  0.19363654026E-01  0.52622734846E-02  0.10237700707E+01  0.10235715583E+01 0.  0.
     999903    2    3    3    0    0 -0.31326608745E-02 -0.43167829844E-01  0.12436234807E+00  0.13353370361E+00  0.22180651166E-01 0.  0.
         14    1    1    2    0    0 -0.19442554276E-02 -0.19363654026E-01 -0.52622734846E-02  0.20159929281E-01  0.00000000000E+00 0.  1.
     999901    1    3    3    0    0  0.50769163021E-02  0.62531483870E-01 -0.11910007458E+00  0.89023636711E+00  0.88000000000E+00 0. -1.
        -11    1    4    4    0    0  0.19275012930E-02 -0.39684910628E-01  0.86718526385E-01  0.95388528305E-01  0.51100000000E-03 0.  1.
         11    1    4    4    0    0 -0.50601621675E-02 -0.34829192161E-02  0.37643821681E-01  0.38145175307E-01  0.51100000000E-03 0. -1.
</event>
<event>
 8    1  0.1076043E+005  0.1043930E+01  0.7957747E-01            NaN
         13   -1    0    0    0    0  0.00000000000E+00  0.00000000000E+00  0.74505805969E-08  0.10566000000E+00  0.10566000000E+00 0. -1.
     999900   -1    0    0    0    0 -0.00000000000E+00 -0.00000000000E+00 -0.74505805969E-08  0.93827000000E+00  0.93827000000E+00 0. -1.
     999902    2    1    2    0    0  0.15297866699E-01 -0.18549271985E-01  0.77909443507E-03  0.10198736660E+01  0.10195899114E+01 0.  0.
     999903    2    3    3    0    0 -0.29576510242E-01  0.14976128931E-01 -0.12342777980E+00  0.12938783804E+00  0.20192607841E-01 0.  0.
         14    1    1    2    0    0 -0.15297866699E-01  0.18549271985E-01 -0.77909443507E-03  0.24056333986E-01  0.00000000000E+00 0.  1.
     999901    1    3    3    0    0  0.44874376941E-01 -0.33525400916E-01  0.12420687423E+00  0.89048582797E+00  0.88000000000E+00 0.  1.
        -11    1    4    4    0    0 -0.64052255608E-02  0.94891335228E-02 -0.69446024224E-01  0.70385239724E-01  0.51100000000E-03 0. -1.
         11    1    4    4    0    0 -0.23171284681E-01  0.54869954082E-02 -0.53981755574E-01  0.59002598318E-01  0.51100000000E-03 0.  1.
</event>
<event>
 8    1  0.1076043E+005  0.1043930E+01  0.7957747E-01            NaN
         13   -1    0    0    0    0  0.00000000000E+00  0.00000000000E+00  0.74505805969E-08  0.10566000000E+00  0.10566000000E+00 0.  1.
     999900   -1    0    0    0    0 -0.00000000000E+00 -0.00000000000E+00 -0.74505805969E-08  0.93827000000E+00  0.93827000000E+00 0.  1.
     999902    2    1    2    0    0 -0.30144440851E-02  0.52076063302E-02  0.23403269377E-01  0.10197655829E+01  0.10194792421E+01 0.  0.
     999903    2    3    3    0    0 -0.16640101114E-01  0.12531622740E+00 -0.24604277449E-01  0.13020588060E+00  0.19161186278E-01 0.  0.
         14    1    1    2    0    0  0.30144440851E-02 -0.52076063302E-02 -0.23403269377E-01  0.24164417112E-01  0.00000000000E+00 0. -1.
     999901    1    3    3    0    0  0.13625657029E-01 -0.12010862107E+00  0.48007546826E-01  0.88955970229E+00  0.88000000000E+00 0.  1.
        -11    1    4    4    0    0 -0.67059133232E-02  0.10067065130E+00 -0.23553472601E-01  0.10360780135E+00  0.51100000000E-03 0.  1.
         11    1    4    4    0    0 -0.99341877912E-02  0.24645576094E-01 -0.10508048479E-02  0.26598079252E-01  0.51100000000E-03 0. -1.
</event>
<event>
 8    1  0.1076043E+005  0.1043930E+01  0.7957747E-01            NaN
         13   -1    0    0    0    0  0.00000000000E+00  0.00000000000E+00  0.74505805969E-08  0.10566000000E+00  0.10566000000E+00 0. -1.
     999900   -1    0    0    0    0 -0.00000000000E+00 -0.00000000000E+00 -0.74505805969E-08  0.93827000000E+00  0.93827000000E+00 0. -1.
     999902    2    1    2    0    0  0.19689307505E-01  0.99279756683E-02  0.96938264132E-02  0.10198425800E+01  0.10195580828E+01 0.  0.
     999903    2    3    3    0    0  0.81200169973E-01 -0.95313462500E-01  0.35967605927E-01  0.13105145832E+00  0.14237005141E-01 0.  0.
         14    1    1    2    0    0 -0.19689307505E-01 -0.99279756683E-02 -0.96938264132E-02  0.24087419983E-01  0.00000000000E+00 0.  1.
     999901    1    3    3    0    0 -0.61510862468E-01  0.10524143817E+00 -0.26273779514E-01  0.88879112169E+00  0.88000000000E+00 0. -1.
        -11    1    4    4    0    0  0.19524630702E-01 -0.15088747589E-01  0.45828481584E-02  0.25102691611E-01  0.51100000000E-03 0.  1.
         11    1    4    4    0    0  0.61675539271E-01 -0.80224714911E-01  0.31384757769E-01  0.10594876671E+00  0.51100000000E-03 0. -1.
</event>
<event>
 8    1  0.1076043E+005  0.1043930E+01  0.7957747E-01            NaN
         13   -1    0    0    0    0  0.00000000000E+00  0.00000000000E+00  0.74505805969E-08  0.10566000000E+00  0.10566000000E+00 0. -1.
     999900   -1    0    0    0    0 -0.00000000000E+00 -0.00000000000E+00 -0.74505805969E-08  0.93827000000E+00  0.93827000000E+00 0. -1.
     999902    2    1    2    0    0  0.11130699171E-01  0.16977180411E-01  0.13132062029E-01  0.10197521554E+01  0.10194654924E+01 0.  0.
     999903    2    3    3    0    0 -0.80398725991E-01 -0.49256863771E-02  0.10058563536E+00  0.13042347667E+00  0.20114564295E-01 0.  0.
         14    1    1    2    0    0 -0.11130699171E-01 -0.16977180411E-01 -0.13132062029E-01  0.24177844649E-01  0.00000000000E+00 0.  1.
     999901    1    3    3    0    0  0.91529425163E-01  0.21902866788E-01 -0.87453573334E-01  0.88932867869E+00  0.88000000000E+00 0. -1.
        -11    1    4    4    0    0 -0.65141560742E-01 -0.48388066171E-02  0.92231898664E-01  0.11302133090E+00  0.51100000000E-03 0.  1.
         11    1    4    4    0    0 -0.15257165249E-01 -0.86879760009E-04  0.83537366992E-02  0.17402145769E-01  0.51100000000E-03 0. -1.
</event>
<event>
 8    1  0.1076043E+005  0.1043930E+01  0.7957747E-01            NaN
         13   -1    0    0    0    0  0.00000000000E+00  0.00000000000E+00  0.74505805969E-08  0.10566000000E+00  0.10566000000E+00 0.  1.
     999900   -1    0    0    0    0 -0.00000000000E+00 -0.00000000000E+00 -0.74505805969E-08  0.93827000000E+00  0.93827000000E+00 0. -1.
     999902    2    1    2    0    0  0.30024396576E-02 -0.23265338799E-01 -0.37623311736E-02  0.10201719325E+01  0.10198952526E+01 0.  0.
     999903    2    3    3    0    0 -0.81219281664E-01  0.53267109700E-01 -0.83168764698E-01  0.12929826266E+00  0.19158304068E-01 0.  0.
         14    1    1    2    0    0 -0.30024396576E-02  0.23265338799E-01  0.37623311736E-02  0.23758067454E-01  0.00000000000E+00 0.  1.
     999901    1    3    3    0    0  0.84221721322E-01 -0.76532448499E-01  0.79406433525E-01  0.89087366989E+00  0.88000000000E+00 0.  1.
        -11    1    4    4    0    0 -0.61262543701E-01  0.38250694733E-01 -0.50302067288E-01  0.88015759968E-01  0.51100000000E-03 0.  1.
         11    1    4    4    0    0 -0.19956737963E-01  0.15016414968E-01 -0.32866697410E-01  0.41282502689E-01  0.51100000000E-03 0. -1.
</event>
<event>
 8    1  0.1282411E+005  0.1043930E+01  0.7957747E-01            NaN
         13   -1    0    0    0    0  0.00000000000E+00  0.00000000000E+00  0.74505805969E-08  0.10566000000E+00  0.10566000000E+00 0. -1.
     999900   -1    0    0    0    0 -0.00000000000E+00 -0.00000000000E+00 -0.74505805969E-08  0.93827000000E+00  0.93827000000E+00 0.  1.
     999902    2    1    2    0    0  0.63033019414E-03  0.21342641913E-01  0.11727718232E-01  0.10195692723E+01  0.10192782034E+01 0.  0.
     999903    2    3    3    0    0 -0.11659634128E-01 -0.76482270335E-01  0.10204206786E+00  0.12946959336E+00  0.19086834400E-01 0.  0.
         14    1    1    2    0    0 -0.63033019414E-03 -0.21342641913E-01 -0.11727718232E-01  0.24360727717E-01  0.00000000000E+00 0.  1.
     999901    1    3    3    0    0  0.12289964322E-01  0.97824912248E-01 -0.90314349625E-01  0.89009967893E+00  0.88000000000E+00 0.  1.
        -11    1    4    4    0    0 -0.14528328808E-01 -0.53945391851E-01  0.62243417444E-01  0.83640192348E-01  0.51100000000E-03 0. -1.
         11    1    4    4    0    0  0.28686946798E-02 -0.22536878484E-01  0.39798650413E-01  0.45829401007E-01  0.51100000000E-03 0.  1.
</event>
<event>
 8    1  0.1076043E+005  0.1043930E+01  0.7957747E-01            NaN
         13   -1    0    0    0    0  0.00000000000E+00  0.00000000000E+00  0.74505805969E-08  0.10566000000E+00  0.10566000000E+00 0. -1.
     999900   -1    0    0    0    0 -0.00000000000E+00 -0.00000000000E+00 -0.74505805969E-08  0.93827000000E+00  0.93827000000E+00 0.  1.
     999902    2    1    2    0    0  0.17885226284E-01  0.15638978187E-01 -0.35013542507E-02  0.10199150372E+01  0.10196322693E+01 0.  0.
     999903    2    3    3    0    0  0.12710613127E+00  0.49417911877E-02  0.30518903447E-01  0.13244615669E+00  0.20741047367E-01 0.  0.
         14    1    1    2    0    0 -0.17885226284E-01 -0.15638978187E-01  0.35013542507E-02  0.24014962827E-01  0.00000000000E+00 0.  1.
     999901    1    3    3    0    0 -0.10922090499E+00  0.10697187000E-01 -0.34020257697E-01  0.88746888049E+00  0.88000000000E+00 0. -1.
        -11    1    4    4    0    0  0.19661254008E-01 -0.66681145243E-02  0.61846465988E-02  0.21668863261E-01  0.51100000000E-03 0.  1.
         11    1    4    4    0    0  0.10744487727E+00  0.11609905712E-01  0.24334256848E-01  0.11077729343E+00  0.51100000000E-03 0. -1.
</event>
<event>
 8    1  0.1076043E+005  0.1043930E+01  0.7957747E-01            NaN
         13   -1    0    0    0    0  0.00000000000E+00  0.00000000000E+00  0.74505805969E-08  0.10566000000E+00  0.10566000000E+00 0. -1.
     999900   -1    0    0    0    0 -0.00000000000E+00 -0.00000000000E+00 -0.74505805969E-08  0.93827000000E+00  0.93827000000E+00 0. -1.
     999902    2    1    2    0    0  0.53717092023E-03  0.14821458883E-01  0.17987184986E-01  0.10206168488E+01  0.10203505520E+01 0.  0.
     999903    2    3    3    0    0  0.20246480686E-01  0.12039035239E+00  0.50489499240E-01  0.13349247836E+00  0.19164950169E-01 0.  0.
         14    1    1    2    0    0 -0.53717092023E-03 -0.14821458883E-01 -0.17987184986E-01  0.23313151218E-01  0.00000000000E+00 0.  1.
     999901    1    3    3    0    0 -0.19709309766E-01 -0.10556889351E+00 -0.32502314254E-01  0.88712437042E+00  0.88000000000E+00 0. -1.
        -11    1    4    4    0    0  0.13281343035E-01  0.28909975179E-01  0.12237696421E-01  0.34091099606E-01  0.51100000000E-03 0.  1.
         11    1    4    4    0    0  0.69651376508E-02  0.91480377214E-01  0.38251802819E-01  0.99401378751E-01  0.51100000000E-03 0. -1.
</event>
<event>
 8    1  0.1076043E+005  0.1043930E+01  0.7957747E-01            NaN
         13   -1    0    0    0    0  0.00000000000E+00  0.00000000000E+00  0.74505805969E-08  0.10566000000E+00  0.10566000000E+00 0.  1.
     999900   -1    0    0    0    0 -0.00000000000E+00 -0.00000000000E+00 -0.74505805969E-08  0.93827000000E+00  0.93827000000E+00 0. -1.
     999902    2    1    2    0    0  0.77886601135E-02 -0.10078928411E-01 -0.18882497092E-01  0.10211528904E+01  0.10208988338E+01 0.  0.
     999903    2    3    3    0    0  0.96168893891E-01  0.12197876236E-01 -0.89830944106E-01  0.13360514304E+00  0.19582936225E-01 0.  0.
         14    1    1    2    0    0 -0.77886601135E-02  0.10078928411E-01  0.18882497092E-01  0.22777109577E-01  0.00000000000E+00 0.  1.
     999901    1    3    3    0    0 -0.88380233778E-01 -0.22276804647E-01  0.70948447014E-01  0.88754774738E+00  0.88000000000E+00 0.  1.
        -11    1    4    4    0    0  0.34674187501E-01  0.90556957014E-02 -0.22286032359E-01  0.42204659254E-01  0.51100000000E-03 0. -1.
         11    1    4    4    0    0  0.61494706391E-01  0.31421805351E-02 -0.67544911747E-01  0.91400483788E-01  0.51100000000E-03 0.  1.
</event>
<event>
 8    1  0.1076043E+005  0.1043930E+01  0.7957747E-01            NaN
         13   -1    0    0    0    0  0.00000000000E+00  0.00000000000E+00  0.74505805969E-08  0.10566000000E+00  0.10566000000E+00 0. -1.
     999900   -1    0    0    0    0 -0.00000000000E+00 -0.00000000000E+00 -0.74505805969E-08  0.93827000000E+00  0.93827000000E+00 0.  1.
     999902    2    1    2    0    0 -0.64103348146E-02 -0.18548091117E-01  0.13224553642E-01  0.10202654084E+01  0.10199909268E+01 0.  0.
     999903    2    3    3    0    0 -0.82383344497E-01  0.32831892642E-01  0.95450256487E-01  0.13168628016E+00  0.19120049550E-01 0.  0.
         14    1    1    2    0    0  0.64103348146E-02  0.18548091117E-01 -0.13224553642E-01  0.23664591599E-01  0.00000000000E+00 0.  1.
     999901    1    3    3    0    0  0.75973009682E-01 -0.51379983760E-01 -0.82225702845E-01  0.88857912824E+00  0.88000000000E+00 0. -1.
        -11    1    4    4    0    0 -0.72967691669E-01  0.23876755027E-01  0.74195925677E-01  0.10676928381E+00  0.51100000000E-03 0. -1.
         11    1    4    4    0    0 -0.94156528282E-02  0.89551376150E-02  0.21254330810E-01  0.24916996349E-01  0.51100000000E-03 0.  1.
</event>
<event>
 8    1  0.1076043E+005  0.1043930E+01  0.7957747E-01            NaN
         13   -1    0    0    0    0  0.00000000000E+00  0.00000000000E+00  0.74505805969E-08  0.10566000000E+00  0.10566000000E+00 0.  1.
     999900   -1    0    0    0    0 -0.00000000000E+00 -0.00000000000E+00 -0.74505805969E-08  0.93827000000E+00  0.93827000000E+00 0. -1.
     999902    2    1    2    0    0  0.14906412292E-02 -0.26994667710E-02 -0.18187615181E-01  0.10254828192E+01  0.10253168847E+01 0.  0.
     999903    2    3    3    0    0 -0.12404035438E+00  0.46357409410E-01 -0.19557530173E-01  0.13522078780E+00  0.19161042353E-01 0.  0.
         14    1    1    2    0    0 -0.14906412292E-02  0.26994667710E-02  0.18187615181E-01  0.18447180763E-01  0.00000000000E+00 0.  1.
     999901    1    3    3    0    0  0.12553099561E+00 -0.49056876181E-01  0.13699149916E-02  0.89026203144E+00  0.88000000000E+00 0. -1.
        -11    1    4    4    0    0 -0.10378532939E+00  0.32659752519E-01 -0.20619428468E-01  0.11074057965E+00  0.51100000000E-03 0.  1.
         11    1    4    4    0    0 -0.20255024992E-01  0.13697656890E-01  0.10618982957E-02  0.24480208143E-01  0.51100000000E-03 0. -1.
</event>
<event>
 8    1  0.1076043E+005  0.1043930E+01  0.7957747E-01            NaN
         13   -1    0    0    0    0  0.00000000000E+00  0.00000000000E+00  0.74505805969E-08  0.10566000000E+00  0.10566000000E+00 0.  1.
     999900   -1    0    0    0    0 -0.00000000000E+00 -0.00000000000E+00 -0.74505805969E-08  0.93827000000E+00  0.93827000000E+00 0.  1.
     999902    2    1    2    0    0  0.17829341743E-01 -0.64195594697E-02 -0.14154289144E-01  0.10202775145E+01  0.10200033169E+01 0.  0.
     999903    2    3    3    0    0  0.58389087321E-01 -0.11530879396E+00  0.19155950887E-01  0.13201430435E+00  0.18852655401E-01 0.  0.
         14    1    1    2    0    0 -0.17829341743E-01  0.64195594697E-02  0.14154289144E-01  0.23652485534E-01  0.00000000000E+00 0.  1.
     999901    1    3    3    0    0 -0.40559745578E-01  0.10888923449E+00 -0.33310240031E-01  0.88826321011E+00  0.88000000000E+00 0. -1.
        -11    1    4    4    0    0  0.27597925025E-01 -0.74280388427E-01  0.94565821113E-02  0.79805448666E-01  0.51100000000E-03 0.  1.
         11    1    4    4    0    0  0.30791162296E-01 -0.41028405537E-01  0.96993687757E-02  0.52208855686E-01  0.51100000000E-03 0. -1.
</event>
<event>
 8    1  0.1126829E+005  0.1043930E+01  0.7957747E-01            NaN
         13   -1    0    0    0    0  0.00000000000E+00  0.00000000000E+00  0.74505805969E-08  0.10566000000E+00  0.10566000000E+00 0.  1.
     999900   -1    0    0    0    0 -0.00000000000E+00 -0.00000000000E+00 -0.74505805969E-08  0.93827000000E+00  0.93827000000E+00 0. -1.
     999902    2    1    2    0    0  0.27730792973E-02  0.14057279592E-01 -0.17091277084E-01  0.10216273358E+01  0.10213838673E+01 0.  0.
     999903    2    3    3    0    0  0.15664127952E-01 -0.41695846756E-02  0.12703197420E+00  0.12962402342E+00  0.20062767455E-01 0.  0.
         14    1    1    2    0    0 -0.27730792973E-02 -0.14057279592E-01  0.17091277084E-01  0.22302664206E-01  0.00000000000E+00 0.  1.
     999901    1    3    3    0    0 -0.12891048655E-01  0.18226864268E-01 -0.14412325129E+00  0.89200331237E+00  0.88000000000E+00 0. -1.
        -11    1    4    4    0    0  0.63868155454E-02  0.75565263536E-02  0.68380317200E-01  0.69094293576E-01  0.51100000000E-03 0.  1.
         11    1    4    4    0    0  0.92773124070E-02 -0.11726111029E-01  0.58651657003E-01  0.60529729849E-01  0.51100000000E-03 0. -1.
</event>
<event>
 8    1  0.1076043E+005  0.1043930E+01  0.7957747E-01            NaN
         13   -1    0    0    0    0  0.00000000000E+00  0.00000000000E+00  0.74505805969E-08  0.10566000000E+00  0.10566000000E+00 0. -1.
     999900   -1    0    0    0    0 -0.00000000000E+00 -0.00000000000E+00 -0.74505805969E-08  0.93827000000E+00  0.93827000000E+00 0. -1.
     999902    2    1    2    0    0 -0.20429549847E-01 -0.13913280301E-01  0.27684194063E-02  0.10190581279E+01  0.10187545622E+01 0.  0.
     999903    2    3    3    0    0 -0.12044701191E+00  0.28631767540E-01 -0.35979597217E-01  0.13152503973E+00  0.26020066661E-01 0.  0.
         14    1    1    2    0    0  0.20429549847E-01  0.13913280301E-01 -0.27684194063E-02  0.24871872098E-01  0.00000000000E+00 0. -1.
     999901    1    3    3    0    0  0.10001746206E+00 -0.42545047841E-01  0.38748016623E-01  0.88753308817E+00  0.88000000000E+00 0.  1.
        -11    1    4    4    0    0 -0.53622139302E-01  0.87258886825E-02 -0.30593467237E-02  0.54415950603E-01  0.51100000000E-03 0.  1.
         11    1    4    4    0    0 -0.66824872606E-01  0.19905878858E-01 -0.32920250493E-01  0.77109089123E-01  0.51100000000E-03 0. -1.
</event>
<event>
 8    1  0.1076043E+005  0.1043930E+01  0.7957747E-01            NaN
         13   -1    0    0    0    0  0.00000000000E+00  0.00000000000E+00  0.74505805969E-08  0.10566000000E+00  0.10566000000E+00 0. -1.
     999900   -1    0    0    0    0 -0.00000000000E+00 -0.00000000000E+00 -0.74505805969E-08  0.93827000000E+00  0.93827000000E+00 0. -1.
     999902    2    1    2    0    0 -0.15953989865E-01 -0.12627058729E-01  0.11452491366E-01  0.10205819388E+01  0.10203148346E+01 0.  0.
     999903    2    3    3    0    0 -0.12692807619E+00 -0.33410655354E-01  0.13099851864E-01  0.13336724123E+00  0.19702956633E-01 0.  0.
         14    1    1    2    0    0  0.15953989865E-01  0.12627058729E-01 -0.11452491366E-01  0.23348061231E-01  0.00000000000E+00 0.  1.
     999901    1    3    3    0    0  0.11097408632E+00  0.20783596624E-01 -0.16473604974E-02  0.88721469753E+00  0.88000000000E+00 0.  1.
        -11    1    4    4    0    0 -0.50735780260E-01 -0.19041055382E-01 -0.26027450951E-02  0.54256028159E-01  0.51100000000E-03 0. -1.
         11    1    4    4    0    0 -0.76192295927E-01 -0.14369599972E-01  0.15702596959E-01  0.79111213075E-01  0.51100000000E-03 0.  1.
</event>
<event>
 8    1  0.1076043E+005  0.1043930E+01  0.7957747E-01            NaN
         13   -1    0    0    0    0  0.00000000000E+00  0.00000000000E+00  0.74505805969E-08  0.10566000000E+00  0.10566000000E+00 0. -1.
     999900   -1    0    0    0    0 -0.00000000000E+00 -0.00000000000E+00 -0.74505805969E-08  0.93827000000E+00  0.93827000000E+00 0.  1.
     999902    2    1    2    0    0 -0.41642565372E-02  0.38316057827E-02  0.21426057246E-01  0.10217692653E+01  0.10215289194E+01 0.  0.
     999903    2    3    3    0    0  0.40149867754E-01  0.12364916630E+00 -0.10858426329E-01  0.13195901734E+00  0.19853176706E-01 0.  0.
         14    1    1    2    0    0  0.41642565372E-02 -0.38316057827E-02 -0.21426057246E-01  0.22160734746E-01  0.00000000000E+00 0.  1.
     999901    1    3    3    0    0 -0.44314124291E-01 -0.11981756052E+00  0.32284483575E-01  0.88981024792E+00  0.88000000000E+00 0. -1.
        -11    1    4    4    0    0  0.25221882982E-01  0.58158561989E-01 -0.13166412586E-01  0.64747025068E-01  0.51100000000E-03 0.  1.
         11    1    4    4    0    0  0.14927984772E-01  0.65490604316E-01  0.23079862571E-02  0.67211992267E-01  0.51100000000E-03 0. -1.
</event>
<event>
 8    1  0.1076043E+005  0.1043930E+01  0.7957747E-01            NaN
         13   -1    0    0    0    0  0.00000000000E+00  0.00000000000E+00  0.74505805969E-08  0.10566000000E+00  0.10566000000E+00 0. -1.
     999900   -1    0    0    0    0 -0.00000000000E+00 -0.00000000000E+00 -0.74505805969E-08  0.93827000000E+00  0.93827000000E+00 0. -1.
     999902    2    1    2    0    0 -0.69289662199E-02  0.95247327334E-02 -0.17411257524E-01  0.10229089868E+01  0.10226929707E+01 0.  0.
     999903    2    3    3    0    0  0.12067404540E+00 -0.44623173949E-01 -0.20602529652E-01  0.13205282077E+00  0.21448318333E-01 0.  0.
         14    1    1    2    0    0  0.69289662199E-02 -0.95247327334E-02  0.17411257524E-01  0.21021013179E-01  0.00000000000E+00 0. -1.
     999901    1    3    3    0    0 -0.12760301162E+00  0.54147906682E-01  0.31912721288E-02  0.89085616605E+00  0.88000000000E+00 0.  1.
        -11    1    4    4    0    0  0.68787315964E-01 -0.34660646605E-01 -0.61405185187E-02  0.77272390602E-01  0.51100000000E-03 0.  1.
         11    1    4    4    0    0  0.51886729434E-01 -0.99625273440E-02 -0.14462011134E-01  0.54780430169E-01  0.51100000000E-03 0. -1.
</event>
<event>
 8    1  0.1076043E+005  0.1043930E+01  0.7957747E-01            NaN
         13   -1    0    0    0    0  0.00000000000E+00  0.00000000000E+00  0.74505805969E-08  0.10566000000E+00  0.10566000000E+00 0. -1.
     999900   -1    0    0    0    0 -0.00000000000E+00 -0.00000000000E+00 -0.74505805969E-08  0.93827000000E+00  0.93827000000E+00 0. -1.
     999902    2    1    2    0    0  0.61119746243E-02  0.30194941845E-02  0.20532098609E-01  0.10222957528E+01  0.10220668107E+01 0.  0.
     999903    2    3    3    0    0 -0.92601273202E-02 -0.98014515596E-01 -0.83269574220E-01  0.13032099982E+00  0.18898300960E-01 0.  0.
         14    1    1    2    0    0 -0.61119746243E-02 -0.30194941845E-02 -0.20532098609E-01  0.21634247207E-01  0.00000000000E+00 0.  1.
     999901    1    3    3    0    0  0.15372101944E-01  0.10103400978E+00  0.10380167283E+00  0.89197475297E+00  0.88000000000E+00 0.  1.
        -11    1    4    4    0    0 -0.12658769777E-01 -0.90731740262E-01 -0.72257886881E-01  0.11667886047E+00  0.51100000000E-03 0. -1.
         11    1    4    4    0    0  0.33986424567E-02 -0.72827753335E-02 -0.11011687339E-01  0.13642139354E-01  0.51100000000E-03 0.  1.
</event>
<event>
 8    1  0.1076043E+005  0.1043930E+01  0.7957747E-01            NaN
         13   -1    0    0    0    0  0.00000000000E+00  0.00000000000E+00  0.74505805969E-08  0.10566000000E+00  0.10566000000E+00 0. -1.
     999900   -1    0    0    0    0 -0.00000000000E+00 -0.00000000000E+00 -0.74505805969E-08  0.93827000000E+00  0.93827000000E+00 0.  1.
     999902    2    1    2    0    0  0.22841487211E-01 -0.42983782905E-02  0.44945042394E-02  0.10202570162E+01  0.10199823376E+01 0.  0.
     999903    2    3    3    0    0 -0.75169111437E-01  0.11910841844E-01 -0.10137403789E+00  0.12836186290E+00  0.20194276945E-01 0.  0.
         14    1    1    2    0    0 -0.22841487211E-01  0.42983782905E-02 -0.44945042394E-02  0.23672983806E-01  0.00000000000E+00 0.  1.
     999901    1    3    3    0    0  0.98010598647E-01 -0.16209220135E-01  0.10586854212E+00  0.89189515330E+00  0.88000000000E+00 0. -1.
        -11    1    4    4    0    0 -0.42999653358E-01 -0.29895656272E-03 -0.44472540207E-01  0.61863781952E-01  0.51100000000E-03 0.  1.
         11    1    4    4    0    0 -0.32169458079E-01  0.12209798407E-01 -0.56901497678E-01  0.66498080944E-01  0.51100000000E-03 0. -1.
</event>
<event>
 8    1  0.1076043E+005  0.1043930E+01  0.7957747E-01            NaN
         13   -1    0    0    0    0  0.00000000000E+00  0.00000000000E+00  0.74505805969E-08  0.10566000000E+00  0.10566000000E+00 0.  1.
     999900   -1    0    0    0    0 -0.00000000000E+00 -0.00000000000E+00 -0.74505805969E-08  0.93827000000E+00  0.93827000000E+00 0.  1.
     999902    2    1    2    0    0 -0.17873643885E-02 -0.28127834121E-01 -0.47671828112E-03  0.10157414033E+01  0.10153501866E+01 0.  0.
     999903    2    3    3    0    0 -0.21435072425E-01  0.38187752571E-01 -0.11596853172E+00  0.12550427284E+00  0.19617731165E-01 0.  0.
         14    1    1    2    0    0  0.17873643885E-02  0.28127834121E-01  0.47671828112E-03  0.28188596704E-01  0.00000000000E+00 0. -1.
     999901    1    3    3    0    0  0.19647708036E-01 -0.66315586692E-01  0.11549181344E+00  0.89023713045E+00  0.88000000000E+00 0. -1.
        -11    1    4    4    0    0 -0.15262587487E-01  0.36810430615E-01 -0.10911346173E+00  0.11616351850E+00  0.51100000000E-03 0.  1.
         11    1    4    4    0    0 -0.61724849377E-02  0.13773219564E-02 -0.68550699859E-02  0.93407543372E-02  0.51100000000E-03 0. -1.
</event>
<event>
 8    1  0.1076043E+005  0.1043930E+01  0.7957747E-01            NaN
         13   -1    0    0    0    0  0.00000000000E+00  0.00000000000E+00  0.74505805969E-08  0.10566000000E+00  0.10566000000E+00 0. -1.
     999900   -1    0    0    0    0 -0.00000000000E+00 -0.00000000000E+00 -0.74505805969E-08  0.93827000000E+00  0.93827000000E+00 0.  1.
     999902    2    1    2    0    0 -0.61210643803E-03 -0.30281959602E-02  0.30705600359E-01  0.10130693691E+01  0.10125992140E+01 0.  0.
     999903    2    3    3    0    0  0.78289207367E-02  0.10572609358E+00 -0.57023539594E-01  0.12200531506E+00  0.19857340477E-01 0.  0.
         14    1    1    2    0    0  0.61210643803E-03  0.30281959602E-02 -0.30705600359E-01  0.30860630883E-01  0.00000000000E+00 0.  1.
     999901    1    3    3    0    0 -0.84410271747E-02 -0.10875428954E+00  0.87729139953E-01  0.89106405406E+00  0.88000000000E+00 0. -1.
        -11    1    4    4    0    0  0.97886971232E-02  0.28655135765E-01 -0.11032236353E-01  0.32232076524E-01  0.51100000000E-03 0. -1.
         11    1    4    4    0    0 -0.19597763865E-02  0.77070957820E-01 -0.45991303241E-01  0.89773238538E-01  0.51100000000E-03 0.  1.
</event>
<event>
 8    1  0.1076043E+005  0.1043930E+01  0.7957747E-01            NaN
         13   -1    0    0    0    0  0.00000000000E+00  0.00000000000E+00  0.74505805969E-08  0.10566000000E+00  0.10566000000E+00 0.  1.
     999900   -1    0    0    0    0 -0.00000000000E+00 -0.00000000000E+00 -0.74505805969E-08  0.93827000000E+00  0.93827000000E+00 0.  1.
     999902    2    1    2    0    0 -0.22419728498E-01  0.41723201103E-02 -0.66577555019E-02  0.10201733548E+01  0.10198967084E+01 0.  0.
     999903    2    3    3    0    0 -0.30978955747E-01 -0.12474243891E+00  0.11243999505E-01  0.13055953508E+00  0.19974806917E-01 0.  0.
         14    1    1    2    0    0  0.22419728498E-01 -0.41723201103E-02  0.66577555019E-02  0.23756645162E-01  0.00000000000E+00 0.  1.
     999901    1    3    3    0    0  0.85592272486E-02  0.12891475902E+00 -0.17901755007E-01  0.88961381975E+00  0.88000000000E+00 0.  1.
        -11    1    4    4    0    0 -0.24944759876E-01 -0.81751496635E-01 -0.89624655248E-03  0.85478726162E-01  0.51100000000E-03 0.  1.
         11    1    4    4    0    0 -0.60341958706E-02 -0.42990942278E-01  0.12140246057E-01  0.45080808922E-01  0.51100000000E-03 0. -1.
</event>
<event>
 8    1  0.1076043E+005  0.1043930E+01  0.7957747E-01            NaN
         13   -1    0    0    0    0  0.00000000000E+00  0.00000000000E+00  0.74505805969E-08  0.10566000000E+00  0.10566000000E+00 0.  1.
     999900   -1    0    0    0    0 -0.00000000000E+00 -0.00000000000E+00 -0.74505805969E-08  0.93827000000E+00  0.93827000000E+00 0.  1.
     999902    2    1    2    0    0  0.22356347848E-01 -0.77365280797E-02 -0.20939650337E-02  0.10201803717E+01  0.10199038905E+01 0.  0.
     999903    2    3    3    0    0  0.74218218099E-01  0.55237861149E-01  0.91724042751E-01  0.13144123905E+00  0.17433705907E-01 0.  0.
         14    1    1    2    0    0 -0.22356347848E-01  0.77365280797E-02  0.20939650337E-02  0.23749628321E-01  0.00000000000E+00 0. -1.
     999901    1    3    3    0    0 -0.51861870251E-01 -0.62974389229E-01 -0.93818007785E-01  0.88873913263E+00  0.88000000000E+00 0.  1.
        -11    1    4    4    0    0  0.45197494551E-01  0.25267991160E-01  0.58344591003E-01  0.78010494879E-01  0.51100000000E-03 0. -1.
         11    1    4    4    0    0  0.29020723548E-01  0.29969869990E-01  0.33379451748E-01  0.53430744169E-01  0.51100000000E-03 0.  1.
</event>
<event>
 7    1  0.1076043E+005  0.1043930E+01  0.7957747E-01            NaN
         13   -1    0    0    0    0  0.00000000000E+00  0.00000000000E+00  0.74505805969E-08  0.10566000000E+00  0.10566000000E+00 0. -1.
     999900   -1    0    0    0    0 -0.00000000000E+00 -0.00000000000E+00 -0.74505805969E-08  0.93827000000E+00  0.93827000000E+00 0. -1.
     999902    2    1    2    0    0 -0.19330135277E-01  0.63979374668E-02 -0.92662060484E-02  0.10215592533E+01  0.10213142796E+01 0.  0.
         14    1    1    2    0    0  0.19330135277E-01 -0.63979374668E-02  0.92662060484E-02  0.22370746706E-01  0.00000000000E+00 0. -1.
     999901    1    3    3    0    0 -0.42751934803E-01  0.66113002557E-01 -0.92650599836E-01  0.88835960663E+00  0.88000000000E+00 0. -1.
        -11    1    3    3    0    0  0.50639858021E-02 -0.16885727332E-01 -0.15758501840E-01  0.23650861316E-01  0.51100000000E-03 0.  1.
         11    1    3    3    0    0  0.18357813725E-01 -0.42829337758E-01  0.99142895627E-01  0.10954878535E+00  0.51100000000E-03 0. -1.
</event>
<event>
 8    1  0.1076043E+005  0.1043930E+01  0.7957747E-01            NaN
         13   -1    0    0    0    0  0.00000000000E+00  0.00000000000E+00  0.74505805969E-08  0.10566000000E+00  0.10566000000E+00 0. -1.
     999900   -1    0    0    0    0 -0.00000000000E+00 -0.00000000000E+00 -0.74505805969E-08  0.93827000000E+00  0.93827000000E+00 0. -1.
     999902    2    1    2    0    0  0.98890239838E-02 -0.22918830177E-01  0.36704069546E-04  0.10189686916E+01  0.10186629116E+01 0.  0.
     999903    2    3    3    0    0 -0.81940331044E-01 -0.62057758820E-01  0.76761837986E-01  0.13000793182E+00  0.21078407987E-01 0.  0.
         14    1    1    2    0    0 -0.98890239838E-02  0.22918830177E-01 -0.36704069546E-04  0.24961308444E-01  0.00000000000E+00 0. -1.
     999901    1    3    3    0    0  0.91829355028E-01  0.39138928642E-01 -0.76725133916E-01  0.88896075974E+00  0.88000000000E+00 0. -1.
        -11    1    4    4    0    0 -0.41431655512E-01 -0.44096932013E-01  0.41456125038E-01  0.73348434991E-01  0.51100000000E-03 0.  1.
         11    1    4    4    0    0 -0.40508675531E-01 -0.17960826806E-01  0.35305712948E-01  0.56659496827E-01  0.51100000000E-03 0. -1.
</event>
<event>
 8    1  0.1076043E+005  0.1043930E+01  0.7957747E-01            NaN
         13   -1    0    0    0    0  0.00000000000E+00  0.00000000000E+00  0.74505805969E-08  0.10566000000E+00  0.10566000000E+00 0.  1.
     999900   -1    0    0    0    0 -0.00000000000E+00 -0.00000000000E+00 -0.74505805969E-08  0.93827000000E+00  0.93827000000E+00 0. -1.
     999902    2    1    2    0    0  0.21273454607E-02 -0.83575558984E-02 -0.21543748467E-01  0.10207242370E+01  0.10204604160E+01 0.  0.
     999903    2    3    3    0    0 -0.10739589406E-01  0.68838645272E-01  0.10564069652E+00  0.12814331934E+00  0.20165705188E-01 0.  0.
         14    1    1    2    0    0 -0.21273454607E-02  0.83575558984E-02  0.21543748467E-01  0.23205763019E-01  0.00000000000E+00 0.  1.
     999901    1    3    3    0    0  0.12866934867E-01 -0.77196201171E-01 -0.12718444499E+00  0.89258091764E+00  0.88000000000E+00 0. -1.
        -11    1    4    4    0    0 -0.99835948496E-03  0.28049590774E-01  0.59505252597E-01  0.65794471439E-01  0.51100000000E-03 0. -1.
         11    1    4    4    0    0 -0.97412299213E-02  0.40789054498E-01  0.46135443928E-01  0.62348847902E-01  0.51100000000E-03 0.  1.
</event>
<event>
 8    1  0.1186979E+005  0.1043930E+01  0.7957747E-01            NaN
         13   -1    0    0    0    0  0.00000000000E+00  0.00000000000E+00  0.74505805969E-08  0.10566000000E+00  0.10566000000E+00 0.  1.
     999900   -1    0    0    0    0 -0.00000000000E+00 -0.00000000000E+00 -0.74505805969E-08  0.93827000000E+00  0.93827000000E+00 0.  1.
     999902    2    1    2    0    0 -0.43345950309E-02  0.12448013207E-01 -0.19331899286E-01  0.10205320497E+01  0.10202637896E+01 0.  0.
     999903    2    3    3    0    0 -0.10250398125E+00  0.21228623274E-01  0.74354959357E-01  0.13008746696E+00  0.20889434191E-01 0.  0.
         14    1    1    2    0    0  0.43345950309E-02 -0.12448013207E-01  0.19331899286E-01  0.23397950271E-01  0.00000000000E+00 0.  1.
     999901    1    3    3    0    0  0.98169386217E-01 -0.87806100675E-02 -0.93686858643E-01  0.89044458277E+00  0.88000000000E+00 0.  1.
        -11    1    4    4    0    0 -0.49243796830E-01  0.20376247110E-01  0.40943371215E-01  0.67206872714E-01  0.51100000000E-03 0. -1.
         11    1    4    4    0    0 -0.53260184418E-01  0.85237616427E-03  0.33411588142E-01  0.62880594244E-01  0.51100000000E-03 0.  1.
</event>
<event>
 8    1  0.1076043E+005  0.1043930E+01  0.7957747E-01            NaN
         13   -1    0    0    0    0  0.00000000000E+00  0.00000000000E+00  0.74505805969E-08  0.10566000000E+00  0.10566000000E+00 0.  1.
     999900   -1    0    0    0    0 -0.00000000000E+00 -0.00000000000E+00 -0.74505805969E-08  0.93827000000E+00  0.93827000000E+00 0.  1.
     999902    2    1    2    0    0  0.18325515085E-01 -0.15957407436E-01  0.10600080374E-01  0.10174191520E+01  0.10170736974E+01 0.  0.
     999903    2    3    3    0    0 -0.17658102720E-01 -0.57500468512E-01  0.11313994393E+00  0.12976208409E+00  0.20480212050E-01 0.  0.
         14    1    1    2    0    0 -0.18325515085E-01  0.15957407436E-01 -0.10600080374E-01  0.26510847952E-01  0.00000000000E+00 0.  1.
     999901    1    3    3    0    0  0.35983617804E-01  0.41543061077E-01 -0.10253986355E+00  0.88765706796E+00  0.88000000000E+00 0.  1.
        -11    1    4    4    0    0 -0.13549252169E-01 -0.54417122237E-01  0.89917532307E-01  0.10597277558E+00  0.51100000000E-03 0. -1.
         11    1    4    4    0    0 -0.41088505509E-02 -0.30833462754E-02  0.23222411619E-01  0.23789308513E-01  0.51100000000E-03 0.  1.
</event>
<event>
 8    1  0.1076043E+005  0.1043930E+01  0.7957747E-01            NaN
         13   -1    0    0    0    0  0.00000000000E+00  0.00000000000E+00  0.74505805969E-08  0.10566000000E+00  0.10566000000E+00 0. -1.
     999900   -1    0    0    0    0 -0.00000000000E+00 -0.00000000000E+00 -0.74505805969E-08  0.93827000000E+00  0.93827000000E+00 0.  1.
     999902    2    1    2    0    0  0.72960942720E-02 -0.21231022182E-01  0.90781359167E-02  0.10197142645E+01  0.10194266915E+01 0.  0.
     999903    2    3    3    0    0 -0.10922412811E-01 -0.31111398688E-01 -0.12383614336E+00  0.12949196558E+00  0.18589258118E-01 0.  0.
         14    1    1    2    0    0 -0.72960942720E-02  0.21231022182E-01 -0.90781359167E-02  0.24215735509E-01  0.00000000000E+00 0.  1.
     999901    1    3    3    0    0  0.18218507083E-01  0.98803765062E-02  0.13291427928E+00  0.89022229891E+00  0.88000000000E+00 0. -1.
        -11    1    4    4    0    0 -0.13035432735E-01 -0.25359860138E-01 -0.74461519270E-01  0.79735964193E-01  0.51100000000E-03 0.  1.
         11    1    4    4    0    0  0.21130199247E-02 -0.57515385502E-02 -0.49374624092E-01  0.49756001388E-01  0.51100000000E-03 0. -1.
</event>
<event>
 8    1  0.1076043E+005  0.1043930E+01  0.7957747E-01            NaN
         13   -1    0    0    0    0  0.00000000000E+00  0.00000000000E+00  0.74505805969E-08  0.10566000000E+00  0.10566000000E+00 0. -1.
     999900   -1    0    0    0    0 -0.00000000000E+00 -0.00000000000E+00 -0.74505805969E-08  0.93827000000E+00  0.93827000000E+00 0. -1.
     999902    2    1    2    0    0  0.39668978748E-02 -0.23957544944E-01 -0.25944753922E-02  0.10195080521E+01  0.10192155006E+01 0.  0.
     999903    2    3    3    0    0  0.34021779074E-03 -0.62809131935E-02  0.12790484683E+00  0.12970150611E+00  0.20573410686E-01 0.  0.
         14    1    1    2    0    0 -0.39668978748E-02  0.23957544944E-01  0.25944753922E-02  0.24421947937E-01  0.00000000000E+00 0. -1.
     999901    1    3    3    0    0  0.36266800841E-02 -0.17676631751E-01 -0.13049932222E+00  0.88980654595E+00  0.88000000000E+00 0. -1.
        -11    1    4    4    0    0  0.20650132724E-02 -0.12818527553E-01  0.10538392972E+00  0.10618197913E+00  0.51100000000E-03 0.  1.
         11    1    4    4    0    0 -0.17247954817E-02  0.65376143597E-02  0.22520917106E-01  0.23519526978E-01  0.51100000000E-03 0. -1.
</event>
<event>
 8    1  0.1076043E+005  0.1043930E+01  0.7957747E-01            NaN
         13   -1    0    0    0    0  0.00000000000E+00  0.00000000000E+00  0.74505805969E-08  0.10566000000E+00  0.10566000000E+00 0.  1.
     999900   -1    0    0    0    0 -0.00000000000E+00 -0.00000000000E+00 -0.74505805969E-08  0.93827000000E+00  0.93827000000E+00 0.  1.
     999902    2    1    2    0    0  0.17955764126E-01  0.14221354519E-01 -0.43508145955E-02  0.10206150696E+01  0.10203487318E+01 0.  0.
     999903    2    3    3    0    0  0.97889230471E-01  0.20521229882E-01  0.84489431198E-01  0.13251505459E+00  0.20453688928E-01 0.  0.
         14    1    1    2    0    0 -0.17955764126E-01 -0.14221354519E-01  0.43508145955E-02  0.23314930352E-01  0.00000000000E+00 0. -1.
     999901    1    3    3    0    0 -0.79933466346E-01 -0.62998753628E-02 -0.88840245794E-01  0.88810001506E+00  0.88000000000E+00 0.  1.
        -11    1    4    4    0    0  0.37487632349E-01  0.18081465310E-01  0.33519788461E-01  0.53442485968E-01  0.51100000000E-03 0. -1.
         11    1    4    4    0    0  0.60401598122E-01  0.24397645717E-02  0.50969642737E-01  0.79072568623E-01  0.51100000000E-03 0.  1.
</event>
<event>
 8    1  0.1076043E+005  0.1043930E+01  0.7957747E-01            NaN
         13   -1    0    0    0    0  0.00000000000E+00  0.00000000000E+00  0.74505805969E-08  0.10566000000E+00  0.10566000000E+00 0.  1.
     999900   -1    0    0    0    0 -0.00000000000E+00 -0.00000000000E+00 -0.74505805969E-08  0.93827000000E+00  0.93827000000E+00 0.  1.
     999902    2    1    2    0    0  0.25847942198E-02 -0.19480203442E-01  0.13536501005E-01  0.10200679727E+01  0.10197888373E+01 0.  0.
     999903    2    3    3    0    0 -0.17869893635E-01  0.20783047993E-01 -0.12351630493E+00  0.12831520692E+00  0.21383324321E-01 0.  0.
         14    1    1    2    0    0 -0.25847942198E-02  0.19480203442E-01 -0.13536501005E-01  0.23862027297E-01  0.00000000000E+00 0. -1.
     999901    1    3    3    0    0  0.20454687855E-01 -0.40263251434E-01  0.13705280594E+00  0.89175276579E+00  0.88000000000E+00 0. -1.
        -11    1    4    4    0    0 -0.86334745504E-02 -0.30463997078E-02 -0.35101059059E-01  0.36278959495E-01  0.51100000000E-03 0.  1.
         11    1    4    4    0    0 -0.92364190847E-02  0.23829447701E-01 -0.88415245875E-01  0.92036247421E-01  0.51100000000E-03 0. -1.
</event>
<event>
 8    1  0.1076043E+005  0.1043930E+01  0.7957747E-01            NaN
         13   -1    0    0    0    0  0.00000000000E+00  0.00000000000E+00  0.74505805969E-08  0.10566000000E+00  0.10566000000E+00 0. -1.
     999900   -1    0    0    0    0 -0.00000000000E+00 -0.00000000000E+00 -0.74505805969E-08  0.93827000000E+00  0.93827000000E+00 0. -1.
     999902    2    1    2    0    0 -0.25713145057E-01  0.98366033565E-02  0.98231143770E-02  0.10146995677E+01  0.10142784601E+01 0.  0.
     999903    2    3    3    0    0 -0.67266588945E-01 -0.98406015712E-01 -0.34892183983E-01  0.12596866854E+00  0.21026246297E-01 0.  0.
         14    1    1    2    0    0  0.25713145057E-01 -0.98366033565E-02 -0.98231143770E-02  0.29230432264E-01  0.00000000000E+00 0.  1.
     999901    1    3    3    0    0  0.41553443888E-01  0.10824261907E+00  0.44715298360E-01  0.88873089920E+00  0.88000000000E+00 0.  1.
        -11    1    4    4    0    0 -0.23396237280E-01 -0.51245789564E-01 -0.20641209329E-01  0.59998629238E-01  0.51100000000E-03 0. -1.
         11    1    4    4    0    0 -0.43870351665E-01 -0.47160226148E-01 -0.14250974654E-01  0.65970039299E-01  0.51100000000E-03 0.  1.
</event>
<event>
 8    1  0.1076043E+005  0.1043930E+01  0.7957747E-01            NaN
         13   -1    0    0    0    0  0.00000000000E+00  0.00000000000E+00  0.74505805969E-08  0.10566000000E+00  0.10566000000E+00 0.  1.
     999900   -1    0    0    0    0 -0.00000000000E+00 -0.00000000000E+00 -0.74505805969E-08  0.93827000000E+00  0.93827000000E+00 0. -1.
     999902    2    1    2    0    0  0.19604373624E-01 -0.67190618708E-03  0.12190602142E-01  0.10208346822E+01  0.10205733951E+01 0.  0.
     999903    2    3    3    0    0 -0.10155344666E+00 -0.76273558133E-01  0.13462050123E-01  0.12932111318E+00  0.20296928840E-01 0.  0.
         14    1    1    2    0    0 -0.19604373624E-01  0.67190618708E-03 -0.12190602142E-01  0.23095317788E-01  0.00000000000E+00 0. -1.
     999901    1    3    3    0    0  0.12115782029E+00  0.75601651946E-01 -0.12714479805E-02  0.89151356904E+00  0.88000000000E+00 0.  1.
        -11    1    4    4    0    0 -0.71955677713E-01 -0.61096615027E-01  0.29825455750E-02  0.94443489040E-01  0.51100000000E-03 0. -1.
         11    1    4    4    0    0 -0.29597768950E-01 -0.15176943106E-01  0.10479504548E-01  0.34877624137E-01  0.51100000000E-03 0.  1.
</event>
<event>
 8    1  0.1076043E+005  0.1043930E+01  0.7957747E-01            NaN
         13   -1    0    0    0    0  0.00000000000E+00  0.00000000000E+00  0.74505805969E-08  0.10566000000E+00  0.10566000000E+00 0.  1.
     999900   -1    0    0    0    0 -0.00000000000E+00 -0.00000000000E+00 -0.74505805969E-08  0.93827000000E+00  0.93827000000E+00 0.  1.
     999902    2    1    2    0    0 -0.19194982042E-01 -0.29461557760E-02 -0.15123268815E-01  0.10193161740E+01  0.10190189509E+01 0.  0.
     999903    2    3    3    0    0  0.13910119368E-01  0.57548782077E-01  0.11099587507E+00  0.12765389283E+00  0.21681289938E-01 0.  0.
         14    1    1    2    0    0  0.19194982042E-01  0.29461557760E-02  0.15123268815E-01  0.24613825974E-01  0.00000000000E+00 0. -1.
     999901    1    3    3    0    0 -0.33105101410E-01 -0.60494937853E-01 -0.12611914389E+00  0.89166228119E+00  0.88000000000E+00 0.  1.
        -11    1    4    4    0    0 -0.14747448035E-02  0.74700610292E-02  0.42276919027E-02  0.87241723871E-02  0.51100000000E-03 0. -1.
         11    1    4    4    0    0  0.15384864171E-01  0.50078721047E-01  0.10676818317E+00  0.11892972045E+00  0.51100000000E-03 0.  1.
</event>
<event>
 8    1  0.1076043E+005  0.1043930E+01  0.7957747E-01            NaN
         13   -1    0    0    0    0  0.00000000000E+00  0.00000000000E+00  0.74505805969E-08  0.10566000000E+00  0.10566000000E+00 0. -1.
     999900   -1    0    0    0    0 -0.00000000000E+00 -0.00000000000E+00 -0.74505805969E-08  0.93827000000E+00  0.93827000000E+00 0.  1.
     999902    2    1    2    0    0  0.20578415899E-01  0.65976558800E-02 -0.81708003940E-02  0.10208267049E+01  0.10205652352E+01 0.  0.
     999903    2    3    3    0    0 -0.65706768572E-01  0.92217770403E-02  0.10860415267E+00  0.12892513596E+00  0.20601167346E-01 0.  0.
         14    1    1    2    0    0 -0.20578415899E-01 -0.65976558800E-02  0.81708003940E-02  0.23103295071E-01  0.00000000000E+00 0.  1.
     999901    1    3    3    0    0  0.86285184472E-01 -0.26241211603E-02 -0.11677495307E+00  0.89190156897E+00  0.88000000000E+00 0.  1.
        -11    1    4    4    0    0 -0.11629154380E-01  0.48267250014E-02  0.89462618776E-02  0.15454165406E-01  0.51100000000E-03 0. -1.
         11    1    4    4    0    0 -0.54077614193E-01  0.43950520389E-02  0.99657890794E-01  0.11347097055E+00  0.51100000000E-03 0.  1.
</event>
<event>
 8    1  0.1076043E+005  0.1043930E+01  0.7957747E-01            NaN
         13   -1    0    0    0    0  0.00000000000E+00  0.00000000000E+00  0.74505805969E-08  0.10566000000E+00  0.10566000000E+00 0.  1.
     999900   -1    0    0    0    0 -0.00000000000E+00 -0.00000000000E+00 -0.74505805969E-08  0.93827000000E+00  0.93827000000E+00 0. -1.
     999902    2    1    2    0    0 -0.56204063519E-03 -0.21146843267E-01  0.11063504986E-01  0.10200572957E+01  0.10197779074E+01 0.  0.
     999903    2    3    3    0    0  0.66562821739E-01 -0.28077688572E-02 -0.10887155270E+00  0.12920013154E+00  0.20029133744E-01 0.  0.
         14    1    1    2    0    0  0.56204063519E-03  0.21146843267E-01 -0.11063504986E-01  0.23872704338E-01  0.00000000000E+00 0. -1.
     999901    1    3    3    0    0 -0.67124862374E-01 -0.18339074409E-01  0.11993505769E+00  0.89085716412E+00  0.88000000000E+00 0.  1.
        -11    1    4    4    0    0  0.50343829242E-02 -0.54707152208E-02 -0.17382159043E-01  0.18912279356E-01  0.51100000000E-03 0.  1.
         11    1    4    4    0    0  0.61528438815E-01  0.26629463636E-02 -0.91489393662E-01  0.11028785219E+00  0.51100000000E-03 0. -1.
</event>
<event>
 8    1  0.1076043E+005  0.1043930E+01  0.7957747E-01            NaN
         13   -1    0    0    0    0  0.00000000000E+00  0.00000000000E+00  0.74505805969E-08  0.10566000000E+00  0.10566000000E+00 0.  1.
     999900   -1    0    0    0    0 -0.00000000000E+00 -0.00000000000E+00 -0.74505805969E-08  0.93827000000E+00  0.93827000000E+00 0.  1.
     999902    2    1    2    0    0  0.68801056379E-02  0.83565269074E-02 -0.21796130430E-01  0.10195940452E+01  0.10193035751E+01 0.  0.
     999903    2    3    3    0    0  0.12524281267E+00 -0.29176434228E-01  0.14369337840E-01  0.13014118263E+00  0.13900471511E-01 0.  0.
         14    1    1    2    0    0 -0.68801056379E-02 -0.83565269074E-02  0.21796130430E-01  0.24335954826E-01  0.00000000000E+00 0.  1.
     999901    1    3    3    0    0 -0.11836270703E+00  0.37532961136E-01 -0.36165468271E-01  0.88945286254E+00  0.88000000000E+00 0.  1.
        -11    1    4    4    0    0  0.49851236902E-01 -0.17089367037E-01  0.16080476511E-02  0.52726077273E-01  0.51100000000E-03 0.  1.
         11    1    4    4    0    0  0.75391575765E-01 -0.12087067191E-01  0.12761290189E-01  0.77415105360E-01  0.51100000000E-03 0. -1.
</event>
<event>
 8    1  0.1076043E+005  0.1043930E+01  0.7957747E-01            NaN
         13   -1    0    0    0    0  0.00000000000E+00  0.00000000000E+00  0.74505805969E-08  0.10566000000E+00  0.10566000000E+00 0.  1.
     999900   -1    0    0    0    0 -0.00000000000E+00 -0.00000000000E+00 -0.74505805969E-08  0.93827000000E+00  0.93827000000E+00 0. -1.
     999902    2    1    2    0    0 -0.26128593624E-03  0.15260009515E-01  0.16887784937E-01  0.10211674553E+01  0.10209137272E+01 0.  0.
     999903    2    3    3    0    0 -0.47198591642E-01  0.70528289082E-01  0.10200420576E+00  0.13409220569E+00  0.19336882381E-01 0.  0.
         14    1    1    2    0    0  0.26128593624E-03 -0.15260009515E-01 -0.16887784937E-01  0.22762544692E-01  0.00000000000E+00 0. -1.
     999901    1    3    3    0    0  0.46937305706E-01 -0.55268279566E-01 -0.85116420822E-01  0.88707524962E+00  0.88000000000E+00 0. -1.
        -11    1    4    4    0    0 -0.31362118587E-01  0.52368006395E-01  0.59576965567E-01  0.85297517685E-01  0.51100000000E-03 0.  1.
         11    1    4    4    0    0 -0.15836473056E-01  0.18160282687E-01  0.42427240193E-01  0.48794688005E-01  0.51100000000E-03 0. -1.
</event>
<event>
 8    1  0.1076043E+005  0.1043930E+01  0.7957747E-01            NaN
         13   -1    0    0    0    0  0.00000000000E+00  0.00000000000E+00  0.74505805969E-08  0.10566000000E+00  0.10566000000E+00 0.  1.
     999900   -1    0    0    0    0 -0.00000000000E+00 -0.00000000000E+00 -0.74505805969E-08  0.93827000000E+00  0.93827000000E+00 0. -1.
     999902    2    1    2    0    0  0.17189314441E-01 -0.43141562165E-02 -0.15477299059E-01  0.10204006298E+01  0.10201293124E+01 0.  0.
     999903    2    3    3    0    0  0.66781206439E-01 -0.99607687463E-01  0.50026099979E-01  0.13145130161E+00  0.19884996346E-01 0.  0.
         14    1    1    2    0    0 -0.17189314441E-01  0.43141562165E-02  0.15477299059E-01  0.23529370178E-01  0.00000000000E+00 0.  1.
     999901    1    3    3    0    0 -0.49591891998E-01  0.95293531247E-01 -0.65503399039E-01  0.88894932822E+00  0.88000000000E+00 0. -1.
        -11    1    4    4    0    0  0.33907940015E-01 -0.57071810560E-01  0.37517407970E-01  0.76254553821E-01  0.51100000000E-03 0.  1.
         11    1    4    4    0    0  0.32873266424E-01 -0.42535876903E-01  0.12508692010E-01  0.55196747786E-01  0.51100000000E-03 0. -1.
</event>
<event>
 8    1  0.1076043E+005  0.1043930E+01  0.7957747E-01            NaN
         13   -1    0    0    0    0  0.00000000000E+00  0.00000000000E+00  0.74505805969E-08  0.10566000000E+00  0.10566000000E+00 0. -1.
     999900   -1    0    0    0    0 -0.00000000000E+00 -0.00000000000E+00 -0.74505805969E-08  0.93827000000E+00  0.93827000000E+00 0.  1.
     999902    2    1    2    0    0 -0.20442658027E-01  0.86265304965E-02 -0.10613424654E-01  0.10193339825E+01  0.10190371945E+01 0.  0.
     999903    2    3    3    0    0  0.25787617348E-01 -0.95844357313E-01 -0.80387659869E-01  0.12921048055E+00  0.19545597666E-01 0.  0.
         14    1    1    2    0    0  0.20442658027E-01 -0.86265304965E-02  0.10613424654E-01  0.24596017533E-01  0.00000000000E+00 0.  1.
     999901    1    3    3    0    0 -0.46230275375E-01  0.10447088781E+00  0.69774235214E-01  0.89012350191E+00  0.88000000000E+00 0. -1.
        -11    1    4    4    0    0  0.13635888312E-01 -0.71443361614E-01 -0.66768898827E-01  0.98734180203E-01  0.51100000000E-03 0.  1.
         11    1    4    4    0    0  0.12151729036E-01 -0.24400995699E-01 -0.13618761041E-01  0.30476300349E-01  0.51100000000E-03 0. -1.
</event>
<event>
 7    1  0.1076043E+005  0.1043930E+01  0.7957747E-01            NaN
         13   -1    0    0    0    0  0.00000000000E+00  0.00000000000E+00  0.74505805969E-08  0.10566000000E+00  0.10566000000E+00 0.  1.
     999900   -1    0    0    0    0 -0.00000000000E+00 -0.00000000000E+00 -0.74505805969E-08  0.93827000000E+00  0.93827000000E+00 0.  1.
     999903    2    1    2    0    0  0.76989267929E-01  0.10865826106E-01  0.78376000029E-01  0.11218148914E+00  0.19911694341E-01 0.  0.
         14    1    1    2    0    0 -0.34895684824E-01 -0.26704638556E-01  0.13130524492E-01  0.45861282289E-01  0.00000000000E+00 0. -1.
     999901    1    1    2    0    0 -0.42093583105E-01  0.15838812450E-01 -0.91506524521E-01  0.88588722857E+00  0.88000000000E+00 0.  1.
        -11    1    3    3    0    0  0.66695147649E-02 -0.42811628887E-02  0.47804108039E-02  0.92695324225E-02  0.51100000000E-03 0.  1.
         11    1    3    3    0    0  0.70319753164E-01  0.15146988995E-01  0.73595589225E-01  0.10291195672E+00  0.51100000000E-03 0. -1.
</event>
<event>
 8    1  0.1076043E+005  0.1043930E+01  0.7957747E-01            NaN
         13   -1    0    0    0    0  0.00000000000E+00  0.00000000000E+00  0.74505805969E-08  0.10566000000E+00  0.10566000000E+00 0. -1.
     999900   -1    0    0    0    0 -0.00000000000E+00 -0.00000000000E+00 -0.74505805969E-08  0.93827000000E+00  0.93827000000E+00 0.  1.
     999902    2    1    2    0    0  0.29785749547E-02  0.13095444674E-01 -0.19061002643E-01  0.10206129590E+01  0.10203465723E+01 0.  0.
     999903    2    3    3    0    0  0.77737093026E-01 -0.75134339940E-01 -0.74148469438E-01  0.13133912044E+00  0.79840070245E-02 0.  0.
         14    1    1    2    0    0 -0.29785749547E-02 -0.13095444674E-01  0.19061002643E-01  0.23317041016E-01  0.00000000000E+00 0. -1.
     999901    1    3    3    0    0 -0.74758518071E-01  0.88229784614E-01  0.55087466795E-01  0.88927383854E+00  0.88000000000E+00 0.  1.
        -11    1    4    4    0    0  0.38943807280E-01 -0.39686661618E-01 -0.42566810249E-01  0.70027463838E-01  0.51100000000E-03 0.  1.
         11    1    4    4    0    0  0.38793285746E-01 -0.35447678321E-01 -0.31581659189E-01  0.61311656604E-01  0.51100000000E-03 0. -1.
</event>
<event>
 8    1  0.1076043E+005  0.1043930E+01  0.7957747E-01            NaN
         13   -1    0    0    0    0  0.00000000000E+00  0.00000000000E+00  0.74505805969E-08  0.10566000000E+00  0.10566000000E+00 0. -1.
     999900   -1    0    0    0    0 -0.00000000000E+00 -0.00000000000E+00 -0.74505805969E-08  0.93827000000E+00  0.93827000000E+00 0. -1.
     999902    2    1    2    0    0  0.21049916165E-01 -0.35248046136E-02  0.79381409836E-02  0.10211585859E+01  0.10209046578E+01 0.  0.
     999903    2    3    3    0    0 -0.10926734009E+00 -0.59627668486E-01  0.29729689388E-01  0.12952806253E+00  0.19971331760E-01 0.  0.
         14    1    1    2    0    0 -0.21049916165E-01  0.35248046136E-02 -0.79381409836E-02  0.22771414106E-01  0.00000000000E+00 0.  1.
     999901    1    3    3    0    0  0.13031725625E+00  0.56102863873E-01 -0.21791548404E-01  0.89163052336E+00  0.88000000000E+00 0. -1.
        -11    1    4    4    0    0 -0.35969494564E-01 -0.21867804851E-01  0.19656287739E-01  0.46461125652E-01  0.51100000000E-03 0. -1.
         11    1    4    4    0    0 -0.73297845525E-01 -0.37759863635E-01  0.10073401649E-01  0.83066936877E-01  0.51100000000E-03 0.  1.
</event>
<event>
 8    1  0.1076043E+005  0.1043930E+01  0.7957747E-01            NaN
         13   -1    0    0    0    0  0.00000000000E+00  0.00000000000E+00  0.74505805969E-08  0.10566000000E+00  0.10566000000E+00 0. -1.
     999900   -1    0    0    0    0 -0.00000000000E+00 -0.00000000000E+00 -0.74505805969E-08  0.93827000000E+00  0.93827000000E+00 0.  1.
     999902    2    1    2    0    0  0.19155387433E-01 -0.49329790909E-02 -0.14070764424E-01  0.10196555368E+01  0.10193665505E+01 0.  0.
     999903    2    3    3    0    0 -0.74823504444E-01 -0.98675657972E-01 -0.32173268850E-01  0.12951654621E+00  0.20099109955E-01 0.  0.
         14    1    1    2    0    0 -0.19155387433E-01  0.49329790909E-02  0.14070764424E-01  0.24274463164E-01  0.00000000000E+00 0. -1.
     999901    1    3    3    0    0  0.93978891876E-01  0.93742678881E-01  0.18102504426E-01  0.89013899062E+00  0.88000000000E+00 0. -1.
        -11    1    4    4    0    0 -0.58391249526E-01 -0.88372623543E-01 -0.29325440936E-01  0.10990678423E+00  0.51100000000E-03 0.  1.
         11    1    4    4    0    0 -0.16432254918E-01 -0.10303034429E-01 -0.28478279142E-02  0.19609761981E-01  0.51100000000E-03 0. -1.
</event>
<event>
 8    1  0.1076043E+005  0.1043930E+01  0.7957747E-01            NaN
         13   -1    0    0    0    0  0.00000000000E+00  0.00000000000E+00  0.74505805969E-08  0.10566000000E+00  0.10566000000E+00 0.  1.
     999900   -1    0    0    0    0 -0.00000000000E+00 -0.00000000000E+00 -0.74505805969E-08  0.93827000000E+00  0.93827000000E+00 0.  1.
     999902    2    1    2    0    0  0.13672650858E-01 -0.19526869201E-01 -0.46946546061E-02  0.10196343258E+01  0.10193448281E+01 0.  0.
     999903    2    3    3    0    0  0.35109241693E-01  0.36539944843E-01 -0.11823544506E+00  0.13031181617E+00  0.20826006416E-01 0.  0.
         14    1    1    2    0    0 -0.13672650858E-01  0.19526869201E-01  0.46946546061E-02  0.24295674186E-01  0.00000000000E+00 0. -1.
     999901    1    3    3    0    0 -0.21436590835E-01 -0.56066814044E-01  0.11354079045E+00  0.88932250964E+00  0.88000000000E+00 0.  1.
        -11    1    4    4    0    0  0.10799621944E-01  0.25773415911E-01 -0.66729763582E-01  0.72346549818E-01  0.51100000000E-03 0. -1.
         11    1    4    4    0    0  0.24309619749E-01  0.10766528932E-01 -0.51505681479E-01  0.57965266352E-01  0.51100000000E-03 0.  1.
</event>
<event>
 8    1  0.1076043E+005  0.1043930E+01  0.7957747E-01            NaN
         13   -1    0    0    0    0  0.00000000000E+00  0.00000000000E+00  0.74505805969E-08  0.10566000000E+00  0.10566000000E+00 0. -1.
     999900   -1    0    0    0    0 -0.00000000000E+00 -0.00000000000E+00 -0.74505805969E-08  0.93827000000E+00  0.93827000000E+00 0.  1.
     999902    2    1    2    0    0  0.50531639952E-02  0.23705094774E-01  0.15082562039E-01  0.10153826768E+01  0.10149812957E+01 0.  0.
     999903    2    3    3    0    0 -0.65874408555E-01  0.13546112055E-01  0.10717332680E+00  0.12768079303E+00  0.17126823375E-01 0.  0.
         14    1    1    2    0    0 -0.50531639952E-02 -0.23705094774E-01 -0.15082562039E-01  0.28547323207E-01  0.00000000000E+00 0.  1.
     999901    1    3    3    0    0  0.70927572550E-01  0.10158982719E-01 -0.92090764756E-01  0.88770188376E+00  0.88000000000E+00 0. -1.
        -11    1    4    4    0    0 -0.26352961410E-01  0.70900603784E-02  0.28869427171E-01  0.39729742982E-01  0.51100000000E-03 0. -1.
         11    1    4    4    0    0 -0.39521447145E-01  0.64560516764E-02  0.78303899625E-01  0.87951050051E-01  0.51100000000E-03 0.  1.
</event>
<event>
 8    1  0.1076043E+005  0.1043930E+01  0.7957747E-01            NaN
         13   -1    0    0    0    0  0.00000000000E+00  0.00000000000E+00  0.74505805969E-08  0.10566000000E+00  0.10566000000E+00 0. -1.
     999900   -1    0    0    0    0 -0.00000000000E+00 -0.00000000000E+00 -0.74505805969E-08  0.93827000000E+00  0.93827000000E+00 0. -1.
     999902    2    1    2    0    0  0.11781330510E-01 -0.19771870924E-01 -0.41689603309E-02  0.10205396845E+01  0.10202716015E+01 0.  0.
     999903    2    3    3    0    0 -0.56945605251E-01 -0.10471432668E+00 -0.53973041965E-01  0.13238482243E+00  0.20118642661E-01 0.  0.
         14    1    1    2    0    0 -0.11781330510E-01  0.19771870924E-01  0.41689603309E-02  0.23390315489E-01  0.00000000000E+00 0.  1.
     999901    1    3    3    0    0  0.68726935760E-01  0.84942455753E-01  0.49804081634E-01  0.88815486208E+00  0.88000000000E+00 0.  1.
        -11    1    4    4    0    0 -0.15237584728E-01 -0.41932247817E-01 -0.27923184482E-01  0.52635185455E-01  0.51100000000E-03 0.  1.
         11    1    4    4    0    0 -0.41708020523E-01 -0.62782078860E-01 -0.26049857482E-01  0.79749636976E-01  0.51100000000E-03 0. -1.
</event>
<event>
 8    1  0.1076043E+005  0.1043930E+01  0.7957747E-01            NaN
         13   -1    0    0    0    0  0.00000000000E+00  0.00000000000E+00  0.74505805969E-08  0.10566000000E+00  0.10566000000E+00 0. -1.
     999900   -1    0    0    0    0 -0.00000000000E+00 -0.00000000000E+00 -0.74505805969E-08  0.93827000000E+00  0.93827000000E+00 0.  1.
     999902    2    1    2    0    0 -0.17210992766E-01  0.20713193190E-01  0.35150451679E-02  0.10167710201E+01  0.10164082335E+01 0.  0.
     999903    2    3    3    0    0  0.11442145654E+00 -0.40325478268E-01  0.21118479055E-01  0.12471569562E+00  0.19738304436E-01 0.  0.
         14    1    1    2    0    0  0.17210992766E-01 -0.20713193190E-01 -0.35150451679E-02  0.27158979853E-01  0.00000000000E+00 0. -1.
     999901    1    3    3    0    0 -0.13163244931E+00  0.61038671458E-01 -0.17603433887E-01  0.89205532452E+00  0.88000000000E+00 0. -1.
        -11    1    4    4    0    0  0.33843621872E-01 -0.21469478510E-01  0.89532313372E-02  0.41070070870E-01  0.51100000000E-03 0. -1.
         11    1    4    4    0    0  0.80577834673E-01 -0.18855999759E-01  0.12165247718E-01  0.83645624754E-01  0.51100000000E-03 0.  1.
</event>
<event>
 8    1  0.1076043E+005  0.1043930E+01  0.7957747E-01            NaN
         13   -1    0    0    0    0  0.00000000000E+00  0.00000000000E+00  0.74505805969E-08  0.10566000000E+00  0.10566000000E+00 0.  1.
     999900   -1    0    0    0    0 -0.00000000000E+00 -0.00000000000E+00 -0.74505805969E-08  0.93827000000E+00  0.93827000000E+00 0. -1.
     999902    2    1    2    0    0 -0.10595015255E-01 -0.18133026811E-01 -0.13272571276E-01  0.10190860438E+01  0.10187831676E+01 0.  0.
     999903    2    3    3    0    0  0.72470036189E-01  0.56207325276E-01  0.83197360950E-01  0.12682333670E+00  0.27407814639E-01 0.  0.
         14    1    1    2    0    0  0.10595015255E-01  0.18133026811E-01  0.13272571276E-01  0.24843956163E-01  0.00000000000E+00 0.  1.
     999901    1    3    3    0    0 -0.83065051443E-01 -0.74340352087E-01 -0.96469932226E-01  0.89226270713E+00  0.88000000000E+00 0. -1.
        -11    1    4    4    0    0  0.79815647981E-02  0.11654598644E-01  0.26666767991E-01  0.30181330028E-01  0.51100000000E-03 0.  1.
         11    1    4    4    0    0  0.64488471391E-01  0.44552726631E-01  0.56530592959E-01  0.96642006674E-01  0.51100000000E-03 0. -1.
</event>
<event>
 8    1  0.1076043E+005  0.1043930E+01  0.7957747E-01            NaN
         13   -1    0    0    0    0  0.00000000000E+00  0.00000000000E+00  0.74505805969E-08  0.10566000000E+00  0.10566000000E+00 0. -1.
     999900   -1    0    0    0    0 -0.00000000000E+00 -0.00000000000E+00 -0.74505805969E-08  0.93827000000E+00  0.93827000000E+00 0. -1.
     999902    2    1    2    0    0 -0.23351495181E-01  0.49066799124E-02 -0.30666405264E-03  0.10200665996E+01  0.10197874317E+01 0.  0.
     999903    2    3    3    0    0  0.60324121695E-01 -0.75785603505E-01  0.82168396748E-01  0.12859871511E+00  0.20087975153E-01 0.  0.
         14    1    1    2    0    0  0.23351495181E-01 -0.49066799124E-02  0.30666405264E-03  0.23863400382E-01  0.00000000000E+00 0. -1.
     999901    1    3    3    0    0 -0.83675616876E-01  0.80692283418E-01 -0.82475060800E-01  0.89146788451E+00  0.88000000000E+00 0. -1.
        -11    1    4    4    0    0  0.44577045258E-01 -0.52108845729E-01  0.45944740726E-01  0.82544685405E-01  0.51100000000E-03 0.  1.
         11    1    4    4    0    0  0.15747076436E-01 -0.23676757776E-01  0.36223656022E-01  0.46054029701E-01  0.51100000000E-03 0. -1.
</event>
<event>
 8    1  0.1076043E+005  0.1043930E+01  0.7957747E-01            NaN
         13   -1    0    0    0    0  0.00000000000E+00  0.00000000000E+00  0.74505805969E-08  0.10566000000E+00  0.10566000000E+00 0.  1.
     999900   -1    0    0    0    0 -0.00000000000E+00 -0.00000000000E+00 -0.74505805969E-08  0.93827000000E+00  0.93827000000E+00 0.  1.
     999902    2    1    2    0    0  0.14716709405E-01 -0.12623137349E-01  0.12906766206E-01  0.10206381614E+01  0.10203723569E+01 0.  0.
     999903    2    3    3    0    0  0.42107963317E-01  0.96222738455E-01  0.76755553471E-01  0.13121454291E+00  0.17144833352E-01 0.  0.
         14    1    1    2    0    0 -0.14716709405E-01  0.12623137349E-01 -0.12906766206E-01  0.23291838617E-01  0.00000000000E+00 0. -1.
     999901    1    3    3    0    0 -0.27391253913E-01 -0.10884587580E+00 -0.63848787265E-01  0.88942361848E+00  0.88000000000E+00 0.  1.
        -11    1    4    4    0    0  0.18291761109E-01  0.45684023151E-01  0.25653380467E-01  0.55497527387E-01  0.51100000000E-03 0. -1.
         11    1    4    4    0    0  0.23816202209E-01  0.50538715305E-01  0.51102173004E-01  0.75717015519E-01  0.51100000000E-03 0.  1.
</event>
<event>
 8    1  0.1076043E+005  0.1043930E+01  0.7957747E-01            NaN
         13   -1    0    0    0    0  0.00000000000E+00  0.00000000000E+00  0.74505805969E-08  0.10566000000E+00  0.10566000000E+00 0.  1.
     999900   -1    0    0    0    0 -0.00000000000E+00 -0.00000000000E+00 -0.74505805969E-08  0.93827000000E+00  0.93827000000E+00 0.  1.
     999902    2    1    2    0    0 -0.84435956642E-02 -0.55664688117E-02  0.29798620945E-01  0.10124619576E+01  0.10119728148E+01 0.  0.
     999903    2    3    3    0    0 -0.10691652811E+00  0.78878606839E-02 -0.56191504398E-01  0.12270230518E+00  0.20124815520E-01 0.  0.
         14    1    1    2    0    0  0.84435956642E-02  0.55664688117E-02 -0.29798620945E-01  0.31468042408E-01  0.00000000000E+00 0. -1.
     999901    1    3    3    0    0  0.98472932449E-01 -0.13454329496E-01  0.85990125342E-01  0.88975965241E+00  0.88000000000E+00 0. -1.
        -11    1    4    4    0    0 -0.11925784178E-01 -0.53025846331E-02 -0.49514018157E-02  0.13968508617E-01  0.51100000000E-03 0. -1.
         11    1    4    4    0    0 -0.94990743936E-01  0.13190445317E-01 -0.51240102582E-01  0.10873379656E+00  0.51100000000E-03 0.  1.
</event>
<event>
 8    1  0.1076043E+005  0.1043930E+01  0.7957747E-01            NaN
         13   -1    0    0    0    0  0.00000000000E+00  0.00000000000E+00  0.74505805969E-08  0.10566000000E+00  0.10566000000E+00 0. -1.
     999900   -1    0    0    0    0 -0.00000000000E+00 -0.00000000000E+00 -0.74505805969E-08  0.93827000000E+00  0.93827000000E+00 0.  1.
     999902    2    1    2    0    0 -0.65746420010E-03  0.21440430959E-01  0.11346290400E-01  0.10196635078E+01  0.10193747135E+01 0.  0.
     999903    2    3    3    0    0  0.50752439118E-01 -0.85437478119E-01 -0.76515133018E-01  0.12737123765E+00  0.22214721601E-01 0.  0.
         14    1    1    2    0    0  0.65746420010E-03 -0.21440430959E-01 -0.11346290400E-01  0.24266492221E-01  0.00000000000E+00 0.  1.
     999901    1    3    3    0    0 -0.51409903319E-01  0.10687790908E+00  0.87861423418E-01  0.89229227013E+00  0.88000000000E+00 0. -1.
        -11    1    4    4    0    0  0.29876727290E-01 -0.69181662185E-01 -0.57195800431E-01  0.94606246751E-01  0.51100000000E-03 0.  1.
         11    1    4    4    0    0  0.20875711828E-01 -0.16255815934E-01 -0.19319332587E-01  0.32764990899E-01  0.51100000000E-03 0. -1.
</event>
<event>
 8    1  0.1076043E+005  0.1043930E+01  0.7957747E-01            NaN
         13   -1    0    0    0    0  0.00000000000E+00  0.00000000000E+00  0.74505805969E-08  0.10566000000E+00  0.10566000000E+00 0.  1.
     999900   -1    0    0    0    0 -0.00000000000E+00 -0.00000000000E+00 -0.74505805969E-08  0.93827000000E+00  0.93827000000E+00 0.  1.
     999902    2    1    2    0    0 -0.78686851873E-02  0.21692973325E-01 -0.50790614767E-02  0.10203016661E+01  0.10200280347E+01 0.  0.
     999903    2    3    3    0    0 -0.39215946838E-01 -0.52238177391E-02 -0.12370566229E+00  0.13138129008E+00  0.19818520166E-01 0.  0.
         14    1    1    2    0    0  0.78686851873E-02 -0.21692973325E-01  0.50790614767E-02  0.23628333918E-01  0.00000000000E+00 0. -1.
     999901    1    3    3    0    0  0.31347261650E-01  0.26916791064E-01  0.11862660081E+00  0.88892037600E+00  0.88000000000E+00 0. -1.
        -11    1    4    4    0    0 -0.20727872953E-01 -0.36592804797E-02 -0.35756630283E-01  0.41494972960E-01  0.51100000000E-03 0.  1.
         11    1    4    4    0    0 -0.18488073884E-01 -0.15645372594E-02 -0.87949032009E-01  0.89886317118E-01  0.51100000000E-03 0. -1.
</event>
<event>
 8    1  0.1076043E+005  0.1043930E+01  0.7957747E-01            NaN
         13   -1    0    0    0    0  0.00000000000E+00  0.00000000000E+00  0.74505805969E-08  0.10566000000E+00  0.10566000000E+00 0.  1.
     999900   -1    0    0    0    0 -0.00000000000E+00 -0.00000000000E+00 -0.74505805969E-08  0.93827000000E+00  0.93827000000E+00 0.  1.
     999902    2    1    2    0    0 -0.15786652795E-01 -0.17169980089E-01 -0.14535648786E-02  0.10205603728E+01  0.10202927693E+01 0.  0.
     999903    2    3    3    0    0 -0.12845799872E+00  0.24999247547E-01 -0.36761557728E-02  0.13237232076E+00  0.19557539963E-01 0.  0.
         14    1    1    2    0    0  0.15786652795E-01  0.17169980089E-01  0.14535648786E-02  0.23369627160E-01  0.00000000000E+00 0.  1.
     999901    1    3    3    0    0  0.11267134592E+00 -0.42169227636E-01  0.22225908942E-02  0.88818805208E+00  0.88000000000E+00 0.  1.
        -11    1    4    4    0    0 -0.12382114098E-01  0.85458847157E-02 -0.13201444966E-02  0.15111346651E-01  0.51100000000E-03 0. -1.
         11    1    4    4    0    0 -0.11607588462E+00  0.16453362831E-01 -0.23560112762E-02  0.11726097411E+00  0.51100000000E-03 0.  1.
</event>
<event>
 8    1  0.1076043E+005  0.1043930E+01  0.7957747E-01            NaN
         13   -1    0    0    0    0  0.00000000000E+00  0.00000000000E+00  0.74505805969E-08  0.10566000000E+00  0.10566000000E+00 0.  1.
     999900   -1    0    0    0    0 -0.00000000000E+00 -0.00000000000E+00 -0.74505805969E-08  0.93827000000E+00  0.93827000000E+00 0. -1.
     999902    2    1    2    0    0  0.13742574402E-01 -0.64503184640E-02 -0.18243659838E-01  0.10201961406E+01  0.10199200308E+01 0.  0.
     999903    2    3    3    0    0  0.11798866597E-01 -0.12934577369E+00  0.78537788396E-03  0.13145029658E+00  0.20224273242E-01 0.  0.
         14    1    1    2    0    0 -0.13742574402E-01  0.64503184640E-02  0.18243659838E-01  0.23733859437E-01  0.00000000000E+00 0.  1.
     999901    1    3    3    0    0  0.19437078053E-02  0.12289545523E+00 -0.19029037722E-01  0.88874584398E+00  0.88000000000E+00 0. -1.
        -11    1    4    4    0    0  0.25876557776E-02 -0.33943829559E-01 -0.86854685950E-02  0.35136562343E-01  0.51100000000E-03 0. -1.
         11    1    4    4    0    0  0.92112108193E-02 -0.95401944134E-01  0.94708464789E-02  0.96313734240E-01  0.51100000000E-03 0.  1.
</event>
<event>
 8    1  0.1076043E+005  0.1043930E+01  0.7957747E-01            NaN
         13   -1    0    0    0    0  0.00000000000E+00  0.00000000000E+00  0.74505805969E-08  0.10566000000E+00  0.10566000000E+00 0.  1.
     999900   -1    0    0    0    0 -0.00000000000E+00 -0.00000000000E+00 -0.74505805969E-08  0.93827000000E+00  0.93827000000E+00 0.  1.
     999902    2    1    2    0    0  0.91847075888E-02  0.62728499891E-02  0.20443928274E-01  0.10206563732E+01  0.10203909890E+01 0.  0.
     999903    2    3    3    0    0  0.16633347820E-01 -0.25136005280E-01  0.12847051955E+00  0.13346319084E+00  0.19981538825E-01 0.  0.
         14    1    1    2    0    0 -0.91847075888E-02 -0.62728499891E-02 -0.20443928274E-01  0.23273626785E-01  0.00000000000E+00 0. -1.
     999901    1    3    3    0    0 -0.74486402311E-02  0.31408855269E-01 -0.10802659128E+00  0.88719318238E+00  0.88000000000E+00 0.  1.
        -11    1    4    4    0    0  0.31158189446E-02 -0.14288723013E-01  0.91078231380E-01  0.92246307706E-01  0.51100000000E-03 0. -1.
         11    1    4    4    0    0  0.13517528875E-01 -0.10847282267E-01  0.37392288172E-01  0.41216883133E-01  0.51100000000E-03 0.  1.
</event>
<event>
 8    1  0.1076043E+005  0.1043930E+01  0.7957747E-01            NaN
         13   -1    0    0    0    0  0.00000000000E+00  0.00000000000E+00  0.74505805969E-08  0.10566000000E+00  0.10566000000E+00 0. -1.
     999900   -1    0    0    0    0 -0.00000000000E+00 -0.00000000000E+00 -0.74505805969E-08  0.93827000000E+00  0.93827000000E+00 0. -1.
     999902    2    1    2    0    0  0.58962528135E-03 -0.23876890622E-01  0.86650596181E-02  0.10185225833E+01  0.10182056354E+01 0.  0.
     999903    2    3    3    0    0  0.77996996351E-01 -0.95816921679E-01  0.40665322216E-01  0.13162276600E+00  0.20161105616E-01 0.  0.
         14    1    1    2    0    0 -0.58962528135E-03  0.23876890622E-01 -0.86650596181E-02  0.25407416671E-01  0.00000000000E+00 0.  1.
     999901    1    3    3    0    0 -0.77407371070E-01  0.71940031058E-01 -0.32000262598E-01  0.88689981732E+00  0.88000000000E+00 0.  1.
        -11    1    4    4    0    0  0.60997556327E-01 -0.71779817974E-01  0.39527781698E-01  0.10215552258E+00  0.51100000000E-03 0.  1.
         11    1    4    4    0    0  0.16999440024E-01 -0.24037103705E-01  0.11375405177E-02  0.29467243425E-01  0.51100000000E-03 0. -1.
</event>
<event>
 8    1  0.1076043E+005  0.1043930E+01  0.7957747E-01            NaN
         13   -1    0    0    0    0  0.00000000000E+00  0.00000000000E+00  0.74505805969E-08  0.10566000000E+00  0.10566000000E+00 0.  1.
     999900   -1    0    0    0    0 -0.00000000000E+00 -0.00000000000E+00 -0.74505805969E-08  0.93827000000E+00  0.93827000000E+00 0.  1.
     999902    2    1    2    0    0 -0.17925502986E-01 -0.13257552978E-01 -0.69519683001E-02  0.10205758519E+01  0.10203086069E+01 0.  0.
     999903    2    3    3    0    0 -0.29502392909E-01 -0.87963487705E-01 -0.93409500656E-01  0.13311322965E+00  0.19642574643E-01 0.  0.
         14    1    1    2    0    0  0.17925502986E-01  0.13257552978E-01  0.69519683001E-02  0.23354148058E-01  0.00000000000E+00 0. -1.
     999901    1    3    3    0    0  0.11576889924E-01  0.74705934727E-01  0.86457532356E-01  0.88746262229E+00  0.88000000000E+00 0. -1.
        -11    1    4    4    0    0 -0.45396837716E-02 -0.22769515110E-01 -0.35440283401E-01  0.42371386048E-01  0.51100000000E-03 0.  1.
         11    1    4    4    0    0 -0.24962709138E-01 -0.65193972596E-01 -0.57969217255E-01  0.90741843603E-01  0.51100000000E-03 0. -1.
</event>
<event>
 8    1  0.1076043E+005  0.1043930E+01  0.7957747E-01            NaN
         13   -1    0    0    0    0  0.00000000000E+00  0.00000000000E+00  0.74505805969E-08  0.10566000000E+00  0.10566000000E+00 0.  1.
     999900   -1    0    0    0    0 -0.00000000000E+00 -0.00000000000E+00 -0.74505805969E-08  0.93827000000E+00  0.93827000000E+00 0.  1.
     999902    2    1    2    0    0 -0.22005649829E-01 -0.94219916902E-02 -0.33349651357E-02  0.10197609176E+01  0.10194744649E+01 0.  0.
     999903    2    3    3    0    0  0.11209389975E+00  0.33852084544E-01 -0.46560362429E-01  0.12750323629E+00  0.19447414376E-01 0.  0.
         14    1    1    2    0    0  0.22005649829E-01  0.94219916902E-02  0.33349651357E-02  0.24169082404E-01  0.00000000000E+00 0. -1.
     999901    1    3    3    0    0 -0.13409954958E+00 -0.43274076234E-01  0.43225397293E-01  0.89225768130E+00  0.88000000000E+00 0. -1.
        -11    1    4    4    0    0  0.83049009622E-01  0.16368807603E-01 -0.36067281105E-01  0.92011878303E-01  0.51100000000E-03 0. -1.
         11    1    4    4    0    0  0.29044890132E-01  0.17483276941E-01 -0.10493081324E-01  0.35491357991E-01  0.51100000000E-03 0.  1.
</event>
<event>
 8    1  0.1076043E+005  0.1043930E+01  0.7957747E-01            NaN
         13   -1    0    0    0    0  0.00000000000E+00  0.00000000000E+00  0.74505805969E-08  0.10566000000E+00  0.10566000000E+00 0.  1.
     999900   -1    0    0    0    0 -0.00000000000E+00 -0.00000000000E+00 -0.74505805969E-08  0.93827000000E+00  0.93827000000E+00 0.  1.
     999902    2    1    2    0    0 -0.14328569782E-01 -0.78641594272E-02 -0.14552127362E-01  0.10220458202E+01  0.10218114999E+01 0.  0.
     999903    2    3    3    0    0 -0.25729733724E-01  0.95260680416E-01 -0.86905358527E-01  0.13300155290E+00  0.20006381525E-01 0.  0.
         14    1    1    2    0    0  0.14328569782E-01  0.78641594272E-02  0.14552127362E-01  0.21884179817E-01  0.00000000000E+00 0.  1.
     999901    1    3    3    0    0  0.11401163942E-01 -0.10312483984E+00  0.72353231164E-01  0.88904426728E+00  0.88000000000E+00 0. -1.
        -11    1    4    4    0    0 -0.11218874325E-02  0.19514000290E-01 -0.87731739343E-02  0.21430924866E-01  0.51100000000E-03 0.  1.
         11    1    4    4    0    0 -0.24607846292E-01  0.75746680126E-01 -0.78132184592E-01  0.11157062803E+00  0.51100000000E-03 0. -1.
</event>
<event>
 8    1  0.1076043E+005  0.1043930E+01  0.7957747E-01            NaN
         13   -1    0    0    0    0  0.00000000000E+00  0.00000000000E+00  0.74505805969E-08  0.10566000000E+00  0.10566000000E+00 0. -1.
     999900   -1    0    0    0    0 -0.00000000000E+00 -0.00000000000E+00 -0.74505805969E-08  0.93827000000E+00  0.93827000000E+00 0. -1.
     999902    2    1    2    0    0 -0.48333543362E-02 -0.23370650903E-01  0.29578103483E-02  0.10198821876E+01  0.10195986364E+01 0.  0.
     999903    2    3    3    0    0  0.15733837769E-01 -0.11597031900E+00 -0.59179951451E-01  0.13260612610E+00  0.19632867495E-01 0.  0.
         14    1    1    2    0    0  0.48333543362E-02  0.23370650903E-01 -0.29578103483E-02  0.24047812371E-01  0.00000000000E+00 0.  1.
     999901    1    3    3    0    0 -0.20567192105E-01  0.92599668095E-01  0.62137761799E-01  0.88727606153E+00  0.88000000000E+00 0.  1.
        -11    1    4    4    0    0 -0.12770644544E-03 -0.54986048239E-01 -0.20610482929E-01  0.58724227857E-01  0.51100000000E-03 0.  1.
         11    1    4    4    0    0  0.15861544214E-01 -0.60984270759E-01 -0.38569468522E-01  0.73881898243E-01  0.51100000000E-03 0. -1.
</event>
<event>
 8    1  0.1076043E+005  0.1043930E+01  0.7957747E-01            NaN
         13   -1    0    0    0    0  0.00000000000E+00  0.00000000000E+00  0.74505805969E-08  0.10566000000E+00  0.10566000000E+00 0. -1.
     999900   -1    0    0    0    0 -0.00000000000E+00 -0.00000000000E+00 -0.74505805969E-08  0.93827000000E+00  0.93827000000E+00 0.  1.
     999902    2    1    2    0    0  0.10115143853E-01  0.20483102248E-01 -0.75124329037E-02  0.10198819177E+01  0.10195983601E+01 0.  0.
     999903    2    3    3    0    0  0.35064601956E-01  0.79265450111E-01 -0.98714336309E-01  0.13286690824E+00  0.19913744485E-01 0.  0.
         14    1    1    2    0    0 -0.10115143853E-01 -0.20483102248E-01  0.75124329037E-02  0.24048082273E-01  0.00000000000E+00 0.  1.
     999901    1    3    3    0    0 -0.24949458104E-01 -0.58782347863E-01  0.91201903405E-01  0.88701500949E+00  0.88000000000E+00 0. -1.
        -11    1    4    4    0    0  0.18669644575E-01  0.20697227162E-01 -0.35586681094E-01  0.45206236661E-01  0.51100000000E-03 0. -1.
         11    1    4    4    0    0  0.16394957381E-01  0.58568222948E-01 -0.63127655215E-01  0.87660671574E-01  0.51100000000E-03 0.  1.
</event>
<event>
 8    1  0.1076043E+005  0.1043930E+01  0.7957747E-01            NaN
         13   -1    0    0    0    0  0.00000000000E+00  0.00000000000E+00  0.74505805969E-08  0.10566000000E+00  0.10566000000E+00 0. -1.
     999900   -1    0    0    0    0 -0.00000000000E+00 -0.00000000000E+00 -0.74505805969E-08  0.93827000000E+00  0.93827000000E+00 0. -1.
     999902    2    1    2    0    0  0.14031474159E-01 -0.52680686165E-02 -0.18923022939E-01  0.10197904969E+01  0.10195047533E+01 0.  0.
     999903    2    3    3    0    0 -0.38398836953E-01 -0.11258171092E+00 -0.51409584488E-01  0.13112828207E+00  0.20064113924E-01 0.  0.
         14    1    1    2    0    0 -0.14031474159E-01  0.52680686165E-02  0.18923022939E-01  0.24139503126E-01  0.00000000000E+00 0. -1.
     999901    1    3    3    0    0  0.52430311112E-01  0.10731364230E+00  0.32486561549E-01  0.88866221481E+00  0.88000000000E+00 0. -1.
        -11    1    4    4    0    0 -0.17559094808E-01 -0.39558981897E-01 -0.28437427446E-01  0.51789798802E-01  0.51100000000E-03 0.  1.
         11    1    4    4    0    0 -0.20839742146E-01 -0.73022729021E-01 -0.22972157042E-01  0.79338483263E-01  0.51100000000E-03 0. -1.
</event>
<event>
 8    1  0.1076043E+005  0.1043930E+01  0.7957747E-01            NaN
         13   -1    0    0    0    0  0.00000000000E+00  0.00000000000E+00  0.74505805969E-08  0.10566000000E+00  0.10566000000E+00 0. -1.
     999900   -1    0    0    0    0 -0.00000000000E+00 -0.00000000000E+00 -0.74505805969E-08  0.93827000000E+00  0.93827000000E+00 0. -1.
     999902    2    1    2    0    0 -0.61988217917E-02 -0.25867749725E-01 -0.11058140275E-02  0.10173069143E+01  0.10169584894E+01 0.  0.
     999903    2    3    3    0    0 -0.72043788245E-01 -0.10683488973E+00  0.16998037863E-01  0.13095541133E+00  0.16012038523E-01 0.  0.
         14    1    1    2    0    0  0.61988217917E-02  0.25867749725E-01  0.11058140275E-02  0.26623085698E-01  0.00000000000E+00 0.  1.
     999901    1    3    3    0    0  0.65844966454E-01  0.80967140003E-01 -0.18103851891E-01  0.88635150297E+00  0.88000000000E+00 0. -1.
        -11    1    4    4    0    0 -0.64674724373E-01 -0.10272359657E+00  0.15606338377E-01  0.12238781060E+00  0.51100000000E-03 0.  1.
         11    1    4    4    0    0 -0.73690638728E-02 -0.41112931536E-02  0.13916994861E-02  0.85676007269E-02  0.51100000000E-03 0. -1.
</event>
<event>
 8    1  0.1076043E+005  0.1043930E+01  0.7957747E-01            NaN
         13   -1    0    0    0    0  0.00000000000E+00  0.00000000000E+00  0.74505805969E-08  0.10566000000E+00  0.10566000000E+00 0. -1.
     999900   -1    0    0    0    0 -0.00000000000E+00 -0.00000000000E+00 -0.74505805969E-08  0.93827000000E+00  0.93827000000E+00 0.  1.
     999902    2    1    2    0    0 -0.10222923976E-01 -0.23398956495E-01  0.26194526635E-02  0.10182613251E+01  0.10179377414E+01 0.  0.
     999903    2    3    3    0    0 -0.12020009161E+00  0.31301762668E-01  0.29743944573E-01  0.12931651007E+00  0.20253275500E-01 0.  0.
         14    1    1    2    0    0  0.10222923976E-01  0.23398956495E-01 -0.26194526635E-02  0.25668674916E-01  0.00000000000E+00 0. -1.
     999901    1    3    3    0    0  0.10997716764E+00 -0.54700719163E-01 -0.27124491909E-01  0.88894481501E+00  0.88000000000E+00 0.  1.
        -11    1    4    4    0    0 -0.50435391220E-02 -0.22125842384E-02 -0.70597084902E-03  0.55760498318E-02  0.51100000000E-03 0. -1.
         11    1    4    4    0    0 -0.11515655249E+00  0.33514346906E-01  0.30449915422E-01  0.12374046024E+00  0.51100000000E-03 0.  1.
</event>
<event>
 8    1  0.1076043E+005  0.1043930E+01  0.7957747E-01            NaN
         13   -1    0    0    0    0  0.00000000000E+00  0.00000000000E+00  0.74505805969E-08  0.10566000000E+00  0.10566000000E+00 0.  1.
     999900   -1    0    0    0    0 -0.00000000000E+00 -0.00000000000E+00 -0.74505805969E-08  0.93827000000E+00  0.93827000000E+00 0.  1.
     999902    2    1    2    0    0  0.46807228438E-02 -0.17223814885E-01 -0.16182347016E-01  0.10198377332E+01  0.10195531201E+01 0.  0.
     999903    2    3    3    0    0  0.60566442870E-01  0.67162549886E-01  0.88017654979E-01  0.12792859393E+00  0.20964623729E-01 0.  0.
         14    1    1    2    0    0 -0.46807228438E-02  0.17223814885E-01  0.16182347016E-01  0.24092266819E-01  0.00000000000E+00 0. -1.
     999901    1    3    3    0    0 -0.55885720026E-01 -0.84386364771E-01 -0.10420000199E+00  0.89190913925E+00  0.88000000000E+00 0.  1.
        -11    1    4    4    0    0  0.92811513149E-02  0.24220354421E-01  0.24198530664E-01  0.35476687350E-01  0.51100000000E-03 0. -1.
         11    1    4    4    0    0  0.51285291555E-01  0.42942195466E-01  0.63819124314E-01  0.92451906581E-01  0.51100000000E-03 0.  1.
</event>
<event>
 8    1  0.1076043E+005  0.1043930E+01  0.7957747E-01            NaN
         13   -1    0    0    0    0  0.00000000000E+00  0.00000000000E+00  0.74505805969E-08  0.10566000000E+00  0.10566000000E+00 0. -1.
     999900   -1    0    0    0    0 -0.00000000000E+00 -0.00000000000E+00 -0.74505805969E-08  0.93827000000E+00  0.93827000000E+00 0.  1.
     999902    2    1    2    0    0  0.14537725408E-01  0.33573945516E-02 -0.17532802389E-01  0.10209079080E+01  0.10206482940E+01 0.  0.
     999903    2    3    3    0    0  0.42718816662E-03 -0.11985370918E+00 -0.48248814663E-01  0.13168152700E+00  0.25435847581E-01 0.  0.
         14    1    1    2    0    0 -0.14537725408E-01 -0.33573945516E-02  0.17532802389E-01  0.23022091952E-01  0.00000000000E+00 0. -1.
     999901    1    3    3    0    0  0.14110537242E-01  0.12321110373E+00  0.30716012274E-01  0.88922638105E+00  0.88000000000E+00 0. -1.
        -11    1    4    4    0    0 -0.70635215933E-02 -0.63597258628E-01 -0.36685224523E-01  0.73760229539E-01  0.51100000000E-03 0. -1.
         11    1    4    4    0    0  0.74907097600E-02 -0.56256450553E-01 -0.11563590140E-01  0.57921297460E-01  0.51100000000E-03 0.  1.
</event>
<event>
 8    1  0.1076043E+005  0.1043930E+01  0.7957747E-01            NaN
         13   -1    0    0    0    0  0.00000000000E+00  0.00000000000E+00  0.74505805969E-08  0.10566000000E+00  0.10566000000E+00 0.  1.
     999900   -1    0    0    0    0 -0.00000000000E+00 -0.00000000000E+00 -0.74505805969E-08  0.93827000000E+00  0.93827000000E+00 0.  1.
     999902    2    1    2    0    0  0.69783321473E-02 -0.50099500378E-02 -0.23923471273E-01  0.10185109285E+01  0.10181936860E+01 0.  0.
     999903    2    3    3    0    0  0.84763360427E-01 -0.52516579521E-01  0.77250582975E-01  0.12803713341E+00  0.21978092851E-01 0.  0.
         14    1    1    2    0    0 -0.69783321473E-02  0.50099500378E-02  0.23923471273E-01  0.25419071515E-01  0.00000000000E+00 0.  1.
     999901    1    3    3    0    0 -0.77785028280E-01  0.47506629483E-01 -0.10117405425E+00  0.89047379508E+00  0.88000000000E+00 0.  1.
        -11    1    4    4    0    0  0.33995167733E-01 -0.95723659123E-02  0.31448850176E-01  0.47292630681E-01  0.51100000000E-03 0.  1.
         11    1    4    4    0    0  0.50768192694E-01 -0.42944213608E-01  0.45801732799E-01  0.80744502725E-01  0.51100000000E-03 0. -1.
</event>
<event>
 8    1  0.1076043E+005  0.1043930E+01  0.7957747E-01            NaN
         13   -1    0    0    0    0  0.00000000000E+00  0.00000000000E+00  0.74505805969E-08  0.10566000000E+00  0.10566000000E+00 0.  1.
     999900   -1    0    0    0    0 -0.00000000000E+00 -0.00000000000E+00 -0.74505805969E-08  0.93827000000E+00  0.93827000000E+00 0. -1.
     999902    2    1    2    0    0  0.15685349611E-01  0.13018035882E-01  0.13902764413E-01  0.10192564046E+01  0.10189577185E+01 0.  0.
     999903    2    3    3    0    0  0.72736188451E-01  0.59368577165E-01  0.91760254119E-01  0.13276615674E+00  0.19792096243E-01 0.  0.
         14    1    1    2    0    0 -0.15685349611E-01 -0.13018035882E-01 -0.13902764413E-01  0.24673595380E-01  0.00000000000E+00 0. -1.
     999901    1    3    3    0    0 -0.57050838840E-01 -0.46350541283E-01 -0.77857489707E-01  0.88649024788E+00  0.88000000000E+00 0. -1.
        -11    1    4    4    0    0  0.55426437521E-01  0.43615114820E-01  0.56161943887E-01  0.90159820758E-01  0.51100000000E-03 0.  1.
         11    1    4    4    0    0  0.17309750930E-01  0.15753462345E-01  0.35598310232E-01  0.42606335978E-01  0.51100000000E-03 0. -1.
</event>
<event>
 8    1  0.1076043E+005  0.1043930E+01  0.7957747E-01            NaN
         13   -1    0    0    0    0  0.00000000000E+00  0.00000000000E+00  0.74505805969E-08  0.10566000000E+00  0.10566000000E+00 0.  1.
     999900   -1    0    0    0    0 -0.00000000000E+00 -0.00000000000E+00 -0.74505805969E-08  0.93827000000E+00  0.93827000000E+00 0.  1.
     999902    2    1    2    0    0 -0.18774453500E-01 -0.66241144387E-02 -0.12714782149E-01  0.10203074540E+01  0.10200339582E+01 0.  0.
     999903    2    3    3    0    0  0.80386716964E-01  0.96724262620E-01 -0.18698581410E-01  0.12870797515E+00  0.19962431602E-01 0.  0.
         14    1    1    2    0    0  0.18774453500E-01  0.66241144387E-02  0.12714782149E-01  0.23622546040E-01  0.00000000000E+00 0.  1.
     999901    1    3    3    0    0 -0.99161170464E-01 -0.10334837706E+00  0.59837992610E-02  0.89159947881E+00  0.88000000000E+00 0. -1.
        -11    1    4    4    0    0  0.10034282351E-01  0.19675388961E-01 -0.92270048488E-02  0.23941731193E-01  0.51100000000E-03 0.  1.
         11    1    4    4    0    0  0.70352434613E-01  0.77048873660E-01 -0.94715765614E-02  0.10476624395E+00  0.51100000000E-03 0. -1.
</event>
<event>
 8    1  0.1076043E+005  0.1043930E+01  0.7957747E-01            NaN
         13   -1    0    0    0    0  0.00000000000E+00  0.00000000000E+00  0.74505805969E-08  0.10566000000E+00  0.10566000000E+00 0.  1.
     999900   -1    0    0    0    0 -0.00000000000E+00 -0.00000000000E+00 -0.74505805969E-08  0.93827000000E+00  0.93827000000E+00 0.  1.
     999902    2    1    2    0    0 -0.18674610165E-01  0.29689049598E-02  0.15359959852E-01  0.10195684765E+01  0.10192773884E+01 0.  0.
     999903    2    3    3    0    0 -0.15304995072E-01 -0.16302344274E-01  0.12841045481E+00  0.13212092887E+00  0.21602908118E-01 0.  0.
         14    1    1    2    0    0  0.18674610165E-01 -0.29689049598E-02 -0.15359959852E-01  0.24361523518E-01  0.00000000000E+00 0.  1.
     999901    1    3    3    0    0 -0.33696150933E-02  0.19271249234E-01 -0.11305049495E+00  0.88744754761E+00  0.88000000000E+00 0.  1.
        -11    1    4    4    0    0 -0.67441268679E-02 -0.20450020182E-01  0.91475735818E-01  0.93977433126E-01  0.51100000000E-03 0. -1.
         11    1    4    4    0    0 -0.85608682036E-02  0.41476759075E-02  0.36934718988E-01  0.38143495744E-01  0.51100000000E-03 0.  1.
</event>
<event>
 8    1  0.1076043E+005  0.1043930E+01  0.7957747E-01            NaN
         13   -1    0    0    0    0  0.00000000000E+00  0.00000000000E+00  0.74505805969E-08  0.10566000000E+00  0.10566000000E+00 0.  1.
     999900   -1    0    0    0    0 -0.00000000000E+00 -0.00000000000E+00 -0.74505805969E-08  0.93827000000E+00  0.93827000000E+00 0.  1.
     999902    2    1    2    0    0  0.18353079367E-01 -0.13652802355E-01  0.65071119302E-02  0.10201481363E+01  0.10198708953E+01 0.  0.
     999903    2    3    3    0    0 -0.20873135907E-01  0.17457813509E-01 -0.12379002520E+00  0.12914650314E+00  0.24786808584E-01 0.  0.
         14    1    1    2    0    0 -0.18353079367E-01  0.13652802355E-01 -0.65071119302E-02  0.23781863679E-01  0.00000000000E+00 0. -1.
     999901    1    3    3    0    0  0.39226215273E-01 -0.31110615863E-01  0.13029713713E+00  0.89100163318E+00  0.88000000000E+00 0. -1.
        -11    1    4    4    0    0  0.56776475238E-02  0.41784814052E-02 -0.26543881905E-01  0.27468785482E-01  0.51100000000E-03 0. -1.
         11    1    4    4    0    0 -0.26550783430E-01  0.13279332103E-01 -0.97246143294E-01  0.10167771766E+00  0.51100000000E-03 0.  1.
</event>
<event>
 8    1  0.1076043E+005  0.1043930E+01  0.7957747E-01            NaN
         13   -1    0    0    0    0  0.00000000000E+00  0.00000000000E+00  0.74505805969E-08  0.10566000000E+00  0.10566000000E+00 0. -1.
     999900   -1    0    0    0    0 -0.00000000000E+00 -0.00000000000E+00 -0.74505805969E-08  0.93827000000E+00  0.93827000000E+00 0.  1.
     999902    2    1    2    0    0 -0.83029944646E-03 -0.28015176626E-01  0.25123815843E-01  0.10062903183E+01  0.10055861271E+01 0.  0.
     999903    2    3    3    0    0  0.35256069983E-01 -0.10278119836E+00  0.51678024857E-01  0.12198420041E+00  0.20063940005E-01 0.  0.
         14    1    1    2    0    0  0.83029944646E-03  0.28015176626E-01 -0.25123815843E-01  0.37639681734E-01  0.00000000000E+00 0. -1.
     999901    1    3    3    0    0 -0.36086369429E-01  0.74766021737E-01 -0.26554209014E-01  0.88430611786E+00  0.88000000000E+00 0. -1.
        -11    1    4    4    0    0  0.14890095461E-01 -0.19023796522E-01  0.88676891896E-02  0.25739401887E-01  0.51100000000E-03 0.  1.
         11    1    4    4    0    0  0.20365974522E-01 -0.83757401840E-01  0.42810335668E-01  0.96244798520E-01  0.51100000000E-03 0. -1.
</event>
<event>
 8    1  0.1076043E+005  0.1043930E+01  0.7957747E-01            NaN
         13   -1    0    0    0    0  0.00000000000E+00  0.00000000000E+00  0.74505805969E-08  0.10566000000E+00  0.10566000000E+00 0.  1.
     999900   -1    0    0    0    0 -0.00000000000E+00 -0.00000000000E+00 -0.74505805969E-08  0.93827000000E+00  0.93827000000E+00 0.  1.
     999902    2    1    2    0    0 -0.45615440645E-02  0.19640209913E-01  0.10676553565E-01  0.10211147786E+01  0.10208598615E+01 0.  0.
     999903    2    3    3    0    0 -0.40436603865E-01 -0.83893999038E-01 -0.86939537064E-01  0.12896274368E+00  0.19989600924E-01 0.  0.
         14    1    1    2    0    0  0.45615440645E-02 -0.19640209913E-01 -0.10676553565E-01  0.22815221360E-01  0.00000000000E+00 0. -1.
     999901    1    3    3    0    0  0.35875059801E-01  0.10353420895E+00  0.97616090629E-01  0.89215203496E+00  0.88000000000E+00 0. -1.
        -11    1    4    4    0    0 -0.24965110259E-01 -0.65118598617E-01 -0.72815348279E-01  0.10082670620E+00  0.51100000000E-03 0.  1.
         11    1    4    4    0    0 -0.15471493606E-01 -0.18775400421E-01 -0.14124188784E-01  0.28136037482E-01  0.51100000000E-03 0. -1.
</event>
<event>
 8    1  0.1076043E+005  0.1043930E+01  0.7957747E-01            NaN
         13   -1    0    0    0    0  0.00000000000E+00  0.00000000000E+00  0.74505805969E-08  0.10566000000E+00  0.10566000000E+00 0.  1.
     999900   -1    0    0    0    0 -0.00000000000E+00 -0.00000000000E+00 -0.74505805969E-08  0.93827000000E+00  0.93827000000E+00 0.  1.
     999902    2    1    2    0    0 -0.19618887767E-01 -0.16148832944E-02  0.12393443849E-01  0.10206683136E+01  0.10204032047E+01 0.  0.
     999903    2    3    3    0    0  0.49074941511E-01  0.42052595547E-01 -0.10921944548E+00  0.12858346013E+00  0.20689327473E-01 0.  0.
         14    1    1    2    0    0  0.19618887767E-01  0.16148832944E-02 -0.12393443849E-01  0.23261686433E-01  0.00000000000E+00 0. -1.
     999901    1    3    3    0    0 -0.68693829278E-01 -0.43667478841E-01  0.12161288933E+00  0.89208485344E+00  0.88000000000E+00 0. -1.
        -11    1    4    4    0    0  0.47844145770E-01  0.34946296991E-01 -0.87343118260E-01  0.10554329626E+00  0.51100000000E-03 0.  1.
         11    1    4    4    0    0  0.12307957410E-02  0.71062985555E-02 -0.21876327216E-01  0.23040163862E-01  0.51100000000E-03 0. -1.
</event>
<event>
 8    1  0.1076043E+005  0.1043930E+01  0.7957747E-01            NaN
         13   -1    0    0    0    0  0.00000000000E+00  0.00000000000E+00  0.74505805969E-08  0.10566000000E+00  0.10566000000E+00 0.  1.
     999900   -1    0    0    0    0 -0.00000000000E+00 -0.00000000000E+00 -0.74505805969E-08  0.93827000000E+00  0.93827000000E+00 0. -1.
     999902    2    1    2    0    0  0.13322621303E-01 -0.47963305820E-02 -0.18113992407E-01  0.10209383984E+01  0.10206794793E+01 0.  0.
     999903    2    3    3    0    0 -0.60940109709E-01 -0.90511557283E-01 -0.71330646618E-01  0.13206604217E+00  0.21150398887E-01 0.  0.
         14    1    1    2    0    0 -0.13322621303E-01  0.47963305820E-02  0.18113992407E-01  0.22991601649E-01  0.00000000000E+00 0.  1.
     999901    1    3    3    0    0  0.74262731012E-01  0.85715226701E-01  0.53216654211E-01  0.88887235619E+00  0.88000000000E+00 0.  1.
        -11    1    4    4    0    0 -0.15738319887E-01 -0.19493831050E-01 -0.27318336379E-01  0.37070969577E-01  0.51100000000E-03 0.  1.
         11    1    4    4    0    0 -0.45201789822E-01 -0.71017726234E-01 -0.44012310239E-01  0.94995072588E-01  0.51100000000E-03 0. -1.
</event>
<event>
 8    1  0.1078439E+005  0.1043930E+01  0.7957747E-01            NaN
         13   -1    0    0    0    0  0.00000000000E+00  0.00000000000E+00  0.74505805969E-08  0.10566000000E+00  0.10566000000E+00 0.  1.
     999900   -1    0    0    0    0 -0.00000000000E+00 -0.00000000000E+00 -0.74505805969E-08  0.93827000000E+00  0.93827000000E+00 0. -1.
     999902    2    1    2    0    0  0.13116012252E-02 -0.23867674823E-01 -0.35181839666E-02  0.10197687952E+01  0.10194825314E+01 0.  0.
     999903    2    3    3    0    0  0.12514866447E+00 -0.32663341671E-01  0.57223920481E-02  0.13100652651E+00  0.20022040601E-01 0.  0.
         14    1    1    2    0    0 -0.13116012252E-02  0.23867674823E-01  0.35181839666E-02  0.24161204805E-01  0.00000000000E+00 0.  1.
     999901    1    3    3    0    0 -0.12383706325E+00  0.87956668486E-02 -0.92405760147E-02  0.88876226868E+00  0.88000000000E+00 0. -1.
        -11    1    4    4    0    0  0.79128413695E-01 -0.29824841119E-01  0.18176610708E-03  0.84564301935E-01  0.51100000000E-03 0. -1.
         11    1    4    4    0    0  0.46020250776E-01 -0.28385005519E-02  0.55406259410E-02  0.46442224578E-01  0.51100000000E-03 0.  1.
</event>
<event>
 8    1  0.1076043E+005  0.1043930E+01  0.7957747E-01            NaN
         13   -1    0    0    0    0  0.00000000000E+00  0.00000000000E+00  0.74505805969E-08  0.10566000000E+00  0.10566000000E+00 0. -1.
     999900   -1    0    0    0    0 -0.00000000000E+00 -0.00000000000E+00 -0.74505805969E-08  0.93827000000E+00  0.93827000000E+00 0. -1.
     999902    2    1    2    0    0  0.72682372599E-02  0.22154831542E-01  0.11939201844E-02  0.10205828529E+01  0.10203157699E+01 0.  0.
     999903    2    3    3    0    0  0.71335127098E-01 -0.10073542452E+00 -0.33451556175E-01  0.12906342491E+00  0.17379152094E-01 0.  0.
         14    1    1    2    0    0 -0.72682372599E-02 -0.22154831542E-01 -0.11939201844E-02  0.23347147126E-01  0.00000000000E+00 0.  1.
     999901    1    3    3    0    0 -0.64066889838E-01  0.12289025606E+00  0.34645476360E-01  0.89151942797E+00  0.88000000000E+00 0. -1.
        -11    1    4    4    0    0  0.22694803632E-01 -0.46732092214E-01 -0.12855392923E-01  0.53520695089E-01  0.51100000000E-03 0.  1.
         11    1    4    4    0    0  0.48640323466E-01 -0.54003332304E-01 -0.20596163253E-01  0.75542729819E-01  0.51100000000E-03 0. -1.
</event>
<event>
 8    1  0.1076043E+005  0.1043930E+01  0.7957747E-01            NaN
         13   -1    0    0    0    0  0.00000000000E+00  0.00000000000E+00  0.74505805969E-08  0.10566000000E+00  0.10566000000E+00 0. -1.
     999900   -1    0    0    0    0 -0.00000000000E+00 -0.00000000000E+00 -0.74505805969E-08  0.93827000000E+00  0.93827000000E+00 0. -1.
     999902    2    1    2    0    0  0.21262721984E-01  0.31003538963E-02  0.10436136712E-01  0.10200421686E+01  0.10197624219E+01 0.  0.
     999903    2    3    3    0    0 -0.50767520927E-01  0.17169292741E-01 -0.11467599123E+00  0.12816811049E+00  0.20108599824E-01 0.  0.
         14    1    1    2    0    0 -0.21262721984E-01 -0.31003538963E-02 -0.10436136712E-01  0.23887831420E-01  0.00000000000E+00 0. -1.
     999901    1    3    3    0    0  0.72030242911E-01 -0.14068938845E-01  0.12511212795E+00  0.89187405809E+00  0.88000000000E+00 0.  1.
        -11    1    4    4    0    0 -0.47071205490E-01  0.93731421494E-02 -0.10306357853E+00  0.11369220079E+00  0.51100000000E-03 0.  1.
         11    1    4    4    0    0 -0.36963154368E-02  0.77961505919E-02 -0.11612412707E-01  0.14475909703E-01  0.51100000000E-03 0. -1.
</event>
<event>
 8    1  0.1076043E+005  0.1043930E+01  0.7957747E-01            NaN
         13   -1    0    0    0    0  0.00000000000E+00  0.00000000000E+00  0.74505805969E-08  0.10566000000E+00  0.10566000000E+00 0. -1.
     999900   -1    0    0    0    0 -0.00000000000E+00 -0.00000000000E+00 -0.74505805969E-08  0.93827000000E+00  0.93827000000E+00 0. -1.
     999902    2    1    2    0    0  0.21156099077E-01 -0.11221014912E-01  0.36234326154E-02  0.10197097406E+01  0.10194220588E+01 0.  0.
     999903    2    3    3    0    0 -0.53168120412E-01 -0.94279164348E-01 -0.68134187706E-01  0.12978170871E+00  0.22036663135E-01 0.  0.
         14    1    1    2    0    0 -0.21156099077E-01  0.11221014912E-01 -0.36234326154E-02  0.24220259448E-01  0.00000000000E+00 0.  1.
     999901    1    3    3    0    0  0.74324219489E-01  0.83058149436E-01  0.71757620321E-01  0.88992803185E+00  0.88000000000E+00 0.  1.
        -11    1    4    4    0    0 -0.50293610455E-02 -0.10721084369E-01 -0.16727356117E-01  0.20501260601E-01  0.51100000000E-03 0. -1.
         11    1    4    4    0    0 -0.48138759366E-01 -0.83558079978E-01 -0.51406831589E-01  0.10928044810E+00  0.51100000000E-03 0.  1.
</event>
<event>
 8    1  0.1076043E+005  0.1043930E+01  0.7957747E-01            NaN
         13   -1    0    0    0    0  0.00000000000E+00  0.00000000000E+00  0.74505805969E-08  0.10566000000E+00  0.10566000000E+00 0.  1.
     999900   -1    0    0    0    0 -0.00000000000E+00 -0.00000000000E+00 -0.74505805969E-08  0.93827000000E+00  0.93827000000E+00 0.  1.
     999902    2    1    2    0    0  0.15971066737E-01  0.81872460833E-02  0.12990471357E-01  0.10217746775E+01  0.10215344503E+01 0.  0.
     999903    2    3    3    0    0  0.40578863644E-01  0.12376749869E+00  0.26030637150E-01  0.13378009167E+00  0.15952459059E-01 0.  0.
         14    1    1    2    0    0 -0.15971066737E-01 -0.81872460833E-02 -0.12990471357E-01  0.22155322549E-01  0.00000000000E+00 0. -1.
     999901    1    3    3    0    0 -0.24607796907E-01 -0.11558025260E+00 -0.13040165793E-01  0.88799458579E+00  0.88000000000E+00 0.  1.
        -11    1    4    4    0    0  0.32619094804E-01  0.79497849436E-01  0.12705144648E-01  0.86865385698E-01  0.51100000000E-03 0. -1.
         11    1    4    4    0    0  0.79597688401E-02  0.44269649250E-01  0.13325492502E-01  0.46914705968E-01  0.51100000000E-03 0.  1.
</event>
<event>
 8    1  0.1076043E+005  0.1043930E+01  0.7957747E-01            NaN
         13   -1    0    0    0    0  0.00000000000E+00  0.00000000000E+00  0.74505805969E-08  0.10566000000E+00  0.10566000000E+00 0. -1.
     999900   -1    0    0    0    0 -0.00000000000E+00 -0.00000000000E+00 -0.74505805969E-08  0.93827000000E+00  0.93827000000E+00 0. -1.
     999902    2    1    2    0    0 -0.55160172014E-02 -0.16381014114E-01 -0.12401937961E-01  0.10226562572E+01  0.10224349604E+01 0.  0.
     999903    2    3    3    0    0 -0.10719981496E+00  0.49486891403E-01  0.55413818364E-01  0.13177065704E+00  0.18763316393E-01 0.  0.
         14    1    1    2    0    0  0.55160172014E-02  0.16381014114E-01  0.12401937961E-01  0.21273742839E-01  0.00000000000E+00 0. -1.
     999901    1    3    3    0    0  0.10168379776E+00 -0.65867905518E-01 -0.67815756325E-01  0.89088560012E+00  0.88000000000E+00 0. -1.
        -11    1    4    4    0    0 -0.64386793937E-01  0.39646224376E-01  0.35595203552E-01  0.83574888440E-01  0.51100000000E-03 0.  1.
         11    1    4    4    0    0 -0.42813021022E-01  0.98406670275E-02  0.19818614811E-01  0.48195768597E-01  0.51100000000E-03 0. -1.
</event>
<event>
 8    1  0.1368109E+005  0.1043930E+01  0.7957747E-01            NaN
         13   -1    0    0    0    0  0.00000000000E+00  0.00000000000E+00  0.74505805969E-08  0.10566000000E+00  0.10566000000E+00 0.  1.
     999900   -1    0    0    0    0 -0.00000000000E+00 -0.00000000000E+00 -0.74505805969E-08  0.93827000000E+00  0.93827000000E+00 0. -1.
     999902    2    1    2    0    0 -0.15578196609E-01  0.40172838374E-02 -0.18719778787E-01  0.10192470323E+01  0.10189481164E+01 0.  0.
     999903    2    3    3    0    0  0.15980639116E-01 -0.12199049619E+00  0.30604080985E-01  0.12834481322E+00  0.19967957312E-01 0.  0.
         14    1    1    2    0    0  0.15578196609E-01 -0.40172838374E-02  0.18719778787E-01  0.24682967748E-01  0.00000000000E+00 0. -1.
     999901    1    3    3    0    0 -0.31558835725E-01  0.12600778003E+00 -0.49323859772E-01  0.89090221904E+00  0.88000000000E+00 0. -1.
        -11    1    4    4    0    0  0.76489768401E-03 -0.49906100680E-01  0.20582838221E-01  0.53991835529E-01  0.51100000000E-03 0. -1.
         11    1    4    4    0    0  0.15215741432E-01 -0.72084395510E-01  0.10021242764E-01  0.74352977687E-01  0.51100000000E-03 0.  1.
</event>
<event>
 8    1  0.1076043E+005  0.1043930E+01  0.7957747E-01            NaN
         13   -1    0    0    0    0  0.00000000000E+00  0.00000000000E+00  0.74505805969E-08  0.10566000000E+00  0.10566000000E+00 0.  1.
     999900   -1    0    0    0    0 -0.00000000000E+00 -0.00000000000E+00 -0.74505805969E-08  0.93827000000E+00  0.93827000000E+00 0. -1.
     999902    2    1    2    0    0 -0.22353975707E-01 -0.68772605680E-02  0.15184234021E-02  0.10204927955E+01  0.10202236241E+01 0.  0.
     999903    2    3    3    0    0 -0.42251730996E-01  0.11918170337E+00  0.27419645952E-01  0.13090994028E+00  0.19901967025E-01 0.  0.
         14    1    1    2    0    0  0.22353975707E-01  0.68772605680E-02 -0.15184234021E-02  0.23437204450E-01  0.00000000000E+00 0.  1.
     999901    1    3    3    0    0  0.19897755289E-01 -0.12605896393E+00 -0.25901222550E-01  0.88958285527E+00  0.88000000000E+00 0. -1.
        -11    1    4    4    0    0 -0.32993998668E-01  0.10937114075E+00  0.27083463086E-01  0.11740709293E+00  0.51100000000E-03 0. -1.
         11    1    4    4    0    0 -0.92577323274E-02  0.98105626216E-02  0.33618286534E-03  0.13502847356E-01  0.51100000000E-03 0.  1.
</event>
<event>
 8    1  0.1076043E+005  0.1043930E+01  0.7957747E-01            NaN
         13   -1    0    0    0    0  0.00000000000E+00  0.00000000000E+00  0.74505805969E-08  0.10566000000E+00  0.10566000000E+00 0.  1.
     999900   -1    0    0    0    0 -0.00000000000E+00 -0.00000000000E+00 -0.74505805969E-08  0.93827000000E+00  0.93827000000E+00 0. -1.
     999902    2    1    2    0    0 -0.10588418077E-01  0.20174244632E-01 -0.71503830966E-02  0.10200502445E+01  0.10197706892E+01 0.  0.
     999903    2    3    3    0    0 -0.81446684242E-01  0.10295929431E+00 -0.10666526138E-01  0.13332220187E+00  0.20660495484E-01 0.  0.
         14    1    1    2    0    0  0.10588418077E-01 -0.20174244632E-01  0.71503830966E-02  0.23879755490E-01  0.00000000000E+00 0. -1.
     999901    1    3    3    0    0  0.70858266165E-01 -0.82785049680E-01  0.35161430410E-02  0.88672804264E+00  0.88000000000E+00 0. -1.
        -11    1    4    4    0    0 -0.20457367478E-01  0.16639405732E-01 -0.81261055637E-02  0.27598340890E-01  0.51100000000E-03 0. -1.
         11    1    4    4    0    0 -0.60989316764E-01  0.86319888580E-01 -0.25404205739E-02  0.10572386098E+00  0.51100000000E-03 0.  1.
</event>
<event>
 8    1  0.1076043E+005  0.1043930E+01  0.7957747E-01            NaN
         13   -1    0    0    0    0  0.00000000000E+00  0.00000000000E+00  0.74505805969E-08  0.10566000000E+00  0.10566000000E+00 0. -1.
     999900   -1    0    0    0    0 -0.00000000000E+00 -0.00000000000E+00 -0.74505805969E-08  0.93827000000E+00  0.93827000000E+00 0. -1.
     999902    2    1    2    0    0 -0.11682366455E-01  0.76030644997E-03  0.20044802778E-01  0.10207168600E+01  0.10204528692E+01 0.  0.
     999903    2    3    3    0    0 -0.82581601360E-02 -0.58139605245E-01 -0.11283325776E+00  0.12878776875E+00  0.20162698644E-01 0.  0.
         14    1    1    2    0    0  0.11682366455E-01 -0.76030644997E-03 -0.20044802778E-01  0.23213140035E-01  0.00000000000E+00 0.  1.
     999901    1    3    3    0    0 -0.34242063191E-02  0.58899911695E-01  0.13287806053E+00  0.89192909122E+00  0.88000000000E+00 0. -1.
        -11    1    4    4    0    0 -0.84531685310E-03 -0.44429516798E-01 -0.96305025067E-01  0.10606420460E+00  0.51100000000E-03 0. -1.
         11    1    4    4    0    0 -0.74128432829E-02 -0.13710088447E-01 -0.16528232688E-01  0.22723564147E-01  0.51100000000E-03 0.  1.
</event>
<event>
 8    1  0.1076043E+005  0.1043930E+01  0.7957747E-01            NaN
         13   -1    0    0    0    0  0.00000000000E+00  0.00000000000E+00  0.74505805969E-08  0.10566000000E+00  0.10566000000E+00 0. -1.
     999900   -1    0    0    0    0 -0.00000000000E+00 -0.00000000000E+00 -0.74505805969E-08  0.93827000000E+00  0.93827000000E+00 0.  1.
     999902    2    1    2    0    0 -0.13068501659E-01  0.77451974907E-02  0.17485344027E-01  0.10207672913E+01  0.10205044595E+01 0.  0.
     999903    2    3    3    0    0 -0.94427895761E-01 -0.16705931895E-01 -0.86287264351E-01  0.13060665241E+00  0.20417884459E-01 0.  0.
         14    1    1    2    0    0  0.13068501659E-01 -0.77451974907E-02 -0.17485344027E-01  0.23162708726E-01  0.00000000000E+00 0.  1.
     999901    1    3    3    0    0  0.81359394103E-01  0.24451129386E-01  0.10377260838E+00  0.89016063887E+00  0.88000000000E+00 0.  1.
        -11    1    4    4    0    0 -0.63043879339E-01 -0.18555709307E-01 -0.49906374720E-01  0.82521224111E-01  0.51100000000E-03 0.  1.
         11    1    4    4    0    0 -0.31384016422E-01  0.18497774115E-02 -0.36380889630E-01  0.48085428298E-01  0.51100000000E-03 0. -1.
</event>
<event>
 8    1  0.1076043E+005  0.1043930E+01  0.7957747E-01            NaN
         13   -1    0    0    0    0  0.00000000000E+00  0.00000000000E+00  0.74505805969E-08  0.10566000000E+00  0.10566000000E+00 0. -1.
     999900   -1    0    0    0    0 -0.00000000000E+00 -0.00000000000E+00 -0.74505805969E-08  0.93827000000E+00  0.93827000000E+00 0. -1.
     999902    2    1    2    0    0  0.21791779117E-01  0.98807719743E-02 -0.66763866563E-03  0.10199934791E+01  0.10197125773E+01 0.  0.
     999903    2    3    3    0    0 -0.90801729602E-01 -0.30721391557E-01  0.82439126015E-01  0.12801109797E+00  0.20046787976E-01 0.  0.
         14    1    1    2    0    0 -0.21791779117E-01 -0.98807719743E-02  0.66763866563E-03  0.23936520910E-01  0.00000000000E+00 0.  1.
     999901    1    3    3    0    0  0.11259350872E+00  0.40602163531E-01 -0.83106764680E-01  0.89198238112E+00  0.88000000000E+00 0. -1.
        -11    1    4    4    0    0 -0.82786991484E-01 -0.24119207807E-01  0.66123453440E-01  0.10866459571E+00  0.51100000000E-03 0.  1.
         11    1    4    4    0    0 -0.80147381181E-02 -0.66021837495E-02  0.16315672575E-01  0.19346502266E-01  0.51100000000E-03 0. -1.
</event>
<event>
 8    1  0.1076043E+005  0.1043930E+01  0.7957747E-01            NaN
         13   -1    0    0    0    0  0.00000000000E+00  0.00000000000E+00  0.74505805969E-08  0.10566000000E+00  0.10566000000E+00 0.  1.
     999900   -1    0    0    0    0 -0.00000000000E+00 -0.00000000000E+00 -0.74505805969E-08  0.93827000000E+00  0.93827000000E+00 0.  1.
     999902    2    1    2    0    0 -0.73689662352E-02  0.14813375982E-01  0.17852469022E-01  0.10195897366E+01  0.10192991625E+01 0.  0.
     999903    2    3    3    0    0  0.51831287443E-01  0.10267745683E+00 -0.57384085258E-01  0.13004754771E+00  0.19755731501E-01 0.  0.
         14    1    1    2    0    0  0.73689662352E-02 -0.14813375982E-01 -0.17852469022E-01  0.24340263383E-01  0.00000000000E+00 0. -1.
     999901    1    3    3    0    0 -0.59200253678E-01 -0.87864080844E-01  0.75236554281E-01  0.88954218890E+00  0.88000000000E+00 0. -1.
        -11    1    4    4    0    0  0.30156119127E-01  0.71804462526E-01 -0.46816878106E-01  0.90869981600E-01  0.51100000000E-03 0. -1.
         11    1    4    4    0    0  0.21675168316E-01  0.30872994300E-01 -0.10567207153E-01  0.39177566114E-01  0.51100000000E-03 0.  1.
</event>
<event>
 8    1  0.1076043E+005  0.1043930E+01  0.7957747E-01            NaN
         13   -1    0    0    0    0  0.00000000000E+00  0.00000000000E+00  0.74505805969E-08  0.10566000000E+00  0.10566000000E+00 0.  1.
     999900   -1    0    0    0    0 -0.00000000000E+00 -0.00000000000E+00 -0.74505805969E-08  0.93827000000E+00  0.93827000000E+00 0.  1.
     999902    2    1    2    0    0  0.12069378243E-01  0.21734685910E-01  0.32503037815E-02  0.10188574864E+01  0.10185489417E+01 0.  0.
     999903    2    3    3    0    0  0.12305533848E+00  0.34819583393E-01  0.23462633849E-01  0.13155954536E+00  0.20059887170E-01 0.  0.
         14    1    1    2    0    0 -0.12069378243E-01 -0.21734685910E-01 -0.32503037815E-02  0.25072513585E-01  0.00000000000E+00 0. -1.
     999901    1    3    3    0    0 -0.11098596023E+00 -0.13084897483E-01 -0.20212330068E-01  0.88729794105E+00  0.88000000000E+00 0.  1.
        -11    1    4    4    0    0  0.49125776620E-01  0.46070932560E-02  0.50787180370E-02  0.49604654365E-01  0.51100000000E-03 0.  1.
         11    1    4    4    0    0  0.73929561857E-01  0.30212490137E-01  0.18383915812E-01  0.81954890996E-01  0.51100000000E-03 0. -1.
</event>
<event>
 8    1  0.1076043E+005  0.1043930E+01  0.7957747E-01            NaN
         13   -1    0    0    0    0  0.00000000000E+00  0.00000000000E+00  0.74505805969E-08  0.10566000000E+00  0.10566000000E+00 0. -1.
     999900   -1    0    0    0    0 -0.00000000000E+00 -0.00000000000E+00 -0.74505805969E-08  0.93827000000E+00  0.93827000000E+00 0.  1.
     999902    2    1    2    0    0 -0.94779926916E-02  0.14636581843E-01  0.15326155599E-01  0.10207146405E+01  0.10204505987E+01 0.  0.
     999903    2    3    3    0    0  0.10765696355E+00 -0.31125056616E-02 -0.67016927469E-01  0.12896579049E+00  0.23263642383E-01 0.  0.
         14    1    1    2    0    0  0.94779926916E-02 -0.14636581843E-01 -0.15326155599E-01  0.23215359548E-01  0.00000000000E+00 0.  1.
     999901    1    3    3    0    0 -0.11713495624E+00  0.17749087505E-01  0.82343083068E-01  0.89174884996E+00  0.88000000000E+00 0. -1.
        -11    1    4    4    0    0  0.42275677007E-01 -0.90758790119E-02 -0.36401770450E-01  0.56523928200E-01  0.51100000000E-03 0.  1.
         11    1    4    4    0    0  0.65381286542E-01  0.59633733503E-02 -0.30615157019E-01  0.72441862289E-01  0.51100000000E-03 0. -1.
</event>
<event>
 8    1  0.1076043E+005  0.1043930E+01  0.7957747E-01            NaN
         13   -1    0    0    0    0  0.00000000000E+00  0.00000000000E+00  0.74505805969E-08  0.10566000000E+00  0.10566000000E+00 0. -1.
     999900   -1    0    0    0    0 -0.00000000000E+00 -0.00000000000E+00 -0.74505805969E-08  0.93827000000E+00  0.93827000000E+00 0.  1.
     999902    2    1    2    0    0  0.10916891762E-01 -0.16931323332E-01 -0.10975708938E-01  0.10209884564E+01  0.10207306764E+01 0.  0.
     999903    2    3    3    0    0 -0.78457757324E-01 -0.34977110035E-02 -0.10369143978E+00  0.13151417540E+00  0.19396133112E-01 0.  0.
         14    1    1    2    0    0 -0.10916891762E-01  0.16931323332E-01  0.10975708938E-01  0.22941543588E-01  0.00000000000E+00 0.  1.
     999901    1    3    3    0    0  0.89374649086E-01 -0.13433612328E-01  0.92715730846E-01  0.88947428101E+00  0.88000000000E+00 0. -1.
        -11    1    4    4    0    0 -0.49099912060E-01  0.68558477235E-02 -0.67935835679E-01  0.84103168208E-01  0.51100000000E-03 0.  1.
         11    1    4    4    0    0 -0.29357845264E-01 -0.10353558727E-01 -0.35755604104E-01  0.47411007190E-01  0.51100000000E-03 0. -1.
</event>
<event>
 8    1  0.1076043E+005  0.1043930E+01  0.7957747E-01            NaN
         13   -1    0    0    0    0  0.00000000000E+00  0.00000000000E+00  0.74505805969E-08  0.10566000000E+00  0.10566000000E+00 0. -1.
     999900   -1    0    0    0    0 -0.00000000000E+00 -0.00000000000E+00 -0.74505805969E-08  0.93827000000E+00  0.93827000000E+00 0.  1.
     999902    2    1    2    0    0 -0.10290126578E-01 -0.45021626280E-02 -0.20571745751E-01  0.10204917216E+01  0.10202225252E+01 0.  0.
     999903    2    3    3    0    0  0.83329305529E-01 -0.29570830389E-01 -0.95761479173E-01  0.13198368434E+00  0.20765954593E-01 0.  0.
         14    1    1    2    0    0  0.10290126578E-01  0.45021626280E-02  0.20571745751E-01  0.23438278447E-01  0.00000000000E+00 0. -1.
     999901    1    3    3    0    0 -0.93619432107E-01  0.25068667761E-01  0.75189733422E-01  0.88850803721E+00  0.88000000000E+00 0. -1.
        -11    1    4    4    0    0  0.30637857771E-01 -0.21613167243E-01 -0.37693495386E-01  0.53168299225E-01  0.51100000000E-03 0.  1.
         11    1    4    4    0    0  0.52691447758E-01 -0.79576631461E-02 -0.58067983786E-01  0.78815385120E-01  0.51100000000E-03 0. -1.
</event>
<event>
 8    1  0.1076043E+005  0.1043930E+01  0.7957747E-01            NaN
         13   -1    0    0    0    0  0.00000000000E+00  0.00000000000E+00  0.74505805969E-08  0.10566000000E+00  0.10566000000E+00 0. -1.
     999900   -1    0    0    0    0 -0.00000000000E+00 -0.00000000000E+00 -0.74505805969E-08  0.93827000000E+00  0.93827000000E+00 0.  1.
     999902    2    1    2    0    0  0.87133437976E-02 -0.83062922855E-02 -0.20552573261E-01  0.10201114123E+01  0.10198333042E+01 0.  0.
     999903    2    3    3    0    0 -0.11745004325E+00  0.33401440454E-01 -0.38512998537E-01  0.12995450925E+00  0.22243078332E-01 0.  0.
         14    1    1    2    0    0 -0.87133437976E-02  0.83062922855E-02  0.20552573261E-01  0.23818587685E-01  0.00000000000E+00 0. -1.
     999901    1    3    3    0    0  0.12616338705E+00 -0.41707732740E-01  0.17960425276E-01  0.89015690307E+00  0.88000000000E+00 0. -1.
        -11    1    4    4    0    0 -0.58384718684E-01  0.10971393845E-01 -0.85288905481E-02  0.60017913607E-01  0.51100000000E-03 0. -1.
         11    1    4    4    0    0 -0.59065324566E-01  0.22430046609E-01 -0.29984107989E-01  0.69936595641E-01  0.51100000000E-03 0.  1.
</event>
<event>
 8    1  0.1076043E+005  0.1043930E+01  0.7957747E-01            NaN
         13   -1    0    0    0    0  0.00000000000E+00  0.00000000000E+00  0.74505805969E-08  0.10566000000E+00  0.10566000000E+00 0.  1.
     999900   -1    0    0    0    0 -0.00000000000E+00 -0.00000000000E+00 -0.74505805969E-08  0.93827000000E+00  0.93827000000E+00 0.  1.
     999902    2    1    2    0    0 -0.95342117208E-02  0.99157292826E-02 -0.18485907108E-01  0.10208876121E+01  0.10206275348E+01 0.  0.
     999903    2    3    3    0    0  0.93035915729E-01 -0.18553763824E-01 -0.89143660185E-01  0.13166117231E+00  0.19701481548E-01 0.  0.
         14    1    1    2    0    0  0.95342117208E-02 -0.99157292826E-02  0.18485907108E-01  0.23042387939E-01  0.00000000000E+00 0.  1.
     999901    1    3    3    0    0 -0.10257012745E+00  0.28469493107E-01  0.70657753077E-01  0.88922643975E+00  0.88000000000E+00 0.  1.
        -11    1    4    4    0    0  0.83046941541E-01 -0.10940834357E-01 -0.72357406330E-01  0.11069034162E+00  0.51100000000E-03 0.  1.
         11    1    4    4    0    0  0.99889741881E-02 -0.76129294674E-02 -0.16786253855E-01  0.20970830692E-01  0.51100000000E-03 0. -1.
</event>
<event>
 8    1  0.1076043E+005  0.1043930E+01  0.7957747E-01            NaN
         13   -1    0    0    0    0  0.00000000000E+00  0.00000000000E+00  0.74505805969E-08  0.10566000000E+00  0.10566000000E+00 0.  1.
     999900   -1    0    0    0    0 -0.00000000000E+00 -0.00000000000E+00 -0.74505805969E-08  0.93827000000E+00  0.93827000000E+00 0. -1.
     999902    2    1    2    0    0  0.21292388270E-01  0.38148983354E-02 -0.47640885516E-02  0.10217801515E+01  0.10215400444E+01 0.  0.
     999903    2    3    3    0    0  0.27212922639E-01  0.11504330307E+00  0.56668872023E-01  0.13263403340E+00  0.20122649392E-01 0.  0.
         14    1    1    2    0    0 -0.21292388270E-01 -0.38148983354E-02  0.47640885516E-02  0.22149848471E-01  0.00000000000E+00 0. -1.
     999901    1    3    3    0    0 -0.59205343694E-02 -0.11122840473E+00 -0.61432960574E-01  0.88914611813E+00  0.88000000000E+00 0. -1.
        -11    1    4    4    0    0  0.30194041053E-01  0.99435447536E-01  0.47273439122E-01  0.11416710345E+00  0.51100000000E-03 0. -1.
         11    1    4    4    0    0 -0.29811184135E-02  0.15607855534E-01  0.93954329013E-02  0.18466929950E-01  0.51100000000E-03 0.  1.
</event>
<event>
 8    1  0.1076043E+005  0.1043930E+01  0.7957747E-01            NaN
         13   -1    0    0    0    0  0.00000000000E+00  0.00000000000E+00  0.74505805969E-08  0.10566000000E+00  0.10566000000E+00 0. -1.
     999900   -1    0    0    0    0 -0.00000000000E+00 -0.00000000000E+00 -0.74505805969E-08  0.93827000000E+00  0.93827000000E+00 0. -1.
     999902    2    1    2    0    0  0.22664553630E-01  0.92601381000E-02 -0.14039950352E-03  0.10194462940E+01  0.10191522430E+01 0.  0.
     999903    2    3    3    0    0  0.47207724161E-01 -0.76215880010E-01 -0.92262174605E-01  0.13017977692E+00  0.19925758984E-01 0.  0.
         14    1    1    2    0    0 -0.22664553630E-01 -0.92601381000E-02  0.14039950352E-03  0.24483706029E-01  0.00000000000E+00 0. -1.
     999901    1    3    3    0    0 -0.24543170531E-01  0.85476018110E-01  0.92121775102E-01  0.88926651705E+00  0.88000000000E+00 0.  1.
        -11    1    4    4    0    0  0.23271829007E-01 -0.19821429542E-01 -0.30668941980E-01  0.43304875217E-01  0.51100000000E-03 0. -1.
         11    1    4    4    0    0  0.23935895154E-01 -0.56394450468E-01 -0.61593232626E-01  0.86874901708E-01  0.51100000000E-03 0.  1.
</event>
<event>
 8    1  0.1076043E+005  0.1043930E+01  0.7957747E-01            NaN
         13   -1    0    0    0    0  0.00000000000E+00  0.00000000000E+00  0.74505805969E-08  0.10566000000E+00  0.10566000000E+00 0.  1.
     999900   -1    0    0    0    0 -0.00000000000E+00 -0.00000000000E+00 -0.74505805969E-08  0.93827000000E+00  0.93827000000E+00 0.  1.
     999902    2    1    2    0    0  0.24060934683E-01  0.81454082597E-03 -0.83788062454E-02  0.10184388947E+01  0.10181198288E+01 0.  0.
     999903    2    3    3    0    0  0.62441366933E-01  0.10771958251E+00 -0.33681627844E-01  0.13077793562E+00  0.21586654013E-01 0.  0.
         14    1    1    2    0    0 -0.24060934683E-01 -0.81454082597E-03  0.83788062454E-02  0.25491105286E-01  0.00000000000E+00 0. -1.
     999901    1    3    3    0    0 -0.38380432250E-01 -0.10690504168E+00  0.25302821599E-01  0.88766095909E+00  0.88000000000E+00 0. -1.
        -11    1    4    4    0    0  0.44786022897E-01  0.79229971696E-01 -0.14511950412E-01  0.92163084191E-01  0.51100000000E-03 0.  1.
         11    1    4    4    0    0  0.17655344037E-01  0.28489610810E-01 -0.19169677432E-01  0.38614851431E-01  0.51100000000E-03 0. -1.
</event>
<event>
 8    1  0.1076043E+005  0.1043930E+01  0.7957747E-01            NaN
         13   -1    0    0    0    0  0.00000000000E+00  0.00000000000E+00  0.74505805969E-08  0.10566000000E+00  0.10566000000E+00 0.  1.
     999900   -1    0    0    0    0 -0.00000000000E+00 -0.00000000000E+00 -0.74505805969E-08  0.93827000000E+00  0.93827000000E+00 0.  1.
     999902    2    1    2    0    0 -0.94636818242E-02  0.21550055171E-01  0.60545381828E-03  0.10203857284E+01  0.10201140632E+01 0.  0.
     999903    2    3    3    0    0  0.14181214208E-01 -0.11591937613E+00  0.47747401839E-01  0.12815297349E+00  0.22471351351E-01 0.  0.
         14    1    1    2    0    0  0.94636818242E-02 -0.21550055171E-01 -0.60545381828E-03  0.23544271615E-01  0.00000000000E+00 0. -1.
     999901    1    3    3    0    0 -0.23644896032E-01  0.13746943130E+00 -0.47141948021E-01  0.89223275490E+00  0.88000000000E+00 0. -1.
        -11    1    4    4    0    0 -0.33000890114E-02 -0.49018248131E-01  0.26445436858E-01  0.55796966664E-01  0.51100000000E-03 0.  1.
         11    1    4    4    0    0  0.17481303220E-01 -0.66901128002E-01  0.21301964981E-01  0.72356006822E-01  0.51100000000E-03 0. -1.
</event>
<event>
 8    1  0.1076043E+005  0.1043930E+01  0.7957747E-01            NaN
         13   -1    0    0    0    0  0.00000000000E+00  0.00000000000E+00  0.74505805969E-08  0.10566000000E+00  0.10566000000E+00 0. -1.
     999900   -1    0    0    0    0 -0.00000000000E+00 -0.00000000000E+00 -0.74505805969E-08  0.93827000000E+00  0.93827000000E+00 0.  1.
     999902    2    1    2    0    0  0.74214301300E-02  0.22443941149E-01  0.55401545298E-02  0.10196503494E+01  0.10193612381E+01 0.  0.
     999903    2    3    3    0    0 -0.45688610201E-01  0.81223452102E-01 -0.89707821380E-01  0.13097274523E+00  0.20534568499E-01 0.  0.
         14    1    1    2    0    0 -0.74214301300E-02 -0.22443941149E-01 -0.55401545298E-02  0.24279650568E-01  0.00000000000E+00 0.  1.
     999901    1    3    3    0    0  0.53110040331E-01 -0.58779510953E-01  0.95247975910E-01  0.88867760420E+00  0.88000000000E+00 0.  1.
        -11    1    4    4    0    0 -0.19462427456E-01  0.50746153783E-01 -0.42748723893E-01  0.69149640070E-01  0.51100000000E-03 0. -1.
         11    1    4    4    0    0 -0.26226182745E-01  0.30477298319E-01 -0.46959097486E-01  0.61823105163E-01  0.51100000000E-03 0.  1.
</event>
<event>
 8    1  0.1076043E+005  0.1043930E+01  0.7957747E-01            NaN
         13   -1    0    0    0    0  0.00000000000E+00  0.00000000000E+00  0.74505805969E-08  0.10566000000E+00  0.10566000000E+00 0.  1.
     999900   -1    0    0    0    0 -0.00000000000E+00 -0.00000000000E+00 -0.74505805969E-08  0.93827000000E+00  0.93827000000E+00 0. -1.
     999902    2    1    2    0    0  0.22607415638E-01 -0.78839348547E-02 -0.90584076476E-03  0.10199701958E+01  0.10196887408E+01 0.  0.
     999903    2    3    3    0    0  0.12888987913E+00  0.37267757725E-02 -0.26940984163E-01  0.13311699523E+00  0.19178842230E-01 0.  0.
         14    1    1    2    0    0 -0.22607415638E-01  0.78839348547E-02  0.90584076476E-03  0.23959804217E-01  0.00000000000E+00 0.  1.
     999901    1    3    3    0    0 -0.10628246350E+00 -0.11610710627E-01  0.26035143399E-01  0.88685320056E+00  0.88000000000E+00 0.  1.
        -11    1    4    4    0    0  0.85712357196E-01  0.11515933805E-01 -0.18091419631E-01  0.88356015600E-01  0.51100000000E-03 0.  1.
         11    1    4    4    0    0  0.43177521938E-01 -0.77891580328E-02 -0.88495645322E-02  0.44760979625E-01  0.51100000000E-03 0. -1.
</event>
<event>
 8    1  0.1076043E+005  0.1043930E+01  0.7957747E-01            NaN
         13   -1    0    0    0    0  0.00000000000E+00  0.00000000000E+00  0.74505805969E-08  0.10566000000E+00  0.10566000000E+00 0.  1.
     999900   -1    0    0    0    0 -0.00000000000E+00 -0.00000000000E+00 -0.74505805969E-08  0.93827000000E+00  0.93827000000E+00 0.  1.
     999902    2    1    2    0    0  0.11626446991E-01 -0.14255032056E-01  0.14150492001E-01  0.10207218843E+01  0.10204580092E+01 0.  0.
     999903    2    3    3    0    0 -0.64073936164E-01  0.10475331017E+00  0.34905345352E-01  0.12924877905E+00  0.20202437059E-01 0.  0.
         14    1    1    2    0    0 -0.11626446991E-01  0.14255032056E-01 -0.14150492001E-01  0.23208115658E-01  0.00000000000E+00 0. -1.
     999901    1    3    3    0    0  0.75700383155E-01 -0.11900834223E+00 -0.20754853351E-01  0.89147310530E+00  0.88000000000E+00 0.  1.
        -11    1    4    4    0    0 -0.49229777913E-01  0.68155605475E-01  0.16531287214E-01  0.85687234574E-01  0.51100000000E-03 0. -1.
         11    1    4    4    0    0 -0.14844158250E-01  0.36597704696E-01  0.18374058138E-01  0.43561544471E-01  0.51100000000E-03 0.  1.
</event>
<event>
 8    1  0.1076043E+005  0.1043930E+01  0.7957747E-01            NaN
         13   -1    0    0    0    0  0.00000000000E+00  0.00000000000E+00  0.74505805969E-08  0.10566000000E+00  0.10566000000E+00 0.  1.
     999900   -1    0    0    0    0 -0.00000000000E+00 -0.00000000000E+00 -0.74505805969E-08  0.93827000000E+00  0.93827000000E+00 0.  1.
     999902    2    1    2    0    0 -0.13333112586E-01 -0.74106594245E-02 -0.17543808303E-01  0.10206818824E+01  0.10204170863E+01 0.  0.
     999903    2    3    3    0    0  0.40244801823E-01 -0.12277434754E+00  0.10340590699E-01  0.13109944483E+00  0.19671098888E-01 0.  0.
         14    1    1    2    0    0  0.13333112586E-01  0.74106594245E-02  0.17543808303E-01  0.23248117647E-01  0.00000000000E+00 0.  1.
     999901    1    3    3    0    0 -0.53577914409E-01  0.11536368811E+00 -0.27884399003E-01  0.88958243753E+00  0.88000000000E+00 0.  1.
        -11    1    4    4    0    0  0.18310749492E-01 -0.35191943068E-01  0.95509781869E-02  0.40807336462E-01  0.51100000000E-03 0.  1.
         11    1    4    4    0    0  0.21934052331E-01 -0.87582404468E-01  0.78961251256E-03  0.90292108365E-01  0.51100000000E-03 0. -1.
</event>
<event>
 8    1  0.1076043E+005  0.1043930E+01  0.7957747E-01            NaN
         13   -1    0    0    0    0  0.00000000000E+00  0.00000000000E+00  0.74505805969E-08  0.10566000000E+00  0.10566000000E+00 0. -1.
     999900   -1    0    0    0    0 -0.00000000000E+00 -0.00000000000E+00 -0.74505805969E-08  0.93827000000E+00  0.93827000000E+00 0. -1.
     999902    2    1    2    0    0 -0.20659896305E-02 -0.17566550928E-01 -0.15497534682E-01  0.10204135035E+01  0.10201424864E+01 0.  0.
     999903    2    3    3    0    0  0.91749160878E-01  0.74245106465E-01 -0.51195587819E-01  0.12996136339E+00  0.18404439838E-01 0.  0.
         14    1    1    2    0    0  0.20659896305E-02  0.17566550928E-01  0.15497534682E-01  0.23516496463E-01  0.00000000000E+00 0. -1.
     999901    1    3    3    0    0 -0.93815150509E-01 -0.91811657393E-01  0.35698053137E-01  0.89045214015E+00  0.88000000000E+00 0. -1.
        -11    1    4    4    0    0  0.19534205634E-01  0.24700940382E-01 -0.90503726921E-02  0.32770291613E-01  0.51100000000E-03 0.  1.
         11    1    4    4    0    0  0.72214955244E-01  0.49544166082E-01 -0.42145215127E-01  0.97191071775E-01  0.51100000000E-03 0. -1.
</event>
<event>
 8    1  0.1076043E+005  0.1043930E+01  0.7957747E-01            NaN
         13   -1    0    0    0    0  0.00000000000E+00  0.00000000000E+00  0.74505805969E-08  0.10566000000E+00  0.10566000000E+00 0. -1.
     999900   -1    0    0    0    0 -0.00000000000E+00 -0.00000000000E+00 -0.74505805969E-08  0.93827000000E+00  0.93827000000E+00 0.  1.
     999902    2    1    2    0    0  0.84257036592E-02 -0.99601163899E-02 -0.19038599301E-01  0.10208504709E+01  0.10205895449E+01 0.  0.
     999903    2    3    3    0    0 -0.67468420463E-01 -0.10929056274E+00  0.18431773799E-01  0.13122668270E+00  0.19603497226E-01 0.  0.
         14    1    1    2    0    0 -0.84257036592E-02  0.99601163899E-02  0.19038599301E-01  0.23079529111E-01  0.00000000000E+00 0. -1.
     999901    1    3    3    0    0  0.75894124122E-01  0.99330446351E-01 -0.37470373099E-01  0.88962378819E+00  0.88000000000E+00 0.  1.
        -11    1    4    4    0    0 -0.31371267351E-01 -0.37375943722E-01  0.57912495783E-03  0.48802808229E-01  0.51100000000E-03 0. -1.
         11    1    4    4    0    0 -0.36097153112E-01 -0.71914619019E-01  0.17852648841E-01  0.82423874473E-01  0.51100000000E-03 0.  1.
</event>
<event>
 8    1  0.1076043E+005  0.1043930E+01  0.7957747E-01            NaN
         13   -1    0    0    0    0  0.00000000000E+00  0.00000000000E+00  0.74505805969E-08  0.10566000000E+00  0.10566000000E+00 0. -1.
     999900   -1    0    0    0    0 -0.00000000000E+00 -0.00000000000E+00 -0.74505805969E-08  0.93827000000E+00  0.93827000000E+00 0. -1.
     999902    2    1    2    0    0  0.11959786629E-01  0.15734329180E-01 -0.16858642147E-01  0.10179527133E+01  0.10176212002E+01 0.  0.
     999903    2    3    3    0    0  0.76497125121E-01 -0.21158186583E-01 -0.10269486754E+00  0.13065683062E+00  0.15016409599E-01 0.  0.
         14    1    1    2    0    0 -0.11959786629E-01 -0.15734329180E-01  0.16858642147E-01  0.25977286733E-01  0.00000000000E+00 0.  1.
     999901    1    3    3    0    0 -0.64537338492E-01  0.36892515763E-01  0.85836225389E-01  0.88729588265E+00  0.88000000000E+00 0. -1.
        -11    1    4    4    0    0  0.18073036859E-01  0.82429658528E-04 -0.17249887689E-01  0.24989221721E-01  0.51100000000E-03 0. -1.
         11    1    4    4    0    0  0.58424088262E-01 -0.21240616241E-01 -0.85444979847E-01  0.10566760890E+00  0.51100000000E-03 0.  1.
</event>
<event>
 8    1  0.1076043E+005  0.1043930E+01  0.7957747E-01            NaN
         13   -1    0    0    0    0  0.00000000000E+00  0.00000000000E+00  0.74505805969E-08  0.10566000000E+00  0.10566000000E+00 0. -1.
     999900   -1    0    0    0    0 -0.00000000000E+00 -0.00000000000E+00 -0.74505805969E-08  0.93827000000E+00  0.93827000000E+00 0. -1.
     999902    2    1    2    0    0 -0.64432750744E-02 -0.24452482117E-01 -0.48992532140E-03  0.10186381100E+01  0.10183240738E+01 0.  0.
     999903    2    3    3    0    0  0.40295488628E-01 -0.45473119781E-01  0.11286244403E+00  0.12988891087E+00  0.21015871802E-01 0.  0.
         14    1    1    2    0    0  0.64432750744E-02  0.24452482117E-01  0.48992532140E-03  0.25291890048E-01  0.00000000000E+00 0. -1.
     999901    1    3    3    0    0 -0.46738763702E-01  0.21020637664E-01 -0.11335236935E+00  0.88874919909E+00  0.88000000000E+00 0. -1.
        -11    1    4    4    0    0  0.82273185069E-02 -0.16698224504E-01  0.18976128164E-01  0.26587102748E-01  0.51100000000E-03 0.  1.
         11    1    4    4    0    0  0.32068170121E-01 -0.28774895277E-01  0.93886315863E-01  0.10330180812E+00  0.51100000000E-03 0. -1.
</event>
<event>
 8    1  0.1076043E+005  0.1043930E+01  0.7957747E-01            NaN
         13   -1    0    0    0    0  0.00000000000E+00  0.00000000000E+00  0.74505805969E-08  0.10566000000E+00  0.10566000000E+00 0.  1.
     999900   -1    0    0    0    0 -0.00000000000E+00 -0.00000000000E+00 -0.74505805969E-08  0.93827000000E+00  0.93827000000E+00 0.  1.
     999902    2    1    2    0    0 -0.67016130847E-02 -0.18880301333E-03  0.22491038903E-01  0.10204609971E+01  0.10201910863E+01 0.  0.
     999903    2    3    3    0    0 -0.87843003628E-01 -0.59271192142E-01  0.77700100227E-01  0.13303624291E+00  0.20781454405E-01 0.  0.
         14    1    1    2    0    0  0.67016130847E-02  0.18880301333E-03 -0.22491038903E-01  0.23469002864E-01  0.00000000000E+00 0. -1.
     999901    1    3    3    0    0  0.81141390544E-01  0.59082389129E-01 -0.55209061325E-01  0.88742475423E+00  0.88000000000E+00 0.  1.
        -11    1    4    4    0    0 -0.25624205154E-01 -0.75454639036E-02  0.24092639569E-01  0.35975690649E-01  0.51100000000E-03 0. -1.
         11    1    4    4    0    0 -0.62218798474E-01 -0.51725728239E-01  0.53607460659E-01  0.97060552258E-01  0.51100000000E-03 0.  1.
</event>
<event>
 8    1  0.1076043E+005  0.1043930E+01  0.7957747E-01            NaN
         13   -1    0    0    0    0  0.00000000000E+00  0.00000000000E+00  0.74505805969E-08  0.10566000000E+00  0.10566000000E+00 0. -1.
     999900   -1    0    0    0    0 -0.00000000000E+00 -0.00000000000E+00 -0.74505805969E-08  0.93827000000E+00  0.93827000000E+00 0. -1.
     999902    2    1    2    0    0 -0.78418472341E-02 -0.25291335190E-01 -0.21913486788E-02  0.10173603140E+01  0.10170133039E+01 0.  0.
     999903    2    3    3    0    0 -0.18923770666E-01 -0.10151786858E+00  0.77144979701E-01  0.13044005469E+00  0.19981822645E-01 0.  0.
         14    1    1    2    0    0  0.78418472341E-02  0.25291335190E-01  0.21913486788E-02  0.26569685975E-01  0.00000000000E+00 0.  1.
     999901    1    3    3    0    0  0.11081923432E-01  0.76226533393E-01 -0.79336328380E-01  0.88692025934E+00  0.88000000000E+00 0. -1.
        -11    1    4    4    0    0 -0.58829747070E-02 -0.71455737380E-01  0.59779020054E-01  0.93350544485E-01  0.51100000000E-03 0.  1.
         11    1    4    4    0    0 -0.13040795959E-01 -0.30062131204E-01  0.17365959647E-01  0.37089510205E-01  0.51100000000E-03 0. -1.
</event>
<event>
 8    1  0.1076043E+005  0.1043930E+01  0.7957747E-01            NaN
         13   -1    0    0    0    0  0.00000000000E+00  0.00000000000E+00  0.74505805969E-08  0.10566000000E+00  0.10566000000E+00 0. -1.
     999900   -1    0    0    0    0 -0.00000000000E+00 -0.00000000000E+00 -0.74505805969E-08  0.93827000000E+00  0.93827000000E+00 0.  1.
     999902    2    1    2    0    0  0.20159775836E-02 -0.23152717717E-01 -0.49973588134E-02  0.10201584603E+01  0.10198814628E+01 0.  0.
     999903    2    3    3    0    0 -0.99306766508E-01  0.91465818021E-02  0.80278373753E-01  0.12966337680E+00  0.20554322128E-01 0.  0.
         14    1    1    2    0    0 -0.20159775836E-02  0.23152717717E-01  0.49973588134E-02  0.23771539673E-01  0.00000000000E+00 0. -1.
     999901    1    3    3    0    0  0.10132274409E+00 -0.32299299519E-01 -0.85275732566E-01  0.89049508353E+00  0.88000000000E+00 0.  1.
        -11    1    4    4    0    0 -0.72022475705E-01  0.15484242249E-01  0.55096415163E-01  0.91993884849E-01  0.51100000000E-03 0.  1.
         11    1    4    4    0    0 -0.27284290802E-01 -0.63376604464E-02  0.25181958590E-01  0.37669491952E-01  0.51100000000E-03 0. -1.
</event>
<event>
 8    1  0.1076043E+005  0.1043930E+01  0.7957747E-01            NaN
         13   -1    0    0    0    0  0.00000000000E+00  0.00000000000E+00  0.74505805969E-08  0.10566000000E+00  0.10566000000E+00 0.  1.
     999900   -1    0    0    0    0 -0.00000000000E+00 -0.00000000000E+00 -0.74505805969E-08  0.93827000000E+00  0.93827000000E+00 0. -1.
     999902    2    1    2    0    0 -0.22449482440E-02  0.14919417416E-01 -0.18214193697E-01  0.10202786647E+01  0.10200044941E+01 0.  0.
     999903    2    3    3    0    0 -0.93903424707E-01 -0.67769166270E-01  0.52867278005E-01  0.12882409280E+00  0.19753094245E-01 0.  0.
         14    1    1    2    0    0  0.22449482440E-02 -0.14919417416E-01  0.18214193697E-01  0.23651335284E-01  0.00000000000E+00 0.  1.
     999901    1    3    3    0    0  0.91658476463E-01  0.82688583686E-01 -0.71081471702E-01  0.89145457192E+00  0.88000000000E+00 0. -1.
        -11    1    4    4    0    0 -0.22217598568E-01 -0.15819749773E-01  0.22069110998E-01  0.35088359184E-01  0.51100000000E-03 0.  1.
         11    1    4    4    0    0 -0.71685826139E-01 -0.51949416497E-01  0.30798167007E-01  0.93735733611E-01  0.51100000000E-03 0. -1.
</event>
<event>
 8    1  0.1076043E+005  0.1043930E+01  0.7957747E-01            NaN
         13   -1    0    0    0    0  0.00000000000E+00  0.00000000000E+00  0.74505805969E-08  0.10566000000E+00  0.10566000000E+00 0. -1.
     999900   -1    0    0    0    0 -0.00000000000E+00 -0.00000000000E+00 -0.74505805969E-08  0.93827000000E+00  0.93827000000E+00 0. -1.
     999902    2    1    2    0    0  0.48913449125E-03 -0.85550940148E-02  0.17087257369E-01  0.10248144762E+01  0.10246361829E+01 0.  0.
     999903    2    3    3    0    0  0.66560269911E-01 -0.59580102268E-01  0.10164164444E+00  0.13682889591E+00  0.20274731941E-01 0.  0.
         14    1    1    2    0    0 -0.48913449125E-03  0.85550940148E-02 -0.17087257369E-01  0.19115523810E-01  0.00000000000E+00 0.  1.
     999901    1    3    3    0    0 -0.66071135420E-01  0.51025008253E-01 -0.84554387074E-01  0.88798558028E+00  0.88000000000E+00 0. -1.
        -11    1    4    4    0    0  0.34685334428E-01 -0.44211417466E-01  0.63641263201E-01  0.84901079861E-01  0.51100000000E-03 0.  1.
         11    1    4    4    0    0  0.31874935483E-01 -0.15368684802E-01  0.38000381242E-01  0.51927816054E-01  0.51100000000E-03 0. -1.
</event>
<event>
 8    1  0.1076043E+005  0.1043930E+01  0.7957747E-01            NaN
         13   -1    0    0    0    0  0.00000000000E+00  0.00000000000E+00  0.74505805969E-08  0.10566000000E+00  0.10566000000E+00 0.  1.
     999900   -1    0    0    0    0 -0.00000000000E+00 -0.00000000000E+00 -0.74505805969E-08  0.93827000000E+00  0.93827000000E+00 0. -1.
     999902    2    1    2    0    0 -0.17196101431E-01 -0.77101829227E-02  0.14743107298E-01  0.10200027762E+01  0.10197220952E+01 0.  0.
     999903    2    3    3    0    0  0.95390488438E-01  0.80097851947E-01 -0.24016088738E-01  0.12765291967E+00  0.14264789191E-01 0.  0.
         14    1    1    2    0    0  0.17196101431E-01  0.77101829227E-02 -0.14743107298E-01  0.23927223782E-01  0.00000000000E+00 0. -1.
     999901    1    3    3    0    0 -0.11258658987E+00 -0.87808034870E-01  0.38759196036E-01  0.89234985655E+00  0.88000000000E+00 0. -1.
        -11    1    4    4    0    0  0.62724308767E-01  0.60878514097E-01 -0.18525799331E-01  0.89353224625E-01  0.51100000000E-03 0. -1.
         11    1    4    4    0    0  0.32666179671E-01  0.19219337850E-01 -0.54902894077E-02  0.38299695044E-01  0.51100000000E-03 0.  1.
</event>
<event>
 8    1  0.1076043E+005  0.1043930E+01  0.7957747E-01            NaN
         13   -1    0    0    0    0  0.00000000000E+00  0.00000000000E+00  0.74505805969E-08  0.10566000000E+00  0.10566000000E+00 0.  1.
     999900   -1    0    0    0    0 -0.00000000000E+00 -0.00000000000E+00 -0.74505805969E-08  0.93827000000E+00  0.93827000000E+00 0.  1.
     999902    2    1    2    0    0  0.78202273678E-03  0.12550269758E-01  0.20103290394E-01  0.10202179120E+01  0.10199423145E+01 0.  0.
     999903    2    3    3    0    0 -0.19919930003E-01 -0.12559472577E+00 -0.49389939961E-02  0.12884833289E+00  0.20165824417E-01 0.  0.
         14    1    1    2    0    0 -0.78202273678E-03 -0.12550269758E-01 -0.20103290394E-01  0.23712087956E-01  0.00000000000E+00 0. -1.
     999901    1    3    3    0    0  0.20701952740E-01  0.13814499553E+00  0.25042284391E-01  0.89136957916E+00  0.88000000000E+00 0.  1.
        -11    1    4    4    0    0 -0.16747682012E-01 -0.47417310140E-01  0.17370402044E-02  0.50320617876E-01  0.51100000000E-03 0.  1.
         11    1    4    4    0    0 -0.31722479918E-02 -0.78177415628E-01 -0.66760342005E-02  0.78527715013E-01  0.51100000000E-03 0. -1.
</event>
<event>
 8    1  0.1076043E+005  0.1043930E+01  0.7957747E-01            NaN
         13   -1    0    0    0    0  0.00000000000E+00  0.00000000000E+00  0.74505805969E-08  0.10566000000E+00  0.10566000000E+00 0. -1.
     999900   -1    0    0    0    0 -0.00000000000E+00 -0.00000000000E+00 -0.74505805969E-08  0.93827000000E+00  0.93827000000E+00 0.  1.
     999902    2    1    2    0    0 -0.85689472439E-02 -0.16860561756E-01 -0.13844036635E-01  0.10204915114E+01  0.10202223101E+01 0.  0.
     999903    2    3    3    0    0 -0.51222326087E-01  0.65111745477E-01 -0.10011453040E+00  0.13145755926E+00  0.19872206767E-01 0.  0.
         14    1    1    2    0    0  0.85689472439E-02  0.16860561756E-01  0.13844036635E-01  0.23438488645E-01  0.00000000000E+00 0. -1.
     999901    1    3    3    0    0  0.42653378843E-01 -0.81972307233E-01  0.86270493762E-01  0.88903395209E+00  0.88000000000E+00 0. -1.
        -11    1    4    4    0    0 -0.21076560394E-01  0.16790794783E-01 -0.22041253073E-01  0.34817095593E-01  0.51100000000E-03 0. -1.
         11    1    4    4    0    0 -0.30145765693E-01  0.48320950694E-01 -0.78073277324E-01  0.96640463670E-01  0.51100000000E-03 0.  1.
</event>
<event>
 8    1  0.1076043E+005  0.1043930E+01  0.7957747E-01            NaN
         13   -1    0    0    0    0  0.00000000000E+00  0.00000000000E+00  0.74505805969E-08  0.10566000000E+00  0.10566000000E+00 0.  1.
     999900   -1    0    0    0    0 -0.00000000000E+00 -0.00000000000E+00 -0.74505805969E-08  0.93827000000E+00  0.93827000000E+00 0.  1.
     999902    2    1    2    0    0  0.13685448146E-01 -0.13445107283E-01 -0.13674749971E-01  0.10203702634E+01  0.10200982371E+01 0.  0.
     999903    2    3    3    0    0 -0.77867819962E-01 -0.76347233553E-01  0.67696068643E-01  0.12966274212E+00  0.18367676133E-01 0.  0.
         14    1    1    2    0    0 -0.13685448146E-01  0.13445107283E-01  0.13674749971E-01  0.23559736577E-01  0.00000000000E+00 0. -1.
     999901    1    3    3    0    0  0.91553268109E-01  0.62902126270E-01 -0.81370818614E-01  0.89070752131E+00  0.88000000000E+00 0.  1.
        -11    1    4    4    0    0 -0.43631837498E-01 -0.40779127087E-01  0.26402124250E-01  0.65299370099E-01  0.51100000000E-03 0.  1.
         11    1    4    4    0    0 -0.34235982464E-01 -0.35568106466E-01  0.41293944394E-01  0.64363372017E-01  0.51100000000E-03 0. -1.
</event>
<event>
 8    1  0.1076043E+005  0.1043930E+01  0.7957747E-01            NaN
         13   -1    0    0    0    0  0.00000000000E+00  0.00000000000E+00  0.74505805969E-08  0.10566000000E+00  0.10566000000E+00 0. -1.
     999900   -1    0    0    0    0 -0.00000000000E+00 -0.00000000000E+00 -0.74505805969E-08  0.93827000000E+00  0.93827000000E+00 0. -1.
     999902    2    1    2    0    0  0.22802279025E-02 -0.17416540500E-01 -0.14727440951E-01  0.10210076781E+01  0.10207503348E+01 0.  0.
     999903    2    3    3    0    0  0.90672928812E-01 -0.60249707514E-01 -0.75426479456E-01  0.13346482113E+00  0.16495375110E-01 0.  0.
         14    1    1    2    0    0 -0.22802279025E-02  0.17416540500E-01  0.14727440951E-01  0.22922321856E-01  0.00000000000E+00 0.  1.
     999901    1    3    3    0    0 -0.88392700909E-01  0.42833167013E-01  0.60699038505E-01  0.88754285702E+00  0.88000000000E+00 0. -1.
        -11    1    4    4    0    0  0.29780325479E-01 -0.11554929877E-01 -0.18417604236E-01  0.36876190922E-01  0.51100000000E-03 0.  1.
         11    1    4    4    0    0  0.60892603333E-01 -0.48694777636E-01 -0.57008875220E-01  0.96588630203E-01  0.51100000000E-03 0. -1.
</event>
<event>
 8    1  0.1076043E+005  0.1043930E+01  0.7957747E-01            NaN
         13   -1    0    0    0    0  0.00000000000E+00  0.00000000000E+00  0.74505805969E-08  0.10566000000E+00  0.10566000000E+00 0.  1.
     999900   -1    0    0    0    0 -0.00000000000E+00 -0.00000000000E+00 -0.74505805969E-08  0.93827000000E+00  0.93827000000E+00 0.  1.
     999902    2    1    2    0    0 -0.18186970698E-01  0.19542137111E-02 -0.15281810871E-01  0.10200947614E+01  0.10198162598E+01 0.  0.
     999903    2    3    3    0    0  0.97051122990E-01  0.67478566830E-01  0.44988208504E-01  0.12812742216E+00  0.20504144681E-01 0.  0.
         14    1    1    2    0    0  0.18186970698E-01 -0.19542137111E-02  0.15281810871E-01  0.23835238574E-01  0.00000000000E+00 0.  1.
     999901    1    3    3    0    0 -0.11523809369E+00 -0.65524353119E-01 -0.60270019375E-01  0.89196733927E+00  0.88000000000E+00 0. -1.
        -11    1    4    4    0    0  0.74516105304E-01  0.40513717788E-01  0.32351664096E-01  0.90779417102E-01  0.51100000000E-03 0.  1.
         11    1    4    4    0    0  0.22535017686E-01  0.26964849042E-01  0.12636544408E-01  0.37348005054E-01  0.51100000000E-03 0. -1.
</event>
<event>
 8    1  0.1105529E+005  0.1043930E+01  0.7957747E-01            NaN
         13   -1    0    0    0    0  0.00000000000E+00  0.00000000000E+00  0.74505805969E-08  0.10566000000E+00  0.10566000000E+00 0.  1.
     999900   -1    0    0    0    0 -0.00000000000E+00 -0.00000000000E+00 -0.74505805969E-08  0.93827000000E+00  0.93827000000E+00 0. -1.
     999902    2    1    2    0    0  0.12804393193E-01 -0.97405496526E-02  0.16368727037E-01  0.10209786162E+01  0.10207206125E+01 0.  0.
     999903    2    3    3    0    0  0.11945289157E+00 -0.55817725294E-01  0.29114926337E-02  0.13324098298E+00  0.18975536715E-01 0.  0.
         14    1    1    2    0    0 -0.12804393193E-01  0.97405496526E-02 -0.16368727037E-01  0.22951383780E-01  0.00000000000E+00 0. -1.
     999901    1    3    3    0    0 -0.10664849838E+00  0.46077175641E-01  0.13457234403E-01  0.88773763324E+00  0.88000000000E+00 0. -1.
        -11    1    4    4    0    0  0.45072891510E-01 -0.17009249599E-01  0.94243912185E-02  0.49091347423E-01  0.51100000000E-03 0. -1.
         11    1    4    4    0    0  0.74380000060E-01 -0.38808475694E-01 -0.65128985849E-02  0.84149635552E-01  0.51100000000E-03 0.  1.
</event>
<event>
 8    1  0.1076043E+005  0.1043930E+01  0.7957747E-01            NaN
         13   -1    0    0    0    0  0.00000000000E+00  0.00000000000E+00  0.74505805969E-08  0.10566000000E+00  0.10566000000E+00 0. -1.
     999900   -1    0    0    0    0 -0.00000000000E+00 -0.00000000000E+00 -0.74505805969E-08  0.93827000000E+00  0.93827000000E+00 0. -1.
     999902    2    1    2    0    0 -0.97837757232E-02  0.16865644305E-01  0.82069869186E-02  0.10227751694E+01  0.10225563653E+01 0.  0.
     999903    2    3    3    0    0 -0.58663639949E-01 -0.11445228927E+00 -0.54657051352E-02  0.13158462670E+00  0.27274363062E-01 0.  0.
         14    1    1    2    0    0  0.97837757232E-02 -0.16865644305E-01 -0.82069869186E-02  0.21154830643E-01  0.00000000000E+00 0.  1.
     999901    1    3    3    0    0  0.48879864226E-01  0.13131793358E+00  0.13672692054E-01  0.89119054265E+00  0.88000000000E+00 0.  1.
        -11    1    4    4    0    0 -0.18230319426E-01 -0.42101488782E-01 -0.14720853418E-01  0.48185522208E-01  0.51100000000E-03 0.  1.
         11    1    4    4    0    0 -0.40433320523E-01 -0.72350800490E-01  0.92551482828E-02  0.83399104497E-01  0.51100000000E-03 0. -1.
</event>
<event>
 8    1  0.1076043E+005  0.1043930E+01  0.7957747E-01            NaN
         13   -1    0    0    0    0  0.00000000000E+00  0.00000000000E+00  0.74505805969E-08  0.10566000000E+00  0.10566000000E+00 0. -1.
     999900   -1    0    0    0    0 -0.00000000000E+00 -0.00000000000E+00 -0.74505805969E-08  0.93827000000E+00  0.93827000000E+00 0.  1.
     999902    2    1    2    0    0 -0.51540431289E-02  0.20627702315E-01  0.11103881904E-01  0.10199432858E+01  0.10196611907E+01 0.  0.
     999903    2    3    3    0    0  0.68551883660E-01  0.92837641805E-01 -0.58946239163E-01  0.13114980112E+00  0.20184715315E-01 0.  0.
         14    1    1    2    0    0  0.51540431289E-02 -0.20627702315E-01 -0.11103881904E-01  0.23986714171E-01  0.00000000000E+00 0.  1.
     999901    1    3    3    0    0 -0.73705926789E-01 -0.72209939491E-01  0.70050121067E-01  0.88879348471E+00  0.88000000000E+00 0. -1.
        -11    1    4    4    0    0 -0.32827593124E-03  0.52499399814E-02 -0.52821962234E-02  0.74721049804E-02  0.51100000000E-03 0.  1.
         11    1    4    4    0    0  0.68880159591E-01  0.87587701824E-01 -0.53664042940E-01  0.12367769614E+00  0.51100000000E-03 0. -1.
</event>
<event>
 8    1  0.1099370E+005  0.1043930E+01  0.7957747E-01            NaN
         13   -1    0    0    0    0  0.00000000000E+00  0.00000000000E+00  0.74505805969E-08  0.10566000000E+00  0.10566000000E+00 0.  1.
     999900   -1    0    0    0    0 -0.00000000000E+00 -0.00000000000E+00 -0.74505805969E-08  0.93827000000E+00  0.93827000000E+00 0.  1.
     999902    2    1    2    0    0 -0.11028942119E-02 -0.20910504428E-01  0.95074153015E-02  0.10209331194E+01  0.10206740801E+01 0.  0.
     999903    2    3    3    0    0  0.98834315273E-01 -0.85489859176E-01 -0.78807761237E-03  0.13286559041E+00  0.23998044722E-01 0.  0.
         14    1    1    2    0    0  0.11028942119E-02  0.20910504428E-01 -0.95074153015E-02  0.22996880588E-01  0.00000000000E+00 0. -1.
     999901    1    3    3    0    0 -0.99937209485E-01  0.64579354748E-01  0.10295492914E-01  0.88806752901E+00  0.88000000000E+00 0.  1.
        -11    1    4    4    0    0  0.41380336405E-01 -0.29511145965E-01  0.10371845789E-01  0.51875584654E-01  0.51100000000E-03 0. -1.
         11    1    4    4    0    0  0.57453978868E-01 -0.55978713211E-01 -0.11159923401E-01  0.80990005752E-01  0.51100000000E-03 0.  1.
</event>
<event>
 8    1  0.1076043E+005  0.1043930E+01  0.7957747E-01            NaN
         13   -1    0    0    0    0  0.00000000000E+00  0.00000000000E+00  0.74505805969E-08  0.10566000000E+00  0.10566000000E+00 0. -1.
     999900   -1    0    0    0    0 -0.00000000000E+00 -0.00000000000E+00 -0.74505805969E-08  0.93827000000E+00  0.93827000000E+00 0.  1.
     999902    2    1    2    0    0  0.16564696272E-01 -0.12056034679E-01  0.14080244547E-01  0.10190705869E+01  0.10187673290E+01 0.  0.
     999903    2    3    3    0    0  0.18027638465E-01 -0.12306609828E+00 -0.34477199267E-01  0.13076703528E+00  0.21001903539E-01 0.  0.
         14    1    1    2    0    0 -0.16564696272E-01  0.12056034679E-01 -0.14080244547E-01  0.24859413131E-01  0.00000000000E+00 0.  1.
     999901    1    3    3    0    0 -0.14629421930E-02  0.11101006360E+00  0.48557443814E-01  0.88830355159E+00  0.88000000000E+00 0. -1.
        -11    1    4    4    0    0  0.20732976770E-02 -0.63783754962E-01 -0.25477869141E-01  0.68717165958E-01  0.51100000000E-03 0.  1.
         11    1    4    4    0    0  0.15954340787E-01 -0.59282343315E-01 -0.89993301261E-02  0.62049869319E-01  0.51100000000E-03 0. -1.
</event>
<event>
 8    1  0.1076043E+005  0.1043930E+01  0.7957747E-01            NaN
         13   -1    0    0    0    0  0.00000000000E+00  0.00000000000E+00  0.74505805969E-08  0.10566000000E+00  0.10566000000E+00 0. -1.
     999900   -1    0    0    0    0 -0.00000000000E+00 -0.00000000000E+00 -0.74505805969E-08  0.93827000000E+00  0.93827000000E+00 0. -1.
     999902    2    1    2    0    0  0.13718226646E-01 -0.23406110280E-01 -0.43220863691E-02  0.10164579019E+01  0.10160865860E+01 0.  0.
     999903    2    3    3    0    0 -0.25609451038E-01 -0.12519077910E+00  0.60345546934E-02  0.12965801186E+00  0.21123660558E-01 0.  0.
         14    1    1    2    0    0 -0.13718226646E-01  0.23406110280E-01  0.43220863691E-02  0.27472098051E-01  0.00000000000E+00 0.  1.
     999901    1    3    3    0    0  0.39327677684E-01  0.10178466882E+00 -0.10356641063E-01  0.88679989008E+00  0.88000000000E+00 0. -1.
        -11    1    4    4    0    0 -0.20814881642E-01 -0.76444373455E-01 -0.52078361756E-02  0.79400152451E-01  0.51100000000E-03 0.  1.
         11    1    4    4    0    0 -0.47945693959E-02 -0.48746405649E-01  0.11242390869E-01  0.50257859413E-01  0.51100000000E-03 0. -1.
</event>
<event>
 8    1  0.1076043E+005  0.1043930E+01  0.7957747E-01            NaN
         13   -1    0    0    0    0  0.00000000000E+00  0.00000000000E+00  0.74505805969E-08  0.10566000000E+00  0.10566000000E+00 0.  1.
     999900   -1    0    0    0    0 -0.00000000000E+00 -0.00000000000E+00 -0.74505805969E-08  0.93827000000E+00  0.93827000000E+00 0. -1.
     999902    2    1    2    0    0  0.13789968318E-01  0.14281156616E-01  0.10891735943E-01  0.10212861361E+01  0.10210350764E+01 0.  0.
     999903    2    3    3    0    0  0.13115938008E+00  0.10955680888E-01  0.11308230195E-01  0.13348727877E+00  0.19187693862E-01 0.  0.
         14    1    1    2    0    0 -0.13789968318E-01 -0.14281156616E-01 -0.10891735943E-01  0.22643863901E-01  0.00000000000E+00 0. -1.
     999901    1    3    3    0    0 -0.11736941177E+00  0.33254757276E-02 -0.41649425230E-03  0.88779885733E+00  0.88000000000E+00 0.  1.
        -11    1    4    4    0    0  0.79262956341E-01  0.79604846152E-02 -0.24889761653E-02  0.79702206285E-01  0.51100000000E-03 0. -1.
         11    1    4    4    0    0  0.51896423742E-01  0.29951962731E-02  0.13797206360E-01  0.53785072486E-01  0.51100000000E-03 0.  1.
</event>
<event>
 8    1  0.1076043E+005  0.1043930E+01  0.7957747E-01            NaN
         13   -1    0    0    0    0  0.00000000000E+00  0.00000000000E+00  0.74505805969E-08  0.10566000000E+00  0.10566000000E+00 0. -1.
     999900   -1    0    0    0    0 -0.00000000000E+00 -0.00000000000E+00 -0.74505805969E-08  0.93827000000E+00  0.93827000000E+00 0.  1.
     999902    2    1    2    0    0  0.16732618164E-01  0.17975461613E-02  0.16663657402E-01  0.10202469014E+01  0.10199719852E+01 0.  0.
     999903    2    3    3    0    0 -0.55373911411E-01  0.49628640665E-01 -0.10312261406E+00  0.12792637821E+00  0.14199037744E-01 0.  0.
         14    1    1    2    0    0 -0.16732618164E-01 -0.17975461613E-02 -0.16663657402E-01  0.23683098633E-01  0.00000000000E+00 0.  1.
     999901    1    3    3    0    0  0.72106529575E-01 -0.47831094504E-01  0.11978627146E+00  0.89232052315E+00  0.88000000000E+00 0. -1.
        -11    1    4    4    0    0 -0.19914543805E-01  0.26561337883E-01 -0.49939806339E-01  0.59969484767E-01  0.51100000000E-03 0. -1.
         11    1    4    4    0    0 -0.35459367606E-01  0.23067302783E-01 -0.53182807723E-01  0.67956893447E-01  0.51100000000E-03 0.  1.
</event>
<event>
 8    1  0.1076043E+005  0.1043930E+01  0.7957747E-01            NaN
         13   -1    0    0    0    0  0.00000000000E+00  0.00000000000E+00  0.74505805969E-08  0.10566000000E+00  0.10566000000E+00 0.  1.
     999900   -1    0    0    0    0 -0.00000000000E+00 -0.00000000000E+00 -0.74505805969E-08  0.93827000000E+00  0.93827000000E+00 0.  1.
     999902    2    1    2    0    0  0.22960003783E-02 -0.82281451547E-02  0.23655182984E-01  0.10187796188E+01  0.10184691307E+01 0.  0.
     999903    2    3    3    0    0  0.49086773919E-01  0.70268621759E-03  0.12100026699E+00  0.13213132238E+00  0.20189517122E-01 0.  0.
         14    1    1    2    0    0 -0.22960003783E-02  0.82281451547E-02 -0.23655182984E-01  0.25150381159E-01  0.00000000000E+00 0. -1.
     999901    1    3    3    0    0 -0.46790773541E-01 -0.89308313723E-02 -0.97345084001E-01  0.88664829646E+00  0.88000000000E+00 0.  1.
        -11    1    4    4    0    0  0.27079467415E-01  0.38007889239E-02  0.42463104086E-01  0.50508611954E-01  0.51100000000E-03 0. -1.
         11    1    4    4    0    0  0.22007306504E-01 -0.30981027063E-02  0.78537162900E-01  0.81622710427E-01  0.51100000000E-03 0.  1.
</event>
<event>
 8    1  0.1076043E+005  0.1043930E+01  0.7957747E-01            NaN
         13   -1    0    0    0    0  0.00000000000E+00  0.00000000000E+00  0.74505805969E-08  0.10566000000E+00  0.10566000000E+00 0.  1.
     999900   -1    0    0    0    0 -0.00000000000E+00 -0.00000000000E+00 -0.74505805969E-08  0.93827000000E+00  0.93827000000E+00 0.  1.
     999902    2    1    2    0    0 -0.27832500947E-02 -0.23422849798E-01 -0.19151388220E-02  0.10202647485E+01  0.10199902513E+01 0.  0.
     999903    2    3    3    0    0 -0.21423094769E-02  0.97177084792E-01  0.81049319761E-01  0.12817290542E+00  0.20281177281E-01 0.  0.
         14    1    1    2    0    0  0.27832500947E-02  0.23422849798E-01  0.19151388220E-02  0.23665251540E-01  0.00000000000E+00 0. -1.
     999901    1    3    3    0    0 -0.64094061779E-03 -0.12059993459E+00 -0.82964458583E-01  0.89209184304E+00  0.88000000000E+00 0.  1.
        -11    1    4    4    0    0 -0.11213638102E-01  0.56503226228E-01  0.46117003960E-01  0.73792949724E-01  0.51100000000E-03 0. -1.
         11    1    4    4    0    0  0.90713286247E-02  0.40673858564E-01  0.34932315801E-01  0.54379955698E-01  0.51100000000E-03 0.  1.
</event>
<event>
 8    1  0.1076043E+005  0.1043930E+01  0.7957747E-01            NaN
         13   -1    0    0    0    0  0.00000000000E+00  0.00000000000E+00  0.74505805969E-08  0.10566000000E+00  0.10566000000E+00 0.  1.
     999900   -1    0    0    0    0 -0.00000000000E+00 -0.00000000000E+00 -0.74505805969E-08  0.93827000000E+00  0.93827000000E+00 0. -1.
     999902    2    1    2    0    0 -0.20089239172E-02 -0.11219940281E-01  0.17568222000E-01  0.10229880502E+01  0.10227736728E+01 0.  0.
     999903    2    3    3    0    0  0.44118453765E-01  0.20963496969E-01  0.12512674425E+00  0.13465683706E+00  0.94792127080E-02 0.  0.
         14    1    1    2    0    0  0.20089239172E-02  0.11219940281E-01 -0.17568222000E-01  0.20941949753E-01  0.00000000000E+00 0. -1.
     999901    1    3    3    0    0 -0.46127377682E-01 -0.32183437250E-01 -0.10755852225E+00  0.88833121318E+00  0.88000000000E+00 0. -1.
        -11    1    4    4    0    0  0.13619289706E-01  0.19138789403E-02  0.32530249277E-01  0.35321752841E-01  0.51100000000E-03 0.  1.
         11    1    4    4    0    0  0.30499164059E-01  0.19049618028E-01  0.92596494974E-01  0.99335084224E-01  0.51100000000E-03 0. -1.
</event>
<event>
 8    1  0.1076043E+005  0.1043930E+01  0.7957747E-01            NaN
         13   -1    0    0    0    0  0.00000000000E+00  0.00000000000E+00  0.74505805969E-08  0.10566000000E+00  0.10566000000E+00 0. -1.
     999900   -1    0    0    0    0 -0.00000000000E+00 -0.00000000000E+00 -0.74505805969E-08  0.93827000000E+00  0.93827000000E+00 0.  1.
     999902    2    1    2    0    0 -0.23493232933E-01 -0.87512011637E-02  0.11289038720E-02  0.10188343841E+01  0.10185252634E+01 0.  0.
     999903    2    3    3    0    0 -0.11131316735E+00 -0.66134350332E-01  0.19537581791E-01  0.13241233666E+00  0.19670695962E-01 0.  0.
         14    1    1    2    0    0  0.23493232933E-01  0.87512011637E-02 -0.11289038720E-02  0.25095615940E-01  0.00000000000E+00 0.  1.
     999901    1    3    3    0    0  0.87819934415E-01  0.57383149168E-01 -0.18408677919E-01  0.88642204740E+00  0.88000000000E+00 0. -1.
        -11    1    4    4    0    0 -0.64130634404E-01 -0.27019024212E-01  0.80617134293E-02  0.70057250038E-01  0.51100000000E-03 0. -1.
         11    1    4    4    0    0 -0.47182532944E-01 -0.39115326120E-01  0.11475868362E-01  0.62355086626E-01  0.51100000000E-03 0.  1.
</event>
<event>
 8    1  0.1076043E+005  0.1043930E+01  0.7957747E-01            NaN
         13   -1    0    0    0    0  0.00000000000E+00  0.00000000000E+00  0.74505805969E-08  0.10566000000E+00  0.10566000000E+00 0. -1.
     999900   -1    0    0    0    0 -0.00000000000E+00 -0.00000000000E+00 -0.74505805969E-08  0.93827000000E+00  0.93827000000E+00 0.  1.
     999902    2    1    2    0    0  0.57909901102E-02 -0.13143231291E-02 -0.22243420443E-01  0.10209075595E+01  0.10206479375E+01 0.  0.
     999903    2    3    3    0    0 -0.10217534250E+00  0.55043831301E-01  0.53643918788E-01  0.12928439990E+00  0.19161473219E-01 0.  0.
         14    1    1    2    0    0 -0.57909901102E-02  0.13143231291E-02  0.22243420443E-01  0.23022440460E-01  0.00000000000E+00 0.  1.
     999901    1    3    3    0    0  0.10796633261E+00 -0.56358154430E-01 -0.75887339231E-01  0.89162315964E+00  0.88000000000E+00 0. -1.
        -11    1    4    4    0    0 -0.55505748305E-01  0.20318995054E-01  0.31992535905E-01  0.67212596509E-01  0.51100000000E-03 0.  1.
         11    1    4    4    0    0 -0.46669594194E-01  0.34724836248E-01  0.21651382883E-01  0.62071803392E-01  0.51100000000E-03 0. -1.
</event>
<event>
 8    1  0.1320487E+005  0.1043930E+01  0.7957747E-01            NaN
         13   -1    0    0    0    0  0.00000000000E+00  0.00000000000E+00  0.74505805969E-08  0.10566000000E+00  0.10566000000E+00 0. -1.
     999900   -1    0    0    0    0 -0.00000000000E+00 -0.00000000000E+00 -0.74505805969E-08  0.93827000000E+00  0.93827000000E+00 0.  1.
     999902    2    1    2    0    0  0.12222966010E-01  0.12639610071E-01 -0.20494298996E-01  0.10169267237E+01  0.10165681406E+01 0.  0.
     999903    2    3    3    0    0 -0.11764237427E+00  0.85595117172E-02 -0.43259345875E-01  0.12709533450E+00  0.19205717405E-01 0.  0.
         14    1    1    2    0    0 -0.12222966010E-01 -0.12639610071E-01  0.20494298996E-01  0.27003276323E-01  0.00000000000E+00 0. -1.
     999901    1    3    3    0    0  0.12986534028E+00  0.40800983535E-02  0.22765046879E-01  0.88983138918E+00  0.88000000000E+00 0. -1.
        -11    1    4    4    0    0 -0.47705231047E-01  0.12619360578E-01 -0.15309519631E-01  0.51668944667E-01  0.51100000000E-03 0. -1.
         11    1    4    4    0    0 -0.69937143223E-01 -0.40598488611E-02 -0.27949826245E-01  0.75426389832E-01  0.51100000000E-03 0.  1.
</event>
<event>
 8    1  0.1076043E+005  0.1043930E+01  0.7957747E-01            NaN
         13   -1    0    0    0    0  0.00000000000E+00  0.00000000000E+00  0.74505805969E-08  0.10566000000E+00  0.10566000000E+00 0.  1.
     999900   -1    0    0    0    0 -0.00000000000E+00 -0.00000000000E+00 -0.74505805969E-08  0.93827000000E+00  0.93827000000E+00 0. -1.
     999902    2    1    2    0    0  0.93715477565E-02  0.61333000812E-02  0.20502893195E-01  0.10205673823E+01  0.10202999411E+01 0.  0.
     999903    2    3    3    0    0  0.52010573654E-01 -0.82893886455E-01 -0.81670104688E-01  0.12917339085E+00  0.20958595362E-01 0.  0.
         14    1    1    2    0    0 -0.93715477565E-02 -0.61333000812E-02 -0.20502893195E-01  0.23362617717E-01  0.00000000000E+00 0. -1.
     999901    1    3    3    0    0 -0.42639025898E-01  0.89027186537E-01  0.10217299788E+00  0.89139399144E+00  0.88000000000E+00 0. -1.
        -11    1    4    4    0    0  0.10986889004E-01 -0.36298577647E-01 -0.33282135838E-01  0.50460481132E-01  0.51100000000E-03 0. -1.
         11    1    4    4    0    0  0.41023684651E-01 -0.46595308809E-01 -0.48387968850E-01  0.78712909714E-01  0.51100000000E-03 0.  1.
</event>
<event>
 8    1  0.1076043E+005  0.1043930E+01  0.7957747E-01            NaN
         13   -1    0    0    0    0  0.00000000000E+00  0.00000000000E+00  0.74505805969E-08  0.10566000000E+00  0.10566000000E+00 0. -1.
     999900   -1    0    0    0    0 -0.00000000000E+00 -0.00000000000E+00 -0.74505805969E-08  0.93827000000E+00  0.93827000000E+00 0. -1.
     999902    2    1    2    0    0 -0.19195360092E-02 -0.50029855708E-02 -0.22121657836E-01  0.10211685803E+01  0.10209148775E+01 0.  0.
     999903    2    3    3    0    0 -0.84900782075E-01 -0.50961676431E-01  0.81596593798E-01  0.13001451716E+00  0.20988932576E-01 0.  0.
         14    1    1    2    0    0  0.19195360092E-02  0.50029855708E-02  0.22121657836E-01  0.22761419739E-01  0.00000000000E+00 0. -1.
     999901    1    3    3    0    0  0.82981246066E-01  0.45958690860E-01 -0.10371825163E+00  0.89115406310E+00  0.88000000000E+00 0. -1.
        -11    1    4    4    0    0 -0.67847334860E-01 -0.29985808874E-01  0.59346091549E-01  0.94998048846E-01  0.51100000000E-03 0.  1.
         11    1    4    4    0    0 -0.17053447215E-01 -0.20975867557E-01  0.22250502249E-01  0.35016468312E-01  0.51100000000E-03 0. -1.
</event>
<event>
 8    1  0.1076043E+005  0.1043930E+01  0.7957747E-01            NaN
         13   -1    0    0    0    0  0.00000000000E+00  0.00000000000E+00  0.74505805969E-08  0.10566000000E+00  0.10566000000E+00 0.  1.
     999900   -1    0    0    0    0 -0.00000000000E+00 -0.00000000000E+00 -0.74505805969E-08  0.93827000000E+00  0.93827000000E+00 0.  1.
     999902    2    1    2    0    0 -0.92963226301E-02 -0.12484937478E-01  0.17500318394E-01  0.10205087186E+01  0.10202399170E+01 0.  0.
     999903    2    3    3    0    0  0.23981594326E-01 -0.76992389832E-02 -0.12442062528E+00  0.12850430330E+00  0.19961683894E-01 0.  0.
         14    1    1    2    0    0  0.92963226301E-02  0.12484937478E-01 -0.17500318394E-01  0.23421281395E-01  0.00000000000E+00 0. -1.
     999901    1    3    3    0    0 -0.33277916957E-01 -0.47856984951E-02  0.14192094368E+00  0.89200441530E+00  0.88000000000E+00 0. -1.
        -11    1    4    4    0    0  0.83342190294E-02  0.57496526438E-02 -0.60229040578E-01  0.61076314250E-01  0.51100000000E-03 0. -1.
         11    1    4    4    0    0  0.15647375297E-01 -0.13448891627E-01 -0.64191584705E-01  0.67427989052E-01  0.51100000000E-03 0.  1.
</event>
<event>
 8    1  0.1076043E+005  0.1043930E+01  0.7957747E-01            NaN
         13   -1    0    0    0    0  0.00000000000E+00  0.00000000000E+00  0.74505805969E-08  0.10566000000E+00  0.10566000000E+00 0.  1.
     999900   -1    0    0    0    0 -0.00000000000E+00 -0.00000000000E+00 -0.74505805969E-08  0.93827000000E+00  0.93827000000E+00 0.  1.
     999902    2    1    2    0    0  0.33783020076E-02  0.17106950402E-01 -0.16283181196E-01  0.10200720314E+01  0.10197929920E+01 0.  0.
     999903    2    3    3    0    0  0.11110972741E+00  0.40053140669E-01 -0.56146024123E-01  0.13230988198E+00  0.20097344155E-01 0.  0.
         14    1    1    2    0    0 -0.33783020076E-02 -0.17106950402E-01  0.16283181196E-01  0.23857968613E-01  0.00000000000E+00 0.  1.
     999901    1    3    3    0    0 -0.10773142541E+00 -0.22946190267E-01  0.39862842927E-01  0.88776214940E+00  0.88000000000E+00 0. -1.
        -11    1    4    4    0    0  0.62087930832E-01  0.27848037442E-01 -0.41514640816E-01  0.79712927856E-01  0.51100000000E-03 0.  1.
         11    1    4    4    0    0  0.49021796582E-01  0.12205103227E-01 -0.14631383307E-01  0.52596954127E-01  0.51100000000E-03 0. -1.
</event>
<event>
 8    1  0.1076043E+005  0.1043930E+01  0.7957747E-01            NaN
         13   -1    0    0    0    0  0.00000000000E+00  0.00000000000E+00  0.74505805969E-08  0.10566000000E+00  0.10566000000E+00 0.  1.
     999900   -1    0    0    0    0 -0.00000000000E+00 -0.00000000000E+00 -0.74505805969E-08  0.93827000000E+00  0.93827000000E+00 0. -1.
     999902    2    1    2    0    0  0.84789919832E-02  0.12824189251E-01 -0.15617051986E-01  0.10220154969E+01  0.10217805197E+01 0.  0.
     999903    2    3    3    0    0  0.98809996274E-01 -0.35502529907E-01 -0.80031183784E-01  0.13373381716E+00  0.21351779333E-01 0.  0.
         14    1    1    2    0    0 -0.84789919832E-02 -0.12824189251E-01  0.15617051986E-01  0.21914503137E-01  0.00000000000E+00 0.  1.
     999901    1    3    3    0    0 -0.90331004291E-01  0.48326719158E-01  0.64414131798E-01  0.88828167970E+00  0.88000000000E+00 0.  1.
        -11    1    4    4    0    0  0.78604344819E-01 -0.36706977584E-01 -0.67513035731E-01  0.10992868753E+00  0.51100000000E-03 0.  1.
         11    1    4    4    0    0  0.20205651455E-01  0.12044476770E-02 -0.12518148054E-01  0.23805129629E-01  0.51100000000E-03 0. -1.
</event>
<event>
 8    1  0.1076043E+005  0.1043930E+01  0.7957747E-01            NaN
         13   -1    0    0    0    0  0.00000000000E+00  0.00000000000E+00  0.74505805969E-08  0.10566000000E+00  0.10566000000E+00 0.  1.
     999900   -1    0    0    0    0 -0.00000000000E+00 -0.00000000000E+00 -0.74505805969E-08  0.93827000000E+00  0.93827000000E+00 0. -1.
     999902    2    1    2    0    0 -0.72774871540E-02 -0.11747596008E-02 -0.22778975888E-01  0.10199879111E+01  0.10197068771E+01 0.  0.
     999903    2    3    3    0    0 -0.12604385506E+00  0.17719799662E-01 -0.27943562537E-01  0.13179360381E+00  0.19689251331E-01 0.  0.
         14    1    1    2    0    0  0.72774871540E-02  0.11747596008E-02  0.22778975888E-01  0.23942088921E-01  0.00000000000E+00 0.  1.
     999901    1    3    3    0    0  0.11876636791E+00 -0.18894559263E-01  0.51645866484E-02  0.88819430727E+00  0.88000000000E+00 0.  1.
        -11    1    4    4    0    0 -0.24965987002E-01 -0.16444882820E-02 -0.11613637693E-01  0.27588812047E-01  0.51100000000E-03 0.  1.
         11    1    4    4    0    0 -0.10107786806E+00  0.19364287944E-01 -0.16329924843E-01  0.10420479176E+00  0.51100000000E-03 0. -1.
</event>
<event>
 8    1  0.1076043E+005  0.1043930E+01  0.7957747E-01            NaN
         13   -1    0    0    0    0  0.00000000000E+00  0.00000000000E+00  0.74505805969E-08  0.10566000000E+00  0.10566000000E+00 0.  1.
     999900   -1    0    0    0    0 -0.00000000000E+00 -0.00000000000E+00 -0.74505805969E-08  0.93827000000E+00  0.93827000000E+00 0.  1.
     999902    2    1    2    0    0  0.20707876142E-01 -0.17005463434E-02 -0.11053336453E-01  0.10203952546E+01  0.10201238118E+01 0.  0.
     999903    2    3    3    0    0 -0.18676563508E-01 -0.95661174775E-01 -0.85533756638E-01  0.13139184252E+00  0.21164082120E-01 0.  0.
         14    1    1    2    0    0 -0.20707876142E-01  0.17005463434E-02  0.11053336453E-01  0.23534745355E-01  0.00000000000E+00 0. -1.
     999901    1    3    3    0    0  0.39384439650E-01  0.93960628431E-01  0.74480420185E-01  0.88900341213E+00  0.88000000000E+00 0. -1.
        -11    1    4    4    0    0 -0.14602845275E-01 -0.51184338829E-01 -0.58897254037E-01  0.79386568672E-01  0.51100000000E-03 0.  1.
         11    1    4    4    0    0 -0.40737182334E-02 -0.44476835945E-01 -0.26636502601E-01  0.52005273846E-01  0.51100000000E-03 0. -1.
</event>
<event>
 8    1  0.1076043E+005  0.1043930E+01  0.7957747E-01            NaN
         13   -1    0    0    0    0  0.00000000000E+00  0.00000000000E+00  0.74505805969E-08  0.10566000000E+00  0.10566000000E+00 0.  1.
     999900   -1    0    0    0    0 -0.00000000000E+00 -0.00000000000E+00 -0.74505805969E-08  0.93827000000E+00  0.93827000000E+00 0. -1.
     999902    2    1    2    0    0  0.17428266384E-01 -0.31683056363E-02  0.14272047205E-01  0.10211819460E+01  0.10209285444E+01 0.  0.
     999903    2    3    3    0    0  0.77048142079E-01  0.38440796311E-01  0.10077924441E+00  0.13395630270E+00  0.19331940180E-01 0.  0.
         14    1    1    2    0    0 -0.17428266384E-01  0.31683056363E-02 -0.14272047205E-01  0.22748054009E-01  0.00000000000E+00 0. -1.
     999901    1    3    3    0    0 -0.59619875695E-01 -0.41609101948E-01 -0.86507197202E-01  0.88722564329E+00  0.88000000000E+00 0.  1.
        -11    1    4    4    0    0  0.62742464784E-01  0.35367320080E-01  0.92159796117E-01  0.11696646254E+00  0.51100000000E-03 0. -1.
         11    1    4    4    0    0  0.14305677295E-01  0.30734762312E-02  0.86194482910E-02  0.16989840166E-01  0.51100000000E-03 0.  1.
</event>
<event>
 8    1  0.1076043E+005  0.1043930E+01  0.7957747E-01            NaN
         13   -1    0    0    0    0  0.00000000000E+00  0.00000000000E+00  0.74505805969E-08  0.10566000000E+00  0.10566000000E+00 0.  1.
     999900   -1    0    0    0    0 -0.00000000000E+00 -0.00000000000E+00 -0.74505805969E-08  0.93827000000E+00  0.93827000000E+00 0. -1.
     999902    2    1    2    0    0  0.15671876542E-02 -0.24599936592E-01  0.48075780086E-02  0.10188157458E+01  0.10185061601E+01 0.  0.
     999903    2    3    3    0    0 -0.80808470824E-01 -0.37450318442E-01  0.93401519841E-01  0.13044658383E+00  0.18971874320E-01 0.  0.
         14    1    1    2    0    0 -0.15671876542E-02  0.24599936592E-01 -0.48075780086E-02  0.25114254196E-01  0.00000000000E+00 0.  1.
     999901    1    3    3    0    0  0.82375658478E-01  0.12850381849E-01 -0.88593941832E-01  0.88836916198E+00  0.88000000000E+00 0. -1.
        -11    1    4    4    0    0 -0.36971681172E-01 -0.27387341061E-01  0.49781944087E-01  0.67789930942E-01  0.51100000000E-03 0. -1.
         11    1    4    4    0    0 -0.43836789651E-01 -0.10062977381E-01  0.43619575754E-01  0.62656652885E-01  0.51100000000E-03 0.  1.
</event>
<event>
 8    1  0.1076043E+005  0.1043930E+01  0.7957747E-01            NaN
         13   -1    0    0    0    0  0.00000000000E+00  0.00000000000E+00  0.74505805969E-08  0.10566000000E+00  0.10566000000E+00 0. -1.
     999900   -1    0    0    0    0 -0.00000000000E+00 -0.00000000000E+00 -0.74505805969E-08  0.93827000000E+00  0.93827000000E+00 0. -1.
     999902    2    1    2    0    0 -0.21585117877E-01  0.38184943130E-03 -0.85941320201E-02  0.10206937734E+01  0.10204292512E+01 0.  0.
     999903    2    3    3    0    0 -0.52019582031E-02 -0.35704849892E-01  0.12326469341E+00  0.12998764471E+00  0.20017653757E-01 0.  0.
         14    1    1    2    0    0  0.21585117877E-01 -0.38184943130E-03  0.85941320201E-02  0.23236226628E-01  0.00000000000E+00 0. -1.
     999901    1    3    3    0    0 -0.16383159674E-01  0.36086699323E-01 -0.13185882543E+00  0.89070612866E+00  0.88000000000E+00 0. -1.
        -11    1    4    4    0    0 -0.55692846881E-02 -0.16779473422E-01  0.30047558355E-01  0.34866668100E-01  0.51100000000E-03 0. -1.
         11    1    4    4    0    0  0.36732648501E-03 -0.18925376469E-01  0.93217135053E-01  0.95120976612E-01  0.51100000000E-03 0.  1.
</event>
<event>
 8    1  0.1076043E+005  0.1043930E+01  0.7957747E-01            NaN
         13   -1    0    0    0    0  0.00000000000E+00  0.00000000000E+00  0.74505805969E-08  0.10566000000E+00  0.10566000000E+00 0.  1.
     999900   -1    0    0    0    0 -0.00000000000E+00 -0.00000000000E+00 -0.74505805969E-08  0.93827000000E+00  0.93827000000E+00 0. -1.
     999902    2    1    2    0    0  0.16601684541E-01 -0.13657041671E-01 -0.96127798103E-02  0.10203814066E+01  0.10201096405E+01 0.  0.
     999903    2    3    3    0    0 -0.10020212271E+00 -0.25664293643E-02 -0.80062583237E-01  0.12980333258E+00  0.19794846791E-01 0.  0.
         14    1    1    2    0    0 -0.16601684541E-01  0.13657041671E-01  0.96127798103E-02  0.23548593429E-01  0.00000000000E+00 0. -1.
     999901    1    3    3    0    0  0.11680380725E+00 -0.11090612306E-01  0.70449803426E-01  0.89057807399E+00  0.88000000000E+00 0.  1.
        -11    1    4    4    0    0 -0.84288072653E-01 -0.12573524577E-02 -0.57050980875E-01  0.10178966385E+00  0.51100000000E-03 0.  1.
         11    1    4    4    0    0 -0.15914050056E-01 -0.13090769065E-02 -0.23011602362E-01  0.28013668731E-01  0.51100000000E-03 0. -1.
</event>
<event>
 8    1  0.1076043E+005  0.1043930E+01  0.7957747E-01            NaN
         13   -1    0    0    0    0  0.00000000000E+00  0.00000000000E+00  0.74505805969E-08  0.10566000000E+00  0.10566000000E+00 0.  1.
     999900   -1    0    0    0    0 -0.00000000000E+00 -0.00000000000E+00 -0.74505805969E-08  0.93827000000E+00  0.93827000000E+00 0. -1.
     999902    2    1    2    0    0 -0.14578314902E-01 -0.27569760138E-01 -0.10550364757E-01  0.10110069209E+01  0.10104707146E+01 0.  0.
     999903    2    3    3    0    0 -0.35547735643E-01  0.83879186433E-01 -0.77308647401E-01  0.12122197353E+00  0.20464126622E-01 0.  0.
         14    1    1    2    0    0  0.14578314902E-01  0.27569760138E-01  0.10550364757E-01  0.32923079078E-01  0.00000000000E+00 0.  1.
     999901    1    3    3    0    0  0.20969420741E-01 -0.11144894657E+00  0.66758282644E-01  0.88978494739E+00  0.88000000000E+00 0.  1.
        -11    1    4    4    0    0 -0.20933158994E-01  0.61517971779E-01 -0.64618205530E-01  0.91642957198E-01  0.51100000000E-03 0. -1.
         11    1    4    4    0    0 -0.14614576650E-01  0.22361214654E-01 -0.12690441871E-01  0.29579016335E-01  0.51100000000E-03 0.  1.
</event>
<event>
 8    1  0.1076043E+005  0.1043930E+01  0.7957747E-01            NaN
         13   -1    0    0    0    0  0.00000000000E+00  0.00000000000E+00  0.74505805969E-08  0.10566000000E+00  0.10566000000E+00 0.  1.
     999900   -1    0    0    0    0 -0.00000000000E+00 -0.00000000000E+00 -0.74505805969E-08  0.93827000000E+00  0.93827000000E+00 0. -1.
     999902    2    1    2    0    0 -0.15779749702E-01 -0.18337769232E-01  0.22273129046E-02  0.10196352433E+01  0.10193457677E+01 0.  0.
     999903    2    3    3    0    0 -0.46593234524E-01  0.11072934956E+00 -0.41336930278E-01  0.12862141888E+00  0.20070107946E-01 0.  0.
         14    1    1    2    0    0  0.15779749702E-01  0.18337769232E-01 -0.22273129046E-02  0.24294756715E-01  0.00000000000E+00 0. -1.
     999901    1    3    3    0    0  0.30813484822E-01 -0.12906711879E+00  0.43564243183E-01  0.89101382441E+00  0.88000000000E+00 0. -1.
        -11    1    4    4    0    0 -0.43909506560E-01  0.98644810517E-01 -0.42790337731E-01  0.11614696523E+00  0.51100000000E-03 0.  1.
         11    1    4    4    0    0 -0.26837279641E-02  0.12084539039E-01  0.14534074530E-02  0.12474453647E-01  0.51100000000E-03 0. -1.
</event>
<event>
 8    1  0.1076043E+005  0.1043930E+01  0.7957747E-01            NaN
         13   -1    0    0    0    0  0.00000000000E+00  0.00000000000E+00  0.74505805969E-08  0.10566000000E+00  0.10566000000E+00 0. -1.
     999900   -1    0    0    0    0 -0.00000000000E+00 -0.00000000000E+00 -0.74505805969E-08  0.93827000000E+00  0.93827000000E+00 0.  1.
     999902    2    1    2    0    0  0.11043094109E-01 -0.19971650269E-01  0.86367602141E-02  0.10195289679E+01  0.10192369234E+01 0.  0.
     999903    2    3    3    0    0 -0.31509562767E-01  0.55164791066E-01  0.11092428013E+00  0.12940597067E+00  0.20142060536E-01 0.  0.
         14    1    1    2    0    0 -0.11043094109E-01  0.19971650269E-01 -0.86367602141E-02  0.24401032129E-01  0.00000000000E+00 0.  1.
     999901    1    3    3    0    0  0.42552656876E-01 -0.75136441336E-01 -0.10228751991E+00  0.89012299721E+00  0.88000000000E+00 0.  1.
        -11    1    4    4    0    0 -0.55445275989E-02  0.28117622403E-01  0.40434647827E-01  0.49563740191E-01  0.51100000000E-03 0. -1.
         11    1    4    4    0    0 -0.25965035168E-01  0.27047168663E-01  0.70489632302E-01  0.79842230474E-01  0.51100000000E-03 0.  1.
</event>
<event>
 8    1  0.1076043E+005  0.1043930E+01  0.7957747E-01            NaN
         13   -1    0    0    0    0  0.00000000000E+00  0.00000000000E+00  0.74505805969E-08  0.10566000000E+00  0.10566000000E+00 0. -1.
     999900   -1    0    0    0    0 -0.00000000000E+00 -0.00000000000E+00 -0.74505805969E-08  0.93827000000E+00  0.93827000000E+00 0. -1.
     999902    2    1    2    0    0 -0.16061380088E-01  0.17633764843E-01 -0.86387636293E-02  0.10185617949E+01  0.10182458368E+01 0.  0.
     999903    2    3    3    0    0  0.24142659716E-01 -0.56692805812E-01  0.10897102936E+00  0.12672500079E+00  0.19687517312E-01 0.  0.
         14    1    1    2    0    0  0.16061380088E-01 -0.17633764843E-01  0.86387636293E-02  0.25368205099E-01  0.00000000000E+00 0. -1.
     999901    1    3    3    0    0 -0.40204039804E-01  0.74326570655E-01 -0.11760979298E+00  0.89183679411E+00  0.88000000000E+00 0. -1.
        -11    1    4    4    0    0 -0.51550443918E-03 -0.16997569909E-01  0.20249170364E-01  0.26447554690E-01  0.51100000000E-03 0.  1.
         11    1    4    4    0    0  0.24658164155E-01 -0.39695235903E-01  0.88721858991E-01  0.10027744610E+00  0.51100000000E-03 0. -1.
</event>
<event>
 8    1  0.1076043E+005  0.1043930E+01  0.7957747E-01            NaN
         13   -1    0    0    0    0  0.00000000000E+00  0.00000000000E+00  0.74505805969E-08  0.10566000000E+00  0.10566000000E+00 0.  1.
     999900   -1    0    0    0    0 -0.00000000000E+00 -0.00000000000E+00 -0.74505805969E-08  0.93827000000E+00  0.93827000000E+00 0.  1.
     999902    2    1    2    0    0  0.22282312417E-01  0.16317851214E-02  0.86698977257E-02  0.10199647899E+01  0.10196832063E+01 0.  0.
     999903    2    3    3    0    0 -0.10501411739E+00 -0.69939018301E-01  0.63774839724E-02  0.12792666508E+00  0.20127796812E-01 0.  0.
         14    1    1    2    0    0 -0.22282312417E-01 -0.16317851214E-02 -0.86698977257E-02  0.23965210116E-01  0.00000000000E+00 0.  1.
     999901    1    3    3    0    0  0.12729642981E+00  0.71570803423E-01  0.22924137534E-02  0.89203812480E+00  0.88000000000E+00 0. -1.
        -11    1    4    4    0    0 -0.60082817755E-02  0.78173882426E-03  0.73720871826E-03  0.61249623000E-02  0.51100000000E-03 0.  1.
         11    1    4    4    0    0 -0.99005835614E-01 -0.70720757126E-01  0.56402752541E-02  0.12180170278E+00  0.51100000000E-03 0. -1.
</event>
<event>
 7    1  0.1076043E+005  0.1043930E+01  0.7957747E-01            NaN
         13   -1    0    0    0    0  0.00000000000E+00  0.00000000000E+00  0.74505805969E-08  0.10566000000E+00  0.10566000000E+00 0. -1.
     999900   -1    0    0    0    0 -0.00000000000E+00 -0.00000000000E+00 -0.74505805969E-08  0.93827000000E+00  0.93827000000E+00 0.  1.
     999903    2    1    2    0    0  0.40026099625E-01  0.10793061591E+00 -0.17158509497E-02  0.11683794505E+00  0.19926232842E-01 0.  0.
         14    1    1    2    0    0 -0.25442127296E-01  0.17153494293E-02  0.30431492696E-01  0.39702896780E-01  0.00000000000E+00 0. -1.
     999901    1    1    2    0    0 -0.14583972329E-01 -0.10964596534E+00 -0.28715641746E-01  0.88738915817E+00  0.88000000000E+00 0. -1.
        -11    1    3    3    0    0  0.20089267983E-01  0.32079152568E-01  0.47097486685E-02  0.38145688761E-01  0.51100000000E-03 0.  1.
         11    1    3    3    0    0  0.19936831642E-01  0.75851463345E-01 -0.64255996182E-02  0.78692256284E-01  0.51100000000E-03 0. -1.
</event>
<event>
 8    1  0.1076043E+005  0.1043930E+01  0.7957747E-01            NaN
         13   -1    0    0    0    0  0.00000000000E+00  0.00000000000E+00  0.74505805969E-08  0.10566000000E+00  0.10566000000E+00 0. -1.
     999900   -1    0    0    0    0 -0.00000000000E+00 -0.00000000000E+00 -0.74505805969E-08  0.93827000000E+00  0.93827000000E+00 0.  1.
     999902    2    1    2    0    0 -0.30323758551E-02 -0.22779460692E-01  0.58460807772E-02  0.10202176447E+01  0.10199420409E+01 0.  0.
     999903    2    3    3    0    0 -0.63020638447E-01 -0.21947190835E-01  0.11181666514E+00  0.13183200262E+00  0.20577421039E-01 0.  0.
         14    1    1    2    0    0  0.30323758551E-02  0.22779460692E-01 -0.58460807772E-02  0.23712355286E-01  0.00000000000E+00 0.  1.
     999901    1    3    3    0    0  0.59988262592E-01 -0.83226985709E-03 -0.10597058436E+00  0.88838564209E+00  0.88000000000E+00 0. -1.
        -11    1    4    4    0    0 -0.14501642144E-01  0.30992556040E-02  0.29973497929E-01  0.33445099930E-01  0.51100000000E-03 0. -1.
         11    1    4    4    0    0 -0.48518996303E-01 -0.25046446439E-01  0.81843167212E-01  0.98386902694E-01  0.51100000000E-03 0.  1.
</event>
<event>
 8    1  0.1076043E+005  0.1043930E+01  0.7957747E-01            NaN
         13   -1    0    0    0    0  0.00000000000E+00  0.00000000000E+00  0.74505805969E-08  0.10566000000E+00  0.10566000000E+00 0.  1.
     999900   -1    0    0    0    0 -0.00000000000E+00 -0.00000000000E+00 -0.74505805969E-08  0.93827000000E+00  0.93827000000E+00 0. -1.
     999902    2    1    2    0    0  0.15044394147E-01 -0.35777858690E-03 -0.17686997846E-01  0.10207073453E+01  0.10204431356E+01 0.  0.
     999903    2    3    3    0    0 -0.52281842856E-01  0.13449741201E-01 -0.11894942997E+00  0.13223812803E+00  0.20583220902E-01 0.  0.
         14    1    1    2    0    0 -0.15044394147E-01  0.35777858690E-03  0.17686997846E-01  0.23222654749E-01  0.00000000000E+00 0.  1.
     999901    1    3    3    0    0  0.67326237003E-01 -0.13807519788E-01  0.10126243213E+00  0.88846921722E+00  0.88000000000E+00 0.  1.
        -11    1    4    4    0    0 -0.52276035096E-01  0.91373545056E-02 -0.11329017275E+00  0.12510475392E+00  0.51100000000E-03 0.  1.
         11    1    4    4    0    0 -0.58077600261E-05  0.43123866954E-02 -0.56592572275E-02  0.71333741041E-02  0.51100000000E-03 0. -1.
</event>
<event>
 8    1  0.1076043E+005  0.1043930E+01  0.7957747E-01            NaN
         13   -1    0    0    0    0  0.00000000000E+00  0.00000000000E+00  0.74505805969E-08  0.10566000000E+00  0.10566000000E+00 0. -1.
     999900   -1    0    0    0    0 -0.00000000000E+00 -0.00000000000E+00 -0.74505805969E-08  0.93827000000E+00  0.93827000000E+00 0.  1.
     999902    2    1    2    0    0 -0.19016595923E-01 -0.18512753726E-02  0.14618114071E-01  0.10198728306E+01  0.10195890560E+01 0.  0.
     999903    2    3    3    0    0 -0.71894746229E-01  0.51869082545E-02 -0.10664453630E+00  0.12995695525E+00  0.17888391282E-01 0.  0.
         14    1    1    2    0    0  0.19016595923E-01  0.18512753726E-02 -0.14618114071E-01  0.24057169410E-01  0.00000000000E+00 0.  1.
     999901    1    3    3    0    0  0.52878150306E-01 -0.70381836271E-02  0.12126265037E+00  0.88991587534E+00  0.88000000000E+00 0. -1.
        -11    1    4    4    0    0 -0.46019551363E-01 -0.32311235067E-02 -0.76585491165E-01  0.89408264969E-01  0.51100000000E-03 0. -1.
         11    1    4    4    0    0 -0.25875194865E-01  0.84180317612E-02 -0.30059045134E-01  0.40548690280E-01  0.51100000000E-03 0.  1.
</event>
<event>
 8    1  0.1076043E+005  0.1043930E+01  0.7957747E-01            NaN
         13   -1    0    0    0    0  0.00000000000E+00  0.00000000000E+00  0.74505805969E-08  0.10566000000E+00  0.10566000000E+00 0.  1.
     999900   -1    0    0    0    0 -0.00000000000E+00 -0.00000000000E+00 -0.74505805969E-08  0.93827000000E+00  0.93827000000E+00 0. -1.
     999902    2    1    2    0    0 -0.57161567500E-02  0.20253780151E-01 -0.12462943479E-01  0.10194715655E+01  0.10191781286E+01 0.  0.
     999903    2    3    3    0    0  0.62389145467E-01  0.86801100156E-01  0.72045802632E-01  0.13030982196E+00  0.19058215092E-01 0.  0.
         14    1    1    2    0    0  0.57161567500E-02 -0.20253780151E-01  0.12462943479E-01  0.24458434507E-01  0.00000000000E+00 0. -1.
     999901    1    3    3    0    0 -0.68105302217E-01 -0.66547320005E-01 -0.84508746111E-01  0.88916174353E+00  0.88000000000E+00 0. -1.
        -11    1    4    4    0    0  0.32785194817E-01  0.60297803464E-01  0.49477207412E-01  0.84610574257E-01  0.51100000000E-03 0. -1.
         11    1    4    4    0    0  0.29603950650E-01  0.26503296692E-01  0.22568595220E-01  0.45699247705E-01  0.51100000000E-03 0.  1.
</event>
<event>
 8    1  0.1076043E+005  0.1043930E+01  0.7957747E-01            NaN
         13   -1    0    0    0    0  0.00000000000E+00  0.00000000000E+00  0.74505805969E-08  0.10566000000E+00  0.10566000000E+00 0. -1.
     999900   -1    0    0    0    0 -0.00000000000E+00 -0.00000000000E+00 -0.74505805969E-08  0.93827000000E+00  0.93827000000E+00 0.  1.
     999902    2    1    2    0    0 -0.16252160797E-01  0.33367846098E-02  0.17885880984E-01  0.10195338609E+01  0.10192419350E+01 0.  0.
     999903    2    3    3    0    0  0.11652087369E+00 -0.93460013714E-02  0.50827330705E-01  0.12887417798E+00  0.18991431140E-01 0.  0.
         14    1    1    2    0    0  0.16252160797E-01 -0.33367846098E-02 -0.17885880984E-01  0.24396139053E-01  0.00000000000E+00 0.  1.
     999901    1    3    3    0    0 -0.13277303449E+00  0.12682785981E-01 -0.32941449720E-01  0.89065968296E+00  0.88000000000E+00 0. -1.
        -11    1    4    4    0    0  0.51761771049E-01  0.62871036311E-03  0.13650849183E-01  0.53537678538E-01  0.51100000000E-03 0.  1.
         11    1    4    4    0    0  0.64759102643E-01 -0.99747117346E-02  0.37176481522E-01  0.75336499446E-01  0.51100000000E-03 0. -1.
</event>
<event>
 8    1  0.1076043E+005  0.1043930E+01  0.7957747E-01            NaN
         13   -1    0    0    0    0  0.00000000000E+00  0.00000000000E+00  0.74505805969E-08  0.10566000000E+00  0.10566000000E+00 0.  1.
     999900   -1    0    0    0    0 -0.00000000000E+00 -0.00000000000E+00 -0.74505805969E-08  0.93827000000E+00  0.93827000000E+00 0.  1.
     999902    2    1    2    0    0 -0.16551031998E-01 -0.15974881772E-01  0.11062472272E-01  0.10184052708E+01  0.10180853519E+01 0.  0.
     999903    2    3    3    0    0  0.86598372098E-01 -0.45482784740E-01  0.81919448813E-01  0.12906212723E+00  0.19449288740E-01 0.  0.
         14    1    1    2    0    0  0.16551031998E-01  0.15974881772E-01 -0.11062472272E-01  0.25524729197E-01  0.00000000000E+00 0. -1.
     999901    1    3    3    0    0 -0.10314940410E+00  0.29507902969E-01 -0.70856976541E-01  0.88934314358E+00  0.88000000000E+00 0.  1.
        -11    1    4    4    0    0  0.34218875159E-01 -0.27567418545E-01  0.42202965446E-01  0.60928198692E-01  0.51100000000E-03 0.  1.
         11    1    4    4    0    0  0.52379496938E-01 -0.17915366195E-01  0.39716483368E-01  0.68133928534E-01  0.51100000000E-03 0. -1.
</event>
<event>
 8    1  0.1076043E+005  0.1043930E+01  0.7957747E-01            NaN
         13   -1    0    0    0    0  0.00000000000E+00  0.00000000000E+00  0.74505805969E-08  0.10566000000E+00  0.10566000000E+00 0. -1.
     999900   -1    0    0    0    0 -0.00000000000E+00 -0.00000000000E+00 -0.74505805969E-08  0.93827000000E+00  0.93827000000E+00 0. -1.
     999902    2    1    2    0    0 -0.41036402711E-02 -0.88539771760E-02 -0.21500427593E-01  0.10203185375E+01  0.10200453013E+01 0.  0.
     999903    2    3    3    0    0 -0.11972081344E+00  0.39625648106E-01 -0.30914990250E-01  0.13138308494E+00  0.20062732309E-01 0.  0.
         14    1    1    2    0    0  0.41036402711E-02  0.88539771760E-02  0.21500427593E-01  0.23611462513E-01  0.00000000000E+00 0. -1.
     999901    1    3    3    0    0  0.11561717317E+00 -0.48479625282E-01  0.94145626567E-02  0.88893545254E+00  0.88000000000E+00 0.  1.
        -11    1    4    4    0    0 -0.71491213304E-01  0.30619377263E-01 -0.26300329395E-01  0.82100598602E-01  0.51100000000E-03 0. -1.
         11    1    4    4    0    0 -0.48229600140E-01  0.90062708434E-02 -0.46146608545E-02  0.49282486341E-01  0.51100000000E-03 0.  1.
</event>
<event>
 8    1  0.1076043E+005  0.1043930E+01  0.7957747E-01            NaN
         13   -1    0    0    0    0  0.00000000000E+00  0.00000000000E+00  0.74505805969E-08  0.10566000000E+00  0.10566000000E+00 0. -1.
     999900   -1    0    0    0    0 -0.00000000000E+00 -0.00000000000E+00 -0.74505805969E-08  0.93827000000E+00  0.93827000000E+00 0.  1.
     999902    2    1    2    0    0 -0.48084487020E-02 -0.15835780060E-02  0.22403184880E-01  0.10209619441E+01  0.10207035612E+01 0.  0.
     999903    2    3    3    0    0  0.16325953589E-01 -0.35378548202E-01 -0.12052751619E+00  0.12853942744E+00  0.21847741590E-01 0.  0.
         14    1    1    2    0    0  0.48084487020E-02  0.15835780060E-02 -0.22403184880E-01  0.22968055882E-01  0.00000000000E+00 0.  1.
     999901    1    3    3    0    0 -0.21134402291E-01  0.33794970196E-01  0.14293070107E+00  0.89242251668E+00  0.88000000000E+00 0. -1.
        -11    1    4    4    0    0  0.19613504988E-01 -0.33726728002E-01 -0.11729760801E+00  0.12361703655E+00  0.51100000000E-03 0. -1.
         11    1    4    4    0    0 -0.32875513993E-02 -0.16518201997E-02 -0.32299081868E-02  0.49223908896E-02  0.51100000000E-03 0.  1.
</event>
<event>
 8    1  0.1076043E+005  0.1043930E+01  0.7957747E-01            NaN
         13   -1    0    0    0    0  0.00000000000E+00  0.00000000000E+00  0.74505805969E-08  0.10566000000E+00  0.10566000000E+00 0. -1.
     999900   -1    0    0    0    0 -0.00000000000E+00 -0.00000000000E+00 -0.74505805969E-08  0.93827000000E+00  0.93827000000E+00 0.  1.
     999902    2    1    2    0    0  0.19775869190E-02  0.19069022930E-01 -0.14064964928E-01  0.10201526636E+01  0.10198755294E+01 0.  0.
     999903    2    3    3    0    0 -0.70006042776E-01 -0.10070529727E+00 -0.34696734929E-01  0.12888771951E+00  0.19125320960E-01 0.  0.
         14    1    1    2    0    0 -0.19775869190E-02 -0.19069022930E-01  0.14064964928E-01  0.23777336351E-01  0.00000000000E+00 0. -1.
     999901    1    3    3    0    0  0.71983629695E-01  0.11977432020E+00  0.20631770002E-01  0.89126494414E+00  0.88000000000E+00 0.  1.
        -11    1    4    4    0    0 -0.57179959358E-01 -0.67306389373E-01 -0.26007324944E-01  0.92067040109E-01  0.51100000000E-03 0.  1.
         11    1    4    4    0    0 -0.12826083418E-01 -0.33398907895E-01 -0.86894099854E-02  0.36820679398E-01  0.51100000000E-03 0. -1.
</event>
<event>
 8    1  0.1076043E+005  0.1043930E+01  0.7957747E-01            NaN
         13   -1    0    0    0    0  0.00000000000E+00  0.00000000000E+00  0.74505805969E-08  0.10566000000E+00  0.10566000000E+00 0.  1.
     999900   -1    0    0    0    0 -0.00000000000E+00 -0.00000000000E+00 -0.74505805969E-08  0.93827000000E+00  0.93827000000E+00 0. -1.
     999902    2    1    2    0    0  0.20089924686E-01 -0.11058168915E-01 -0.40045743955E-02  0.10206507219E+01  0.10203852073E+01 0.  0.
     999903    2    3    3    0    0  0.16980534823E-01 -0.73772153295E-01  0.10666370107E+00  0.13149934032E+00  0.13574321856E-01 0.  0.
         14    1    1    2    0    0 -0.20089924686E-01  0.11058168915E-01  0.40045743955E-02  0.23279278118E-01  0.00000000000E+00 0.  1.
     999901    1    3    3    0    0  0.31093898626E-02  0.62713984380E-01 -0.11066827546E+00  0.88915138156E+00  0.88000000000E+00 0. -1.
        -11    1    4    4    0    0  0.21723620325E-02 -0.39294788404E-01  0.52957307758E-01  0.65981339168E-01  0.51100000000E-03 0. -1.
         11    1    4    4    0    0  0.14808172791E-01 -0.34477364891E-01  0.53706393311E-01  0.65518001150E-01  0.51100000000E-03 0.  1.
</event>
<event>
 8    1  0.1076043E+005  0.1043930E+01  0.7957747E-01            NaN
         13   -1    0    0    0    0  0.00000000000E+00  0.00000000000E+00  0.74505805969E-08  0.10566000000E+00  0.10566000000E+00 0. -1.
     999900   -1    0    0    0    0 -0.00000000000E+00 -0.00000000000E+00 -0.74505805969E-08  0.93827000000E+00  0.93827000000E+00 0.  1.
     999902    2    1    2    0    0  0.19255234805E-01  0.50091365872E-02  0.12606921916E-01  0.10203760195E+01  0.10201041276E+01 0.  0.
     999903    2    3    3    0    0 -0.77230518152E-01 -0.95581415493E-01 -0.31100548988E-01  0.12833437098E+00  0.20052598508E-01 0.  0.
         14    1    1    2    0    0 -0.19255234805E-01 -0.50091365872E-02 -0.12606921916E-01  0.23553980490E-01  0.00000000000E+00 0.  1.
     999901    1    3    3    0    0  0.96485752957E-01  0.10059055208E+00  0.43707470904E-01  0.89204164853E+00  0.88000000000E+00 0.  1.
        -11    1    4    4    0    0 -0.57541324191E-01 -0.81219336535E-01 -0.29886299590E-01  0.10392803588E+00  0.51100000000E-03 0. -1.
         11    1    4    4    0    0 -0.19689193961E-01 -0.14362078958E-01 -0.12142493983E-02  0.24406335109E-01  0.51100000000E-03 0.  1.
</event>
<event>
 8    1  0.1076043E+005  0.1043930E+01  0.7957747E-01            NaN
         13   -1    0    0    0    0  0.00000000000E+00  0.00000000000E+00  0.74505805969E-08  0.10566000000E+00  0.10566000000E+00 0.  1.
     999900   -1    0    0    0    0 -0.00000000000E+00 -0.00000000000E+00 -0.74505805969E-08  0.93827000000E+00  0.93827000000E+00 0.  1.
     999902    2    1    2    0    0 -0.13292157928E-01 -0.21998805262E-02 -0.19198985740E-01  0.10204753205E+01  0.10202057429E+01 0.  0.
     999903    2    3    3    0    0 -0.50044198638E-01  0.10941013560E+00  0.45799343832E-01  0.13028865972E+00  0.20063782454E-01 0.  0.
         14    1    1    2    0    0  0.13292157928E-01  0.21998805262E-02  0.19198985740E-01  0.23454679493E-01  0.00000000000E+00 0.  1.
     999901    1    3    3    0    0  0.36752040709E-01 -0.11161001613E+00 -0.64998329572E-01  0.89018666079E+00  0.88000000000E+00 0. -1.
        -11    1    4    4    0    0 -0.20741506586E-02  0.20899659033E-01  0.11377165649E-01  0.23891397361E-01  0.51100000000E-03 0. -1.
         11    1    4    4    0    0 -0.47970047979E-01  0.88510476568E-01  0.34422178184E-01  0.10639726236E+00  0.51100000000E-03 0.  1.
</event>
<event>
 8    1  0.1076043E+005  0.1043930E+01  0.7957747E-01            NaN
         13   -1    0    0    0    0  0.00000000000E+00  0.00000000000E+00  0.74505805969E-08  0.10566000000E+00  0.10566000000E+00 0.  1.
     999900   -1    0    0    0    0 -0.00000000000E+00 -0.00000000000E+00 -0.74505805969E-08  0.93827000000E+00  0.93827000000E+00 0. -1.
     999902    2    1    2    0    0 -0.14596780122E-01  0.14658013593E-01  0.11149593181E-01  0.10204302813E+01  0.10201596552E+01 0.  0.
     999903    2    3    3    0    0  0.14852882374E-01  0.11164002098E+00 -0.64604756519E-01  0.13137937503E+00  0.20066470024E-01 0.  0.
         14    1    1    2    0    0  0.14596780122E-01 -0.14658013593E-01 -0.11149593181E-01  0.23499718733E-01  0.00000000000E+00 0. -1.
     999901    1    3    3    0    0 -0.29449662497E-01 -0.96982007390E-01  0.75754349700E-01  0.88905090623E+00  0.88000000000E+00 0. -1.
        -11    1    4    4    0    0 -0.42502718186E-02  0.39758843396E-01 -0.21143023023E-01  0.45234046716E-01  0.51100000000E-03 0.  1.
         11    1    4    4    0    0  0.19103154193E-01  0.71881177586E-01 -0.43461733496E-01  0.86145328316E-01  0.51100000000E-03 0. -1.
</event>
<event>
 8    1  0.1076043E+005  0.1043930E+01  0.7957747E-01            NaN
         13   -1    0    0    0    0  0.00000000000E+00  0.00000000000E+00  0.74505805969E-08  0.10566000000E+00  0.10566000000E+00 0. -1.
     999900   -1    0    0    0    0 -0.00000000000E+00 -0.00000000000E+00 -0.74505805969E-08  0.93827000000E+00  0.93827000000E+00 0.  1.
     999902    2    1    2    0    0  0.15491512916E-01 -0.29262962919E-02 -0.17648084390E-01  0.10202655738E+01  0.10199910961E+01 0.  0.
     999903    2    3    3    0    0 -0.62626528527E-01  0.17275192063E-02 -0.11379439781E+00  0.13157653938E+00  0.20932136665E-01 0.  0.
         14    1    1    2    0    0 -0.15491512916E-01  0.29262962919E-02  0.17648084390E-01  0.23664426151E-01  0.00000000000E+00 0. -1.
     999901    1    3    3    0    0  0.78118041443E-01 -0.46538154983E-02  0.96146313418E-01  0.88868903447E+00  0.88000000000E+00 0. -1.
        -11    1    4    4    0    0 -0.33173980401E-01  0.83488666609E-02 -0.45686210858E-01  0.57076330766E-01  0.51100000000E-03 0. -1.
         11    1    4    4    0    0 -0.29452548127E-01 -0.66213474546E-02 -0.68108186951E-01  0.74500208617E-01  0.51100000000E-03 0.  1.
</event>
<event>
 8    1  0.1076043E+005  0.1043930E+01  0.7957747E-01            NaN
         13   -1    0    0    0    0  0.00000000000E+00  0.00000000000E+00  0.74505805969E-08  0.10566000000E+00  0.10566000000E+00 0. -1.
     999900   -1    0    0    0    0 -0.00000000000E+00 -0.00000000000E+00 -0.74505805969E-08  0.93827000000E+00  0.93827000000E+00 0.  1.
     999902    2    1    2    0    0 -0.16775791881E-01  0.13913791898E-01  0.19760149432E-01  0.10145108854E+01  0.10140842432E+01 0.  0.
     999903    2    3    3    0    0 -0.59756259852E-01 -0.10635842396E+00  0.21948942748E-01  0.12528790023E+00  0.18231207290E-01 0.  0.
         14    1    1    2    0    0  0.16775791881E-01 -0.13913791898E-01 -0.19760149432E-01  0.29419114599E-01  0.00000000000E+00 0.  1.
     999901    1    3    3    0    0  0.42980467971E-01  0.12027221585E+00 -0.21887933158E-02  0.88922298517E+00  0.88000000000E+00 0. -1.
        -11    1    4    4    0    0 -0.49021100782E-01 -0.72562730491E-01  0.11537485666E-01  0.88327758234E-01  0.51100000000E-03 0. -1.
         11    1    4    4    0    0 -0.10735159070E-01 -0.33795693465E-01  0.10411457082E-01  0.36960141999E-01  0.51100000000E-03 0.  1.
</event>
<event>
 8    1  0.1076043E+005  0.1043930E+01  0.7957747E-01            NaN
         13   -1    0    0    0    0  0.00000000000E+00  0.00000000000E+00  0.74505805969E-08  0.10566000000E+00  0.10566000000E+00 0.  1.
     999900   -1    0    0    0    0 -0.00000000000E+00 -0.00000000000E+00 -0.74505805969E-08  0.93827000000E+00  0.93827000000E+00 0. -1.
     999902    2    1    2    0    0  0.11445417030E-01  0.18530317237E-01  0.90399244397E-02  0.10203484296E+01  0.10200758929E+01 0.  0.
     999903    2    3    3    0    0  0.47063549000E-02  0.14104066903E-01  0.12980384716E+00  0.13206416674E+00  0.19256970663E-01 0.  0.
         14    1    1    2    0    0 -0.11445417030E-01 -0.18530317237E-01 -0.90399244397E-02  0.23581570383E-01  0.00000000000E+00 0. -1.
     999901    1    3    3    0    0  0.67390621296E-02  0.44262503334E-02 -0.12076392272E+00  0.88828426288E+00  0.88000000000E+00 0. -1.
        -11    1    4    4    0    0  0.87571392188E-02  0.74786841608E-04  0.67626973640E-01  0.68193561024E-01  0.51100000000E-03 0. -1.
         11    1    4    4    0    0 -0.40507843188E-02  0.14029280062E-01  0.62176873518E-01  0.63870605713E-01  0.51100000000E-03 0.  1.
</event>
<event>
 8    1  0.1119611E+005  0.1043930E+01  0.7957747E-01            NaN
         13   -1    0    0    0    0  0.00000000000E+00  0.00000000000E+00  0.74505805969E-08  0.10566000000E+00  0.10566000000E+00 0.  1.
     999900   -1    0    0    0    0 -0.00000000000E+00 -0.00000000000E+00 -0.74505805969E-08  0.93827000000E+00  0.93827000000E+00 0.  1.
     999902    2    1    2    0    0  0.67819732121E-02  0.66023621428E-02 -0.23027386414E-01  0.10190332759E+01  0.10187290957E+01 0.  0.
     999903    2    3    3    0    0 -0.89538550237E-01  0.77842913453E-01  0.44021656122E-01  0.12838832222E+00  0.21656036603E-01 0.  0.
         14    1    1    2    0    0 -0.67819732121E-02 -0.66023621428E-02  0.23027386414E-01  0.24896724113E-01  0.00000000000E+00 0.  1.
     999901    1    3    3    0    0  0.96320523449E-01 -0.71240551310E-01 -0.67049042536E-01  0.89064495367E+00  0.88000000000E+00 0.  1.
        -11    1    4    4    0    0 -0.33545690922E-01  0.29971147980E-01  0.28024801525E-01  0.53002204786E-01  0.51100000000E-03 0. -1.
         11    1    4    4    0    0 -0.55992859314E-01  0.47871765472E-01  0.15996854597E-01  0.75386117433E-01  0.51100000000E-03 0.  1.
</event>
<event>
 8    1  0.1076043E+005  0.1043930E+01  0.7957747E-01            NaN
         13   -1    0    0    0    0  0.00000000000E+00  0.00000000000E+00  0.74505805969E-08  0.10566000000E+00  0.10566000000E+00 0. -1.
     999900   -1    0    0    0    0 -0.00000000000E+00 -0.00000000000E+00 -0.74505805969E-08  0.93827000000E+00  0.93827000000E+00 0. -1.
     999902    2    1    2    0    0 -0.16954939558E-01 -0.10946128487E-02 -0.17333875989E-01  0.10196579706E+01  0.10193690429E+01 0.  0.
     999903    2    3    3    0    0  0.35792258461E-01  0.99676772533E-01  0.69212710640E-01  0.12812701174E+00  0.20238257703E-01 0.  0.
         14    1    1    2    0    0  0.16954939558E-01  0.10946128487E-02  0.17333875989E-01  0.24272029366E-01  0.00000000000E+00 0. -1.
     999901    1    3    3    0    0 -0.52747198020E-01 -0.10077138538E+00 -0.86546586630E-01  0.89153095889E+00  0.88000000000E+00 0. -1.
        -11    1    4    4    0    0  0.19045157154E-01  0.54650601642E-01  0.25765330776E-01  0.63352345354E-01  0.51100000000E-03 0.  1.
         11    1    4    4    0    0  0.16747101307E-01  0.45026170890E-01  0.43447379865E-01  0.64774666385E-01  0.51100000000E-03 0. -1.
</event>
<event>
 8    1  0.1076043E+005  0.1043930E+01  0.7957747E-01            NaN
         13   -1    0    0    0    0  0.00000000000E+00  0.00000000000E+00  0.74505805969E-08  0.10566000000E+00  0.10566000000E+00 0. -1.
     999900   -1    0    0    0    0 -0.00000000000E+00 -0.00000000000E+00 -0.74505805969E-08  0.93827000000E+00  0.93827000000E+00 0.  1.
     999902    2    1    2    0    0 -0.13419563714E-02 -0.26223607417E-01  0.14746607440E-02  0.10176307023E+01  0.10172908106E+01 0.  0.
     999903    2    3    3    0    0 -0.12062478910E+00 -0.41933870685E-01 -0.44725328296E-02  0.12942432111E+00  0.20539281621E-01 0.  0.
         14    1    1    2    0    0  0.13419563714E-02  0.26223607417E-01 -0.14746607440E-02  0.26299297655E-01  0.00000000000E+00 0. -1.
     999901    1    3    3    0    0  0.11928283273E+00  0.15710263268E-01  0.59471935736E-02  0.88820638123E+00  0.88000000000E+00 0.  1.
        -11    1    4    4    0    0 -0.58630079807E-01 -0.28515470287E-01 -0.90652043799E-02  0.65825962623E-01  0.51100000000E-03 0.  1.
         11    1    4    4    0    0 -0.61994709290E-01 -0.13418400398E-01  0.45926715503E-02  0.63598358486E-01  0.51100000000E-03 0. -1.
</event>
<event>
 8    1  0.1076043E+005  0.1043930E+01  0.7957747E-01            NaN
         13   -1    0    0    0    0  0.00000000000E+00  0.00000000000E+00  0.74505805969E-08  0.10566000000E+00  0.10566000000E+00 0. -1.
     999900   -1    0    0    0    0 -0.00000000000E+00 -0.00000000000E+00 -0.74505805969E-08  0.93827000000E+00  0.93827000000E+00 0.  1.
     999902    2    1    2    0    0 -0.55506247180E-02  0.19644659670E-01 -0.13142666896E-01  0.10196513719E+01  0.10193622852E+01 0.  0.
     999903    2    3    3    0    0  0.72086027114E-01  0.10627966215E+00 -0.23083799658E-01  0.13193976364E+00  0.19582582329E-01 0.  0.
         14    1    1    2    0    0  0.55506247180E-02 -0.19644659670E-01  0.13142666896E-01  0.24278628080E-01  0.00000000000E+00 0. -1.
     999901    1    3    3    0    0 -0.77636651833E-01 -0.86635002476E-01  0.99411327623E-02  0.88771160828E+00  0.88000000000E+00 0. -1.
        -11    1    4    4    0    0  0.38635357082E-01  0.65409820652E-01 -0.50801665897E-02  0.76139376594E-01  0.51100000000E-03 0. -1.
         11    1    4    4    0    0  0.33450670033E-01  0.40869841494E-01 -0.18003633068E-01  0.55800387042E-01  0.51100000000E-03 0.  1.
</event>
<event>
 8    1  0.1076043E+005  0.1043930E+01  0.7957747E-01            NaN
         13   -1    0    0    0    0  0.00000000000E+00  0.00000000000E+00  0.74505805969E-08  0.10566000000E+00  0.10566000000E+00 0. -1.
     999900   -1    0    0    0    0 -0.00000000000E+00 -0.00000000000E+00 -0.74505805969E-08  0.93827000000E+00  0.93827000000E+00 0.  1.
     999902    2    1    2    0    0 -0.20302029137E-01  0.81971741883E-02 -0.11203305068E-01  0.10193356898E+01  0.10190389435E+01 0.  0.
     999903    2    3    3    0    0 -0.10353749414E+00  0.75140801181E-01  0.26389370647E-01  0.13207991993E+00  0.19558979261E-01 0.  0.
         14    1    1    2    0    0  0.20302029137E-01 -0.81971741883E-02  0.11203305068E-01  0.24594310240E-01  0.00000000000E+00 0. -1.
     999901    1    3    3    0    0  0.83235465007E-01 -0.66943626993E-01 -0.37592675715E-01  0.88725576983E+00  0.88000000000E+00 0. -1.
        -11    1    4    4    0    0 -0.79922257668E-01  0.65592209673E-01  0.16267490977E-01  0.10466516911E+00  0.51100000000E-03 0.  1.
         11    1    4    4    0    0 -0.23615236476E-01  0.95485915082E-02  0.10121879670E-01  0.27414750822E-01  0.51100000000E-03 0. -1.
</event>
<event>
 8    1  0.1076043E+005  0.1043930E+01  0.7957747E-01            NaN
         13   -1    0    0    0    0  0.00000000000E+00  0.00000000000E+00  0.74505805969E-08  0.10566000000E+00  0.10566000000E+00 0. -1.
     999900   -1    0    0    0    0 -0.00000000000E+00 -0.00000000000E+00 -0.74505805969E-08  0.93827000000E+00  0.93827000000E+00 0. -1.
     999902    2    1    2    0    0  0.99248434161E-02 -0.21145784162E-01 -0.47976087639E-02  0.10200833282E+01  0.10198045562E+01 0.  0.
     999903    2    3    3    0    0  0.66527271375E-01  0.38362541883E-01 -0.10393952569E+00  0.13071602761E+00  0.19639053380E-01 0.  0.
         14    1    1    2    0    0 -0.99248434161E-02  0.21145784162E-01  0.47976087639E-02  0.23846671770E-01  0.00000000000E+00 0.  1.
     999901    1    3    3    0    0 -0.56602427959E-01 -0.59508326045E-01  0.99141916925E-01  0.88936730062E+00  0.88000000000E+00 0.  1.
        -11    1    4    4    0    0  0.58962436361E-01  0.26824587243E-01 -0.78554320539E-01  0.10181929964E+00  0.51100000000E-03 0.  1.
         11    1    4    4    0    0  0.75648350143E-02  0.11537954640E-01 -0.25385205150E-01  0.28896727973E-01  0.51100000000E-03 0. -1.
</event>
<event>
 8    1  0.1076043E+005  0.1043930E+01  0.7957747E-01            NaN
         13   -1    0    0    0    0  0.00000000000E+00  0.00000000000E+00  0.74505805969E-08  0.10566000000E+00  0.10566000000E+00 0.  1.
     999900   -1    0    0    0    0 -0.00000000000E+00 -0.00000000000E+00 -0.74505805969E-08  0.93827000000E+00  0.93827000000E+00 0. -1.
     999902    2    1    2    0    0 -0.13071718191E-01  0.15203476511E-01 -0.13437648292E-01  0.10197931836E+01  0.10195075043E+01 0.  0.
     999903    2    3    3    0    0 -0.82386700882E-01  0.88387582431E-01  0.49428602288E-01  0.13181083825E+00  0.18192777296E-01 0.  0.
         14    1    1    2    0    0  0.13071718191E-01 -0.15203476511E-01  0.13437648292E-01  0.24136816404E-01  0.00000000000E+00 0.  1.
     999901    1    3    3    0    0  0.69314982691E-01 -0.73184105920E-01 -0.62866250580E-01  0.88798234535E+00  0.88000000000E+00 0. -1.
        -11    1    4    4    0    0 -0.20116275743E-01  0.33902153196E-01  0.14733762197E-01  0.42087592122E-01  0.51100000000E-03 0. -1.
         11    1    4    4    0    0 -0.62270425138E-01  0.54485429235E-01  0.34694840090E-01  0.89723246128E-01  0.51100000000E-03 0.  1.
</event>
<event>
 7    1  0.2211873E+005  0.1043930E+01  0.7957747E-01            NaN
         13   -1    0    0    0    0  0.00000000000E+00  0.00000000000E+00  0.74505805969E-08  0.10566000000E+00  0.10566000000E+00 0.  1.
     999900   -1    0    0    0    0 -0.00000000000E+00 -0.00000000000E+00 -0.74505805969E-08  0.93827000000E+00  0.93827000000E+00 0.  1.
     999903    2    1    2    0    0 -0.32527123635E-01 -0.72036526046E-01 -0.13546100577E-01  0.82646092058E-01  0.19990118430E-01 0.  0.
         14    1    1    2    0    0 -0.23246573088E-01 -0.42695843693E-01  0.52089061652E-01  0.71250323317E-01  0.00000000000E+00 0.  1.
     999901    1    1    2    0    0  0.55773696723E-01  0.11473236974E+00 -0.38542961076E-01  0.89003358463E+00  0.88000000000E+00 0.  1.
        -11    1    3    3    0    0 -0.27847513359E-01 -0.40044652612E-01 -0.40594833684E-02  0.48946897035E-01  0.51100000000E-03 0. -1.
         11    1    3    3    0    0 -0.46796102762E-02 -0.31991873434E-01 -0.94866172083E-02  0.33699195023E-01  0.51100000000E-03 0.  1.
</event>
<event>
 8    1  0.1076043E+005  0.1043930E+01  0.7957747E-01            NaN
         13   -1    0    0    0    0  0.00000000000E+00  0.00000000000E+00  0.74505805969E-08  0.10566000000E+00  0.10566000000E+00 0. -1.
     999900   -1    0    0    0    0 -0.00000000000E+00 -0.00000000000E+00 -0.74505805969E-08  0.93827000000E+00  0.93827000000E+00 0.  1.
     999902    2    1    2    0    0 -0.15498837319E-01 -0.39615845456E-02 -0.16968274013E-01  0.10206098278E+01  0.10203433687E+01 0.  0.
     999903    2    3    3    0    0  0.48201773886E-01  0.79993452289E-01  0.85808838802E-01  0.12838264201E+00  0.19914380163E-01 0.  0.
         14    1    1    2    0    0  0.15498837319E-01  0.39615845456E-02  0.16968274013E-01  0.23320172240E-01  0.00000000000E+00 0. -1.
     999901    1    3    3    0    0 -0.63700611204E-01 -0.83955036835E-01 -0.10277711281E+00  0.89222718575E+00  0.88000000000E+00 0.  1.
        -11    1    4    4    0    0  0.18525387601E-01  0.30046995528E-01  0.45858296394E-01  0.57872760390E-01  0.51100000000E-03 0. -1.
         11    1    4    4    0    0  0.29676386285E-01  0.49946456761E-01  0.39950542408E-01  0.70509881617E-01  0.51100000000E-03 0.  1.
</event>
<event>
 8    1  0.1076043E+005  0.1043930E+01  0.7957747E-01            NaN
         13   -1    0    0    0    0  0.00000000000E+00  0.00000000000E+00  0.74505805969E-08  0.10566000000E+00  0.10566000000E+00 0. -1.
     999900   -1    0    0    0    0 -0.00000000000E+00 -0.00000000000E+00 -0.74505805969E-08  0.93827000000E+00  0.93827000000E+00 0.  1.
     999902    2    1    2    0    0 -0.21528006159E-01  0.10187515124E-02  0.22337833263E-01  0.10128901595E+01  0.10124144426E+01 0.  0.
     999903    2    3    3    0    0 -0.39188373427E-01 -0.11219037884E+00 -0.25954057634E-01  0.12414930722E+00  0.24840041476E-01 0.  0.
         14    1    1    2    0    0  0.21528006159E-01 -0.10187515124E-02 -0.22337833263E-01  0.31039840507E-01  0.00000000000E+00 0. -1.
     999901    1    3    3    0    0  0.17660367267E-01  0.11320913035E+00  0.48291890897E-01  0.88874085227E+00  0.88000000000E+00 0. -1.
        -11    1    4    4    0    0 -0.56551547185E-02 -0.34045779757E-01  0.21645469772E-02  0.34583844187E-01  0.51100000000E-03 0. -1.
         11    1    4    4    0    0 -0.33533218708E-01 -0.78144599081E-01 -0.28118604611E-01  0.89565463035E-01  0.51100000000E-03 0.  1.
</event>
<event>
 8    1  0.1076043E+005  0.1043930E+01  0.7957747E-01            NaN
         13   -1    0    0    0    0  0.00000000000E+00  0.00000000000E+00  0.74505805969E-08  0.10566000000E+00  0.10566000000E+00 0.  1.
     999900   -1    0    0    0    0 -0.00000000000E+00 -0.00000000000E+00 -0.74505805969E-08  0.93827000000E+00  0.93827000000E+00 0.  1.
     999902    2    1    2    0    0  0.17785006683E-01  0.11665580022E-01 -0.66639531875E-02  0.10216409782E+01  0.10213978108E+01 0.  0.
     999903    2    3    3    0    0  0.70645533708E-01  0.12211964972E-01 -0.11130254634E+00  0.13386636209E+00  0.19799559542E-01 0.  0.
         14    1    1    2    0    0 -0.17785006683E-01 -0.11665580022E-01  0.66639531875E-02  0.22289021784E-01  0.00000000000E+00 0.  1.
     999901    1    3    3    0    0 -0.52860527025E-01 -0.54638495015E-03  0.10463859315E+00  0.88777461612E+00  0.88000000000E+00 0. -1.
        -11    1    4    4    0    0  0.37349098182E-01  0.85826416067E-02 -0.41788654834E-01  0.56702466135E-01  0.51100000000E-03 0. -1.
         11    1    4    4    0    0  0.33296435526E-01  0.36293233658E-02 -0.69513891503E-01  0.77163895960E-01  0.51100000000E-03 0.  1.
</event>
<event>
 8    1  0.1076043E+005  0.1043930E+01  0.7957747E-01            NaN
         13   -1    0    0    0    0  0.00000000000E+00  0.00000000000E+00  0.74505805969E-08  0.10566000000E+00  0.10566000000E+00 0.  1.
     999900   -1    0    0    0    0 -0.00000000000E+00 -0.00000000000E+00 -0.74505805969E-08  0.93827000000E+00  0.93827000000E+00 0.  1.
     999902    2    1    2    0    0 -0.17665078799E-01 -0.10363781430E-01 -0.82560847452E-02  0.10218477467E+01  0.10216091188E+01 0.  0.
     999903    2    3    3    0    0 -0.38680124454E-01 -0.12651013616E+00 -0.70589579041E-02  0.13396653790E+00  0.19905723131E-01 0.  0.
         14    1    1    2    0    0  0.17665078799E-01  0.10363781430E-01  0.82560847452E-02  0.22082253278E-01  0.00000000000E+00 0. -1.
     999901    1    3    3    0    0  0.21015045654E-01  0.11614635472E+00 -0.11971268411E-02  0.88788120882E+00  0.88000000000E+00 0.  1.
        -11    1    4    4    0    0 -0.14429850360E-01 -0.75171908194E-01  0.14072578781E-02  0.76558982874E-01  0.51100000000E-03 0.  1.
         11    1    4    4    0    0 -0.24250274094E-01 -0.51338227961E-01 -0.84662157822E-02  0.57407555030E-01  0.51100000000E-03 0. -1.
</event>
<event>
 8    1  0.1076043E+005  0.1043930E+01  0.7957747E-01            NaN
         13   -1    0    0    0    0  0.00000000000E+00  0.00000000000E+00  0.74505805969E-08  0.10566000000E+00  0.10566000000E+00 0. -1.
     999900   -1    0    0    0    0 -0.00000000000E+00 -0.00000000000E+00 -0.74505805969E-08  0.93827000000E+00  0.93827000000E+00 0. -1.
     999902    2    1    2    0    0 -0.20020000081E-01 -0.46202238434E-02 -0.11538519439E-01  0.10203655288E+01  0.10200933918E+01 0.  0.
     999903    2    3    3    0    0  0.19216549837E-01 -0.88338218915E-01  0.91021095154E-01  0.12959805966E+00  0.18382072684E-01 0.  0.
         14    1    1    2    0    0  0.20020000081E-01  0.46202238434E-02  0.11538519439E-01  0.23564471190E-01  0.00000000000E+00 0. -1.
     999901    1    3    3    0    0 -0.39236549919E-01  0.83717995072E-01 -0.10255961459E+00  0.89076746915E+00  0.88000000000E+00 0. -1.
        -11    1    4    4    0    0  0.59989374943E-03 -0.72341983677E-02  0.15922422831E-01  0.17506517881E-01  0.51100000000E-03 0.  1.
         11    1    4    4    0    0  0.18616656088E-01 -0.81104020547E-01  0.75098672324E-01  0.11209154178E+00  0.51100000000E-03 0. -1.
</event>
<event>
 8    1  0.1076043E+005  0.1043930E+01  0.7957747E-01            NaN
         13   -1    0    0    0    0  0.00000000000E+00  0.00000000000E+00  0.74505805969E-08  0.10566000000E+00  0.10566000000E+00 0. -1.
     999900   -1    0    0    0    0 -0.00000000000E+00 -0.00000000000E+00 -0.74505805969E-08  0.93827000000E+00  0.93827000000E+00 0. -1.
     999902    2    1    2    0    0  0.10403075868E-01  0.11588717480E-01 -0.18573981450E-01  0.10196912883E+01  0.10194031627E+01 0.  0.
     999903    2    3    3    0    0  0.12671717928E+00 -0.16517756206E-01 -0.24130017691E-01  0.13157540952E+00  0.19993770079E-01 0.  0.
         14    1    1    2    0    0 -0.10403075868E-01 -0.11588717480E-01  0.18573981450E-01  0.24238711749E-01  0.00000000000E+00 0.  1.
     999901    1    3    3    0    0 -0.11631410341E+00  0.28106473686E-01  0.55560362417E-02  0.88811587873E+00  0.88000000000E+00 0. -1.
        -11    1    4    4    0    0  0.10689945193E+00 -0.20970685525E-01 -0.22087232960E-01  0.11115470955E+00  0.51100000000E-03 0. -1.
         11    1    4    4    0    0  0.19817727345E-01  0.44529293185E-02 -0.20427847317E-02  0.20420699966E-01  0.51100000000E-03 0.  1.
</event>
<event>
 8    1  0.1076043E+005  0.1043930E+01  0.7957747E-01            NaN
         13   -1    0    0    0    0  0.00000000000E+00  0.00000000000E+00  0.74505805969E-08  0.10566000000E+00  0.10566000000E+00 0.  1.
     999900   -1    0    0    0    0 -0.00000000000E+00 -0.00000000000E+00 -0.74505805969E-08  0.93827000000E+00  0.93827000000E+00 0.  1.
     999902    2    1    2    0    0  0.26172945151E-02  0.13410468204E-01 -0.19664842291E-01  0.10199842924E+01  0.10197031725E+01 0.  0.
     999903    2    3    3    0    0  0.10503106823E+00  0.76586676421E-01 -0.42365063459E-02  0.13166123866E+00  0.20486324219E-01 0.  0.
         14    1    1    2    0    0 -0.26172945151E-02 -0.13410468204E-01  0.19664842291E-01  0.23945707556E-01  0.00000000000E+00 0.  1.
     999901    1    3    3    0    0 -0.10241377372E+00 -0.63176208216E-01 -0.15428335945E-01  0.88832305378E+00  0.88000000000E+00 0. -1.
        -11    1    4    4    0    0  0.82557671081E-01  0.55599442911E-01 -0.11095638175E-01  0.10015209141E+00  0.51100000000E-03 0. -1.
         11    1    4    4    0    0  0.22473397154E-01  0.20987233509E-01  0.68591318291E-02  0.31509147251E-01  0.51100000000E-03 0.  1.
</event>
<event>
 7    1  0.1621204E+005  0.1043930E+01  0.7957747E-01            NaN
         13   -1    0    0    0    0  0.00000000000E+00  0.00000000000E+00  0.74505805969E-08  0.10566000000E+00  0.10566000000E+00 0.  1.
     999900   -1    0    0    0    0 -0.00000000000E+00 -0.00000000000E+00 -0.74505805969E-08  0.93827000000E+00  0.93827000000E+00 0. -1.
     999902    2    1    2    0    0  0.19041813067E-02 -0.22863331970E-01 -0.42343200426E-02  0.10206000338E+01  0.10203333483E+01 0.  0.
         14    1    1    2    0    0 -0.19041813067E-02  0.22863331970E-01  0.42343200426E-02  0.23329966169E-01  0.00000000000E+00 0.  1.
     999901    1    3    3    0    0 -0.66628910663E-01  0.83146134157E-01  0.38580554393E-01  0.88726611033E+00  0.88000000000E+00 0.  1.
        -11    1    3    3    0    0  0.39106649845E-01 -0.60854281314E-01 -0.22982775190E-01  0.75901532875E-01  0.51100000000E-03 0.  1.
         11    1    3    3    0    0  0.29426442125E-01 -0.45155184813E-01 -0.19832099246E-01  0.57432390627E-01  0.51100000000E-03 0. -1.
</event>
<event>
 8    1  0.1076043E+005  0.1043930E+01  0.7957747E-01            NaN
         13   -1    0    0    0    0  0.00000000000E+00  0.00000000000E+00  0.74505805969E-08  0.10566000000E+00  0.10566000000E+00 0. -1.
     999900   -1    0    0    0    0 -0.00000000000E+00 -0.00000000000E+00 -0.74505805969E-08  0.93827000000E+00  0.93827000000E+00 0.  1.
     999902    2    1    2    0    0  0.70236774296E-02  0.21443382094E-01  0.85331648463E-02  0.10198060372E+01  0.10195206657E+01 0.  0.
     999903    2    3    3    0    0 -0.17533057392E-01  0.86186546706E-01 -0.95045259288E-01  0.13102979956E+00  0.19991951530E-01 0.  0.
         14    1    1    2    0    0 -0.70236774296E-02 -0.21443382094E-01 -0.85331648463E-02  0.24123962829E-01  0.00000000000E+00 0.  1.
     999901    1    3    3    0    0  0.24556734821E-01 -0.64743164612E-01  0.10357842413E+00  0.88877623761E+00  0.88000000000E+00 0. -1.
        -11    1    4    4    0    0 -0.13937150429E-01  0.80078358762E-01 -0.93242860240E-01  0.12369834199E+00  0.51100000000E-03 0.  1.
         11    1    4    4    0    0 -0.35959069626E-02  0.61081879444E-02 -0.18023990484E-02  0.73314575753E-02  0.51100000000E-03 0. -1.
</event>
<event>
 8    1  0.1076043E+005  0.1043930E+01  0.7957747E-01            NaN
         13   -1    0    0    0    0  0.00000000000E+00  0.00000000000E+00  0.74505805969E-08  0.10566000000E+00  0.10566000000E+00 0.  1.
     999900   -1    0    0    0    0 -0.00000000000E+00 -0.00000000000E+00 -0.74505805969E-08  0.93827000000E+00  0.93827000000E+00 0.  1.
     999902    2    1    2    0    0 -0.23450969268E-01 -0.11308275439E-02 -0.59150975205E-02  0.10197181205E+01  0.10194306402E+01 0.  0.
     999903    2    3    3    0    0  0.96972710724E-01  0.72040962538E-01 -0.37827466122E-01  0.12793654811E+00  0.18526636007E-01 0.  0.
         14    1    1    2    0    0  0.23450969268E-01  0.11308275439E-02  0.59150975205E-02  0.24211879506E-01  0.00000000000E+00 0.  1.
     999901    1    3    3    0    0 -0.12042367999E+00 -0.73171790082E-01  0.31912368601E-01  0.89178157238E+00  0.88000000000E+00 0. -1.
        -11    1    4    4    0    0  0.62934514786E-01  0.40068224418E-01 -0.15634920664E-01  0.76229440668E-01  0.51100000000E-03 0.  1.
         11    1    4    4    0    0  0.34038195937E-01  0.31972738120E-01 -0.22192545458E-01  0.51707107446E-01  0.51100000000E-03 0. -1.
</event>
<event>
 8    1  0.1541613E+005  0.1043930E+01  0.7957747E-01            NaN
         13   -1    0    0    0    0  0.00000000000E+00  0.00000000000E+00  0.74505805969E-08  0.10566000000E+00  0.10566000000E+00 0. -1.
     999900   -1    0    0    0    0 -0.00000000000E+00 -0.00000000000E+00 -0.74505805969E-08  0.93827000000E+00  0.93827000000E+00 0. -1.
     999902    2    1    2    0    0 -0.23834403615E-03 -0.14458152682E-01  0.17851837929E-01  0.10209564695E+01  0.10206979619E+01 0.  0.
     999903    2    3    3    0    0  0.11264221594E+00 -0.52089694886E-01  0.41639215208E-01  0.13262995682E+00  0.21337199362E-01 0.  0.
         14    1    1    2    0    0  0.23834403615E-03  0.14458152682E-01 -0.17851837929E-01  0.22973530514E-01  0.00000000000E+00 0.  1.
     999901    1    3    3    0    0 -0.11288055998E+00  0.37631542204E-01 -0.23787377279E-01  0.88832651267E+00  0.88000000000E+00 0. -1.
        -11    1    4    4    0    0  0.68466885037E-01 -0.30540321240E-01  0.35959494874E-01  0.83149094767E-01  0.51100000000E-03 0.  1.
         11    1    4    4    0    0  0.44175330907E-01 -0.21549373646E-01  0.56797203344E-02  0.49480862051E-01  0.51100000000E-03 0. -1.
</event>
<event>
 8    1  0.1076043E+005  0.1043930E+01  0.7957747E-01            NaN
         13   -1    0    0    0    0  0.00000000000E+00  0.00000000000E+00  0.74505805969E-08  0.10566000000E+00  0.10566000000E+00 0.  1.
     999900   -1    0    0    0    0 -0.00000000000E+00 -0.00000000000E+00 -0.74505805969E-08  0.93827000000E+00  0.93827000000E+00 0.  1.
     999902    2    1    2    0    0 -0.21727074558E-01  0.17290376989E-01  0.80345781710E-02  0.10150236451E+01  0.10146119568E+01 0.  0.
     999903    2    3    3    0    0  0.90083470116E-01  0.59318392016E-01  0.60964171720E-01  0.12537793260E+00  0.19216985486E-01 0.  0.
         14    1    1    2    0    0  0.21727074558E-01 -0.17290376989E-01 -0.80345781710E-02  0.28906354866E-01  0.00000000000E+00 0.  1.
     999901    1    3    3    0    0 -0.11181054467E+00 -0.42028015027E-01 -0.52929593549E-01  0.88964571253E+00  0.88000000000E+00 0. -1.
        -11    1    4    4    0    0  0.44134880863E-01  0.34858367240E-01  0.22162683527E-01  0.60451957269E-01  0.51100000000E-03 0.  1.
         11    1    4    4    0    0  0.45948589253E-01  0.24460024776E-01  0.38801488193E-01  0.64925975336E-01  0.51100000000E-03 0. -1.
</event>
<event>
 8    1  0.1076043E+005  0.1043930E+01  0.7957747E-01            NaN
         13   -1    0    0    0    0  0.00000000000E+00  0.00000000000E+00  0.74505805969E-08  0.10566000000E+00  0.10566000000E+00 0.  1.
     999900   -1    0    0    0    0 -0.00000000000E+00 -0.00000000000E+00 -0.74505805969E-08  0.93827000000E+00  0.93827000000E+00 0. -1.
     999902    2    1    2    0    0 -0.53123816451E-02 -0.11069741577E-01  0.20462809963E-01  0.10200660697E+01  0.10197868892E+01 0.  0.
     999903    2    3    3    0    0 -0.29192299056E-01  0.19898334541E-01  0.12634471947E+00  0.13285682102E+00  0.20971712224E-01 0.  0.
         14    1    1    2    0    0  0.53123816451E-02  0.11069741577E-01 -0.20462809963E-01  0.23863930290E-01  0.00000000000E+00 0. -1.
     999901    1    3    3    0    0  0.23879917411E-01 -0.30968076118E-01 -0.10588190950E+00  0.88720924869E+00  0.88000000000E+00 0. -1.
        -11    1    4    4    0    0 -0.78477770806E-02  0.16628025631E-01  0.73534467353E-01  0.75800117753E-01  0.51100000000E-03 0. -1.
         11    1    4    4    0    0 -0.21344521976E-01  0.32703089093E-02  0.52810252114E-01  0.57056703270E-01  0.51100000000E-03 0.  1.
</event>
<event>
 8    1  0.1076043E+005  0.1043930E+01  0.7957747E-01            NaN
         13   -1    0    0    0    0  0.00000000000E+00  0.00000000000E+00  0.74505805969E-08  0.10566000000E+00  0.10566000000E+00 0. -1.
     999900   -1    0    0    0    0 -0.00000000000E+00 -0.00000000000E+00 -0.74505805969E-08  0.93827000000E+00  0.93827000000E+00 0. -1.
     999902    2    1    2    0    0 -0.29175298209E-02  0.13274814527E-01 -0.22100055433E-01  0.10179849594E+01  0.10176542794E+01 0.  0.
     999903    2    3    3    0    0 -0.37520595233E-01 -0.34690313336E-01  0.11325647925E+00  0.12567368127E+00  0.18858185607E-01 0.  0.
         14    1    1    2    0    0  0.29175298209E-02 -0.13274814527E-01  0.22100055433E-01  0.25945040588E-01  0.00000000000E+00 0. -1.
     999901    1    3    3    0    0  0.34603065413E-01  0.47965127862E-01 -0.13535653468E+00  0.89231127815E+00  0.88000000000E+00 0. -1.
        -11    1    4    4    0    0 -0.33498915006E-02  0.23027169304E-02  0.79259632737E-02  0.89222358825E-02  0.51100000000E-03 0.  1.
         11    1    4    4    0    0 -0.34170703733E-01 -0.36993030266E-01  0.10533051598E+00  0.11675144538E+00  0.51100000000E-03 0. -1.
</event>
<event>
 7    1  0.1076043E+005  0.1043930E+01  0.7957747E-01            NaN
         13   -1    0    0    0    0  0.00000000000E+00  0.00000000000E+00  0.74505805969E-08  0.10566000000E+00  0.10566000000E+00 0.  1.
     999900   -1    0    0    0    0 -0.00000000000E+00 -0.00000000000E+00 -0.74505805969E-08  0.93827000000E+00  0.93827000000E+00 0.  1.
     999903    2    1    2    0    0  0.26275084822E-01 -0.14510220441E-01 -0.11297017788E+00  0.11857411886E+00  0.19915672037E-01 0.  0.
         14    1    1    2    0    0 -0.31636387411E-01 -0.19711439756E-01  0.10549522472E-01  0.38738795671E-01  0.00000000000E+00 0. -1.
     999901    1    1    2    0    0  0.53613025883E-02  0.34221660197E-01  0.10242065541E+00  0.88661708547E+00  0.88000000000E+00 0. -1.
        -11    1    3    3    0    0  0.80696314025E-02 -0.15806581382E-01 -0.56967573046E-01  0.59670197467E-01  0.51100000000E-03 0.  1.
         11    1    3    3    0    0  0.18205453420E-01  0.12963609413E-02 -0.56002604836E-01  0.58903921392E-01  0.51100000000E-03 0. -1.
</event>
<event>
 8    1  0.1076043E+005  0.1043930E+01  0.7957747E-01            NaN
         13   -1    0    0    0    0  0.00000000000E+00  0.00000000000E+00  0.74505805969E-08  0.10566000000E+00  0.10566000000E+00 0. -1.
     999900   -1    0    0    0    0 -0.00000000000E+00 -0.00000000000E+00 -0.74505805969E-08  0.93827000000E+00  0.93827000000E+00 0.  1.
     999902    2    1    2    0    0  0.48272823342E-02 -0.16204771596E-01  0.16750386465E-01  0.10201293125E+01  0.10198516272E+01 0.  0.
     999903    2    3    3    0    0 -0.53499773481E-01 -0.57979075875E-01 -0.10096743815E+00  0.12939667915E+00  0.18035465279E-01 0.  0.
         14    1    1    2    0    0 -0.48272823342E-02  0.16204771596E-01 -0.16750386465E-01  0.23800687468E-01  0.00000000000E+00 0.  1.
     999901    1    3    3    0    0  0.58327055815E-01  0.41774304279E-01  0.11771782461E+00  0.89073263338E+00  0.88000000000E+00 0. -1.
        -11    1    4    4    0    0 -0.44941400632E-01 -0.49135026963E-01 -0.94147911365E-01  0.11531726107E+00  0.51100000000E-03 0. -1.
         11    1    4    4    0    0 -0.85583728490E-02 -0.88440489122E-02 -0.68195267809E-02  0.14079418081E-01  0.51100000000E-03 0.  1.
</event>
<event>
 8    1  0.1076043E+005  0.1043930E+01  0.7957747E-01            NaN
         13   -1    0    0    0    0  0.00000000000E+00  0.00000000000E+00  0.74505805969E-08  0.10566000000E+00  0.10566000000E+00 0. -1.
     999900   -1    0    0    0    0 -0.00000000000E+00 -0.00000000000E+00 -0.74505805969E-08  0.93827000000E+00  0.93827000000E+00 0. -1.
     999902    2    1    2    0    0 -0.13032576977E-01 -0.69380233642E-02  0.12927316530E-01  0.10243060416E+01  0.10241180435E+01 0.  0.
     999903    2    3    3    0    0  0.25859104826E-01 -0.46227629359E-01  0.12303290536E+00  0.13572319416E+00  0.21863270879E-01 0.  0.
         14    1    1    2    0    0  0.13032576977E-01  0.69380233642E-02 -0.12927316530E-01  0.19623958406E-01  0.00000000000E+00 0. -1.
     999901    1    3    3    0    0 -0.38891681803E-01  0.39289605995E-01 -0.11010558883E+00  0.88858284743E+00  0.88000000000E+00 0. -1.
        -11    1    4    4    0    0  0.21438437388E-02 -0.25893678322E-01  0.59288237366E-01  0.64733568216E-01  0.51100000000E-03 0. -1.
         11    1    4    4    0    0  0.23715261087E-01 -0.20333951037E-01  0.63744667998E-01  0.70989625949E-01  0.51100000000E-03 0.  1.
</event>
<event>
 8    1  0.1076043E+005  0.1043930E+01  0.7957747E-01            NaN
         13   -1    0    0    0    0  0.00000000000E+00  0.00000000000E+00  0.74505805969E-08  0.10566000000E+00  0.10566000000E+00 0.  1.
     999900   -1    0    0    0    0 -0.00000000000E+00 -0.00000000000E+00 -0.74505805969E-08  0.93827000000E+00  0.93827000000E+00 0.  1.
     999902    2    1    2    0    0 -0.20573763459E-01  0.77472194292E-02  0.89076520252E-02  0.10202098521E+01  0.10199340650E+01 0.  0.
     999903    2    3    3    0    0  0.64287040821E-01 -0.97094178397E-01 -0.49491231895E-01  0.12801956721E+00  0.19481387508E-01 0.  0.
         14    1    1    2    0    0  0.20573763459E-01 -0.77472194292E-02 -0.89076520252E-02  0.23720147899E-01  0.00000000000E+00 0. -1.
     999901    1    3    3    0    0 -0.84860804281E-01  0.10484139783E+00  0.58398883920E-01  0.89219028489E+00  0.88000000000E+00 0. -1.
        -11    1    4    4    0    0  0.36329020907E-01 -0.71269664129E-01 -0.32907765605E-01  0.86500548803E-01  0.51100000000E-03 0.  1.
         11    1    4    4    0    0  0.27958019914E-01 -0.25824514269E-01 -0.16583466289E-01  0.41519018412E-01  0.51100000000E-03 0. -1.
</event>
<event>
 8    1  0.1076043E+005  0.1043930E+01  0.7957747E-01            NaN
         13   -1    0    0    0    0  0.00000000000E+00  0.00000000000E+00  0.74505805969E-08  0.10566000000E+00  0.10566000000E+00 0.  1.
     999900   -1    0    0    0    0 -0.00000000000E+00 -0.00000000000E+00 -0.74505805969E-08  0.93827000000E+00  0.93827000000E+00 0. -1.
     999902    2    1    2    0    0 -0.37254824430E-02  0.24667492535E-01 -0.54013027920E-02  0.10184047482E+01  0.10180848161E+01 0.  0.
     999903    2    3    3    0    0  0.44534763677E-01 -0.64011878904E-01 -0.99336854971E-01  0.12766518456E+00  0.18700876370E-01 0.  0.
         14    1    1    2    0    0  0.37254824430E-02 -0.24667492535E-01  0.54013027920E-02  0.25525251796E-01  0.00000000000E+00 0.  1.
     999901    1    3    3    0    0 -0.48260246120E-01  0.88679371439E-01  0.93935552179E-01  0.89073956364E+00  0.88000000000E+00 0.  1.
        -11    1    4    4    0    0  0.13941790399E-01 -0.24168786966E-01 -0.22422382618E-01  0.35798437762E-01  0.51100000000E-03 0.  1.
         11    1    4    4    0    0  0.30592973279E-01 -0.39843091938E-01 -0.76914472353E-01  0.91866746799E-01  0.51100000000E-03 0. -1.
</event>
<event>
 8    1  0.1076043E+005  0.1043930E+01  0.7957747E-01            NaN
         13   -1    0    0    0    0  0.00000000000E+00  0.00000000000E+00  0.74505805969E-08  0.10566000000E+00  0.10566000000E+00 0.  1.
     999900   -1    0    0    0    0 -0.00000000000E+00 -0.00000000000E+00 -0.74505805969E-08  0.93827000000E+00  0.93827000000E+00 0. -1.
     999902    2    1    2    0    0  0.13049883937E-01 -0.17238133848E-01 -0.98967176385E-02  0.10201519061E+01  0.10198747540E+01 0.  0.
     999903    2    3    3    0    0 -0.87678424745E-01 -0.88226655862E-01 -0.36808031326E-01  0.13115821589E+00  0.19395810271E-01 0.  0.
         14    1    1    2    0    0 -0.13049883937E-01  0.17238133848E-01  0.98967176385E-02  0.23778093896E-01  0.00000000000E+00 0.  1.
     999901    1    3    3    0    0  0.10072830868E+00  0.70988522014E-01  0.26911313687E-01  0.88899369021E+00  0.88000000000E+00 0.  1.
        -11    1    4    4    0    0 -0.98916935281E-02 -0.16208675185E-01 -0.16523973667E-03  0.18996188493E-01  0.51100000000E-03 0. -1.
         11    1    4    4    0    0 -0.77786731217E-01 -0.72017980678E-01 -0.36642791589E-01  0.11216202740E+00  0.51100000000E-03 0.  1.
</event>
<event>
 8    1  0.1076043E+005  0.1043930E+01  0.7957747E-01            NaN
         13   -1    0    0    0    0  0.00000000000E+00  0.00000000000E+00  0.74505805969E-08  0.10566000000E+00  0.10566000000E+00 0. -1.
     999900   -1    0    0    0    0 -0.00000000000E+00 -0.00000000000E+00 -0.74505805969E-08  0.93827000000E+00  0.93827000000E+00 0.  1.
     999902    2    1    2    0    0  0.24823692820E-01 -0.53352572589E-02  0.48809652551E-02  0.10180745457E+01  0.10177461747E+01 0.  0.
     999903    2    3    3    0    0 -0.12108716376E+00 -0.25237875808E-01 -0.10294874232E-01  0.12570892646E+00  0.19942370802E-01 0.  0.
         14    1    1    2    0    0 -0.24823692820E-01  0.53352572589E-02 -0.48809652551E-02  0.25855454300E-01  0.00000000000E+00 0. -1.
     999901    1    3    3    0    0  0.14591085658E+00  0.19902618549E-01  0.15175839487E-01  0.89236561924E+00  0.88000000000E+00 0. -1.
        -11    1    4    4    0    0 -0.86313481977E-01 -0.16205944931E-01 -0.16173684488E-01  0.89300050465E-01  0.51100000000E-03 0.  1.
         11    1    4    4    0    0 -0.34773681786E-01 -0.90319308771E-02  0.58788102562E-02  0.36408875997E-01  0.51100000000E-03 0. -1.
</event>
<event>
 8    1  0.1076043E+005  0.1043930E+01  0.7957747E-01            NaN
         13   -1    0    0    0    0  0.00000000000E+00  0.00000000000E+00  0.74505805969E-08  0.10566000000E+00  0.10566000000E+00 0.  1.
     999900   -1    0    0    0    0 -0.00000000000E+00 -0.00000000000E+00 -0.74505805969E-08  0.93827000000E+00  0.93827000000E+00 0.  1.
     999902    2    1    2    0    0  0.12478698649E-01  0.17537740764E-01  0.99853195155E-02  0.10202024448E+01  0.10199264834E+01 0.  0.
     999903    2    3    3    0    0 -0.45354279234E-01  0.71902014665E-01  0.99043330614E-01  0.13215320236E+00  0.20687609775E-01 0.  0.
         14    1    1    2    0    0 -0.12478698649E-01 -0.17537740764E-01 -0.99853195155E-02  0.23727555224E-01  0.00000000000E+00 0.  1.
     999901    1    3    3    0    0  0.57832977883E-01 -0.54364273901E-01 -0.89058011099E-01  0.88804924241E+00  0.88000000000E+00 0.  1.
        -11    1    4    4    0    0 -0.27441549989E-01  0.48178854414E-01  0.78120428282E-01  0.95798241708E-01  0.51100000000E-03 0.  1.
         11    1    4    4    0    0 -0.17912729244E-01  0.23723160251E-01  0.20922902333E-01  0.36354960656E-01  0.51100000000E-03 0. -1.
</event>
<event>
 8    1  0.1076043E+005  0.1043930E+01  0.7957747E-01            NaN
         13   -1    0    0    0    0  0.00000000000E+00  0.00000000000E+00  0.74505805969E-08  0.10566000000E+00  0.10566000000E+00 0. -1.
     999900   -1    0    0    0    0 -0.00000000000E+00 -0.00000000000E+00 -0.74505805969E-08  0.93827000000E+00  0.93827000000E+00 0. -1.
     999902    2    1    2    0    0  0.22888930822E-01 -0.86222877040E-03 -0.43825842911E-02  0.10206093302E+01  0.10203428597E+01 0.  0.
     999903    2    3    3    0    0  0.11393529667E+00 -0.64326812188E-01  0.17035482339E-01  0.13337997565E+00  0.19514601027E-01 0.  0.
         14    1    1    2    0    0 -0.22888930822E-01  0.86222877040E-03  0.43825842911E-02  0.23320669753E-01  0.00000000000E+00 0.  1.
     999901    1    3    3    0    0 -0.91046365843E-01  0.63464583417E-01 -0.21418066630E-01  0.88722935460E+00  0.88000000000E+00 0. -1.
        -11    1    4    4    0    0  0.10165612452E+00 -0.59243734020E-01  0.20961004171E-01  0.11951323144E+00  0.51100000000E-03 0. -1.
         11    1    4    4    0    0  0.12279172148E-01 -0.50830781678E-02 -0.39255218318E-02  0.13866744209E-01  0.51100000000E-03 0.  1.
</event>
<event>
 8    1  0.1076043E+005  0.1043930E+01  0.7957747E-01            NaN
         13   -1    0    0    0    0  0.00000000000E+00  0.00000000000E+00  0.74505805969E-08  0.10566000000E+00  0.10566000000E+00 0.  1.
     999900   -1    0    0    0    0 -0.00000000000E+00 -0.00000000000E+00 -0.74505805969E-08  0.93827000000E+00  0.93827000000E+00 0.  1.
     999902    2    1    2    0    0 -0.10523506532E-02  0.23561439623E-01 -0.98181864815E-03  0.10203246437E+01  0.10200515505E+01 0.  0.
     999903    2    3    3    0    0 -0.94171821750E-01 -0.51454555295E-01 -0.69853363810E-01  0.12957107219E+00  0.19830961677E-01 0.  0.
         14    1    1    2    0    0  0.10523506532E-02 -0.23561439623E-01  0.98181864815E-03  0.23605356318E-01  0.00000000000E+00 0. -1.
     999901    1    3    3    0    0  0.93119471097E-01  0.75015994918E-01  0.68871545162E-01  0.89075357149E+00  0.88000000000E+00 0. -1.
        -11    1    4    4    0    0 -0.25246334200E-01 -0.16021803906E-01 -0.96173735350E-02  0.31413859770E-01  0.51100000000E-03 0. -1.
         11    1    4    4    0    0 -0.68925487550E-01 -0.35432751389E-01 -0.60235990275E-01  0.98157212422E-01  0.51100000000E-03 0.  1.
</event>
<event>
 8    1  0.1076043E+005  0.1043930E+01  0.7957747E-01            NaN
         13   -1    0    0    0    0  0.00000000000E+00  0.00000000000E+00  0.74505805969E-08  0.10566000000E+00  0.10566000000E+00 0.  1.
     999900   -1    0    0    0    0 -0.00000000000E+00 -0.00000000000E+00 -0.74505805969E-08  0.93827000000E+00  0.93827000000E+00 0. -1.
     999902    2    1    2    0    0 -0.18343009220E-01  0.13352293625E-01  0.61809715288E-02  0.10204150230E+01  0.10201440414E+01 0.  0.
     999903    2    3    3    0    0  0.88014425345E-01  0.49429860787E-01  0.79783744830E-01  0.13022916437E+00  0.20108185089E-01 0.  0.
         14    1    1    2    0    0  0.18343009220E-01 -0.13352293625E-01 -0.61809715288E-02  0.23514976958E-01  0.00000000000E+00 0. -1.
     999901    1    3    3    0    0 -0.10635743456E+00 -0.36077567162E-01 -0.73602773302E-01  0.89018585867E+00  0.88000000000E+00 0. -1.
        -11    1    4    4    0    0  0.10549116891E-01 -0.77847365408E-03  0.90653327737E-02  0.13940275023E-01  0.51100000000E-03 0. -1.
         11    1    4    4    0    0  0.77465308453E-01  0.50208334441E-01  0.70718412057E-01  0.11628888935E+00  0.51100000000E-03 0.  1.
</event>
<event>
 8    1  0.1076043E+005  0.1043930E+01  0.7957747E-01            NaN
         13   -1    0    0    0    0  0.00000000000E+00  0.00000000000E+00  0.74505805969E-08  0.10566000000E+00  0.10566000000E+00 0. -1.
     999900   -1    0    0    0    0 -0.00000000000E+00 -0.00000000000E+00 -0.74505805969E-08  0.93827000000E+00  0.93827000000E+00 0. -1.
     999902    2    1    2    0    0 -0.13194269187E-01 -0.15465704915E-01 -0.11459496501E-01  0.10205934015E+01  0.10203265626E+01 0.  0.
     999903    2    3    3    0    0 -0.28362178470E-01 -0.10687642903E+00  0.69415326397E-01  0.13204023884E+00  0.19726958302E-01 0.  0.
         14    1    1    2    0    0  0.13194269187E-01  0.15465704915E-01  0.11459496501E-01  0.23336598466E-01  0.00000000000E+00 0. -1.
     999901    1    3    3    0    0  0.15167909283E-01  0.91410724117E-01 -0.80874822898E-01  0.88855316269E+00  0.88000000000E+00 0.  1.
        -11    1    4    4    0    0 -0.19194548577E-01 -0.93217556262E-01  0.53674435272E-01  0.10926641576E+00  0.51100000000E-03 0.  1.
         11    1    4    4    0    0 -0.91676298933E-02 -0.13658872771E-01  0.15740891125E-01  0.22773823079E-01  0.51100000000E-03 0. -1.
</event>
<event>
 8    1  0.1076043E+005  0.1043930E+01  0.7957747E-01            NaN
         13   -1    0    0    0    0  0.00000000000E+00  0.00000000000E+00  0.74505805969E-08  0.10566000000E+00  0.10566000000E+00 0.  1.
     999900   -1    0    0    0    0 -0.00000000000E+00 -0.00000000000E+00 -0.74505805969E-08  0.93827000000E+00  0.93827000000E+00 0.  1.
     999902    2    1    2    0    0  0.12604568009E-01  0.96052372306E-02  0.18046477907E-01  0.10199131084E+01  0.10196302946E+01 0.  0.
     999903    2    3    3    0    0  0.11184999230E+00  0.66009955128E-01 -0.12109160338E-01  0.13202769409E+00  0.20419238165E-01 0.  0.
         14    1    1    2    0    0 -0.12604568009E-01 -0.96052372306E-02 -0.18046477907E-01  0.24016891593E-01  0.00000000000E+00 0. -1.
     999901    1    3    3    0    0 -0.99245424295E-01 -0.56404717898E-01  0.30155638245E-01  0.88788541432E+00  0.88000000000E+00 0.  1.
        -11    1    4    4    0    0  0.52192325614E-01  0.23383018320E-01 -0.13196787139E-01  0.58696002509E-01  0.51100000000E-03 0. -1.
         11    1    4    4    0    0  0.59657666690E-01  0.42626936808E-01  0.10876268008E-02  0.73331691577E-01  0.51100000000E-03 0.  1.
</event>
<event>
 8    1  0.1076043E+005  0.1043930E+01  0.7957747E-01            NaN
         13   -1    0    0    0    0  0.00000000000E+00  0.00000000000E+00  0.74505805969E-08  0.10566000000E+00  0.10566000000E+00 0. -1.
     999900   -1    0    0    0    0 -0.00000000000E+00 -0.00000000000E+00 -0.74505805969E-08  0.93827000000E+00  0.93827000000E+00 0.  1.
     999902    2    1    2    0    0  0.82566193260E-02  0.27328692608E-02 -0.40097504342E-02  0.10343530258E+01  0.10343086887E+01 0.  0.
     999903    2    3    3    0    0 -0.47800547632E-01  0.11368778779E+00  0.68855997631E-01  0.14263400210E+00  0.19836952856E-01 0.  0.
         14    1    1    2    0    0 -0.82566193260E-02 -0.27328692608E-02  0.40097504342E-02  0.95769742422E-02  0.00000000000E+00 0. -1.
     999901    1    3    3    0    0  0.56057166958E-01 -0.11095491853E+00 -0.72865748065E-01  0.89171902366E+00  0.88000000000E+00 0.  1.
        -11    1    4    4    0    0 -0.36162279306E-01  0.66040253356E-01  0.34989068697E-01  0.83027233829E-01  0.51100000000E-03 0.  1.
         11    1    4    4    0    0 -0.11638268326E-01  0.47647534435E-01  0.33866928933E-01  0.59606768271E-01  0.51100000000E-03 0. -1.
</event>
<event>
 8    1  0.1076043E+005  0.1043930E+01  0.7957747E-01            NaN
         13   -1    0    0    0    0  0.00000000000E+00  0.00000000000E+00  0.74505805969E-08  0.10566000000E+00  0.10566000000E+00 0.  1.
     999900   -1    0    0    0    0 -0.00000000000E+00 -0.00000000000E+00 -0.74505805969E-08  0.93827000000E+00  0.93827000000E+00 0.  1.
     999902    2    1    2    0    0  0.18915225176E-01 -0.12809446714E-02  0.15467208364E-01  0.10194624481E+01  0.10191687897E+01 0.  0.
     999903    2    3    3    0    0 -0.43184974190E-01 -0.96762246091E-02 -0.11762653769E+00  0.12725122828E+00  0.19957490077E-01 0.  0.
         14    1    1    2    0    0 -0.18915225176E-01  0.12809446714E-02 -0.15467208364E-01  0.24467551927E-01  0.00000000000E+00 0. -1.
     999901    1    3    3    0    0  0.62100199366E-01  0.83952799378E-02  0.13309374606E+00  0.89221121979E+00  0.88000000000E+00 0. -1.
        -11    1    4    4    0    0 -0.22099927850E-01  0.48218255804E-02 -0.62616209036E-01  0.66578581901E-01  0.51100000000E-03 0. -1.
         11    1    4    4    0    0 -0.21085046339E-01 -0.14498050190E-01 -0.55010328658E-01  0.60672646378E-01  0.51100000000E-03 0.  1.
</event>
<event>
 8    1  0.1076043E+005  0.1043930E+01  0.7957747E-01            NaN
         13   -1    0    0    0    0  0.00000000000E+00  0.00000000000E+00  0.74505805969E-08  0.10566000000E+00  0.10566000000E+00 0.  1.
     999900   -1    0    0    0    0 -0.00000000000E+00 -0.00000000000E+00 -0.74505805969E-08  0.93827000000E+00  0.93827000000E+00 0. -1.
     999902    2    1    2    0    0 -0.31015428555E-02  0.21052617479E-01  0.97033366012E-02  0.10205422465E+01  0.10202742229E+01 0.  0.
     999903    2    3    3    0    0 -0.74445991044E-01  0.10256371710E+00 -0.34371441592E-01  0.13280541857E+00  0.19858538640E-01 0.  0.
         14    1    1    2    0    0  0.31015428555E-02 -0.21052617479E-01 -0.97033366012E-02  0.23387753462E-01  0.00000000000E+00 0. -1.
     999901    1    3    3    0    0  0.71344448188E-01 -0.81511099625E-01  0.44074778194E-01  0.88773682796E+00  0.88000000000E+00 0.  1.
        -11    1    4    4    0    0 -0.54250688529E-01  0.87180386934E-01 -0.30520929850E-01  0.10712303838E+00  0.51100000000E-03 0. -1.
         11    1    4    4    0    0 -0.20195302515E-01  0.15383330170E-01 -0.38505117420E-02  0.25682380195E-01  0.51100000000E-03 0.  1.
</event>
<event>
 8    1  0.1076043E+005  0.1043930E+01  0.7957747E-01            NaN
         13   -1    0    0    0    0  0.00000000000E+00  0.00000000000E+00  0.74505805969E-08  0.10566000000E+00  0.10566000000E+00 0.  1.
     999900   -1    0    0    0    0 -0.00000000000E+00 -0.00000000000E+00 -0.74505805969E-08  0.93827000000E+00  0.93827000000E+00 0.  1.
     999902    2    1    2    0    0 -0.21028935563E-01 -0.13852247778E-01 -0.31685969113E-02  0.10185500688E+01  0.10182338149E+01 0.  0.
     999903    2    3    3    0    0 -0.68809244278E-01  0.96866190751E-01  0.46353197310E-01  0.12894682096E+00  0.18997176800E-01 0.  0.
         14    1    1    2    0    0  0.21028935563E-01  0.13852247778E-01  0.31685969113E-02  0.25379931162E-01  0.00000000000E+00 0. -1.
     999901    1    3    3    0    0  0.47780308715E-01 -0.11071843853E+00 -0.49521794221E-01  0.88960324788E+00  0.88000000000E+00 0.  1.
        -11    1    4    4    0    0 -0.37531053222E-01  0.55113757308E-01  0.35927284321E-01  0.75743891373E-01  0.51100000000E-03 0. -1.
         11    1    4    4    0    0 -0.31278191055E-01  0.41752433443E-01  0.10425912989E-01  0.53202929588E-01  0.51100000000E-03 0.  1.
</event>
<event>
 8    1  0.1076043E+005  0.1043930E+01  0.7957747E-01            NaN
         13   -1    0    0    0    0  0.00000000000E+00  0.00000000000E+00  0.74505805969E-08  0.10566000000E+00  0.10566000000E+00 0. -1.
     999900   -1    0    0    0    0 -0.00000000000E+00 -0.00000000000E+00 -0.74505805969E-08  0.93827000000E+00  0.93827000000E+00 0. -1.
     999902    2    1    2    0    0  0.15107658909E-01  0.27142656578E-02  0.18882474490E-01  0.10195957353E+01  0.10193053061E+01 0.  0.
     999903    2    3    3    0    0  0.34542011184E-01 -0.96489445581E-01 -0.73945020199E-01  0.12895775377E+00  0.25668513776E-01 0.  0.
         14    1    1    2    0    0 -0.15107658909E-01 -0.27142656578E-02 -0.18882474490E-01  0.24334264703E-01  0.00000000000E+00 0. -1.
     999901    1    3    3    0    0 -0.19434352275E-01  0.99203711238E-01  0.92827494689E-01  0.89063798153E+00  0.88000000000E+00 0.  1.
        -11    1    4    4    0    0  0.19987941632E-01 -0.71907015998E-01 -0.40309979604E-01  0.84825069037E-01  0.51100000000E-03 0. -1.
         11    1    4    4    0    0  0.14554069552E-01 -0.24582429582E-01 -0.33635040595E-01  0.44132684731E-01  0.51100000000E-03 0.  1.
</event>
<event>
 8    1  0.1076043E+005  0.1043930E+01  0.7957747E-01            NaN
         13   -1    0    0    0    0  0.00000000000E+00  0.00000000000E+00  0.74505805969E-08  0.10566000000E+00  0.10566000000E+00 0.  1.
     999900   -1    0    0    0    0 -0.00000000000E+00 -0.00000000000E+00 -0.74505805969E-08  0.93827000000E+00  0.93827000000E+00 0. -1.
     999902    2    1    2    0    0  0.20903759344E-01  0.34974064251E-02 -0.14358948231E-01  0.10183296406E+01  0.10180077989E+01 0.  0.
     999903    2    3    3    0    0  0.90712852557E-01  0.85647212769E-01 -0.36581954139E-01  0.13147240172E+00  0.19557258818E-01 0.  0.
         14    1    1    2    0    0 -0.20903759344E-01 -0.34974064251E-02  0.14358948231E-01  0.25600359387E-01  0.00000000000E+00 0. -1.
     999901    1    3    3    0    0 -0.69809093213E-01 -0.82149806344E-01  0.22223005908E-01  0.88685723889E+00  0.88000000000E+00 0. -1.
        -11    1    4    4    0    0  0.11343812136E-01  0.74820730550E-02 -0.10184228779E-01  0.16989500516E-01  0.51100000000E-03 0. -1.
         11    1    4    4    0    0  0.79369040421E-01  0.78165139714E-01 -0.26397725361E-01  0.11448290121E+00  0.51100000000E-03 0.  1.
</event>
